Protein in INSANE! Membrane UpperLeaflet>POPC=1.0 LowerLeaflet>POPC=1.0
249030
    1AU     AUC    1  24.957  38.781   7.481
    1AU     AUC    2  25.258  38.823   7.314
    1AU     AUC    3  25.235  38.791   7.652
    1AU     AUC    4  24.669  38.772   7.312
    1AU     AUC    5  24.670  38.762   7.663
    1AU     AUC    6  24.769  39.029   7.505
    1AU     AUC    7  25.110  39.056   7.492
    1AU     AUC    8  24.794  38.499   7.476
    1AU     AUC    9  25.154  38.545   7.465
    1AU     AUC   10  24.987  38.602   7.750
    1AU     AUC   11  24.941  38.932   7.765
    1AU     AUC   12  24.974  38.633   7.197
    1AU     AUC   13  24.975  38.968   7.216
    1AU     AUC   14  25.567  38.852   7.161
    1AU     AUC   15  25.604  38.829   7.481
    1AU     AUC   16  25.539  38.784   7.845
    1AU     AUC   17  24.369  38.755   7.137
    1AU     AUC   18  24.333  38.786   7.501
    1AU     AUC   19  24.385  38.749   7.842
    1AU     AUC   20  24.599  39.330   7.498
    1AU     AUC   21  24.944  39.390   7.494
    1AU     AUC   22  25.260  39.370   7.514
    1AU     AUC   23  24.617  38.180   7.470
    1AU     AUC   24  24.963  38.223   7.462
    1AU     AUC   25  25.355  38.262   7.429
    1AU     AUC   26  24.999  38.374   8.030
    1AU     AUC   27  24.957  38.699   8.080
    1AU     AUC   28  24.956  39.077   8.058
    1AU     AUC   29  24.972  38.450   6.900
    1AU     AUC   30  24.971  38.796   6.895
    1AU     AUC   31  24.994  39.154   6.925
    1AU     AUC   32  25.285  38.544   7.943
    1AU     AUC   33  25.263  38.909   7.995
    1AU     AUC   34  25.264  38.653   6.991
    1AU     AUC   35  25.293  39.014   6.997
    1AU     AUC   36  24.662  38.545   7.961
    1AU     AUC   37  24.662  38.902   7.976
    1AU     AUC   38  24.633  38.584   7.023
    1AU     AUC   39  24.643  38.959   7.009
    1AU     AUC   40  25.465  39.113   7.347
    1AU     AUC   41  25.409  39.073   7.701
    1AU     AUC   42  24.478  39.062   7.291
    1AU     AUC   43  24.458  39.066   7.682
    1AU     AUC   44  25.470  38.539   7.278
    1AU     AUC   45  25.477  38.501   7.608
    1AU     AUC   46  24.438  38.482   7.321
    1AU     AUC   47  24.470  38.479   7.652
    1AU     AUC   48  24.761  39.249   7.786
    1AU     AUC   49  25.100  39.251   7.804
    1AU     AUC   50  24.764  38.265   7.747
    1AU     AUC   51  25.176  38.282   7.766
    1AU     AUC   52  24.770  39.235   7.168
    1AU     AUC   53  25.163  39.271   7.176
    1AU     AUC   54  24.760  38.304   7.186
    1AU     AUC   55  25.148  38.336   7.135
    1AU    AUSL   56  25.545  38.680   8.200
    1AU    AUSL   57  25.381  38.208   8.061
    1AU     AUL   58  25.660  38.304   8.246
    1AU       S   59  25.748  37.876   8.091
    1AU     LIG   60  25.643  37.846   8.504
    1AU     LIG   61  25.724  37.575   8.887
    1AU       S   62  25.798  38.720   8.398
    1AU     LIG   63  25.786  38.954   8.778
    1AU     LIG   64  26.024  38.866   9.165
    1AU    AUSL   65  25.153  38.498   8.285
    1AU    AUSL   66  24.819  38.827   8.369
    1AU     AUL   67  25.011  38.670   8.623
    1AU       S   68  25.435  38.469   8.612
    1AU     LIG   69  25.419  38.665   8.993
    1AU     LIG   70  25.610  38.609   9.406
    1AU       S   71  24.289  38.610   8.662
    1AU     LIG   72  24.419  38.983   8.930
    1AU     LIG   73  24.426  38.997   9.396
    1AU    AUSL   74  25.162  38.917   8.157
    1AU    AUSL   75  25.575  39.100   8.126
    1AU     AUL   76  25.385  38.927   8.448
    1AU       S   77  24.993  39.178   8.608
    1AU     LIG   78  25.313  39.154   8.894
    1AU     LIG   79  25.584  39.112   9.246
    1AU       S   80  25.727  39.249   8.353
    1AU     LIG   81  26.122  39.308   8.619
    1AU     LIG   82  26.550  39.565   8.660
    1AU    AUSL   83  25.523  38.906   6.755
    1AU    AUSL   84  25.412  39.343   6.834
    1AU     AUL   85  25.564  39.178   6.504
    1AU       S   86  25.427  38.784   6.283
    1AU     LIG   87  25.891  38.731   6.215
    1AU     LIG   88  26.192  38.683   5.855
    1AU       S   89  25.754  39.477   6.799
    1AU     LIG   90  25.855  39.598   6.379
    1AU     LIG   91  26.164  39.896   6.175
    1AU    AUSL   92  25.175  38.665   6.701
    1AU    AUSL   93  25.500  38.572   7.025
    1AU     AUL   94  25.606  38.608   6.668
    1AU       S   95  25.739  38.129   6.572
    1AU     LIG   96  26.191  38.055   6.614
    1AU     LIG   97  26.584  37.997   6.336
    1AU       S   98  25.234  38.473   6.361
    1AU     LIG   99  25.232  38.175   5.945
    1AU     LIG  100  25.466  38.286   5.537
    1AU    AUSL  101  25.118  39.096   6.648
    1AU    AUSL  102  24.792  38.538   6.595
    1AU     AUL  103  24.972  38.853   6.406
    1AU       S  104  24.590  38.584   6.292
    1AU     LIG  105  24.837  38.500   5.963
    1AU     LIG  106  24.654  38.413   5.538
    1AU       S  107  25.447  38.507   6.219
    1AU     LIG  108  25.298  38.686   5.808
    1AU     LIG  109  25.449  38.783   5.363
    1AU    AUSL  110  24.457  38.711   8.164
    1AU    AUSL  111  24.686  39.150   8.136
    1AU     AUL  112  24.547  39.011   8.441
    1AU       S  113  24.213  38.684   8.373
    1AU     LIG  114  23.961  38.966   8.675
    1AU     LIG  115  23.993  38.797   9.141
    1AU       S  116  24.275  39.374   8.285
    1AU     LIG  117  24.256  39.745   8.508
    1AU     LIG  118  23.914  40.056   8.583
    1AU    AUSL  119  24.739  38.402   8.325
    1AU    AUSL  120  24.316  38.331   8.030
    1AU     AUL  121  24.440  38.280   8.316
    1AU       S  122  24.051  38.062   8.172
    1AU     LIG  123  23.684  37.945   8.422
    1AU     LIG  124  23.324  37.945   8.746
    1AU       S  125  24.532  38.570   8.656
    1AU     LIG  126  24.604  38.540   9.098
    1AU     LIG  127  24.352  38.487   9.488
    1AU    AUSL  128  24.420  38.692   6.749
    1AU    AUSL  129  24.682  38.370   6.972
    1AU     AUL  130  24.530  38.303   6.657
    1AU       S  131  24.231  38.624   6.469
    1AU     LIG  132  23.961  38.726   6.079
    1AU     LIG  133  23.991  38.630   5.601
    1AU       S  134  24.112  38.065   6.673
    1AU     LIG  135  24.214  37.660   6.492
    1AU     LIG  136  24.209  37.519   6.036
    1AU    AUSL  137  24.775  38.931   6.817
    1AU    AUSL  138  24.329  39.074   6.905
    1AU     AUL  139  24.522  38.987   6.545
    1AU       S  140  24.150  39.223   6.715
    1AU     LIG  141  23.831  39.544   6.586
    1AU     LIG  142  23.451  39.746   6.360
    1AU       S  143  24.357  38.462   6.218
    1AU     LIG  144  24.420  38.777   5.850
    1AU     LIG  145  24.415  38.860   5.376
    1AU    AUSL  146  25.649  39.382   7.550
    1AU    AUSL  147  25.642  39.113   7.109
    1AU     AUL  148  25.803  39.492   7.274
    1AU       S  149  25.886  39.169   6.927
    1AU     LIG  150  26.065  39.085   6.524
    1AU     LIG  151  26.275  39.364   6.219
    1AU       S  152  26.171  39.251   7.901
    1AU     LIG  153  26.157  39.702   7.810
    1AU     LIG  154  26.522  39.947   7.781
    1AU    AUSL  155  25.917  39.049   7.415
    1AU    AUSL  156  25.911  38.650   7.643
    1AU     AUL  157  26.228  38.832   7.512
    1AU       S  158  26.105  39.262   7.608
    1AU     LIG  159  26.434  39.337   7.220
    1AU     LIG  160  26.978  39.369   7.222
    1AU       S  161  26.168  38.359   7.477
    1AU     LIG  162  26.346  38.142   7.812
    1AU     LIG  163  26.357  37.715   7.918
    1AU    AUSL  164  25.655  38.975   7.739
    1AU    AUSL  165  25.332  39.287   7.810
    1AU     AUL  166  25.696  39.373   7.889
    1AU       S  167  25.694  39.551   8.354
    1AU     LIG  168  26.124  39.718   8.324
    1AU     LIG  169  26.402  40.049   8.495
    1AU       S  170  26.015  39.022   7.916
    1AU     LIG  171  26.536  38.900   7.919
    1AU     LIG  172  27.024  38.781   7.827
    1AU    AUSL  173  24.305  39.280   7.527
    1AU    AUSL  174  24.309  39.047   7.941
    1AU     AUL  175  24.042  39.393   7.799
    1AU       S  176  24.168  39.109   8.148
    1AU     LIG  177  23.773  39.297   8.260
    1AU     LIG  178  23.548  39.662   8.449
    1AU       S  179  24.256  39.699   7.506
    1AU     LIG  180  23.788  39.612   7.423
    1AU     LIG  181  23.409  39.766   7.648
    1AU    AUSL  182  24.225  38.926   7.275
    1AU    AUSL  183  24.384  39.437   7.143
    1AU     AUL  184  24.081  39.266   7.194
    1AU       S  185  23.940  38.799   6.906
    1AU     LIG  186  23.670  39.159   6.925
    1AU     LIG  187  23.370  39.467   6.797
    1AU       S  188  24.207  39.659   6.932
    1AU     LIG  189  23.899  40.007   6.808
    1AU     LIG  190  23.672  40.361   6.615
    1AU    AUSL  191  24.013  38.969   7.649
    1AU    AUSL  192  24.008  38.583   7.382
    1AU     AUL  193  23.828  38.903   7.349
    1AU       S  194  23.764  38.524   7.631
    1AU     LIG  195  23.526  38.454   7.223
    1AU     LIG  196  23.090  38.264   7.072
    1AU       S  197  23.760  39.017   7.815
    1AU     LIG  198  23.432  39.318   7.872
    1AU     LIG  199  23.166  39.652   8.093
    1AU    AUSL  200  25.666  38.375   7.418
    1AU    AUSL  201  25.545  38.516   7.815
    1AU     AUL  202  25.872  38.394   7.837
    1AU       S  203  25.957  38.204   7.412
    1AU     LIG  204  26.018  37.804   7.289
    1AU     LIG  205  26.231  37.459   7.494
    1AU       S  206  25.936  37.940   7.992
    1AU     LIG  207  26.194  37.941   8.365
    1AU     LIG  208  26.260  37.724   8.783
    1AU    AUSL  209  25.864  38.690   7.192
    1AU    AUSL  210  25.573  38.120   7.098
    1AU     AUL  211  25.804  38.376   7.008
    1AU       S  212  26.168  38.431   7.272
    1AU     LIG  213  26.396  38.108   7.078
    1AU     LIG  214  26.832  38.024   6.992
    1AU       S  215  25.694  37.959   6.829
    1AU     LIG  216  25.834  37.559   6.855
    1AU     LIG  217  26.220  37.535   6.676
    1AU    AUSL  218  24.362  38.335   7.470
    1AU    AUSL  219  24.257  38.469   7.059
    1AU     AUL  220  23.998  38.260   7.289
    1AU       S  221  24.071  38.307   6.827
    1AU     LIG  222  23.624  38.038   6.709
    1AU     LIG  223  23.404  37.708   6.383
    1AU       S  224  23.708  38.510   7.804
    1AU     LIG  225  23.683  38.044   7.851
    1AU     LIG  226  23.525  37.693   7.660
    1AU    AUSL  227  24.223  38.626   7.757
    1AU    AUSL  228  24.417  38.024   7.741
    1AU     AUL  229  24.119  38.218   7.732
    1AU       S  230  24.162  37.824   7.984
    1AU     LIG  231  23.758  37.553   8.099
    1AU     LIG  232  23.407  37.516   8.467
    1AU       S  233  23.902  38.580   7.942
    1AU     LIG  234  23.494  38.369   8.209
    1AU     LIG  235  23.259  37.961   8.104
    1AU    AUSL  236  24.929  39.455   7.955
    1AU    AUSL  237  24.498  39.433   7.874
    1AU     AUL  238  24.735  39.473   8.252
    1AU       S  239  24.379  39.649   8.006
    1AU     LIG  240  23.929  39.786   8.106
    1AU     LIG  241  23.579  40.114   8.171
    1AU       S  242  24.892  39.857   8.017
    1AU     LIG  243  25.160  40.094   8.306
    1AU     LIG  244  25.163  40.552   8.466
    1AU    AUSL  245  24.741  39.660   7.616
    1AU    AUSL  246  25.080  39.716   7.284
    1AU     AUL  247  24.761  39.936   7.404
    1AU       S  248  24.940  40.074   7.845
    1AU     LIG  249  24.838  40.431   8.083
    1AU     LIG  250  24.637  40.505   8.485
    1AU       S  251  25.054  39.968   7.037
    1AU     LIG  252  25.267  40.325   7.213
    1AU     LIG  253  25.194  40.811   7.152
    1AU    AUSL  254  25.200  39.658   7.681
    1AU    AUSL  255  25.214  39.323   8.233
    1AU     AUL  256  25.298  39.604   8.035
    1AU       S  257  25.427  39.417   8.468
    1AU     LIG  258  25.708  39.488   8.849
    1AU     LIG  259  26.104  39.764   8.860
    1AU       S  260  25.148  39.936   7.728
    1AU     LIG  261  25.368  40.325   7.889
    1AU     LIG  262  25.263  40.752   8.005
    1AU    AUSL  263  25.005  38.019   8.069
    1AU    AUSL  264  25.559  38.063   7.684
    1AU     AUL  265  25.307  37.837   7.958
    1AU       S  266  24.865  37.486   8.013
    1AU     LIG  267  24.675  37.279   8.351
    1AU     LIG  268  24.927  37.053   8.653
    1AU       S  269  25.750  37.899   7.750
    1AU     LIG  270  25.913  37.445   7.898
    1AU     LIG  271  26.174  37.407   8.308
    1AU    AUSL  272  24.813  37.888   7.697
    1AU    AUSL  273  24.735  38.293   7.921
    1AU     AUL  274  24.640  37.937   8.050
    1AU       S  275  24.806  37.601   7.765
    1AU     LIG  276  24.423  37.492   7.745
    1AU     LIG  277  24.236  37.234   8.077
    1AU       S  278  24.190  37.811   8.267
    1AU     LIG  279  24.035  37.423   8.522
    1AU     LIG  280  24.065  37.227   8.969
    1AU    AUSL  281  25.156  38.130   7.640
    1AU    AUSL  282  24.799  37.996   7.294
    1AU     AUL  283  25.130  37.790   7.484
    1AU       S  284  24.648  37.663   7.303
    1AU     LIG  285  24.416  37.259   7.132
    1AU     LIG  286  24.460  36.868   6.780
    1AU       S  287  25.030  37.423   7.799
    1AU     LIG  288  25.267  37.050   7.825
    1AU     LIG  289  25.600  36.802   8.100
    1AU    AUSL  290  25.027  39.466   6.943
    1AU    AUSL  291  25.336  39.376   7.270
    1AU     AUL  292  25.389  39.653   7.053
    1AU       S  293  25.036  39.704   6.724
    1AU     LIG  294  24.723  39.998   6.442
    1AU     LIG  295  24.723  40.484   6.480
    1AU       S  296  26.012  39.443   6.845
    1AU     LIG  297  25.929  39.946   6.745
    1AU     LIG  298  26.289  40.261   6.726
    1AU    AUSL  299  24.771  39.406   7.291
    1AU    AUSL  300  24.656  39.338   6.812
    1AU     AUL  301  24.671  39.656   7.023
    1AU       S  302  24.976  40.020   6.849
    1AU     LIG  303  24.826  40.449   6.985
    1AU     LIG  304  24.803  40.896   6.810
    1AU       S  305  24.406  39.479   6.652
    1AU     LIG  306  24.229  39.833   6.441
    1AU     LIG  307  23.858  40.048   6.250
    1AU    AUSL  308  24.938  38.053   6.880
    1AU    AUSL  309  24.408  38.067   7.147
    1AU     AUL  310  24.645  37.939   6.921
    1AU       S  311  24.175  38.001   6.928
    1AU     LIG  312  23.884  37.662   6.960
    1AU     LIG  313  23.590  37.367   6.731
    1AU       S  314  24.897  37.558   7.079
    1AU     LIG  315  25.177  37.389   6.798
    1AU     LIG  316  25.067  37.018   6.533
    1AU    AUSL  317  25.184  38.168   7.226
    1AU    AUSL  318  25.286  38.272   6.800
    1AU     AUL  319  25.254  37.900   6.996
    1AU       S  320  24.832  37.496   7.259
    1AU     LIG  321  25.227  37.257   7.323
    1AU     LIG  322  25.369  36.947   6.999
    1AU       S  323  25.455  38.130   6.625
    1AU     LIG  324  25.492  37.674   6.475
    1AU     LIG  325  25.852  37.388   6.329
    2AU     AUC  326  26.610  11.061   7.499
    2AU     AUC  327  26.910  11.092   7.325
    2AU     AUC  328  26.892  11.081   7.663
    2AU     AUC  329  26.319  11.045   7.337
    2AU     AUC  330  26.327  11.049   7.688
    2AU     AUC  331  26.423  11.310   7.515
    2AU     AUC  332  26.763  11.334   7.495
    2AU     AUC  333  26.447  10.778   7.508
    2AU     AUC  334  26.810  10.824   7.492
    2AU     AUC  335  26.649  10.896   7.772
    2AU     AUC  336  26.600  11.225   7.776
    2AU     AUC  337  26.623  10.900   7.222
    2AU     AUC  338  26.624  11.232   7.224
    2AU     AUC  339  27.217  11.111   7.165
    2AU     AUC  340  27.260  11.113   7.485
    2AU     AUC  341  27.201  11.086   7.853
    2AU     AUC  342  26.016  11.024   7.170
    2AU     AUC  343  25.988  11.066   7.535
    2AU     AUC  344  26.047  11.043   7.874
    2AU     AUC  345  26.254  11.612   7.497
    2AU     AUC  346  26.599  11.670   7.481
    2AU     AUC  347  26.914  11.651   7.495
    2AU     AUC  348  26.272  10.459   7.518
    2AU     AUC  349  26.616  10.499   7.504
    2AU     AUC  350  27.010  10.542   7.467
    2AU     AUC  351  26.667  10.680   8.061
    2AU     AUC  352  26.622  11.006   8.099
    2AU     AUC  353  26.618  11.384   8.060
    2AU     AUC  354  26.616  10.703   6.933
    2AU     AUC  355  26.614  11.047   6.914
    2AU     AUC  356  26.637  11.403   6.923
    2AU     AUC  357  26.951  10.847   7.963
    2AU     AUC  358  26.925  11.215   7.998
    2AU     AUC  359  26.915  10.904   7.011
    2AU     AUC  360  26.939  11.262   6.995
    2AU     AUC  361  26.327  10.846   7.994
    2AU     AUC  362  26.326  11.205   7.995
    2AU     AUC  363  26.277  10.847   7.056
    2AU     AUC  364  26.287  11.218   7.026
    2AU     AUC  365  27.116  11.384   7.337
    2AU     AUC  366  27.065  11.365   7.695
    2AU     AUC  367  26.129  11.335   7.309
    2AU     AUC  368  26.117  11.356   7.699
    2AU     AUC  369  27.124  10.807   7.302
    2AU     AUC  370  27.139  10.790   7.630
    2AU     AUC  371  26.088  10.756   7.362
    2AU     AUC  372  26.129  10.763   7.694
    2AU     AUC  373  26.420  11.544   7.785
    2AU     AUC  374  26.758  11.547   7.795
    2AU     AUC  375  26.429  10.558   7.785
    2AU     AUC  376  26.842  10.577   7.799
    2AU     AUC  377  26.418  11.500   7.170
    2AU     AUC  378  26.814  11.529   7.163
    2AU     AUC  379  26.403  10.573   7.227
    2AU     AUC  380  26.798  10.600   7.174
    2AU    AUSL  381  27.211  10.996   8.213
    2AU    AUSL  382  27.058  10.519   8.090
    2AU     AUL  383  27.318  10.620   8.284
    2AU       S  384  27.478  10.239   8.081
    2AU     LIG  385  27.332  10.059   8.427
    2AU     LIG  386  27.490   9.765   8.736
    2AU       S  387  27.472  11.049   8.381
    2AU     LIG  388  27.428  11.165   8.816
    2AU     LIG  389  27.457  10.878   9.185
    2AU    AUSL  390  26.821  10.811   8.305
    2AU    AUSL  391  26.487  11.145   8.382
    2AU     AUL  392  26.683  10.998   8.634
    2AU       S  393  27.115  10.813   8.646
    2AU     LIG  394  26.957  10.905   9.046
    2AU     LIG  395  27.014  10.790   9.482
    2AU       S  396  25.957  10.953   8.698
    2AU     LIG  397  26.150  11.279   8.993
    2AU     LIG  398  26.097  11.265   9.459
    2AU    AUSL  399  26.828  11.226   8.163
    2AU    AUSL  400  27.236  11.413   8.115
    2AU     AUL  401  27.055  11.248   8.448
    2AU       S  402  26.673  11.500   8.612
    2AU     LIG  403  26.997  11.424   8.913
    2AU     LIG  404  27.173  11.286   9.317
    2AU       S  405  27.371  11.574   8.319
    2AU     LIG  406  27.797  11.616   8.349
    2AU     LIG  407  28.058  11.826   8.688
    2AU    AUSL  408  27.163  11.141   6.751
    2AU    AUSL  409  27.058  11.583   6.813
    2AU     AUL  410  27.187  11.429   6.485
    2AU       S  411  27.052  11.014   6.310
    2AU     LIG  412  27.444  10.987   6.161
    2AU     LIG  413  27.563  10.887   5.723
    2AU       S  414  27.438  11.689   6.772
    2AU     LIG  415  27.272  12.035   6.589
    2AU     LIG  416  27.497  12.397   6.452
    2AU    AUSL  417  26.816  10.893   6.732
    2AU    AUSL  418  27.154  10.827   7.048
    2AU     AUL  419  27.253  10.837   6.681
    2AU       S  420  27.417  10.184   6.759
    2AU     LIG  421  27.800   9.994   6.625
    2AU     LIG  422  27.927   9.794   6.215
    2AU       S  423  26.882  10.700   6.410
    2AU     LIG  424  27.016  10.398   6.049
    2AU     LIG  425  27.115  10.608   5.628
    2AU    AUSL  426  26.760  11.322   6.651
    2AU    AUSL  427  26.426  10.785   6.624
    2AU     AUL  428  26.601  11.079   6.428
    2AU       S  429  26.222  10.810   6.315
    2AU     LIG  430  26.279  10.685   5.864
    2AU     LIG  431  25.993  10.570   5.512
    2AU       S  432  26.931  10.862   6.143
    2AU     LIG  433  27.086  11.107   5.795
    2AU     LIG  434  27.252  11.111   5.361
    2AU    AUSL  435  26.120  11.021   8.195
    2AU    AUSL  436  26.358  11.466   8.145
    2AU     AUL  437  26.226  11.334   8.462
    2AU       S  438  25.885  11.016   8.395
    2AU     LIG  439  25.739  11.388   8.665
    2AU     LIG  440  25.655  11.270   9.118
    2AU       S  441  25.953  11.691   8.294
    2AU     LIG  442  26.018  12.080   8.495
    2AU     LIG  443  25.665  12.269   8.705
    2AU    AUSL  444  26.406  10.719   8.362
    2AU    AUSL  445  25.987  10.630   8.078
    2AU     AUL  446  26.092  10.600   8.365
    2AU       S  447  25.772  10.291   8.207
    2AU     LIG  448  25.345  10.379   8.229
    2AU     LIG  449  24.991  10.091   8.399
    2AU       S  450  26.207  10.899   8.686
    2AU     LIG  451  26.416  10.841   9.079
    2AU     LIG  452  26.272  10.757   9.522
    2AU    AUSL  453  26.055  10.946   6.777
    2AU    AUSL  454  26.325  10.637   7.011
    2AU     AUL  455  26.162  10.556   6.700
    2AU       S  456  25.853  10.874   6.514
    2AU     LIG  457  25.547  10.965   6.150
    2AU     LIG  458  25.613  10.895   5.678
    2AU       S  459  25.714  10.368   6.723
    2AU     LIG  460  25.882   9.945   6.623
    2AU     LIG  461  25.747   9.500   6.580
    2AU    AUSL  462  26.412  11.185   6.833
    2AU    AUSL  463  25.973  11.331   6.929
    2AU     AUL  464  26.153  11.230   6.562
    2AU       S  465  25.786  11.480   6.736
    2AU     LIG  466  25.440  11.813   6.740
    2AU     LIG  467  25.271  12.145   6.467
    2AU       S  468  25.962  10.730   6.280
    2AU     LIG  469  26.005  11.102   5.977
    2AU     LIG  470  26.080  11.088   5.517
    2AU    AUSL  471  27.299  11.672   7.524
    2AU    AUSL  472  27.288  11.363   7.094
    2AU     AUL  473  27.450  11.754   7.236
    2AU       S  474  27.536  11.397   6.909
    2AU     LIG  475  27.676  11.357   6.466
    2AU     LIG  476  27.673  11.802   6.324
    2AU       S  477  27.802  11.716   7.712
    2AU     LIG  478  27.923  11.922   7.273
    2AU     LIG  479  28.381  11.946   7.116
    2AU    AUSL  480  27.568  11.328   7.401
    2AU    AUSL  481  27.573  10.949   7.659
    2AU     AUL  482  27.885  11.108   7.527
    2AU       S  483  27.743  11.541   7.581
    2AU     LIG  484  28.173  11.507   7.398
    2AU     LIG  485  28.595  11.410   7.234
    2AU       S  486  27.824  10.631   7.497
    2AU     LIG  487  28.088  10.517   7.834
    2AU     LIG  488  28.557  10.529   7.883
    2AU    AUSL  489  27.311  11.276   7.732
    2AU    AUSL  490  26.986  11.587   7.795
    2AU     AUL  491  27.335  11.691   7.861
    2AU       S  492  27.330  11.882   8.314
    2AU     LIG  493  27.270  12.324   8.230
    2AU     LIG  494  27.593  12.604   8.372
    2AU       S  495  27.670  11.372   7.880
    2AU     LIG  496  28.125  11.408   7.931
    2AU     LIG  497  28.542  11.499   7.762
    2AU    AUSL  498  25.960  11.564   7.538
    2AU    AUSL  499  25.981  11.351   7.960
    2AU     AUL  500  25.700  11.694   7.800
    2AU       S  501  25.856  11.442   8.163
    2AU     LIG  502  25.443  11.609   8.278
    2AU     LIG  503  25.314  11.871   8.629
    2AU       S  504  25.916  11.990   7.501
    2AU     LIG  505  25.492  11.946   7.326
    2AU     LIG  506  25.206  12.199   7.061
    2AU    AUSL  507  25.874  11.199   7.308
    2AU    AUSL  508  26.034  11.706   7.148
    2AU     AUL  509  25.730  11.531   7.211
    2AU       S  510  25.573  11.076   6.960
    2AU     LIG  511  25.254  11.431   7.038
    2AU     LIG  512  24.935  11.771   6.966
    2AU       S  513  25.862  11.925   6.957
    2AU     LIG  514  25.635  12.325   6.848
    2AU     LIG  515  25.412  12.631   6.553
    2AU    AUSL  516  25.675  11.256   7.687
    2AU    AUSL  517  25.659  10.861   7.431
    2AU     AUL  518  25.485  11.183   7.407
    2AU       S  519  25.415  10.814   7.699
    2AU     LIG  520  25.188  10.784   7.289
    2AU     LIG  521  24.840  10.606   7.096
    2AU       S  522  25.468  11.293   7.883
    2AU     LIG  523  25.067  11.299   7.718
    2AU     LIG  524  24.787  11.649   7.875
    2AU    AUSL  525  27.332  10.662   7.446
    2AU    AUSL  526  27.208  10.820   7.834
    2AU     AUL  527  27.534  10.687   7.864
    2AU       S  528  27.619  10.494   7.440
    2AU     LIG  529  27.754  10.096   7.380
    2AU     LIG  530  28.160  10.100   7.524
    2AU       S  531  27.701  10.198   7.883
    2AU     LIG  532  27.862  10.071   8.336
    2AU     LIG  533  27.993   9.864   8.737
    2AU    AUSL  534  27.523  10.958   7.196
    2AU    AUSL  535  27.214  10.371   7.172
    2AU     AUL  536  27.445  10.617   7.033
    2AU       S  537  27.831  10.724   7.259
    2AU     LIG  538  28.027  10.352   7.045
    2AU     LIG  539  28.441  10.170   6.882
    2AU       S  540  27.368  10.146   7.026
    2AU     LIG  541  27.585   9.710   6.994
    2AU     LIG  542  27.739   9.437   6.634
    2AU    AUSL  543  26.013  10.612   7.519
    2AU    AUSL  544  25.903  10.744   7.107
    2AU     AUL  545  25.648  10.535   7.356
    2AU       S  546  25.722  10.592   6.902
    2AU     LIG  547  25.301  10.342   7.005
    2AU     LIG  548  25.158   9.986   6.708
    2AU       S  549  25.329  10.643   7.759
    2AU     LIG  550  25.370  10.221   7.668
    2AU     LIG  551  25.100   9.876   7.716
    2AU    AUSL  552  25.880  10.913   7.799
    2AU    AUSL  553  26.087  10.316   7.801
    2AU     AUL  554  25.787  10.494   7.792
    2AU       S  555  25.931  10.073   7.970
    2AU     LIG  556  25.882   9.647   8.168
    2AU     LIG  557  25.506   9.440   8.277
    2AU       S  558  25.521  10.835   7.951
    2AU     LIG  559  25.039  10.783   8.108
    2AU     LIG  560  24.913  10.333   7.945
    2AU    AUSL  561  26.589  11.762   7.938
    2AU    AUSL  562  26.159  11.736   7.872
    2AU     AUL  563  26.408  11.793   8.244
    2AU       S  564  26.046  11.950   7.995
    2AU     LIG  565  25.630  12.065   8.165
    2AU     LIG  566  25.298  12.299   8.351
    2AU       S  567  26.536  12.161   7.975
    2AU     LIG  568  26.757  12.333   8.291
    2AU     LIG  569  26.739  12.766   8.468
    2AU    AUSL  570  26.394  11.943   7.589
    2AU    AUSL  571  26.740  11.978   7.247
    2AU     AUL  572  26.432  12.205   7.355
    2AU       S  573  26.544  12.375   7.805
    2AU     LIG  574  26.401  12.673   8.092
    2AU     LIG  575  26.443  13.118   8.197
    2AU       S  576  26.705  12.201   6.963
    2AU     LIG  577  26.884  12.498   7.246
    2AU     LIG  578  26.894  12.933   7.086
    2AU    AUSL  579  26.853  11.952   7.650
    2AU    AUSL  580  26.873  11.636   8.219
    2AU     AUL  581  26.945  11.916   8.012
    2AU       S  582  27.090  11.740   8.450
    2AU     LIG  583  27.456  11.797   8.777
    2AU     LIG  584  27.670  12.219   8.824
    2AU       S  585  26.789  12.237   7.698
    2AU     LIG  586  26.962  12.629   7.913
    2AU     LIG  587  27.161  12.929   8.216
    2AU    AUSL  588  26.684  10.327   8.114
    2AU    AUSL  589  27.224  10.354   7.713
    2AU     AUL  590  27.005  10.148   8.017
    2AU       S  591  26.455   9.790   8.087
    2AU     LIG  592  26.322   9.529   8.403
    2AU     LIG  593  26.369   9.147   8.627
    2AU       S  594  27.418  10.179   7.765
    2AU     LIG  595  27.503   9.750   8.038
    2AU     LIG  596  27.813   9.551   8.343
    2AU    AUSL  597  26.479  10.180   7.755
    2AU    AUSL  598  26.405  10.593   7.963
    2AU     AUL  599  26.336  10.266   8.126
    2AU       S  600  26.412   9.917   7.827
    2AU     LIG  601  26.140   9.625   7.733
    2AU     LIG  602  26.289   9.251   7.961
    2AU       S  603  25.893  10.123   8.258
    2AU     LIG  604  25.996   9.890   8.615
    2AU     LIG  605  25.716   9.738   8.958
    2AU    AUSL  606  26.820  10.416   7.686
    2AU    AUSL  607  26.442  10.255   7.343
    2AU     AUL  608  26.777  10.063   7.547
    2AU       S  609  26.330   9.948   7.354
    2AU     LIG  610  26.059   9.715   7.052
    2AU     LIG  611  26.046   9.241   6.912
    2AU       S  612  26.628   9.707   7.876
    2AU     LIG  613  26.895   9.343   7.832
    2AU     LIG  614  27.118   8.926   7.943
    2AU    AUSL  615  26.675  11.708   6.922
    2AU    AUSL  616  26.986  11.632   7.249
    2AU     AUL  617  27.049  11.896   7.019
    2AU       S  618  26.696  11.940   6.695
    2AU     LIG  619  26.423  12.309   6.520
    2AU     LIG  620  26.695  12.714   6.470
    2AU       S  621  27.752  11.607   6.885
    2AU     LIG  622  27.767  12.069   6.792
    2AU     LIG  623  27.994  12.471   6.755
    2AU    AUSL  624  26.427  11.673   7.278
    2AU    AUSL  625  26.293  11.592   6.811
    2AU     AUL  626  26.327  11.910   6.995
    2AU       S  627  26.844  12.282   6.766
    2AU     LIG  628  26.486  12.632   6.928
    2AU     LIG  629  26.354  13.027   7.143
    2AU       S  630  26.022  11.728   6.658
    2AU     LIG  631  25.906  12.123   6.461
    2AU     LIG  632  25.762  12.482   6.180
    2AU    AUSL  633  26.580  10.320   6.924
    2AU    AUSL  634  26.056  10.343   7.195
    2AU     AUL  635  26.287  10.202   6.968
    2AU       S  636  25.817  10.277   6.992
    2AU     LIG  637  25.562   9.883   7.033
    2AU     LIG  638  25.297   9.508   6.870
    2AU       S  639  26.546   9.814   7.146
    2AU     LIG  640  26.503   9.486   6.850
    2AU     LIG  641  26.686   9.356   6.434
    2AU    AUSL  642  26.820  10.437   7.271
    2AU    AUSL  643  26.948  10.508   6.845
    2AU     AUL  644  26.893  10.160   7.047
    2AU       S  645  26.475   9.718   7.365
    2AU     LIG  646  26.875   9.462   7.281
    2AU     LIG  647  27.026   9.364   6.864
    2AU       S  648  27.166  10.344   6.691
    2AU     LIG  649  27.210   9.998   6.349
    2AU     LIG  650  27.435   9.589   6.244
    3AU     AUC  651  11.184  17.997   7.500
    3AU     AUC  652  11.486  18.037   7.332
    3AU     AUC  653  11.461  18.018   7.672
    3AU     AUC  654  10.896  17.979   7.331
    3AU     AUC  655  10.897  17.981   7.683
    3AU     AUC  656  10.993  18.241   7.516
    3AU     AUC  657  11.334  18.274   7.502
    3AU     AUC  658  11.026  17.713   7.504
    3AU     AUC  659  11.385  17.764   7.496
    3AU     AUC  660  11.217  17.829   7.775
    3AU     AUC  661  11.164  18.158   7.779
    3AU     AUC  662  11.204  17.840   7.222
    3AU     AUC  663  11.201  18.173   7.228
    3AU     AUC  664  11.793  18.064   7.179
    3AU     AUC  665  11.830  18.058   7.500
    3AU     AUC  666  11.762  18.023   7.866
    3AU     AUC  667  10.598  17.954   7.156
    3AU     AUC  668  10.561  17.997   7.520
    3AU     AUC  669  10.612  17.972   7.860
    3AU     AUC  670  10.821  18.542   7.498
    3AU     AUC  671  11.165  18.606   7.490
    3AU     AUC  672  11.480  18.591   7.513
    3AU     AUC  673  10.855  17.393   7.510
    3AU     AUC  674  11.199  17.437   7.504
    3AU     AUC  675  11.589  17.483   7.470
    3AU     AUC  676  11.231  17.611   8.062
    3AU     AUC  677  11.179  17.935   8.101
    3AU     AUC  678  11.173  18.313   8.066
    3AU     AUC  679  11.205  17.646   6.931
    3AU     AUC  680  11.202  17.991   6.914
    3AU     AUC  681  11.219  18.348   6.931
    3AU     AUC  682  11.515  17.781   7.971
    3AU     AUC  683  11.483  18.147   8.011
    3AU     AUC  684  11.496  17.855   7.015
    3AU     AUC  685  11.520  18.216   7.008
    3AU     AUC  686  10.890  17.774   7.987
    3AU     AUC  687  10.884  18.133   7.991
    3AU     AUC  688  10.864  17.781   7.048
    3AU     AUC  689  10.870  18.153   7.020
    3AU     AUC  690  11.688  18.330   7.357
    3AU     AUC  691  11.629  18.302   7.712
    3AU     AUC  692  10.703  18.264   7.300
    3AU     AUC  693  10.682  18.284   7.692
    3AU     AUC  694  11.700  17.756   7.306
    3AU     AUC  695  11.709  17.732   7.638
    3AU     AUC  696  10.669  17.688   7.350
    3AU     AUC  697  10.705  17.696   7.681
    3AU     AUC  698  10.981  18.475   7.788
    3AU     AUC  699  11.317  18.479   7.806
    3AU     AUC  700  11.005  17.489   7.782
    3AU     AUC  701  11.415  17.513   7.804
    3AU     AUC  702  10.994  18.432   7.173
    3AU     AUC  703  11.388  18.477   7.177
    3AU     AUC  704  10.990  17.510   7.223
    3AU     AUC  705  11.381  17.544   7.174
    3AU    AUSL  706  11.767  17.928   8.225
    3AU    AUSL  707  11.627  17.456   8.102
    3AU     AUL  708  11.914  17.545   8.283
    3AU       S  709  12.035  17.138   8.102
    3AU     LIG  710  11.934  16.909   8.438
    3AU     LIG  711  12.022  16.634   8.787
    3AU       S  712  12.013  17.983   8.377
    3AU     LIG  713  12.018  18.190   8.764
    3AU     LIG  714  12.128  17.950   9.145
    3AU    AUSL  715  11.373  17.740   8.308
    3AU    AUSL  716  11.036  18.072   8.384
    3AU     AUL  717  11.218  17.924   8.646
    3AU       S  718  11.619  17.692   8.600
    3AU     LIG  719  11.628  17.910   8.965
    3AU     LIG  720  11.695  17.786   9.405
    3AU       S  721  10.494  17.864   8.683
    3AU     LIG  722  10.681  18.200   8.984
    3AU     LIG  723  10.599  18.313   9.438
    3AU    AUSL  724  11.381  18.156   8.173
    3AU    AUSL  725  11.786  18.347   8.139
    3AU     AUL  726  11.596  18.169   8.467
    3AU       S  727  11.214  18.425   8.623
    3AU     LIG  728  11.576  18.426   8.903
    3AU     LIG  729  11.780  18.297   9.285
    3AU       S  730  11.900  18.511   8.354
    3AU     LIG  731  12.285  18.514   8.430
    3AU     LIG  732  12.434  18.928   8.521
    3AU    AUSL  733  11.753  18.104   6.767
    3AU    AUSL  734  11.637  18.542   6.834
    3AU     AUL  735  11.779  18.396   6.510
    3AU       S  736  11.665  17.984   6.317
    3AU     LIG  737  12.028  18.095   6.069
    3AU     LIG  738  12.097  17.883   5.649
    3AU       S  739  12.014  18.665   6.803
    3AU     LIG  740  11.891  19.025   6.607
    3AU     LIG  741  11.926  19.331   6.240
    3AU    AUSL  742  11.411  17.852   6.726
    3AU    AUSL  743  11.733  17.778   7.051
    3AU     AUL  744  11.846  17.800   6.698
    3AU       S  745  11.825  17.050   6.696
    3AU     LIG  746  12.271  17.167   6.595
    3AU     LIG  747  12.660  16.908   6.649
    3AU       S  748  11.489  17.659   6.396
    3AU     LIG  749  11.414  17.483   5.932
    3AU     LIG  750  11.672  17.539   5.521
    3AU    AUSL  751  11.347  18.281   6.658
    3AU    AUSL  752  11.029  17.721   6.622
    3AU     AUL  753  11.206  18.027   6.424
    3AU       S  754  10.834  17.746   6.306
    3AU     LIG  755  10.905  17.623   5.851
    3AU     LIG  756  10.619  17.556   5.481
    3AU       S  757  11.712  17.735   6.226
    3AU     LIG  758  11.595  17.956   5.814
    3AU     LIG  759  11.693  18.056   5.354
    3AU    AUSL  760  10.676  17.944   8.182
    3AU    AUSL  761  10.908  18.391   8.142
    3AU     AUL  762  10.766  18.260   8.452
    3AU       S  763  10.436  17.931   8.379
    3AU     LIG  764  10.290  18.307   8.653
    3AU     LIG  765  10.185  18.246   9.112
    3AU       S  766  10.490  18.620   8.283
    3AU     LIG  767  10.456  19.023   8.495
    3AU     LIG  768  10.209  19.291   8.791
    3AU    AUSL  769  10.959  17.645   8.356
    3AU    AUSL  770  10.550  17.555   8.054
    3AU     AUL  771  10.649  17.517   8.344
    3AU       S  772  10.258  17.290   8.189
    3AU     LIG  773   9.812  17.376   8.300
    3AU     LIG  774   9.500  17.182   8.612
    3AU       S  775  10.742  17.822   8.667
    3AU     LIG  776  10.890  17.737   9.055
    3AU     LIG  777  10.621  17.792   9.424
    3AU    AUSL  778  10.653  17.876   6.764
    3AU    AUSL  779  10.914  17.569   7.005
    3AU     AUL  780  10.775  17.483   6.688
    3AU       S  781  10.468  17.801   6.497
    3AU     LIG  782  10.148  17.887   6.156
    3AU     LIG  783  10.188  17.798   5.685
    3AU       S  784  10.342  17.268   6.704
    3AU     LIG  785  10.337  16.805   6.657
    3AU     LIG  786  10.074  16.507   6.417
    3AU    AUSL  787  11.004  18.121   6.829
    3AU    AUSL  788  10.557  18.259   6.914
    3AU     AUL  789  10.756  18.165   6.552
    3AU       S  790  10.382  18.395   6.727
    3AU     LIG  791  10.059  18.708   6.649
    3AU     LIG  792   9.938  19.041   6.372
    3AU       S  793  10.575  17.650   6.262
    3AU     LIG  794  10.595  18.015   5.948
    3AU     LIG  795  10.588  18.077   5.479
    3AU    AUSL  796  11.866  18.611   7.553
    3AU    AUSL  797  11.867  18.322   7.116
    3AU     AUL  798  12.025  18.706   7.271
    3AU       S  799  12.119  18.362   6.934
    3AU     LIG  800  12.272  18.355   6.481
    3AU     LIG  801  12.318  18.819   6.393
    3AU       S  802  12.378  18.564   7.932
    3AU     LIG  803  12.535  18.931   7.679
    3AU     LIG  804  12.959  18.938   7.491
    3AU    AUSL  805  12.136  18.276   7.429
    3AU    AUSL  806  12.141  17.889   7.663
    3AU     AUL  807  12.449  18.069   7.517
    3AU       S  808  12.306  18.479   7.671
    3AU     LIG  809  12.596  18.532   7.336
    3AU     LIG  810  13.012  18.556   7.119
    3AU       S  811  12.381  17.596   7.489
    3AU     LIG  812  12.613  17.628   7.827
    3AU     LIG  813  13.028  17.467   7.876
    3AU    AUSL  814  11.878  18.211   7.758
    3AU    AUSL  815  11.546  18.521   7.813
    3AU     AUL  816  11.899  18.618   7.892
    3AU       S  817  11.897  18.837   8.328
    3AU     LIG  818  12.197  19.119   8.091
    3AU     LIG  819  12.542  19.474   8.095
    3AU       S  820  12.221  18.267   7.937
    3AU     LIG  821  12.699  18.179   7.924
    3AU     LIG  822  12.988  18.452   7.681
    3AU    AUSL  823  10.531  18.489   7.529
    3AU    AUSL  824  10.534  18.277   7.950
    3AU     AUL  825  10.264  18.615   7.781
    3AU       S  826  10.397  18.352   8.143
    3AU     LIG  827  10.000  18.510   8.277
    3AU     LIG  828  10.020  18.779   8.653
    3AU       S  829  10.481  18.913   7.488
    3AU     LIG  830  10.016  18.937   7.447
    3AU     LIG  831   9.617  19.114   7.635
    3AU    AUSL  832  10.449  18.128   7.290
    3AU    AUSL  833  10.607  18.629   7.140
    3AU     AUL  834  10.302  18.462   7.202
    3AU       S  835  10.159  17.997   6.935
    3AU     LIG  836   9.846  18.371   7.002
    3AU     LIG  837   9.559  18.642   7.288
    3AU       S  838  10.434  18.842   6.936
    3AU     LIG  839  10.217  19.216   6.843
    3AU     LIG  840  10.187  19.520   6.490
    3AU    AUSL  841  10.239  18.182   7.664
    3AU    AUSL  842  10.237  17.786   7.409
    3AU     AUL  843  10.056  18.103   7.378
    3AU       S  844   9.993  17.730   7.674
    3AU     LIG  845   9.765  17.710   7.268
    3AU     LIG  846   9.370  17.587   7.130
    3AU       S  847   9.995  18.231   7.841
    3AU     LIG  848   9.759  18.631   7.818
    3AU     LIG  849   9.525  18.922   8.110
    3AU    AUSL  850  11.896  17.607   7.450
    3AU    AUSL  851  11.779  17.757   7.844
    3AU     AUL  852  12.105  17.645   7.868
    3AU       S  853  12.206  17.434   7.453
    3AU     LIG  854  12.293  17.028   7.325
    3AU     LIG  855  12.627  16.737   7.146
    3AU       S  856  12.284  17.204   7.962
    3AU     LIG  857  12.405  17.177   8.424
    3AU     LIG  858  12.485  16.860   8.740
    3AU    AUSL  859  12.095  17.912   7.210
    3AU    AUSL  860  11.802  17.323   7.158
    3AU     AUL  861  12.035  17.573   7.047
    3AU       S  862  12.426  17.667   7.269
    3AU     LIG  863  12.583  17.310   6.999
    3AU     LIG  864  13.013  17.068   7.017
    3AU       S  865  11.935  17.123   6.950
    3AU     LIG  866  12.189  16.731   6.875
    3AU     LIG  867  12.486  16.403   6.721
    3AU    AUSL  868  10.596  17.547   7.505
    3AU    AUSL  869  10.491  17.673   7.090
    3AU     AUL  870  10.228  17.467   7.324
    3AU       S  871  10.331  17.517   6.874
    3AU     LIG  872   9.903  17.341   6.916
    3AU     LIG  873   9.797  16.900   6.698
    3AU       S  874   9.906  17.540   7.809
    3AU     LIG  875   9.785  17.240   7.452
    3AU     LIG  876   9.509  17.073   7.075
    3AU    AUSL  877  10.451  17.845   7.780
    3AU    AUSL  878  10.665  17.240   7.778
    3AU     AUL  879  10.365  17.420   7.758
    3AU       S  880  10.445  17.012   7.981
    3AU     LIG  881  10.260  16.613   8.197
    3AU     LIG  882   9.931  16.311   8.371
    3AU       S  883  10.122  17.779   7.934
    3AU     LIG  884   9.663  17.905   8.017
    3AU     LIG  885   9.426  17.702   7.658
    3AU    AUSL  886  11.143  18.693   7.947
    3AU    AUSL  887  10.715  18.664   7.870
    3AU     AUL  888  10.949  18.717   8.246
    3AU       S  889  10.588  18.884   7.997
    3AU     LIG  890  10.127  18.970   8.110
    3AU     LIG  891   9.854  19.207   8.397
    3AU       S  892  11.100  19.093   7.998
    3AU     LIG  893  11.467  19.321   8.190
    3AU     LIG  894  11.536  19.701   8.444
    3AU    AUSL  895  10.954  18.881   7.598
    3AU    AUSL  896  11.301  18.923   7.266
    3AU     AUL  897  10.999  19.156   7.365
    3AU       S  898  11.040  19.312   7.840
    3AU     LIG  899  11.067  19.630   8.161
    3AU     LIG  900  11.084  20.052   8.324
    3AU       S  901  11.257  19.153   6.953
    3AU     LIG  902  11.470  19.405   7.223
    3AU     LIG  903  11.517  19.823   7.115
    3AU    AUSL  904  11.414  18.886   7.668
    3AU    AUSL  905  11.419  18.565   8.235
    3AU     AUL  906  11.503  18.842   8.027
    3AU       S  907  11.634  18.674   8.466
    3AU     LIG  908  11.955  18.810   8.806
    3AU     LIG  909  12.130  19.268   8.779
    3AU       S  910  11.331  19.169   7.724
    3AU     LIG  911  11.419  19.610   7.706
    3AU     LIG  912  11.491  19.940   8.004
    3AU    AUSL  913  11.252  17.265   8.118
    3AU    AUSL  914  11.806  17.301   7.728
    3AU     AUL  915  11.572  17.086   8.020
    3AU       S  916  11.164  16.756   8.119
    3AU     LIG  917  10.785  16.578   8.327
    3AU     LIG  918  10.847  16.197   8.571
    3AU       S  919  12.013  17.137   7.796
    3AU     LIG  920  12.205  16.692   7.957
    3AU     LIG  921  12.349  16.531   8.368
    3AU    AUSL  922  11.062  17.110   7.755
    3AU    AUSL  923  10.971  17.521   7.956
    3AU     AUL  924  10.886  17.180   8.107
    3AU       S  925  11.067  16.839   7.851
    3AU     LIG  926  10.758  16.635   7.820
    3AU     LIG  927  10.900  16.207   7.982
    3AU       S  928  10.398  17.090   8.225
    3AU     LIG  929  10.451  16.879   8.600
    3AU     LIG  930  10.573  16.598   8.935
    3AU    AUSL  931  11.400  17.352   7.686
    3AU    AUSL  932  11.031  17.199   7.345
    3AU     AUL  933  11.366  17.003   7.533
    3AU       S  934  10.905  16.873   7.373
    3AU     LIG  935  10.587  16.705   7.110
    3AU     LIG  936  10.538  16.326   6.822
    3AU       S  937  11.287  16.652   7.880
    3AU     LIG  938  11.364  16.232   7.727
    3AU     LIG  939  11.417  15.853   7.978
    3AU    AUSL  940  11.248  18.654   6.939
    3AU    AUSL  941  11.559  18.586   7.270
    3AU     AUL  942  11.611  18.858   7.037
    3AU       S  943  11.258  18.881   6.708
    3AU     LIG  944  11.472  19.275   6.500
    3AU     LIG  945  11.407  19.717   6.563
    3AU       S  946  12.321  18.596   6.904
    3AU     LIG  947  12.310  19.065   6.910
    3AU     LIG  948  12.326  19.384   6.565
    3AU    AUSL  949  10.995  18.609   7.289
    3AU    AUSL  950  10.877  18.526   6.811
    3AU     AUL  951  10.892  18.842   7.018
    3AU       S  952  11.059  19.197   6.744
    3AU     LIG  953  11.069  19.637   6.937
    3AU     LIG  954  11.077  20.073   6.731
    3AU       S  955  10.619  18.662   6.650
    3AU     LIG  956  10.452  19.035   6.417
    3AU     LIG  957  10.261  19.283   6.038
    3AU    AUSL  958  11.171  17.251   6.927
    3AU    AUSL  959  10.643  17.271   7.189
    3AU     AUL  960  10.883  17.131   6.976
    3AU       S  961  10.415  17.208   6.970
    3AU     LIG  962  10.101  16.913   7.115
    3AU     LIG  963  10.032  16.477   6.936
    3AU       S  964  11.123  16.744   7.180
    3AU     LIG  965  10.962  16.662   6.770
    3AU     LIG  966  10.932  16.301   6.485
    3AU    AUSL  967  11.411  17.382   7.271
    3AU    AUSL  968  11.524  17.463   6.843
    3AU     AUL  969  11.475  17.103   7.052
    3AU       S  970  11.075  16.600   7.397
    3AU     LIG  971  11.147  16.259   7.042
    3AU     LIG  972  11.450  15.965   6.805
    3AU       S  973  11.717  17.327   6.686
    3AU     LIG  974  11.868  17.254   6.250
    3AU     LIG  975  12.149  16.885   6.168
    4AU     AUC  976  41.076  14.687   7.494
    4AU     AUC  977  41.380  14.724   7.331
    4AU     AUC  978  41.351  14.701   7.668
    4AU     AUC  979  40.790  14.677   7.322
    4AU     AUC  980  40.787  14.672   7.673
    4AU     AUC  981  40.888  14.937   7.510
    4AU     AUC  982  41.228  14.961   7.502
    4AU     AUC  983  40.916  14.405   7.491
    4AU     AUC  984  41.275  14.448   7.487
    4AU     AUC  985  41.106  14.514   7.765
    4AU     AUC  986  41.056  14.843   7.775
    4AU     AUC  987  41.096  14.533   7.214
    4AU     AUC  988  41.098  14.868   7.225
    4AU     AUC  989  41.690  14.750   7.183
    4AU     AUC  990  41.723  14.738   7.502
    4AU     AUC  991  41.650  14.700   7.866
    4AU     AUC  992  40.492  14.660   7.144
    4AU     AUC  993  40.453  14.698   7.509
    4AU     AUC  994  40.502  14.662   7.845
    4AU     AUC  995  40.720  15.239   7.495
    4AU     AUC  996  41.064  15.297   7.493
    4AU     AUC  997  41.378  15.276   7.517
    4AU     AUC  998  40.741  14.088   7.491
    4AU     AUC  999  41.087  14.124   7.489
    4AU     AUC 1000  41.479  14.166   7.459
    4AU     AUC 1001  41.116  14.290   8.049
    4AU     AUC 1002  41.067  14.615   8.093
    4AU     AUC 1003  41.065  14.994   8.064
    4AU     AUC 1004  41.097  14.344   6.922
    4AU     AUC 1005  41.097  14.691   6.908
    4AU     AUC 1006  41.122  15.047   6.929
    4AU     AUC 1007  41.401  14.460   7.964
    4AU     AUC 1008  41.372  14.826   8.010
    4AU     AUC 1009  41.390  14.545   7.014
    4AU     AUC 1010  41.421  14.906   7.009
    4AU     AUC 1011  40.778  14.458   7.971
    4AU     AUC 1012  40.775  14.817   7.982
    4AU     AUC 1013  40.758  14.486   7.036
    4AU     AUC 1014  40.768  14.860   7.014
    4AU     AUC 1015  41.586  15.015   7.361
    4AU     AUC 1016  41.522  14.985   7.715
    4AU     AUC 1017  40.598  14.969   7.293
    4AU     AUC 1018  40.576  14.979   7.685
    4AU     AUC 1019  41.593  14.439   7.303
    4AU     AUC 1020  41.598  14.411   7.633
    4AU     AUC 1021  40.561  14.390   7.335
    4AU     AUC 1022  40.591  14.387   7.667
    4AU     AUC 1023  40.876  15.163   7.787
    4AU     AUC 1024  41.212  15.164   7.810
    4AU     AUC 1025  40.891  14.176   7.763
    4AU     AUC 1026  41.300  14.192   7.791
    4AU     AUC 1027  40.893  15.137   7.170
    4AU     AUC 1028  41.288  15.166   7.180
    4AU     AUC 1029  40.881  14.206   7.208
    4AU     AUC 1030  41.270  14.233   7.163
    4AU    AUSL 1031  41.654  14.601   8.221
    4AU    AUSL 1032  41.508  14.129   8.092
    4AU     AUL 1033  41.789  14.212   8.279
    4AU       S 1034  41.912  13.809   8.095
    4AU     LIG 1035  41.757  13.590   8.429
    4AU     LIG 1036  41.837  13.210   8.706
    4AU       S 1037  41.901  14.647   8.366
    4AU     LIG 1038  41.912  14.858   8.750
    4AU     LIG 1039  42.007  14.676   9.161
    4AU    AUSL 1040  41.258  14.416   8.299
    4AU    AUSL 1041  40.921  14.747   8.376
    4AU     AUL 1042  41.102  14.597   8.636
    4AU       S 1043  41.502  14.366   8.597
    4AU     LIG 1044  41.525  14.578   8.957
    4AU     LIG 1045  41.584  14.451   9.394
    4AU       S 1046  40.402  14.544   8.645
    4AU     LIG 1047  40.471  14.872   8.944
    4AU     LIG 1048  40.528  14.801   9.400
    4AU    AUSL 1049  41.270  14.834   8.171
    4AU    AUSL 1050  41.676  15.022   8.144
    4AU     AUL 1051  41.488  14.843   8.466
    4AU       S 1052  41.101  15.096   8.621
    4AU     LIG 1053  41.446  15.080   8.907
    4AU     LIG 1054  41.614  14.968   9.308
    4AU       S 1055  41.811  15.174   8.353
    4AU     LIG 1056  42.264  15.197   8.398
    4AU     LIG 1057  42.610  15.469   8.597
    4AU    AUSL 1058  41.651  14.791   6.777
    4AU    AUSL 1059  41.545  15.230   6.839
    4AU     AUL 1060  41.709  15.059   6.521
    4AU       S 1061  41.554  14.663   6.315
    4AU     LIG 1062  41.897  14.763   6.060
    4AU     LIG 1063  41.981  14.585   5.639
    4AU       S 1064  41.893  15.368   6.809
    4AU     LIG 1065  41.787  15.626   6.511
    4AU     LIG 1066  42.082  15.858   6.217
    4AU    AUSL 1067  41.303  14.550   6.725
    4AU    AUSL 1068  41.627  14.463   7.053
    4AU     AUL 1069  41.739  14.493   6.699
    4AU       S 1070  41.882  13.999   6.625
    4AU     LIG 1071  42.352  13.918   6.667
    4AU     LIG 1072  42.622  13.854   6.285
    4AU       S 1073  41.374  14.363   6.392
    4AU     LIG 1074  41.303  14.109   5.970
    4AU     LIG 1075  41.504  14.170   5.532
    4AU    AUSL 1076  41.253  14.979   6.654
    4AU    AUSL 1077  40.919  14.432   6.611
    4AU     AUL 1078  41.098  14.736   6.417
    4AU       S 1079  40.711  14.470   6.305
    4AU     LIG 1080  40.927  14.485   5.931
    4AU     LIG 1081  40.735  14.482   5.503
    4AU       S 1082  41.618  14.372   6.240
    4AU     LIG 1083  41.454  14.586   5.835
    4AU     LIG 1084  41.530  14.686   5.380
    4AU    AUSL 1085  40.565  14.626   8.166
    4AU    AUSL 1086  40.801  15.071   8.138
    4AU     AUL 1087  40.654  14.934   8.444
    4AU       S 1088  40.318  14.612   8.358
    4AU     LIG 1089  39.947  14.680   8.667
    4AU     LIG 1090  40.113  14.511   9.090
    4AU       S 1091  40.385  15.296   8.279
    4AU     LIG 1092  40.339  15.627   8.535
    4AU     LIG 1093  39.952  15.852   8.638
    4AU    AUSL 1094  40.843  14.321   8.339
    4AU    AUSL 1095  40.437  14.238   8.032
    4AU     AUL 1096  40.537  14.198   8.319
    4AU       S 1097  40.214  13.899   8.144
    4AU     LIG 1098  40.048  14.194   8.445
    4AU     LIG 1099  39.918  14.063   8.865
    4AU       S 1100  40.628  14.490   8.656
    4AU     LIG 1101  40.673  14.407   9.083
    4AU     LIG 1102  40.465  14.269   9.474
    4AU    AUSL 1103  40.547  14.593   6.759
    4AU    AUSL 1104  40.805  14.270   6.989
    4AU     AUL 1105  40.660  14.195   6.674
    4AU       S 1106  40.355  14.525   6.502
    4AU     LIG 1107  39.976  14.532   6.239
    4AU     LIG 1108  40.002  14.498   5.765
    4AU       S 1109  40.219  13.978   6.689
    4AU     LIG 1110  40.368  13.527   6.590
    4AU     LIG 1111  40.287  13.208   6.237
    4AU    AUSL 1112  40.903  14.831   6.824
    4AU    AUSL 1113  40.452  14.978   6.906
    4AU     AUL 1114  40.649  14.885   6.548
    4AU       S 1115  40.275  15.125   6.718
    4AU     LIG 1116  39.930  15.439   6.621
    4AU     LIG 1117  39.652  15.459   6.222
    4AU       S 1118  40.450  14.365   6.259
    4AU     LIG 1119  40.439  14.717   5.961
    4AU     LIG 1120  40.361  14.855   5.522
    4AU    AUSL 1121  41.763  15.292   7.559
    4AU    AUSL 1122  41.772  15.010   7.124
    4AU     AUL 1123  41.925  15.385   7.277
    4AU       S 1124  42.028  15.047   6.941
    4AU     LIG 1125  42.399  14.966   6.623
    4AU     LIG 1126  42.587  15.324   6.372
    4AU       S 1127  42.269  15.158   7.880
    4AU     LIG 1128  42.253  15.614   7.812
    4AU     LIG 1129  42.573  15.901   7.949
    4AU    AUSL 1130  42.036  14.953   7.442
    4AU    AUSL 1131  42.029  14.566   7.673
    4AU     AUL 1132  42.356  14.732   7.604
    4AU       S 1133  42.207  15.164   7.621
    4AU     LIG 1134  42.479  15.049   7.246
    4AU     LIG 1135  42.794  14.742   7.250
    4AU       S 1136  42.286  14.275   7.503
    4AU     LIG 1137  42.498  14.248   7.888
    4AU     LIG 1138  42.615  13.873   8.146
    4AU    AUSL 1139  41.768  14.891   7.762
    4AU    AUSL 1140  41.442  15.202   7.819
    4AU     AUL 1141  41.799  15.299   7.895
    4AU       S 1142  41.809  15.488   8.349
    4AU     LIG 1143  42.242  15.709   8.315
    4AU     LIG 1144  42.534  16.077   8.459
    4AU       S 1145  42.097  14.943   7.950
    4AU     LIG 1146  42.461  14.755   8.106
    4AU     LIG 1147  42.799  14.911   7.864
    4AU    AUSL 1148  40.427  15.192   7.524
    4AU    AUSL 1149  40.427  14.965   7.941
    4AU     AUL 1150  40.155  15.312   7.782
    4AU       S 1151  40.291  15.040   8.137
    4AU     LIG 1152  39.910  15.114   8.357
    4AU     LIG 1153  39.618  15.460   8.517
    4AU       S 1154  40.386  15.610   7.505
    4AU     LIG 1155  39.988  15.642   7.306
    4AU     LIG 1156  39.567  15.731   7.493
    4AU    AUSL 1157  40.349  14.834   7.278
    4AU    AUSL 1158  40.508  15.345   7.139
    4AU     AUL 1159  40.202  15.176   7.194
    4AU       S 1160  40.060  14.704   6.913
    4AU     LIG 1161  39.761  15.057   6.939
    4AU     LIG 1162  39.507  15.437   7.054
    4AU       S 1163  40.338  15.566   6.931
    4AU     LIG 1164  40.062  15.956   6.849
    4AU     LIG 1165  39.870  16.242   6.517
    4AU    AUSL 1166  40.133  14.884   7.650
    4AU    AUSL 1167  40.130  14.495   7.391
    4AU     AUL 1168  39.959  14.811   7.357
    4AU       S 1169  39.879  14.448   7.651
    4AU     LIG 1170  39.665  14.383   7.247
    4AU     LIG 1171  39.248  14.252   7.271
    4AU       S 1172  39.878  14.934   7.845
    4AU     LIG 1173  39.691  15.391   7.986
    4AU     LIG 1174  39.260  15.535   8.159
    4AU    AUSL 1175  41.793  14.285   7.447
    4AU    AUSL 1176  41.661  14.434   7.839
    4AU     AUL 1177  41.990  14.321   7.873
    4AU       S 1178  42.084  14.137   7.452
    4AU     LIG 1179  42.182  13.794   7.341
    4AU     LIG 1180  42.564  13.793   7.595
    4AU       S 1181  42.153  13.871   7.949
    4AU     LIG 1182  42.265  13.628   8.394
    4AU     LIG 1183  42.674  13.674   8.650
    4AU    AUSL 1184  41.989  14.596   7.215
    4AU    AUSL 1185  41.692  14.012   7.144
    4AU     AUL 1186  41.929  14.260   7.043
    4AU       S 1187  42.298  14.411   7.268
    4AU     LIG 1188  42.569  14.075   7.136
    4AU     LIG 1189  43.014  13.916   7.126
    4AU       S 1190  41.811  13.837   6.866
    4AU     LIG 1191  42.114  13.528   6.898
    4AU     LIG 1192  42.435  13.369   6.611
    4AU    AUSL 1193  40.482  14.250   7.489
    4AU    AUSL 1194  40.382  14.376   7.073
    4AU     AUL 1195  40.119  14.177   7.306
    4AU       S 1196  40.220  14.220   6.857
    4AU     LIG 1197  39.798  14.282   6.703
    4AU     LIG 1198  39.641  14.123   6.288
    4AU       S 1199  39.799  14.324   7.773
    4AU     LIG 1200  39.710  13.949   7.481
    4AU     LIG 1201  39.588  13.530   7.260
    4AU    AUSL 1202  40.332  14.539   7.772
    4AU    AUSL 1203  40.549  13.931   7.747
    4AU     AUL 1204  40.238  14.122   7.744
    4AU       S 1205  40.370  13.682   7.893
    4AU     LIG 1206  40.115  13.301   8.075
    4AU     LIG 1207  39.697  13.408   8.249
    4AU       S 1208  40.013  14.488   7.932
    4AU     LIG 1209  39.597  14.420   8.205
    4AU     LIG 1210  39.277  14.119   8.017
    4AU    AUSL 1211  41.040  15.377   7.954
    4AU    AUSL 1212  40.612  15.352   7.872
    4AU     AUL 1213  40.847  15.392   8.258
    4AU       S 1214  40.498  15.549   7.999
    4AU     LIG 1215  40.103  15.742   8.095
    4AU     LIG 1216  40.014  16.190   8.235
    4AU       S 1217  40.993  15.764   8.001
    4AU     LIG 1218  41.201  15.942   8.305
    4AU     LIG 1219  41.162  16.385   8.393
    4AU    AUSL 1220  40.858  15.566   7.603
    4AU    AUSL 1221  41.207  15.613   7.274
    4AU     AUL 1222  40.890  15.832   7.383
    4AU       S 1223  41.031  15.987   7.820
    4AU     LIG 1224  40.596  16.034   7.841
    4AU     LIG 1225  40.662  16.224   8.240
    4AU       S 1226  41.186  15.859   7.013
    4AU     LIG 1227  41.254  16.238   7.278
    4AU     LIG 1228  41.461  16.660   7.120
    4AU    AUSL 1229  41.315  15.570   7.677
    4AU    AUSL 1230  41.313  15.242   8.240
    4AU     AUL 1231  41.403  15.523   8.039
    4AU       S 1232  41.529  15.342   8.476
    4AU     LIG 1233  41.868  15.372   8.824
    4AU     LIG 1234  42.208  15.689   8.831
    4AU       S 1235  41.254  15.854   7.728
    4AU     LIG 1236  41.418  16.273   7.949
    4AU     LIG 1237  41.345  16.755   8.069
    4AU    AUSL 1238  41.133  13.941   8.101
    4AU    AUSL 1239  41.690  13.978   7.718
    4AU     AUL 1240  41.451  13.757   8.002
    4AU       S 1241  41.026  13.412   8.075
    4AU     LIG 1242  40.917  13.036   8.363
    4AU     LIG 1243  40.887  12.669   8.696
    4AU       S 1244  41.893  13.814   7.780
    4AU     LIG 1245  42.133  13.391   7.933
    4AU     LIG 1246  42.101  13.133   8.281
    4AU    AUSL 1247  40.944  13.793   7.734
    4AU    AUSL 1248  40.858  14.203   7.937
    4AU     AUL 1249  40.778  13.861   8.080
    4AU       S 1250  40.908  13.494   7.815
    4AU     LIG 1251  40.684  13.115   7.784
    4AU     LIG 1252  40.793  12.680   7.890
    4AU       S 1253  40.332  13.720   8.210
    4AU     LIG 1254  40.040  13.648   8.559
    4AU     LIG 1255  39.946  13.488   8.995
    4AU    AUSL 1256  41.285  14.033   7.673
    4AU    AUSL 1257  40.915  13.892   7.326
    4AU     AUL 1258  41.239  13.684   7.519
    4AU       S 1259  40.782  13.586   7.343
    4AU     LIG 1260  40.468  13.444   7.103
    4AU     LIG 1261  40.578  13.028   7.057
    4AU       S 1262  41.174  13.322   7.848
    4AU     LIG 1263  41.247  12.902   8.004
    4AU     LIG 1264  41.187  12.597   8.298
    4AU    AUSL 1265  41.157  15.350   6.940
    4AU    AUSL 1266  41.458  15.271   7.274
    4AU     AUL 1267  41.519  15.542   7.051
    4AU       S 1268  41.176  15.544   6.706
    4AU     LIG 1269  40.904  15.817   6.394
    4AU     LIG 1270  40.929  16.296   6.434
    4AU       S 1271  42.131  15.310   6.832
    4AU     LIG 1272  42.328  15.699   6.663
    4AU     LIG 1273  42.587  16.020   6.406
    4AU    AUSL 1274  40.896  15.307   7.284
    4AU    AUSL 1275  40.781  15.238   6.811
    4AU     AUL 1276  40.806  15.554   7.005
    4AU       S 1277  41.202  15.832   6.771
    4AU     LIG 1278  40.768  16.043   6.840
    4AU     LIG 1279  40.888  16.458   6.975
    4AU       S 1280  40.520  15.386   6.647
    4AU     LIG 1281  40.398  15.825   6.487
    4AU     LIG 1282  40.118  15.991   6.141
    4AU    AUSL 1283  41.059  13.948   6.911
    4AU    AUSL 1284  40.530  13.974   7.172
    4AU     AUL 1285  40.765  13.837   6.948
    4AU       S 1286  40.294  13.905   6.955
    4AU     LIG 1287  39.958  13.578   6.895
    4AU     LIG 1288  39.620  13.552   6.562
    4AU       S 1289  40.999  13.445   7.128
    4AU     LIG 1290  40.834  13.329   6.740
    4AU     LIG 1291  40.621  12.946   6.555
    4AU    AUSL 1292  41.300  14.066   7.259
    4AU    AUSL 1293  41.413  14.158   6.833
    4AU     AUL 1294  41.371  13.792   7.037
    4AU       S 1295  40.924  13.339   7.335
    4AU     LIG 1296  41.393  13.171   7.250
    4AU     LIG 1297  41.434  12.644   7.250
    4AU       S 1298  41.585  14.026   6.670
    4AU     LIG 1299  41.573  13.694   6.356
    4AU     LIG 1300  41.751  13.265   6.236
    5AU     AUC 1301   8.087  40.527   7.495
    5AU     AUC 1302   8.390  40.558   7.325
    5AU     AUC 1303   8.365  40.541   7.664
    5AU     AUC 1304   7.801  40.517   7.328
    5AU     AUC 1305   7.796  40.521   7.679
    5AU     AUC 1306   7.906  40.780   7.511
    5AU     AUC 1307   8.245  40.799   7.498
    5AU     AUC 1308   7.920  40.247   7.500
    5AU     AUC 1309   8.283  40.285   7.487
    5AU     AUC 1310   8.116  40.361   7.767
    5AU     AUC 1311   8.074  40.690   7.773
    5AU     AUC 1312   8.103  40.367   7.218
    5AU     AUC 1313   8.111  40.703   7.223
    5AU     AUC 1314   8.698  40.578   7.169
    5AU     AUC 1315   8.735  40.573   7.490
    5AU     AUC 1316   8.668  40.538   7.858
    5AU     AUC 1317   7.500  40.502   7.152
    5AU     AUC 1318   7.463  40.551   7.517
    5AU     AUC 1319   7.512  40.523   7.854
    5AU     AUC 1320   7.747  41.086   7.492
    5AU     AUC 1321   8.092  41.139   7.488
    5AU     AUC 1322   8.404  41.115   7.509
    5AU     AUC 1323   7.739  39.933   7.509
    5AU     AUC 1324   8.087  39.964   7.497
    5AU     AUC 1325   8.480  40.002   7.462
    5AU     AUC 1326   8.125  40.143   8.054
    5AU     AUC 1327   8.083  40.468   8.096
    5AU     AUC 1328   8.090  40.844   8.062
    5AU     AUC 1329   8.099  40.173   6.929
    5AU     AUC 1330   8.102  40.518   6.910
    5AU     AUC 1331   8.133  40.878   6.925
    5AU     AUC 1332   8.414  40.302   7.962
    5AU     AUC 1333   8.393  40.669   8.004
    5AU     AUC 1334   8.396  40.374   7.009
    5AU     AUC 1335   8.428  40.733   6.997
    5AU     AUC 1336   7.787  40.318   7.982
    5AU     AUC 1337   7.793  40.674   7.985
    5AU     AUC 1338   7.760  40.317   7.047
    5AU     AUC 1339   7.779  40.693   7.017
    5AU     AUC 1340   8.602  40.847   7.347
    5AU     AUC 1341   8.541  40.822   7.704
    5AU     AUC 1342   7.619  40.812   7.294
    5AU     AUC 1343   7.596  40.833   7.686
    5AU     AUC 1344   8.600  40.270   7.299
    5AU     AUC 1345   8.606  40.248   7.628
    5AU     AUC 1346   7.564  40.235   7.350
    5AU     AUC 1347   7.593  40.242   7.683
    5AU     AUC 1348   7.902  41.013   7.784
    5AU     AUC 1349   8.238  41.009   7.804
    5AU     AUC 1350   7.892  40.028   7.776
    5AU     AUC 1351   8.305  40.038   7.794
    5AU     AUC 1352   7.914  40.972   7.167
    5AU     AUC 1353   8.307  41.000   7.170
    5AU     AUC 1354   7.884  40.041   7.223
    5AU     AUC 1355   8.276  40.065   7.169
    5AU    AUSL 1356   8.670  40.436   8.217
    5AU    AUSL 1357   8.517  39.976   8.089
    5AU     AUL 1358   8.802  40.036   8.277
    5AU       S 1359   8.942  39.655   8.061
    5AU     LIG 1360   8.871  39.431   8.393
    5AU     LIG 1361   9.127  39.263   8.712
    5AU       S 1362   8.911  40.472   8.351
    5AU     LIG 1363   8.944  40.684   8.737
    5AU     LIG 1364   9.035  40.482   9.141
    5AU    AUSL 1365   8.269  40.264   8.299
    5AU    AUSL 1366   7.946  40.611   8.382
    5AU     AUL 1367   8.125  40.458   8.641
    5AU       S 1368   8.497  40.194   8.576
    5AU     LIG 1369   8.550  40.413   8.939
    5AU     LIG 1370   8.606  40.274   9.376
    5AU       S 1371   7.437  40.424   8.678
    5AU     LIG 1372   7.553  40.751   8.987
    5AU     LIG 1373   7.540  40.711   9.461
    5AU    AUSL 1374   8.292  40.679   8.167
    5AU    AUSL 1375   8.702  40.855   8.131
    5AU     AUL 1376   8.511  40.684   8.460
    5AU       S 1377   8.141  40.955   8.621
    5AU     LIG 1378   8.504  40.928   8.899
    5AU     LIG 1379   8.656  40.788   9.302
    5AU       S 1380   8.845  40.994   8.335
    5AU     LIG 1381   9.246  41.071   8.472
    5AU     LIG 1382   9.364  41.443   8.713
    5AU    AUSL 1383   8.653  40.615   6.754
    5AU    AUSL 1384   8.552  41.054   6.823
    5AU     AUL 1385   8.681  40.901   6.492
    5AU       S 1386   8.558  40.487   6.301
    5AU     LIG 1387   8.955  40.527   6.072
    5AU     LIG 1388   9.039  40.257   5.682
    5AU       S 1389   8.923  41.166   6.784
    5AU     LIG 1390   8.732  41.458   6.545
    5AU     LIG 1391   8.868  41.811   6.254
    5AU    AUSL 1392   8.304  40.371   6.723
    5AU    AUSL 1393   8.633  40.295   7.045
    5AU     AUL 1394   8.738  40.314   6.686
    5AU       S 1395   8.754  39.562   6.710
    5AU     LIG 1396   9.146  39.711   6.514
    5AU     LIG 1397   9.413  39.661   6.126
    5AU       S 1398   8.371  40.170   6.398
    5AU     LIG 1399   8.247  40.004   5.946
    5AU     LIG 1400   8.480  39.979   5.512
    5AU    AUSL 1401   8.251  40.803   6.652
    5AU    AUSL 1402   7.917  40.254   6.621
    5AU     AUL 1403   8.104  40.551   6.421
    5AU       S 1404   7.719  40.286   6.304
    5AU     LIG 1405   7.736  40.189   5.833
    5AU     LIG 1406   7.455  40.175   5.447
    5AU       S 1407   8.591  40.217   6.226
    5AU     LIG 1408   8.534  40.409   5.796
    5AU     LIG 1409   8.689  40.476   5.359
    5AU    AUSL 1410   7.581  40.500   8.179
    5AU    AUSL 1411   7.825  40.926   8.133
    5AU     AUL 1412   7.682  40.807   8.449
    5AU       S 1413   7.332  40.496   8.389
    5AU     LIG 1414   7.049  40.689   8.749
    5AU     LIG 1415   7.153  40.486   9.177
    5AU       S 1416   7.416  41.170   8.276
    5AU     LIG 1417   7.411  41.528   8.522
    5AU     LIG 1418   7.227  41.919   8.722
    5AU    AUSL 1419   7.852  40.188   8.351
    5AU    AUSL 1420   7.447  40.112   8.057
    5AU     AUL 1421   7.537  40.078   8.343
    5AU       S 1422   7.228  39.759   8.188
    5AU     LIG 1423   6.789  39.880   8.280
    5AU     LIG 1424   6.434  39.610   8.489
    5AU       S 1425   7.652  40.369   8.673
    5AU     LIG 1426   7.740  40.282   9.095
    5AU     LIG 1427   7.505  40.187   9.479
    5AU    AUSL 1428   7.548  40.422   6.769
    5AU    AUSL 1429   7.804  40.103   7.005
    5AU     AUL 1430   7.653  40.028   6.686
    5AU       S 1431   7.351  40.359   6.518
    5AU     LIG 1432   7.050  40.515   6.188
    5AU     LIG 1433   7.095  40.439   5.719
    5AU       S 1434   7.239  39.782   6.748
    5AU     LIG 1435   7.329  39.334   6.672
    5AU     LIG 1436   7.104  39.072   6.354
    5AU    AUSL 1437   7.907  40.654   6.829
    5AU    AUSL 1438   7.466  40.814   6.905
    5AU     AUL 1439   7.663  40.706   6.549
    5AU       S 1440   7.298  40.951   6.719
    5AU     LIG 1441   7.010  41.269   6.546
    5AU     LIG 1442   6.889  41.442   6.111
    5AU       S 1443   7.454  40.235   6.272
    5AU     LIG 1444   7.510  40.622   5.993
    5AU     LIG 1445   7.523  40.688   5.521
    5AU    AUSL 1446   8.785  41.131   7.545
    5AU    AUSL 1447   8.784  40.828   7.098
    5AU     AUL 1448   8.949  41.210   7.253
    5AU       S 1449   9.032  40.865   6.916
    5AU     LIG 1450   9.170  40.849   6.460
    5AU     LIG 1451   9.182  41.307   6.337
    5AU       S 1452   9.292  41.057   7.952
    5AU     LIG 1453   9.620  41.310   7.709
    5AU     LIG 1454  10.026  41.406   7.528
    5AU    AUSL 1455   9.044  40.787   7.420
    5AU    AUSL 1456   9.043  40.400   7.660
    5AU     AUL 1457   9.344  40.581   7.524
    5AU       S 1458   9.226  41.004   7.662
    5AU     LIG 1459   9.498  41.014   7.297
    5AU     LIG 1460   9.940  41.069   7.153
    5AU       S 1461   9.287  40.107   7.497
    5AU     LIG 1462   9.614  40.163   7.753
    5AU     LIG 1463   9.952  39.849   7.809
    5AU    AUSL 1464   8.785  40.727   7.746
    5AU    AUSL 1465   8.465  41.043   7.807
    5AU     AUL 1466   8.817  41.133   7.884
    5AU       S 1467   8.816  41.289   8.346
    5AU     LIG 1468   9.119  41.562   8.236
    5AU     LIG 1469   9.214  41.888   8.526
    5AU       S 1470   9.136  40.780   7.928
    5AU     LIG 1471   9.634  40.698   7.901
    5AU     LIG 1472  10.005  40.946   7.786
    5AU    AUSL 1473   7.458  41.045   7.522
    5AU    AUSL 1474   7.446  40.831   7.942
    5AU     AUL 1475   7.193  41.185   7.771
    5AU       S 1476   7.312  40.917   8.142
    5AU     LIG 1477   6.925  41.180   8.211
    5AU     LIG 1478   6.881  41.560   8.501
    5AU       S 1479   7.432  41.477   7.482
    5AU     LIG 1480   7.020  41.466   7.351
    5AU     LIG 1481   6.646  41.668   7.507
    5AU    AUSL 1482   7.366  40.684   7.283
    5AU    AUSL 1483   7.535  41.182   7.133
    5AU     AUL 1484   7.230  41.027   7.197
    5AU       S 1485   7.070  40.547   6.922
    5AU     LIG 1486   6.821  40.949   6.930
    5AU     LIG 1487   6.570  41.256   7.185
    5AU       S 1488   7.371  41.393   6.916
    5AU     LIG 1489   7.094  41.714   6.835
    5AU     LIG 1490   6.879  41.822   6.452
    5AU    AUSL 1491   7.151  40.751   7.651
    5AU    AUSL 1492   7.135  40.355   7.401
    5AU     AUL 1493   6.966  40.679   7.357
    5AU       S 1494   6.872  40.316   7.651
    5AU     LIG 1495   6.658  40.266   7.228
    5AU     LIG 1496   6.288  39.960   7.102
    5AU       S 1497   6.931  40.800   7.831
    5AU     LIG 1498   6.684  41.146   7.687
    5AU     LIG 1499   6.254  41.209   7.854
    5AU    AUSL 1500   8.799  40.121   7.442
    5AU    AUSL 1501   8.676  40.274   7.833
    5AU     AUL 1502   8.998  40.148   7.865
    5AU       S 1503   9.089  39.953   7.440
    5AU     LIG 1504   9.331  39.699   7.186
    5AU     LIG 1505   9.550  39.651   7.545
    5AU       S 1506   9.170  39.690   7.884
    5AU     LIG 1507   9.369  39.644   8.311
    5AU     LIG 1508   9.634  39.387   8.579
    5AU    AUSL 1509   8.999  40.421   7.202
    5AU    AUSL 1510   8.694  39.839   7.153
    5AU     AUL 1511   8.929  40.087   7.032
    5AU       S 1512   9.316  40.193   7.261
    5AU     LIG 1513   9.773  40.034   7.280
    5AU     LIG 1514  10.187  39.823   7.339
    5AU       S 1515   8.846  39.628   6.962
    5AU     LIG 1516   9.222  39.331   6.844
    5AU     LIG 1517   9.384  39.208   6.409
    5AU    AUSL 1518   7.479  40.102   7.511
    5AU    AUSL 1519   7.383  40.213   7.089
    5AU     AUL 1520   7.117  40.029   7.338
    5AU       S 1521   7.216  40.052   6.886
    5AU     LIG 1522   6.794  39.830   6.961
    5AU     LIG 1523   6.754  39.508   6.621
    5AU       S 1524   6.789  40.146   7.726
    5AU     LIG 1525   6.646  39.823   7.465
    5AU     LIG 1526   6.451  39.445   7.494
    5AU    AUSL 1527   7.326  40.400   7.788
    5AU    AUSL 1528   7.541  39.794   7.782
    5AU     AUL 1529   7.238  39.987   7.782
    5AU       S 1530   7.376  39.553   7.944
    5AU     LIG 1531   7.164  39.118   7.991
    5AU     LIG 1532   7.095  38.804   8.317
    5AU       S 1533   6.965  40.338   7.910
    5AU     LIG 1534   6.477  40.238   8.073
    5AU     LIG 1535   6.383  39.791   7.940
    5AU    AUSL 1536   8.071  41.226   7.951
    5AU    AUSL 1537   7.643  41.211   7.867
    5AU     AUL 1538   7.878  41.244   8.253
    5AU       S 1539   7.539  41.425   7.989
    5AU     LIG 1540   7.158  41.631   8.072
    5AU     LIG 1541   6.994  42.043   8.277
    5AU       S 1542   8.029  41.621   8.014
    5AU     LIG 1543   8.207  41.973   8.291
    5AU     LIG 1544   8.495  42.346   8.453
    5AU    AUSL 1545   7.895  41.414   7.596
    5AU    AUSL 1546   8.247  41.445   7.268
    5AU     AUL 1547   7.978  41.685   7.375
    5AU       S 1548   7.900  41.808   7.876
    5AU     LIG 1549   7.860  42.207   7.973
    5AU     LIG 1550   8.146  42.504   8.132
    5AU       S 1551   8.215  41.693   6.956
    5AU     LIG 1552   8.437  42.088   6.942
    5AU     LIG 1553   8.259  42.522   6.926
    5AU    AUSL 1554   8.347  41.418   7.676
    5AU    AUSL 1555   8.347  41.086   8.232
    5AU     AUL 1556   8.435  41.366   8.033
    5AU       S 1557   8.574  41.191   8.469
    5AU     LIG 1558   8.831  41.570   8.738
    5AU     LIG 1559   9.126  41.809   9.032
    5AU       S 1560   8.233  41.714   7.784
    5AU     LIG 1561   8.338  42.120   7.826
    5AU     LIG 1562   8.631  42.428   7.952
    5AU    AUSL 1563   8.138  39.793   8.109
    5AU    AUSL 1564   8.685  39.816   7.711
    5AU     AUL 1565   8.463  39.611   8.018
    5AU       S 1566   7.773  39.241   8.079
    5AU     LIG 1567   7.735  38.842   8.297
    5AU     LIG 1568   7.890  38.391   8.403
    5AU       S 1569   8.876  39.655   7.767
    5AU     LIG 1570   8.845  39.181   7.944
    5AU     LIG 1571   8.936  38.870   8.325
    5AU    AUSL 1572   7.930  39.647   7.750
    5AU    AUSL 1573   7.865  40.061   7.952
    5AU     AUL 1574   7.784  39.736   8.115
    5AU       S 1575   7.845  39.381   7.821
    5AU     LIG 1576   7.528  39.133   7.661
    5AU     LIG 1577   7.669  38.734   7.773
    5AU       S 1578   7.342  39.546   8.216
    5AU     LIG 1579   7.350  39.210   8.482
    5AU     LIG 1580   7.091  39.024   8.825
    5AU    AUSL 1581   8.280  39.873   7.682
    5AU    AUSL 1582   7.919  39.721   7.337
    5AU     AUL 1583   8.229  39.521   7.554
    5AU       S 1584   7.792  39.408   7.344
    5AU     LIG 1585   7.501  39.098   7.149
    5AU     LIG 1586   7.763  38.720   7.032
    5AU       S 1587   8.042  39.199   7.936
    5AU     LIG 1588   8.198  38.783   7.808
    5AU     LIG 1589   8.239  38.363   8.010
    5AU    AUSL 1590   8.174  41.194   6.932
    5AU    AUSL 1591   8.482  41.093   7.260
    5AU     AUL 1592   8.545  41.371   7.032
    5AU       S 1593   8.195  41.428   6.704
    5AU     LIG 1594   8.405  41.837   6.489
    5AU     LIG 1595   8.264  42.282   6.471
    5AU       S 1596   9.223  41.126   6.861
    5AU     LIG 1597   9.175  41.597   6.810
    5AU     LIG 1598   9.242  41.973   6.565
    5AU    AUSL 1599   7.921  41.148   7.282
    5AU    AUSL 1600   7.802  41.064   6.806
    5AU     AUL 1601   7.828  41.390   7.018
    5AU       S 1602   8.004  41.739   6.743
    5AU     LIG 1603   7.909  42.098   7.032
    5AU     LIG 1604   7.742  42.514   6.956
    5AU       S 1605   7.554  41.211   6.642
    5AU     LIG 1606   7.382  41.595   6.418
    5AU     LIG 1607   7.222  41.843   6.055
    5AU    AUSL 1608   8.058  39.783   6.920
    5AU    AUSL 1609   7.531  39.817   7.203
    5AU     AUL 1610   7.761  39.673   6.965
    5AU       S 1611   7.293  39.731   7.010
    5AU     LIG 1612   6.993  39.351   7.055
    5AU     LIG 1613   6.798  39.015   6.767
    5AU       S 1614   8.012  39.264   7.170
    5AU     LIG 1615   7.835  39.185   6.776
    5AU     LIG 1616   7.803  38.804   6.518
    5AU    AUSL 1617   8.302  39.894   7.268
    5AU    AUSL 1618   8.419  39.982   6.840
    5AU     AUL 1619   8.370  39.624   7.042
    5AU       S 1620   7.956  39.120   7.403
    5AU     LIG 1621   8.216  38.754   7.284
    5AU     LIG 1622   8.167  38.364   7.025
    5AU       S 1623   8.625  39.837   6.679
    5AU     LIG 1624   8.700  39.727   6.238
    5AU     LIG 1625   8.979  39.380   6.113
    6AU     AUC 1626  20.743  44.633   7.504
    6AU     AUC 1627  21.049  44.670   7.345
    6AU     AUC 1628  21.018  44.653   7.682
    6AU     AUC 1629  20.459  44.615   7.327
    6AU     AUC 1630  20.454  44.619   7.680
    6AU     AUC 1631  20.552  44.879   7.514
    6AU     AUC 1632  20.894  44.910   7.506
    6AU     AUC 1633  20.580  44.349   7.504
    6AU     AUC 1634  20.943  44.396   7.505
    6AU     AUC 1635  20.768  44.467   7.780
    6AU     AUC 1636  20.719  44.797   7.781
    6AU     AUC 1637  20.770  44.473   7.228
    6AU     AUC 1638  20.766  44.807   7.230
    6AU     AUC 1639  21.363  44.695   7.202
    6AU     AUC 1640  21.391  44.689   7.520
    6AU     AUC 1641  21.317  44.659   7.882
    6AU     AUC 1642  20.165  44.592   7.143
    6AU     AUC 1643  20.121  44.630   7.510
    6AU     AUC 1644  20.162  44.608   7.857
    6AU     AUC 1645  20.378   0.179   7.490
    6AU     AUC 1646  20.722   0.243   7.485
    6AU     AUC 1647  21.038   0.227   7.514
    6AU     AUC 1648  20.405  44.030   7.503
    6AU     AUC 1649  20.749  44.071   7.509
    6AU     AUC 1650  21.144  44.115   7.490
    6AU     AUC 1651  20.773  44.253   8.069
    6AU     AUC 1652  20.728  44.578   8.105
    6AU     AUC 1653  20.724  44.958   8.065
    6AU     AUC 1654  20.782  44.278   6.939
    6AU     AUC 1655  20.776  44.623   6.918
    6AU     AUC 1656  20.791  44.979   6.931
    6AU     AUC 1657  21.063  44.421   7.982
    6AU     AUC 1658  21.033  44.789   8.017
    6AU     AUC 1659  21.070  44.483   7.034
    6AU     AUC 1660  21.092  44.845   7.020
    6AU     AUC 1661  20.437  44.416   7.988
    6AU     AUC 1662  20.437  44.775   7.989
    6AU     AUC 1663  20.436  44.419   7.040
    6AU     AUC 1664  20.439  44.788   7.014
    6AU     AUC 1665  21.250  44.965   7.369
    6AU     AUC 1666  21.185  44.940   7.721
    6AU     AUC 1667  20.264  44.900   7.294
    6AU     AUC 1668  20.239  44.921   7.685
    6AU     AUC 1669  21.265  44.382   7.331
    6AU     AUC 1670  21.266  44.364   7.657
    6AU     AUC 1671  20.232  44.325   7.335
    6AU     AUC 1672  20.254  44.331   7.670
    6AU     AUC 1673  20.536   0.116   7.783
    6AU     AUC 1674  20.873   0.120   7.806
    6AU     AUC 1675  20.545  44.132   7.783
    6AU     AUC 1676  20.959  44.152   7.815
    6AU     AUC 1677  20.558   0.067   7.170
    6AU     AUC 1678  20.952   0.109   7.181
    6AU     AUC 1679  20.555  44.145   7.218
    6AU     AUC 1680  20.947  44.172   7.189
    6AU    AUSL 1681  21.315  44.571   8.237
    6AU    AUSL 1682  21.162  44.093   8.117
    6AU     AUL 1683  21.449  44.184   8.299
    6AU       S 1684  21.568  43.773   8.125
    6AU     LIG 1685  21.477  43.486   8.449
    6AU     LIG 1686  21.555  43.128   8.757
    6AU       S 1687  21.557  44.621   8.382
    6AU     LIG 1688  21.577  44.840   8.758
    6AU     LIG 1689  21.705  44.599   9.129
    6AU    AUSL 1690  20.918  44.388   8.316
    6AU    AUSL 1691  20.582  44.715   8.379
    6AU     AUL 1692  20.759  44.580   8.649
    6AU       S 1693  21.150  44.336   8.606
    6AU     LIG 1694  21.192  44.561   8.956
    6AU     LIG 1695  21.274  44.450   9.393
    6AU       S 1696  20.044  44.505   8.675
    6AU     LIG 1697  20.177  44.881   8.935
    6AU     LIG 1698  20.177  44.936   9.387
    6AU    AUSL 1699  20.932  44.802   8.178
    6AU    AUSL 1700  21.338  44.991   8.149
    6AU     AUL 1701  21.145  44.818   8.474
    6AU       S 1702  20.757   0.074   8.618
    6AU     LIG 1703  21.113   0.069   8.905
    6AU     LIG 1704  21.368  44.958   9.257
    6AU       S 1705  21.457   0.155   8.358
    6AU     LIG 1706  21.874   0.171   8.435
    6AU     LIG 1707  22.266   0.409   8.430
    6AU    AUSL 1708  21.333  44.727   6.793
    6AU    AUSL 1709  21.212   0.168   6.844
    6AU     AUL 1710  21.368   0.013   6.526
    6AU       S 1711  21.260  44.593   6.349
    6AU     LIG 1712  21.595  44.739   6.104
    6AU     LIG 1713  21.672  44.490   5.723
    6AU       S 1714  21.586   0.289   6.822
    6AU     LIG 1715  21.421   0.574   6.582
    6AU     LIG 1716  21.508   0.827   6.207
    6AU    AUSL 1717  20.992  44.474   6.748
    6AU    AUSL 1718  21.305  44.404   7.082
    6AU     AUL 1719  21.435  44.426   6.737
    6AU       S 1720  21.408  43.685   6.735
    6AU     LIG 1721  21.853  43.746   6.627
    6AU     LIG 1722  22.113  43.849   6.255
    6AU       S 1723  21.085  44.284   6.431
    6AU     LIG 1724  20.985  44.102   5.998
    6AU     LIG 1725  21.254  44.145   5.601
    6AU    AUSL 1726  20.934  44.901   6.661
    6AU    AUSL 1727  20.614  44.359   6.617
    6AU     AUL 1728  20.799  44.650   6.428
    6AU       S 1729  20.413  44.389   6.297
    6AU     LIG 1730  20.499  44.302   5.869
    6AU     LIG 1731  20.233  44.296   5.486
    6AU       S 1732  21.322  44.341   6.261
    6AU     LIG 1733  21.156  44.572   5.870
    6AU     LIG 1734  21.282  44.705   5.448
    6AU    AUSL 1735  20.224  44.584   8.179
    6AU    AUSL 1736  20.462   0.043   8.145
    6AU     AUL 1737  20.320  44.896   8.452
    6AU       S 1738  19.985  44.575   8.371
    6AU     LIG 1739  19.773  44.903   8.611
    6AU     LIG 1740  19.676  44.923   9.067
    6AU       S 1741  20.061   0.256   8.281
    6AU     LIG 1742  19.945   0.383   8.696
    6AU     LIG 1743  19.628   0.705   8.854
    6AU    AUSL 1744  20.505  44.287   8.362
    6AU    AUSL 1745  20.084  44.199   8.058
    6AU     AUL 1746  20.197  44.158   8.344
    6AU       S 1747  19.820  43.915   8.172
    6AU     LIG 1748  19.464  43.742   8.408
    6AU     LIG 1749  19.101  43.666   8.674
    6AU       S 1750  20.289  44.463   8.670
    6AU     LIG 1751  20.439  44.461   9.082
    6AU     LIG 1752  20.223  44.416   9.495
    6AU    AUSL 1753  20.234  44.515   6.745
    6AU    AUSL 1754  20.488  44.210   6.996
    6AU     AUL 1755  20.356  44.125   6.674
    6AU       S 1756  20.057  44.455   6.501
    6AU     LIG 1757  19.767  44.685   6.307
    6AU     LIG 1758  19.702  44.484   5.901
    6AU       S 1759  19.905  43.952   6.665
    6AU     LIG 1760  19.914  43.524   6.524
    6AU     LIG 1761  19.688  43.273   6.202
    6AU    AUSL 1762  20.580  44.761   6.825
    6AU    AUSL 1763  20.126  44.889   6.905
    6AU     AUL 1764  20.353  44.807   6.539
    6AU       S 1765  19.956  44.993   6.702
    6AU     LIG 1766  19.558   0.145   6.531
    6AU     LIG 1767  19.168   0.420   6.478
    6AU       S 1768  20.124  44.309   6.261
    6AU     LIG 1769  20.166  44.688   5.980
    6AU     LIG 1770  20.023  44.771   5.543
    6AU    AUSL 1771  21.424   0.246   7.561
    6AU    AUSL 1772  21.434  44.956   7.139
    6AU     AUL 1773  21.586   0.343   7.286
    6AU       S 1774  21.695  44.993   6.956
    6AU     LIG 1775  21.863   0.020   6.488
    6AU     LIG 1776  21.902   0.488   6.414
    6AU       S 1777  21.945   0.188   7.931
    6AU     LIG 1778  22.350   0.349   7.744
    6AU     LIG 1779  22.485   0.545   7.320
    6AU    AUSL 1780  21.702  44.913   7.454
    6AU    AUSL 1781  21.699  44.527   7.701
    6AU     AUL 1782  22.009  44.719   7.585
    6AU       S 1783  21.875   0.153   7.669
    6AU     LIG 1784  22.167   0.123   7.325
    6AU     LIG 1785  22.415   0.196   6.945
    6AU       S 1786  21.960  44.250   7.522
    6AU     LIG 1787  22.207  44.332   7.867
    6AU     LIG 1788  22.397  44.130   8.234
    6AU    AUSL 1789  21.430  44.848   7.771
    6AU    AUSL 1790  21.102   0.161   7.818
    6AU     AUL 1791  21.457   0.258   7.897
    6AU       S 1792  21.459   0.477   8.336
    6AU     LIG 1793  21.884   0.651   8.154
    6AU     LIG 1794  22.317   0.888   8.201
    6AU       S 1795  21.783  44.920   7.962
    6AU     LIG 1796  22.303  44.851   7.966
    6AU     LIG 1797  22.742   0.021   7.884
    6AU    AUSL 1798  20.083   0.127   7.522
    6AU    AUSL 1799  20.097  44.915   7.940
    6AU     AUL 1800  19.817   0.240   7.770
    6AU       S 1801  19.964   0.008   8.147
    6AU     LIG 1802  19.571   0.219   8.260
    6AU     LIG 1803  19.437   0.266   8.709
    6AU       S 1804  20.034   0.545   7.485
    6AU     LIG 1805  19.647   0.557   7.264
    6AU     LIG 1806  19.407   0.899   7.099
    6AU    AUSL 1807  20.011  44.768   7.284
    6AU    AUSL 1808  20.167   0.263   7.132
    6AU     AUL 1809  19.869   0.098   7.176
    6AU       S 1810  19.715  44.637   6.936
    6AU     LIG 1811  19.404   0.005   6.994
    6AU     LIG 1812  19.173   0.423   6.991
    6AU       S 1813  19.999   0.442   6.868
    6AU     LIG 1814  19.627   0.641   6.716
    6AU     LIG 1815  19.554   0.933   6.358
    6AU    AUSL 1816  19.799  44.809   7.662
    6AU    AUSL 1817  19.797  44.423   7.386
    6AU     AUL 1818  19.626  44.759   7.379
    6AU       S 1819  19.552  44.367   7.627
    6AU     LIG 1820  19.291  44.157   7.261
    6AU     LIG 1821  18.847  44.046   7.182
    6AU       S 1822  19.589  44.840   7.869
    6AU     LIG 1823  19.253   0.049   7.768
    6AU     LIG 1824  18.787  44.979   7.874
    6AU    AUSL 1825  21.475  44.234   7.479
    6AU    AUSL 1826  21.330  44.388   7.861
    6AU     AUL 1827  21.665  44.255   7.890
    6AU       S 1828  21.794  44.047   7.487
    6AU     LIG 1829  22.184  43.844   7.702
    6AU     LIG 1830  22.505  43.668   7.477
    6AU       S 1831  21.759  43.719   7.911
    6AU     LIG 1832  22.056  43.729   8.256
    6AU     LIG 1833  22.213  43.568   8.670
    6AU    AUSL 1834  21.663  44.546   7.241
    6AU    AUSL 1835  21.365  43.945   7.199
    6AU     AUL 1836  21.604  44.190   7.087
    6AU       S 1837  21.974  44.345   7.306
    6AU     LIG 1838  22.078  43.971   7.073
    6AU     LIG 1839  22.457  43.986   6.831
    6AU       S 1840  21.515  43.734   7.009
    6AU     LIG 1841  21.692  43.317   6.899
    6AU     LIG 1842  21.929  43.228   6.485
    6AU    AUSL 1843  20.152  44.172   7.480
    6AU    AUSL 1844  20.063  44.321   7.072
    6AU     AUL 1845  19.796  44.100   7.295
    6AU       S 1846  19.902  44.173   6.853
    6AU     LIG 1847  19.457  44.116   6.769
    6AU     LIG 1848  19.406  43.673   6.589
    6AU       S 1849  19.470  44.260   7.732
    6AU     LIG 1850  19.481  43.833   7.582
    6AU     LIG 1851  19.234  43.542   7.282
    6AU    AUSL 1852  20.016  44.470   7.758
    6AU    AUSL 1853  20.201  43.890   7.783
    6AU     AUL 1854  19.912  44.057   7.740
    6AU       S 1855  19.995  43.654   7.971
    6AU     LIG 1856  19.673  43.333   8.155
    6AU     LIG 1857  19.263  43.247   8.346
    6AU       S 1858  19.642  44.383   7.920
    6AU     LIG 1859  19.239  44.129   8.122
    6AU     LIG 1860  19.018  43.982   7.739
    6AU    AUSL 1861  20.699   0.336   7.940
    6AU    AUSL 1862  20.271   0.305   7.859
    6AU     AUL 1863  20.511   0.378   8.233
    6AU       S 1864  20.125   0.500   8.003
    6AU     LIG 1865  19.780   0.683   8.324
    6AU     LIG 1866  19.563   1.066   8.491
    6AU       S 1867  20.660   0.744   7.972
    6AU     LIG 1868  20.800   0.951   8.340
    6AU     LIG 1869  20.710   1.368   8.569
    6AU    AUSL 1870  20.511   0.520   7.586
    6AU    AUSL 1871  20.860   0.558   7.255
    6AU     AUL 1872  20.562   0.797   7.350
    6AU       S 1873  20.660   0.958   7.811
    6AU     LIG 1874  20.580   1.318   8.062
    6AU     LIG 1875  20.629   1.748   8.219
    6AU       S 1876  20.812   0.780   6.931
    6AU     LIG 1877  20.930   1.219   7.065
    6AU     LIG 1878  21.106   1.658   6.934
    6AU    AUSL 1879  20.973   0.521   7.658
    6AU    AUSL 1880  20.969   0.212   8.235
    6AU     AUL 1881  21.058   0.488   8.026
    6AU       S 1882  21.183   0.321   8.470
    6AU     LIG 1883  21.539   0.366   8.808
    6AU     LIG 1884  21.884   0.669   8.680
    6AU       S 1885  20.908   0.800   7.699
    6AU     LIG 1886  21.158   1.040   7.976
    6AU     LIG 1887  21.061   1.436   8.198
    6AU    AUSL 1888  20.784  43.905   8.123
    6AU    AUSL 1889  21.343  43.933   7.744
    6AU     AUL 1890  21.100  43.725   8.046
    6AU       S 1891  20.686  43.376   8.087
    6AU     LIG 1892  20.655  42.885   8.224
    6AU     LIG 1893  20.625  42.625   8.654
    6AU       S 1894  21.502  43.790   7.791
    6AU     LIG 1895  21.396  43.333   7.951
    6AU     LIG 1896  21.581  43.017   8.249
    6AU    AUSL 1897  20.593  43.752   7.754
    6AU    AUSL 1898  20.509  44.168   7.960
    6AU     AUL 1899  20.436  43.821   8.105
    6AU       S 1900  20.474  43.453   7.816
    6AU     LIG 1901  20.259  43.036   7.665
    6AU     LIG 1902  20.456  42.642   7.790
    6AU       S 1903  19.979  43.716   8.245
    6AU     LIG 1904  19.870  43.496   8.607
    6AU     LIG 1905  19.493  43.319   8.796
    6AU    AUSL 1906  20.939  43.987   7.703
    6AU    AUSL 1907  20.580  43.829   7.342
    6AU     AUL 1908  20.885  43.626   7.572
    6AU       S 1909  20.461  43.502   7.341
    6AU     LIG 1910  20.174  43.151   7.159
    6AU     LIG 1911  20.129  42.764   6.884
    6AU       S 1912  20.645  43.266   7.869
    6AU     LIG 1913  20.991  43.104   7.751
    6AU     LIG 1914  21.177  42.769   8.020
    6AU    AUSL 1915  20.818   0.277   6.936
    6AU    AUSL 1916  21.120   0.223   7.274
    6AU     AUL 1917  21.173   0.490   7.036
    6AU       S 1918  20.827   0.485   6.700
    6AU     LIG 1919  21.044   0.901   6.508
    6AU     LIG 1920  20.817   1.307   6.533
    6AU       S 1921  21.887   0.229   6.924
    6AU     LIG 1922  21.863   0.682   6.932
    6AU     LIG 1923  21.806   0.997   6.607
    6AU    AUSL 1924  20.556   0.244   7.282
    6AU    AUSL 1925  20.443   0.164   6.808
    6AU     AUL 1926  20.448   0.477   7.014
    6AU       S 1927  20.602   0.744   6.652
    6AU     LIG 1928  20.448   1.133   6.882
    6AU     LIG 1929  20.586   1.571   6.898
    6AU       S 1930  20.200   0.283   6.632
    6AU     LIG 1931  20.181   0.556   6.248
    6AU     LIG 1932  20.066   0.708   5.788
    6AU    AUSL 1933  20.744  43.887   6.931
    6AU    AUSL 1934  20.208  43.911   7.156
    6AU     AUL 1935  20.455  43.771   6.958
    6AU       S 1936  19.987  43.865   6.923
    6AU     LIG 1937  19.705  43.523   7.004
    6AU     LIG 1938  19.550  43.174   6.720
    6AU       S 1939  20.685  43.379   7.160
    6AU     LIG 1940  20.599  43.056   6.857
    6AU     LIG 1941  20.622  42.632   6.676
    6AU    AUSL 1942  20.967  44.002   7.290
    6AU    AUSL 1943  21.108  44.087   6.869
    6AU     AUL 1944  21.045  43.730   7.075
    6AU       S 1945  20.638  43.229   7.370
    6AU     LIG 1946  21.000  42.986   7.192
    6AU     LIG 1947  21.141  42.755   6.798
    6AU       S 1948  21.317  43.949   6.720
    6AU     LIG 1949  21.484  43.858   6.273
    6AU     LIG 1950  21.760  43.509   6.079
    7AU     AUC 1951  38.408   7.143   7.497
    7AU     AUC 1952  38.712   7.183   7.330
    7AU     AUC 1953  38.686   7.168   7.668
    7AU     AUC 1954  38.123   7.117   7.328
    7AU     AUC 1955  38.123   7.128   7.679
    7AU     AUC 1956  38.218   7.386   7.517
    7AU     AUC 1957  38.563   7.421   7.500
    7AU     AUC 1958  38.230   6.850   7.499
    7AU     AUC 1959  38.606   6.913   7.492
    7AU     AUC 1960  38.440   6.982   7.766
    7AU     AUC 1961  38.391   7.312   7.778
    7AU     AUC 1962  38.430   6.985   7.221
    7AU     AUC 1963  38.427   7.319   7.225
    7AU     AUC 1964  39.021   7.209   7.176
    7AU     AUC 1965  39.057   7.205   7.499
    7AU     AUC 1966  38.988   7.170   7.865
    7AU     AUC 1967  37.820   7.102   7.151
    7AU     AUC 1968  37.794   7.123   7.511
    7AU     AUC 1969  37.835   7.110   7.865
    7AU     AUC 1970  38.046   7.699   7.501
    7AU     AUC 1971  38.402   7.759   7.484
    7AU     AUC 1972  38.716   7.736   7.505
    7AU     AUC 1973  38.058   6.534   7.506
    7AU     AUC 1974  38.415   6.578   7.496
    7AU     AUC 1975  38.811   6.633   7.469
    7AU     AUC 1976  38.446   6.772   8.059
    7AU     AUC 1977  38.405   7.096   8.100
    7AU     AUC 1978  38.400   7.474   8.061
    7AU     AUC 1979  38.434   6.794   6.927
    7AU     AUC 1980  38.423   7.140   6.911
    7AU     AUC 1981  38.441   7.493   6.929
    7AU     AUC 1982  38.737   6.930   7.967
    7AU     AUC 1983  38.709   7.296   8.008
    7AU     AUC 1984  38.725   6.998   7.015
    7AU     AUC 1985  38.747   7.357   7.002
    7AU     AUC 1986  38.104   6.935   7.992
    7AU     AUC 1987  38.115   7.293   7.993
    7AU     AUC 1988  38.089   6.928   7.041
    7AU     AUC 1989  38.093   7.305   7.021
    7AU     AUC 1990  38.919   7.475   7.352
    7AU     AUC 1991  38.858   7.451   7.709
    7AU     AUC 1992  37.931   7.420   7.307
    7AU     AUC 1993  37.913   7.433   7.693
    7AU     AUC 1994  38.931   6.903   7.308
    7AU     AUC 1995  38.931   6.880   7.636
    7AU     AUC 1996  37.880   6.808   7.338
    7AU     AUC 1997  37.901   6.809   7.656
    7AU     AUC 1998  38.215   7.636   7.785
    7AU     AUC 1999  38.550   7.631   7.799
    7AU     AUC 2000  38.214   6.653   7.776
    7AU     AUC 2001  38.626   6.668   7.798
    7AU     AUC 2002  38.222   7.580   7.179
    7AU     AUC 2003  38.620   7.619   7.171
    7AU     AUC 2004  38.224   6.649   7.223
    7AU     AUC 2005  38.611   6.690   7.172
    7AU    AUSL 2006  38.994   7.071   8.224
    7AU    AUSL 2007  38.842   6.601   8.096
    7AU     AUL 2008  39.131   6.668   8.304
    7AU       S 2009  39.242   6.281   8.081
    7AU     LIG 2010  39.064   6.110   8.422
    7AU     LIG 2011  39.145   5.817   8.757
    7AU       S 2012  39.223   7.110   8.332
    7AU     LIG 2013  39.260   7.308   8.725
    7AU     LIG 2014  39.357   7.129   9.132
    7AU    AUSL 2015  38.591   6.894   8.296
    7AU    AUSL 2016  38.262   7.234   8.369
    7AU     AUL 2017  38.434   7.101   8.645
    7AU       S 2018  38.763   6.806   8.530
    7AU     LIG 2019  38.894   6.998   8.889
    7AU     LIG 2020  38.902   6.992   9.348
    7AU       S 2021  37.712   7.127   8.701
    7AU     LIG 2022  37.760   7.220   9.137
    7AU     LIG 2023  37.781   7.245   9.602
    7AU    AUSL 2024  38.614   7.309   8.169
    7AU    AUSL 2025  39.014   7.495   8.140
    7AU     AUL 2026  38.824   7.312   8.464
    7AU       S 2027  38.448   7.586   8.622
    7AU     LIG 2028  38.778   7.498   8.920
    7AU     LIG 2029  39.060   7.521   9.268
    7AU       S 2030  39.131   7.645   8.343
    7AU     LIG 2031  39.526   7.618   8.401
    7AU     LIG 2032  39.710   7.929   8.656
    7AU    AUSL 2033  38.973   7.242   6.759
    7AU    AUSL 2034  38.860   7.680   6.825
    7AU     AUL 2035  38.996   7.535   6.499
    7AU       S 2036  38.883   7.118   6.317
    7AU     LIG 2037  39.213   7.149   5.994
    7AU     LIG 2038  39.395   6.913   5.627
    7AU       S 2039  39.227   7.811   6.787
    7AU     LIG 2040  39.062   8.062   6.502
    7AU     LIG 2041  39.305   8.354   6.228
    7AU    AUSL 2042  38.630   6.987   6.734
    7AU    AUSL 2043  38.965   6.926   7.055
    7AU     AUL 2044  39.072   6.942   6.696
    7AU       S 2045  39.067   6.159   6.711
    7AU     LIG 2046  39.489   6.132   6.518
    7AU     LIG 2047  39.810   5.924   6.231
    7AU       S 2048  38.692   6.789   6.411
    7AU     LIG 2049  38.685   6.546   5.958
    7AU     LIG 2050  38.929   6.684   5.584
    7AU    AUSL 2051  38.569   7.416   6.655
    7AU    AUSL 2052  38.243   6.893   6.609
    7AU     AUL 2053  38.424   7.174   6.422
    7AU       S 2054  38.013   6.931   6.306
    7AU     LIG 2055  38.261   6.860   5.971
    7AU     LIG 2056  38.079   6.844   5.536
    7AU       S 2057  38.866   6.877   6.256
    7AU     LIG 2058  38.718   7.065   5.852
    7AU     LIG 2059  38.969   7.200   5.490
    7AU    AUSL 2060  37.893   7.103   8.195
    7AU    AUSL 2061  38.146   7.583   8.160
    7AU     AUL 2062  38.020   7.419   8.463
    7AU       S 2063  37.662   7.106   8.393
    7AU     LIG 2064  37.367   6.800   8.612
    7AU     LIG 2065  37.319   6.906   9.069
    7AU       S 2066  37.767   7.775   8.281
    7AU     LIG 2067  37.960   7.938   8.699
    7AU     LIG 2068  37.560   8.350   8.924
    7AU    AUSL 2069  38.181   6.806   8.373
    7AU    AUSL 2070  37.744   6.723   8.078
    7AU     AUL 2071  37.869   6.690   8.373
    7AU       S 2072  37.600   6.347   8.202
    7AU     LIG 2073  37.264   6.308   8.507
    7AU     LIG 2074  37.030   6.061   8.871
    7AU       S 2075  37.959   7.004   8.691
    7AU     LIG 2076  37.813   6.711   8.979
    7AU     LIG 2077  37.708   6.748   9.417
    7AU    AUSL 2078  37.868   7.029   6.776
    7AU    AUSL 2079  38.147   6.724   6.989
    7AU     AUL 2080  38.024   6.637   6.661
    7AU       S 2081  37.674   6.955   6.558
    7AU     LIG 2082  37.524   7.293   6.274
    7AU     LIG 2083  37.420   7.447   5.841
    7AU       S 2084  37.612   6.332   6.850
    7AU     LIG 2085  37.797   6.072   6.554
    7AU     LIG 2086  37.674   5.692   6.264
    7AU    AUSL 2087  38.217   7.281   6.830
    7AU    AUSL 2088  37.774   7.418   6.913
    7AU     AUL 2089  37.966   7.326   6.558
    7AU       S 2090  37.601   7.589   6.699
    7AU     LIG 2091  37.483   7.806   6.289
    7AU     LIG 2092  37.293   7.939   5.877
    7AU       S 2093  37.755   6.849   6.275
    7AU     LIG 2094  37.821   7.131   5.888
    7AU     LIG 2095  37.780   7.274   5.439
    7AU    AUSL 2096  39.095   7.764   7.551
    7AU    AUSL 2097  39.102   7.462   7.101
    7AU     AUL 2098  39.255   7.849   7.257
    7AU       S 2099  39.344   7.508   6.922
    7AU     LIG 2100  39.482   7.454   6.481
    7AU     LIG 2101  39.530   7.890   6.319
    7AU       S 2102  39.614   7.739   7.904
    7AU     LIG 2103  39.880   8.038   7.624
    7AU     LIG 2104  40.299   8.226   7.456
    7AU    AUSL 2105  39.356   7.424   7.428
    7AU    AUSL 2106  39.366   7.038   7.676
    7AU     AUL 2107  39.672   7.233   7.526
    7AU       S 2108  39.537   7.650   7.663
    7AU     LIG 2109  39.753   7.682   7.269
    7AU     LIG 2110  40.170   7.813   7.165
    7AU       S 2111  39.628   6.757   7.537
    7AU     LIG 2112  39.927   6.491   7.735
    7AU     LIG 2113  40.349   6.366   7.891
    7AU    AUSL 2114  39.103   7.361   7.758
    7AU    AUSL 2115  38.778   7.667   7.812
    7AU     AUL 2116  39.126   7.769   7.889
    7AU       S 2117  39.123   7.951   8.358
    7AU     LIG 2118  39.356   8.190   8.044
    7AU     LIG 2119  39.545   8.616   7.971
    7AU       S 2120  39.444   7.428   7.931
    7AU     LIG 2121  39.876   7.328   7.971
    7AU     LIG 2122  40.100   7.563   7.643
    7AU    AUSL 2123  37.712   7.652   7.540
    7AU    AUSL 2124  37.797   7.430   7.944
    7AU     AUL 2125  37.467   7.723   7.813
    7AU       S 2126  37.656   7.548   8.195
    7AU     LIG 2127  37.425   7.519   8.580
    7AU     LIG 2128  37.151   7.718   8.897
    7AU       S 2129  37.619   8.012   7.483
    7AU     LIG 2130  37.134   8.010   7.576
    7AU     LIG 2131  36.824   8.360   7.546
    7AU    AUSL 2132  37.701   7.294   7.302
    7AU    AUSL 2133  37.853   7.774   7.161
    7AU     AUL 2134  37.544   7.629   7.174
    7AU       S 2135  37.371   7.182   6.948
    7AU     LIG 2136  37.073   7.587   7.048
    7AU     LIG 2137  36.709   7.778   6.793
    7AU       S 2138  37.671   8.024   6.923
    7AU     LIG 2139  37.431   8.402   6.738
    7AU     LIG 2140  37.170   8.731   6.515
    7AU    AUSL 2141  37.488   7.293   7.695
    7AU    AUSL 2142  37.452   6.969   7.368
    7AU     AUL 2143  37.317   7.308   7.407
    7AU       S 2144  37.194   6.900   7.604
    7AU     LIG 2145  36.937   6.982   7.221
    7AU     LIG 2146  36.435   6.858   7.175
    7AU       S 2147  37.334   7.287   7.950
    7AU     LIG 2148  36.991   7.677   7.991
    7AU     LIG 2149  36.543   7.714   7.855
    7AU    AUSL 2150  39.133   6.753   7.455
    7AU    AUSL 2151  38.997   6.904   7.841
    7AU     AUL 2152  39.315   6.775   7.882
    7AU       S 2153  39.435   6.585   7.459
    7AU     LIG 2154  39.622   6.164   7.472
    7AU     LIG 2155  40.066   5.991   7.613
    7AU       S 2156  39.477   6.312   7.934
    7AU     LIG 2157  39.604   6.237   8.403
    7AU     LIG 2158  39.659   5.937   8.753
    7AU    AUSL 2159  39.328   7.056   7.215
    7AU    AUSL 2160  39.038   6.469   7.164
    7AU     AUL 2161  39.265   6.722   7.048
    7AU       S 2162  39.637   6.825   7.294
    7AU     LIG 2163  39.919   6.486   7.211
    7AU     LIG 2164  40.325   6.367   7.373
    7AU       S 2165  39.186   6.269   6.945
    7AU     LIG 2166  39.452   5.881   6.972
    7AU     LIG 2167  39.663   5.621   6.632
    7AU    AUSL 2168  37.631   6.594   7.481
    7AU    AUSL 2169  37.721   6.794   7.088
    7AU     AUL 2170  37.364   6.660   7.231
    7AU       S 2171  37.619   6.564   6.866
    7AU     LIG 2172  37.422   6.487   6.425
    7AU     LIG 2173  37.152   6.137   6.220
    7AU       S 2174  37.065   6.702   7.622
    7AU     LIG 2175  36.981   6.248   7.628
    7AU     LIG 2176  36.498   6.058   7.651
    7AU    AUSL 2177  37.707   6.943   7.728
    7AU    AUSL 2178  37.882   6.446   7.779
    7AU     AUL 2179  37.529   6.593   7.809
    7AU       S 2180  37.701   6.187   7.961
    7AU     LIG 2181  37.308   5.989   8.019
    7AU     LIG 2182  37.084   5.849   8.408
    7AU       S 2183  37.180   6.883   7.779
    7AU     LIG 2184  36.957   6.510   8.061
    7AU     LIG 2185  36.469   6.322   8.093
    7AU    AUSL 2186  38.383   7.855   7.930
    7AU    AUSL 2187  37.954   7.820   7.847
    7AU     AUL 2188  38.203   7.932   8.203
    7AU       S 2189  37.790   7.997   7.997
    7AU     LIG 2190  37.442   8.472   8.297
    7AU     LIG 2191  37.251   8.664   8.688
    7AU       S 2192  38.392   8.292   7.947
    7AU     LIG 2193  38.341   8.441   8.346
    7AU     LIG 2194  38.291   8.799   8.617
    7AU    AUSL 2195  38.190   8.061   7.591
    7AU    AUSL 2196  38.550   8.069   7.247
    7AU     AUL 2197  38.317   8.334   7.375
    7AU       S 2198  38.543   8.480   7.847
    7AU     LIG 2199  38.288   8.801   7.964
    7AU     LIG 2200  38.249   9.126   8.235
    7AU       S 2201  38.481   8.283   6.908
    7AU     LIG 2202  38.804   8.516   7.091
    7AU     LIG 2203  38.840   8.990   7.038
    7AU    AUSL 2204  38.663   8.029   7.649
    7AU    AUSL 2205  38.644   7.718   8.229
    7AU     AUL 2206  38.738   7.990   8.030
    7AU       S 2207  38.862   7.813   8.472
    7AU     LIG 2208  39.190   7.804   8.830
    7AU     LIG 2209  39.446   8.091   9.085
    7AU       S 2210  38.694   8.301   7.676
    7AU     LIG 2211  39.046   8.586   7.841
    7AU     LIG 2212  39.255   9.055   7.910
    7AU    AUSL 2213  38.453   6.435   8.105
    7AU    AUSL 2214  39.009   6.446   7.716
    7AU     AUL 2215  38.772   6.241   8.025
    7AU       S 2216  38.344   5.917   8.088
    7AU     LIG 2217  38.461   5.722   8.494
    7AU     LIG 2218  38.241   5.372   8.780
    7AU       S 2219  39.184   6.290   7.760
    7AU     LIG 2220  39.290   5.837   7.879
    7AU     LIG 2221  39.429   5.747   8.310
    7AU    AUSL 2222  38.258   6.274   7.746
    7AU    AUSL 2223  38.173   6.711   7.966
    7AU     AUL 2224  38.110   6.359   8.109
    7AU       S 2225  38.202   6.016   7.787
    7AU     LIG 2226  38.047   5.564   7.593
    7AU     LIG 2227  38.154   5.312   7.967
    7AU       S 2228  37.723   6.105   8.293
    7AU     LIG 2229  37.728   6.277   8.708
    7AU     LIG 2230  37.398   6.400   9.007
    7AU    AUSL 2231  38.605   6.506   7.684
    7AU    AUSL 2232  38.303   6.284   7.330
    7AU     AUL 2233  38.605   6.154   7.571
    7AU       S 2234  38.232   5.982   7.298
    7AU     LIG 2235  37.984   5.594   7.089
    7AU     LIG 2236  37.926   5.142   6.885
    7AU       S 2237  38.383   5.796   7.856
    7AU     LIG 2238  38.785   5.705   7.915
    7AU     LIG 2239  38.974   5.492   8.266
    7AU    AUSL 2240  38.472   7.781   6.946
    7AU    AUSL 2241  38.795   7.722   7.262
    7AU     AUL 2242  38.840   7.996   7.022
    7AU       S 2243  38.478   7.983   6.703
    7AU     LIG 2244  38.632   8.310   6.368
    7AU     LIG 2245  38.261   8.609   6.269
    7AU       S 2246  39.507   7.795   6.836
    7AU     LIG 2247  39.477   8.268   6.739
    7AU     LIG 2248  39.544   8.704   6.548
    7AU    AUSL 2249  38.240   7.761   7.312
    7AU    AUSL 2250  38.094   7.688   6.812
    7AU     AUL 2251  38.123   8.000   7.054
    7AU       S 2252  38.281   8.247   6.684
    7AU     LIG 2253  37.963   8.499   6.853
    7AU     LIG 2254  37.760   8.720   6.516
    7AU       S 2255  37.867   7.830   6.668
    7AU     LIG 2256  37.794   8.207   6.434
    7AU     LIG 2257  37.432   8.416   6.193
    7AU    AUSL 2258  38.408   6.407   6.921
    7AU    AUSL 2259  37.927   6.433   7.229
    7AU     AUL 2260  38.120   6.286   6.956
    7AU       S 2261  37.684   6.292   7.116
    7AU     LIG 2262  37.568   5.858   6.996
    7AU     LIG 2263  37.339   5.848   6.610
    7AU       S 2264  38.404   5.868   7.068
    7AU     LIG 2265  38.215   5.773   6.669
    7AU     LIG 2266  38.185   5.541   6.252
    7AU    AUSL 2267  38.645   6.531   7.271
    7AU    AUSL 2268  38.769   6.605   6.843
    7AU     AUL 2269  38.721   6.252   7.055
    7AU       S 2270  38.418   5.772   7.334
    7AU     LIG 2271  38.818   5.605   7.198
    7AU     LIG 2272  38.871   5.307   6.831
    7AU       S 2273  38.972   6.459   6.682
    7AU     LIG 2274  39.078   6.324   6.238
    7AU     LIG 2275  39.302   5.919   6.078
    8AU     AUC 2276  39.635   0.275   7.527
    8AU     AUC 2277  39.925   0.318   7.352
    8AU     AUC 2278  39.906   0.301   7.689
    8AU     AUC 2279  39.346   0.250   7.363
    8AU     AUC 2280  39.377   0.263   7.721
    8AU     AUC 2281  39.446   0.519   7.558
    8AU     AUC 2282  39.781   0.553   7.523
    8AU     AUC 2283  39.466  44.983   7.524
    8AU     AUC 2284  39.832   0.035   7.491
    8AU     AUC 2285  39.674   0.107   7.796
    8AU     AUC 2286  39.640   0.443   7.833
    8AU     AUC 2287  39.654   0.123   7.241
    8AU     AUC 2288  39.640   0.457   7.256
    8AU     AUC 2289  40.231   0.344   7.190
    8AU     AUC 2290  40.274   0.321   7.515
    8AU     AUC 2291  40.211   0.298   7.878
    8AU     AUC 2292  39.044   0.225   7.202
    8AU     AUC 2293  39.030   0.238   7.560
    8AU     AUC 2294  39.077   0.233   7.922
    8AU     AUC 2295  39.262   0.820   7.552
    8AU     AUC 2296  39.613   0.889   7.519
    8AU     AUC 2297  39.933   0.871   7.529
    8AU     AUC 2298  39.298  44.667   7.524
    8AU     AUC 2299  39.647  44.711   7.499
    8AU     AUC 2300  40.028  44.748   7.464
    8AU     AUC 2301  39.686  44.895   8.084
    8AU     AUC 2302  39.675   0.232   8.136
    8AU     AUC 2303  39.664   0.606   8.110
    8AU     AUC 2304  39.656  44.941   6.939
    8AU     AUC 2305  39.631   0.291   6.935
    8AU     AUC 2306  39.642   0.640   6.966
    8AU     AUC 2307  39.968   0.075   7.993
    8AU     AUC 2308  39.959   0.442   8.058
    8AU     AUC 2309  39.934   0.149   7.024
    8AU     AUC 2310  39.949   0.510   7.025
    8AU     AUC 2311  39.339   0.062   8.035
    8AU     AUC 2312  39.360   0.425   8.036
    8AU     AUC 2313  39.313   0.064   7.065
    8AU     AUC 2314  39.302   0.438   7.066
    8AU     AUC 2315  40.131   0.609   7.366
    8AU     AUC 2316  40.088   0.578   7.723
    8AU     AUC 2317  39.145   0.537   7.364
    8AU     AUC 2318  39.148   0.547   7.745
    8AU     AUC 2319  40.138   0.029   7.315
    8AU     AUC 2320  40.141  44.998   7.652
    8AU     AUC 2321  39.132  44.929   7.352
    8AU     AUC 2322  39.158  44.944   7.694
    8AU     AUC 2323  39.447   0.760   7.835
    8AU     AUC 2324  39.785   0.757   7.831
    8AU     AUC 2325  39.439  44.781   7.814
    8AU     AUC 2326  39.840  44.783   7.810
    8AU     AUC 2327  39.426   0.716   7.222
    8AU     AUC 2328  39.823   0.763   7.203
    8AU     AUC 2329  39.468  44.791   7.225
    8AU     AUC 2330  39.847  44.812   7.178
    8AU    AUSL 2331  40.271   0.205   8.229
    8AU    AUSL 2332  40.074  44.708   8.123
    8AU     AUL 2333  40.385  44.805   8.355
    8AU       S 2334  40.393  44.388   8.163
    8AU     LIG 2335  40.363  44.378   8.628
    8AU     LIG 2336  40.543  44.136   8.962
    8AU       S 2337  40.510   0.228   8.251
    8AU     LIG 2338  40.576   0.140   8.691
    8AU     LIG 2339  40.616  44.964   9.113
    8AU    AUSL 2340  39.849   0.033   8.294
    8AU    AUSL 2341  39.532   0.357   8.309
    8AU     AUL 2342  39.681   0.243   8.673
    8AU       S 2343  39.997  44.970   8.510
    8AU     LIG 2344  40.124   0.012   8.904
    8AU     LIG 2345  40.165  44.814   9.323
    8AU       S 2346  38.953   0.080   8.773
    8AU     LIG 2347  39.094   0.467   9.017
    8AU     LIG 2348  39.030   0.646   9.454
    8AU    AUSL 2349  39.930   0.457   8.354
    8AU    AUSL 2350  40.273   0.629   8.134
    8AU     AUL 2351  40.206   0.450   8.522
    8AU       S 2352  39.751   0.701   8.639
    8AU     LIG 2353  39.999   0.518   8.973
    8AU     LIG 2354  40.292   0.333   9.277
    8AU       S 2355  40.414   0.820   8.327
    8AU     LIG 2356  40.833   0.811   8.429
    8AU     LIG 2357  41.036   1.041   8.792
    8AU    AUSL 2358  40.173   0.410   6.757
    8AU    AUSL 2359  40.062   0.834   6.859
    8AU     AUL 2360  40.147   0.724   6.484
    8AU       S 2361  40.076   0.284   6.339
    8AU     LIG 2362  40.486   0.386   6.311
    8AU     LIG 2363  40.745   0.169   5.997
    8AU       S 2364  40.408   0.920   6.804
    8AU     LIG 2365  40.361   1.274   6.571
    8AU     LIG 2366  40.558   1.612   6.286
    8AU    AUSL 2367  39.829   0.157   6.751
    8AU    AUSL 2368  40.172   0.094   7.053
    8AU     AUL 2369  40.283   0.110   6.708
    8AU       S 2370  40.584  44.566   6.728
    8AU     LIG 2371  41.023  44.608   6.591
    8AU     LIG 2372  41.173  44.514   6.167
    8AU       S 2373  39.913  44.997   6.420
    8AU     LIG 2374  39.805  44.741   6.050
    8AU     LIG 2375  40.066  44.903   5.692
    8AU    AUSL 2376  39.760   0.585   6.685
    8AU    AUSL 2377  39.450   0.052   6.614
    8AU     AUL 2378  39.618   0.361   6.449
    8AU       S 2379  39.252   0.086   6.303
    8AU     LIG 2380  39.257  44.731   5.995
    8AU     LIG 2381  39.031  44.680   5.580
    8AU       S 2382  39.975   0.189   6.152
    8AU     LIG 2383  40.264   0.364   5.847
    8AU     LIG 2384  40.341   0.504   5.405
    8AU    AUSL 2385  39.133   0.221   8.282
    8AU    AUSL 2386  39.375   0.739   8.243
    8AU     AUL 2387  39.301   0.510   8.524
    8AU       S 2388  38.928   0.213   8.500
    8AU     LIG 2389  38.649   0.472   8.759
    8AU     LIG 2390  38.611   0.420   9.219
    8AU       S 2391  39.029   0.880   8.350
    8AU     LIG 2392  39.107   1.165   8.663
    8AU     LIG 2393  38.834   1.393   9.003
    8AU    AUSL 2394  39.453  44.937   8.430
    8AU    AUSL 2395  38.935  44.892   8.112
    8AU     AUL 2396  39.120  44.796   8.395
    8AU       S 2397  38.675  44.729   8.259
    8AU     LIG 2398  38.287  44.632   8.568
    8AU     LIG 2399  38.032  44.282   8.813
    8AU       S 2400  39.240   0.078   8.738
    8AU     LIG 2401  39.239  44.685   8.931
    8AU     LIG 2402  38.967  44.652   9.299
    8AU    AUSL 2403  39.074   0.174   6.792
    8AU    AUSL 2404  39.380  44.874   6.992
    8AU     AUL 2405  39.199  44.813   6.674
    8AU       S 2406  38.868   0.110   6.507
    8AU     LIG 2407  38.554  44.985   6.148
    8AU     LIG 2408  38.589  44.954   5.684
    8AU       S 2409  38.818  44.519   6.718
    8AU     LIG 2410  38.854  44.597   6.295
    8AU     LIG 2411  38.791  44.323   5.912
    8AU    AUSL 2412  39.422   0.424   6.865
    8AU    AUSL 2413  38.987   0.533   6.997
    8AU     AUL 2414  39.162   0.470   6.607
    8AU       S 2415  38.782   0.677   6.792
    8AU     LIG 2416  38.481   1.027   6.668
    8AU     LIG 2417  38.353   1.190   6.231
    8AU       S 2418  39.015   0.112   6.268
    8AU     LIG 2419  39.046   0.168   5.815
    8AU     LIG 2420  38.934   0.195   5.359
    8AU    AUSL 2421  40.330   0.883   7.550
    8AU    AUSL 2422  40.292   0.588   7.129
    8AU     AUL 2423  40.479   0.972   7.257
    8AU       S 2424  40.554   0.621   6.940
    8AU     LIG 2425  40.999   0.726   6.991
    8AU     LIG 2426  41.297   0.941   6.683
    8AU       S 2427  40.866   0.872   7.892
    8AU     LIG 2428  41.039   1.175   7.535
    8AU     LIG 2429  41.008   1.451   7.164
    8AU    AUSL 2430  40.586   0.543   7.424
    8AU    AUSL 2431  40.575   0.141   7.707
    8AU     AUL 2432  40.888   0.315   7.527
    8AU       S 2433  40.780   0.754   7.632
    8AU     LIG 2434  41.208   0.703   7.443
    8AU     LIG 2435  41.430   0.419   7.138
    8AU       S 2436  40.841  44.849   7.601
    8AU     LIG 2437  41.193  44.964   7.899
    8AU     LIG 2438  41.656  44.734   7.874
    8AU    AUSL 2439  40.327   0.479   7.752
    8AU    AUSL 2440  40.014   0.795   7.814
    8AU     AUL 2441  40.371   0.897   7.872
    8AU       S 2442  40.404   1.123   8.310
    8AU     LIG 2443  40.855   1.309   8.308
    8AU     LIG 2444  41.170   1.541   8.577
    8AU       S 2445  40.701   0.562   7.910
    8AU     LIG 2446  41.182   0.481   7.911
    8AU     LIG 2447  41.597   0.619   7.749
    8AU    AUSL 2448  38.938   0.744   7.608
    8AU    AUSL 2449  39.059   0.535   8.005
    8AU     AUL 2450  38.717   0.820   7.909
    8AU       S 2451  38.905   0.659   8.300
    8AU     LIG 2452  38.473   0.738   8.358
    8AU     LIG 2453  38.143   0.727   8.682
    8AU       S 2454  38.844   1.128   7.581
    8AU     LIG 2455  38.382   0.978   7.461
    8AU     LIG 2456  38.162   1.252   7.133
    8AU    AUSL 2457  38.890   0.384   7.373
    8AU    AUSL 2458  39.038   0.901   7.229
    8AU     AUL 2459  38.734   0.710   7.268
    8AU       S 2460  38.583   0.281   7.043
    8AU     LIG 2461  38.177   0.543   7.137
    8AU     LIG 2462  37.688   0.521   7.009
    8AU       S 2463  38.846   1.105   7.024
    8AU     LIG 2464  38.794   1.443   6.731
    8AU     LIG 2465  38.408   1.590   6.533
    8AU    AUSL 2466  38.727   0.386   7.790
    8AU    AUSL 2467  38.689   0.022   7.440
    8AU     AUL 2468  38.527   0.374   7.516
    8AU       S 2469  38.447  44.940   7.678
    8AU     LIG 2470  38.205   0.058   7.311
    8AU     LIG 2471  37.860   0.053   7.070
    8AU       S 2472  38.600   0.373   8.054
    8AU     LIG 2473  38.244   0.664   7.875
    8AU     LIG 2474  37.825   0.889   7.926
    8AU    AUSL 2475  40.324  44.859   7.483
    8AU    AUSL 2476  40.194   0.024   7.862
    8AU     AUL 2477  40.503  44.867   7.905
    8AU       S 2478  40.601  44.678   7.479
    8AU     LIG 2479  40.897  44.336   7.571
    8AU     LIG 2480  41.231  44.021   7.639
    8AU       S 2481  40.675  44.423   8.038
    8AU     LIG 2482  40.840  44.344   8.471
    8AU     LIG 2483  40.827  44.557   8.879
    8AU    AUSL 2484  40.529   0.161   7.257
    8AU    AUSL 2485  40.274  44.662   7.119
    8AU     AUL 2486  40.500  44.909   7.065
    8AU       S 2487  40.816  44.857   7.392
    8AU     LIG 2488  40.961  44.673   7.090
    8AU     LIG 2489  41.316  44.899   7.011
    8AU       S 2490  40.456  44.461   6.933
    8AU     LIG 2491  40.838  44.192   6.942
    8AU     LIG 2492  40.805  43.765   6.656
    8AU    AUSL 2493  39.020  44.711   7.502
    8AU    AUSL 2494  38.963  44.955   7.129
    8AU     AUL 2495  38.689  44.697   7.335
    8AU       S 2496  38.759  44.805   6.885
    8AU     LIG 2497  38.404  44.720   6.572
    8AU     LIG 2498  38.362  44.321   6.337
    8AU       S 2499  38.352  44.777   7.879
    8AU     LIG 2500  38.371  44.352   7.857
    8AU     LIG 2501  37.962  44.248   7.738
    8AU    AUSL 2502  38.986   0.065   7.744
    8AU    AUSL 2503  39.111  44.573   7.889
    8AU     AUL 2504  38.820  44.668   7.797
    8AU       S 2505  38.875  44.393   8.173
    8AU     LIG 2506  38.564  43.990   8.179
    8AU     LIG 2507  38.292  43.699   8.432
    8AU       S 2508  38.485  44.971   7.867
    8AU     LIG 2509  38.079   0.177   7.930
    8AU     LIG 2510  37.842  44.930   7.648
    8AU    AUSL 2511  39.612   0.962   7.963
    8AU    AUSL 2512  39.182   0.934   7.902
    8AU     AUL 2513  39.457   1.062   8.252
    8AU       S 2514  39.058   1.118   8.027
    8AU     LIG 2515  39.175   1.487   8.244
    8AU     LIG 2516  38.919   1.633   8.561
    8AU       S 2517  39.607   1.426   7.997
    8AU     LIG 2518  39.615   1.776   8.314
    8AU     LIG 2519  39.602   2.251   8.334
    8AU    AUSL 2520  39.407   1.179   7.642
    8AU    AUSL 2521  39.739   1.208   7.291
    8AU     AUL 2522  39.454   1.448   7.402
    8AU       S 2523  39.582   1.635   7.828
    8AU     LIG 2524  39.328   1.982   7.948
    8AU     LIG 2525  39.129   2.037   8.338
    8AU       S 2526  39.675   1.439   6.969
    8AU     LIG 2527  39.959   1.844   6.947
    8AU     LIG 2528  40.244   2.208   6.763
    8AU    AUSL 2529  39.875   1.164   7.685
    8AU    AUSL 2530  39.910   0.854   8.233
    8AU     AUL 2531  39.979   1.127   8.031
    8AU       S 2532  40.140   0.957   8.461
    8AU     LIG 2533  40.490   1.028   8.787
    8AU     LIG 2534  40.713   1.434   8.800
    8AU       S 2535  39.829   1.472   7.731
    8AU     LIG 2536  39.961   1.937   7.917
    8AU     LIG 2537  39.964   2.417   7.994
    8AU    AUSL 2538  39.679  44.557   8.090
    8AU    AUSL 2539  40.207  44.542   7.737
    8AU     AUL 2540  39.957  44.355   8.005
    8AU       S 2541  39.568  44.031   8.152
    8AU     LIG 2542  39.763  43.685   8.477
    8AU     LIG 2543  39.556  43.456   8.823
    8AU       S 2544  40.437  44.361   7.879
    8AU     LIG 2545  40.565  43.952   8.265
    8AU     LIG 2546  40.995  43.822   8.530
    8AU    AUSL 2547  39.461  44.403   7.742
    8AU    AUSL 2548  39.401  44.862   8.027
    8AU     AUL 2549  39.355  44.473   8.144
    8AU       S 2550  39.371  44.131   7.821
    8AU     LIG 2551  39.202  43.772   7.609
    8AU     LIG 2552  38.990  43.362   7.643
    8AU       S 2553  38.644  44.478   8.256
    8AU     LIG 2554  38.827  44.500   8.687
    8AU     LIG 2555  38.994  44.195   9.001
    8AU    AUSL 2556  39.812  44.637   7.665
    8AU    AUSL 2557  39.483  44.506   7.337
    8AU     AUL 2558  39.749  44.255   7.580
    8AU       S 2559  39.369  44.154   7.296
    8AU     LIG 2560  39.241  43.664   7.132
    8AU     LIG 2561  39.226  43.294   6.846
    8AU       S 2562  39.500  43.972   7.975
    8AU     LIG 2563  39.739  43.774   7.756
    8AU     LIG 2564  39.861  43.463   8.022
    8AU    AUSL 2565  39.669   0.931   6.976
    8AU    AUSL 2566  40.003   0.874   7.292
    8AU     AUL 2567  40.037   1.147   7.056
    8AU       S 2568  39.668   1.137   6.744
    8AU     LIG 2569  39.914   1.523   6.532
    8AU     LIG 2570  39.873   1.993   6.454
    8AU       S 2571  40.603   0.736   6.690
    8AU     LIG 2572  40.836   1.164   6.775
    8AU     LIG 2573  40.908   1.618   6.686
    8AU    AUSL 2574  39.437   0.892   7.344
    8AU    AUSL 2575  39.282   0.825   6.875
    8AU     AUL 2576  39.313   1.130   7.082
    8AU       S 2577  39.469   1.403   6.716
    8AU     LIG 2578  39.445   1.877   6.799
    8AU     LIG 2579  39.673   2.281   6.848
    8AU       S 2580  39.019   0.943   6.736
    8AU     LIG 2581  38.874   1.119   6.342
    8AU     LIG 2582  38.748   1.541   6.156
    8AU    AUSL 2583  39.636  44.550   6.927
    8AU    AUSL 2584  39.119  44.549   7.129
    8AU     AUL 2585  39.351  44.463   6.929
    8AU       S 2586  38.867  44.496   6.948
    8AU     LIG 2587  38.475  44.182   6.862
    8AU     LIG 2588  38.089  43.902   6.764
    8AU       S 2589  39.575  44.054   6.977
    8AU     LIG 2590  39.559  43.997   6.461
    8AU     LIG 2591  39.513  43.609   6.136
    8AU    AUSL 2592  39.907  44.542   7.269
    8AU    AUSL 2593  39.976  44.773   6.832
    8AU     AUL 2594  39.983  44.418   6.947
    8AU       S 2595  39.544  44.044   7.148
    8AU     LIG 2596  39.613  43.623   6.785
    8AU     LIG 2597  39.776  43.251   6.814
    8AU       S 2598  40.297  44.626   6.635
    8AU     LIG 2599  40.642  44.448   6.261
    8AU     LIG 2600  40.699  44.253   5.830
    9AU     AUC 2601  23.389  17.832   7.487
    9AU     AUC 2602  23.693  17.876   7.324
    9AU     AUC 2603  23.660  17.848   7.661
    9AU     AUC 2604  23.105  17.817   7.312
    9AU     AUC 2605  23.104  17.811   7.666
    9AU     AUC 2606  23.197  18.077   7.507
    9AU     AUC 2607  23.537  18.108   7.496
    9AU     AUC 2608  23.232  17.547   7.481
    9AU     AUC 2609  23.591  17.597   7.473
    9AU     AUC 2610  23.417  17.656   7.759
    9AU     AUC 2611  23.367  17.986   7.773
    9AU     AUC 2612  23.415  17.681   7.205
    9AU     AUC 2613  23.409  18.016   7.220
    9AU     AUC 2614  24.006  17.906   7.177
    9AU     AUC 2615  24.035  17.887   7.497
    9AU     AUC 2616  23.962  17.847   7.861
    9AU     AUC 2617  22.809  17.794   7.134
    9AU     AUC 2618  22.768  17.822   7.498
    9AU     AUC 2619  22.811  17.792   7.844
    9AU     AUC 2620  23.023  18.376   7.495
    9AU     AUC 2621  23.368  18.442   7.492
    9AU     AUC 2622  23.684  18.426   7.517
    9AU     AUC 2623  23.062  17.225   7.474
    9AU     AUC 2624  23.404  17.271   7.475
    9AU     AUC 2625  23.795  17.316   7.448
    9AU     AUC 2626  23.426  17.433   8.043
    9AU     AUC 2627  23.378  17.757   8.088
    9AU     AUC 2628  23.375  18.136   8.061
    9AU     AUC 2629  23.422  17.497   6.910
    9AU     AUC 2630  23.415  17.844   6.900
    9AU     AUC 2631  23.431  18.201   6.928
    9AU     AUC 2632  23.712  17.605   7.958
    9AU     AUC 2633  23.684  17.971   8.005
    9AU     AUC 2634  23.709  17.704   7.005
    9AU     AUC 2635  23.733  18.066   7.006
    9AU     AUC 2636  23.088  17.596   7.969
    9AU     AUC 2637  23.085  17.955   7.979
    9AU     AUC 2638  23.079  17.628   7.022
    9AU     AUC 2639  23.082  18.001   7.009
    9AU     AUC 2640  23.895  18.169   7.355
    9AU     AUC 2641  23.831  18.131   7.708
    9AU     AUC 2642  22.909  18.102   7.291
    9AU     AUC 2643  22.884  18.109   7.681
    9AU     AUC 2644  23.911  17.591   7.294
    9AU     AUC 2645  23.909  17.559   7.625
    9AU     AUC 2646  22.882  17.521   7.315
    9AU     AUC 2647  22.912  17.524   7.648
    9AU     AUC 2648  23.183  18.301   7.785
    9AU     AUC 2649  23.521  18.308   7.807
    9AU     AUC 2650  23.198  17.319   7.757
    9AU     AUC 2651  23.608  17.339   7.783
    9AU     AUC 2652  23.201  18.278   7.170
    9AU     AUC 2653  23.595  18.322   7.180
    9AU     AUC 2654  23.209  17.349   7.190
    9AU     AUC 2655  23.595  17.384   7.152
    9AU    AUSL 2656  23.968  17.741   8.219
    9AU    AUSL 2657  23.824  17.272   8.085
    9AU     AUL 2658  24.112  17.336   8.305
    9AU       S 2659  24.213  16.947   8.081
    9AU     LIG 2660  24.207  16.661   8.427
    9AU     LIG 2661  24.469  16.409   8.744
    9AU       S 2662  24.200  17.779   8.318
    9AU     LIG 2663  24.279  17.962   8.708
    9AU     LIG 2664  24.475  17.815   9.109
    9AU    AUSL 2665  23.566  17.559   8.284
    9AU    AUSL 2666  23.233  17.882   8.365
    9AU     AUL 2667  23.405  17.757   8.633
    9AU       S 2668  23.750  17.478   8.534
    9AU     LIG 2669  23.873  17.708   8.894
    9AU     LIG 2670  24.017  17.653   9.329
    9AU       S 2671  22.691  17.665   8.659
    9AU     LIG 2672  22.853  18.020   8.941
    9AU     LIG 2673  22.806  18.108   9.394
    9AU    AUSL 2674  23.584  17.980   8.171
    9AU    AUSL 2675  23.991  18.164   8.134
    9AU     AUL 2676  23.805  17.983   8.462
    9AU       S 2677  23.405  18.243   8.604
    9AU     LIG 2678  23.730  18.207   8.902
    9AU     LIG 2679  24.085  18.140   9.165
    9AU       S 2680  24.134  18.312   8.349
    9AU     LIG 2681  24.545  18.376   8.541
    9AU     LIG 2682  24.866  18.674   8.747
    9AU    AUSL 2683  23.970  17.959   6.768
    9AU    AUSL 2684  23.851  18.396   6.844
    9AU     AUL 2685  24.009  18.241   6.518
    9AU       S 2686  23.893  17.834   6.308
    9AU     LIG 2687  24.359  17.884   6.358
    9AU     LIG 2688  24.814  17.882   6.185
    9AU       S 2689  24.202  18.531   6.817
    9AU     LIG 2690  24.035  18.841   6.617
    9AU     LIG 2691  24.228  19.194   6.422
    9AU    AUSL 2692  23.626  17.713   6.715
    9AU    AUSL 2693  23.946  17.627   7.043
    9AU     AUL 2694  24.062  17.659   6.697
    9AU       S 2695  24.192  17.195   6.599
    9AU     LIG 2696  24.603  17.033   6.612
    9AU     LIG 2697  24.768  16.675   6.370
    9AU       S 2698  23.704  17.536   6.390
    9AU     LIG 2699  23.541  17.291   6.007
    9AU     LIG 2700  23.530  17.419   5.528
    9AU    AUSL 2701  23.565  18.143   6.655
    9AU    AUSL 2702  23.248  17.588   6.593
    9AU     AUL 2703  23.426  17.904   6.410
    9AU       S 2704  23.052  17.628   6.272
    9AU     LIG 2705  23.122  17.553   5.821
    9AU     LIG 2706  22.806  17.449   5.492
    9AU       S 2707  23.919  17.552   6.228
    9AU     LIG 2708  23.595  17.781   5.921
    9AU     LIG 2709  23.624  17.942   5.491
    9AU    AUSL 2710  22.873  17.757   8.164
    9AU    AUSL 2711  23.106  18.215   8.143
    9AU     AUL 2712  22.967  18.061   8.446
    9AU       S 2713  22.631  17.743   8.357
    9AU     LIG 2714  22.434  18.079   8.636
    9AU     LIG 2715  22.370  17.946   9.099
    9AU       S 2716  22.706  18.430   8.284
    9AU     LIG 2717  22.736  18.836   8.472
    9AU     LIG 2718  22.432  19.128   8.662
    9AU    AUSL 2719  23.156  17.456   8.341
    9AU    AUSL 2720  22.737  17.374   8.028
    9AU     AUL 2721  22.840  17.326   8.314
    9AU       S 2722  22.493  17.053   8.125
    9AU     LIG 2723  22.220  17.087   8.457
    9AU     LIG 2724  22.055  16.940   8.856
    9AU       S 2725  22.939  17.619   8.647
    9AU     LIG 2726  23.093  17.582   9.047
    9AU     LIG 2727  22.843  17.589   9.431
    9AU    AUSL 2728  22.869  17.734   6.737
    9AU    AUSL 2729  23.135  17.419   6.968
    9AU     AUL 2730  22.998  17.351   6.648
    9AU       S 2731  22.688  17.663   6.450
    9AU     LIG 2732  22.320  17.621   6.139
    9AU     LIG 2733  22.332  17.643   5.657
    9AU       S 2734  22.561  17.161   6.611
    9AU     LIG 2735  22.557  16.767   6.393
    9AU     LIG 2736  22.293  16.398   6.239
    9AU    AUSL 2737  23.219  17.978   6.817
    9AU    AUSL 2738  22.771  18.106   6.910
    9AU     AUL 2739  22.969  18.028   6.543
    9AU       S 2740  22.589  18.256   6.711
    9AU     LIG 2741  22.223  18.552   6.669
    9AU     LIG 2742  21.826  18.664   6.434
    9AU       S 2743  22.794  17.489   6.222
    9AU     LIG 2744  22.730  17.854   5.931
    9AU     LIG 2745  22.742  17.967   5.474
    9AU    AUSL 2746  24.075  18.443   7.559
    9AU    AUSL 2747  24.078  18.168   7.123
    9AU     AUL 2748  24.240  18.542   7.282
    9AU       S 2749  24.341  18.216   6.935
    9AU     LIG 2750  24.730  18.130   6.642
    9AU     LIG 2751  25.003  18.366   6.327
    9AU       S 2752  24.571  18.413   7.955
    9AU     LIG 2753  24.512  18.800   7.645
    9AU     LIG 2754  24.768  18.827   7.245
    9AU    AUSL 2755  24.347  18.109   7.435
    9AU    AUSL 2756  24.341  17.714   7.679
    9AU     AUL 2757  24.653  17.895   7.533
    9AU       S 2758  24.521  18.315   7.662
    9AU     LIG 2759  24.768  18.318   7.231
    9AU     LIG 2760  25.256  18.477   7.193
    9AU       S 2761  24.618  17.418   7.571
    9AU     LIG 2762  24.861  17.210   7.938
    9AU     LIG 2763  25.220  16.999   7.785
    9AU    AUSL 2764  24.075  18.037   7.749
    9AU    AUSL 2765  23.750  18.348   7.811
    9AU     AUL 2766  24.099  18.444   7.893
    9AU       S 2767  24.120  18.626   8.346
    9AU     LIG 2768  24.547  18.851   8.341
    9AU     LIG 2769  24.756  19.211   8.593
    9AU       S 2770  24.437  18.113   7.931
    9AU     LIG 2771  24.964  18.109   7.959
    9AU     LIG 2772  25.417  17.915   7.855
    9AU    AUSL 2773  22.725  18.316   7.523
    9AU    AUSL 2774  22.739  18.095   7.938
    9AU     AUL 2775  22.456  18.430   7.780
    9AU       S 2776  22.613  18.180   8.144
    9AU     LIG 2777  22.231  18.350   8.243
    9AU     LIG 2778  22.099  18.702   8.517
    9AU       S 2779  22.675  18.743   7.500
    9AU     LIG 2780  22.239  18.685   7.339
    9AU     LIG 2781  21.959  18.855   7.001
    9AU    AUSL 2782  22.652  17.959   7.277
    9AU    AUSL 2783  22.810  18.474   7.143
    9AU     AUL 2784  22.506  18.290   7.188
    9AU       S 2785  22.371  17.849   6.916
    9AU     LIG 2786  22.036  18.195   7.005
    9AU     LIG 2787  21.648  18.286   7.245
    9AU       S 2788  22.632  18.692   6.937
    9AU     LIG 2789  22.369  19.071   6.767
    9AU     LIG 2790  22.302  19.434   6.461
    9AU    AUSL 2791  22.442  17.996   7.655
    9AU    AUSL 2792  22.446  17.607   7.375
    9AU     AUL 2793  22.260  17.923   7.366
    9AU       S 2794  22.208  17.532   7.636
    9AU     LIG 2795  21.938  17.418   7.270
    9AU     LIG 2796  21.499  17.259   7.317
    9AU       S 2797  22.246  18.011   7.854
    9AU     LIG 2798  21.971  18.247   7.648
    9AU     LIG 2799  21.545  18.260   7.808
    9AU    AUSL 2800  24.108  17.431   7.447
    9AU    AUSL 2801  23.967  17.582   7.833
    9AU     AUL 2802  24.280  17.445   7.882
    9AU       S 2803  24.394  17.267   7.454
    9AU     LIG 2804  24.339  16.840   7.308
    9AU     LIG 2805  24.549  16.481   7.497
    9AU       S 2806  24.439  16.962   7.894
    9AU     LIG 2807  24.624  16.973   8.352
    9AU     LIG 2808  24.922  16.796   8.680
    9AU    AUSL 2809  24.305  17.744   7.222
    9AU    AUSL 2810  24.022  17.182   7.121
    9AU     AUL 2811  24.262  17.429   7.039
    9AU       S 2812  24.599  17.462   7.348
    9AU     LIG 2813  24.802  17.253   7.054
    9AU     LIG 2814  25.226  17.093   7.198
    9AU       S 2815  24.150  17.006   6.842
    9AU     LIG 2816  24.410  16.584   6.829
    9AU     LIG 2817  24.618  16.154   6.690
    9AU    AUSL 2818  22.808  17.367   7.458
    9AU    AUSL 2819  22.707  17.517   7.053
    9AU     AUL 2820  22.446  17.288   7.272
    9AU       S 2821  22.538  17.374   6.823
    9AU     LIG 2822  22.088  17.225   6.695
    9AU     LIG 2823  22.054  16.890   6.347
    9AU       S 2824  22.118  17.308   7.713
    9AU     LIG 2825  22.306  16.855   7.561
    9AU     LIG 2826  22.097  16.515   7.256
    9AU    AUSL 2827  22.670  17.660   7.740
    9AU    AUSL 2828  22.865  17.072   7.748
    9AU     AUL 2829  22.583  17.239   7.710
    9AU       S 2830  22.668  16.835   7.936
    9AU     LIG 2831  22.354  16.509   8.039
    9AU     LIG 2832  22.097  16.360   8.412
    9AU       S 2833  22.294  17.548   7.887
    9AU     LIG 2834  21.921  17.376   8.143
    9AU     LIG 2835  21.604  17.231   7.816
    9AU    AUSL 2836  23.345  18.513   7.951
    9AU    AUSL 2837  22.916  18.483   7.864
    9AU     AUL 2838  23.158  18.539   8.248
    9AU       S 2839  22.798  18.680   7.989
    9AU     LIG 2840  22.370  18.844   8.096
    9AU     LIG 2841  22.082  19.180   8.283
    9AU       S 2842  23.299  18.920   8.008
    9AU     LIG 2843  23.162  19.157   8.386
    9AU     LIG 2844  23.022  19.606   8.555
    9AU    AUSL 2845  23.159  18.711   7.606
    9AU    AUSL 2846  23.504  18.765   7.280
    9AU     AUL 2847  23.198  18.987   7.386
    9AU       S 2848  23.257  19.150   7.856
    9AU     LIG 2849  23.136  19.549   8.062
    9AU     LIG 2850  23.268  19.996   8.214
    9AU       S 2851  23.465  19.018   6.985
    9AU     LIG 2852  23.662  19.443   7.072
    9AU     LIG 2853  23.988  19.766   6.911
    9AU    AUSL 2854  23.617  18.719   7.681
    9AU    AUSL 2855  23.630  18.388   8.233
    9AU     AUL 2856  23.706  18.669   8.037
    9AU       S 2857  23.840  18.479   8.467
    9AU     LIG 2858  24.136  18.530   8.828
    9AU     LIG 2859  24.417  18.896   8.855
    9AU       S 2860  23.534  19.009   7.745
    9AU     LIG 2861  23.638  19.476   7.764
    9AU     LIG 2862  23.712  19.918   7.917
    9AU    AUSL 2863  23.445  17.088   8.087
    9AU    AUSL 2864  23.992  17.116   7.703
    9AU     AUL 2865  23.751  16.905   7.992
    9AU       S 2866  23.356  16.568   8.028
    9AU     LIG 2867  23.047  16.518   8.351
    9AU     LIG 2868  23.045  16.114   8.606
    9AU       S 2869  24.175  16.953   7.766
    9AU     LIG 2870  24.239  16.477   7.914
    9AU     LIG 2871  24.457  16.242   8.263
    9AU    AUSL 2872  23.259  16.940   7.716
    9AU    AUSL 2873  23.163  17.350   7.936
    9AU     AUL 2874  23.097  17.001   8.074
    9AU       S 2875  23.179  16.656   7.767
    9AU     LIG 2876  22.882  16.388   7.881
    9AU     LIG 2877  23.098  16.077   8.086
    9AU       S 2878  22.656  16.855   8.232
    9AU     LIG 2879  22.484  16.640   8.584
    9AU     LIG 2880  22.223  16.459   8.932
    9AU    AUSL 2881  23.592  17.193   7.663
    9AU    AUSL 2882  23.239  17.037   7.308
    9AU     AUL 2883  23.560  16.834   7.524
    9AU       S 2884  23.141  16.710   7.291
    9AU     LIG 2885  22.904  16.352   7.073
    9AU     LIG 2886  22.891  15.938   6.761
    9AU       S 2887  23.393  16.442   7.801
    9AU     LIG 2888  23.648  16.100   7.980
    9AU     LIG 2889  23.675  15.651   8.114
    9AU    AUSL 2890  23.459  18.509   6.942
    9AU    AUSL 2891  23.765  18.429   7.277
    9AU     AUL 2892  23.817  18.710   7.063
    9AU       S 2893  23.483  18.758   6.723
    9AU     LIG 2894  23.709  19.232   6.596
    9AU     LIG 2895  23.605  19.698   6.523
    9AU       S 2896  24.473  18.502   6.846
    9AU     LIG 2897  24.535  18.970   6.793
    9AU     LIG 2898  24.778  19.261   6.485
    9AU    AUSL 2899  23.199  18.450   7.288
    9AU    AUSL 2900  23.088  18.382   6.814
    9AU     AUL 2901  23.099  18.693   7.021
    9AU       S 2902  23.283  19.023   6.720
    9AU     LIG 2903  23.219  19.491   6.777
    9AU     LIG 2904  23.118  19.973   6.710
    9AU       S 2905  22.833  18.513   6.654
    9AU     LIG 2906  22.595  18.793   6.399
    9AU     LIG 2907  22.190  18.977   6.255
    9AU    AUSL 2908  23.389  17.095   6.898
    9AU    AUSL 2909  22.862  17.111   7.128
    9AU     AUL 2910  23.096  16.987   6.918
    9AU       S 2911  22.625  17.064   6.881
    9AU     LIG 2912  22.280  16.760   6.833
    9AU     LIG 2913  21.974  16.477   6.647
    9AU       S 2914  23.352  16.601   7.090
    9AU     LIG 2915  23.170  16.517   6.679
    9AU     LIG 2916  23.264  16.314   6.276
    9AU    AUSL 2917  23.629  17.203   7.249
    9AU    AUSL 2918  23.733  17.322   6.823
    9AU     AUL 2919  23.711  16.949   7.019
    9AU       S 2920  23.335  16.457   7.303
    9AU     LIG 2921  23.684  16.234   7.072
    9AU     LIG 2922  23.708  15.778   7.023
    9AU       S 2923  23.908  17.184   6.649
    9AU     LIG 2924  23.937  16.848   6.324
    9AU     LIG 2925  24.146  16.472   6.091
   10AU     AUC 2926  35.925  32.485   7.496
   10AU     AUC 2927  36.229  32.519   7.335
   10AU     AUC 2928  36.199  32.500   7.673
   10AU     AUC 2929  35.640  32.471   7.321
   10AU     AUC 2930  35.634  32.475   7.672
   10AU     AUC 2931  35.735  32.735   7.507
   10AU     AUC 2932  36.077  32.759   7.500
   10AU     AUC 2933  35.764  32.204   7.495
   10AU     AUC 2934  36.124  32.247   7.494
   10AU     AUC 2935  35.951  32.318   7.770
   10AU     AUC 2936  35.901  32.646   7.773
   10AU     AUC 2937  35.947  32.324   7.218
   10AU     AUC 2938  35.950  32.660   7.224
   10AU     AUC 2939  36.542  32.541   7.188
   10AU     AUC 2940  36.571  32.534   7.509
   10AU     AUC 2941  36.497  32.503   7.873
   10AU     AUC 2942  35.343  32.451   7.141
   10AU     AUC 2943  35.301  32.497   7.506
   10AU     AUC 2944  35.346  32.471   7.845
   10AU     AUC 2945  35.566  33.035   7.485
   10AU     AUC 2946  35.912  33.094   7.485
   10AU     AUC 2947  36.226  33.075   7.513
   10AU     AUC 2948  35.587  31.887   7.496
   10AU     AUC 2949  35.930  31.922   7.498
   10AU     AUC 2950  36.324  31.963   7.475
   10AU     AUC 2951  35.956  32.101   8.060
   10AU     AUC 2952  35.907  32.425   8.098
   10AU     AUC 2953  35.906  32.801   8.061
   10AU     AUC 2954  35.950  32.131   6.929
   10AU     AUC 2955  35.952  32.476   6.911
   10AU     AUC 2956  35.976  32.835   6.926
   10AU     AUC 2957  36.244  32.266   7.974
   10AU     AUC 2958  36.215  32.633   8.012
   10AU     AUC 2959  36.244  32.334   7.021
   10AU     AUC 2960  36.273  32.695   7.010
   10AU     AUC 2961  35.619  32.267   7.977
   10AU     AUC 2962  35.616  32.624   7.980
   10AU     AUC 2963  35.608  32.272   7.037
   10AU     AUC 2964  35.622  32.645   7.011
   10AU     AUC 2965  36.434  32.810   7.362
   10AU     AUC 2966  36.367  32.784   7.715
   10AU     AUC 2967  35.450  32.761   7.288
   10AU     AUC 2968  35.420  32.781   7.679
   10AU     AUC 2969  36.442  32.231   7.315
   10AU     AUC 2970  36.447  32.211   7.645
   10AU     AUC 2971  35.409  32.185   7.335
   10AU     AUC 2972  35.438  32.193   7.667
   10AU     AUC 2973  35.719  32.964   7.779
   10AU     AUC 2974  36.056  32.967   7.805
   10AU     AUC 2975  35.732  31.984   7.770
   10AU     AUC 2976  36.143  32.000   7.805
   10AU     AUC 2977  35.747  32.925   7.163
   10AU     AUC 2978  36.142  32.961   7.174
   10AU     AUC 2979  35.729  31.998   7.214
   10AU     AUC 2980  36.120  32.024   7.175
   10AU    AUSL 2981  36.492  32.412   8.230
   10AU    AUSL 2982  36.348  31.941   8.111
   10AU     AUL 2983  36.635  32.039   8.298
   10AU       S 2984  36.751  31.638   8.124
   10AU     LIG 2985  36.632  31.508   8.561
   10AU     LIG 2986  36.673  31.229   8.941
   10AU       S 2987  36.740  32.473   8.386
   10AU     LIG 2988  36.754  32.674   8.769
   10AU     LIG 2989  36.879  32.415   9.135
   10AU    AUSL 2990  36.094  32.229   8.309
   10AU    AUSL 2991  35.760  32.563   8.380
   10AU     AUL 2992  35.934  32.420   8.648
   10AU       S 2993  36.317  32.170   8.591
   10AU     LIG 2994  36.374  32.367   8.953
   10AU     LIG 2995  36.466  32.209   9.385
   10AU       S 2996  35.246  32.363   8.671
   10AU     LIG 2997  35.483  32.724   8.928
   10AU     LIG 2998  35.502  32.691   9.389
   10AU    AUSL 2999  36.109  32.643   8.171
   10AU    AUSL 3000  36.516  32.831   8.144
   10AU     AUL 3001  36.321  32.654   8.470
   10AU       S 3002  35.939  32.916   8.621
   10AU     LIG 3003  36.302  32.889   8.912
   10AU     LIG 3004  36.509  32.733   9.292
   10AU       S 3005  36.638  32.988   8.359
   10AU     LIG 3006  37.049  33.005   8.427
   10AU     LIG 3007  37.291  33.264   8.717
   10AU    AUSL 3008  36.508  32.576   6.779
   10AU    AUSL 3009  36.398  33.019   6.836
   10AU     AUL 3010  36.547  32.845   6.515
   10AU       S 3011  36.423  32.434   6.320
   10AU     LIG 3012  36.749  32.594   6.071
   10AU     LIG 3013  36.828  32.496   5.614
   10AU       S 3014  36.750  33.139   6.809
   10AU     LIG 3015  36.650  33.346   6.464
   10AU     LIG 3016  36.823  33.760   6.324
   10AU    AUSL 3017  36.162  32.331   6.732
   10AU    AUSL 3018  36.479  32.253   7.065
   10AU     AUL 3019  36.598  32.272   6.712
   10AU       S 3020  36.523  31.500   6.699
   10AU     LIG 3021  36.927  31.663   6.520
   10AU     LIG 3022  37.261  31.406   6.358
   10AU       S 3023  36.243  32.141   6.410
   10AU     LIG 3024  36.094  31.939   6.013
   10AU     LIG 3025  36.066  32.018   5.529
   10AU    AUSL 3026  36.108  32.761   6.659
   10AU    AUSL 3027  35.780  32.212   6.612
   10AU     AUL 3028  35.969  32.516   6.422
   10AU       S 3029  35.595  32.249   6.286
   10AU     LIG 3030  35.675  32.171   5.837
   10AU     LIG 3031  35.385  32.113   5.486
   10AU       S 3032  36.486  32.167   6.239
   10AU     LIG 3033  36.341  32.355   5.828
   10AU     LIG 3034  36.329  32.516   5.392
   10AU    AUSL 3035  35.404  32.439   8.169
   10AU    AUSL 3036  35.640  32.878   8.130
   10AU     AUL 3037  35.493  32.753   8.436
   10AU       S 3038  35.161  32.427   8.372
   10AU     LIG 3039  35.021  32.787   8.672
   10AU     LIG 3040  35.044  32.564   9.122
   10AU       S 3041  35.226  33.115   8.267
   10AU     LIG 3042  35.346  33.296   8.634
   10AU     LIG 3043  35.370  33.744   8.795
   10AU    AUSL 3044  35.679  32.136   8.348
   10AU    AUSL 3045  35.275  32.053   8.037
   10AU     AUL 3046  35.363  32.011   8.328
   10AU       S 3047  35.046  31.709   8.143
   10AU     LIG 3048  34.621  31.638   8.258
   10AU     LIG 3049  34.459  31.597   8.678
   10AU       S 3050  35.465  32.307   8.659
   10AU     LIG 3051  35.584  32.252   9.088
   10AU     LIG 3052  35.408  32.179   9.516
   10AU    AUSL 3053  35.403  32.374   6.748
   10AU    AUSL 3054  35.655  32.061   6.992
   10AU     AUL 3055  35.507  31.989   6.665
   10AU       S 3056  35.207  32.310   6.472
   10AU     LIG 3057  34.884  32.317   6.094
   10AU     LIG 3058  34.893  32.294   5.607
   10AU       S 3059  35.056  31.775   6.689
   10AU     LIG 3060  35.068  31.292   6.601
   10AU     LIG 3061  35.207  30.997   6.224
   10AU    AUSL 3062  35.758  32.610   6.824
   10AU    AUSL 3063  35.312  32.757   6.901
   10AU     AUL 3064  35.518  32.657   6.542
   10AU       S 3065  35.148  32.898   6.703
   10AU     LIG 3066  34.783  33.148   6.741
   10AU     LIG 3067  34.564  33.506   6.545
   10AU       S 3068  35.346  32.215   6.237
   10AU     LIG 3069  35.303  32.511   5.863
   10AU     LIG 3070  35.269  32.610   5.389
   10AU    AUSL 3071  36.609  33.089   7.559
   10AU    AUSL 3072  36.618  32.799   7.126
   10AU     AUL 3073  36.778  33.179   7.280
   10AU       S 3074  36.877  32.852   6.934
   10AU     LIG 3075  37.040  32.897   6.470
   10AU     LIG 3076  37.155  33.347   6.377
   10AU       S 3077  37.119  33.057   7.918
   10AU     LIG 3078  37.313  33.360   7.600
   10AU     LIG 3079  37.689  33.384   7.328
   10AU    AUSL 3080  36.880  32.750   7.444
   10AU    AUSL 3081  36.878  32.367   7.683
   10AU     AUL 3082  37.193  32.542   7.556
   10AU       S 3083  37.044  32.958   7.673
   10AU     LIG 3084  37.322  32.954   7.285
   10AU     LIG 3085  37.759  32.750   7.256
   10AU       S 3086  37.135  32.068   7.516
   10AU     LIG 3087  37.365  32.038   7.886
   10AU     LIG 3088  37.751  31.784   8.026
   10AU    AUSL 3089  36.614  32.691   7.766
   10AU    AUSL 3090  36.284  33.006   7.815
   10AU     AUL 3091  36.635  33.102   7.898
   10AU       S 3092  36.626  33.302   8.345
   10AU     LIG 3093  37.021  33.553   8.351
   10AU     LIG 3094  37.208  33.993   8.484
   10AU       S 3095  36.950  32.751   7.951
   10AU     LIG 3096  37.390  32.651   7.998
   10AU     LIG 3097  37.622  32.942   7.717
   10AU    AUSL 3098  35.270  32.991   7.513
   10AU    AUSL 3099  35.263  32.773   7.938
   10AU     AUL 3100  34.998  33.118   7.775
   10AU       S 3101  35.117  32.846   8.136
   10AU     LIG 3102  34.742  33.105   8.257
   10AU     LIG 3103  34.613  33.321   8.624
   10AU       S 3104  35.221  33.407   7.474
   10AU     LIG 3105  34.774  33.333   7.354
   10AU     LIG 3106  34.416  33.620   7.337
   10AU    AUSL 3107  35.199  32.624   7.275
   10AU    AUSL 3108  35.362  33.128   7.126
   10AU     AUL 3109  35.049  32.952   7.175
   10AU       S 3110  34.906  32.507   6.907
   10AU     LIG 3111  34.524  32.829   7.042
   10AU     LIG 3112  34.342  33.264   6.983
   10AU       S 3113  35.199  33.339   6.924
   10AU     LIG 3114  34.926  33.710   6.850
   10AU     LIG 3115  34.749  34.111   6.649
   10AU    AUSL 3116  34.977  32.686   7.641
   10AU    AUSL 3117  34.975  32.286   7.390
   10AU     AUL 3118  34.812  32.585   7.354
   10AU       S 3119  34.721  32.237   7.686
   10AU     LIG 3120  34.466  32.042   7.352
   10AU     LIG 3121  34.023  31.950   7.238
   10AU       S 3122  34.720  32.741   7.798
   10AU     LIG 3123  34.389  32.953   7.948
   10AU     LIG 3124  34.115  32.853   8.288
   10AU    AUSL 3125  36.645  32.079   7.463
   10AU    AUSL 3126  36.512  32.235   7.852
   10AU     AUL 3127  36.843  32.113   7.884
   10AU       S 3128  36.944  31.908   7.470
   10AU     LIG 3129  37.078  31.579   7.225
   10AU     LIG 3130  37.423  31.295   7.072
   10AU       S 3131  36.772  31.453   8.084
   10AU     LIG 3132  37.129  31.526   8.408
   10AU     LIG 3133  37.124  31.457   8.853
   10AU    AUSL 3134  36.841  32.385   7.225
   10AU    AUSL 3135  36.537  31.799   7.171
   10AU     AUL 3136  36.776  32.039   7.061
   10AU       S 3137  37.152  32.157   7.291
   10AU     LIG 3138  37.449  31.904   7.067
   10AU     LIG 3139  37.910  31.835   7.126
   10AU       S 3140  36.659  31.599   6.935
   10AU     LIG 3141  36.951  31.252   6.834
   10AU     LIG 3142  37.208  30.953   6.591
   10AU    AUSL 3143  35.332  32.050   7.488
   10AU    AUSL 3144  35.232  32.174   7.071
   10AU     AUL 3145  34.963  31.971   7.305
   10AU       S 3146  35.070  32.025   6.857
   10AU     LIG 3147  34.609  31.957   6.857
   10AU     LIG 3148  34.415  31.745   6.491
   10AU       S 3149  34.725  32.117   7.990
   10AU     LIG 3150  34.613  31.726   7.749
   10AU     LIG 3151  34.220  31.604   7.544
   10AU    AUSL 3152  35.185  32.347   7.764
   10AU    AUSL 3153  35.386  31.741   7.760
   10AU     AUL 3154  35.085  31.933   7.742
   10AU       S 3155  35.214  31.497   7.886
   10AU     LIG 3156  34.826  31.238   7.983
   10AU     LIG 3157  34.772  31.166   8.429
   10AU       S 3158  34.873  32.316   7.939
   10AU     LIG 3159  34.360  32.433   7.973
   10AU     LIG 3160  34.149  32.103   7.751
   10AU    AUSL 3161  35.880  33.180   7.945
   10AU    AUSL 3162  35.453  33.155   7.859
   10AU     AUL 3163  35.686  33.200   8.246
   10AU       S 3164  35.345  33.362   7.974
   10AU     LIG 3165  35.312  33.686   8.266
   10AU     LIG 3166  35.127  34.116   8.295
   10AU       S 3167  35.828  33.568   7.991
   10AU     LIG 3168  35.871  33.785   8.357
   10AU     LIG 3169  35.819  34.209   8.542
   10AU    AUSL 3170  35.700  33.362   7.587
   10AU    AUSL 3171  36.058  33.409   7.266
   10AU     AUL 3172  35.746  33.634   7.366
   10AU       S 3173  35.772  33.781   7.846
   10AU     LIG 3174  35.723  34.183   8.028
   10AU     LIG 3175  36.025  34.521   8.149
   10AU       S 3176  36.034  33.658   6.983
   10AU     LIG 3177  36.317  34.041   7.029
   10AU     LIG 3178  36.429  34.497   6.876
   10AU    AUSL 3179  36.156  33.373   7.672
   10AU    AUSL 3180  36.152  33.051   8.236
   10AU     AUL 3181  36.239  33.329   8.035
   10AU       S 3182  36.372  33.154   8.479
   10AU     LIG 3183  36.749  33.242   8.810
   10AU     LIG 3184  37.006  33.665   8.858
   10AU       S 3185  36.062  33.659   7.741
   10AU     LIG 3186  36.219  34.020   7.991
   10AU     LIG 3187  36.516  34.397   7.961
   10AU    AUSL 3188  35.970  31.753   8.112
   10AU    AUSL 3189  36.530  31.779   7.738
   10AU     AUL 3190  36.286  31.572   8.034
   10AU       S 3191  35.678  31.205   8.089
   10AU     LIG 3192  35.863  30.951   8.412
   10AU     LIG 3193  35.921  30.518   8.495
   10AU       S 3194  36.704  31.651   7.814
   10AU     LIG 3195  37.093  31.482   7.730
   10AU     LIG 3196  37.188  31.150   8.074
   10AU    AUSL 3197  35.780  31.608   7.742
   10AU    AUSL 3198  35.697  32.015   7.948
   10AU     AUL 3199  35.617  31.682   8.095
   10AU       S 3200  35.689  31.323   7.796
   10AU     LIG 3201  35.368  31.004   7.769
   10AU     LIG 3202  35.576  30.693   8.060
   10AU       S 3203  35.170  31.524   8.169
   10AU     LIG 3204  35.284  31.462   8.554
   10AU     LIG 3205  35.130  31.113   8.801
   10AU    AUSL 3206  36.128  31.842   7.692
   10AU    AUSL 3207  35.762  31.673   7.329
   10AU     AUL 3208  36.087  31.488   7.569
   10AU       S 3209  35.674  31.355   7.317
   10AU     LIG 3210  35.462  30.915   7.247
   10AU     LIG 3211  35.488  30.470   7.025
   10AU       S 3212  35.914  31.224   7.993
   10AU     LIG 3213  36.253  31.063   7.834
   10AU     LIG 3214  36.327  30.687   8.061
   10AU    AUSL 3215  36.012  33.150   6.929
   10AU    AUSL 3216  36.309  33.067   7.268
   10AU     AUL 3217  36.374  33.340   7.043
   10AU       S 3218  36.038  33.373   6.706
   10AU     LIG 3219  36.360  33.729   6.607
   10AU     LIG 3220  36.239  34.171   6.530
   10AU       S 3221  37.040  33.175   6.873
   10AU     LIG 3222  36.841  33.625   6.859
   10AU     LIG 3223  36.739  34.065   6.735
   10AU    AUSL 3224  35.749  33.099   7.273
   10AU    AUSL 3225  35.641  33.017   6.804
   10AU     AUL 3226  35.660  33.339   6.999
   10AU       S 3227  35.884  33.690   6.739
   10AU     LIG 3228  35.829  34.152   6.891
   10AU     LIG 3229  35.751  34.633   6.846
   10AU       S 3230  35.394  33.151   6.636
   10AU     LIG 3231  35.089  33.413   6.424
   10AU     LIG 3232  34.908  33.807   6.268
   10AU    AUSL 3233  35.911  31.740   6.920
   10AU    AUSL 3234  35.378  31.770   7.176
   10AU     AUL 3235  35.610  31.638   6.949
   10AU       S 3236  35.144  31.711   6.948
   10AU     LIG 3237  34.764  31.498   7.046
   10AU     LIG 3238  34.527  31.283   6.717
   10AU       S 3239  35.827  31.219   7.050
   10AU     LIG 3240  36.177  31.078   6.812
   10AU     LIG 3241  36.225  30.663   6.607
   10AU    AUSL 3242  36.143  31.856   7.277
   10AU    AUSL 3243  36.271  31.942   6.851
   10AU     AUL 3244  36.208  31.579   7.070
   10AU       S 3245  35.901  31.191   7.248
   10AU     LIG 3246  36.301  31.003   7.301
   10AU     LIG 3247  36.433  30.611   7.069
   10AU       S 3248  36.447  31.795   6.694
   10AU     LIG 3249  36.506  31.659   6.229
   10AU     LIG 3250  36.831  31.352   6.034
   11POPC   NC3 3251  10.905  21.900   9.301
   11POPC   PO4 3252  10.502  22.525   9.445
   11POPC   GL1 3253  10.585  22.279   9.068
   11POPC   GL2 3254  10.775  22.029   8.836
   11POPC   C1A 3255  10.499  22.420   8.667
   11POPC   D2A 3256  10.551  22.133   8.374
   11POPC   C3A 3257  10.301  22.188   8.078
   11POPC   C4A 3258  10.467  22.163   7.740
   11POPC   C1B 3259  10.519  21.692   8.600
   11POPC   C2B 3260  10.229  21.702   8.251
   11POPC   C3B 3261  10.355  21.673   7.795
   11POPC   C4B 3262  10.560  21.816   7.379
   12POPC   NC3 3263  13.661  39.722   9.504
   12POPC   PO4 3264  14.039  40.303   9.440
   12POPC   GL1 3265  13.741  40.088   9.139
   12POPC   GL2 3266  13.900  39.776   9.062
   12POPC   C1A 3267  13.437  39.951   8.791
   12POPC   D2A 3268  13.331  39.694   8.431
   12POPC   C3A 3269  13.406  39.932   8.065
   12POPC   C4A 3270  13.370  40.096   7.668
   12POPC   C1B 3271  13.931  40.023   8.672
   12POPC   C2B 3272  14.004  40.171   8.275
   12POPC   C3B 3273  13.860  40.100   7.880
   12POPC   C4B 3274  13.796  39.946   7.474
   13POPC   NC3 3275  21.434  31.241   9.545
   13POPC   PO4 3276  21.388  31.918   9.561
   13POPC   GL1 3277  21.251  31.598   9.185
   13POPC   GL2 3278  21.143  31.209   9.135
   13POPC   C1A 3279  21.093  31.514   8.733
   13POPC   D2A 3280  21.110  31.682   8.318
   13POPC   C3A 3281  21.488  31.673   8.044
   13POPC   C4A 3282  21.470  31.724   7.566
   13POPC   C1B 3283  21.413  31.115   8.773
   13POPC   C2B 3284  21.488  31.311   8.408
   13POPC   C3B 3285  21.413  31.179   7.968
   13POPC   C4B 3286  21.288  31.194   7.529
   14POPC   NC3 3287  16.252  30.148   9.365
   14POPC   PO4 3288  16.855  30.119   9.338
   14POPC   GL1 3289  16.821  29.765   9.098
   14POPC   GL2 3290  16.472  29.801   9.044
   14POPC   C1A 3291  16.831  29.781   8.657
   14POPC   D2A 3292  16.712  30.062   8.340
   14POPC   C3A 3293  16.913  29.986   7.959
   14POPC   C4A 3294  16.840  30.043   7.504
   14POPC   C1B 3295  16.311  29.706   8.628
   14POPC   C2B 3296  16.506  29.601   8.227
   14POPC   C3B 3297  16.576  29.631   7.768
   14POPC   C4B 3298  16.764  29.550   7.351
   15POPC   NC3 3299  36.822  42.439   9.464
   15POPC   PO4 3300  37.324  42.929   9.492
   15POPC   GL1 3301  37.037  42.722   9.130
   15POPC   GL2 3302  36.965  42.342   8.994
   15POPC   C1A 3303  36.690  42.745   8.802
   15POPC   D2A 3304  36.737  42.837   8.370
   15POPC   C3A 3305  36.969  42.530   8.144
   15POPC   C4A 3306  36.767  42.367   7.762
   15POPC   C1B 3307  36.934  42.187   8.565
   15POPC   C2B 3308  36.869  42.017   8.155
   15POPC   C3B 3309  37.166  42.028   7.796
   15POPC   C4B 3310  37.339  42.171   7.368
   16POPC   NC3 3311  30.477  11.342   9.611
   16POPC   PO4 3312  29.855  11.164   9.860
   16POPC   GL1 3313  29.924  11.233   9.358
   16POPC   GL2 3314  29.663  11.466   9.157
   16POPC   C1A 3315  29.980  11.198   8.884
   16POPC   D2A 3316  30.011  11.352   8.463
   16POPC   C3A 3317  29.997  11.116   8.107
   16POPC   C4A 3318  29.879  11.223   7.703
   16POPC   C1B 3319  29.552  11.478   8.706
   16POPC   C2B 3320  29.525  11.311   8.266
   16POPC   C3B 3321  29.437  11.455   7.841
   16POPC   C4B 3322  29.485  11.295   7.399
   17POPC   NC3 3323  34.474   7.761   9.513
   17POPC   PO4 3324  34.722   7.237   9.422
   17POPC   GL1 3325  34.565   7.498   9.056
   17POPC   GL2 3326  34.276   7.745   9.045
   17POPC   C1A 3327  34.671   7.420   8.633
   17POPC   D2A 3328  34.985   7.188   8.385
   17POPC   C3A 3329  34.842   7.233   7.983
   17POPC   C4A 3330  34.434   7.092   7.787
   17POPC   C1B 3331  34.288   7.792   8.598
   17POPC   C2B 3332  34.527   7.718   8.222
   17POPC   C3B 3333  34.336   7.584   7.856
   17POPC   C4B 3334  34.203   7.830   7.513
   18POPC   NC3 3335  28.731  16.571   9.535
   18POPC   PO4 3336  28.322  17.153   9.489
   18POPC   GL1 3337  28.464  16.822   9.161
   18POPC   GL2 3338  28.793  16.591   9.030
   18POPC   C1A 3339  28.343  16.665   8.756
   18POPC   D2A 3340  28.502  16.492   8.365
   18POPC   C3A 3341  28.242  16.609   8.028
   18POPC   C4A 3342  28.108  16.363   7.704
   18POPC   C1B 3343  28.759  16.979   8.770
   18POPC   C2B 3344  28.528  17.032   8.391
   18POPC   C3B 3345  28.676  16.852   8.038
   18POPC   C4B 3346  28.689  16.512   7.763
   19POPC   NC3 3347   4.700  17.354   9.552
   19POPC   PO4 3348   4.403  17.943   9.771
   19POPC   GL1 3349   4.413  17.714   9.294
   19POPC   GL2 3350   4.454  17.404   9.105
   19POPC   C1A 3351   4.368  17.774   8.805
   19POPC   D2A 3352   4.302  17.488   8.435
   19POPC   C3A 3353   4.285  17.685   8.062
   19POPC   C4A 3354   4.440  17.574   7.716
   19POPC   C1B 3355   4.694  17.361   8.766
   19POPC   C2B 3356   4.853  17.263   8.415
   19POPC   C3B 3357   4.673  17.317   8.080
   19POPC   C4B 3358   4.857  17.309   7.669
   20POPC   NC3 3359  33.146   9.675   9.567
   20POPC   PO4 3360  32.565   9.770   9.794
   20POPC   GL1 3361  32.785   9.924   9.310
   20POPC   GL2 3362  33.163   9.987   9.183
   20POPC   C1A 3363  32.803   9.866   8.842
   20POPC   D2A 3364  33.028   9.904   8.436
   20POPC   C3A 3365  32.794   9.749   8.052
   20POPC   C4A 3366  32.907   9.507   7.669
   20POPC   C1B 3367  33.273   9.602   8.919
   20POPC   C2B 3368  33.214   9.388   8.521
   20POPC   C3B 3369  33.297   9.590   8.134
   20POPC   C4B 3370  33.223   9.913   7.845
   21POPC   NC3 3371  15.617  42.338   9.492
   21POPC   PO4 3372  16.151  42.064   9.227
   21POPC   GL1 3373  16.017  42.446   9.086
   21POPC   GL2 3374  15.646  42.599   9.065
   21POPC   C1A 3375  15.904  42.422   8.677
   21POPC   D2A 3376  15.690  42.328   8.368
   21POPC   C3A 3377  15.824  41.972   8.170
   21POPC   C4A 3378  16.093  41.981   7.824
   21POPC   C1B 3379  15.379  42.516   8.722
   21POPC   C2B 3380  15.226  42.600   8.333
   21POPC   C3B 3381  15.582  42.746   8.098
   21POPC   C4B 3382  15.776  42.414   7.855
   22POPC   NC3 3383  15.989  11.533   9.615
   22POPC   PO4 3384  16.023  10.789   9.442
   22POPC   GL1 3385  15.923  11.049   9.088
   22POPC   GL2 3386  16.083  11.378   9.145
   22POPC   C1A 3387  15.768  11.275   8.724
   22POPC   D2A 3388  15.683  11.439   8.306
   22POPC   C3A 3389  15.606  11.158   7.951
   22POPC   C4A 3390  15.643  11.241   7.519
   22POPC   C1B 3391  16.283  11.344   8.745
   22POPC   C2B 3392  16.215  11.472   8.328
   22POPC   C3B 3393  16.139  11.314   7.895
   22POPC   C4B 3394  16.117  11.353   7.448
   23POPC   NC3 3395  28.785  12.844   9.235
   23POPC   PO4 3396  28.242  12.687   9.658
   23POPC   GL1 3397  28.275  12.688   9.215
   23POPC   GL2 3398  28.290  12.997   9.146
   23POPC   C1A 3399  28.416  12.641   8.762
   23POPC   D2A 3400  28.599  12.481   8.382
   23POPC   C3A 3401  28.516  12.733   8.053
   23POPC   C4A 3402  28.335  12.600   7.692
   23POPC   C1B 3403  28.227  13.152   8.720
   23POPC   C2B 3404  28.345  13.228   8.314
   23POPC   C3B 3405  28.160  13.104   7.945
   23POPC   C4B 3406  28.482  13.169   7.720
   24POPC   NC3 3407  39.357  38.735   9.519
   24POPC   PO4 3408  38.940  38.146   9.437
   24POPC   GL1 3409  39.271  38.336   9.158
   24POPC   GL2 3410  39.373  38.663   9.025
   24POPC   C1A 3411  39.492  38.213   8.780
   24POPC   D2A 3412  39.286  38.503   8.478
   24POPC   C3A 3413  39.255  38.372   8.040
   24POPC   C4A 3414  38.980  38.436   7.687
   24POPC   C1B 3415  39.022  38.881   8.865
   24POPC   C2B 3416  39.059  39.027   8.469
   24POPC   C3B 3417  39.043  38.826   8.082
   24POPC   C4B 3418  39.026  38.959   7.679
   25POPC   NC3 3419  16.004  27.153   9.703
   25POPC   PO4 3420  15.781  26.513   9.469
   25POPC   GL1 3421  15.880  26.710   9.088
   25POPC   GL2 3422  16.202  26.638   9.140
   25POPC   C1A 3423  15.962  26.912   8.680
   25POPC   D2A 3424  15.774  27.198   8.400
   25POPC   C3A 3425  15.855  26.999   8.033
   25POPC   C4A 3426  16.184  27.194   7.811
   25POPC   C1B 3427  16.223  26.474   8.707
   25POPC   C2B 3428  16.020  26.498   8.286
   25POPC   C3B 3429  16.176  26.616   7.856
   25POPC   C4B 3430  16.474  26.665   7.467
   26POPC   NC3 3431  27.488  14.158   9.386
   26POPC   PO4 3432  27.905  13.632   9.496
   26POPC   GL1 3433  27.651  13.626   9.108
   26POPC   GL2 3434  27.687  13.947   8.971
   26POPC   C1A 3435  27.645  13.523   8.645
   26POPC   D2A 3436  27.942  13.540   8.285
   26POPC   C3A 3437  27.819  13.465   7.868
   26POPC   C4A 3438  27.624  13.160   7.631
   26POPC   C1B 3439  27.506  14.020   8.564
   26POPC   C2B 3440  27.488  13.798   8.192
   26POPC   C3B 3441  27.474  13.804   7.746
   26POPC   C4B 3442  27.582  13.587   7.377
   27POPC   NC3 3443  24.554  15.542   9.415
   27POPC   PO4 3444  24.613  16.238   9.387
   27POPC   GL1 3445  24.642  15.941   9.042
   27POPC   GL2 3446  24.307  15.827   9.072
   27POPC   C1A 3447  24.743  15.898   8.587
   27POPC   D2A 3448  24.853  15.814   8.150
   27POPC   C3A 3449  24.561  15.959   7.868
   27POPC   C4A 3450  24.517  15.923   7.458
   27POPC   C1B 3451  24.243  15.938   8.645
   27POPC   C2B 3452  24.178  15.798   8.229
   27POPC   C3B 3453  24.076  15.798   7.794
   27POPC   C4B 3454  23.837  16.019   7.495
   28POPC   NC3 3455  26.436  20.449   9.580
   28POPC   PO4 3456  27.111  20.308   9.501
   28POPC   GL1 3457  26.869  20.511   9.166
   28POPC   GL2 3458  26.544  20.677   9.108
   28POPC   C1A 3459  26.710  20.319   8.781
   28POPC   D2A 3460  26.636  20.494   8.364
   28POPC   C3A 3461  26.984  20.700   8.138
   28POPC   C4A 3462  27.005  20.379   7.859
   28POPC   C1B 3463  26.780  20.826   8.736
   28POPC   C2B 3464  26.619  21.014   8.331
   28POPC   C3B 3465  26.566  20.982   7.868
   28POPC   C4B 3466  26.452  20.762   7.465
   29POPC   NC3 3467   6.333   5.761   9.484
   29POPC   PO4 3468   5.908   6.270   9.443
   29POPC   GL1 3469   5.855   6.028   9.074
   29POPC   GL2 3470   5.961   5.659   9.108
   29POPC   C1A 3471   6.005   5.944   8.655
   29POPC   D2A 3472   5.810   6.005   8.257
   29POPC   C3A 3473   6.021   5.881   7.869
   29POPC   C4A 3474   6.046   6.127   7.493
   29POPC   C1B 3475   5.588   5.640   8.850
   29POPC   C2B 3476   5.464   5.622   8.421
   29POPC   C3B 3477   5.601   5.549   8.013
   29POPC   C4B 3478   5.527   5.818   7.658
   30POPC   NC3 3479  16.818  38.800   9.379
   30POPC   PO4 3480  16.521  39.437   9.465
   30POPC   GL1 3481  16.856  39.343   9.141
   30POPC   GL2 3482  17.104  39.613   9.038
   30POPC   C1A 3483  16.951  39.182   8.740
   30POPC   D2A 3484  16.703  39.023   8.404
   30POPC   C3A 3485  16.830  38.837   7.989
   30POPC   C4A 3486  16.744  38.957   7.552
   30POPC   C1B 3487  17.009  39.729   8.654
   30POPC   C2B 3488  16.679  39.534   8.418
   30POPC   C3B 3489  16.696  39.367   7.993
   30POPC   C4B 3490  17.050  39.306   7.719
   31POPC   NC3 3491  36.957  13.204   9.492
   31POPC   PO4 3492  36.576  12.656   9.500
   31POPC   GL1 3493  36.858  12.687   9.121
   31POPC   GL2 3494  37.213  12.695   9.207
   31POPC   C1A 3495  36.884  12.512   8.669
   31POPC   D2A 3496  36.756  12.379   8.238
   31POPC   C3A 3497  36.854  12.647   7.906
   31POPC   C4A 3498  36.784  12.757   7.482
   31POPC   C1B 3499  37.242  12.864   8.782
   31POPC   C2B 3500  37.117  12.813   8.322
   31POPC   C3B 3501  37.229  12.995   7.905
   31POPC   C4B 3502  37.373  13.051   7.440
   32POPC   NC3 3503  43.040  42.620   9.511
   32POPC   PO4 3504  43.156  41.996   9.544
   32POPC   GL1 3505  43.027  42.203   9.181
   32POPC   GL2 3506  43.306  42.186   8.947
   32POPC   C1A 3507  42.817  42.204   8.796
   32POPC   D2A 3508  42.996  42.300   8.410
   32POPC   C3A 3509  42.801  42.178   8.044
   32POPC   C4A 3510  42.917  42.364   7.677
   32POPC   C1B 3511  43.156  42.600   8.817
   32POPC   C2B 3512  43.259  42.758   8.420
   32POPC   C3B 3513  43.198  42.595   8.013
   32POPC   C4B 3514  43.402  42.523   7.596
   33POPC   NC3 3515  14.411  18.765   9.396
   33POPC   PO4 3516  14.716  19.279   9.570
   33POPC   GL1 3517  14.521  19.207   9.132
   33POPC   GL2 3518  14.189  19.188   9.154
   33POPC   C1A 3519  14.392  19.281   8.676
   33POPC   D2A 3520  14.357  19.336   8.231
   33POPC   C3A 3521  14.710  19.133   8.034
   33POPC   C4A 3522  14.554  18.871   7.694
   33POPC   C1B 3523  14.101  18.895   8.822
   33POPC   C2B 3524  13.979  18.809   8.416
   33POPC   C3B 3525  14.171  18.692   8.024
   33POPC   C4B 3526  13.998  18.631   7.633
   34POPC   NC3 3527   1.595  28.888   9.396
   34POPC   PO4 3528   1.231  29.411   9.457
   34POPC   GL1 3529   1.064  29.262   9.085
   34POPC   GL2 3530   1.351  29.119   9.006
   34POPC   C1A 3531   0.900  29.420   8.713
   34POPC   D2A 3532   0.873  29.186   8.344
   34POPC   C3A 3533   0.972  29.341   7.970
   34POPC   C4A 3534   1.089  28.994   7.707
   34POPC   C1B 3535   1.632  28.955   8.728
   34POPC   C2B 3536   1.629  28.838   8.334
   34POPC   C3B 3537   1.427  29.107   8.092
   34POPC   C4B 3538   1.585  29.054   7.726
   35POPC   NC3 3539   0.558  19.099   9.560
   35POPC   PO4 3540  44.985  18.890   9.381
   35POPC   GL1 3541   0.304  19.069   9.102
   35POPC   GL2 3542   0.603  18.877   9.094
   35POPC   C1A 3543   0.400  19.149   8.654
   35POPC   D2A 3544   0.505  19.308   8.263
   35POPC   C3A 3545   0.449  19.176   7.833
   35POPC   C4A 3546   0.455  19.191   7.371
   35POPC   C1B 3547   0.652  18.593   8.754
   35POPC   C2B 3548   0.695  18.772   8.340
   35POPC   C3B 3549   0.853  18.878   7.946
   35POPC   C4B 3550   0.682  18.773   7.504
   36POPC   NC3 3551  17.956  34.529   9.622
   36POPC   PO4 3552  18.546  34.347   9.736
   36POPC   GL1 3553  18.363  34.594   9.318
   36POPC   GL2 3554  18.522  34.916   9.188
   36POPC   C1A 3555  18.198  34.674   8.871
   36POPC   D2A 3556  18.231  34.718   8.399
   36POPC   C3A 3557  18.177  34.399   8.058
   36POPC   C4A 3558  18.053  34.333   7.620
   36POPC   C1B 3559  18.721  34.820   8.787
   36POPC   C2B 3560  18.733  34.707   8.352
   36POPC   C3B 3561  18.532  34.808   7.956
   36POPC   C4B 3562  18.724  34.828   7.526
   37POPC   NC3 3563  37.074   8.172   9.514
   37POPC   PO4 3564  36.560   8.560   9.555
   37POPC   GL1 3565  36.689   8.323   9.167
   37POPC   GL2 3566  37.057   8.450   9.117
   37POPC   C1A 3567  36.583   8.002   8.806
   37POPC   D2A 3568  36.532   7.841   8.352
   37POPC   C3A 3569  36.772   8.163   8.034
   37POPC   C4A 3570  37.059   8.573   7.954
   37POPC   C1B 3571  37.053   8.198   8.803
   37POPC   C2B 3572  37.012   7.946   8.453
   37POPC   C3B 3573  37.284   8.034   8.141
   37POPC   C4B 3574  37.448   8.282   7.846
   38POPC   NC3 3575  18.806  24.435   9.564
   38POPC   PO4 3576  19.216  24.817   9.272
   38POPC   GL1 3577  18.896  24.624   9.026
   38POPC   GL2 3578  18.871  24.279   9.095
   38POPC   C1A 3579  18.952  24.758   8.613
   38POPC   D2A 3580  19.330  24.799   8.307
   38POPC   C3A 3581  19.175  24.673   7.911
   38POPC   C4A 3582  18.766  24.786   7.868
   38POPC   C1B 3583  19.107  24.170   8.743
   38POPC   C2B 3584  19.063  24.350   8.341
   38POPC   C3B 3585  18.829  24.258   8.013
   38POPC   C4B 3586  18.941  23.882   7.791
   39POPC   NC3 3587  25.554  21.539   9.530
   39POPC   PO4 3588  25.135  21.032   9.622
   39POPC   GL1 3589  25.350  21.210   9.204
   39POPC   GL2 3590  25.177  21.531   9.191
   39POPC   C1A 3591  25.324  21.047   8.767
   39POPC   D2A 3592  25.333  21.252   8.377
   39POPC   C3A 3593  25.314  21.126   7.943
   39POPC   C4A 3594  25.482  21.289   7.529
   39POPC   C1B 3595  25.087  21.518   8.772
   39POPC   C2B 3596  24.990  21.620   8.380
   39POPC   C3B 3597  24.967  21.525   7.994
   39POPC   C4B 3598  25.004  21.373   7.631
   40POPC   NC3 3599  31.611  27.280   9.620
   40POPC   PO4 3600  31.835  26.727   9.577
   40POPC   GL1 3601  31.680  26.765   9.175
   40POPC   GL2 3602  31.498  27.007   9.210
   40POPC   C1A 3603  31.567  26.583   8.745
   40POPC   D2A 3604  31.403  26.693   8.327
   40POPC   C3A 3605  31.587  26.725   7.909
   40POPC   C4A 3606  31.780  27.090   7.770
   40POPC   C1B 3607  31.556  27.120   8.809
   40POPC   C2B 3608  31.366  27.289   8.474
   40POPC   C3B 3609  31.349  27.147   8.093
   40POPC   C4B 3610  31.246  27.156   7.700
   41POPC   NC3 3611  37.810  10.070   9.481
   41POPC   PO4 3612  37.252  10.323   9.748
   41POPC   GL1 3613  37.400  10.356   9.256
   41POPC   GL2 3614  37.738  10.353   9.070
   41POPC   C1A 3615  37.299  10.492   8.825
   41POPC   D2A 3616  37.590  10.460   8.457
   41POPC   C3A 3617  37.470  10.563   8.032
   41POPC   C4A 3618  37.556  10.453   7.638
   41POPC   C1B 3619  37.947  10.666   8.816
   41POPC   C2B 3620  38.071  10.747   8.415
   41POPC   C3B 3621  37.991  10.464   8.057
   41POPC   C4B 3622  38.040  10.597   7.645
   42POPC   NC3 3623  39.799  20.889   9.460
   42POPC   PO4 3624  40.324  20.439   9.509
   42POPC   GL1 3625  40.123  20.593   9.180
   42POPC   GL2 3626  40.437  20.841   9.172
   42POPC   C1A 3627  39.786  20.518   8.840
   42POPC   D2A 3628  39.931  20.558   8.412
   42POPC   C3A 3629  39.895  20.342   8.000
   42POPC   C4A 3630  39.717  20.392   7.572
   42POPC   C1B 3631  40.307  20.768   8.757
   42POPC   C2B 3632  40.364  20.941   8.401
   42POPC   C3B 3633  40.271  20.732   8.067
   42POPC   C4B 3634  40.192  20.610   7.694
   43POPC   NC3 3635  12.201  38.952   9.582
   43POPC   PO4 3636  12.236  38.313   9.468
   43POPC   GL1 3637  12.107  38.399   9.100
   43POPC   GL2 3638  11.824  38.567   9.247
   43POPC   C1A 3639  12.212  38.535   8.681
   43POPC   D2A 3640  12.122  38.353   8.291
   43POPC   C3A 3641  12.312  38.482   7.967
   43POPC   C4A 3642  12.172  38.651   7.654
   43POPC   C1B 3643  11.693  38.541   8.813
   43POPC   C2B 3644  11.620  38.420   8.401
   43POPC   C3B 3645  11.765  38.630   8.017
   43POPC   C4B 3646  11.658  38.543   7.596
   44POPC   NC3 3647  44.428  10.600   9.832
   44POPC   PO4 3648  43.710  10.683   9.658
   44POPC   GL1 3649  43.818  10.706   9.205
   44POPC   GL2 3650  44.100  10.504   9.164
   44POPC   C1A 3651  43.723  10.520   8.793
   44POPC   D2A 3652  43.858  10.469   8.382
   44POPC   C3A 3653  43.704  10.172   8.092
   44POPC   C4A 3654  43.848  10.319   7.692
   44POPC   C1B 3655  44.191  10.316   8.771
   44POPC   C2B 3656  44.318  10.147   8.415
   44POPC   C3B 3657  44.232  10.301   8.033
   44POPC   C4B 3658  44.312  10.101   7.662
   45POPC   NC3 3659   7.961   0.813   9.296
   45POPC   PO4 3660   8.382   1.149   9.625
   45POPC   GL1 3661   8.301   1.210   9.152
   45POPC   GL2 3662   7.948   1.233   8.998
   45POPC   C1A 3663   8.347   1.409   8.739
   45POPC   D2A 3664   8.075   1.382   8.392
   45POPC   C3A 3665   8.308   1.492   8.059
   45POPC   C4A 3666   8.164   1.608   7.682
   45POPC   C1B 3667   7.974   0.944   8.644
   45POPC   C2B 3668   8.199   0.893   8.253
   45POPC   C3B 3669   8.134   1.043   7.872
   45POPC   C4B 3670   7.856   1.189   7.630
   46POPC   NC3 3671  10.286  12.267   9.484
   46POPC   PO4 3672  10.805  11.943   9.721
   46POPC   GL1 3673  10.809  12.093   9.260
   46POPC   GL2 3674  10.764  12.450   9.253
   46POPC   C1A 3675  10.598  11.999   8.833
   46POPC   D2A 3676  10.402  11.807   8.441
   46POPC   C3A 3677  10.617  11.912   8.047
   46POPC   C4A 3678  10.410  12.159   7.730
   46POPC   C1B 3679  10.916  12.438   8.831
   46POPC   C2B 3680  10.838  12.211   8.423
   46POPC   C3B 3681  10.762  12.403   8.012
   46POPC   C4B 3682  10.893  12.306   7.624
   47POPC   NC3 3683   2.032  13.462   9.497
   47POPC   PO4 3684   2.135  13.962   9.210
   47POPC   GL1 3685   2.016  13.751   8.867
   47POPC   GL2 3686   1.934  13.416   9.004
   47POPC   C1A 3687   2.264  13.526   8.576
   47POPC   D2A 3688   2.362  13.243   8.276
   47POPC   C3A 3689   2.082  13.347   7.977
   47POPC   C4A 3690   1.938  13.766   7.918
   47POPC   C1B 3691   1.603  13.467   8.736
   47POPC   C2B 3692   1.741  13.552   8.349
   47POPC   C3B 3693   1.563  13.428   7.987
   47POPC   C4B 3694   1.736  13.454   7.560
   48POPC   NC3 3695  24.938  22.709   9.206
   48POPC   PO4 3696  25.464  22.957   9.546
   48POPC   GL1 3697  25.398  22.959   9.133
   48POPC   GL2 3698  25.653  22.709   9.077
   48POPC   C1A 3699  25.208  23.197   8.783
   48POPC   D2A 3700  25.358  23.274   8.383
   48POPC   C3A 3701  25.122  23.048   8.107
   48POPC   C4A 3702  24.986  23.139   7.718
   48POPC   C1B 3703  25.642  22.922   8.682
   48POPC   C2B 3704  25.586  22.830   8.231
   48POPC   C3B 3705  25.444  22.785   7.795
   48POPC   C4B 3706  25.131  22.719   7.467
   49POPC   NC3 3707  25.084  17.864   9.465
   49POPC   PO4 3708  25.321  18.358   9.589
   49POPC   GL1 3709  25.381  18.135   9.153
   49POPC   GL2 3710  25.026  18.050   8.989
   49POPC   C1A 3711  25.438  17.930   8.738
   49POPC   D2A 3712  25.511  17.993   8.335
   49POPC   C3A 3713  25.424  18.362   8.097
   49POPC   C4A 3714  25.520  18.419   7.659
   49POPC   C1B 3715  25.013  18.127   8.517
   49POPC   C2B 3716  24.964  18.516   8.277
   49POPC   C3B 3717  24.922  18.792   7.958
   49POPC   C4B 3718  24.998  18.547   7.627
   50POPC   NC3 3719  25.515  14.120   9.521
   50POPC   PO4 3720  25.003  14.510   9.464
   50POPC   GL1 3721  25.354  14.475   9.153
   50POPC   GL2 3722  25.719  14.542   9.219
   50POPC   C1A 3723  25.482  14.652   8.759
   50POPC   D2A 3724  25.315  14.478   8.392
   50POPC   C3A 3725  25.109  14.749   8.122
   50POPC   C4A 3726  25.276  14.549   7.781
   50POPC   C1B 3727  25.732  14.208   8.865
   50POPC   C2B 3728  25.610  14.040   8.443
   50POPC   C3B 3729  25.490  14.134   8.022
   50POPC   C4B 3730  25.646  13.886   7.698
   51POPC   NC3 3731   1.655  31.442   9.483
   51POPC   PO4 3732   2.131  31.072   9.349
   51POPC   GL1 3733   1.942  31.354   9.072
   51POPC   GL2 3734   2.178  31.634   9.009
   51POPC   C1A 3735   2.011  31.312   8.655
   51POPC   D2A 3736   2.356  31.433   8.420
   51POPC   C3A 3737   2.171  31.298   8.064
   51POPC   C4A 3738   2.228  31.181   7.668
   51POPC   C1B 3739   1.890  31.817   8.713
   51POPC   C2B 3740   1.646  31.810   8.351
   51POPC   C3B 3741   1.655  31.515   8.031
   51POPC   C4B 3742   1.954  31.620   7.722
   52POPC   NC3 3743  27.984  41.773   9.591
   52POPC   PO4 3744  28.500  41.386   9.476
   52POPC   GL1 3745  28.253  41.573   9.215
   52POPC   GL2 3746  28.283  41.939   9.184
   52POPC   C1A 3747  28.212  41.581   8.807
   52POPC   D2A 3748  28.359  41.345   8.482
   52POPC   C3A 3749  28.286  41.625   8.166
   52POPC   C4A 3750  28.158  41.775   7.805
   52POPC   C1B 3751  28.613  42.076   8.847
   52POPC   C2B 3752  28.749  42.025   8.381
   52POPC   C3B 3753  28.666  41.870   7.936
   52POPC   C4B 3754  28.607  41.400   7.847
   53POPC   NC3 3755  36.331  44.824   9.418
   53POPC   PO4 3756  36.938  44.640   9.605
   53POPC   GL1 3757  36.797  44.512   9.181
   53POPC   GL2 3758  36.758  44.851   9.127
   53POPC   C1A 3759  36.910  44.524   8.709
   53POPC   D2A 3760  37.218  44.665   8.367
   53POPC   C3A 3761  37.049  44.598   7.961
   53POPC   C4A 3762  36.671  44.466   7.791
   53POPC   C1B 3763  36.544  44.990   8.787
   53POPC   C2B 3764  36.650  44.848   8.371
   53POPC   C3B 3765  36.692   0.005   7.961
   53POPC   C4B 3766  36.554   0.052   7.572
   54POPC   NC3 3767  23.129  27.441   9.479
   54POPC   PO4 3768  22.634  27.857   9.447
   54POPC   GL1 3769  22.817  27.863   9.057
   54POPC   GL2 3770  22.884  27.495   9.041
   54POPC   C1A 3771  23.212  27.812   8.820
   54POPC   D2A 3772  23.220  27.528   8.477
   54POPC   C3A 3773  23.181  27.722   8.098
   54POPC   C4A 3774  23.036  27.812   7.702
   54POPC   C1B 3775  22.966  27.175   8.750
   54POPC   C2B 3776  22.815  27.067   8.382
   54POPC   C3B 3777  22.904  27.274   8.018
   54POPC   C4B 3778  22.805  27.390   7.589
   55POPC   NC3 3779  10.993  28.022   9.511
   55POPC   PO4 3780  10.488  28.473   9.607
   55POPC   GL1 3781  10.721  28.405   9.247
   55POPC   GL2 3782  10.495  28.199   9.132
   55POPC   C1A 3783  10.839  28.404   8.813
   55POPC   D2A 3784  10.543  28.211   8.528
   55POPC   C3A 3785  10.671  28.261   8.128
   55POPC   C4A 3786  10.863  28.361   7.741
   55POPC   C1B 3787  10.138  28.106   8.856
   55POPC   C2B 3788   9.983  28.012   8.432
   55POPC   C3B 3789  10.227  27.932   8.052
   55POPC   C4B 3790  10.385  28.181   7.717
   56POPC   NC3 3791  27.763  44.580   9.400
   56POPC   PO4 3792  27.140  44.660   9.487
   56POPC   GL1 3793  27.401  44.693   9.073
   56POPC   GL2 3794  27.692  44.462   8.929
   56POPC   C1A 3795  27.511  44.847   8.668
   56POPC   D2A 3796  27.603  44.635   8.270
   56POPC   C3A 3797  27.384  44.822   7.969
   56POPC   C4A 3798  27.509   0.195   7.813
   56POPC   C1B 3799  27.969  44.472   8.588
   56POPC   C2B 3800  28.193  44.387   8.215
   56POPC   C3B 3801  27.971  44.512   7.859
   56POPC   C4B 3802  27.571  44.389   7.785
   57POPC   NC3 3803  18.348   5.513   9.431
   57POPC   PO4 3804  18.429   4.847   9.501
   57POPC   GL1 3805  18.189   4.932   9.171
   57POPC   GL2 3806  18.463   4.847   8.967
   57POPC   C1A 3807  18.150   5.221   8.802
   57POPC   D2A 3808  18.354   5.262   8.390
   57POPC   C3A 3809  18.153   5.344   7.984
   57POPC   C4A 3810  18.030   4.981   7.765
   57POPC   C1B 3811  18.776   4.985   8.692
   57POPC   C2B 3812  18.771   4.947   8.254
   57POPC   C3B 3813  18.513   4.908   7.916
   57POPC   C4B 3814  18.318   4.547   7.672
   58POPC   NC3 3815  16.937  16.920   9.482
   58POPC   PO4 3816  16.521  16.444   9.502
   58POPC   GL1 3817  16.683  16.623   9.157
   58POPC   GL2 3818  16.874  16.349   9.019
   58POPC   C1A 3819  16.474  16.939   8.866
   58POPC   D2A 3820  16.448  17.151   8.438
   58POPC   C3A 3821  16.417  16.849   8.085
   58POPC   C4A 3822  16.687  16.831   7.735
   58POPC   C1B 3823  16.873  16.657   8.698
   58POPC   C2B 3824  16.797  16.646   8.332
   58POPC   C3B 3825  16.730  16.414   8.014
   58POPC   C4B 3826  16.944  16.319   7.660
   59POPC   NC3 3827  13.809  26.872   9.516
   59POPC   PO4 3828  13.215  26.482   9.531
   59POPC   GL1 3829  13.479  26.624   9.192
   59POPC   GL2 3830  13.429  26.997   9.147
   59POPC   C1A 3831  13.478  26.676   8.747
   59POPC   D2A 3832  13.399  26.868   8.347
   59POPC   C3A 3833  13.660  26.724   8.044
   59POPC   C4A 3834  13.785  26.631   7.666
   59POPC   C1B 3835  13.500  27.197   8.712
   59POPC   C2B 3836  13.813  27.201   8.339
   59POPC   C3B 3837  13.841  27.177   7.872
   59POPC   C4B 3838  13.756  27.114   7.416
   60POPC   NC3 3839  27.392  24.131   9.310
   60POPC   PO4 3840  27.524  23.459   9.428
   60POPC   GL1 3841  27.567  23.681   9.056
   60POPC   GL2 3842  27.227  23.782   8.983
   60POPC   C1A 3843  27.622  23.862   8.651
   60POPC   D2A 3844  27.782  24.052   8.286
   60POPC   C3A 3845  27.726  23.769   7.937
   60POPC   C4A 3846  27.391  23.832   7.674
   60POPC   C1B 3847  27.156  23.586   8.587
   60POPC   C2B 3848  27.257  23.655   8.148
   60POPC   C3B 3849  27.129  23.407   7.751
   60POPC   C4B 3850  27.210  23.503   7.283
   61POPC   NC3 3851  32.060  26.290   9.549
   61POPC   PO4 3852  32.665  25.935   9.493
   61POPC   GL1 3853  32.419  26.142   9.170
   61POPC   GL2 3854  32.631  26.343   8.955
   61POPC   C1A 3855  32.117  26.313   8.875
   61POPC   D2A 3856  32.000  26.181   8.476
   61POPC   C3A 3857  32.319  26.109   8.184
   61POPC   C4A 3858  32.174  26.172   7.831
   61POPC   C1B 3859  32.625  25.929   8.749
   61POPC   C2B 3860  32.456  25.694   8.427
   61POPC   C3B 3861  32.645  25.704   8.028
   61POPC   C4B 3862  32.604  25.985   7.668
   62POPC   NC3 3863   2.461  38.032   9.420
   62POPC   PO4 3864   2.868  38.550   9.698
   62POPC   GL1 3865   2.929  38.318   9.265
   62POPC   GL2 3866   2.858  38.556   8.979
   62POPC   C1A 3867   3.038  38.111   8.840
   62POPC   D2A 3868   3.009  38.381   8.489
   62POPC   C3A 3869   2.852  38.213   8.115
   62POPC   C4A 3870   2.993  38.430   7.759
   62POPC   C1B 3871   2.556  38.260   8.716
   62POPC   C2B 3872   2.375  38.247   8.321
   62POPC   C3B 3873   2.465  38.597   8.045
   62POPC   C4B 3874   2.643  38.778   7.691
   63POPC   NC3 3875  27.117  27.125   9.779
   63POPC   PO4 3876  26.595  27.616   9.701
   63POPC   GL1 3877  26.779  27.622   9.294
   63POPC   GL2 3878  27.074  27.401   9.214
   63POPC   C1A 3879  26.772  27.614   8.863
   63POPC   D2A 3880  26.578  27.491   8.497
   63POPC   C3A 3881  26.889  27.546   8.189
   63POPC   C4A 3882  26.949  27.629   7.781
   63POPC   C1B 3883  27.215  27.275   8.778
   63POPC   C2B 3884  27.338  27.361   8.368
   63POPC   C3B 3885  27.287  27.243   7.938
   63POPC   C4B 3886  27.191  27.356   7.436
   64POPC   NC3 3887  32.315  23.346   9.817
   64POPC   PO4 3888  32.123  23.935   9.509
   64POPC   GL1 3889  32.306  23.815   9.112
   64POPC   GL2 3890  32.595  23.963   9.091
   64POPC   C1A 3891  32.106  23.673   8.728
   64POPC   D2A 3892  32.189  23.872   8.337
   64POPC   C3A 3893  32.039  23.732   7.933
   64POPC   C4A 3894  32.195  23.750   7.471
   64POPC   C1B 3895  32.608  23.748   8.693
   64POPC   C2B 3896  32.662  23.645   8.285
   64POPC   C3B 3897  32.544  23.837   7.933
   64POPC   C4B 3898  32.421  24.159   7.674
   65POPC   NC3 3899  19.567   4.653   9.426
   65POPC   PO4 3900  19.900   5.227   9.414
   65POPC   GL1 3901  19.883   4.907   9.110
   65POPC   GL2 3902  20.222   4.865   9.016
   65POPC   C1A 3903  19.624   4.979   8.754
   65POPC   D2A 3904  19.694   5.320   8.462
   65POPC   C3A 3905  19.583   5.153   8.070
   65POPC   C4A 3906  19.551   5.111   7.634
   65POPC   C1B 3907  20.128   5.052   8.640
   65POPC   C2B 3908  20.024   4.929   8.254
   65POPC   C3B 3909  20.007   5.071   7.843
   65POPC   C4B 3910  20.075   4.907   7.446
   66POPC   NC3 3911  21.320  25.217   9.641
   66POPC   PO4 3912  21.744  25.588   9.265
   66POPC   GL1 3913  21.500  25.379   8.979
   66POPC   GL2 3914  21.421  25.073   9.051
   66POPC   C1A 3915  21.618  25.180   8.608
   66POPC   D2A 3916  21.443  25.008   8.277
   66POPC   C3A 3917  21.613  25.111   7.887
   66POPC   C4A 3918  21.460  25.484   7.661
   66POPC   C1B 3919  21.136  24.944   8.712
   66POPC   C2B 3920  20.976  25.192   8.388
   66POPC   C3B 3921  21.098  25.213   7.968
   66POPC   C4B 3922  21.190  25.064   7.578
   67POPC   NC3 3923  44.731  21.091   9.793
   67POPC   PO4 3924  44.731  20.469   9.511
   67POPC   GL1 3925  44.796  20.649   9.123
   67POPC   GL2 3926  44.440  20.587   9.053
   67POPC   C1A 3927  44.972  20.944   8.800
   67POPC   D2A 3928   0.003  20.863   8.377
   67POPC   C3A 3929  44.705  20.995   8.104
   67POPC   C4A 3930  44.617  20.836   7.741
   67POPC   C1B 3931  44.582  20.439   8.706
   67POPC   C2B 3932  44.568  20.566   8.344
   67POPC   C3B 3933  44.736  20.432   8.016
   67POPC   C4B 3934  44.467  20.284   7.732
   68POPC   NC3 3935   1.599  11.638   9.442
   68POPC   PO4 3936   2.217  11.949   9.587
   68POPC   GL1 3937   2.094  11.956   9.152
   68POPC   GL2 3938   1.737  12.012   9.101
   68POPC   C1A 3939   2.105  12.195   8.769
   68POPC   D2A 3940   2.290  12.153   8.384
   68POPC   C3A 3941   2.100  12.340   8.057
   68POPC   C4A 3942   2.284  12.234   7.714
   68POPC   C1B 3943   1.576  12.341   8.823
   68POPC   C2B 3944   1.698  12.387   8.393
   68POPC   C3B 3945   1.589  12.273   7.964
   68POPC   C4B 3946   1.834  11.915   7.771
   69POPC   NC3 3947  31.041  34.399   9.479
   69POPC   PO4 3948  31.689  34.765   9.527
   69POPC   GL1 3949  31.402  34.691   9.215
   69POPC   GL2 3950  31.438  34.315   9.160
   69POPC   C1A 3951  31.577  34.663   8.805
   69POPC   D2A 3952  31.812  34.649   8.437
   69POPC   C3A 3953  31.576  34.722   8.072
   69POPC   C4A 3954  31.490  34.732   7.647
   69POPC   C1B 3955  31.707  34.164   8.792
   69POPC   C2B 3956  31.612  34.201   8.333
   69POPC   C3B 3957  31.604  34.244   7.867
   69POPC   C4B 3958  31.763  34.117   7.454
   70POPC   NC3 3959  25.117  31.237   9.394
   70POPC   PO4 3960  25.704  31.503   9.613
   70POPC   GL1 3961  25.558  31.416   9.139
   70POPC   GL2 3962  25.367  31.170   8.961
   70POPC   C1A 3963  25.440  31.577   8.664
   70POPC   D2A 3964  25.120  31.637   8.316
   70POPC   C3A 3965  25.213  31.630   7.893
   70POPC   C4A 3966  25.084  31.401   7.543
   70POPC   C1B 3967  24.995  31.405   8.768
   70POPC   C2B 3968  24.761  31.272   8.444
   70POPC   C3B 3969  24.898  31.138   8.020
   70POPC   C4B 3970  24.848  30.971   7.581
   71POPC   NC3 3971   4.797  38.425   9.506
   71POPC   PO4 3972   5.423  38.659   9.560
   71POPC   GL1 3973   5.161  38.676   9.186
   71POPC   GL2 3974   5.101  38.314   9.117
   71POPC   C1A 3975   4.840  38.695   8.846
   71POPC   D2A 3976   4.694  38.628   8.406
   71POPC   C3A 3977   4.997  38.610   8.037
   71POPC   C4A 3978   5.071  38.629   7.580
   71POPC   C1B 3979   5.216  38.342   8.709
   71POPC   C2B 3980   5.601  38.330   8.480
   71POPC   C3B 3981   5.643  38.305   8.062
   71POPC   C4B 3982   5.304  38.200   7.762
   72POPC   NC3 3983  17.663  27.238   9.542
   72POPC   PO4 3984  17.384  27.798   9.579
   72POPC   GL1 3985  17.678  27.663   9.252
   72POPC   GL2 3986  17.919  27.897   9.137
   72POPC   C1A 3987  17.755  27.420   8.872
   72POPC   D2A 3988  17.536  27.313   8.481
   72POPC   C3A 3989  17.706  27.378   8.091
   72POPC   C4A 3990  17.525  27.398   7.694
   72POPC   C1B 3991  17.539  27.933   8.842
   72POPC   C2B 3992  17.353  27.816   8.443
   72POPC   C3B 3993  17.570  27.866   8.054
   72POPC   C4B 3994  17.658  27.887   7.606
   73POPC   NC3 3995  37.372   9.284   9.439
   73POPC   PO4 3996  37.310   8.617   9.539
   73POPC   GL1 3997  37.621   8.836   9.223
   73POPC   GL2 3998  37.732   9.196   9.117
   73POPC   C1A 3999  37.720   8.834   8.781
   73POPC   D2A 4000  37.481   9.022   8.442
   73POPC   C3A 4001  37.679   9.188   8.125
   73POPC   C4A 4002  37.932   9.121   7.811
   73POPC   C1B 4003  37.493   9.426   8.779
   73POPC   C2B 4004  37.238   9.461   8.370
   73POPC   C3B 4005  37.384   9.573   7.990
   73POPC   C4B 4006  37.489   9.307   7.614
   74POPC   NC3 4007   7.241  44.255   9.494
   74POPC   PO4 4008   7.737  43.705   9.478
   74POPC   GL1 4009   7.475  43.884   9.171
   74POPC   GL2 4010   7.109  43.833   9.195
   74POPC   C1A 4011   7.357  43.780   8.767
   74POPC   D2A 4012   7.525  43.772   8.379
   74POPC   C3A 4013   7.533  44.117   8.138
   74POPC   C4A 4014   7.418  43.895   7.785
   74POPC   C1B 4015   7.065  44.195   8.835
   74POPC   C2B 4016   7.059  44.277   8.336
   74POPC   C3B 4017   7.114  44.279   7.834
   74POPC   C4B 4018   7.200  44.077   7.370
   75POPC   NC3 4019  18.924   0.025   9.949
   75POPC   PO4 4020  18.791  44.455   9.609
   75POPC   GL1 4021  19.003  44.695   9.251
   75POPC   GL2 4022  18.713  44.753   9.006
   75POPC   C1A 4023  19.188  44.842   8.869
   75POPC   D2A 4024  18.935  44.764   8.519
   75POPC   C3A 4025  19.156  44.665   8.142
   75POPC   C4A 4026  19.073  44.555   7.745
   75POPC   C1B 4027  18.628  44.309   8.800
   75POPC   C2B 4028  18.776  44.073   8.421
   75POPC   C3B 4029  18.729  44.273   8.031
   75POPC   C4B 4030  18.663  44.302   7.601
   76POPC   NC3 4031   8.373  29.536   9.905
   76POPC   PO4 4032   7.918  29.852   9.483
   76POPC   GL1 4033   8.017  29.916   9.089
   76POPC   GL2 4034   8.309  30.125   9.000
   76POPC   C1A 4035   7.885  30.048   8.683
   76POPC   D2A 4036   7.879  29.934   8.275
   76POPC   C3A 4037   8.118  30.075   7.961
   76POPC   C4A 4038   8.094  29.835   7.597
   76POPC   C1B 4039   8.345  29.824   8.713
   76POPC   C2B 4040   8.415  29.898   8.331
   76POPC   C3B 4041   8.436  29.664   7.981
   76POPC   C4B 4042   8.560  29.650   7.538
   77POPC   NC3 4043  18.625   8.324   9.352
   77POPC   PO4 4044  18.055   8.467   9.631
   77POPC   GL1 4045  18.048   8.308   9.106
   77POPC   GL2 4046  18.307   8.101   9.019
   77POPC   C1A 4047  18.195   8.405   8.634
   77POPC   D2A 4048  17.997   8.192   8.323
   77POPC   C3A 4049  18.163   8.059   7.970
   77POPC   C4A 4050  18.370   8.378   7.737
   77POPC   C1B 4051  18.134   7.898   8.702
   77POPC   C2B 4052  18.450   7.836   8.366
   77POPC   C3B 4053  18.656   7.984   7.996
   77POPC   C4B 4054  18.449   7.878   7.576
   78POPC   NC3 4055  43.481  17.646   9.557
   78POPC   PO4 4056  42.825  17.663   9.550
   78POPC   GL1 4057  43.084  17.677   9.225
   78POPC   GL2 4058  43.159  17.325   9.267
   78POPC   C1A 4059  43.049  17.826   8.825
   78POPC   D2A 4060  42.762  17.790   8.505
   78POPC   C3A 4061  43.039  17.751   8.165
   78POPC   C4A 4062  43.061  17.583   7.764
   78POPC   C1B 4063  43.419  17.426   8.908
   78POPC   C2B 4064  43.404  17.513   8.476
   78POPC   C3B 4065  43.431  17.393   8.055
   78POPC   C4B 4066  43.515  17.416   7.599
   79POPC   NC3 4067  15.511  32.438   9.467
   79POPC   PO4 4068  14.920  32.038   9.440
   79POPC   GL1 4069  15.172  32.245   9.153
   79POPC   GL2 4070  14.960  32.370   8.964
   79POPC   C1A 4071  15.452  32.362   8.798
   79POPC   D2A 4072  15.540  32.592   8.424
   79POPC   C3A 4073  15.558  32.367   8.019
   79POPC   C4A 4074  15.372  32.004   7.833
   79POPC   C1B 4075  15.129  31.970   8.732
   79POPC   C2B 4076  15.101  31.931   8.279
   79POPC   C3B 4077  15.032  32.324   8.038
   79POPC   C4B 4078  15.176  32.515   7.657
   80POPC   NC3 4079  21.306   3.877   9.554
   80POPC   PO4 4080  21.145   3.200   9.624
   80POPC   GL1 4081  21.171   3.352   9.188
   80POPC   GL2 4082  21.442   3.612   9.107
   80POPC   C1A 4083  21.068   3.422   8.756
   80POPC   D2A 4084  21.316   3.618   8.454
   80POPC   C3A 4085  21.223   3.397   8.092
   80POPC   C4A 4086  21.095   3.580   7.711
   80POPC   C1B 4087  21.683   3.859   8.776
   80POPC   C2B 4088  21.674   4.009   8.347
   80POPC   C3B 4089  21.638   3.702   8.034
   80POPC   C4B 4090  21.595   3.535   7.628
   81POPC   NC3 4091  27.213   3.512   9.306
   81POPC   PO4 4092  26.750   3.749   9.720
   81POPC   GL1 4093  26.710   3.436   9.239
   81POPC   GL2 4094  26.955   3.326   8.943
   81POPC   C1A 4095  26.497   3.485   8.786
   81POPC   D2A 4096  26.349   3.447   8.337
   81POPC   C3A 4097  26.655   3.645   8.093
   81POPC   C4A 4098  26.804   3.789   7.714
   81POPC   C1B 4099  27.144   3.627   8.632
   81POPC   C2B 4100  27.163   3.599   8.180
   81POPC   C3B 4101  27.065   3.359   7.838
   81POPC   C4B 4102  26.917   3.364   7.441
   82POPC   NC3 4103  33.893  30.361   9.395
   82POPC   PO4 4104  34.035  30.972   9.543
   82POPC   GL1 4105  34.066  30.750   9.112
   82POPC   GL2 4106  33.704  30.716   8.992
   82POPC   C1A 4107  34.048  30.842   8.654
   82POPC   D2A 4108  34.020  30.827   8.210
   82POPC   C3A 4109  33.652  30.873   7.991
   82POPC   C4A 4110  33.797  30.699   7.654
   82POPC   C1B 4111  33.773  30.415   8.608
   82POPC   C2B 4112  33.751  30.376   8.142
   82POPC   C3B 4113  33.662  30.236   7.720
   82POPC   C4B 4114  33.483  30.455   7.342
   83POPC   NC3 4115  41.256  42.206   9.534
   83POPC   PO4 4116  41.857  42.516   9.526
   83POPC   GL1 4117  41.628  42.385   9.164
   83POPC   GL2 4118  41.249  42.360   9.051
   83POPC   C1A 4119  41.660  42.181   8.785
   83POPC   D2A 4120  41.343  42.330   8.535
   83POPC   C3A 4121  41.423  42.295   8.117
   83POPC   C4A 4122  41.443  42.515   7.735
   83POPC   C1B 4123  41.230  41.917   8.815
   83POPC   C2B 4124  41.319  41.845   8.387
   83POPC   C3B 4125  41.072  41.944   8.016
   83POPC   C4B 4126  41.265  42.051   7.674
   84POPC   NC3 4127  30.311  16.784   9.619
   84POPC   PO4 4128  29.835  16.456   9.338
   84POPC   GL1 4129  30.033  16.739   9.164
   84POPC   GL2 4130  29.746  16.909   9.035
   84POPC   C1A 4131  30.143  16.575   8.768
   84POPC   D2A 4132  30.028  16.718   8.407
   84POPC   C3A 4133  29.921  16.555   8.047
   84POPC   C4A 4134  29.783  16.697   7.660
   84POPC   C1B 4135  30.110  17.075   8.781
   84POPC   C2B 4136  30.394  17.060   8.454
   84POPC   C3B 4137  30.180  17.088   8.085
   84POPC   C4B 4138  30.251  16.952   7.720
   85POPC   NC3 4139  34.376  10.721   9.310
   85POPC   PO4 4140  35.049  10.604   9.365
   85POPC   GL1 4141  34.713  10.433   9.060
   85POPC   GL2 4142  34.399  10.191   8.996
   85POPC   C1A 4143  34.486  10.519   8.637
   85POPC   D2A 4144  34.351  10.757   8.274
   85POPC   C3A 4145  34.593  10.679   7.933
   85POPC   C4A 4146  34.677  10.611   7.515
   85POPC   C1B 4147  34.775  10.081   8.727
   85POPC   C2B 4148  34.885  10.318   8.371
   85POPC   C3B 4149  34.488  10.257   8.173
   85POPC   C4B 4150  34.370  10.257   7.758
   86POPC   NC3 4151   8.486  15.007   9.419
   86POPC   PO4 4152   7.920  15.175   9.518
   86POPC   GL1 4153   8.091  15.214   9.139
   86POPC   GL2 4154   8.110  14.883   9.042
   86POPC   C1A 4155   8.055  15.406   8.767
   86POPC   D2A 4156   8.033  15.661   8.423
   86POPC   C3A 4157   8.334  15.503   8.140
   86POPC   C4A 4158   8.171  15.319   7.757
   86POPC   C1B 4159   8.058  14.938   8.580
   86POPC   C2B 4160   8.257  14.966   8.146
   86POPC   C3B 4161   8.262  14.764   7.768
   86POPC   C4B 4162   8.110  14.972   7.392
   87POPC   NC3 4163  43.307  24.816   9.540
   87POPC   PO4 4164  42.998  24.211   9.570
   87POPC   GL1 4165  42.955  24.442   9.225
   87POPC   GL2 4166  43.281  24.452   9.188
   87POPC   C1A 4167  42.888  24.473   8.787
   87POPC   D2A 4168  43.105  24.754   8.526
   87POPC   C3A 4169  43.205  24.694   8.071
   87POPC   C4A 4170  42.950  24.392   7.862
   87POPC   C1B 4171  43.416  24.422   8.789
   87POPC   C2B 4172  43.292  24.288   8.374
   87POPC   C3B 4173  43.433  24.205   7.947
   87POPC   C4B 4174  43.472  24.252   7.457
   88POPC   NC3 4175   2.052   1.511   9.386
   88POPC   PO4 4176   2.028   0.787   9.382
   88POPC   GL1 4177   1.858   1.093   9.118
   88POPC   GL2 4178   2.129   1.232   8.944
   88POPC   C1A 4179   1.658   1.150   8.740
   88POPC   D2A 4180   1.832   1.269   8.322
   88POPC   C3A 4181   2.100   1.190   7.968
   88POPC   C4A 4182   1.825   1.228   7.605
   88POPC   C1B 4183   1.935   1.584   8.707
   88POPC   C2B 4184   2.052   1.860   8.387
   88POPC   C3B 4185   1.967   1.679   8.010
   88POPC   C4B 4186   2.211   1.576   7.644
   89POPC   NC3 4187  10.543  24.998   9.647
   89POPC   PO4 4188  11.088  25.299   9.841
   89POPC   GL1 4189  10.929  25.206   9.281
   89POPC   GL2 4190  10.580  25.067   9.154
   89POPC   C1A 4191  10.814  25.297   8.793
   89POPC   D2A 4192  10.605  25.406   8.387
   89POPC   C3A 4193  10.853  25.256   8.017
   89POPC   C4A 4194  10.763  25.152   7.581
   89POPC   C1B 4195  10.303  25.162   8.786
   89POPC   C2B 4196  10.108  25.116   8.373
   89POPC   C3B 4197  10.302  25.204   7.986
   89POPC   C4B 4198  10.251  24.992   7.592
   90POPC   NC3 4199  43.582  43.974   9.527
   90POPC   PO4 4200  44.292  44.114   9.483
   90POPC   GL1 4201  43.989  43.898   9.186
   90POPC   GL2 4202  43.664  43.738   9.088
   90POPC   C1A 4203  44.031  43.961   8.770
   90POPC   D2A 4204  44.100  43.780   8.374
   90POPC   C3A 4205  43.986  44.056   8.074
   90POPC   C4A 4206  43.907  43.789   7.769
   90POPC   C1B 4207  43.519  44.064   8.854
   90POPC   C2B 4208  43.624  43.993   8.446
   90POPC   C3B 4209  43.489  43.857   8.051
   90POPC   C4B 4210  43.563  44.220   7.837
   91POPC   NC3 4211  11.949  27.304   9.390
   91POPC   PO4 4212  12.042  27.899   9.558
   91POPC   GL1 4213  12.166  27.846   9.117
   91POPC   GL2 4214  12.280  27.508   9.052
   91POPC   C1A 4215  12.047  27.719   8.673
   91POPC   D2A 4216  11.873  27.369   8.423
   91POPC   C3A 4217  11.777  27.519   8.032
   91POPC   C4A 4218  12.097  27.805   7.850
   91POPC   C1B 4219  12.504  27.256   8.749
   91POPC   C2B 4220  12.421  27.279   8.340
   91POPC   C3B 4221  12.241  27.329   7.977
   91POPC   C4B 4222  12.426  27.369   7.608
   92POPC   NC3 4223  38.341  25.057   9.515
   92POPC   PO4 4224  38.870  25.535   9.556
   92POPC   GL1 4225  38.623  25.599   9.179
   92POPC   GL2 4226  38.555  25.252   9.091
   92POPC   C1A 4227  38.720  25.626   8.748
   92POPC   D2A 4228  38.612  25.392   8.386
   92POPC   C3A 4229  38.710  25.577   8.018
   92POPC   C4A 4230  38.727  25.486   7.614
   92POPC   C1B 4231  38.249  25.418   8.796
   92POPC   C2B 4232  38.126  25.247   8.432
   92POPC   C3B 4233  38.224  25.390   8.035
   92POPC   C4B 4234  38.190  25.327   7.603
   93POPC   NC3 4235  29.393   5.483   9.436
   93POPC   PO4 4236  28.876   5.938   9.612
   93POPC   GL1 4237  29.056   6.057   9.224
   93POPC   GL2 4238  29.098   5.717   9.085
   93POPC   C1A 4239  29.220   6.125   8.789
   93POPC   D2A 4240  29.356   5.888   8.411
   93POPC   C3A 4241  29.298   6.066   8.033
   93POPC   C4A 4242  28.991   6.011   7.778
   93POPC   C1B 4243  29.353   5.477   8.752
   93POPC   C2B 4244  29.660   5.467   8.397
   93POPC   C3B 4245  29.420   5.529   8.024
   93POPC   C4B 4246  29.470   5.769   7.652
   94POPC   NC3 4247  32.115   0.687   9.516
   94POPC   PO4 4248  32.306   0.011   9.508
   94POPC   GL1 4249  32.342   0.163   9.142
   94POPC   GL2 4250  32.448   0.485   9.171
   94POPC   C1A 4251  32.078   0.350   8.831
   94POPC   D2A 4252  32.072   0.584   8.470
   94POPC   C3A 4253  31.981   0.413   8.091
   94POPC   C4A 4254  32.122   0.359   7.686
   94POPC   C1B 4255  32.578   0.490   8.798
   94POPC   C2B 4256  32.574   0.643   8.415
   94POPC   C3B 4257  32.723   0.765   8.029
   94POPC   C4B 4258  32.571   0.651   7.665
   95POPC   NC3 4259   5.696  43.255   9.452
   95POPC   PO4 4260   6.268  43.476   9.618
   95POPC   GL1 4261   6.159  43.247   9.208
   95POPC   GL2 4262   6.238  42.948   9.093
   95POPC   C1A 4263   5.858  43.105   8.831
   95POPC   D2A 4264   5.672  43.337   8.496
   95POPC   C3A 4265   5.860  43.202   8.129
   95POPC   C4A 4266   5.752  43.060   7.736
   95POPC   C1B 4267   6.278  42.818   8.745
   95POPC   C2B 4268   6.277  43.037   8.399
   95POPC   C3B 4269   6.329  43.008   7.986
   95POPC   C4B 4270   6.204  42.861   7.585
   96POPC   NC3 4271   3.757  24.353   9.589
   96POPC   PO4 4272   3.324  24.858   9.572
   96POPC   GL1 4273   3.642  24.700   9.227
   96POPC   GL2 4274   3.557  24.348   9.124
   96POPC   C1A 4275   3.864  24.626   8.832
   96POPC   D2A 4276   3.685  24.697   8.414
   96POPC   C3A 4277   3.696  24.514   8.021
   96POPC   C4A 4278   3.748  24.731   7.634
   96POPC   C1B 4279   3.503  24.270   8.693
   96POPC   C2B 4280   3.460  24.115   8.300
   96POPC   C3B 4281   3.285  24.214   7.922
   96POPC   C4B 4282   3.490  24.285   7.570
   97POPC   NC3 4283  18.488  10.248   9.511
   97POPC   PO4 4284  18.544   9.614   9.665
   97POPC   GL1 4285  18.244   9.753   9.320
   97POPC   GL2 4286  18.519   9.885   9.138
   97POPC   C1A 4287  18.085   9.806   8.876
   97POPC   D2A 4288  18.206   9.633   8.480
   97POPC   C3A 4289  18.060   9.789   8.072
   97POPC   C4A 4290  18.002   9.612   7.659
   97POPC   C1B 4291  18.660   9.715   8.761
   97POPC   C2B 4292  18.707   9.540   8.362
   97POPC   C3B 4293  18.425   9.430   8.052
   97POPC   C4B 4294  18.586   9.638   7.717
   98POPC   NC3 4295   1.893   5.656   9.356
   98POPC   PO4 4296   2.222   4.967   9.456
   98POPC   GL1 4297   1.988   4.912   9.106
   98POPC   GL2 4298   1.614   4.915   9.144
   98POPC   C1A 4299   2.157   4.915   8.718
   98POPC   D2A 4300   1.933   4.922   8.365
   98POPC   C3A 4301   2.107   5.227   8.135
   98POPC   C4A 4302   2.192   4.956   7.828
   98POPC   C1B 4303   1.631   5.118   8.739
   98POPC   C2B 4304   1.495   5.176   8.280
   98POPC   C3B 4305   1.680   5.075   7.869
   98POPC   C4B 4306   1.936   5.382   7.676
   99POPC   NC3 4307  37.096   9.838   9.672
   99POPC   PO4 4308  37.741   9.572   9.481
   99POPC   GL1 4309  37.768   9.711   9.115
   99POPC   GL2 4310  37.439   9.835   9.163
   99POPC   C1A 4311  37.968   9.763   8.750
   99POPC   D2A 4312  37.943  10.096   8.461
   99POPC   C3A 4313  37.812   9.986   8.046
   99POPC   C4A 4314  37.835   9.634   7.771
   99POPC   C1B 4315  37.514  10.020   8.783
   99POPC   C2B 4316  37.448   9.923   8.402
   99POPC   C3B 4317  37.294  10.073   8.040
   99POPC   C4B 4318  37.438   9.950   7.665
  100POPC   NC3 4319   3.160  35.602   9.280
  100POPC   PO4 4320   3.088  35.074   9.680
  100POPC   GL1 4321   2.759  35.220   9.328
  100POPC   GL2 4322   2.618  35.547   9.183
  100POPC   C1A 4323   2.666  35.138   8.866
  100POPC   D2A 4324   2.736  35.339   8.452
  100POPC   C3A 4325   2.755  35.121   8.084
  100POPC   C4A 4326   2.842  35.241   7.671
  100POPC   C1B 4327   2.404  35.609   8.767
  100POPC   C2B 4328   2.478  35.786   8.342
  100POPC   C3B 4329   2.610  35.679   7.919
  100POPC   C4B 4330   2.330  35.738   7.546
  101POPC   NC3 4331  43.419  44.959   9.484
  101POPC   PO4 4332  42.724  44.772   9.648
  101POPC   GL1 4333  42.935  44.681   9.244
  101POPC   GL2 4334  42.706  44.791   9.003
  101POPC   C1A 4335  43.207  44.661   8.849
  101POPC   D2A 4336  43.373  44.435   8.477
  101POPC   C3A 4337  43.247  44.559   8.061
  101POPC   C4A 4338  43.348  44.628   7.636
  101POPC   C1B 4339  42.849  44.963   8.611
  101POPC   C2B 4340  42.845  44.834   8.176
  101POPC   C3B 4341  42.993  44.972   7.790
  101POPC   C4B 4342  42.990  44.844   7.360
  102POPC   NC3 4343  36.210  25.088   9.676
  102POPC   PO4 4344  36.126  25.674   9.414
  102POPC   GL1 4345  36.053  25.407   9.049
  102POPC   GL2 4346  36.101  25.065   9.093
  102POPC   C1A 4347  36.146  25.293   8.617
  102POPC   D2A 4348  36.399  25.542   8.369
  102POPC   C3A 4349  36.332  25.381   7.985
  102POPC   C4A 4350  36.481  25.060   7.759
  102POPC   C1B 4351  35.851  24.879   8.748
  102POPC   C2B 4352  35.714  24.920   8.333
  102POPC   C3B 4353  35.930  24.891   7.967
  102POPC   C4B 4354  35.999  25.146   7.640
  103POPC   NC3 4355  11.880  32.367   9.581
  103POPC   PO4 4356  12.453  32.071   9.627
  103POPC   GL1 4357  12.153  32.088   9.239
  103POPC   GL2 4358  11.769  32.022   9.211
  103POPC   C1A 4359  12.064  32.320   8.837
  103POPC   D2A 4360  12.368  32.507   8.522
  103POPC   C3A 4361  12.213  32.446   8.106
  103POPC   C4A 4362  12.124  32.207   7.747
  103POPC   C1B 4363  11.597  31.910   8.790
  103POPC   C2B 4364  11.808  31.920   8.372
  103POPC   C3B 4365  11.703  31.944   7.916
  103POPC   C4B 4366  11.675  32.197   7.496
  104POPC   NC3 4367  13.234   4.880   9.359
  104POPC   PO4 4368  13.825   5.246   9.568
  104POPC   GL1 4369  13.708   5.110   9.123
  104POPC   GL2 4370  13.568   4.777   9.014
  104POPC   C1A 4371  13.589   5.106   8.648
  104POPC   D2A 4372  13.518   5.358   8.276
  104POPC   C3A 4373  13.813   5.175   8.005
  104POPC   C4A 4374  13.913   5.186   7.594
  104POPC   C1B 4375  13.166   4.844   8.735
  104POPC   C2B 4376  13.130   5.020   8.330
  104POPC   C3B 4377  13.351   4.968   7.967
  104POPC   C4B 4378  13.511   4.859   7.566
  105POPC   NC3 4379   2.585   7.950   9.571
  105POPC   PO4 4380   2.847   7.298   9.565
  105POPC   GL1 4381   2.698   7.437   9.153
  105POPC   GL2 4382   2.656   7.083   9.080
  105POPC   C1A 4383   2.806   7.674   8.737
  105POPC   D2A 4384   2.965   7.825   8.326
  105POPC   C3A 4385   2.626   7.725   8.072
  105POPC   C4A 4386   2.312   7.527   7.842
  105POPC   C1B 4387   2.591   7.163   8.683
  105POPC   C2B 4388   2.748   7.309   8.349
  105POPC   C3B 4389   2.746   7.107   7.980
  105POPC   C4B 4390   2.760   7.242   7.587
  106POPC   NC3 4391  37.093  19.313   9.472
  106POPC   PO4 4392  36.650  18.842   9.465
  106POPC   GL1 4393  37.013  18.901   9.150
  106POPC   GL2 4394  36.889  19.178   9.005
  106POPC   C1A 4395  37.068  18.816   8.721
  106POPC   D2A 4396  36.883  19.062   8.414
  106POPC   C3A 4397  36.893  18.863   8.051
  106POPC   C4A 4398  36.920  19.058   7.652
  106POPC   C1B 4399  37.213  19.369   8.770
  106POPC   C2B 4400  37.277  19.595   8.397
  106POPC   C3B 4401  37.096  19.398   8.043
  106POPC   C4B 4402  36.769  19.514   7.769
  107POPC   NC3 4403  41.096  40.547   9.463
  107POPC   PO4 4404  41.752  40.893   9.467
  107POPC   GL1 4405  41.567  40.756   9.131
  107POPC   GL2 4406  41.316  40.958   8.993
  107POPC   C1A 4407  41.623  40.630   8.711
  107POPC   D2A 4408  41.544  40.898   8.374
  107POPC   C3A 4409  41.662  40.748   7.990
  107POPC   C4A 4410  41.897  40.821   7.663
  107POPC   C1B 4411  41.108  40.720   8.613
  107POPC   C2B 4412  41.247  40.517   8.202
  107POPC   C3B 4413  41.265  40.506   7.743
  107POPC   C4B 4414  41.172  40.452   7.248
  108POPC   NC3 4415   8.470  26.545   9.533
  108POPC   PO4 4416   9.146  26.912   9.461
  108POPC   GL1 4417   8.996  26.770   9.101
  108POPC   GL2 4418   8.806  26.476   9.128
  108POPC   C1A 4419   8.833  26.821   8.708
  108POPC   D2A 4420   9.003  26.589   8.400
  108POPC   C3A 4421   8.904  26.699   8.015
  108POPC   C4A 4422   8.839  26.828   7.599
  108POPC   C1B 4423   8.609  26.376   8.705
  108POPC   C2B 4424   8.460  26.565   8.302
  108POPC   C3B 4425   8.519  26.433   7.857
  108POPC   C4B 4426   8.562  26.414   7.387
  109POPC   NC3 4427  37.513  10.689   9.618
  109POPC   PO4 4428  37.698  11.362   9.465
  109POPC   GL1 4429  37.623  11.210   9.106
  109POPC   GL2 4430  37.601  10.857   9.144
  109POPC   C1A 4431  37.729  11.421   8.699
  109POPC   D2A 4432  37.940  11.356   8.334
  109POPC   C3A 4433  37.625  11.386   7.985
  109POPC   C4A 4434  37.667  11.439   7.559
  109POPC   C1B 4435  37.520  10.936   8.703
  109POPC   C2B 4436  37.618  10.962   8.312
  109POPC   C3B 4437  37.869  10.949   7.978
  109POPC   C4B 4438  37.563  10.959   7.660
  110POPC   NC3 4439  44.644  36.567   9.655
  110POPC   PO4 4440  44.375  35.950   9.558
  110POPC   GL1 4441  44.399  36.034   9.134
  110POPC   GL2 4442  44.578  36.332   9.210
  110POPC   C1A 4443  44.467  36.227   8.713
  110POPC   D2A 4444  44.767  36.086   8.408
  110POPC   C3A 4445  44.633  36.062   7.986
  110POPC   C4A 4446  44.872  36.046   7.665
  110POPC   C1B 4447  44.841  36.504   8.909
  110POPC   C2B 4448  44.800  36.593   8.475
  110POPC   C3B 4449  44.896  36.498   8.058
  110POPC   C4B 4450  44.709  36.510   7.661
  111POPC   NC3 4451  28.814  31.609   9.798
  111POPC   PO4 4452  28.304  31.467   9.419
  111POPC   GL1 4453  28.490  31.502   9.064
  111POPC   GL2 4454  28.364  31.803   8.983
  111POPC   C1A 4455  28.416  31.424   8.630
  111POPC   D2A 4456  28.498  31.476   8.187
  111POPC   C3A 4457  28.280  31.345   7.817
  111POPC   C4A 4458  28.430  31.141   7.447
  111POPC   C1B 4459  28.571  31.901   8.629
  111POPC   C2B 4460  28.331  31.946   8.280
  111POPC   C3B 4461  28.470  31.878   7.855
  111POPC   C4B 4462  28.477  31.685   7.456
  112POPC   NC3 4463  30.075  22.963   9.350
  112POPC   PO4 4464  29.482  23.357   9.305
  112POPC   GL1 4465  29.678  23.087   9.046
  112POPC   GL2 4466  29.688  22.732   9.136
  112POPC   C1A 4467  29.939  22.995   8.707
  112POPC   D2A 4468  29.803  23.026   8.288
  112POPC   C3A 4469  30.054  23.035   7.914
  112POPC   C4A 4470  29.881  23.161   7.464
  112POPC   C1B 4471  29.799  22.466   8.793
  112POPC   C2B 4472  30.028  22.538   8.443
  112POPC   C3B 4473  29.882  22.568   8.054
  112POPC   C4B 4474  30.039  22.602   7.642
  113POPC   NC3 4475  39.246  41.949   9.441
  113POPC   PO4 4476  39.334  41.309   9.413
  113POPC   GL1 4477  39.191  41.505   9.073
  113POPC   GL2 4478  39.497  41.726   9.060
  113POPC   C1A 4479  39.092  41.304   8.666
  113POPC   D2A 4480  39.389  41.230   8.322
  113POPC   C3A 4481  39.257  41.313   7.895
  113POPC   C4A 4482  38.803  41.437   7.753
  113POPC   C1B 4483  39.374  41.724   8.653
  113POPC   C2B 4484  39.057  41.861   8.421
  113POPC   C3B 4485  39.087  41.783   8.020
  113POPC   C4B 4486  39.509  41.783   7.885
  114POPC   NC3 4487  26.823  25.436   9.787
  114POPC   PO4 4488  26.605  24.998   9.364
  114POPC   GL1 4489  26.651  25.369   9.145
  114POPC   GL2 4490  26.386  25.286   8.945
  114POPC   C1A 4491  26.780  25.549   8.741
  114POPC   D2A 4492  26.666  25.392   8.349
  114POPC   C3A 4493  26.941  25.466   8.049
  114POPC   C4A 4494  27.084  25.190   7.754
  114POPC   C1B 4495  26.693  25.023   8.712
  114POPC   C2B 4496  26.625  24.880   8.303
  114POPC   C3B 4497  26.594  25.069   7.914
  114POPC   C4B 4498  26.432  24.754   7.688
  115POPC   NC3 4499   7.528  22.245   9.609
  115POPC   PO4 4500   7.555  21.613   9.362
  115POPC   GL1 4501   7.304  21.875   9.117
  115POPC   GL2 4502   7.239  22.196   9.189
  115POPC   C1A 4503   7.257  22.023   8.715
  115POPC   D2A 4504   7.360  21.856   8.379
  115POPC   C3A 4505   7.259  22.157   8.093
  115POPC   C4A 4506   7.310  22.181   7.667
  115POPC   C1B 4507   7.586  22.350   8.909
  115POPC   C2B 4508   7.545  22.414   8.437
  115POPC   C3B 4509   7.636  22.460   7.951
  115POPC   C4B 4510   7.616  22.525   7.442
  116POPC   NC3 4511  12.104  43.368   9.425
  116POPC   PO4 4512  11.725  42.899   9.151
  116POPC   GL1 4513  12.084  43.093   8.974
  116POPC   GL2 4514  12.226  43.453   8.949
  116POPC   C1A 4515  12.134  43.083   8.542
  116POPC   D2A 4516  12.404  43.015   8.206
  116POPC   C3A 4517  12.261  42.783   7.872
  116POPC   C4A 4518  12.051  42.993   7.499
  116POPC   C1B 4519  11.895  43.556   8.681
  116POPC   C2B 4520  11.827  43.417   8.249
  116POPC   C3B 4521  12.071  43.374   7.861
  116POPC   C4B 4522  11.960  43.483   7.419
  117POPC   NC3 4523  23.230  20.648   9.491
  117POPC   PO4 4524  22.569  20.919   9.435
  117POPC   GL1 4525  22.869  20.856   9.126
  117POPC   GL2 4526  22.860  20.520   9.100
  117POPC   C1A 4527  23.213  20.754   8.794
  117POPC   D2A 4528  23.269  20.494   8.400
  117POPC   C3A 4529  23.059  20.524   8.014
  117POPC   C4A 4530  22.861  20.858   7.789
  117POPC   C1B 4531  22.713  20.591   8.707
  117POPC   C2B 4532  22.695  20.761   8.300
  117POPC   C3B 4533  22.560  20.481   7.969
  117POPC   C4B 4534  22.618  20.472   7.512
  118POPC   NC3 4535  33.875  16.767   9.327
  118POPC   PO4 4536  33.863  16.143   9.536
  118POPC   GL1 4537  33.650  16.357   9.157
  118POPC   GL2 4538  33.523  16.737   8.995
  118POPC   C1A 4539  33.865  16.369   8.777
  118POPC   D2A 4540  33.979  16.206   8.399
  118POPC   C3A 4541  33.761  16.470   8.109
  118POPC   C4A 4542  33.844  16.724   7.766
  118POPC   C1B 4543  33.862  16.897   8.701
  118POPC   C2B 4544  34.039  16.847   8.312
  118POPC   C3B 4545  33.990  17.150   8.001
  118POPC   C4B 4546  33.561  17.212   7.854
  119POPC   NC3 4547  17.581  12.187   9.660
  119POPC   PO4 4548  17.371  11.613   9.676
  119POPC   GL1 4549  17.225  11.697   9.236
  119POPC   GL2 4550  17.446  11.990   9.178
  119POPC   C1A 4551  17.207  11.808   8.769
  119POPC   D2A 4552  17.521  11.856   8.427
  119POPC   C3A 4553  17.459  11.994   8.023
  119POPC   C4A 4554  17.270  11.882   7.688
  119POPC   C1B 4555  17.592  12.196   8.797
  119POPC   C2B 4556  17.510  12.376   8.370
  119POPC   C3B 4557  17.744  12.401   7.968
  119POPC   C4B 4558  17.683  12.217   7.566
  120POPC   NC3 4559  26.730  13.159   9.625
  120POPC   PO4 4560  26.598  13.840   9.437
  120POPC   GL1 4561  26.769  13.744   9.053
  120POPC   GL2 4562  27.129  13.837   9.140
  120POPC   C1A 4563  26.644  13.773   8.591
  120POPC   D2A 4564  26.485  13.871   8.178
  120POPC   C3A 4565  26.618  13.526   7.927
  120POPC   C4A 4566  26.829  13.129   7.844
  120POPC   C1B 4567  27.160  13.683   8.723
  120POPC   C2B 4568  27.098  13.457   8.340
  120POPC   C3B 4569  27.282  13.368   7.955
  120POPC   C4B 4570  27.121  13.481   7.570
  121POPC   NC3 4571  40.037  34.216   9.921
  121POPC   PO4 4572  40.046  33.633   9.529
  121POPC   GL1 4573  40.110  33.798   9.152
  121POPC   GL2 4574  40.448  33.794   9.188
  121POPC   C1A 4575  39.892  33.876   8.765
  121POPC   D2A 4576  39.755  33.649   8.423
  121POPC   C3A 4577  39.916  33.840   8.079
  121POPC   C4A 4578  39.959  33.670   7.683
  121POPC   C1B 4579  40.410  33.946   8.774
  121POPC   C2B 4580  40.330  34.049   8.340
  121POPC   C3B 4581  40.424  33.827   7.965
  121POPC   C4B 4582  40.430  33.609   7.530
  122POPC   NC3 4583   1.641   6.656   9.123
  122POPC   PO4 4584   1.997   6.962   9.549
  122POPC   GL1 4585   2.194   6.857   9.158
  122POPC   GL2 4586   2.134   6.562   9.072
  122POPC   C1A 4587   2.125   6.926   8.716
  122POPC   D2A 4588   1.835   6.684   8.443
  122POPC   C3A 4589   1.917   6.794   8.025
  122POPC   C4A 4590   1.771   6.775   7.613
  122POPC   C1B 4591   2.145   6.366   8.696
  122POPC   C2B 4592   2.445   6.170   8.447
  122POPC   C3B 4593   2.400   6.113   8.034
  122POPC   C4B 4594   2.004   6.319   7.856
  123POPC   NC3 4595  29.954  35.588   9.384
  123POPC   PO4 4596  29.854  34.940   9.565
  123POPC   GL1 4597  29.930  35.144   9.083
  123POPC   GL2 4598  29.862  35.495   8.909
  123POPC   C1A 4599  29.697  35.098   8.642
  123POPC   D2A 4600  29.619  35.226   8.237
  123POPC   C3A 4601  29.987  35.285   8.028
  123POPC   C4A 4602  30.020  35.132   7.601
  123POPC   C1B 4603  30.182  35.278   8.647
  123POPC   C2B 4604  30.458  35.402   8.321
  123POPC   C3B 4605  30.327  35.691   8.017
  123POPC   C4B 4606  30.047  35.639   7.678
  124POPC   NC3 4607  41.067  36.851   9.322
  124POPC   PO4 4608  40.466  37.018   9.466
  124POPC   GL1 4609  40.588  36.845   9.095
  124POPC   GL2 4610  40.756  37.128   9.038
  124POPC   C1A 4611  40.655  36.819   8.666
  124POPC   D2A 4612  40.549  37.045   8.337
  124POPC   C3A 4613  40.607  36.673   8.101
  124POPC   C4A 4614  40.959  36.534   7.835
  124POPC   C1B 4615  40.968  37.233   8.672
  124POPC   C2B 4616  40.870  37.482   8.358
  124POPC   C3B 4617  40.849  37.292   7.991
  124POPC   C4B 4618  40.732  36.987   7.719
  125POPC   NC3 4619  41.160   7.238   9.478
  125POPC   PO4 4620  41.535   6.660   9.462
  125POPC   GL1 4621  41.609   6.819   9.086
  125POPC   GL2 4622  41.267   6.894   9.053
  125POPC   C1A 4623  41.567   6.694   8.666
  125POPC   D2A 4624  41.596   6.865   8.288
  125POPC   C3A 4625  41.632   6.495   8.111
  125POPC   C4A 4626  41.680   6.503   7.722
  125POPC   C1B 4627  41.137   6.491   8.812
  125POPC   C2B 4628  41.166   6.533   8.352
  125POPC   C3B 4629  41.212   6.682   7.911
  125POPC   C4B 4630  41.201   6.365   7.594
  126POPC   NC3 4631  16.164   0.473   9.742
  126POPC   PO4 4632  15.668   0.058   9.567
  126POPC   GL1 4633  15.910   0.333   9.215
  126POPC   GL2 4634  16.251   0.324   9.242
  126POPC   C1A 4635  15.965   0.627   8.803
  126POPC   D2A 4636  15.789   0.620   8.363
  126POPC   C3A 4637  15.825   0.896   7.977
  126POPC   C4A 4638  15.850   0.881   7.517
  126POPC   C1B 4639  16.356   0.270   8.826
  126POPC   C2B 4640  16.180   0.304   8.442
  126POPC   C3B 4641  16.144   0.351   8.027
  126POPC   C4B 4642  16.261   0.576   7.668
  127POPC   NC3 4643  39.680   2.790   9.616
  127POPC   PO4 4644  39.073   3.093   9.448
  127POPC   GL1 4645  39.322   2.986   9.088
  127POPC   GL2 4646  39.409   2.642   9.055
  127POPC   C1A 4647  39.135   2.911   8.655
  127POPC   D2A 4648  38.738   2.887   8.406
  127POPC   C3A 4649  38.740   2.653   8.005
  127POPC   C4A 4650  39.003   2.508   7.668
  127POPC   C1B 4651  39.215   2.413   8.690
  127POPC   C2B 4652  39.169   2.541   8.251
  127POPC   C3B 4653  39.456   2.501   7.900
  127POPC   C4B 4654  39.624   2.201   7.574
  128POPC   NC3 4655  13.342  29.258   9.486
  128POPC   PO4 4656  13.883  28.918   9.317
  128POPC   GL1 4657  13.647  29.051   8.986
  128POPC   GL2 4658  13.497  29.374   9.027
  128POPC   C1A 4659  13.742  29.043   8.563
  128POPC   D2A 4660  13.678  28.679   8.310
  128POPC   C3A 4661  13.522  28.836   7.948
  128POPC   C4A 4662  13.660  28.861   7.513
  128POPC   C1B 4663  13.891  29.489   8.890
  128POPC   C2B 4664  13.927  29.604   8.460
  128POPC   C3B 4665  13.890  29.519   8.052
  128POPC   C4B 4666  13.641  29.301   7.780
  129POPC   NC3 4667   8.845  35.581   9.358
  129POPC   PO4 4668   9.267  34.966   9.385
  129POPC   GL1 4669   9.088  35.215   9.095
  129POPC   GL2 4670   9.292  35.537   9.098
  129POPC   C1A 4671   8.852  35.311   8.740
  129POPC   D2A 4672   8.939  35.480   8.361
  129POPC   C3A 4673   8.676  35.298   8.052
  129POPC   C4A 4674   8.634  35.455   7.652
  129POPC   C1B 4675   9.441  35.345   8.708
  129POPC   C2B 4676   9.449  35.478   8.263
  129POPC   C3B 4677   9.154  35.449   7.890
  129POPC   C4B 4678   9.070  35.169   7.561
  130POPC   NC3 4679   1.069   5.897   9.440
  130POPC   PO4 4680   1.537   6.267   9.333
  130POPC   GL1 4681   1.190   6.169   9.024
  130POPC   GL2 4682   0.835   6.253   9.157
  130POPC   C1A 4683   1.094   5.782   8.749
  130POPC   D2A 4684   1.092   5.601   8.315
  130POPC   C3A 4685   1.131   5.917   8.006
  130POPC   C4A 4686   1.122   5.746   7.619
  130POPC   C1B 4687   0.705   6.132   8.759
  130POPC   C2B 4688   0.855   6.228   8.343
  130POPC   C3B 4689   0.680   6.180   7.926
  130POPC   C4B 4690   0.923   6.225   7.533
  131POPC   NC3 4691  42.559  10.252   9.437
  131POPC   PO4 4692  41.918  10.607   9.514
  131POPC   GL1 4693  42.241  10.615   9.244
  131POPC   GL2 4694  42.147  10.304   9.098
  131POPC   C1A 4695  42.484  10.633   8.860
  131POPC   D2A 4696  42.610  10.495   8.455
  131POPC   C3A 4697  42.381  10.672   8.109
  131POPC   C4A 4698  42.568  10.657   7.752
  131POPC   C1B 4699  42.082  10.375   8.679
  131POPC   C2B 4700  42.182  10.234   8.293
  131POPC   C3B 4701  42.512  10.180   8.022
  131POPC   C4B 4702  42.239  10.274   7.717
  132POPC   NC3 4703  12.654  21.174   9.292
  132POPC   PO4 4704  13.096  21.779   9.442
  132POPC   GL1 4705  12.844  21.616   9.126
  132POPC   GL2 4706  12.547  21.706   9.083
  132POPC   C1A 4707  12.872  21.476   8.708
  132POPC   D2A 4708  12.981  21.239   8.339
  132POPC   C3A 4709  12.830  21.333   7.943
  132POPC   C4A 4710  12.950  21.158   7.555
  132POPC   C1B 4711  12.375  21.593   8.728
  132POPC   C2B 4712  12.534  21.586   8.322
  132POPC   C3B 4713  12.321  21.484   7.966
  132POPC   C4B 4714  12.420  21.168   7.655
  133POPC   NC3 4715   4.039   7.500   9.425
  133POPC   PO4 4716   4.668   7.320   9.363
  133POPC   GL1 4717   4.371   7.491   9.020
  133POPC   GL2 4718   4.024   7.678   8.953
  133POPC   C1A 4719   4.277   7.506   8.571
  133POPC   D2A 4720   4.474   7.358   8.271
  133POPC   C3A 4721   4.379   7.668   7.991
  133POPC   C4A 4722   4.392   7.450   7.630
  133POPC   C1B 4723   3.993   7.184   8.846
  133POPC   C2B 4724   4.065   7.041   8.422
  133POPC   C3B 4725   4.041   7.297   8.019
  133POPC   C4B 4726   3.946   7.126   7.629
  134POPC   NC3 4727   6.994  18.031   9.210
  134POPC   PO4 4728   7.517  18.215   9.557
  134POPC   GL1 4729   7.380  18.360   9.136
  134POPC   GL2 4730   7.630  18.292   8.996
  134POPC   C1A 4731   7.271  18.478   8.661
  134POPC   D2A 4732   6.994  18.439   8.304
  134POPC   C3A 4733   7.266  18.545   7.991
  134POPC   C4A 4734   7.322  18.465   7.584
  134POPC   C1B 4735   7.383  17.994   8.704
  134POPC   C2B 4736   7.336  18.026   8.267
  134POPC   C3B 4737   7.384  17.996   7.851
  134POPC   C4B 4738   7.635  18.092   7.478
  135POPC   NC3 4739   6.741   8.538   9.473
  135POPC   PO4 4740   6.394   7.984   9.377
  135POPC   GL1 4741   6.600   8.188   9.069
  135POPC   GL2 4742   6.937   8.015   9.077
  135POPC   C1A 4743   6.608   8.000   8.672
  135POPC   D2A 4744   6.746   8.014   8.265
  135POPC   C3A 4745   6.527   8.260   7.988
  135POPC   C4A 4746   6.390   8.051   7.650
  135POPC   C1B 4747   6.972   8.363   8.755
  135POPC   C2B 4748   6.925   8.515   8.325
  135POPC   C3B 4749   7.013   8.376   7.904
  135POPC   C4B 4750   6.915   7.951   7.773
  136POPC   NC3 4751  22.534  44.297   9.783
  136POPC   PO4 4752  23.067  44.669   9.512
  136POPC   GL1 4753  23.113  44.746   9.089
  136POPC   GL2 4754  22.802  44.568   8.986
  136POPC   C1A 4755  23.182  44.662   8.657
  136POPC   D2A 4756  23.188  44.448   8.287
  136POPC   C3A 4757  23.178  44.748   7.943
  136POPC   C4A 4758  23.072  44.726   7.508
  136POPC   C1B 4759  22.764  44.352   8.580
  136POPC   C2B 4760  22.709  44.549   8.166
  136POPC   C3B 4761  22.674  44.526   7.740
  136POPC   C4B 4762  22.487  44.694   7.377
  137POPC   NC3 4763   6.129  28.664   9.454
  137POPC   PO4 4764   5.580  28.344   9.252
  137POPC   GL1 4765   5.967  28.287   9.086
  137POPC   GL2 4766   5.927  28.640   8.997
  137POPC   C1A 4767   5.996  28.244   8.648
  137POPC   D2A 4768   5.671  28.361   8.358
  137POPC   C3A 4769   5.769  28.418   7.939
  137POPC   C4A 4770   5.943  28.229   7.608
  137POPC   C1B 4771   6.106  28.752   8.654
  137POPC   C2B 4772   6.151  28.577   8.267
  137POPC   C3B 4773   6.178  28.717   7.858
  137POPC   C4B 4774   6.004  28.723   7.468
  138POPC   NC3 4775   7.304  32.929   9.631
  138POPC   PO4 4776   7.122  33.592   9.500
  138POPC   GL1 4777   7.357  33.270   9.241
  138POPC   GL2 4778   7.224  32.941   9.134
  138POPC   C1A 4779   7.540  33.230   8.809
  138POPC   D2A 4780   7.425  33.012   8.416
  138POPC   C3A 4781   7.576  33.139   8.020
  138POPC   C4A 4782   7.251  33.225   7.732
  138POPC   C1B 4783   7.183  32.699   8.767
  138POPC   C2B 4784   7.019  32.705   8.312
  138POPC   C3B 4785   7.235  32.730   7.911
  138POPC   C4B 4786   7.139  32.711   7.420
  139POPC   NC3 4787   7.616  44.943   9.333
  139POPC   PO4 4788   7.594   0.538   9.697
  139POPC   GL1 4789   7.403   0.456   9.249
  139POPC   GL2 4790   7.173   0.179   9.154
  139POPC   C1A 4791   7.490   0.317   8.765
  139POPC   D2A 4792   7.378   0.534   8.394
  139POPC   C3A 4793   7.545   0.524   7.989
  139POPC   C4A 4794   7.777   0.700   7.736
  139POPC   C1B 4795   7.069   0.562   8.884
  139POPC   C2B 4796   6.937   0.761   8.506
  139POPC   C3B 4797   7.070   0.761   8.045
  139POPC   C4B 4798   7.124   0.337   7.786
  140POPC   NC3 4799  14.537   0.497   9.472
  140POPC   PO4 4800  13.942   0.237   9.512
  140POPC   GL1 4801  14.309   0.133   9.176
  140POPC   GL2 4802  14.301   0.467   9.023
  140POPC   C1A 4803  14.472   0.164   8.674
  140POPC   D2A 4804  14.338   0.036   8.247
  140POPC   C3A 4805  14.480   0.219   7.840
  140POPC   C4A 4806  14.557   0.632   7.654
  140POPC   C1B 4807  13.983   0.145   8.806
  140POPC   C2B 4808  13.919   0.275   8.404
  140POPC   C3B 4809  14.091   0.475   8.062
  140POPC   C4B 4810  14.062   0.502   7.630
  141POPC   NC3 4811   8.145  13.829   9.655
  141POPC   PO4 4812   8.523  13.302   9.455
  141POPC   GL1 4813   8.330  13.611   9.218
  141POPC   GL2 4814   8.113  13.365   9.123
  141POPC   C1A 4815   8.261  13.752   8.793
  141POPC   D2A 4816   8.402  13.712   8.376
  141POPC   C3A 4817   8.176  13.737   7.994
  141POPC   C4A 4818   8.301  13.713   7.594
  141POPC   C1B 4819   7.911  13.374   8.711
  141POPC   C2B 4820   7.906  13.419   8.265
  141POPC   C3B 4821   7.834  13.307   7.819
  141POPC   C4B 4822   7.713  13.344   7.365
  142POPC   NC3 4823  17.850  10.555   9.334
  142POPC   PO4 4824  17.380  10.044   9.431
  142POPC   GL1 4825  17.366  10.362   9.131
  142POPC   GL2 4826  17.130  10.173   8.972
  142POPC   C1A 4827  17.557  10.384   8.711
  142POPC   D2A 4828  17.416  10.549   8.314
  142POPC   C3A 4829  17.657  10.524   7.906
  142POPC   C4A 4830  17.854  10.852   7.665
  142POPC   C1B 4831  17.024  10.429   8.662
  142POPC   C2B 4832  16.916  10.381   8.248
  142POPC   C3B 4833  17.177  10.361   7.906
  142POPC   C4B 4834  17.311  10.372   7.484
  143POPC   NC3 4835   3.294  42.938   9.484
  143POPC   PO4 4836   3.706  43.440   9.516
  143POPC   GL1 4837   3.642  43.178   9.157
  143POPC   GL2 4838   3.932  42.964   9.108
  143POPC   C1A 4839   3.436  43.106   8.774
  143POPC   D2A 4840   3.138  42.966   8.454
  143POPC   C3A 4841   3.263  43.057   8.026
  143POPC   C4A 4842   3.406  42.877   7.651
  143POPC   C1B 4843   3.862  42.789   8.703
  143POPC   C2B 4844   3.678  42.954   8.335
  143POPC   C3B 4845   3.796  43.063   7.922
  143POPC   C4B 4846   4.008  43.071   7.490
  144POPC   NC3 4847   6.080  42.592   9.418
  144POPC   PO4 4848   5.580  42.095   9.520
  144POPC   GL1 4849   5.605  42.353   9.143
  144POPC   GL2 4850   5.899  42.221   9.106
  144POPC   C1A 4851   5.793  42.596   8.764
  144POPC   D2A 4852   6.073  42.554   8.379
  144POPC   C3A 4853   5.942  42.667   8.005
  144POPC   C4A 4854   5.931  42.442   7.624
  144POPC   C1B 4855   6.065  42.167   8.746
  144POPC   C2B 4856   6.108  42.034   8.371
  144POPC   C3B 4857   5.946  42.090   8.001
  144POPC   C4B 4858   6.139  41.976   7.651
  145POPC   NC3 4859  17.701  39.448   9.500
  145POPC   PO4 4860  17.155  39.094   9.503
  145POPC   GL1 4861  17.377  39.216   9.137
  145POPC   GL2 4862  17.680  39.154   9.071
  145POPC   C1A 4863  17.413  39.384   8.686
  145POPC   D2A 4864  17.194  39.467   8.265
  145POPC   C3A 4865  17.494  39.434   7.956
  145POPC   C4A 4866  17.607  39.256   7.627
  145POPC   C1B 4867  17.874  39.067   8.702
  145POPC   C2B 4868  17.725  39.162   8.311
  145POPC   C3B 4869  17.896  38.988   7.943
  145POPC   C4B 4870  18.037  39.002   7.511
  146POPC   NC3 4871  20.661  29.627   9.559
  146POPC   PO4 4872  20.631  30.311   9.480
  146POPC   GL1 4873  20.488  29.986   9.205
  146POPC   GL2 4874  20.813  29.848   9.117
  146POPC   C1A 4875  20.453  30.076   8.781
  146POPC   D2A 4876  20.618  30.217   8.392
  146POPC   C3A 4877  20.298  30.184   8.088
  146POPC   C4A 4878  20.400  29.969   7.710
  146POPC   C1B 4879  20.761  29.640   8.715
  146POPC   C2B 4880  20.828  29.730   8.279
  146POPC   C3B 4881  20.894  29.884   7.839
  146POPC   C4B 4882  20.880  29.840   7.370
  147POPC   NC3 4883  26.963   2.517   9.509
  147POPC   PO4 4884  26.822   3.151   9.662
  147POPC   GL1 4885  26.757   2.933   9.237
  147POPC   GL2 4886  26.568   2.647   9.204
  147POPC   C1A 4887  26.621   2.996   8.792
  147POPC   D2A 4888  26.830   3.258   8.451
  147POPC   C3A 4889  26.681   3.120   8.082
  147POPC   C4A 4890  26.680   2.958   7.686
  147POPC   C1B 4891  26.832   2.541   8.839
  147POPC   C2B 4892  26.867   2.752   8.430
  147POPC   C3B 4893  26.943   2.664   8.024
  147POPC   C4B 4894  26.771   2.447   7.677
  148POPC   NC3 4895  16.197   3.552   9.512
  148POPC   PO4 4896  15.528   3.627   9.621
  148POPC   GL1 4897  15.792   3.739   9.270
  148POPC   GL2 4898  15.869   3.423   9.094
  148POPC   C1A 4899  16.069   3.849   8.907
  148POPC   D2A 4900  16.003   3.605   8.532
  148POPC   C3A 4901  16.263   3.625   8.217
  148POPC   C4A 4902  16.248   3.661   7.802
  148POPC   C1B 4903  15.578   3.689   8.808
  148POPC   C2B 4904  15.494   3.551   8.381
  148POPC   C3B 4905  15.773   3.543   8.043
  148POPC   C4B 4906  15.795   3.710   7.647
  149POPC   NC3 4907  12.710   2.569   9.452
  149POPC   PO4 4908  12.756   3.200   9.534
  149POPC   GL1 4909  12.811   3.004   9.164
  149POPC   GL2 4910  13.115   2.821   9.199
  149POPC   C1A 4911  12.739   2.771   8.794
  149POPC   D2A 4912  12.532   2.931   8.392
  149POPC   C3A 4913  12.676   2.762   7.983
  149POPC   C4A 4914  12.837   2.555   7.611
  149POPC   C1B 4915  13.228   3.021   8.811
  149POPC   C2B 4916  13.042   2.901   8.420
  149POPC   C3B 4917  13.185   2.815   8.043
  149POPC   C4B 4918  13.121   2.973   7.682
  150POPC   NC3 4919  31.682  22.901   9.778
  150POPC   PO4 4920  31.069  22.795   9.578
  150POPC   GL1 4921  31.398  22.774   9.229
  150POPC   GL2 4922  31.554  23.094   9.128
  150POPC   C1A 4923  31.587  22.755   8.777
  150POPC   D2A 4924  31.416  22.706   8.379
  150POPC   C3A 4925  31.415  23.020   8.073
  150POPC   C4A 4926  31.636  22.975   7.670
  150POPC   C1B 4927  31.872  23.190   8.805
  150POPC   C2B 4928  31.849  23.026   8.405
  150POPC   C3B 4929  31.913  23.200   8.022
  150POPC   C4B 4930  31.995  23.326   7.630
  151POPC   NC3 4931  30.517   1.003   9.631
  151POPC   PO4 4932  30.935   1.368   9.345
  151POPC   GL1 4933  30.540   1.265   9.172
  151POPC   GL2 4934  30.396   1.596   9.105
  151POPC   C1A 4935  30.515   1.171   8.748
  151POPC   D2A 4936  30.870   1.137   8.458
  151POPC   C3A 4937  30.884   1.359   8.065
  151POPC   C4A 4938  30.804   1.109   7.691
  151POPC   C1B 4939  30.241   1.608   8.672
  151POPC   C2B 4940  30.412   1.428   8.294
  151POPC   C3B 4941  30.428   1.405   7.836
  151POPC   C4B 4942  30.413   1.453   7.378
  152POPC   NC3 4943  33.208   3.532   9.658
  152POPC   PO4 4944  32.575   3.402   9.645
  152POPC   GL1 4945  32.788   3.487   9.149
  152POPC   GL2 4946  33.140   3.451   9.158
  152POPC   C1A 4947  32.721   3.749   8.750
  152POPC   D2A 4948  32.804   3.847   8.303
  152POPC   C3A 4949  32.809   3.461   8.026
  152POPC   C4A 4950  32.932   3.514   7.620
  152POPC   C1B 4951  33.078   3.368   8.713
  152POPC   C2B 4952  33.231   3.563   8.328
  152POPC   C3B 4953  33.327   3.424   7.903
  152POPC   C4B 4954  33.394   3.424   7.440
  153POPC   NC3 4955  39.784  16.684   9.455
  153POPC   PO4 4956  39.625  17.335   9.618
  153POPC   GL1 4957  39.873  17.162   9.205
  153POPC   GL2 4958  40.258  17.084   9.112
  153POPC   C1A 4959  39.773  16.899   8.803
  153POPC   D2A 4960  39.956  16.906   8.364
  153POPC   C3A 4961  39.880  16.635   7.984
  153POPC   C4A 4962  39.822  16.688   7.519
  153POPC   C1B 4963  40.265  16.784   8.744
  153POPC   C2B 4964  40.351  16.616   8.310
  153POPC   C3B 4965  40.437  16.574   7.870
  153POPC   C4B 4966  40.237  16.372   7.514
  154POPC   NC3 4967   4.996  28.217   9.433
  154POPC   PO4 4968   5.072  28.894   9.627
  154POPC   GL1 4969   5.142  28.704   9.175
  154POPC   GL2 4970   4.869  28.503   9.014
  154POPC   C1A 4971   5.277  28.548   8.724
  154POPC   D2A 4972   5.059  28.530   8.367
  154POPC   C3A 4973   5.273  28.472   8.043
  154POPC   C4A 4974   5.373  28.060   7.864
  154POPC   C1B 4975   4.953  28.142   8.717
  154POPC   C2B 4976   4.815  28.075   8.297
  154POPC   C3B 4977   4.849  28.191   7.883
  154POPC   C4B 4978   4.528  27.968   7.626
  155POPC   NC3 4979  40.843  34.168   9.327
  155POPC   PO4 4980  40.902  33.626   9.684
  155POPC   GL1 4981  40.894  33.542   9.211
  155POPC   GL2 4982  40.907  33.849   8.957
  155POPC   C1A 4983  40.672  33.453   8.801
  155POPC   D2A 4984  40.762  33.747   8.460
  155POPC   C3A 4985  40.831  33.539   8.108
  155POPC   C4A 4986  40.693  33.288   7.797
  155POPC   C1B 4987  41.227  34.043   8.721
  155POPC   C2B 4988  41.186  34.215   8.311
  155POPC   C3B 4989  40.861  34.086   8.061
  155POPC   C4B 4990  40.832  33.890   7.668
  156POPC   NC3 4991  13.543  21.599   9.461
  156POPC   PO4 4992  13.040  21.198   9.597
  156POPC   GL1 4993  13.278  21.377   9.113
  156POPC   GL2 4994  13.659  21.480   9.002
  156POPC   C1A 4995  13.362  21.237   8.681
  156POPC   D2A 4996  13.478  21.419   8.304
  156POPC   C3A 4997  13.356  21.187   7.942
  156POPC   C4A 4998  13.416  21.365   7.554
  156POPC   C1B 4999  13.879  21.227   8.719
  156POPC   C2B 5000  14.015  21.302   8.311
  156POPC   C3B 5001  13.860  21.391   7.901
  156POPC   C4B 5002  13.850  21.053   7.616
  157POPC   NC3 5003   1.867   4.675   9.549
  157POPC   PO4 5004   2.240   4.247   9.683
  157POPC   GL1 5005   2.141   4.424   9.213
  157POPC   GL2 5006   1.814   4.382   9.145
  157POPC   C1A 5007   2.253   4.412   8.751
  157POPC   D2A 5008   2.354   4.561   8.323
  157POPC   C3A 5009   2.222   4.241   8.030
  157POPC   C4A 5010   1.910   4.087   7.766
  157POPC   C1B 5011   1.768   4.583   8.778
  157POPC   C2B 5012   1.820   4.422   8.356
  157POPC   C3B 5013   1.864   4.590   7.962
  157POPC   C4B 5014   1.717   4.589   7.562
  158POPC   NC3 5015  35.873   0.150   9.694
  158POPC   PO4 5016  35.969  44.516   9.392
  158POPC   GL1 5017  35.975  44.772   9.069
  158POPC   GL2 5018  35.710  44.965   9.133
  158POPC   C1A 5019  36.134  44.718   8.679
  158POPC   D2A 5020  35.976  44.771   8.295
  158POPC   C3A 5021  36.270  44.707   8.023
  158POPC   C4A 5022  36.204  44.687   7.618
  158POPC   C1B 5023  35.647  44.872   8.686
  158POPC   C2B 5024  35.585  44.467   8.417
  158POPC   C3B 5025  35.822  44.361   8.016
  158POPC   C4B 5026  35.814  44.258   7.556
  159POPC   NC3 5027  13.867  39.043   9.592
  159POPC   PO4 5028  13.338  39.415   9.638
  159POPC   GL1 5029  13.487  39.343   9.198
  159POPC   GL2 5030  13.828  39.271   9.126
  159POPC   C1A 5031  13.456  39.137   8.794
  159POPC   D2A 5032  13.564  39.223   8.377
  159POPC   C3A 5033  13.700  38.976   8.049
  159POPC   C4A 5034  13.453  39.163   7.735
  159POPC   C1B 5035  13.940  39.420   8.696
  159POPC   C2B 5036  13.839  39.661   8.292
  159POPC   C3B 5037  13.716  39.592   7.850
  159POPC   C4B 5038  13.757  39.438   7.411
  160POPC   NC3 5039  44.645  27.113   9.588
  160POPC   PO4 5040   0.091  26.614   9.497
  160POPC   GL1 5041  44.782  26.702   9.174
  160POPC   GL2 5042  44.686  27.029   9.097
  160POPC   C1A 5043  44.878  26.673   8.740
  160POPC   D2A 5044  44.750  26.863   8.383
  160POPC   C3A 5045  44.707  26.649   8.004
  160POPC   C4A 5046  44.819  26.732   7.598
  160POPC   C1B 5047  44.436  26.960   8.779
  160POPC   C2B 5048  44.340  27.180   8.435
  160POPC   C3B 5049  44.480  27.124   8.048
  160POPC   C4B 5050  44.310  26.902   7.760
  161POPC   NC3 5051  33.474   7.879   9.498
  161POPC   PO4 5052  33.736   7.333   9.563
  161POPC   GL1 5053  33.761   7.514   9.146
  161POPC   GL2 5054  33.771   7.865   9.073
  161POPC   C1A 5055  33.940   7.460   8.735
  161POPC   D2A 5056  34.179   7.329   8.351
  161POPC   C3A 5057  33.916   7.295   7.974
  161POPC   C4A 5058  33.997   7.332   7.517
  161POPC   C1B 5059  33.472   7.716   8.759
  161POPC   C2B 5060  33.258   7.690   8.389
  161POPC   C3B 5061  33.403   7.492   8.028
  161POPC   C4B 5062  33.509   7.417   7.640
  162POPC   NC3 5063  21.943  31.971   9.579
  162POPC   PO4 5064  21.922  31.204   9.572
  162POPC   GL1 5065  21.840  31.528   9.281
  162POPC   GL2 5066  22.150  31.708   9.199
  162POPC   C1A 5067  21.674  31.552   8.882
  162POPC   D2A 5068  21.805  31.704   8.482
  162POPC   C3A 5069  21.903  31.389   8.134
  162POPC   C4A 5070  21.899  31.551   7.742
  162POPC   C1B 5071  22.184  31.560   8.805
  162POPC   C2B 5072  22.301  31.504   8.411
  162POPC   C3B 5073  22.539  31.705   8.110
  162POPC   C4B 5074  22.378  31.450   7.840
  163POPC   NC3 5075  35.564  34.115   9.455
  163POPC   PO4 5076  35.841  34.696   9.503
  163POPC   GL1 5077  35.545  34.744   9.147
  163POPC   GL2 5078  35.205  34.868   9.218
  163POPC   C1A 5079  35.569  34.653   8.712
  163POPC   D2A 5080  35.460  34.521   8.325
  163POPC   C3A 5081  35.597  34.699   7.943
  163POPC   C4A 5082  35.636  34.446   7.567
  163POPC   C1B 5083  35.135  34.969   8.777
  163POPC   C2B 5084  35.008  34.787   8.360
  163POPC   C3B 5085  35.092  34.584   7.982
  163POPC   C4B 5086  35.189  34.750   7.590
  164POPC   NC3 5087  14.321  23.257   9.513
  164POPC   PO4 5088  14.345  22.600   9.464
  164POPC   GL1 5089  14.594  22.925   9.189
  164POPC   GL2 5090  14.528  23.302   9.048
  164POPC   C1A 5091  14.620  22.896   8.732
  164POPC   D2A 5092  14.348  22.802   8.361
  164POPC   C3A 5093  14.520  22.875   7.939
  164POPC   C4A 5094  14.632  22.616   7.625
  164POPC   C1B 5095  14.117  23.161   8.848
  164POPC   C2B 5096  13.912  23.088   8.441
  164POPC   C3B 5097  14.161  23.229   8.115
  164POPC   C4B 5098  14.363  23.309   7.746
  165POPC   NC3 5099  14.587  37.324   9.515
  165POPC   PO4 5100  14.220  36.692   9.554
  165POPC   GL1 5101  14.445  36.905   9.204
  165POPC   GL2 5102  14.257  37.210   9.093
  165POPC   C1A 5103  14.481  36.919   8.737
  165POPC   D2A 5104  14.218  37.191   8.493
  165POPC   C3A 5105  14.438  37.301   8.125
  165POPC   C4A 5106  14.683  37.052   7.829
  165POPC   C1B 5107  14.002  36.859   8.897
  165POPC   C2B 5108  14.073  36.680   8.487
  165POPC   C3B 5109  14.094  36.893   8.087
  165POPC   C4B 5110  14.211  36.672   7.729
  166POPC   NC3 5111  29.597  13.003   9.495
  166POPC   PO4 5112  30.181  12.910   9.610
  166POPC   GL1 5113  29.984  12.830   9.188
  166POPC   GL2 5114  29.687  12.605   9.156
  166POPC   C1A 5115  29.863  12.956   8.773
  166POPC   D2A 5116  29.809  13.212   8.406
  166POPC   C3A 5117  29.971  13.064   8.009
  166POPC   C4A 5118  30.000  12.710   7.729
  166POPC   C1B 5119  29.538  12.564   8.703
  166POPC   C2B 5120  29.704  12.702   8.293
  166POPC   C3B 5121  29.517  12.755   7.871
  166POPC   C4B 5122  29.317  12.608   7.489
  167POPC   NC3 5123  43.448  31.260   9.517
  167POPC   PO4 5124  42.935  31.696   9.683
  167POPC   GL1 5125  43.033  31.464   9.268
  167POPC   GL2 5126  43.286  31.697   9.188
  167POPC   C1A 5127  42.885  31.203   8.858
  167POPC   D2A 5128  42.830  30.954   8.463
  167POPC   C3A 5129  42.929  31.269   8.171
  167POPC   C4A 5130  43.073  31.371   7.774
  167POPC   C1B 5131  43.038  31.704   8.807
  167POPC   C2B 5132  43.176  31.668   8.388
  167POPC   C3B 5133  43.248  31.827   7.960
  167POPC   C4B 5134  43.230  31.781   7.512
  168POPC   NC3 5135  39.026  15.284   9.453
  168POPC   PO4 5136  39.047  14.751   9.055
  168POPC   GL1 5137  39.096  15.187   8.964
  168POPC   GL2 5138  39.415  15.302   9.044
  168POPC   C1A 5139  39.112  15.300   8.586
  168POPC   D2A 5140  38.905  15.038   8.365
  168POPC   C3A 5141  38.942  15.161   7.986
  168POPC   C4A 5142  38.951  14.871   7.685
  168POPC   C1B 5143  39.514  14.990   8.678
  168POPC   C2B 5144  39.407  15.001   8.222
  168POPC   C3B 5145  39.402  15.060   7.757
  168POPC   C4B 5146  39.721  15.237   7.472
  169POPC   NC3 5147  24.847  20.179   9.599
  169POPC   PO4 5148  24.319  19.841   9.720
  169POPC   GL1 5149  24.491  19.930   9.309
  169POPC   GL2 5150  24.237  20.095   9.110
  169POPC   C1A 5151  24.533  19.695   8.915
  169POPC   D2A 5152  24.469  19.652   8.474
  169POPC   C3A 5153  24.786  19.533   8.162
  169POPC   C4A 5154  24.622  19.625   7.761
  169POPC   C1B 5155  24.149  20.076   8.639
  169POPC   C2B 5156  24.294  20.069   8.199
  169POPC   C3B 5157  24.213  19.941   7.750
  169POPC   C4B 5158  23.901  19.770   7.426
  170POPC   NC3 5159  12.599  12.920   9.729
  170POPC   PO4 5160  12.774  13.200   9.178
  170POPC   GL1 5161  12.843  12.738   9.012
  170POPC   GL2 5162  13.213  12.599   8.988
  170POPC   C1A 5163  12.594  12.677   8.620
  170POPC   D2A 5164  12.644  13.079   8.398
  170POPC   C3A 5165  12.860  13.052   8.038
  170POPC   C4A 5166  12.631  12.825   7.772
  170POPC   C1B 5167  13.088  12.778   8.570
  170POPC   C2B 5168  12.944  12.577   8.186
  170POPC   C3B 5169  13.098  12.649   7.749
  170POPC   C4B 5170  13.012  12.588   7.303
  171POPC   NC3 5171  31.456   9.975   9.452
  171POPC   PO4 5172  31.636   9.403   9.769
  171POPC   GL1 5173  31.669   9.493   9.285
  171POPC   GL2 5174  31.304   9.547   9.191
  171POPC   C1A 5175  31.658   9.752   8.859
  171POPC   D2A 5176  31.853  10.003   8.549
  171POPC   C3A 5177  31.789   9.828   8.136
  171POPC   C4A 5178  31.589   9.992   7.768
  171POPC   C1B 5179  31.161   9.695   8.793
  171POPC   C2B 5180  31.324   9.667   8.394
  171POPC   C3B 5181  31.293   9.625   7.964
  171POPC   C4B 5182  31.425   9.445   7.572
  172POPC   NC3 5183  26.705  19.792   9.412
  172POPC   PO4 5184  27.394  19.603   9.469
  172POPC   GL1 5185  27.039  19.484   9.141
  172POPC   GL2 5186  26.661  19.465   9.032
  172POPC   C1A 5187  26.983  19.793   8.776
  172POPC   D2A 5188  26.720  19.925   8.438
  172POPC   C3A 5189  26.901  19.910   8.062
  172POPC   C4A 5190  26.860  19.948   7.647
  172POPC   C1B 5191  26.750  19.354   8.626
  172POPC   C2B 5192  26.836  19.419   8.189
  172POPC   C3B 5193  26.622  19.531   7.803
  172POPC   C4B 5194  26.703  19.542   7.361
  173POPC   NC3 5195  33.887  34.652   9.562
  173POPC   PO4 5196  33.441  34.953   9.179
  173POPC   GL1 5197  33.729  34.736   8.965
  173POPC   GL2 5198  33.955  34.929   9.120
  173POPC   C1A 5199  33.857  34.597   8.542
  173POPC   D2A 5200  34.021  34.327   8.231
  173POPC   C3A 5201  33.731  34.451   7.867
  173POPC   C4A 5202  33.490  34.868   7.820
  173POPC   C1B 5203  34.152  34.946   8.769
  173POPC   C2B 5204  34.142  35.052   8.368
  173POPC   C3B 5205  34.079  34.784   8.023
  173POPC   C4B 5206  34.264  34.407   7.798
  174POPC   NC3 5207  11.822   4.246   9.861
  174POPC   PO4 5208  12.117   4.720   9.501
  174POPC   GL1 5209  12.148   4.578   9.093
  174POPC   GL2 5210  12.132   4.207   9.133
  174POPC   C1A 5211  12.092   4.571   8.668
  174POPC   D2A 5212  11.919   4.457   8.282
  174POPC   C3A 5213  12.191   4.583   7.951
  174POPC   C4A 5214  12.277   4.519   7.496
  174POPC   C1B 5215  12.383   4.179   8.750
  174POPC   C2B 5216  12.399   4.298   8.337
  174POPC   C3B 5217  12.304   4.088   7.932
  174POPC   C4B 5218  12.185   3.895   7.541
  175POPC   NC3 5219  15.613   8.502   9.462
  175POPC   PO4 5220  15.111   8.957   9.610
  175POPC   GL1 5221  15.283   9.024   9.215
  175POPC   GL2 5222  14.951   9.047   9.095
  175POPC   C1A 5223  15.478   8.805   8.848
  175POPC   D2A 5224  15.711   8.684   8.458
  175POPC   C3A 5225  15.463   8.648   8.067
  175POPC   C4A 5226  15.350   8.930   7.730
  175POPC   C1B 5227  14.975   8.853   8.714
  175POPC   C2B 5228  14.894   8.701   8.330
  175POPC   C3B 5229  14.930   8.876   7.989
  175POPC   C4B 5230  14.773   8.761   7.626
  176POPC   NC3 5231  18.969  19.931   9.589
  176POPC   PO4 5232  19.572  20.104   9.437
  176POPC   GL1 5233  19.208  20.084   9.173
  176POPC   GL2 5234  19.211  19.740   9.122
  176POPC   C1A 5235  19.100  20.076   8.738
  176POPC   D2A 5236  19.206  19.820   8.352
  176POPC   C3A 5237  19.129  19.974   7.948
  176POPC   C4A 5238  19.412  20.265   7.729
  176POPC   C1B 5239  18.953  19.566   8.813
  176POPC   C2B 5240  18.757  19.612   8.411
  176POPC   C3B 5241  18.884  19.482   7.991
  176POPC   C4B 5242  19.268  19.497   7.771
  177POPC   NC3 5243  25.884   6.419   9.554
  177POPC   PO4 5244  25.706   7.129   9.513
  177POPC   GL1 5245  25.846   6.814   9.217
  177POPC   GL2 5246  26.159   6.843   9.081
  177POPC   C1A 5247  25.797   6.589   8.822
  177POPC   D2A 5248  25.732   6.698   8.396
  177POPC   C3A 5249  25.978   6.443   8.147
  177POPC   C4A 5250  25.935   6.264   7.746
  177POPC   C1B 5251  26.328   6.685   8.717
  177POPC   C2B 5252  26.480   6.556   8.323
  177POPC   C3B 5253  26.388   6.741   7.939
  177POPC   C4B 5254  26.483   6.824   7.528
  178POPC   NC3 5255  32.639  11.692   9.316
  178POPC   PO4 5256  33.291  11.506   9.652
  178POPC   GL1 5257  33.059  11.442   9.209
  178POPC   GL2 5258  33.048  11.142   9.055
  178POPC   C1A 5259  32.857  11.451   8.740
  178POPC   D2A 5260  33.058  11.429   8.341
  178POPC   C3A 5261  32.737  11.429   8.049
  178POPC   C4A 5262  32.912  11.335   7.680
  178POPC   C1B 5263  32.838  10.902   8.728
  178POPC   C2B 5264  32.777  11.010   8.366
  178POPC   C3B 5265  32.955  10.968   8.005
  178POPC   C4B 5266  32.865  10.844   7.587
  179POPC   NC3 5267   8.498   4.475   9.390
  179POPC   PO4 5268   8.075   3.977   9.621
  179POPC   GL1 5269   8.127   4.139   9.184
  179POPC   GL2 5270   8.130   4.486   8.996
  179POPC   C1A 5271   8.206   4.067   8.747
  179POPC   D2A 5272   8.112   4.378   8.445
  179POPC   C3A 5273   7.952   4.225   8.055
  179POPC   C4A 5274   7.927   4.493   7.718
  179POPC   C1B 5275   8.534   4.480   8.739
  179POPC   C2B 5276   8.652   4.428   8.331
  179POPC   C3B 5277   8.395   4.467   7.984
  179POPC   C4B 5278   8.390   4.664   7.570
  180POPC   NC3 5279  27.829  37.811   9.489
  180POPC   PO4 5280  27.122  37.871   9.489
  180POPC   GL1 5281  27.407  37.805   9.105
  180POPC   GL2 5282  27.725  37.978   9.003
  180POPC   C1A 5283  27.625  37.585   8.713
  180POPC   D2A 5284  27.800  37.592   8.272
  180POPC   C3A 5285  27.588  37.510   7.894
  180POPC   C4A 5286  27.536  37.493   7.422
  180POPC   C1B 5287  27.877  38.235   8.672
  180POPC   C2B 5288  27.758  38.290   8.250
  180POPC   C3B 5289  27.891  38.006   7.994
  180POPC   C4B 5290  28.074  37.961   7.627
  181POPC   NC3 5291  29.059  10.482   9.484
  181POPC   PO4 5292  28.684   9.940   9.554
  181POPC   GL1 5293  28.858  10.109   9.146
  181POPC   GL2 5294  29.257  10.201   9.092
  181POPC   C1A 5295  28.926  10.274   8.737
  181POPC   D2A 5296  29.193  10.276   8.400
  181POPC   C3A 5297  29.013  10.575   8.119
  181POPC   C4A 5298  29.038  10.591   7.677
  181POPC   C1B 5299  29.506  10.449   8.801
  181POPC   C2B 5300  29.608  10.696   8.424
  181POPC   C3B 5301  29.499  10.493   8.040
  181POPC   C4B 5302  29.525  10.400   7.627
  182POPC   NC3 5303  14.901  24.948   9.237
  182POPC   PO4 5304  15.185  25.439   9.629
  182POPC   GL1 5305  15.258  25.503   9.212
  182POPC   GL2 5306  14.984  25.407   9.032
  182POPC   C1A 5307  15.478  25.535   8.846
  182POPC   D2A 5308  15.475  25.331   8.469
  182POPC   C3A 5309  15.171  25.389   8.163
  182POPC   C4A 5310  15.332  25.278   7.788
  182POPC   C1B 5311  14.957  25.237   8.610
  182POPC   C2B 5312  14.931  24.917   8.290
  182POPC   C3B 5313  15.047  24.854   7.866
  182POPC   C4B 5314  14.882  25.031   7.478
  183POPC   NC3 5315  14.013  18.209   9.655
  183POPC   PO4 5316  13.511  17.884   9.305
  183POPC   GL1 5317  13.711  18.307   9.191
  183POPC   GL2 5318  13.441  18.362   9.004
  183POPC   C1A 5319  13.913  18.430   8.807
  183POPC   D2A 5320  13.955  18.299   8.368
  183POPC   C3A 5321  13.718  18.446   8.011
  183POPC   C4A 5322  13.675  18.199   7.639
  183POPC   C1B 5323  13.584  18.070   8.643
  183POPC   C2B 5324  13.548  17.988   8.163
  183POPC   C3B 5325  13.196  17.988   7.835
  183POPC   C4B 5326  12.933  17.805   7.466
  184POPC   NC3 5327  25.390  25.059   9.232
  184POPC   PO4 5328  25.317  24.590   9.693
  184POPC   GL1 5329  25.248  24.479   9.203
  184POPC   GL2 5330  25.252  24.689   8.917
  184POPC   C1A 5331  25.114  24.197   8.801
  184POPC   D2A 5332  25.058  24.136   8.324
  184POPC   C3A 5333  25.418  24.295   8.053
  184POPC   C4A 5334  25.451  24.480   7.621
  184POPC   C1B 5335  25.041  24.948   8.606
  184POPC   C2B 5336  25.062  24.706   8.242
  184POPC   C3B 5337  25.259  24.844   7.905
  184POPC   C4B 5338  25.108  24.846   7.503
  185POPC   NC3 5339  44.240  20.621   9.506
  185POPC   PO4 5340  43.586  20.902   9.424
  185POPC   GL1 5341  43.897  20.694   9.111
  185POPC   GL2 5342  43.963  20.382   9.112
  185POPC   C1A 5343  44.081  20.589   8.674
  185POPC   D2A 5344  43.879  20.698   8.293
  185POPC   C3A 5345  44.205  20.801   8.033
  185POPC   C4A 5346  44.146  20.674   7.615
  185POPC   C1B 5347  43.876  20.133   8.793
  185POPC   C2B 5348  43.823  20.199   8.404
  185POPC   C3B 5349  44.093  20.277   8.082
  185POPC   C4B 5350  43.935  20.206   7.696
  186POPC   NC3 5351  38.447  32.577   9.537
  186POPC   PO4 5352  38.227  31.944   9.645
  186POPC   GL1 5353  38.437  32.048   9.211
  186POPC   GL2 5354  38.566  32.391   9.088
  186POPC   C1A 5355  38.237  32.149   8.778
  186POPC   D2A 5356  38.364  32.414   8.399
  186POPC   C3A 5357  38.173  32.323   7.980
  186POPC   C4A 5358  38.231  32.506   7.550
  186POPC   C1B 5359  38.727  32.212   8.736
  186POPC   C2B 5360  38.858  32.318   8.335
  186POPC   C3B 5361  38.683  32.269   7.910
  186POPC   C4B 5362  38.692  31.915   7.602
  187POPC   NC3 5363  42.070   5.365   9.410
  187POPC   PO4 5364  42.507   5.131   9.864
  187POPC   GL1 5365  42.418   4.999   9.310
  187POPC   GL2 5366  42.084   4.983   9.079
  187POPC   C1A 5367  42.460   4.905   8.787
  187POPC   D2A 5368  42.455   5.161   8.390
  187POPC   C3A 5369  42.306   5.014   7.971
  187POPC   C4A 5370  42.444   5.235   7.603
  187POPC   C1B 5371  42.039   5.264   8.691
  187POPC   C2B 5372  42.038   5.438   8.235
  187POPC   C3B 5373  41.918   5.291   7.799
  187POPC   C4B 5374  42.036   5.394   7.373
  188POPC   NC3 5375   4.569  19.576   9.366
  188POPC   PO4 5376   4.286  20.159   9.483
  188POPC   GL1 5377   4.361  19.975   9.134
  188POPC   GL2 5378   4.102  19.716   9.204
  188POPC   C1A 5379   4.654  19.907   8.798
  188POPC   D2A 5380   4.502  19.773   8.400
  188POPC   C3A 5381   4.760  19.896   8.046
  188POPC   C4A 5382   4.376  19.941   7.846
  188POPC   C1B 5383   4.075  19.628   8.778
  188POPC   C2B 5384   4.089  19.427   8.388
  188POPC   C3B 5385   4.015  19.598   7.999
  188POPC   C4B 5386   4.130  19.455   7.609
  189POPC   NC3 5387   2.998  22.658   9.553
  189POPC   PO4 5388   2.408  22.951   9.395
  189POPC   GL1 5389   2.733  22.891   9.109
  189POPC   GL2 5390   2.824  22.520   9.080
  189POPC   C1A 5391   2.691  23.128   8.690
  189POPC   D2A 5392   2.492  23.188   8.257
  189POPC   C3A 5393   2.669  22.955   7.866
  189POPC   C4A 5394   2.705  22.788   7.416
  189POPC   C1B 5395   3.006  22.721   8.712
  189POPC   C2B 5396   2.951  22.887   8.298
  189POPC   C3B 5397   3.142  22.763   7.923
  189POPC   C4B 5398   3.203  22.813   7.477
  190POPC   NC3 5399  44.435  16.150   9.552
  190POPC   PO4 5400  44.776  15.571   9.498
  190POPC   GL1 5401  44.687  15.862   9.134
  190POPC   GL2 5402   0.020  16.013   9.004
  190POPC   C1A 5403  44.619  16.044   8.687
  190POPC   D2A 5404  44.416  15.956   8.268
  190POPC   C3A 5405  44.533  16.120   7.857
  190POPC   C4A 5406  44.937  16.246   7.728
  190POPC   C1B 5407  44.967  15.653   8.755
  190POPC   C2B 5408  44.826  15.600   8.342
  190POPC   C3B 5409  44.923  15.766   7.936
  190POPC   C4B 5410  44.804  15.792   7.499
  191POPC   NC3 5411  20.876  35.989   9.564
  191POPC   PO4 5412  20.303  36.303   9.658
  191POPC   GL1 5413  20.484  36.190   9.226
  191POPC   GL2 5414  20.739  35.921   9.105
  191POPC   C1A 5415  20.317  36.013   8.831
  191POPC   D2A 5416  20.238  36.174   8.419
  191POPC   C3A 5417  20.563  36.111   8.149
  191POPC   C4A 5418  20.550  36.179   7.721
  191POPC   C1B 5419  20.761  35.704   8.749
  191POPC   C2B 5420  20.925  35.812   8.354
  191POPC   C3B 5421  20.867  35.766   7.924
  191POPC   C4B 5422  20.933  35.897   7.510
  192POPC   NC3 5423  38.772   4.170   9.477
  192POPC   PO4 5424  38.073   4.094   9.465
  192POPC   GL1 5425  38.383   4.241   9.138
  192POPC   GL2 5426  38.231   4.465   8.974
  192POPC   C1A 5427  38.604   4.307   8.693
  192POPC   D2A 5428  38.682   4.694   8.408
  192POPC   C3A 5429  38.638   4.610   7.966
  192POPC   C4A 5430  38.640   4.210   7.866
  192POPC   C1B 5431  38.087   4.097   8.743
  192POPC   C2B 5432  38.213   4.106   8.326
  192POPC   C3B 5433  38.149   4.363   7.981
  192POPC   C4B 5434  38.272   4.360   7.557
  193POPC   NC3 5435   3.000  36.439   9.803
  193POPC   PO4 5436   3.613  36.365   9.487
  193POPC   GL1 5437   3.681  36.147   9.132
  193POPC   GL2 5438   3.719  35.795   9.196
  193POPC   C1A 5439   3.601  36.156   8.705
  193POPC   D2A 5440   3.780  35.934   8.394
  193POPC   C3A 5441   3.670  36.176   8.069
  193POPC   C4A 5442   3.631  36.048   7.664
  193POPC   C1B 5443   3.606  35.650   8.798
  193POPC   C2B 5444   3.373  35.587   8.442
  193POPC   C3B 5445   3.476  35.704   8.020
  193POPC   C4B 5446   3.281  35.628   7.608
  194POPC   NC3 5447  13.696  25.550   9.385
  194POPC   PO4 5448  13.668  24.830   9.395
  194POPC   GL1 5449  13.456  25.170   9.119
  194POPC   GL2 5450  13.668  25.440   8.908
  194POPC   C1A 5451  13.329  25.148   8.682
  194POPC   D2A 5452  13.219  25.443   8.367
  194POPC   C3A 5453  13.220  25.418   7.955
  194POPC   C4A 5454  13.400  25.273   7.589
  194POPC   C1B 5455  13.741  25.413   8.471
  194POPC   C2B 5456  13.554  25.116   8.194
  194POPC   C3B 5457  13.551  24.869   7.846
  194POPC   C4B 5458  13.847  25.018   7.552
  195POPC   NC3 5459  23.001  28.246   9.387
  195POPC   PO4 5460  22.413  28.573   9.596
  195POPC   GL1 5461  22.664  28.605   9.169
  195POPC   GL2 5462  23.036  28.672   9.080
  195POPC   C1A 5463  22.787  28.355   8.779
  195POPC   D2A 5464  22.914  28.029   8.471
  195POPC   C3A 5465  22.865  28.162   8.053
  195POPC   C4A 5466  22.600  28.526   7.935
  195POPC   C1B 5467  23.279  28.473   8.711
  195POPC   C2B 5468  23.298  28.334   8.264
  195POPC   C3B 5469  23.153  28.504   7.811
  195POPC   C4B 5470  23.198  28.547   7.335
  196POPC   NC3 5471  14.003  24.989   9.673
  196POPC   PO4 5472  13.976  24.254   9.478
  196POPC   GL1 5473  13.688  24.371   9.115
  196POPC   GL2 5474  13.393  24.137   9.021
  196POPC   C1A 5475  13.818  24.584   8.712
  196POPC   D2A 5476  13.673  24.635   8.293
  196POPC   C3A 5477  13.975  24.607   7.950
  196POPC   C4A 5478  13.938  24.246   7.696
  196POPC   C1B 5479  13.340  24.431   8.676
  196POPC   C2B 5480  13.217  24.389   8.252
  196POPC   C3B 5481  13.416  24.349   7.871
  196POPC   C4B 5482  13.386  24.088   7.464
  197POPC   NC3 5483  32.083  12.329   9.517
  197POPC   PO4 5484  31.854  11.698   9.461
  197POPC   GL1 5485  32.186  11.914   9.177
  197POPC   GL2 5486  32.142  12.272   9.016
  197POPC   C1A 5487  32.373  11.925   8.740
  197POPC   D2A 5488  32.511  12.018   8.318
  197POPC   C3A 5489  32.213  12.085   7.987
  197POPC   C4A 5490  32.242  12.220   7.557
  197POPC   C1B 5491  31.830  12.331   8.663
  197POPC   C2B 5492  31.806  12.301   8.204
  197POPC   C3B 5493  31.767  12.238   7.734
  197POPC   C4B 5494  31.869  12.480   7.304
  198POPC   NC3 5495  29.201  18.056   9.430
  198POPC   PO4 5496  29.292  18.692   9.585
  198POPC   GL1 5497  29.224  18.557   9.128
  198POPC   GL2 5498  28.944  18.316   9.090
  198POPC   C1A 5499  28.995  18.615   8.696
  198POPC   D2A 5500  28.879  18.442   8.265
  198POPC   C3A 5501  29.170  18.478   7.878
  198POPC   C4A 5502  28.906  18.612   7.572
  198POPC   C1B 5503  29.009  18.102   8.717
  198POPC   C2B 5504  29.251  18.113   8.358
  198POPC   C3B 5505  29.135  18.000   7.951
  198POPC   C4B 5506  29.495  18.088   7.653
  199POPC   NC3 5507  35.261  28.336   9.531
  199POPC   PO4 5508  35.688  28.803   9.432
  199POPC   GL1 5509  35.588  28.465   9.141
  199POPC   GL2 5510  35.253  28.411   9.031
  199POPC   C1A 5511  35.660  28.330   8.706
  199POPC   D2A 5512  35.312  28.383   8.405
  199POPC   C3A 5513  35.258  28.332   7.957
  199POPC   C4A 5514  35.463  28.267   7.539
  199POPC   C1B 5515  35.092  28.110   8.775
  199POPC   C2B 5516  34.892  28.097   8.367
  199POPC   C3B 5517  34.878  27.993   7.896
  199POPC   C4B 5518  34.950  28.125   7.405
  200POPC   NC3 5519  25.637  43.444   9.213
  200POPC   PO4 5520  26.023  42.919   9.390
  200POPC   GL1 5521  26.112  43.068   9.052
  200POPC   GL2 5522  26.130  43.419   9.072
  200POPC   C1A 5523  25.919  42.967   8.656
  200POPC   D2A 5524  25.704  43.142   8.306
  200POPC   C3A 5525  25.907  43.184   7.901
  200POPC   C4A 5526  25.946  42.900   7.574
  200POPC   C1B 5527  26.357  43.276   8.679
  200POPC   C2B 5528  26.254  43.070   8.277
  200POPC   C3B 5529  26.395  43.002   7.820
  200POPC   C4B 5530  26.283  43.263   7.462
  201POPC   NC3 5531  38.710   8.629   9.774
  201POPC   PO4 5532  38.175   8.874   9.490
  201POPC   GL1 5533  38.448   9.045   9.130
  201POPC   GL2 5534  38.196   9.149   8.944
  201POPC   C1A 5535  38.699   9.081   8.712
  201POPC   D2A 5536  38.700   8.828   8.299
  201POPC   C3A 5537  38.749   8.985   7.896
  201POPC   C4A 5538  38.674   8.807   7.489
  201POPC   C1B 5539  37.934   9.261   8.606
  201POPC   C2B 5540  37.967   9.559   8.276
  201POPC   C3B 5541  38.283   9.522   7.933
  201POPC   C4B 5542  38.396   9.224   7.628
  202POPC   NC3 5543  23.307   8.869   9.344
  202POPC   PO4 5544  22.867   9.308   9.554
  202POPC   GL1 5545  22.778   9.087   9.179
  202POPC   GL2 5546  22.721   8.730   9.247
  202POPC   C1A 5547  22.989   9.030   8.780
  202POPC   D2A 5548  23.225   8.842   8.473
  202POPC   C3A 5549  23.150   8.999   8.115
  202POPC   C4A 5550  23.195   8.954   7.697
  202POPC   C1B 5551  22.550   8.722   8.828
  202POPC   C2B 5552  22.726   8.707   8.410
  202POPC   C3B 5553  22.728   8.786   7.979
  202POPC   C4B 5554  22.691   8.813   7.536
  203POPC   NC3 5555   4.719  37.660   9.594
  203POPC   PO4 5556   4.139  37.267   9.746
  203POPC   GL1 5557   4.294  37.618   9.356
  203POPC   GL2 5558   4.151  37.934   9.201
  203POPC   C1A 5559   4.500  37.600   8.946
  203POPC   D2A 5560   4.596  37.581   8.497
  203POPC   C3A 5561   4.393  37.858   8.161
  203POPC   C4A 5562   4.359  37.654   7.741
  203POPC   C1B 5563   3.967  38.084   8.777
  203POPC   C2B 5564   3.879  37.927   8.316
  203POPC   C3B 5565   3.931  37.919   7.837
  203POPC   C4B 5566   4.015  37.993   7.350
  204POPC   NC3 5567  32.124  31.830   9.359
  204POPC   PO4 5568  32.534  31.357   9.354
  204POPC   GL1 5569  32.414  31.126   9.015
  204POPC   GL2 5570  32.136  31.348   8.947
  204POPC   C1A 5571  32.527  31.195   8.592
  204POPC   D2A 5572  32.218  31.508   8.436
  204POPC   C3A 5573  32.253  31.705   8.050
  204POPC   C4A 5574  32.287  31.485   7.664
  204POPC   C1B 5575  31.865  31.674   8.799
  204POPC   C2B 5576  31.805  31.832   8.436
  204POPC   C3B 5577  31.725  31.690   8.041
  204POPC   C4B 5578  31.907  31.831   7.656
  205POPC   NC3 5579  16.206   9.707   9.765
  205POPC   PO4 5580  15.605   9.820   9.507
  205POPC   GL1 5581  15.835   9.844   9.119
  205POPC   GL2 5582  16.096   9.614   9.201
  205POPC   C1A 5583  15.685   9.767   8.675
  205POPC   D2A 5584  15.560   9.998   8.291
  205POPC   C3A 5585  15.709   9.814   7.939
  205POPC   C4A 5586  16.112   9.897   7.816
  205POPC   C1B 5587  16.157   9.493   8.756
  205POPC   C2B 5588  16.047   9.608   8.315
  205POPC   C3B 5589  16.046   9.406   7.896
  205POPC   C4B 5590  16.326   9.529   7.534
  206POPC   NC3 5591   9.561  44.853   9.501
  206POPC   PO4 5592   9.944  44.367   9.491
  206POPC   GL1 5593   9.680  44.536   9.125
  206POPC   GL2 5594   9.449  44.815   9.020
  206POPC   C1A 5595   9.833  44.584   8.725
  206POPC   D2A 5596  10.109  44.638   8.408
  206POPC   C3A 5597   9.912  44.729   8.038
  206POPC   C4A 5598   9.992  44.595   7.687
  206POPC   C1B 5599   9.338  44.746   8.618
  206POPC   C2B 5600   9.531  44.499   8.289
  206POPC   C3B 5601   9.455  44.526   7.847
  206POPC   C4B 5602   9.583  44.685   7.440
  207POPC   NC3 5603  42.842  26.621   9.272
  207POPC   PO4 5604  43.416  26.901   9.537
  207POPC   GL1 5605  43.257  26.892   9.142
  207POPC   GL2 5606  43.450  27.120   8.978
  207POPC   C1A 5607  43.084  26.861   8.703
  207POPC   D2A 5608  42.838  27.073   8.387
  207POPC   C3A 5609  42.923  27.081   7.964
  207POPC   C4A 5610  42.820  26.784   7.635
  207POPC   C1B 5611  43.581  26.721   8.793
  207POPC   C2B 5612  43.482  26.641   8.362
  207POPC   C3B 5613  43.429  26.984   8.052
  207POPC   C4B 5614  43.265  27.034   7.600
  208POPC   NC3 5615   8.809  43.455   9.355
  208POPC   PO4 5616   9.262  43.048   9.627
  208POPC   GL1 5617   9.162  42.985   9.177
  208POPC   GL2 5618   8.813  42.937   9.134
  208POPC   C1A 5619   9.066  43.214   8.771
  208POPC   D2A 5620   9.139  43.180   8.328
  208POPC   C3A 5621   9.238  43.389   7.933
  208POPC   C4A 5622   8.913  43.279   7.652
  208POPC   C1B 5623   8.914  42.720   8.743
  208POPC   C2B 5624   8.783  42.772   8.346
  208POPC   C3B 5625   8.893  42.878   7.959
  208POPC   C4B 5626   8.738  42.751   7.564
  209POPC   NC3 5627  10.851  23.307   9.695
  209POPC   PO4 5628  11.391  22.978   9.509
  209POPC   GL1 5629  11.297  23.014   9.135
  209POPC   GL2 5630  10.981  23.205   9.197
  209POPC   C1A 5631  11.440  22.824   8.768
  209POPC   D2A 5632  11.682  22.896   8.392
  209POPC   C3A 5633  11.439  22.873   8.034
  209POPC   C4A 5634  11.301  23.222   7.771
  209POPC   C1B 5635  10.941  23.057   8.789
  209POPC   C2B 5636  11.093  22.931   8.424
  209POPC   C3B 5637  10.938  22.965   8.051
  209POPC   C4B 5638  10.813  23.091   7.693
  210POPC   NC3 5639  17.524  42.026   9.624
  210POPC   PO4 5640  17.851  42.673   9.459
  210POPC   GL1 5641  17.730  42.487   9.072
  210POPC   GL2 5642  17.670  42.226   9.141
  210POPC   C1A 5643  17.375  42.503   8.762
  210POPC   D2A 5644  17.220  42.610   8.365
  210POPC   C3A 5645  17.295  42.422   7.958
  210POPC   C4A 5646  17.190  42.577   7.555
  210POPC   C1B 5647  17.691  42.109   8.695
  210POPC   C2B 5648  17.767  42.415   8.404
  210POPC   C3B 5649  17.758  42.598   8.037
  210POPC   C4B 5650  17.779  42.294   7.672
  211POPC   NC3 5651  27.741  28.532   9.336
  211POPC   PO4 5652  27.237  28.262   9.653
  211POPC   GL1 5653  27.431  28.175   9.136
  211POPC   GL2 5654  27.807  28.213   8.951
  211POPC   C1A 5655  27.405  28.275   8.675
  211POPC   D2A 5656  27.802  28.280   8.426
  211POPC   C3A 5657  27.707  28.161   8.014
  211POPC   C4A 5658  27.365  28.428   7.878
  211POPC   C1B 5659  28.009  28.639   8.749
  211POPC   C2B 5660  28.103  28.771   8.327
  211POPC   C3B 5661  27.866  28.630   7.990
  211POPC   C4B 5662  27.858  28.584   7.540
  212POPC   NC3 5663   2.129  30.114   9.394
  212POPC   PO4 5664   1.861  29.514   9.479
  212POPC   GL1 5665   1.868  29.762   9.139
  212POPC   GL2 5666   2.205  29.743   9.018
  212POPC   C1A 5667   1.746  29.958   8.785
  212POPC   D2A 5668   1.685  29.972   8.367
  212POPC   C3A 5669   2.007  29.837   8.130
  212POPC   C4A 5670   1.858  29.867   7.712
  212POPC   C1B 5671   2.240  30.150   8.763
  212POPC   C2B 5672   2.181  30.328   8.367
  212POPC   C3B 5673   2.066  30.297   7.925
  212POPC   C4B 5674   2.265  30.140   7.578
  213POPC   NC3 5675  43.698  30.475   9.584
  213POPC   PO4 5676  43.754  31.164   9.849
  213POPC   GL1 5677  43.834  30.950   9.366
  213POPC   GL2 5678  43.590  30.944   9.080
  213POPC   C1A 5679  43.949  30.632   8.961
  213POPC   D2A 5680  43.701  30.556   8.553
  213POPC   C3A 5681  43.937  30.469   8.161
  213POPC   C4A 5682  44.001  30.449   7.719
  213POPC   C1B 5683  43.822  31.064   8.713
  213POPC   C2B 5684  43.964  30.968   8.283
  213POPC   C3B 5685  43.827  31.034   7.847
  213POPC   C4B 5686  43.781  30.859   7.391
  214POPC   NC3 5687  14.110  24.652   9.272
  214POPC   PO4 5688  14.745  24.553   9.481
  214POPC   GL1 5689  14.603  24.457   9.109
  214POPC   GL2 5690  14.501  24.789   8.987
  214POPC   C1A 5691  14.386  24.375   8.725
  214POPC   D2A 5692  14.139  24.319   8.401
  214POPC   C3A 5693  14.344  24.268   8.035
  214POPC   C4A 5694  14.433  24.395   7.629
  214POPC   C1B 5695  14.506  24.942   8.620
  214POPC   C2B 5696  14.401  24.743   8.285
  214POPC   C3B 5697  14.553  24.762   7.950
  214POPC   C4B 5698  14.361  24.938   7.671
  215POPC   NC3 5699  28.094  12.246   9.642
  215POPC   PO4 5700  28.355  11.703   9.521
  215POPC   GL1 5701  28.425  12.070   9.209
  215POPC   GL2 5702  28.141  12.240   9.030
  215POPC   C1A 5703  28.542  12.122   8.754
  215POPC   D2A 5704  28.461  11.984   8.328
  215POPC   C3A 5705  28.186  12.181   8.026
  215POPC   C4A 5706  28.279  11.992   7.620
  215POPC   C1B 5707  28.098  12.308   8.557
  215POPC   C2B 5708  27.775  12.126   8.329
  215POPC   C3B 5709  27.620  12.123   7.937
  215POPC   C4B 5710  27.843  12.274   7.633
  216POPC   NC3 5711  26.975  37.292   9.483
  216POPC   PO4 5712  26.340  37.582   9.509
  216POPC   GL1 5713  26.585  37.462   9.160
  216POPC   GL2 5714  26.899  37.643   9.087
  216POPC   C1A 5715  26.641  37.386   8.732
  216POPC   D2A 5716  26.626  37.645   8.402
  216POPC   C3A 5717  26.692  37.410   8.097
  216POPC   C4A 5718  26.701  37.403   7.691
  216POPC   C1B 5719  27.103  37.617   8.652
  216POPC   C2B 5720  27.162  37.564   8.185
  216POPC   C3B 5721  27.138  37.645   7.711
  216POPC   C4B 5722  27.182  37.843   7.302
  217POPC   NC3 5723  18.191  28.766   9.473
  217POPC   PO4 5724  18.338  28.074   9.464
  217POPC   GL1 5725  18.356  28.190   9.095
  217POPC   GL2 5726  18.283  28.512   9.051
  217POPC   C1A 5727  18.508  28.188   8.732
  217POPC   D2A 5728  18.369  28.457   8.448
  217POPC   C3A 5729  18.413  28.250   8.046
  217POPC   C4A 5730  18.351  28.455   7.690
  217POPC   C1B 5731  18.011  28.739   8.809
  217POPC   C2B 5732  17.894  28.686   8.428
  217POPC   C3B 5733  18.083  28.663   8.074
  217POPC   C4B 5734  17.924  28.763   7.712
  218POPC   NC3 5735   0.434  42.540   9.546
  218POPC   PO4 5736   0.873  42.050   9.562
  218POPC   GL1 5737   0.607  42.190   9.204
  218POPC   GL2 5738   0.711  42.503   9.072
  218POPC   C1A 5739   0.315  42.165   8.833
  218POPC   D2A 5740   0.130  42.306   8.437
  218POPC   C3A 5741   0.278  42.048   8.091
  218POPC   C4A 5742   0.484  42.147   7.710
  218POPC   C1B 5743   0.640  42.493   8.616
  218POPC   C2B 5744   0.560  42.448   8.178
  218POPC   C3B 5745   0.312  42.634   7.867
  218POPC   C4B 5746   0.701  42.776   7.740
  219POPC   NC3 5747   5.163   4.702   9.580
  219POPC   PO4 5748   5.274   5.274   9.398
  219POPC   GL1 5749   5.148   4.956   9.109
  219POPC   GL2 5750   4.810   4.867   9.237
  219POPC   C1A 5751   5.024   5.028   8.658
  219POPC   D2A 5752   4.982   5.339   8.316
  219POPC   C3A 5753   5.137   5.250   7.886
  219POPC   C4A 5754   5.220   5.436   7.505
  219POPC   C1B 5755   4.785   4.603   8.883
  219POPC   C2B 5756   4.896   4.563   8.459
  219POPC   C3B 5757   5.033   4.817   8.131
  219POPC   C4B 5758   5.017   4.754   7.690
  220POPC   NC3 5759  15.124  23.469   9.317
  220POPC   PO4 5760  14.998  22.919   9.606
  220POPC   GL1 5761  15.109  22.945   9.126
  220POPC   GL2 5762  15.014  23.224   8.897
  220POPC   C1A 5763  15.133  22.793   8.656
  220POPC   D2A 5764  14.876  22.756   8.282
  220POPC   C3A 5765  15.059  22.937   7.892
  220POPC   C4A 5766  15.494  23.016   7.806
  220POPC   C1B 5767  15.474  23.149   8.812
  220POPC   C2B 5768  15.554  23.151   8.374
  220POPC   C3B 5769  15.259  23.389   8.102
  220POPC   C4B 5770  15.285  23.471   7.667
  221POPC   NC3 5771  37.117  26.540   9.505
  221POPC   PO4 5772  36.901  27.218   9.551
  221POPC   GL1 5773  36.837  26.950   9.202
  221POPC   GL2 5774  37.187  26.896   9.156
  221POPC   C1A 5775  36.768  26.889   8.732
  221POPC   D2A 5776  36.580  27.074   8.327
  221POPC   C3A 5777  36.605  26.798   7.945
  221POPC   C4A 5778  36.827  26.684   7.525
  221POPC   C1B 5779  37.277  26.764   8.758
  221POPC   C2B 5780  37.103  26.604   8.385
  221POPC   C3B 5781  37.338  26.612   8.010
  221POPC   C4B 5782  37.289  26.855   7.673
  222POPC   NC3 5783  20.044   5.852   9.493
  222POPC   PO4 5784  19.460   5.795   9.705
  222POPC   GL1 5785  19.590   5.783   9.234
  222POPC   GL2 5786  19.931   5.612   9.058
  222POPC   C1A 5787  19.649   5.935   8.799
  222POPC   D2A 5788  19.897   5.810   8.445
  222POPC   C3A 5789  19.713   5.854   8.048
  222POPC   C4A 5790  19.588   5.620   7.686
  222POPC   C1B 5791  20.164   6.004   8.867
  222POPC   C2B 5792  20.071   6.282   8.534
  222POPC   C3B 5793  20.094   6.184   8.130
  222POPC   C4B 5794  20.055   6.297   7.731
  223POPC   NC3 5795  12.429  16.229   9.359
  223POPC   PO4 5796  11.998  15.712   9.441
  223POPC   GL1 5797  12.069  15.950   9.092
  223POPC   GL2 5798  12.343  15.808   9.028
  223POPC   C1A 5799  12.174  16.162   8.690
  223POPC   D2A 5800  11.894  16.324   8.347
  223POPC   C3A 5801  11.896  16.121   7.940
  223POPC   C4A 5802  11.778  15.883   7.597
  223POPC   C1B 5803  12.240  15.664   8.631
  223POPC   C2B 5804  12.289  15.915   8.239
  223POPC   C3B 5805  12.401  16.177   7.874
  223POPC   C4B 5806  12.167  16.276   7.484
  224POPC   NC3 5807  13.844  35.912   9.539
  224POPC   PO4 5808  13.402  36.413   9.515
  224POPC   GL1 5809  13.539  36.242   9.125
  224POPC   GL2 5810  13.792  35.971   9.036
  224POPC   C1A 5811  13.722  36.412   8.761
  224POPC   D2A 5812  13.636  36.298   8.357
  224POPC   C3A 5813  13.841  36.457   8.033
  224POPC   C4A 5814  13.733  36.468   7.594
  224POPC   C1B 5815  13.724  35.818   8.619
  224POPC   C2B 5816  13.832  35.851   8.190
  224POPC   C3B 5817  13.651  36.004   7.846
  224POPC   C4B 5818  13.763  35.998   7.419
  225POPC   NC3 5819   2.373  10.066   9.811
  225POPC   PO4 5820   1.916   9.542   9.656
  225POPC   GL1 5821   2.144   9.554   9.199
  225POPC   GL2 5822   2.217   9.872   9.032
  225POPC   C1A 5823   2.070   9.477   8.718
  225POPC   D2A 5824   2.158   9.842   8.465
  225POPC   C3A 5825   2.030   9.894   8.039
  225POPC   C4A 5826   2.160  10.010   7.633
  225POPC   C1B 5827   2.540   9.626   8.770
  225POPC   C2B 5828   2.518   9.374   8.405
  225POPC   C3B 5829   2.197   9.412   8.107
  225POPC   C4B 5830   2.083   9.267   7.695
  226POPC   NC3 5831  34.962   9.115   9.675
  226POPC   PO4 5832  34.310   9.172   9.412
  226POPC   GL1 5833  34.425   8.980   9.011
  226POPC   GL2 5834  34.345   8.650   9.093
  226POPC   C1A 5835  34.685   9.024   8.603
  226POPC   D2A 5836  34.864   9.218   8.200
  226POPC   C3A 5837  34.678   9.048   7.841
  226POPC   C4A 5838  34.255   9.035   7.813
  226POPC   C1B 5839  34.309   8.642   8.630
  226POPC   C2B 5840  34.492   8.725   8.230
  226POPC   C3B 5841  34.480   8.577   7.828
  226POPC   C4B 5842  34.574   8.750   7.435
  227POPC   NC3 5843  29.395  28.811   9.388
  227POPC   PO4 5844  28.767  29.108   9.620
  227POPC   GL1 5845  28.902  29.035   9.222
  227POPC   GL2 5846  29.160  29.304   9.219
  227POPC   C1A 5847  28.985  29.043   8.785
  227POPC   D2A 5848  29.135  29.240   8.400
  227POPC   C3A 5849  29.005  29.052   8.061
  227POPC   C4A 5850  29.142  28.818   7.690
  227POPC   C1B 5851  29.259  29.523   8.799
  227POPC   C2B 5852  29.274  29.761   8.389
  227POPC   C3B 5853  29.297  29.594   7.964
  227POPC   C4B 5854  29.100  29.346   7.659
  228POPC   NC3 5855   2.462   0.601   9.391
  228POPC   PO4 5856   2.797  44.964   9.433
  228POPC   GL1 5857   2.765   0.271   9.110
  228POPC   GL2 5858   2.441   0.196   9.103
  228POPC   C1A 5859   2.870   0.317   8.647
  228POPC   D2A 5860   3.165   0.483   8.296
  228POPC   C3A 5861   2.883   0.625   7.973
  228POPC   C4A 5862   2.620   0.238   7.900
  228POPC   C1B 5863   2.368   0.435   8.733
  228POPC   C2B 5864   2.489   0.581   8.321
  228POPC   C3B 5865   2.380   0.677   7.884
  228POPC   C4B 5866   2.384   0.979   7.594
  229POPC   NC3 5867   1.839  19.270   9.392
  229POPC   PO4 5868   2.059  18.653   9.429
  229POPC   GL1 5869   2.022  18.896   9.100
  229POPC   GL2 5870   1.668  18.851   9.087
  229POPC   C1A 5871   1.906  19.120   8.724
  229POPC   D2A 5872   2.028  19.366   8.390
  229POPC   C3A 5873   1.949  19.175   8.009
  229POPC   C4A 5874   1.784  19.209   7.614
  229POPC   C1B 5875   1.660  18.655   8.667
  229POPC   C2B 5876   1.764  18.728   8.235
  229POPC   C3B 5877   1.784  18.733   7.779
  229POPC   C4B 5878   1.645  18.759   7.337
  230POPC   NC3 5879  38.990  22.184   9.669
  230POPC   PO4 5880  39.584  22.329   9.456
  230POPC   GL1 5881  39.337  22.485   9.116
  230POPC   GL2 5882  39.203  22.169   9.087
  230POPC   C1A 5883  39.188  22.429   8.643
  230POPC   D2A 5884  39.135  22.057   8.355
  230POPC   C3A 5885  38.905  22.045   7.970
  230POPC   C4A 5886  39.032  22.418   7.785
  230POPC   C1B 5887  39.573  22.110   8.784
  230POPC   C2B 5888  39.644  21.981   8.334
  230POPC   C3B 5889  39.442  22.085   7.917
  230POPC   C4B 5890  39.412  22.167   7.455
  231POPC   NC3 5891  16.996   6.458   9.581
  231POPC   PO4 5892  16.363   6.304   9.452
  231POPC   GL1 5893  16.689   6.580   9.185
  231POPC   GL2 5894  16.937   6.330   9.089
  231POPC   C1A 5895  16.994   6.756   8.828
  231POPC   D2A 5896  16.974   6.582   8.366
  231POPC   C3A 5897  16.939   6.837   8.029
  231POPC   C4A 5898  16.503   6.865   7.774
  231POPC   C1B 5899  16.723   6.355   8.722
  231POPC   C2B 5900  16.362   6.301   8.526
  231POPC   C3B 5901  16.436   6.523   8.165
  231POPC   C4B 5902  16.739   6.423   7.844
  232POPC   NC3 5903   6.814  33.891   9.274
  232POPC   PO4 5904   6.280  33.386   9.359
  232POPC   GL1 5905   6.541  33.513   9.025
  232POPC   GL2 5906   6.917  33.457   9.038
  232POPC   C1A 5907   6.366  33.755   8.674
  232POPC   D2A 5908   6.145  33.919   8.332
  232POPC   C3A 5909   6.411  33.714   8.055
  232POPC   C4A 5910   6.591  33.792   7.676
  232POPC   C1B 5911   6.885  33.716   8.667
  232POPC   C2B 5912   6.862  33.676   8.258
  232POPC   C3B 5913   7.046  33.767   7.901
  232POPC   C4B 5914   7.032  34.039   7.575
  233POPC   NC3 5915  28.832  25.074   9.336
  233POPC   PO4 5916  29.368  25.479   9.460
  233POPC   GL1 5917  29.236  25.318   9.065
  233POPC   GL2 5918  28.995  25.539   8.910
  233POPC   C1A 5919  29.104  25.056   8.694
  233POPC   D2A 5920  28.823  24.982   8.335
  233POPC   C3A 5921  28.953  25.178   7.916
  233POPC   C4A 5922  28.817  25.552   7.694
  233POPC   C1B 5923  29.337  25.525   8.593
  233POPC   C2B 5924  29.373  25.361   8.164
  233POPC   C3B 5925  29.376  25.522   7.748
  233POPC   C4B 5926  29.586  25.431   7.359
  234POPC   NC3 5927  43.349  28.984   9.470
  234POPC   PO4 5928  42.774  29.341   9.603
  234POPC   GL1 5929  42.893  29.128   9.206
  234POPC   GL2 5930  43.226  29.280   9.081
  234POPC   C1A 5931  42.858  29.182   8.748
  234POPC   D2A 5932  43.183  29.243   8.438
  234POPC   C3A 5933  43.025  29.391   8.078
  234POPC   C4A 5934  43.056  29.263   7.672
  234POPC   C1B 5935  43.339  28.916   8.806
  234POPC   C2B 5936  43.514  28.826   8.404
  234POPC   C3B 5937  43.421  29.002   8.002
  234POPC   C4B 5938  43.512  29.064   7.569
  235POPC   NC3 5939  24.830  24.266   9.475
  235POPC   PO4 5940  24.202  24.614   9.410
  235POPC   GL1 5941  24.549  24.634   9.138
  235POPC   GL2 5942  24.495  24.293   9.094
  235POPC   C1A 5943  24.744  24.550   8.734
  235POPC   D2A 5944  24.582  24.360   8.390
  235POPC   C3A 5945  24.652  24.488   8.008
  235POPC   C4A 5946  24.985  24.408   7.785
  235POPC   C1B 5947  24.229  24.306   8.764
  235POPC   C2B 5948  24.054  24.353   8.365
  235POPC   C3B 5949  24.196  24.269   7.950
  235POPC   C4B 5950  24.162  24.604   7.637
  236POPC   NC3 5951  11.568  35.058   9.608
  236POPC   PO4 5952  12.220  35.258   9.660
  236POPC   GL1 5953  12.002  35.190   9.287
  236POPC   GL2 5954  12.311  35.192   9.137
  236POPC   C1A 5955  11.856  35.245   8.867
  236POPC   D2A 5956  11.828  35.131   8.431
  236POPC   C3A 5957  12.018  35.388   8.106
  236POPC   C4A 5958  12.056  35.246   7.689
  236POPC   C1B 5959  12.510  35.072   8.769
  236POPC   C2B 5960  12.355  35.134   8.378
  236POPC   C3B 5961  12.184  34.879   8.068
  236POPC   C4B 5962  12.473  34.871   7.734
  237POPC   NC3 5963  29.068  38.202   9.512
  237POPC   PO4 5964  29.474  38.701   9.528
  237POPC   GL1 5965  29.260  38.534   9.166
  237POPC   GL2 5966  28.915  38.443   9.097
  237POPC   C1A 5967  29.342  38.594   8.761
  237POPC   D2A 5968  29.130  38.608   8.371
  237POPC   C3A 5969  29.357  38.528   8.013
  237POPC   C4A 5970  29.272  38.675   7.627
  237POPC   C1B 5971  28.970  38.213   8.689
  237POPC   C2B 5972  29.135  38.091   8.260
  237POPC   C3B 5973  29.081  38.159   7.803
  237POPC   C4B 5974  28.876  38.084   7.401
  238POPC   NC3 5975  15.624  15.242   9.294
  238POPC   PO4 5976  16.195  14.885   9.469
  238POPC   GL1 5977  15.976  14.941   9.096
  238POPC   GL2 5978  16.043  15.283   8.966
  238POPC   C1A 5979  15.686  14.972   8.719
  238POPC   D2A 5980  15.698  15.133   8.286
  238POPC   C3A 5981  16.066  15.018   8.002
  238POPC   C4A 5982  16.038  14.925   7.561
  238POPC   C1B 5983  15.798  15.573   8.706
  238POPC   C2B 5984  15.518  15.680   8.347
  238POPC   C3B 5985  15.611  15.628   7.899
  238POPC   C4B 5986  16.009  15.425   7.703
  239POPC   NC3 5987  10.641  34.786   9.347
  239POPC   PO4 5988  10.855  34.213   9.212
  239POPC   GL1 5989  10.500  34.401   9.016
  239POPC   GL2 5990  10.370  34.756   8.927
  239POPC   C1A 5991  10.548  34.336   8.602
  239POPC   D2A 5992  10.474  34.483   8.235
  239POPC   C3A 5993  10.627  34.276   7.926
  239POPC   C4A 5994  10.498  34.369   7.535
  239POPC   C1B 5995  10.699  34.871   8.653
  239POPC   C2B 5996  10.626  34.966   8.216
  239POPC   C3B 5997  10.427  34.806   7.826
  239POPC   C4B 5998  10.015  34.860   7.644
  240POPC   NC3 5999   5.175   2.366   9.580
  240POPC   PO4 6000   4.707   1.846   9.470
  240POPC   GL1 6001   5.025   1.930   9.177
  240POPC   GL2 6002   4.788   1.916   8.957
  240POPC   C1A 6003   5.247   1.902   8.770
  240POPC   D2A 6004   5.409   2.108   8.408
  240POPC   C3A 6005   5.440   1.875   8.026
  240POPC   C4A 6006   5.472   2.201   7.760
  240POPC   C1B 6007   4.665   2.143   8.652
  240POPC   C2B 6008   4.903   2.109   8.353
  240POPC   C3B 6009   4.810   2.073   7.963
  240POPC   C4B 6010   5.046   1.958   7.654
  241POPC   NC3 6011  33.184  28.838   9.198
  241POPC   PO4 6012  33.144  29.210   9.699
  241POPC   GL1 6013  33.061  29.351   9.233
  241POPC   GL2 6014  33.373  29.285   9.052
  241POPC   C1A 6015  32.833  29.263   8.792
  241POPC   D2A 6016  32.994  29.130   8.395
  241POPC   C3A 6017  32.705  29.013   8.068
  241POPC   C4A 6018  32.742  29.044   7.615
  241POPC   C1B 6019  33.560  28.990   8.727
  241POPC   C2B 6020  33.434  28.818   8.327
  241POPC   C3B 6021  33.177  28.905   7.966
  241POPC   C4B 6022  32.981  28.627   7.720
  242POPC   NC3 6023   5.472  32.650   9.454
  242POPC   PO4 6024   5.011  33.204   9.648
  242POPC   GL1 6025   5.072  33.149   9.204
  242POPC   GL2 6026   5.128  32.799   9.089
  242POPC   C1A 6027   4.925  33.229   8.785
  242POPC   D2A 6028   4.829  33.064   8.371
  242POPC   C3A 6029   5.094  33.198   8.029
  242POPC   C4A 6030   4.988  33.175   7.607
  242POPC   C1B 6031   5.379  32.569   8.753
  242POPC   C2B 6032   5.584  32.575   8.352
  242POPC   C3B 6033   5.612  32.708   7.952
  242POPC   C4B 6034   5.399  32.911   7.674
  243POPC   NC3 6035  24.684  43.683   9.404
  243POPC   PO4 6036  24.073  43.982   9.512
  243POPC   GL1 6037  24.260  43.838   9.138
  243POPC   GL2 6038  24.489  44.083   9.096
  243POPC   C1A 6039  24.380  43.852   8.682
  243POPC   D2A 6040  24.475  44.042   8.349
  243POPC   C3A 6041  24.343  43.782   8.046
  243POPC   C4A 6042  24.613  43.744   7.702
  243POPC   C1B 6043  24.161  44.292   8.842
  243POPC   C2B 6044  24.134  44.410   8.398
  243POPC   C3B 6045  24.311  44.334   7.958
  243POPC   C4B 6046  24.204  44.033   7.634
  244POPC   NC3 6047  19.525  27.924   9.588
  244POPC   PO4 6048  19.891  28.565   9.548
  244POPC   GL1 6049  19.845  28.628   9.096
  244POPC   GL2 6050  19.942  28.325   8.998
  244POPC   C1A 6051  19.849  28.670   8.650
  244POPC   D2A 6052  20.080  28.306   8.470
  244POPC   C3A 6053  19.954  28.148   8.079
  244POPC   C4A 6054  20.170  28.306   7.737
  244POPC   C1B 6055  19.685  28.089   8.726
  244POPC   C2B 6056  19.493  28.048   8.330
  244POPC   C3B 6057  19.460  28.315   7.978
  244POPC   C4B 6058  19.670  28.356   7.603
  245POPC   NC3 6059  33.165  43.588   9.341
  245POPC   PO4 6060  32.855  44.195   9.443
  245POPC   GL1 6061  33.117  44.078   9.121
  245POPC   GL2 6062  33.015  43.825   8.941
  245POPC   C1A 6063  33.340  44.245   8.755
  245POPC   D2A 6064  33.526  44.139   8.340
  245POPC   C3A 6065  33.291  43.780   8.123
  245POPC   C4A 6066  33.039  43.889   7.741
  245POPC   C1B 6067  32.781  44.086   8.737
  245POPC   C2B 6068  32.864  43.836   8.431
  245POPC   C3B 6069  32.720  43.799   8.102
  245POPC   C4B 6070  32.477  43.907   7.795
  246POPC   NC3 6071  17.494  23.981   9.455
  246POPC   PO4 6072  17.396  23.268   9.303
  246POPC   GL1 6073  17.652  23.611   9.090
  246POPC   GL2 6074  17.605  24.012   8.980
  246POPC   C1A 6075  17.751  23.662   8.661
  246POPC   D2A 6076  17.470  23.834   8.355
  246POPC   C3A 6077  17.693  23.758   8.008
  246POPC   C4A 6078  17.613  23.406   7.774
  246POPC   C1B 6079  17.230  23.751   8.808
  246POPC   C2B 6080  16.904  23.729   8.458
  246POPC   C3B 6081  17.052  23.647   8.055
  246POPC   C4B 6082  17.253  23.989   7.860
  247POPC   NC3 6083  30.639  25.115   9.518
  247POPC   PO4 6084  30.322  25.778   9.415
  247POPC   GL1 6085  30.515  25.473   9.114
  247POPC   GL2 6086  30.786  25.250   9.066
  247POPC   C1A 6087  30.684  25.581   8.712
  247POPC   D2A 6088  30.992  25.543   8.438
  247POPC   C3A 6089  30.778  25.615   8.076
  247POPC   C4A 6090  30.780  25.555   7.663
  247POPC   C1B 6091  30.567  25.056   8.745
  247POPC   C2B 6092  30.633  25.010   8.324
  247POPC   C3B 6093  30.627  25.148   7.894
  247POPC   C4B 6094  30.756  25.090   7.445
  248POPC   NC3 6095   6.587   0.067   9.528
  248POPC   PO4 6096   7.175  44.746   9.468
  248POPC   GL1 6097   6.891  44.749   9.124
  248POPC   GL2 6098   6.537  44.830   9.100
  248POPC   C1A 6099   6.933  44.701   8.687
  248POPC   D2A 6100   6.932  44.771   8.256
  248POPC   C3A 6101   6.673  44.492   8.014
  248POPC   C4A 6102   6.653  44.284   7.626
  248POPC   C1B 6103   6.275  44.928   8.782
  248POPC   C2B 6104   6.436  44.795   8.412
  248POPC   C3B 6105   6.479  44.970   8.015
  248POPC   C4B 6106   6.194   0.056   7.707
  249POPC   NC3 6107  18.656  26.039   9.461
  249POPC   PO4 6108  18.007  26.201   9.641
  249POPC   GL1 6109  18.194  26.046   9.240
  249POPC   GL2 6110  18.398  26.253   9.067
  249POPC   C1A 6111  18.335  25.811   8.848
  249POPC   D2A 6112  18.247  25.924   8.457
  249POPC   C3A 6113  18.397  25.779   8.080
  249POPC   C4A 6114  18.289  26.053   7.743
  249POPC   C1B 6115  18.607  26.290   8.681
  249POPC   C2B 6116  18.665  26.181   8.254
  249POPC   C3B 6117  18.692  26.403   7.870
  249POPC   C4B 6118  18.728  26.265   7.424
  250POPC   NC3 6119  35.858  21.352   9.455
  250POPC   PO4 6120  36.411  21.600   9.321
  250POPC   GL1 6121  36.072  21.633   9.078
  250POPC   GL2 6122  35.787  21.775   9.161
  250POPC   C1A 6123  35.865  21.426   8.761
  250POPC   D2A 6124  36.082  21.492   8.410
  250POPC   C3A 6125  36.118  21.204   8.077
  250POPC   C4A 6126  36.453  21.198   7.739
  250POPC   C1B 6127  35.878  21.944   8.729
  250POPC   C2B 6128  35.738  21.988   8.330
  250POPC   C3B 6129  35.889  21.746   8.001
  250POPC   C4B 6130  35.972  21.479   7.673
  251POPC   NC3 6131  32.256   9.384   9.561
  251POPC   PO4 6132  32.522   8.660   9.576
  251POPC   GL1 6133  32.327   8.874   9.187
  251POPC   GL2 6134  32.122   9.205   9.076
  251POPC   C1A 6135  32.306   8.731   8.782
  251POPC   D2A 6136  32.075   8.676   8.396
  251POPC   C3A 6137  32.343   8.651   8.041
  251POPC   C4A 6138  32.001   8.735   7.781
  251POPC   C1B 6139  32.480   9.223   8.806
  251POPC   C2B 6140  32.457   9.045   8.399
  251POPC   C3B 6141  32.158   9.139   8.089
  251POPC   C4B 6142  32.487   9.204   7.827
  252POPC   NC3 6143  16.390  21.284   9.491
  252POPC   PO4 6144  16.947  21.626   9.459
  252POPC   GL1 6145  16.722  21.441   9.111
  252POPC   GL2 6146  16.665  21.073   9.117
  252POPC   C1A 6147  16.653  21.349   8.687
  252POPC   D2A 6148  16.600  21.566   8.345
  252POPC   C3A 6149  16.690  21.411   7.998
  252POPC   C4A 6150  16.547  21.627   7.696
  252POPC   C1B 6151  16.418  20.901   8.756
  252POPC   C2B 6152  16.474  20.980   8.330
  252POPC   C3B 6153  16.294  21.009   7.942
  252POPC   C4B 6154  16.520  21.117   7.609
  253POPC   NC3 6155   2.866  37.201   9.820
  253POPC   PO4 6156   2.490  37.545   9.393
  253POPC   GL1 6157   2.630  37.754   9.025
  253POPC   GL2 6158   2.937  37.793   9.198
  253POPC   C1A 6159   2.620  37.775   8.548
  253POPC   D2A 6160   2.607  37.407   8.254
  253POPC   C3A 6161   2.678  37.564   7.852
  253POPC   C4A 6162   2.707  37.945   7.690
  253POPC   C1B 6163   3.022  37.570   8.763
  253POPC   C2B 6164   3.075  37.664   8.321
  253POPC   C3B 6165   3.117  37.380   8.018
  253POPC   C4B 6166   2.974  37.227   7.625
  254POPC   NC3 6167  27.945   1.765   9.435
  254POPC   PO4 6168  27.385   2.268   9.533
  254POPC   GL1 6169  27.690   2.240   9.236
  254POPC   GL2 6170  27.543   1.924   9.128
  254POPC   C1A 6171  27.825   2.224   8.827
  254POPC   D2A 6172  27.788   1.991   8.452
  254POPC   C3A 6173  27.944   2.245   8.148
  254POPC   C4A 6174  27.759   2.231   7.746
  254POPC   C1B 6175  27.674   1.623   8.819
  254POPC   C2B 6176  27.710   1.452   8.410
  254POPC   C3B 6177  27.714   1.522   7.979
  254POPC   C4B 6178  27.997   1.791   7.835
  255POPC   NC3 6179  16.850  20.287   9.397
  255POPC   PO4 6180  16.355  20.820   9.439
  255POPC   GL1 6181  16.519  20.548   9.097
  255POPC   GL2 6182  16.887  20.621   9.024
  255POPC   C1A 6183  16.634  20.413   8.666
  255POPC   D2A 6184  16.853  20.541   8.319
  255POPC   C3A 6185  16.561  20.513   8.013
  255POPC   C4A 6186  16.512  20.588   7.592
  255POPC   C1B 6187  16.943  20.915   8.717
  255POPC   C2B 6188  16.959  21.111   8.321
  255POPC   C3B 6189  16.855  20.920   7.947
  255POPC   C4B 6190  17.085  20.565   7.793
  256POPC   NC3 6191  44.344  21.487   9.353
  256POPC   PO4 6192  44.929  21.430   9.529
  256POPC   GL1 6193  44.829  21.266   9.168
  256POPC   GL2 6194  44.540  21.077   9.118
  256POPC   C1A 6195  44.709  21.422   8.776
  256POPC   D2A 6196  44.924  21.358   8.411
  256POPC   C3A 6197  44.809  21.489   8.006
  256POPC   C4A 6198  44.979  21.212   7.704
  256POPC   C1B 6199  44.480  20.973   8.672
  256POPC   C2B 6200  44.402  21.311   8.365
  256POPC   C3B 6201  44.309  21.351   7.927
  256POPC   C4B 6202  44.253  21.161   7.553
  257POPC   NC3 6203  15.105   5.390   9.434
  257POPC   PO4 6204  14.611   4.921   9.349
  257POPC   GL1 6205  14.871   5.095   9.062
  257POPC   GL2 6206  15.251   5.060   9.075
  257POPC   C1A 6207  14.800   5.013   8.657
  257POPC   D2A 6208  15.022   5.045   8.299
  257POPC   C3A 6209  14.830   5.096   7.915
  257POPC   C4A 6210  14.972   4.956   7.510
  257POPC   C1B 6211  15.213   5.323   8.703
  257POPC   C2B 6212  15.367   5.511   8.338
  257POPC   C3B 6213  15.232   5.433   7.922
  257POPC   C4B 6214  15.604   5.399   7.679
  258POPC   NC3 6215  18.617   6.752   9.925
  258POPC   PO4 6216  18.134   6.595   9.548
  258POPC   GL1 6217  18.249   6.683   9.160
  258POPC   GL2 6218  17.905   6.683   9.056
  258POPC   C1A 6219  18.457   6.610   8.770
  258POPC   D2A 6220  18.414   6.770   8.333
  258POPC   C3A 6221  18.604   6.556   7.991
  258POPC   C4A 6222  18.546   6.808   7.676
  258POPC   C1B 6223  17.897   6.509   8.618
  258POPC   C2B 6224  17.920   6.627   8.157
  258POPC   C3B 6225  17.804   6.722   7.733
  258POPC   C4B 6226  17.844   6.579   7.300
  259POPC   NC3 6227   7.461   7.556   9.706
  259POPC   PO4 6228   7.803   7.958   9.315
  259POPC   GL1 6229   7.409   7.710   9.193
  259POPC   GL2 6230   7.378   7.319   9.234
  259POPC   C1A 6231   7.416   7.535   8.779
  259POPC   D2A 6232   7.535   7.657   8.394
  259POPC   C3A 6233   7.279   7.603   8.061
  259POPC   C4A 6234   7.452   7.586   7.652
  259POPC   C1B 6235   7.120   7.133   8.899
  259POPC   C2B 6236   7.087   7.221   8.455
  259POPC   C3B 6237   7.125   7.085   8.053
  259POPC   C4B 6238   7.041   7.313   7.708
  260POPC   NC3 6239   9.320  28.100   9.548
  260POPC   PO4 6240   8.938  28.618   9.358
  260POPC   GL1 6241   9.283  28.474   9.144
  260POPC   GL2 6242   9.138  28.171   9.065
  260POPC   C1A 6243   9.275  28.522   8.697
  260POPC   D2A 6244   9.019  28.748   8.399
  260POPC   C3A 6245   9.152  28.604   8.009
  260POPC   C4A 6246   9.171  28.509   7.589
  260POPC   C1B 6247   8.816  28.211   8.726
  260POPC   C2B 6248   8.824  28.274   8.272
  260POPC   C3B 6249   8.933  28.136   7.859
  260POPC   C4B 6250   8.763  27.831   7.583
  261POPC   NC3 6251  23.563  11.805   9.398
  261POPC   PO4 6252  23.302  12.345   9.327
  261POPC   GL1 6253  23.617  12.166   9.045
  261POPC   GL2 6254  23.970  12.051   9.125
  261POPC   C1A 6255  23.678  12.312   8.651
  261POPC   D2A 6256  23.428  12.380   8.320
  261POPC   C3A 6257  23.569  12.121   8.033
  261POPC   C4A 6258  23.460  12.024   7.675
  261POPC   C1B 6259  23.929  11.865   8.699
  261POPC   C2B 6260  23.994  12.139   8.298
  261POPC   C3B 6261  24.026  12.269   7.865
  261POPC   C4B 6262  23.937  11.867   7.724
  262POPC   NC3 6263  33.787  41.565   9.614
  262POPC   PO4 6264  34.368  41.267   9.508
  262POPC   GL1 6265  34.053  41.400   9.182
  262POPC   GL2 6266  33.703  41.230   9.198
  262POPC   C1A 6267  33.982  41.703   8.837
  262POPC   D2A 6268  34.070  41.943   8.433
  262POPC   C3A 6269  34.139  41.754   8.036
  262POPC   C4A 6270  34.067  41.373   7.754
  262POPC   C1B 6271  33.608  41.327   8.776
  262POPC   C2B 6272  33.839  41.419   8.390
  262POPC   C3B 6273  33.663  41.568   8.004
  262POPC   C4B 6274  33.563  41.361   7.633
  263POPC   NC3 6275  30.540  26.865   9.559
  263POPC   PO4 6276  31.174  27.122   9.578
  263POPC   GL1 6277  30.948  26.876   9.241
  263POPC   GL2 6278  31.143  26.678   9.051
  263POPC   C1A 6279  30.590  26.779   8.921
  263POPC   D2A 6280  30.528  26.876   8.474
  263POPC   C3A 6281  30.349  26.939   8.053
  263POPC   C4A 6282  30.532  26.797   7.704
  263POPC   C1B 6283  31.034  26.807   8.641
  263POPC   C2B 6284  30.911  26.606   8.235
  263POPC   C3B 6285  31.062  26.655   7.810
  263POPC   C4B 6286  30.944  26.863   7.431
  264POPC   NC3 6287  13.801   5.692   9.497
  264POPC   PO4 6288  13.340   6.169   9.538
  264POPC   GL1 6289  13.598   6.038   9.167
  264POPC   GL2 6290  13.571   5.675   9.048
  264POPC   C1A 6291  13.706   6.055   8.737
  264POPC   D2A 6292  13.545   5.870   8.335
  264POPC   C3A 6293  13.648   6.099   7.940
  264POPC   C4A 6294  13.751   6.044   7.490
  264POPC   C1B 6295  13.791   5.559   8.677
  264POPC   C2B 6296  14.006   5.610   8.247
  264POPC   C3B 6297  13.827   5.647   7.804
  264POPC   C4B 6298  13.911   5.601   7.312
  265POPC   NC3 6299  40.476  29.083   9.500
  265POPC   PO4 6300  41.136  28.971   9.554
  265POPC   GL1 6301  40.946  28.926   9.156
  265POPC   GL2 6302  40.704  29.196   9.080
  265POPC   C1A 6303  41.026  29.049   8.736
  265POPC   D2A 6304  40.811  29.150   8.421
  265POPC   C3A 6305  41.056  29.121   8.083
  265POPC   C4A 6306  41.123  29.429   7.755
  265POPC   C1B 6307  40.547  28.876   8.831
  265POPC   C2B 6308  40.459  28.767   8.445
  265POPC   C3B 6309  40.529  28.745   8.027
  265POPC   C4B 6310  40.662  29.075   7.779
  266POPC   NC3 6311  15.573   5.953   9.372
  266POPC   PO4 6312  14.859   5.807   9.372
  266POPC   GL1 6313  15.129   5.748   9.049
  266POPC   GL2 6314  15.419   5.588   9.064
  266POPC   C1A 6315  15.101   5.869   8.653
  266POPC   D2A 6316  14.946   6.109   8.342
  266POPC   C3A 6317  15.046   5.949   7.956
  266POPC   C4A 6318  15.022   6.230   7.557
  266POPC   C1B 6319  15.590   5.787   8.711
  266POPC   C2B 6320  15.479   6.015   8.321
  266POPC   C3B 6321  15.542   5.842   7.925
  266POPC   C4B 6322  15.317   5.827   7.535
  267POPC   NC3 6323  11.621  15.467   9.346
  267POPC   PO4 6324  10.953  15.298   9.446
  267POPC   GL1 6325  11.217  15.154   9.142
  267POPC   GL2 6326  11.102  14.826   9.084
  267POPC   C1A 6327  11.212  15.324   8.736
  267POPC   D2A 6328  11.086  15.261   8.316
  267POPC   C3A 6329  11.438  15.330   8.010
  267POPC   C4A 6330  11.433  15.490   7.618
  267POPC   C1B 6331  11.433  14.862   8.753
  267POPC   C2B 6332  11.505  14.913   8.294
  267POPC   C3B 6333  11.154  14.904   7.957
  267POPC   C4B 6334  11.152  14.964   7.533
  268POPC   NC3 6335  35.614  35.113   9.497
  268POPC   PO4 6336  34.990  35.220   9.531
  268POPC   GL1 6337  35.253  35.373   9.128
  268POPC   GL2 6338  35.614  35.480   9.108
  268POPC   C1A 6339  35.279  35.484   8.656
  268POPC   D2A 6340  35.018  35.503   8.266
  268POPC   C3A 6341  35.106  35.150   7.966
  268POPC   C4A 6342  35.499  35.139   7.723
  268POPC   C1B 6343  35.630  35.142   8.812
  268POPC   C2B 6344  35.458  35.061   8.383
  268POPC   C3B 6345  35.521  35.425   8.154
  268POPC   C4B 6346  35.773  35.564   7.833
  269POPC   NC3 6347  29.460  35.779   9.607
  269POPC   PO4 6348  28.887  36.075   9.571
  269POPC   GL1 6349  29.127  35.910   9.204
  269POPC   GL2 6350  29.379  36.136   9.122
  269POPC   C1A 6351  29.254  35.816   8.753
  269POPC   D2A 6352  28.992  36.003   8.434
  269POPC   C3A 6353  29.150  36.014   8.014
  269POPC   C4A 6354  29.214  35.794   7.673
  269POPC   C1B 6355  29.343  36.322   8.697
  269POPC   C2B 6356  29.505  36.162   8.328
  269POPC   C3B 6357  29.565  36.331   7.907
  269POPC   C4B 6358  29.489  36.438   7.471
  270POPC   NC3 6359   4.909  31.038   9.452
  270POPC   PO4 6360   5.099  30.381   9.465
  270POPC   GL1 6361   5.299  30.664   9.145
  270POPC   GL2 6362   5.143  30.986   9.006
  270POPC   C1A 6363   5.224  30.544   8.720
  270POPC   D2A 6364   5.237  30.748   8.336
  270POPC   C3A 6365   5.108  30.532   7.994
  270POPC   C4A 6366   4.921  30.830   7.779
  270POPC   C1B 6367   5.497  30.985   8.723
  270POPC   C2B 6368   5.568  31.143   8.262
  270POPC   C3B 6369   5.433  31.008   7.818
  270POPC   C4B 6370   5.616  30.987   7.393
  271POPC   NC3 6371   2.879  42.150   9.498
  271POPC   PO4 6372   2.452  42.727   9.643
  271POPC   GL1 6373   2.777  42.592   9.254
  271POPC   GL2 6374   2.916  42.864   9.031
  271POPC   C1A 6375   2.999  42.376   8.865
  271POPC   D2A 6376   2.969  42.451   8.392
  271POPC   C3A 6377   2.800  42.067   8.204
  271POPC   C4A 6378   2.839  42.016   7.782
  271POPC   C1B 6379   2.603  42.624   8.719
  271POPC   C2B 6380   2.453  42.443   8.328
  271POPC   C3B 6381   2.581  42.455   7.917
  271POPC   C4B 6382   2.613  42.550   7.499
  272POPC   NC3 6383   3.846  40.068   9.509
  272POPC   PO4 6384   3.776  39.458   9.383
  272POPC   GL1 6385   3.600  39.788   9.120
  272POPC   GL2 6386   3.513  40.159   9.139
  272POPC   C1A 6387   3.494  39.901   8.701
  272POPC   D2A 6388   3.301  39.961   8.314
  272POPC   C3A 6389   3.574  39.944   7.965
  272POPC   C4A 6390   3.544  39.741   7.583
  272POPC   C1B 6391   3.291  40.377   8.812
  272POPC   C2B 6392   3.119  40.412   8.399
  272POPC   C3B 6393   3.215  40.348   7.972
  272POPC   C4B 6394   3.235  40.600   7.612
  273POPC   NC3 6395  14.171  43.991   9.457
  273POPC   PO4 6396  14.804  44.262   9.513
  273POPC   GL1 6397  14.737  43.882   9.241
  273POPC   GL2 6398  14.412  43.712   9.104
  273POPC   C1A 6399  14.757  43.949   8.812
  273POPC   D2A 6400  14.582  44.260   8.547
  273POPC   C3A 6401  14.517  44.115   8.118
  273POPC   C4A 6402  14.597  44.216   7.692
  273POPC   C1B 6403  14.214  43.999   8.784
  273POPC   C2B 6404  13.984  44.097   8.388
  273POPC   C3B 6405  13.991  44.031   7.937
  273POPC   C4B 6406  13.955  43.674   7.628
  274POPC   NC3 6407  23.739   7.251   9.440
  274POPC   PO4 6408  23.134   7.702   9.435
  274POPC   GL1 6409  23.489   7.663   9.097
  274POPC   GL2 6410  23.693   7.387   8.977
  274POPC   C1A 6411  23.621   7.763   8.669
  274POPC   D2A 6412  23.585   7.547   8.276
  274POPC   C3A 6413  23.650   7.737   7.880
  274POPC   C4A 6414  23.840   7.546   7.516
  274POPC   C1B 6415  23.932   7.336   8.606
  274POPC   C2B 6416  23.978   7.250   8.152
  274POPC   C3B 6417  23.652   7.197   7.871
  274POPC   C4B 6418  23.260   7.191   7.654
  275POPC   NC3 6419   3.869  19.164   9.593
  275POPC   PO4 6420   3.336  19.044   9.386
  275POPC   GL1 6421   3.459  18.968   9.042
  275POPC   GL2 6422   3.818  18.941   9.143
  275POPC   C1A 6423   3.259  18.800   8.702
  275POPC   D2A 6424   3.386  18.650   8.290
  275POPC   C3A 6425   3.272  18.986   7.992
  275POPC   C4A 6426   3.333  19.276   7.674
  275POPC   C1B 6427   3.831  19.167   8.774
  275POPC   C2B 6428   3.583  19.104   8.437
  275POPC   C3B 6429   3.725  19.186   8.059
  275POPC   C4B 6430   3.754  19.002   7.703
  276POPC   NC3 6431  34.548  23.250   9.610
  276POPC   PO4 6432  34.771  23.843   9.477
  276POPC   GL1 6433  34.471  23.686   9.184
  276POPC   GL2 6434  34.303  23.993   9.076
  276POPC   C1A 6435  34.381  23.487   8.782
  276POPC   D2A 6436  34.287  23.620   8.358
  276POPC   C3A 6437  34.518  23.423   8.040
  276POPC   C4A 6438  34.763  23.285   7.678
  276POPC   C1B 6439  34.425  24.020   8.657
  276POPC   C2B 6440  34.679  24.033   8.294
  276POPC   C3B 6441  34.690  23.920   7.882
  276POPC   C4B 6442  34.441  23.683   7.613
  277POPC   NC3 6443  12.661   7.129   9.642
  277POPC   PO4 6444  12.785   7.792   9.543
  277POPC   GL1 6445  12.814   7.495   9.252
  277POPC   GL2 6446  12.496   7.376   9.228
  277POPC   C1A 6447  12.861   7.398   8.841
  277POPC   D2A 6448  13.123   7.306   8.512
  277POPC   C3A 6449  13.017   7.503   8.133
  277POPC   C4A 6450  12.904   7.652   7.711
  277POPC   C1B 6451  12.380   7.174   8.866
  277POPC   C2B 6452  12.592   7.176   8.473
  277POPC   C3B 6453  12.546   7.339   8.067
  277POPC   C4B 6454  12.839   7.159   7.774
  278POPC   NC3 6455  33.252  23.840   9.494
  278POPC   PO4 6456  32.635  23.483   9.512
  278POPC   GL1 6457  32.814  23.485   9.085
  278POPC   GL2 6458  33.076  23.767   9.026
  278POPC   C1A 6459  33.016  23.428   8.667
  278POPC   D2A 6460  33.164  23.682   8.341
  278POPC   C3A 6461  33.046  23.567   7.890
  278POPC   C4A 6462  33.297  23.306   7.588
  278POPC   C1B 6463  32.931  24.147   8.765
  278POPC   C2B 6464  32.872  24.127   8.313
  278POPC   C3B 6465  32.996  24.100   7.869
  278POPC   C4B 6466  33.066  24.192   7.407
  279POPC   NC3 6467   6.444  13.074   9.595
  279POPC   PO4 6468   7.072  12.823   9.778
  279POPC   GL1 6469   6.823  12.830   9.309
  279POPC   GL2 6470   6.472  12.715   9.200
  279POPC   C1A 6471   6.775  12.889   8.823
  279POPC   D2A 6472   6.820  12.744   8.372
  279POPC   C3A 6473   6.919  12.949   7.971
  279POPC   C4A 6474   6.971  12.792   7.543
  279POPC   C1B 6475   6.232  12.741   8.802
  279POPC   C2B 6476   6.300  12.844   8.359
  279POPC   C3B 6477   6.399  12.780   7.923
  279POPC   C4B 6478   6.475  12.988   7.516
  280POPC   NC3 6479  29.556  26.944   9.396
  280POPC   PO4 6480  30.180  27.147   9.471
  280POPC   GL1 6481  30.013  26.761   9.199
  280POPC   GL2 6482  29.695  26.505   9.206
  280POPC   C1A 6483  29.825  26.806   8.777
  280POPC   D2A 6484  29.966  26.964   8.391
  280POPC   C3A 6485  29.820  26.912   7.971
  280POPC   C4A 6486  30.059  26.923   7.579
  280POPC   C1B 6487  29.480  26.445   8.802
  280POPC   C2B 6488  29.634  26.546   8.341
  280POPC   C3B 6489  29.645  26.429   7.869
  280POPC   C4B 6490  29.742  26.393   7.368
  281POPC   NC3 6491  39.896  40.354   9.559
  281POPC   PO4 6492  39.760  39.687   9.492
  281POPC   GL1 6493  39.971  39.928   9.107
  281POPC   GL2 6494  40.169  40.292   9.144
  281POPC   C1A 6495  40.002  39.782   8.648
  281POPC   D2A 6496  39.808  39.717   8.221
  281POPC   C3A 6497  40.032  39.909   7.914
  281POPC   C4A 6498  39.989  40.209   7.602
  281POPC   C1B 6499  40.311  40.176   8.745
  281POPC   C2B 6500  40.423  40.039   8.335
  281POPC   C3B 6501  40.323  40.316   8.009
  281POPC   C4B 6502  40.452  40.380   7.606
  282POPC   NC3 6503  14.828  15.795   9.420
  282POPC   PO4 6504  14.152  16.005   9.412
  282POPC   GL1 6505  14.410  15.830   9.136
  282POPC   GL2 6506  14.649  16.165   9.127
  282POPC   C1A 6507  14.294  15.582   8.783
  282POPC   D2A 6508  14.079  15.594   8.414
  282POPC   C3A 6509  14.286  15.677   8.047
  282POPC   C4A 6510  14.120  15.620   7.663
  282POPC   C1B 6511  14.619  16.027   8.726
  282POPC   C2B 6512  14.342  16.060   8.392
  282POPC   C3B 6513  14.305  16.192   7.954
  282POPC   C4B 6514  14.482  16.033   7.607
  283POPC   NC3 6515  25.913  22.897   9.451
  283POPC   PO4 6516  25.956  23.539   9.384
  283POPC   GL1 6517  26.199  23.189   9.121
  283POPC   GL2 6518  26.257  22.810   9.096
  283POPC   C1A 6519  26.355  23.077   8.682
  283POPC   D2A 6520  26.358  23.252   8.261
  283POPC   C3A 6521  26.252  23.049   7.895
  283POPC   C4A 6522  25.824  23.103   7.706
  283POPC   C1B 6523  26.061  22.632   8.746
  283POPC   C2B 6524  26.089  22.795   8.319
  283POPC   C3B 6525  25.955  22.634   7.907
  283POPC   C4B 6526  25.813  22.391   7.569
  284POPC   NC3 6527  38.666  28.160   9.507
  284POPC   PO4 6528  38.753  28.873   9.399
  284POPC   GL1 6529  38.569  28.679   9.039
  284POPC   GL2 6530  38.421  28.373   9.094
  284POPC   C1A 6531  38.377  28.668   8.651
  284POPC   D2A 6532  38.485  28.800   8.275
  284POPC   C3A 6533  38.741  28.465   8.124
  284POPC   C4A 6534  38.745  28.338   7.688
  284POPC   C1B 6535  38.294  28.155   8.712
  284POPC   C2B 6536  38.244  28.300   8.278
  284POPC   C3B 6537  38.296  28.486   7.870
  284POPC   C4B 6538  38.269  28.215   7.508
  285POPC   NC3 6539  43.536  16.613   9.553
  285POPC   PO4 6540  44.247  16.601   9.468
  285POPC   GL1 6541  44.002  16.784   9.112
  285POPC   GL2 6542  43.701  16.618   9.039
  285POPC   C1A 6543  44.033  16.711   8.657
  285POPC   D2A 6544  44.123  16.931   8.289
  285POPC   C3A 6545  44.108  16.728   7.871
  285POPC   C4A 6546  44.219  17.004   7.511
  285POPC   C1B 6547  43.587  16.960   8.785
  285POPC   C2B 6548  43.664  17.080   8.402
  285POPC   C3B 6549  43.654  16.933   8.003
  285POPC   C4B 6550  43.320  16.988   7.730
  286POPC   NC3 6551  17.943  13.854   9.647
  286POPC   PO4 6552  18.268  13.271   9.368
  286POPC   GL1 6553  18.336  13.520   9.067
  286POPC   GL2 6554  18.258  13.827   9.227
  286POPC   C1A 6555  18.275  13.515   8.624
  286POPC   D2A 6556  18.558  13.523   8.323
  286POPC   C3A 6557  18.462  13.366   7.948
  286POPC   C4A 6558  18.301  13.587   7.667
  286POPC   C1B 6559  18.468  13.961   8.855
  286POPC   C2B 6560  18.631  14.040   8.438
  286POPC   C3B 6561  18.495  13.936   8.005
  286POPC   C4B 6562  18.303  14.082   7.610
  287POPC   NC3 6563   2.674  23.344   9.427
  287POPC   PO4 6564   2.974  23.957   9.520
  287POPC   GL1 6565   2.897  23.873   9.113
  287POPC   GL2 6566   3.081  24.173   8.979
  287POPC   C1A 6567   2.578  23.687   8.829
  287POPC   D2A 6568   2.555  23.707   8.378
  287POPC   C3A 6569   2.880  23.475   8.123
  287POPC   C4A 6570   2.601  23.468   7.818
  287POPC   C1B 6571   2.926  24.007   8.619
  287POPC   C2B 6572   2.972  23.961   8.226
  287POPC   C3B 6573   2.837  23.949   7.817
  287POPC   C4B 6574   3.035  24.126   7.441
  288POPC   NC3 6575  36.309  34.786   9.527
  288POPC   PO4 6576  35.970  35.412   9.477
  288POPC   GL1 6577  36.274  35.471   9.136
  288POPC   GL2 6578  36.517  35.196   9.251
  288POPC   C1A 6579  36.161  35.445   8.680
  288POPC   D2A 6580  35.972  35.110   8.406
  288POPC   C3A 6581  36.086  35.159   7.983
  288POPC   C4A 6582  36.267  35.532   7.765
  288POPC   C1B 6583  36.615  35.218   8.790
  288POPC   C2B 6584  36.511  35.197   8.335
  288POPC   C3B 6585  36.636  35.210   7.891
  288POPC   C4B 6586  36.526  35.234   7.427
  289POPC   NC3 6587  44.696  35.612   9.442
  289POPC   PO4 6588  44.246  35.104   9.410
  289POPC   GL1 6589  44.433  35.258   9.024
  289POPC   GL2 6590  44.784  35.372   9.002
  289POPC   C1A 6591  44.563  35.174   8.570
  289POPC   D2A 6592  44.665  35.049   8.160
  289POPC   C3A 6593  44.635  35.233   7.751
  289POPC   C4A 6594  44.352  35.084   7.400
  289POPC   C1B 6595  44.562  35.665   8.690
  289POPC   C2B 6596  44.685  35.591   8.236
  289POPC   C3B 6597  44.973  35.613   7.876
  289POPC   C4B 6598  44.819  35.601   7.434
  290POPC   NC3 6599  10.072  28.684   9.554
  290POPC   PO4 6600   9.730  29.222   9.461
  290POPC   GL1 6601   9.776  28.945   9.140
  290POPC   GL2 6602  10.057  29.180   9.084
  290POPC   C1A 6603   9.561  28.955   8.729
  290POPC   D2A 6604   9.597  28.831   8.288
  290POPC   C3A 6605   9.690  29.192   7.983
  290POPC   C4A 6606   9.600  29.196   7.528
  290POPC   C1B 6607  10.136  28.923   8.764
  290POPC   C2B 6608  10.120  29.009   8.366
  290POPC   C3B 6609  10.055  28.840   8.005
  290POPC   C4B 6610  10.029  28.976   7.631
  291POPC   NC3 6611   4.823  25.687   9.444
  291POPC   PO4 6612   5.445  25.945   9.479
  291POPC   GL1 6613   5.229  25.841   9.087
  291POPC   GL2 6614   4.952  26.043   9.074
  291POPC   C1A 6615   5.011  25.753   8.654
  291POPC   D2A 6616   4.850  25.758   8.194
  291POPC   C3A 6617   5.152  25.898   7.838
  291POPC   C4A 6618   5.100  25.876   7.386
  291POPC   C1B 6619   5.157  26.281   8.760
  291POPC   C2B 6620   5.156  26.178   8.326
  291POPC   C3B 6621   4.886  26.283   8.006
  291POPC   C4B 6622   5.000  26.350   7.576
  292POPC   NC3 6623   8.808  12.553   9.521
  292POPC   PO4 6624   9.227  13.012   9.511
  292POPC   GL1 6625   8.984  12.852   9.138
  292POPC   GL2 6626   8.699  13.022   9.069
  292POPC   C1A 6627   8.867  12.628   8.736
  292POPC   D2A 6628   8.733  12.456   8.318
  292POPC   C3A 6629   8.992  12.557   7.961
  292POPC   C4A 6630   9.150  12.863   7.692
  292POPC   C1B 6631   8.896  13.154   8.700
  292POPC   C2B 6632   8.955  12.977   8.330
  292POPC   C3B 6633   8.814  13.081   7.968
  292POPC   C4B 6634   8.548  12.799   7.807
  293POPC   NC3 6635  30.636   0.012   9.477
  293POPC   PO4 6636  30.878   0.656   9.727
  293POPC   GL1 6637  30.823   0.767   9.259
  293POPC   GL2 6638  30.786   0.408   9.166
  293POPC   C1A 6639  30.872   0.722   8.784
  293POPC   D2A 6640  30.912   0.439   8.383
  293POPC   C3A 6641  30.885   0.653   7.958
  293POPC   C4A 6642  30.811   0.628   7.505
  293POPC   C1B 6643  30.576   0.261   8.782
  293POPC   C2B 6644  30.413   0.178   8.376
  293POPC   C3B 6645  30.546   0.259   7.962
  293POPC   C4B 6646  30.917   0.191   7.733
  294POPC   NC3 6647  40.792  16.799   9.543
  294POPC   PO4 6648  40.236  16.640   9.417
  294POPC   GL1 6649  40.606  16.661   9.093
  294POPC   GL2 6650  40.949  16.866   9.071
  294POPC   C1A 6651  40.745  16.567   8.649
  294POPC   D2A 6652  40.840  16.759   8.232
  294POPC   C3A 6653  40.945  16.481   7.870
  294POPC   C4A 6654  40.766  16.322   7.462
  294POPC   C1B 6655  40.694  17.050   8.774
  294POPC   C2B 6656  40.480  17.113   8.402
  294POPC   C3B 6657  40.608  17.267   8.002
  294POPC   C4B 6658  40.787  16.963   7.762
  295POPC   NC3 6659  40.555  10.676   9.349
  295POPC   PO4 6660  40.041  10.265   9.532
  295POPC   GL1 6661  40.001  10.559   9.166
  295POPC   GL2 6662  40.273  10.653   8.929
  295POPC   C1A 6663  39.769  10.569   8.771
  295POPC   D2A 6664  39.735  10.335   8.384
  295POPC   C3A 6665  39.911  10.612   8.080
  295POPC   C4A 6666  39.798  10.716   7.621
  295POPC   C1B 6667  40.291  10.447   8.536
  295POPC   C2B 6668  40.207  10.059   8.357
  295POPC   C3B 6669  40.131   9.955   7.960
  295POPC   C4B 6670  39.990  10.259   7.729
  296POPC   NC3 6671  11.178  39.132   9.378
  296POPC   PO4 6672  11.801  39.200   9.619
  296POPC   GL1 6673  11.627  39.350   9.185
  296POPC   GL2 6674  11.634  39.013   9.080
  296POPC   C1A 6675  11.477  39.339   8.717
  296POPC   D2A 6676  11.657  39.124   8.337
  296POPC   C3A 6677  11.528  39.345   7.950
  296POPC   C4A 6678  11.098  39.330   7.704
  296POPC   C1B 6679  11.297  38.884   8.801
  296POPC   C2B 6680  11.255  38.803   8.403
  296POPC   C3B 6681  11.202  38.949   8.020
  296POPC   C4B 6682  11.226  38.815   7.606
  297POPC   NC3 6683  11.750  24.145   9.410
  297POPC   PO4 6684  11.866  24.766   9.508
  297POPC   GL1 6685  12.072  24.558   9.168
  297POPC   GL2 6686  12.223  24.208   9.152
  297POPC   C1A 6687  12.026  24.533   8.741
  297POPC   D2A 6688  12.220  24.650   8.396
  297POPC   C3A 6689  12.150  24.513   8.017
  297POPC   C4A 6690  12.132  24.680   7.632
  297POPC   C1B 6691  11.973  24.034   8.787
  297POPC   C2B 6692  11.847  24.215   8.382
  297POPC   C3B 6693  11.816  24.133   7.953
  297POPC   C4B 6694  12.053  24.164   7.588
  298POPC   NC3 6695  37.735  41.750   9.478
  298POPC   PO4 6696  37.452  41.128   9.471
  298POPC   GL1 6697  37.485  41.412   9.159
  298POPC   GL2 6698  37.840  41.417   9.116
  298POPC   C1A 6699  37.370  41.608   8.781
  298POPC   D2A 6700  37.270  41.785   8.359
  298POPC   C3A 6701  37.403  41.586   7.965
  298POPC   C4A 6702  37.540  41.720   7.537
  298POPC   C1B 6703  37.867  41.740   8.791
  298POPC   C2B 6704  37.763  41.898   8.376
  298POPC   C3B 6705  37.894  41.749   7.956
  298POPC   C4B 6706  38.062  41.702   7.539
  299POPC   NC3 6707   5.289  27.262   9.486
  299POPC   PO4 6708   5.343  27.920   9.679
  299POPC   GL1 6709   5.181  27.712   9.273
  299POPC   GL2 6710   4.901  27.418   9.211
  299POPC   C1A 6711   5.228  27.565   8.837
  299POPC   D2A 6712   5.140  27.702   8.420
  299POPC   C3A 6713   5.285  27.557   8.020
  299POPC   C4A 6714   4.945  27.699   7.777
  299POPC   C1B 6715   4.846  27.183   8.822
  299POPC   C2B 6716   5.030  27.185   8.403
  299POPC   C3B 6717   4.853  27.254   7.991
  299POPC   C4B 6718   4.947  27.254   7.532
  300POPC   NC3 6719   3.653   9.421   9.446
  300POPC   PO4 6720   3.504   8.794   9.614
  300POPC   GL1 6721   3.562   9.004   9.182
  300POPC   GL2 6722   3.300   9.299   9.118
  300POPC   C1A 6723   3.630   8.934   8.749
  300POPC   D2A 6724   3.251   8.873   8.499
  300POPC   C3A 6725   3.311   8.954   8.080
  300POPC   C4A 6726   3.665   8.931   7.833
  300POPC   C1B 6727   3.400   9.400   8.734
  300POPC   C2B 6728   3.568   9.317   8.365
  300POPC   C3B 6729   3.395   9.468   8.010
  300POPC   C4B 6730   3.299   9.267   7.643
  301POPC   NC3 6731  14.437  14.749   9.338
  301POPC   PO4 6732  14.554  15.386   9.451
  301POPC   GL1 6733  14.495  15.176   9.077
  301POPC   GL2 6734  14.133  15.182   9.075
  301POPC   C1A 6735  14.623  15.029   8.670
  301POPC   D2A 6736  14.397  15.177   8.326
  301POPC   C3A 6737  14.608  15.253   7.996
  301POPC   C4A 6738  14.626  15.539   7.675
  301POPC   C1B 6739  13.999  15.115   8.646
  301POPC   C2B 6740  14.050  14.812   8.307
  301POPC   C3B 6741  14.221  14.848   7.887
  301POPC   C4B 6742  14.438  15.048   7.564
  302POPC   NC3 6743  10.770   7.874   9.527
  302POPC   PO4 6744  10.324   8.338   9.609
  302POPC   GL1 6745  10.437   8.115   9.203
  302POPC   GL2 6746  10.815   8.184   9.128
  302POPC   C1A 6747  10.477   8.276   8.759
  302POPC   D2A 6748  10.296   8.504   8.404
  302POPC   C3A 6749  10.188   8.215   8.096
  302POPC   C4A 6750  10.409   7.936   7.849
  302POPC   C1B 6751  11.003   8.317   8.727
  302POPC   C2B 6752  10.935   8.116   8.323
  302POPC   C3B 6753  10.756   8.305   7.967
  302POPC   C4B 6754  10.437   8.621   7.850
  303POPC   NC3 6755  12.590  25.983   9.454
  303POPC   PO4 6756  13.260  25.693   9.449
  303POPC   GL1 6757  13.000  25.958   9.136
  303POPC   GL2 6758  12.640  25.862   8.977
  303POPC   C1A 6759  13.009  26.068   8.704
  303POPC   D2A 6760  13.025  25.902   8.344
  303POPC   C3A 6761  13.106  26.074   7.965
  303POPC   C4A 6762  12.867  25.738   7.844
  303POPC   C1B 6763  12.530  26.230   8.860
  303POPC   C2B 6764  12.568  26.284   8.467
  303POPC   C3B 6765  12.587  26.064   8.131
  303POPC   C4B 6766  12.592  26.165   7.751
  304POPC   NC3 6767  13.160  19.832   9.351
  304POPC   PO4 6768  12.580  20.029   9.481
  304POPC   GL1 6769  12.772  20.109   9.061
  304POPC   GL2 6770  12.859  19.772   8.938
  304POPC   C1A 6771  12.993  20.190   8.668
  304POPC   D2A 6772  12.984  19.903   8.341
  304POPC   C3A 6773  13.090  19.992   7.930
  304POPC   C4A 6774  12.757  19.785   7.728
  304POPC   C1B 6775  13.283  19.717   8.726
  304POPC   C2B 6776  13.488  19.746   8.323
  304POPC   C3B 6777  13.361  19.504   7.956
  304POPC   C4B 6778  13.199  19.611   7.523
  305POPC   NC3 6779  33.243  15.481   9.528
  305POPC   PO4 6780  32.847  14.947   9.404
  305POPC   GL1 6781  32.932  15.201   9.063
  305POPC   GL2 6782  33.274  15.152   9.052
  305POPC   C1A 6783  32.782  15.486   8.716
  305POPC   D2A 6784  32.578  15.451   8.315
  305POPC   C3A 6785  32.730  15.552   7.898
  305POPC   C4A 6786  32.698  15.407   7.451
  305POPC   C1B 6787  33.096  15.084   8.600
  305POPC   C2B 6788  33.034  15.227   8.184
  305POPC   C3B 6789  33.076  15.218   7.723
  305POPC   C4B 6790  33.334  14.965   7.493
  306POPC   NC3 6791  24.916  42.163   9.549
  306POPC   PO4 6792  25.431  42.440   9.564
  306POPC   GL1 6793  25.250  42.336   9.171
  306POPC   GL2 6794  25.597  42.131   9.174
  306POPC   C1A 6795  25.131  42.544   8.737
  306POPC   D2A 6796  25.335  42.762   8.364
  306POPC   C3A 6797  25.412  42.548   7.960
  306POPC   C4A 6798  25.177  42.477   7.555
  306POPC   C1B 6799  25.518  42.211   8.761
  306POPC   C2B 6800  25.394  42.218   8.382
  306POPC   C3B 6801  25.428  41.928   8.102
  306POPC   C4B 6802  25.398  42.068   7.700
  307POPC   NC3 6803   8.468  19.759   9.767
  307POPC   PO4 6804   8.944  20.051   9.422
  307POPC   GL1 6805   8.897  19.895   9.025
  307POPC   GL2 6806   9.192  20.068   8.910
  307POPC   C1A 6807   8.770  19.973   8.603
  307POPC   D2A 6808   9.023  19.974   8.240
  307POPC   C3A 6809   8.766  19.954   7.866
  307POPC   C4A 6810   8.895  19.831   7.469
  307POPC   C1B 6811   9.184  19.652   8.687
  307POPC   C2B 6812   9.161  19.418   8.306
  307POPC   C3B 6813   9.105  19.561   7.887
  307POPC   C4B 6814   9.330  19.563   7.479
  308POPC   NC3 6815  34.228  42.462   9.610
  308POPC   PO4 6816  33.704  42.012   9.577
  308POPC   GL1 6817  33.965  42.127   9.204
  308POPC   GL2 6818  34.039  42.503   9.147
  308POPC   C1A 6819  33.802  42.231   8.775
  308POPC   D2A 6820  33.951  42.458   8.391
  308POPC   C3A 6821  33.911  42.258   7.974
  308POPC   C4A 6822  33.578  42.315   7.641
  308POPC   C1B 6823  34.228  42.720   8.798
  308POPC   C2B 6824  34.325  42.806   8.388
  308POPC   C3B 6825  34.219  42.680   7.956
  308POPC   C4B 6826  34.225  42.899   7.536
  309POPC   NC3 6827  31.349  11.749   9.338
  309POPC   PO4 6828  31.399  12.281   9.777
  309POPC   GL1 6829  31.402  12.325   9.299
  309POPC   GL2 6830  31.696  12.130   9.211
  309POPC   C1A 6831  31.354  12.175   8.849
  309POPC   D2A 6832  31.482  11.957   8.479
  309POPC   C3A 6833  31.224  11.905   8.173
  309POPC   C4A 6834  31.341  11.934   7.775
  309POPC   C1B 6835  31.816  11.849   8.840
  309POPC   C2B 6836  31.976  11.811   8.415
  309POPC   C3B 6837  31.780  11.785   8.011
  309POPC   C4B 6838  32.003  11.794   7.612
  310POPC   NC3 6839   2.280  34.031   9.629
  310POPC   PO4 6840   1.641  33.844   9.483
  310POPC   GL1 6841   1.875  33.688   9.123
  310POPC   GL2 6842   2.228  33.759   9.180
  310POPC   C1A 6843   2.024  33.635   8.699
  310POPC   D2A 6844   2.115  33.926   8.378
  310POPC   C3A 6845   1.855  34.011   8.008
  310POPC   C4A 6846   2.094  33.991   7.613
  310POPC   C1B 6847   2.491  33.560   8.895
  310POPC   C2B 6848   2.496  33.523   8.463
  310POPC   C3B 6849   2.336  33.595   8.048
  310POPC   C4B 6850   1.995  33.540   7.838
  311POPC   NC3 6851   0.634  16.674   9.413
  311POPC   PO4 6852   0.141  17.013   9.643
  311POPC   GL1 6853   0.115  16.795   9.228
  311POPC   GL2 6854   0.262  16.448   9.129
  311POPC   C1A 6855   0.299  16.855   8.822
  311POPC   D2A 6856   0.320  16.618   8.442
  311POPC   C3A 6857   0.379  16.908   8.118
  311POPC   C4A 6858   0.437  16.788   7.710
  311POPC   C1B 6859   0.649  16.460   8.822
  311POPC   C2B 6860   0.790  16.304   8.429
  311POPC   C3B 6861   0.653  16.437   8.026
  311POPC   C4B 6862   0.435  16.300   7.636
  312POPC   NC3 6863  43.197  22.560   9.555
  312POPC   PO4 6864  42.676  23.023   9.451
  312POPC   GL1 6865  42.869  22.868   9.091
  312POPC   GL2 6866  42.686  23.153   8.924
  312POPC   C1A 6867  43.225  22.975   8.770
  312POPC   D2A 6868  43.291  23.323   8.454
  312POPC   C3A 6869  43.168  23.188   8.040
  312POPC   C4A 6870  43.319  22.866   7.778
  312POPC   C1B 6871  42.765  22.858   8.596
  312POPC   C2B 6872  42.956  22.739   8.226
  312POPC   C3B 6873  42.824  22.701   7.795
  312POPC   C4B 6874  42.869  22.544   7.373
  313POPC   NC3 6875   4.453  27.379   9.495
  313POPC   PO4 6876   4.700  27.883   9.272
  313POPC   GL1 6877   4.437  27.581   9.050
  313POPC   GL2 6878   4.070  27.523   9.129
  313POPC   C1A 6879   4.394  27.363   8.705
  313POPC   D2A 6880   4.634  27.522   8.389
  313POPC   C3A 6881   4.379  27.468   8.055
  313POPC   C4A 6882   4.483  27.441   7.659
  313POPC   C1B 6883   4.105  27.767   8.739
  313POPC   C2B 6884   4.326  27.943   8.423
  313POPC   C3B 6885   4.190  27.956   8.027
  313POPC   C4B 6886   3.968  27.661   7.769
  314POPC   NC3 6887  21.573  29.416   9.539
  314POPC   PO4 6888  20.973  29.391   9.321
  314POPC   GL1 6889  21.345  29.235   9.129
  314POPC   GL2 6890  21.674  29.500   9.062
  314POPC   C1A 6891  21.248  28.994   8.774
  314POPC   D2A 6892  20.962  28.928   8.406
  314POPC   C3A 6893  21.216  28.993   8.037
  314POPC   C4A 6894  21.534  29.164   7.778
  314POPC   C1B 6895  21.357  29.546   8.757
  314POPC   C2B 6896  21.306  29.356   8.380
  314POPC   C3B 6897  21.252  29.543   7.994
  314POPC   C4B 6898  21.147  29.459   7.602
  315POPC   NC3 6899  30.069  14.759   9.401
  315POPC   PO4 6900  29.803  14.101   9.414
  315POPC   GL1 6901  29.863  14.323   9.065
  315POPC   GL2 6902  29.625  14.602   9.131
  315POPC   C1A 6903  29.933  14.207   8.633
  315POPC   D2A 6904  29.731  14.058   8.269
  315POPC   C3A 6905  29.855  14.263   7.924
  315POPC   C4A 6906  30.282  14.381   7.784
  315POPC   C1B 6907  29.805  14.724   8.740
  315POPC   C2B 6908  29.796  14.594   8.313
  315POPC   C3B 6909  30.022  14.755   7.968
  315POPC   C4B 6910  30.317  14.897   7.666
  316POPC   NC3 6911  34.310   4.071   9.603
  316POPC   PO4 6912  34.919   4.183   9.673
  316POPC   GL1 6913  34.714   4.025   9.214
  316POPC   GL2 6914  34.374   4.029   9.112
  316POPC   C1A 6915  34.758   4.141   8.736
  316POPC   D2A 6916  35.014   4.321   8.397
  316POPC   C3A 6917  34.793   4.336   7.993
  316POPC   C4A 6918  34.759   4.304   7.541
  316POPC   C1B 6919  34.255   4.207   8.738
  316POPC   C2B 6920  34.425   4.408   8.405
  316POPC   C3B 6921  34.269   4.199   8.091
  316POPC   C4B 6922  34.259   4.326   7.733
  317POPC   NC3 6923  29.637  37.525   9.678
  317POPC   PO4 6924  30.144  38.007   9.662
  317POPC   GL1 6925  29.985  37.886   9.239
  317POPC   GL2 6926  30.223  38.180   9.165
  317POPC   C1A 6927  29.783  37.660   8.820
  317POPC   D2A 6928  29.795  37.451   8.367
  317POPC   C3A 6929  29.835  37.648   7.941
  317POPC   C4A 6930  30.016  37.469   7.564
  317POPC   C1B 6931  30.047  38.094   8.773
  317POPC   C2B 6932  29.946  37.942   8.391
  317POPC   C3B 6933  30.105  38.092   8.041
  317POPC   C4B 6934  30.147  37.962   7.675
  318POPC   NC3 6935  18.832  25.076   9.255
  318POPC   PO4 6936  19.452  25.151   9.615
  318POPC   GL1 6937  19.374  25.295   9.153
  318POPC   GL2 6938  19.030  25.469   9.007
  318POPC   C1A 6939  19.279  25.136   8.715
  318POPC   D2A 6940  18.994  25.207   8.357
  318POPC   C3A 6941  19.134  25.214   7.934
  318POPC   C4A 6942  19.145  25.573   7.664
  318POPC   C1B 6943  18.622  25.339   8.724
  318POPC   C2B 6944  18.489  25.138   8.346
  318POPC   C3B 6945  18.607  25.318   7.945
  318POPC   C4B 6946  18.706  25.221   7.520
  319POPC   NC3 6947   9.653  30.535   9.582
  319POPC   PO4 6948  10.072  30.914   9.294
  319POPC   GL1 6949   9.788  30.634   9.100
  319POPC   GL2 6950   9.480  30.822   9.203
  319POPC   C1A 6951   9.655  30.420   8.712
  319POPC   D2A 6952   9.472  30.600   8.339
  319POPC   C3A 6953   9.750  30.584   7.992
  319POPC   C4A 6954  10.150  30.528   7.827
  319POPC   C1B 6955   9.510  30.911   8.782
  319POPC   C2B 6956   9.642  31.085   8.384
  319POPC   C3B 6957   9.445  31.007   7.975
  319POPC   C4B 6958   9.609  31.004   7.516
  320POPC   NC3 6959  31.830  10.902   9.429
  320POPC   PO4 6960  31.278  10.575   9.389
  320POPC   GL1 6961  31.343  10.274   9.066
  320POPC   GL2 6962  31.666  10.236   8.998
  320POPC   C1A 6963  31.228  10.196   8.664
  320POPC   D2A 6964  31.427  10.160   8.304
  320POPC   C3A 6965  31.135  10.163   8.018
  320POPC   C4A 6966  31.221  10.336   7.661
  320POPC   C1B 6967  31.547  10.624   8.758
  320POPC   C2B 6968  31.423  10.682   8.340
  320POPC   C3B 6969  31.575  10.537   7.970
  320POPC   C4B 6970  31.730  10.757   7.645
  321POPC   NC3 6971  27.182  23.157   9.400
  321POPC   PO4 6972  26.535  23.322   9.490
  321POPC   GL1 6973  26.714  23.058   9.129
  321POPC   GL2 6974  26.923  22.764   9.098
  321POPC   C1A 6975  26.891  23.085   8.699
  321POPC   D2A 6976  26.720  22.901   8.336
  321POPC   C3A 6977  26.812  22.975   7.901
  321POPC   C4A 6978  26.616  22.946   7.508
  321POPC   C1B 6979  27.127  22.598   8.729
  321POPC   C2B 6980  27.181  22.652   8.288
  321POPC   C3B 6981  26.975  22.504   7.914
  321POPC   C4B 6982  26.940  22.526   7.478
  322POPC   NC3 6983  27.473   0.502   9.548
  322POPC   PO4 6984  27.874   0.063   9.306
  322POPC   GL1 6985  27.668   0.333   9.077
  322POPC   GL2 6986  27.348   0.233   9.096
  322POPC   C1A 6987  27.683   0.403   8.665
  322POPC   D2A 6988  27.620   0.198   8.316
  322POPC   C3A 6989  27.888   0.410   8.097
  322POPC   C4A 6990  27.874   0.537   7.726
  322POPC   C1B 6991  27.259   0.622   8.842
  322POPC   C2B 6992  27.188   0.721   8.412
  322POPC   C3B 6993  27.360   0.646   8.019
  322POPC   C4B 6994  27.190   0.528   7.645
  323POPC   NC3 6995  37.516  21.320   9.569
  323POPC   PO4 6996  38.134  21.172   9.737
  323POPC   GL1 6997  37.967  21.292   9.283
  323POPC   GL2 6998  37.638  21.455   9.110
  323POPC   C1A 6999  37.959  21.182   8.855
  323POPC   D2A 7000  37.978  21.199   8.410
  323POPC   C3A 7001  37.711  21.459   8.173
  323POPC   C4A 7002  37.610  21.221   7.833
  323POPC   C1B 7003  37.306  21.596   8.785
  323POPC   C2B 7004  37.086  21.542   8.398
  323POPC   C3B 7005  37.142  21.741   7.991
  323POPC   C4B 7006  37.508  21.758   7.782
  324POPC   NC3 7007   9.259  22.423   9.484
  324POPC   PO4 7008   8.578  22.579   9.454
  324POPC   GL1 7009   8.882  22.383   9.145
  324POPC   GL2 7010   8.799  22.075   8.988
  324POPC   C1A 7011   9.105  22.430   8.752
  324POPC   D2A 7012   8.818  22.397   8.423
  324POPC   C3A 7013   8.941  22.217   8.049
  324POPC   C4A 7014   8.822  22.281   7.626
  324POPC   C1B 7015   9.128  21.918   8.737
  324POPC   C2B 7016   9.345  22.078   8.399
  324POPC   C3B 7017   9.348  21.940   7.982
  324POPC   C4B 7018   9.014  21.807   7.716
  325POPC   NC3 7019  22.439   9.218   9.698
  325POPC   PO4 7020  21.942   8.933   9.497
  325POPC   GL1 7021  22.216   9.009   9.138
  325POPC   GL2 7022  22.328   9.349   9.140
  325POPC   C1A 7023  22.101   8.958   8.694
  325POPC   D2A 7024  21.835   9.040   8.362
  325POPC   C3A 7025  21.908   8.928   7.934
  325POPC   C4A 7026  21.919   9.174   7.568
  325POPC   C1B 7027  22.522   9.240   8.728
  325POPC   C2B 7028  22.402   9.091   8.287
  325POPC   C3B 7029  22.371   9.103   7.818
  325POPC   C4B 7030  22.389   9.256   7.385
  326POPC   NC3 7031   7.141  11.436   9.413
  326POPC   PO4 7032   7.580  10.921   9.502
  326POPC   GL1 7033   7.517  11.167   9.157
  326POPC   GL2 7034   7.547  11.530   9.125
  326POPC   C1A 7035   7.606  11.179   8.736
  326POPC   D2A 7036   7.341  11.160   8.409
  326POPC   C3A 7037   7.445  11.247   8.008
  326POPC   C4A 7038   7.117  11.237   7.722
  326POPC   C1B 7039   7.261  11.569   8.767
  326POPC   C2B 7040   7.367  11.694   8.359
  326POPC   C3B 7041   7.179  11.678   7.996
  326POPC   C4B 7042   7.388  11.656   7.626
  327POPC   NC3 7043  15.711  21.920   9.406
  327POPC   PO4 7044  16.117  22.475   9.413
  327POPC   GL1 7045  16.096  22.272   9.053
  327POPC   GL2 7046  16.210  21.960   9.148
  327POPC   C1A 7047  15.843  22.166   8.702
  327POPC   D2A 7048  15.739  21.917   8.355
  327POPC   C3A 7049  15.894  22.112   8.030
  327POPC   C4A 7050  15.721  22.162   7.618
  327POPC   C1B 7051  16.385  21.770   8.821
  327POPC   C2B 7052  16.231  21.897   8.435
  327POPC   C3B 7053  16.383  21.972   8.035
  327POPC   C4B 7054  16.264  22.052   7.629
  328POPC   NC3 7055  34.502  24.239   9.466
  328POPC   PO4 7056  34.823  24.792   9.319
  328POPC   GL1 7057  34.742  24.451   9.056
  328POPC   GL2 7058  34.420  24.513   9.033
  328POPC   C1A 7059  34.745  24.430   8.618
  328POPC   D2A 7060  34.758  24.681   8.243
  328POPC   C3A 7061  34.667  24.453   7.875
  328POPC   C4A 7062  34.776  24.501   7.446
  328POPC   C1B 7063  34.209  24.484   8.678
  328POPC   C2B 7064  34.333  24.419   8.280
  328POPC   C3B 7065  34.180  24.331   7.871
  328POPC   C4B 7066  34.395  24.189   7.513
  329POPC   NC3 7067  31.847  43.949   9.682
  329POPC   PO4 7068  31.210  43.858   9.477
  329POPC   GL1 7069  31.428  44.057   9.123
  329POPC   GL2 7070  31.813  44.077   9.165
  329POPC   C1A 7071  31.278  44.119   8.691
  329POPC   D2A 7072  30.977  44.052   8.343
  329POPC   C3A 7073  31.151  43.889   7.948
  329POPC   C4A 7074  31.198  43.632   7.570
  329POPC   C1B 7075  31.752  43.905   8.726
  329POPC   C2B 7076  31.542  43.832   8.316
  329POPC   C3B 7077  31.617  43.657   7.889
  329POPC   C4B 7078  31.568  44.036   7.639
  330POPC   NC3 7079  30.971   5.877   9.813
  330POPC   PO4 7080  30.600   5.459   9.392
  330POPC   GL1 7081  30.541   5.669   8.985
  330POPC   GL2 7082  30.526   6.020   9.003
  330POPC   C1A 7083  30.807   5.631   8.641
  330POPC   D2A 7084  30.702   5.320   8.414
  330POPC   C3A 7085  30.821   5.526   8.081
  330POPC   C4A 7086  30.638   5.579   7.717
  330POPC   C1B 7087  30.482   6.012   8.578
  330POPC   C2B 7088  30.783   6.102   8.310
  330POPC   C3B 7089  30.888   6.000   7.900
  330POPC   C4B 7090  30.516   6.087   7.640
  331POPC   NC3 7091  27.013  43.084   9.528
  331POPC   PO4 7092  27.757  43.070   9.478
  331POPC   GL1 7093  27.563  43.031   9.073
  331POPC   GL2 7094  27.210  43.146   9.076
  331POPC   C1A 7095  27.455  42.968   8.642
  331POPC   D2A 7096  27.596  43.106   8.246
  331POPC   C3A 7097  27.559  42.836   7.891
  331POPC   C4A 7098  27.690  42.978   7.462
  331POPC   C1B 7099  27.412  43.446   8.847
  331POPC   C2B 7100  27.230  43.394   8.457
  331POPC   C3B 7101  27.296  43.526   8.077
  331POPC   C4B 7102  27.431  43.299   7.758
  332POPC   NC3 7103  32.644  44.688   9.461
  332POPC   PO4 7104  32.018  44.388   9.557
  332POPC   GL1 7105  32.196  44.535   9.169
  332POPC   GL2 7106  32.530  44.366   9.090
  332POPC   C1A 7107  32.099  44.828   8.813
  332POPC   D2A 7108  31.882   0.025   8.451
  332POPC   C3A 7109  32.072  44.915   8.064
  332POPC   C4A 7110  32.218  44.821   7.684
  332POPC   C1B 7111  32.438  44.467   8.698
  332POPC   C2B 7112  32.448  44.623   8.305
  332POPC   C3B 7113  32.258  44.398   7.990
  332POPC   C4B 7114  32.298  44.320   7.588
  333POPC   NC3 7115  21.789   7.606   9.197
  333POPC   PO4 7116  21.146   7.540   9.410
  333POPC   GL1 7117  21.326   7.390   9.044
  333POPC   GL2 7118  21.589   7.124   9.031
  333POPC   C1A 7119  21.144   7.424   8.663
  333POPC   D2A 7120  21.277   7.656   8.329
  333POPC   C3A 7121  21.300   7.412   8.007
  333POPC   C4A 7122  21.045   7.265   7.732
  333POPC   C1B 7123  21.656   7.374   8.634
  333POPC   C2B 7124  21.787   7.531   8.271
  333POPC   C3B 7125  21.779   7.265   7.960
  333POPC   C4B 7126  21.630   7.373   7.588
  334POPC   NC3 7127  11.647   2.092   9.360
  334POPC   PO4 7128  12.337   2.279   9.478
  334POPC   GL1 7129  12.123   2.151   9.147
  334POPC   GL2 7130  11.904   2.420   9.088
  334POPC   C1A 7131  12.075   1.778   8.888
  334POPC   D2A 7132  11.929   1.702   8.476
  334POPC   C3A 7133  12.194   1.645   8.100
  334POPC   C4A 7134  12.037   1.663   7.672
  334POPC   C1B 7135  11.900   2.218   8.669
  334POPC   C2B 7136  12.196   2.122   8.320
  334POPC   C3B 7137  12.155   2.121   7.867
  334POPC   C4B 7138  12.073   2.187   7.418
  335POPC   NC3 7139  11.937  11.648   9.826
  335POPC   PO4 7140  11.910  11.115   9.470
  335POPC   GL1 7141  11.904  11.443   9.167
  335POPC   GL2 7142  12.224  11.428   8.969
  335POPC   C1A 7143  11.772  11.486   8.733
  335POPC   D2A 7144  11.842  11.313   8.357
  335POPC   C3A 7145  11.731  11.648   8.107
  335POPC   C4A 7146  11.852  11.548   7.723
  335POPC   C1B 7147  12.012  11.031   8.766
  335POPC   C2B 7148  12.068  10.833   8.334
  335POPC   C3B 7149  11.985  11.046   7.913
  335POPC   C4B 7150  12.270  11.270   7.599
  336POPC   NC3 7151  17.221  30.062   9.596
  336POPC   PO4 7152  17.733  29.696   9.701
  336POPC   GL1 7153  17.607  29.773   9.288
  336POPC   GL2 7154  17.338  29.539   9.165
  336POPC   C1A 7155  17.397  30.013   8.953
  336POPC   D2A 7156  17.327  29.885   8.534
  336POPC   C3A 7157  17.479  29.913   8.105
  336POPC   C4A 7158  17.364  30.113   7.740
  336POPC   C1B 7159  17.647  29.569   8.807
  336POPC   C2B 7160  17.568  29.461   8.351
  336POPC   C3B 7161  17.586  29.417   7.911
  336POPC   C4B 7162  17.631  29.698   7.621
  337POPC   NC3 7163  17.144  18.070   9.395
  337POPC   PO4 7164  16.460  18.208   9.512
  337POPC   GL1 7165  16.603  18.410   9.121
  337POPC   GL2 7166  16.776  18.139   9.024
  337POPC   C1A 7167  16.719  18.490   8.671
  337POPC   D2A 7168  16.953  18.744   8.377
  337POPC   C3A 7169  16.810  18.575   7.985
  337POPC   C4A 7170  16.689  18.254   7.709
  337POPC   C1B 7171  16.574  17.978   8.631
  337POPC   C2B 7172  16.561  17.904   8.142
  337POPC   C3B 7173  16.370  17.853   7.714
  337POPC   C4B 7174  16.569  17.932   7.267
  338POPC   NC3 7175  40.108  37.309   9.544
  338POPC   PO4 7176  39.812  36.626   9.423
  338POPC   GL1 7177  40.036  36.949   9.163
  338POPC   GL2 7178  39.774  37.196   9.076
  338POPC   C1A 7179  40.206  37.111   8.765
  338POPC   D2A 7180  40.025  37.165   8.318
  338POPC   C3A 7181  40.253  37.066   7.916
  338POPC   C4A 7182  40.324  37.042   7.427
  338POPC   C1B 7183  39.707  36.854   8.760
  338POPC   C2B 7184  39.668  36.555   8.394
  338POPC   C3B 7185  39.612  36.650   7.939
  338POPC   C4B 7186  39.794  36.951   7.667
  339POPC   NC3 7187   7.191   8.942   9.946
  339POPC   PO4 7188   7.471   9.424   9.571
  339POPC   GL1 7189   7.549   9.009   9.329
  339POPC   GL2 7190   7.246   8.824   9.221
  339POPC   C1A 7191   7.693   8.940   8.880
  339POPC   D2A 7192   7.859   9.125   8.470
  339POPC   C3A 7193   7.622   9.213   8.074
  339POPC   C4A 7194   7.504   8.971   7.693
  339POPC   C1B 7195   7.210   8.818   8.755
  339POPC   C2B 7196   7.298   8.887   8.329
  339POPC   C3B 7197   7.065   8.886   7.959
  339POPC   C4B 7198   7.071   8.731   7.534
  340POPC   NC3 7199  10.593  37.253   9.409
  340POPC   PO4 7200  10.209  36.720   9.479
  340POPC   GL1 7201  10.450  36.832   9.118
  340POPC   GL2 7202  10.265  37.125   9.051
  340POPC   C1A 7203  10.707  36.706   8.734
  340POPC   D2A 7204  11.019  36.672   8.382
  340POPC   C3A 7205  10.834  36.807   8.002
  340POPC   C4A 7206  10.442  36.785   7.786
  340POPC   C1B 7207  10.217  36.912   8.665
  340POPC   C2B 7208  10.255  36.927   8.236
  340POPC   C3B 7209  10.355  37.259   7.930
  340POPC   C4B 7210  10.394  37.220   7.430
  341POPC   NC3 7211  27.043  39.956   9.476
  341POPC   PO4 7212  26.435  39.530   9.451
  341POPC   GL1 7213  26.743  39.718   9.139
  341POPC   GL2 7214  27.084  39.610   9.069
  341POPC   C1A 7215  26.866  39.984   8.778
  341POPC   D2A 7216  26.873  39.947   8.321
  341POPC   C3A 7217  26.654  40.307   8.123
  341POPC   C4A 7218  26.505  40.441   7.729
  341POPC   C1B 7219  27.100  39.514   8.629
  341POPC   C2B 7220  27.252  39.628   8.217
  341POPC   C3B 7221  27.019  39.737   7.852
  341POPC   C4B 7222  27.204  39.764   7.456
  342POPC   NC3 7223  26.423   1.683   9.394
  342POPC   PO4 7224  25.755   1.637   9.484
  342POPC   GL1 7225  25.766   1.952   9.157
  342POPC   GL2 7226  26.109   2.113   9.181
  342POPC   C1A 7227  25.746   2.225   8.792
  342POPC   D2A 7228  25.995   2.267   8.436
  342POPC   C3A 7229  25.895   2.090   8.064
  342POPC   C4A 7230  25.921   2.194   7.633
  342POPC   C1B 7231  26.256   1.974   8.778
  342POPC   C2B 7232  26.346   1.882   8.340
  342POPC   C3B 7233  26.411   2.129   7.961
  342POPC   C4B 7234  26.438   2.083   7.529
  343POPC   NC3 7235  31.937  43.000   9.382
  343POPC   PO4 7236  31.291  43.021   9.744
  343POPC   GL1 7237  31.246  43.222   9.177
  343POPC   GL2 7238  31.591  43.215   9.027
  343POPC   C1A 7239  31.180  43.080   8.706
  343POPC   D2A 7240  31.505  42.998   8.374
  343POPC   C3A 7241  31.434  43.164   7.998
  343POPC   C4A 7242  31.270  42.887   7.712
  343POPC   C1B 7243  31.581  43.429   8.641
  343POPC   C2B 7244  31.889  43.459   8.322
  343POPC   C3B 7245  31.964  43.135   8.039
  343POPC   C4B 7246  31.767  43.104   7.616
  344POPC   NC3 7247  38.160  43.242   9.600
  344POPC   PO4 7248  38.825  43.270   9.721
  344POPC   GL1 7249  38.601  43.123   9.323
  344POPC   GL2 7250  38.468  43.381   9.165
  344POPC   C1A 7251  38.529  42.889   8.928
  344POPC   D2A 7252  38.649  42.968   8.498
  344POPC   C3A 7253  38.412  42.849   8.138
  344POPC   C4A 7254  38.657  43.031   7.865
  344POPC   C1B 7255  38.313  43.305   8.773
  344POPC   C2B 7256  38.172  43.211   8.376
  344POPC   C3B 7257  38.203  43.337   7.941
  344POPC   C4B 7258  38.378  43.302   7.497
  345POPC   NC3 7259   3.399  40.609   9.439
  345POPC   PO4 7260   4.049  40.938   9.540
  345POPC   GL1 7261   3.742  40.965   9.126
  345POPC   GL2 7262   3.427  40.979   9.117
  345POPC   C1A 7263   3.665  40.721   8.716
  345POPC   D2A 7264   3.635  40.367   8.387
  345POPC   C3A 7265   3.710  40.492   7.945
  345POPC   C4A 7266   3.644  40.913   7.806
  345POPC   C1B 7267   3.200  40.961   8.734
  345POPC   C2B 7268   3.286  40.878   8.287
  345POPC   C3B 7269   3.157  41.016   7.880
  345POPC   C4B 7270   3.042  41.014   7.394
  346POPC   NC3 7271  33.874  21.807   9.452
  346POPC   PO4 7272  33.721  21.075   9.483
  346POPC   GL1 7273  33.977  21.330   9.227
  346POPC   GL2 7274  33.681  21.490   9.116
  346POPC   C1A 7275  34.063  21.264   8.811
  346POPC   D2A 7276  33.738  21.297   8.502
  346POPC   C3A 7277  33.844  21.250   8.081
  346POPC   C4A 7278  33.947  21.517   7.709
  346POPC   C1B 7279  33.421  21.570   8.800
  346POPC   C2B 7280  33.488  21.729   8.390
  346POPC   C3B 7281  33.537  21.659   7.990
  346POPC   C4B 7282  33.477  21.288   7.740
  347POPC   NC3 7283   3.599  12.112   9.436
  347POPC   PO4 7284   3.049  11.695   9.489
  347POPC   GL1 7285   3.246  11.834   9.079
  347POPC   GL2 7286   3.533  12.035   8.952
  347POPC   C1A 7287   3.374  11.672   8.661
  347POPC   D2A 7288   3.576  11.671   8.267
  347POPC   C3A 7289   3.374  11.847   7.922
  347POPC   C4A 7290   3.529  11.881   7.496
  347POPC   C1B 7291   3.861  11.852   8.668
  347POPC   C2B 7292   4.046  11.935   8.268
  347POPC   C3B 7293   3.855  11.973   7.918
  347POPC   C4B 7294   3.716  12.342   7.772
  348POPC   NC3 7295  21.231  38.927   9.484
  348POPC   PO4 7296  21.526  39.452   9.769
  348POPC   GL1 7297  21.438  39.325   9.235
  348POPC   GL2 7298  21.506  38.981   9.032
  348POPC   C1A 7299  21.167  39.301   8.822
  348POPC   D2A 7300  21.025  39.164   8.380
  348POPC   C3A 7301  21.353  39.235   8.035
  348POPC   C4A 7302  21.665  39.571   7.847
  348POPC   C1B 7303  21.690  39.279   8.701
  348POPC   C2B 7304  21.842  39.288   8.266
  348POPC   C3B 7305  21.809  39.064   7.873
  348POPC   C4B 7306  21.671  38.798   7.541
  349POPC   NC3 7307  21.141  18.783   9.598
  349POPC   PO4 7308  21.518  19.299   9.542
  349POPC   GL1 7309  21.263  19.065   9.169
  349POPC   GL2 7310  21.251  18.680   9.115
  349POPC   C1A 7311  21.288  18.988   8.677
  349POPC   D2A 7312  21.637  18.887   8.345
  349POPC   C3A 7313  21.755  19.108   7.898
  349POPC   C4A 7314  21.813  19.196   7.408
  349POPC   C1B 7315  21.321  18.459   8.725
  349POPC   C2B 7316  21.272  18.504   8.300
  349POPC   C3B 7317  21.385  18.726   7.935
  349POPC   C4B 7318  21.328  19.024   7.622
  350POPC   NC3 7319   5.616  18.528   9.867
  350POPC   PO4 7320   5.130  18.430   9.423
  350POPC   GL1 7321   5.188  18.100   9.149
  350POPC   GL2 7322   5.241  18.376   8.940
  350POPC   C1A 7323   5.359  17.954   8.762
  350POPC   D2A 7324   5.386  18.271   8.454
  350POPC   C3A 7325   5.147  18.156   8.128
  350POPC   C4A 7326   5.219  18.119   7.721
  350POPC   C1B 7327   4.878  18.428   8.740
  350POPC   C2B 7328   4.715  18.262   8.385
  350POPC   C3B 7329   4.578  18.141   7.972
  350POPC   C4B 7330   4.777  18.366   7.657
  351POPC   NC3 7331  16.203  31.873   9.525
  351POPC   PO4 7332  15.977  32.572   9.473
  351POPC   GL1 7333  15.909  32.247   9.148
  351POPC   GL2 7334  16.063  31.918   9.044
  351POPC   C1A 7335  15.946  32.281   8.700
  351POPC   D2A 7336  16.201  32.119   8.385
  351POPC   C3A 7337  16.092  32.344   8.049
  351POPC   C4A 7338  16.066  32.554   7.673
  351POPC   C1B 7339  15.640  31.884   8.865
  351POPC   C2B 7340  15.587  31.994   8.434
  351POPC   C3B 7341  15.820  31.916   8.079
  351POPC   C4B 7342  15.873  32.077   7.677
  352POPC   NC3 7343  37.248  30.128   9.358
  352POPC   PO4 7344  36.522  29.993   9.553
  352POPC   GL1 7345  36.739  29.904   9.196
  352POPC   GL2 7346  36.502  29.649   9.121
  352POPC   C1A 7347  36.871  30.034   8.785
  352POPC   D2A 7348  36.880  29.854   8.368
  352POPC   C3A 7349  36.988  30.133   8.047
  352POPC   C4A 7350  36.866  30.175   7.640
  352POPC   C1B 7351  36.403  29.757   8.717
  352POPC   C2B 7352  36.394  29.665   8.296
  352POPC   C3B 7353  36.588  29.806   7.932
  352POPC   C4B 7354  36.646  29.745   7.508
  353POPC   NC3 7355   5.712   1.078   9.300
  353POPC   PO4 7356   6.241   1.320   9.440
  353POPC   GL1 7357   6.145   1.273   9.067
  353POPC   GL2 7358   6.164   0.973   9.040
  353POPC   C1A 7359   5.940   1.383   8.693
  353POPC   D2A 7360   6.205   1.411   8.322
  353POPC   C3A 7361   5.960   1.660   8.067
  353POPC   C4A 7362   5.759   1.436   7.750
  353POPC   C1B 7363   6.030   0.897   8.675
  353POPC   C2B 7364   5.845   1.035   8.315
  353POPC   C3B 7365   5.923   0.923   7.925
  353POPC   C4B 7366   5.592   0.911   7.682
  354POPC   NC3 7367  28.666  43.352   9.410
  354POPC   PO4 7368  28.649  42.690   9.516
  354POPC   GL1 7369  28.460  42.959   9.156
  354POPC   GL2 7370  28.189  43.220   9.202
  354POPC   C1A 7371  28.414  43.071   8.714
  354POPC   D2A 7372  28.603  43.016   8.309
  354POPC   C3A 7373  28.493  43.198   7.944
  354POPC   C4A 7374  28.293  43.611   7.890
  354POPC   C1B 7375  27.945  43.275   8.792
  354POPC   C2B 7376  28.100  43.270   8.344
  354POPC   C3B 7377  28.005  43.086   7.934
  354POPC   C4B 7378  28.176  42.919   7.579
  355POPC   NC3 7379   4.020  17.979   9.472
  355POPC   PO4 7380   3.542  17.386   9.465
  355POPC   GL1 7381   3.615  17.573   9.115
  355POPC   GL2 7382   3.928  17.362   9.080
  355POPC   C1A 7383   3.370  17.544   8.718
  355POPC   D2A 7384   3.309  17.208   8.414
  355POPC   C3A 7385   3.160  17.305   8.022
  355POPC   C4A 7386   3.322  17.593   7.761
  355POPC   C1B 7387   3.891  17.622   8.705
  355POPC   C2B 7388   3.796  17.819   8.329
  355POPC   C3B 7389   3.798  17.704   7.892
  355POPC   C4B 7390   3.663  17.869   7.489
  356POPC   NC3 7391  28.784   9.517   9.746
  356POPC   PO4 7392  29.174   9.738   9.255
  356POPC   GL1 7393  29.149   9.601   8.933
  356POPC   GL2 7394  29.462   9.418   8.955
  356POPC   C1A 7395  28.986   9.781   8.572
  356POPC   D2A 7396  28.899   9.734   8.138
  356POPC   C3A 7397  29.030  10.097   7.910
  356POPC   C4A 7398  29.204  10.024   7.511
  356POPC   C1B 7399  29.349   9.368   8.542
  356POPC   C2B 7400  29.481   9.333   8.159
  356POPC   C3B 7401  29.254   9.518   7.818
  356POPC   C4B 7402  29.421   9.568   7.411
  357POPC   NC3 7403  39.345  30.229   9.427
  357POPC   PO4 7404  38.651  30.421   9.462
  357POPC   GL1 7405  38.946  30.163   9.128
  357POPC   GL2 7406  39.248  30.353   8.938
  357POPC   C1A 7407  39.180  29.874   8.805
  357POPC   D2A 7408  39.361  30.046   8.441
  357POPC   C3A 7409  39.261  29.772   8.088
  357POPC   C4A 7410  39.278  29.662   7.652
  357POPC   C1B 7411  39.685  30.411   8.755
  357POPC   C2B 7412  39.765  30.352   8.300
  357POPC   C3B 7413  39.397  30.305   7.996
  357POPC   C4B 7414  39.412  30.165   7.560
  358POPC   NC3 7415   4.815  18.043   9.516
  358POPC   PO4 7416   5.205  17.438   9.524
  358POPC   GL1 7417   5.036  17.336   9.141
  358POPC   GL2 7418   4.905  17.665   9.137
  358POPC   C1A 7419   5.205  17.465   8.733
  358POPC   D2A 7420   5.206  17.674   8.347
  358POPC   C3A 7421   5.232  17.365   7.992
  358POPC   C4A 7422   5.345  17.336   7.516
  358POPC   C1B 7423   4.860  17.878   8.747
  358POPC   C2B 7424   4.712  17.764   8.345
  358POPC   C3B 7425   4.895  17.750   7.937
  358POPC   C4B 7426   4.794  17.877   7.541
  359POPC   NC3 7427  15.941  23.762   9.469
  359POPC   PO4 7428  16.410  23.410   9.212
  359POPC   GL1 7429  16.109  23.597   9.017
  359POPC   GL2 7430  16.226  23.892   9.020
  359POPC   C1A 7431  15.842  23.493   8.664
  359POPC   D2A 7432  16.016  23.379   8.289
  359POPC   C3A 7433  15.753  23.446   7.951
  359POPC   C4A 7434  15.794  23.347   7.532
  359POPC   C1B 7435  16.266  23.753   8.581
  359POPC   C2B 7436  16.021  23.901   8.289
  359POPC   C3B 7437  16.086  23.824   7.907
  359POPC   C4B 7438  16.237  23.610   7.667
  360POPC   NC3 7439  40.150  39.390   9.478
  360POPC   PO4 7440  39.593  39.136   9.563
  360POPC   GL1 7441  39.838  39.042   9.190
  360POPC   GL2 7442  39.855  39.409   9.048
  360POPC   C1A 7443  40.035  39.027   8.788
  360POPC   D2A 7444  39.913  39.296   8.483
  360POPC   C3A 7445  39.899  39.220   8.058
  360POPC   C4A 7446  39.933  39.044   7.653
  360POPC   C1B 7447  40.308  39.446   8.866
  360POPC   C2B 7448  40.430  39.314   8.497
  360POPC   C3B 7449  40.320  39.521   8.138
  360POPC   C4B 7450  40.201  39.463   7.720
  361POPC   NC3 7451   3.223  18.577   9.385
  361POPC   PO4 7452   3.781  18.330   9.692
  361POPC   GL1 7453   3.607  18.197   9.272
  361POPC   GL2 7454   3.605  18.475   9.072
  361POPC   C1A 7455   3.533  18.015   8.844
  361POPC   D2A 7456   3.289  18.053   8.469
  361POPC   C3A 7457   3.491  18.158   8.071
  361POPC   C4A 7458   3.236  18.105   7.714
  361POPC   C1B 7459   3.816  18.637   8.736
  361POPC   C2B 7460   3.872  18.436   8.370
  361POPC   C3B 7461   3.820  18.605   7.999
  361POPC   C4B 7462   3.450  18.577   7.742
  362POPC   NC3 7463   5.847  10.104   9.580
  362POPC   PO4 7464   5.595   9.389   9.441
  362POPC   GL1 7465   5.887   9.550   9.139
  362POPC   GL2 7466   5.969   9.887   9.146
  362POPC   C1A 7467   6.007   9.419   8.723
  362POPC   D2A 7468   5.770   9.315   8.331
  362POPC   C3A 7469   5.754   9.650   8.013
  362POPC   C4A 7470   6.067   9.862   7.807
  362POPC   C1B 7471   5.871   9.911   8.719
  362POPC   C2B 7472   5.925  10.071   8.315
  362POPC   C3B 7473   5.586  10.238   8.098
  362POPC   C4B 7474   5.518  10.042   7.730
  363POPC   NC3 7475   3.997  36.084   9.538
  363POPC   PO4 7476   4.497  36.512   9.620
  363POPC   GL1 7477   4.290  36.347   9.221
  363POPC   GL2 7478   4.245  36.020   9.097
  363POPC   C1A 7479   4.014  36.415   8.872
  363POPC   D2A 7480   4.014  36.500   8.433
  363POPC   C3A 7481   4.185  36.190   8.173
  363POPC   C4A 7482   4.076  36.263   7.773
  363POPC   C1B 7483   4.230  35.978   8.656
  363POPC   C2B 7484   4.249  35.700   8.312
  363POPC   C3B 7485   4.000  35.738   7.962
  363POPC   C4B 7486   4.045  35.806   7.541
  364POPC   NC3 7487   7.109  21.517   9.442
  364POPC   PO4 7488   7.630  21.063   9.602
  364POPC   GL1 7489   7.527  21.143   9.150
  364POPC   GL2 7490   7.312  21.367   8.997
  364POPC   C1A 7491   7.662  21.122   8.726
  364POPC   D2A 7492   7.419  21.070   8.349
  364POPC   C3A 7493   7.482  21.333   7.962
  364POPC   C4A 7494   7.623  21.766   7.941
  364POPC   C1B 7495   7.031  21.581   8.759
  364POPC   C2B 7496   6.876  21.675   8.348
  364POPC   C3B 7497   7.112  21.699   7.971
  364POPC   C4B 7498   7.258  21.692   7.570
  365POPC   NC3 7499   2.374  43.930   9.265
  365POPC   PO4 7500   2.889  43.984   9.705
  365POPC   GL1 7501   2.920  43.896   9.249
  365POPC   GL2 7502   2.847  44.216   9.129
  365POPC   C1A 7503   2.978  43.910   8.776
  365POPC   D2A 7504   2.652  43.762   8.488
  365POPC   C3A 7505   2.828  43.836   8.102
  365POPC   C4A 7506   2.850  43.877   7.686
  365POPC   C1B 7507   2.577  44.228   8.740
  365POPC   C2B 7508   2.706  44.272   8.332
  365POPC   C3B 7509   2.539  44.236   7.941
  365POPC   C4B 7510   2.601  44.334   7.557
  366POPC   NC3 7511  38.723  25.981   9.500
  366POPC   PO4 7512  38.103  25.779   9.343
  366POPC   GL1 7513  38.295  26.153   9.176
  366POPC   GL2 7514  38.646  26.142   9.035
  366POPC   C1A 7515  38.252  26.141   8.740
  366POPC   D2A 7516  38.299  25.818   8.450
  366POPC   C3A 7517  38.393  25.989   8.073
  366POPC   C4A 7518  38.302  25.826   7.691
  366POPC   C1B 7519  38.942  26.080   8.729
  366POPC   C2B 7520  38.832  25.967   8.339
  366POPC   C3B 7521  38.909  26.044   7.925
  366POPC   C4B 7522  38.678  26.204   7.657
  367POPC   NC3 7523  34.380  24.980   9.340
  367POPC   PO4 7524  34.418  25.669   9.454
  367POPC   GL1 7525  34.657  25.562   9.056
  367POPC   GL2 7526  34.756  25.211   9.047
  367POPC   C1A 7527  34.599  25.410   8.620
  367POPC   D2A 7528  34.666  25.188   8.256
  367POPC   C3A 7529  34.377  25.356   7.981
  367POPC   C4A 7530  34.520  25.514   7.612
  367POPC   C1B 7531  34.572  24.911   8.711
  367POPC   C2B 7532  34.240  24.929   8.408
  367POPC   C3B 7533  34.309  24.853   7.993
  367POPC   C4B 7534  34.674  25.008   7.746
  368POPC   NC3 7535  40.772  20.685   9.568
  368POPC   PO4 7536  41.136  20.183   9.351
  368POPC   GL1 7537  40.845  20.456   9.109
  368POPC   GL2 7538  40.977  20.781   9.107
  368POPC   C1A 7539  40.707  20.359   8.667
  368POPC   D2A 7540  40.745  20.602   8.249
  368POPC   C3A 7541  40.966  20.439   7.867
  368POPC   C4A 7542  41.076  20.294   7.443
  368POPC   C1B 7543  40.802  20.844   8.723
  368POPC   C2B 7544  40.870  21.099   8.398
  368POPC   C3B 7545  40.673  21.145   8.040
  368POPC   C4B 7546  40.659  20.841   7.770
  369POPC   NC3 7547   4.917  21.988   9.569
  369POPC   PO4 7548   5.559  21.963   9.421
  369POPC   GL1 7549   5.259  22.220   9.146
  369POPC   GL2 7550   4.879  22.173   9.100
  369POPC   C1A 7551   5.390  22.327   8.747
  369POPC   D2A 7552   5.334  22.120   8.370
  369POPC   C3A 7553   5.296  22.388   8.033
  369POPC   C4A 7554   5.391  22.123   7.744
  369POPC   C1B 7555   4.911  22.508   8.775
  369POPC   C2B 7556   4.901  22.384   8.363
  369POPC   C3B 7557   4.643  22.067   8.139
  369POPC   C4B 7558   4.849  22.080   7.763
  370POPC   NC3 7559  20.258   4.073   9.435
  370POPC   PO4 7560  20.905   4.082   9.718
  370POPC   GL1 7561  20.738   4.274   9.275
  370POPC   GL2 7562  20.455   4.451   9.168
  370POPC   C1A 7563  20.823   4.378   8.819
  370POPC   D2A 7564  20.576   4.631   8.526
  370POPC   C3A 7565  20.710   4.551   8.091
  370POPC   C4A 7566  20.587   4.349   7.755
  370POPC   C1B 7567  20.327   4.221   8.766
  370POPC   C2B 7568  20.425   4.173   8.307
  370POPC   C3B 7569  20.226   4.059   7.909
  370POPC   C4B 7570  20.370   3.967   7.465
  371POPC   NC3 7571  25.497  17.152   9.820
  371POPC   PO4 7572  25.471  17.656   9.358
  371POPC   GL1 7573  25.262  17.590   9.056
  371POPC   GL2 7574  25.000  17.424   9.158
  371POPC   C1A 7575  25.272  17.441   8.683
  371POPC   D2A 7576  25.144  17.621   8.300
  371POPC   C3A 7577  25.395  17.418   8.009
  371POPC   C4A 7578  25.443  17.395   7.571
  371POPC   C1B 7579  24.811  17.619   8.779
  371POPC   C2B 7580  24.617  17.494   8.398
  371POPC   C3B 7581  24.688  17.686   8.039
  371POPC   C4B 7582  25.018  17.644   7.764
  372POPC   NC3 7583  20.965   5.479   9.375
  372POPC   PO4 7584  20.487   6.000   9.498
  372POPC   GL1 7585  20.702   5.863   9.148
  372POPC   GL2 7586  20.527   5.544   9.078
  372POPC   C1A 7587  20.706   5.902   8.710
  372POPC   D2A 7588  20.441   5.886   8.348
  372POPC   C3A 7589  20.660   5.614   8.071
  372POPC   C4A 7590  21.010   5.828   7.886
  372POPC   C1B 7591  20.290   5.529   8.681
  372POPC   C2B 7592  20.175   5.427   8.229
  372POPC   C3B 7593  20.169   5.722   7.880
  372POPC   C4B 7594  20.490   6.019   7.822
  373POPC   NC3 7595  20.922  16.003   9.359
  373POPC   PO4 7596  21.529  15.850   9.586
  373POPC   GL1 7597  21.589  15.955   9.140
  373POPC   GL2 7598  21.262  15.894   8.996
  373POPC   C1A 7599  21.519  16.220   8.726
  373POPC   D2A 7600  21.274  16.136   8.341
  373POPC   C3A 7601  21.478  16.213   7.962
  373POPC   C4A 7602  21.626  15.818   7.856
  373POPC   C1B 7603  20.936  16.138   8.734
  373POPC   C2B 7604  20.838  16.410   8.366
  373POPC   C3B 7605  20.884  16.184   7.986
  373POPC   C4B 7606  21.119  15.833   7.874
  374POPC   NC3 7607   3.531  21.923   9.456
  374POPC   PO4 7608   3.803  22.507   9.547
  374POPC   GL1 7609   3.665  22.334   9.175
  374POPC   GL2 7610   3.286  22.262   9.173
  374POPC   C1A 7611   3.639  22.050   8.831
  374POPC   D2A 7612   3.604  22.188   8.446
  374POPC   C3A 7613   3.719  21.967   8.105
  374POPC   C4A 7614   3.732  22.119   7.715
  374POPC   C1B 7615   3.162  22.231   8.737
  374POPC   C2B 7616   3.052  22.247   8.290
  374POPC   C3B 7617   3.234  22.129   7.892
  374POPC   C4B 7618   3.332  22.320   7.472
  375POPC   NC3 7619  43.488  27.371   9.419
  375POPC   PO4 7620  43.962  27.793   9.670
  375POPC   GL1 7621  43.848  27.732   9.233
  375POPC   GL2 7622  43.537  27.880   9.119
  375POPC   C1A 7623  44.119  27.638   8.867
  375POPC   D2A 7624  44.006  27.556   8.466
  375POPC   C3A 7625  44.260  27.603   8.119
  375POPC   C4A 7626  44.221  27.426   7.743
  375POPC   C1B 7627  43.586  27.583   8.786
  375POPC   C2B 7628  43.536  27.426   8.370
  375POPC   C3B 7629  43.731  27.617   8.017
  375POPC   C4B 7630  43.441  27.458   7.792
  376POPC   NC3 7631   9.250  33.655   9.431
  376POPC   PO4 7632   9.827  34.045   9.448
  376POPC   GL1 7633   9.815  33.888   9.054
  376POPC   GL2 7634   9.534  34.083   8.942
  376POPC   C1A 7635  10.088  33.886   8.689
  376POPC   D2A 7636  10.197  34.049   8.282
  376POPC   C3A 7637   9.832  33.966   8.033
  376POPC   C4A 7638   9.787  33.840   7.609
  376POPC   C1B 7639   9.520  33.649   8.696
  376POPC   C2B 7640   9.381  33.344   8.327
  376POPC   C3B 7641   9.400  33.455   7.861
  376POPC   C4B 7642   9.280  33.885   7.706
  377POPC   NC3 7643  41.231  44.379   9.653
  377POPC   PO4 7644  41.796  44.598   9.977
  377POPC   GL1 7645  41.809  44.682   9.430
  377POPC   GL2 7646  41.521  44.550   9.210
  377POPC   C1A 7647  41.813  44.851   8.924
  377POPC   D2A 7648  41.883  44.966   8.445
  377POPC   C3A 7649  41.664   0.196   8.056
  377POPC   C4A 7650  41.534   0.143   7.569
  377POPC   C1B 7651  41.324  44.695   8.786
  377POPC   C2B 7652  41.220  44.664   8.335
  377POPC   C3B 7653  41.240  44.464   7.928
  377POPC   C4B 7654  41.282  44.658   7.519
  378POPC   NC3 7655  26.326  18.872   9.515
  378POPC   PO4 7656  25.702  19.239   9.583
  378POPC   GL1 7657  25.909  19.109   9.199
  378POPC   GL2 7658  26.226  19.290   9.255
  378POPC   C1A 7659  25.892  18.880   8.775
  378POPC   D2A 7660  25.777  18.637   8.386
  378POPC   C3A 7661  25.885  18.826   7.969
  378POPC   C4A 7662  26.049  19.050   7.604
  378POPC   C1B 7663  26.255  19.235   8.818
  378POPC   C2B 7664  25.973  19.329   8.511
  378POPC   C3B 7665  25.911  19.311   8.088
  378POPC   C4B 7666  26.105  19.544   7.782
  379POPC   NC3 7667  39.055  16.053   9.655
  379POPC   PO4 7668  39.388  15.524   9.590
  379POPC   GL1 7669  39.153  15.729   9.235
  379POPC   GL2 7670  39.145  16.108   9.167
  379POPC   C1A 7671  39.195  15.757   8.790
  379POPC   D2A 7672  39.122  16.093   8.512
  379POPC   C3A 7673  38.950  15.966   8.159
  379POPC   C4A 7674  39.260  15.970   7.865
  379POPC   C1B 7675  38.789  16.207   8.887
  379POPC   C2B 7676  38.824  16.506   8.536
  379POPC   C3B 7677  38.999  16.467   8.104
  379POPC   C4B 7678  38.857  16.273   7.720
  380POPC   NC3 7679  17.791  33.544   9.571
  380POPC   PO4 7680  17.544  32.944   9.503
  380POPC   GL1 7681  17.533  32.997   9.095
  380POPC   GL2 7682  17.535  32.624   9.099
  380POPC   C1A 7683  17.579  33.204   8.680
  380POPC   D2A 7684  17.352  33.173   8.266
  380POPC   C3A 7685  17.675  33.176   7.968
  380POPC   C4A 7686  17.635  33.560   7.734
  380POPC   C1B 7687  17.462  32.707   8.703
  380POPC   C2B 7688  17.603  32.758   8.330
  380POPC   C3B 7689  17.473  32.722   7.905
  380POPC   C4B 7690  17.283  32.672   7.518
  381POPC   NC3 7691  31.968  28.050   9.865
  381POPC   PO4 7692  32.240  27.488   9.523
  381POPC   GL1 7693  32.365  27.627   9.148
  381POPC   GL2 7694  32.033  27.569   9.039
  381POPC   C1A 7695  32.548  27.705   8.751
  381POPC   D2A 7696  32.440  27.568   8.366
  381POPC   C3A 7697  32.559  27.759   8.029
  381POPC   C4A 7698  32.220  27.711   7.821
  381POPC   C1B 7699  32.064  27.890   8.714
  381POPC   C2B 7700  32.010  27.894   8.291
  381POPC   C3B 7701  31.832  28.008   7.897
  381POPC   C4B 7702  31.960  27.898   7.439
  382POPC   NC3 7703  44.245  17.938   9.298
  382POPC   PO4 7704  44.558  17.265   9.506
  382POPC   GL1 7705  44.428  17.438   9.151
  382POPC   GL2 7706  44.720  17.621   9.148
  382POPC   C1A 7707  44.444  17.554   8.706
  382POPC   D2A 7708  44.437  17.366   8.300
  382POPC   C3A 7709  44.463  17.525   7.852
  382POPC   C4A 7710  44.461  17.438   7.358
  382POPC   C1B 7711  44.914  17.747   8.801
  382POPC   C2B 7712  44.862  17.650   8.406
  382POPC   C3B 7713   0.028  17.757   8.041
  382POPC   C4B 7714  44.915  17.625   7.660
  383POPC   NC3 7715  37.025   4.246   9.437
  383POPC   PO4 7716  36.507   4.676   9.498
  383POPC   GL1 7717  36.672   4.439   9.148
  383POPC   GL2 7718  37.014   4.581   9.031
  383POPC   C1A 7719  36.586   4.110   8.817
  383POPC   D2A 7720  36.746   3.877   8.426
  383POPC   C3A 7721  36.792   4.105   8.010
  383POPC   C4A 7722  36.576   4.270   7.594
  383POPC   C1B 7723  37.075   4.200   8.751
  383POPC   C2B 7724  37.220   4.031   8.346
  383POPC   C3B 7725  37.386   4.164   7.959
  383POPC   C4B 7726  37.121   4.134   7.623
  384POPC   NC3 7727  19.465  38.979   9.793
  384POPC   PO4 7728  19.937  39.435   9.706
  384POPC   GL1 7729  19.883  39.405   9.205
  384POPC   GL2 7730  19.544  39.389   9.059
  384POPC   C1A 7731  20.028  39.197   8.802
  384POPC   D2A 7732  19.879  39.235   8.357
  384POPC   C3A 7733  20.059  39.028   7.998
  384POPC   C4A 7734  19.992  39.248   7.617
  384POPC   C1B 7735  19.541  39.049   8.683
  384POPC   C2B 7736  19.310  38.912   8.334
  384POPC   C3B 7737  19.538  38.994   7.959
  384POPC   C4B 7738  19.565  39.013   7.518
  385POPC   NC3 7739  17.824  23.246   9.485
  385POPC   PO4 7740  18.558  22.976   9.508
  385POPC   GL1 7741  18.171  22.943   9.226
  385POPC   GL2 7742  18.051  22.575   9.135
  385POPC   C1A 7743  18.105  23.240   8.860
  385POPC   D2A 7744  18.178  23.168   8.417
  385POPC   C3A 7745  18.539  23.102   8.117
  385POPC   C4A 7746  18.439  23.013   7.683
  385POPC   C1B 7747  18.163  22.737   8.757
  385POPC   C2B 7748  17.950  22.724   8.398
  385POPC   C3B 7749  18.157  22.713   8.008
  385POPC   C4B 7750  17.976  22.745   7.633
  386POPC   NC3 7751  21.630   9.779   9.865
  386POPC   PO4 7752  22.234   9.640   9.608
  386POPC   GL1 7753  21.926   9.660   9.276
  386POPC   GL2 7754  22.106   9.842   9.044
  386POPC   C1A 7755  21.895   9.418   8.867
  386POPC   D2A 7756  22.117   9.462   8.496
  386POPC   C3A 7757  22.050   9.422   8.071
  386POPC   C4A 7758  22.216   9.588   7.699
  386POPC   C1B 7759  22.228   9.936   8.643
  386POPC   C2B 7760  22.064  10.101   8.280
  386POPC   C3B 7761  22.290   9.919   8.051
  386POPC   C4B 7762  22.680   9.860   7.917
  387POPC   NC3 7763  25.188  34.732   9.499
  387POPC   PO4 7764  25.333  34.119   9.436
  387POPC   GL1 7765  25.422  34.402   9.151
  387POPC   GL2 7766  25.125  34.503   9.049
  387POPC   C1A 7767  25.543  34.501   8.745
  387POPC   D2A 7768  25.534  34.761   8.384
  387POPC   C3A 7769  25.620  34.591   7.979
  387POPC   C4A 7770  25.347  34.326   7.820
  387POPC   C1B 7771  25.069  34.651   8.611
  387POPC   C2B 7772  25.012  34.900   8.240
  387POPC   C3B 7773  25.113  34.803   7.824
  387POPC   C4B 7774  25.073  35.046   7.453
  388POPC   NC3 7775  16.996  39.638   9.530
  388POPC   PO4 7776  16.650  40.264   9.510
  388POPC   GL1 7777  16.773  39.992   9.211
  388POPC   GL2 7778  17.117  40.073   9.220
  388POPC   C1A 7779  16.568  39.879   8.840
  388POPC   D2A 7780  16.669  40.052   8.438
  388POPC   C3A 7781  16.515  39.882   8.082
  388POPC   C4A 7782  16.490  39.916   7.661
  388POPC   C1B 7783  17.108  40.237   8.838
  388POPC   C2B 7784  17.185  40.181   8.431
  388POPC   C3B 7785  16.993  40.164   8.048
  388POPC   C4B 7786  16.913  40.230   7.609
  389POPC   NC3 7787  39.439  23.444   9.566
  389POPC   PO4 7788  39.286  24.057   9.854
  389POPC   GL1 7789  39.318  23.910   9.349
  389POPC   GL2 7790  39.091  23.616   9.201
  389POPC   C1A 7791  39.323  23.926   8.844
  389POPC   D2A 7792  39.301  23.723   8.412
  389POPC   C3A 7793  39.254  23.928   8.006
  389POPC   C4A 7794  39.023  23.977   7.588
  389POPC   C1B 7795  38.957  23.540   8.752
  389POPC   C2B 7796  39.010  23.293   8.376
  389POPC   C3B 7797  39.363  23.320   8.084
  389POPC   C4B 7798  39.189  23.483   7.738
  390POPC   NC3 7799  31.042   1.817   9.384
  390POPC   PO4 7800  30.539   2.274   9.490
  390POPC   GL1 7801  30.669   2.095   9.128
  390POPC   GL2 7802  30.865   2.362   8.998
  390POPC   C1A 7803  30.704   1.819   8.772
  390POPC   D2A 7804  30.520   1.953   8.396
  390POPC   C3A 7805  30.573   1.837   8.012
  390POPC   C4A 7806  30.323   1.871   7.653
  390POPC   C1B 7807  30.907   2.250   8.602
  390POPC   C2B 7808  30.955   2.110   8.187
  390POPC   C3B 7809  30.767   2.235   7.757
  390POPC   C4B 7810  30.972   2.272   7.335
  391POPC   NC3 7811  42.497  40.070   9.534
  391POPC   PO4 7812  41.941  39.917   9.360
  391POPC   GL1 7813  42.286  39.915   9.100
  391POPC   GL2 7814  42.351  40.256   9.065
  391POPC   C1A 7815  42.220  39.932   8.689
  391POPC   D2A 7816  42.393  39.789   8.359
  391POPC   C3A 7817  42.212  39.989   8.025
  391POPC   C4A 7818  42.284  39.922   7.591
  391POPC   C1B 7819  42.619  40.237   8.710
  391POPC   C2B 7820  42.572  40.280   8.284
  391POPC   C3B 7821  42.576  40.335   7.856
  391POPC   C4B 7822  42.511  40.358   7.408
  392POPC   NC3 7823   9.331  23.419   9.459
  392POPC   PO4 7824   9.531  24.140   9.477
  392POPC   GL1 7825   9.694  23.875   9.139
  392POPC   GL2 7826   9.499  23.561   9.018
  392POPC   C1A 7827   9.869  23.796   8.742
  392POPC   D2A 7828   9.745  23.990   8.356
  392POPC   C3A 7829   9.811  23.815   7.955
  392POPC   C4A 7830  10.001  23.670   7.585
  392POPC   C1B 7831   9.659  23.333   8.684
  392POPC   C2B 7832   9.947  23.448   8.368
  392POPC   C3B 7833  10.036  23.309   7.980
  392POPC   C4B 7834   9.797  23.210   7.643
  393POPC   NC3 7835  34.902  17.977   9.456
  393POPC   PO4 7836  34.247  18.253   9.346
  393POPC   GL1 7837  34.633  18.273   9.107
  393POPC   GL2 7838  34.706  17.933   8.996
  393POPC   C1A 7839  34.803  18.317   8.690
  393POPC   D2A 7840  34.669  18.146   8.321
  393POPC   C3A 7841  34.790  18.311   7.968
  393POPC   C4A 7842  35.159  18.306   7.749
  393POPC   C1B 7843  34.361  17.995   8.726
  393POPC   C2B 7844  34.156  18.169   8.378
  393POPC   C3B 7845  34.304  18.083   7.957
  393POPC   C4B 7846  34.227  18.429   7.700
  394POPC   NC3 7847  19.609  34.228   9.417
  394POPC   PO4 7848  19.971  34.866   9.516
  394POPC   GL1 7849  19.888  34.728   9.104
  394POPC   GL2 7850  19.979  34.379   9.091
  394POPC   C1A 7851  19.850  34.654   8.660
  394POPC   D2A 7852  20.050  34.451   8.313
  394POPC   C3A 7853  19.939  34.683   7.951
  394POPC   C4A 7854  19.661  34.889   7.668
  394POPC   C1B 7855  19.744  34.166   8.750
  394POPC   C2B 7856  19.574  34.237   8.341
  394POPC   C3B 7857  19.776  34.196   7.928
  394POPC   C4B 7858  19.701  34.389   7.534
  395POPC   NC3 7859   2.200  41.914   9.458
  395POPC   PO4 7860   2.123  41.290   9.571
  395POPC   GL1 7861   1.822  41.378   9.230
  395POPC   GL2 7862   1.952  41.648   9.123
  395POPC   C1A 7863   1.627  41.387   8.799
  395POPC   D2A 7864   1.639  41.072   8.462
  395POPC   C3A 7865   1.739  41.311   8.081
  395POPC   C4A 7866   1.906  41.486   7.663
  395POPC   C1B 7867   1.878  41.920   8.803
  395POPC   C2B 7868   1.752  41.719   8.424
  395POPC   C3B 7869   1.949  41.805   8.040
  395POPC   C4B 7870   1.834  42.021   7.649
  396POPC   NC3 7871  10.184   3.982   9.857
  396POPC   PO4 7872   9.854   4.459   9.524
  396POPC   GL1 7873   9.771   4.600   9.118
  396POPC   GL2 7874   9.600   4.307   9.047
  396POPC   C1A 7875   9.942   4.450   8.709
  396POPC   D2A 7876   9.858   4.117   8.385
  396POPC   C3A 7877   9.972   4.315   8.000
  396POPC   C4A 7878   9.733   4.344   7.596
  396POPC   C1B 7879   9.484   4.029   8.722
  396POPC   C2B 7880   9.370   4.089   8.291
  396POPC   C3B 7881   9.564   3.986   7.925
  396POPC   C4B 7882   9.347   4.026   7.507
  397POPC   NC3 7883  19.700  18.559   9.461
  397POPC   PO4 7884  20.158  18.101   9.591
  397POPC   GL1 7885  19.935  18.042   9.225
  397POPC   GL2 7886  19.605  18.059   9.205
  397POPC   C1A 7887  19.935  18.274   8.846
  397POPC   D2A 7888  20.207  18.261   8.511
  397POPC   C3A 7889  20.025  18.433   8.134
  397POPC   C4A 7890  20.057  18.297   7.727
  397POPC   C1B 7891  19.659  17.847   8.763
  397POPC   C2B 7892  19.795  17.979   8.360
  397POPC   C3B 7893  19.676  18.039   7.932
  397POPC   C4B 7894  19.531  18.430   7.734
  398POPC   NC3 7895  21.886  16.160   9.537
  398POPC   PO4 7896  22.489  16.110   9.690
  398POPC   GL1 7897  22.341  16.034   9.222
  398POPC   GL2 7898  22.153  15.782   9.227
  398POPC   C1A 7899  22.007  16.018   8.806
  398POPC   D2A 7900  21.798  15.941   8.368
  398POPC   C3A 7901  22.064  16.055   8.001
  398POPC   C4A 7902  22.270  16.151   7.588
  398POPC   C1B 7903  22.319  15.625   8.810
  398POPC   C2B 7904  22.313  15.799   8.409
  398POPC   C3B 7905  22.299  15.552   8.085
  398POPC   C4B 7906  22.059  15.622   7.727
  399POPC   NC3 7907  28.933   1.279   9.324
  399POPC   PO4 7908  29.487   0.824   9.398
  399POPC   GL1 7909  29.422   1.092   9.027
  399POPC   GL2 7910  29.465   1.461   9.036
  399POPC   C1A 7911  29.197   1.067   8.607
  399POPC   D2A 7912  28.964   0.867   8.250
  399POPC   C3A 7913  29.269   0.836   7.940
  399POPC   C4A 7914  29.546   1.241   7.865
  399POPC   C1B 7915  29.136   1.578   8.718
  399POPC   C2B 7916  29.204   1.565   8.270
  399POPC   C3B 7917  29.048   1.304   7.939
  399POPC   C4B 7918  28.849   1.383   7.559
  400POPC   NC3 7919  22.829  30.368   9.512
  400POPC   PO4 7920  22.736  31.081   9.423
  400POPC   GL1 7921  22.736  30.731   9.158
  400POPC   GL2 7922  23.105  30.657   9.183
  400POPC   C1A 7923  22.679  30.664   8.724
  400POPC   D2A 7924  22.883  30.809   8.347
  400POPC   C3A 7925  22.646  30.704   7.981
  400POPC   C4A 7926  22.536  30.372   7.703
  400POPC   C1B 7927  23.206  30.839   8.778
  400POPC   C2B 7928  23.384  30.709   8.366
  400POPC   C3B 7929  23.187  30.706   7.923
  400POPC   C4B 7930  23.322  30.807   7.473
  401POPC   NC3 7931  29.477  11.339   9.610
  401POPC   PO4 7932  28.930  10.966   9.521
  401POPC   GL1 7933  29.235  11.116   9.193
  401POPC   GL2 7934  29.143  11.456   9.117
  401POPC   C1A 7935  29.234  11.091   8.718
  401POPC   D2A 7936  29.010  11.283   8.348
  401POPC   C3A 7937  29.081  11.077   7.956
  401POPC   C4A 7938  29.437  10.923   7.753
  401POPC   C1B 7939  29.080  11.659   8.714
  401POPC   C2B 7940  29.238  11.745   8.308
  401POPC   C3B 7941  28.991  11.729   7.904
  401POPC   C4B 7942  28.783  11.845   7.475
  402POPC   NC3 7943  24.045   1.049   9.588
  402POPC   PO4 7944  23.453   1.360   9.599
  402POPC   GL1 7945  23.554   1.149   9.212
  402POPC   GL2 7946  23.899   1.172   9.117
  402POPC   C1A 7947  23.396   1.056   8.799
  402POPC   D2A 7948  23.492   1.144   8.364
  402POPC   C3A 7949  23.820   0.922   8.135
  402POPC   C4A 7950  23.843   1.018   7.699
  402POPC   C1B 7951  23.831   1.327   8.724
  402POPC   C2B 7952  23.928   1.483   8.337
  402POPC   C3B 7953  23.783   1.460   7.935
  402POPC   C4B 7954  24.087   1.478   7.614
  403POPC   NC3 7955  28.499   2.597   9.470
  403POPC   PO4 7956  28.039   3.003   9.712
  403POPC   GL1 7957  28.097   2.932   9.242
  403POPC   GL2 7958  28.159   2.574   9.084
  403POPC   C1A 7959  28.201   2.982   8.788
  403POPC   D2A 7960  28.176   2.583   8.525
  403POPC   C3A 7961  28.237   2.687   8.108
  403POPC   C4A 7962  28.162   2.544   7.711
  403POPC   C1B 7963  28.587   2.635   8.828
  403POPC   C2B 7964  28.690   2.810   8.412
  403POPC   C3B 7965  28.752   2.682   7.986
  403POPC   C4B 7966  28.642   2.720   7.577
  404POPC   NC3 7967   3.460   4.959   9.547
  404POPC   PO4 7968   3.020   5.307   9.198
  404POPC   GL1 7969   3.405   5.210   9.110
  404POPC   GL2 7970   3.279   4.882   9.086
  404POPC   C1A 7971   3.674   5.315   8.810
  404POPC   D2A 7972   3.565   5.179   8.430
  404POPC   C3A 7973   3.514   5.354   8.071
  404POPC   C4A 7974   3.677   5.154   7.733
  404POPC   C1B 7975   3.539   4.803   8.788
  404POPC   C2B 7976   3.406   4.676   8.414
  404POPC   C3B 7977   3.605   4.803   8.083
  404POPC   C4B 7978   3.365   4.745   7.763
  405POPC   NC3 7979   1.310  30.596   9.504
  405POPC   PO4 7980   0.668  30.913   9.493
  405POPC   GL1 7981   0.881  30.624   9.151
  405POPC   GL2 7982   1.283  30.631   9.016
  405POPC   C1A 7983   0.923  30.497   8.712
  405POPC   D2A 7984   1.273  30.744   8.510
  405POPC   C3A 7985   1.278  30.674   8.101
  405POPC   C4A 7986   1.215  30.775   7.742
  405POPC   C1B 7987   1.618  30.449   8.730
  405POPC   C2B 7988   1.712  30.488   8.271
  405POPC   C3B 7989   1.533  30.229   7.907
  405POPC   C4B 7990   1.312  30.344   7.501
  406POPC   NC3 7991  28.730  37.685   9.564
  406POPC   PO4 7992  28.094  37.380   9.786
  406POPC   GL1 7993  28.271  37.529   9.347
  406POPC   GL2 7994  28.573  37.386   9.158
  406POPC   C1A 7995  28.225  37.783   8.957
  406POPC   D2A 7996  28.218  37.726   8.494
  406POPC   C3A 7997  28.334  37.738   8.032
  406POPC   C4A 7998  28.546  38.055   7.799
  406POPC   C1B 7999  28.276  37.290   8.818
  406POPC   C2B 8000  28.076  37.166   8.439
  406POPC   C3B 8001  28.136  37.277   8.034
  406POPC   C4B 8002  28.024  37.458   7.646
  407POPC   NC3 8003  27.653  19.322   9.222
  407POPC   PO4 8004  27.653  19.002   9.829
  407POPC   GL1 8005  27.743  18.851   9.318
  407POPC   GL2 8006  27.441  18.902   9.037
  407POPC   C1A 8007  27.900  18.863   8.827
  407POPC   D2A 8008  27.830  18.679   8.377
  407POPC   C3A 8009  27.764  18.972   8.028
  407POPC   C4A 8010  27.561  19.215   7.701
  407POPC   C1B 8011  27.338  19.178   8.632
  407POPC   C2B 8012  27.286  19.191   8.155
  407POPC   C3B 8013  27.163  19.505   7.797
  407POPC   C4B 8014  27.144  19.307   7.353
  408POPC   NC3 8015  32.160  22.417   9.563
  408POPC   PO4 8016  32.541  21.951   9.325
  408POPC   GL1 8017  32.356  22.262   9.103
  408POPC   GL2 8018  32.050  22.113   9.123
  408POPC   C1A 8019  32.356  22.275   8.674
  408POPC   D2A 8020  32.403  22.022   8.321
  408POPC   C3A 8021  32.262  22.314   8.065
  408POPC   C4A 8022  32.481  22.510   7.791
  408POPC   C1B 8023  31.871  22.353   8.837
  408POPC   C2B 8024  31.941  22.523   8.436
  408POPC   C3B 8025  31.792  22.620   8.030
  408POPC   C4B 8026  31.901  22.358   7.696
  409POPC   NC3 8027  10.004  29.606   9.462
  409POPC   PO4 8028   9.601  30.085   9.595
  409POPC   GL1 8029   9.734  30.123   9.193
  409POPC   GL2 8030  10.099  30.169   9.169
  409POPC   C1A 8031   9.554  29.930   8.848
  409POPC   D2A 8032   9.316  30.034   8.505
  409POPC   C3A 8033   9.553  30.119   8.147
  409POPC   C4A 8034   9.492  30.035   7.726
  409POPC   C1B 8035  10.047  30.020   8.729
  409POPC   C2B 8036   9.807  29.753   8.413
  409POPC   C3B 8037   9.842  29.713   7.966
  409POPC   C4B 8038   9.997  30.063   7.691
  410POPC   NC3 8039  32.939  23.145   9.464
  410POPC   PO4 8040  33.024  22.531   9.450
  410POPC   GL1 8041  33.097  22.812   9.099
  410POPC   GL2 8042  33.222  23.164   9.049
  410POPC   C1A 8043  32.850  22.950   8.758
  410POPC   D2A 8044  32.728  23.144   8.373
  410POPC   C3A 8045  32.719  22.915   8.041
  410POPC   C4A 8046  32.893  23.070   7.733
  410POPC   C1B 8047  33.435  22.994   8.741
  410POPC   C2B 8048  33.242  22.986   8.366
  410POPC   C3B 8049  33.420  23.010   7.981
  410POPC   C4B 8050  33.424  22.755   7.633
  411POPC   NC3 8051  25.764  40.999   9.629
  411POPC   PO4 8052  25.968  40.533   9.321
  411POPC   GL1 8053  26.003  40.954   9.114
  411POPC   GL2 8054  25.691  41.132   9.144
  411POPC   C1A 8055  26.128  40.951   8.668
  411POPC   D2A 8056  26.319  40.599   8.444
  411POPC   C3A 8057  26.148  40.634   8.055
  411POPC   C4A 8058  26.260  40.879   7.728
  411POPC   C1B 8059  25.615  41.157   8.720
  411POPC   C2B 8060  25.710  40.976   8.302
  411POPC   C3B 8061  25.737  40.910   7.854
  411POPC   C4B 8062  25.510  40.667   7.533
  412POPC   NC3 8063  26.435  36.642   9.287
  412POPC   PO4 8064  26.690  36.117   9.638
  412POPC   GL1 8065  26.858  36.111   9.219
  412POPC   GL2 8066  26.539  36.170   9.057
  412POPC   C1A 8067  26.957  36.027   8.802
  412POPC   D2A 8068  26.756  36.075   8.389
  412POPC   C3A 8069  26.938  36.041   7.968
  412POPC   C4A 8070  26.769  36.027   7.548
  412POPC   C1B 8071  26.594  36.460   8.679
  412POPC   C2B 8072  26.799  36.577   8.267
  412POPC   C3B 8073  26.556  36.600   7.869
  412POPC   C4B 8074  26.611  36.488   7.414
  413POPC   NC3 8075  21.147  12.746   9.421
  413POPC   PO4 8076  21.726  13.113   9.407
  413POPC   GL1 8077  21.564  12.877   9.094
  413POPC   GL2 8078  21.562  12.544   9.201
  413POPC   C1A 8079  21.704  12.872   8.668
  413POPC   D2A 8080  21.729  13.054   8.270
  413POPC   C3A 8081  21.373  12.989   8.075
  413POPC   C4A 8082  21.117  13.056   7.754
  413POPC   C1B 8083  21.315  12.534   8.814
  413POPC   C2B 8084  21.463  12.461   8.418
  413POPC   C3B 8085  21.738  12.567   8.107
  413POPC   C4B 8086  21.493  12.616   7.735
  414POPC   NC3 8087  11.931  40.324   9.558
  414POPC   PO4 8088  12.407  40.799   9.431
  414POPC   GL1 8089  12.213  40.612   9.112
  414POPC   GL2 8090  12.186  40.962   8.970
  414POPC   C1A 8091  12.320  40.554   8.688
  414POPC   D2A 8092  12.008  40.588   8.376
  414POPC   C3A 8093  12.084  40.771   7.969
  414POPC   C4A 8094  12.255  40.491   7.660
  414POPC   C1B 8095  11.869  41.165   8.735
  414POPC   C2B 8096  11.776  41.058   8.324
  414POPC   C3B 8097  11.578  41.052   7.944
  414POPC   C4B 8098  11.880  41.194   7.658
  415POPC   NC3 8099  14.118  11.697   9.566
  415POPC   PO4 8100  14.828  11.799   9.447
  415POPC   GL1 8101  14.538  11.470   9.266
  415POPC   GL2 8102  14.646  11.101   9.259
  415POPC   C1A 8103  14.301  11.348   8.885
  415POPC   D2A 8104  14.457  11.433   8.480
  415POPC   C3A 8105  14.220  11.477   8.113
  415POPC   C4A 8106  14.329  11.516   7.683
  415POPC   C1B 8107  14.802  11.174   8.839
  415POPC   C2B 8108  14.848  11.111   8.389
  415POPC   C3B 8109  14.692  11.293   7.990
  415POPC   C4B 8110  14.684  11.227   7.541
  416POPC   NC3 8111  43.539  42.208   9.397
  416POPC   PO4 8112  44.149  42.426   9.497
  416POPC   GL1 8113  44.023  42.234   9.139
  416POPC   GL2 8114  43.797  42.492   9.049
  416POPC   C1A 8115  44.140  42.333   8.717
  416POPC   D2A 8116  44.126  42.718   8.473
  416POPC   C3A 8117  44.160  42.617   8.052
  416POPC   C4A 8118  44.249  42.165   7.911
  416POPC   C1B 8119  43.640  42.496   8.649
  416POPC   C2B 8120  43.508  42.312   8.283
  416POPC   C3B 8121  43.757  42.334   7.920
  416POPC   C4B 8122  43.918  42.581   7.567
  417POPC   NC3 8123   1.701  21.375   9.671
  417POPC   PO4 8124   2.344  21.311   9.462
  417POPC   GL1 8125   2.098  21.530   9.169
  417POPC   GL2 8126   1.724  21.478   9.182
  417POPC   C1A 8127   2.049  21.375   8.766
  417POPC   D2A 8128   2.021  21.089   8.433
  417POPC   C3A 8129   2.198  21.206   8.032
  417POPC   C4A 8130   2.265  21.015   7.638
  417POPC   C1B 8131   1.565  21.497   8.767
  417POPC   C2B 8132   1.807  21.597   8.384
  417POPC   C3B 8133   1.758  21.476   7.965
  417POPC   C4B 8134   1.984  21.670   7.675
  418POPC   NC3 8135  20.292  15.838   9.563
  418POPC   PO4 8136  20.921  15.548   9.401
  418POPC   GL1 8137  20.817  15.640   9.008
  418POPC   GL2 8138  20.477  15.770   9.063
  418POPC   C1A 8139  20.770  15.681   8.594
  418POPC   D2A 8140  20.567  15.975   8.346
  418POPC   C3A 8141  20.607  15.744   7.966
  418POPC   C4A 8142  20.727  15.803   7.532
  418POPC   C1B 8143  20.238  16.111   8.880
  418POPC   C2B 8144  20.062  16.153   8.466
  418POPC   C3B 8145  20.123  15.975   8.085
  418POPC   C4B 8146  20.340  16.101   7.727
  419POPC   NC3 8147  12.155  28.127   9.934
  419POPC   PO4 8148  12.020  28.736   9.632
  419POPC   GL1 8149  12.063  28.491   9.237
  419POPC   GL2 8150  11.748  28.652   9.111
  419POPC   C1A 8151  11.947  28.239   8.829
  419POPC   D2A 8152  11.897  28.116   8.365
  419POPC   C3A 8153  12.023  28.339   7.980
  419POPC   C4A 8154  12.398  28.474   7.759
  419POPC   C1B 8155  12.112  28.727   8.809
  419POPC   C2B 8156  12.184  28.559   8.431
  419POPC   C3B 8157  12.208  28.813   8.078
  419POPC   C4B 8158  12.281  28.968   7.686
  420POPC   NC3 8159   1.777   8.210   9.483
  420POPC   PO4 8160   2.416   8.350   9.709
  420POPC   GL1 8161   2.269   8.378   9.193
  420POPC   GL2 8162   1.991   8.162   9.032
  420POPC   C1A 8163   2.086   8.509   8.709
  420POPC   D2A 8164   1.849   8.275   8.348
  420POPC   C3A 8165   2.052   8.491   7.985
  420POPC   C4A 8166   2.188   8.501   7.532
  420POPC   C1B 8167   1.922   7.886   8.689
  420POPC   C2B 8168   1.759   7.692   8.349
  420POPC   C3B 8169   1.906   7.839   7.997
  420POPC   C4B 8170   1.817   8.149   7.686
  421POPC   NC3 8171  26.191  23.460   9.760
  421POPC   PO4 8172  26.219  24.135   9.527
  421POPC   GL1 8173  26.145  24.148   9.071
  421POPC   GL2 8174  25.915  23.862   8.987
  421POPC   C1A 8175  26.318  23.955   8.692
  421POPC   D2A 8176  26.199  23.732   8.357
  421POPC   C3A 8177  26.397  23.797   8.000
  421POPC   C4A 8178  26.416  23.849   7.547
  421POPC   C1B 8179  26.020  23.469   8.748
  421POPC   C2B 8180  25.871  23.275   8.403
  421POPC   C3B 8181  25.927  23.438   8.051
  421POPC   C4B 8182  25.980  23.652   7.730
  422POPC   NC3 8183  13.683  44.858   9.550
  422POPC   PO4 8184  13.091  44.471   9.385
  422POPC   GL1 8185  13.362  44.701   9.151
  422POPC   GL2 8186  13.708  44.655   9.104
  422POPC   C1A 8187  13.367  44.843   8.760
  422POPC   D2A 8188  13.364  44.562   8.449
  422POPC   C3A 8189  13.427  44.722   8.077
  422POPC   C4A 8190  13.457  44.843   7.673
  422POPC   C1B 8191  13.808  44.510   8.716
  422POPC   C2B 8192  13.816  44.791   8.425
  422POPC   C3B 8193  13.918  44.821   8.034
  422POPC   C4B 8194  14.028   0.023   7.734
  423POPC   NC3 8195  12.645  40.407   9.372
  423POPC   PO4 8196  13.203  40.702   9.519
  423POPC   GL1 8197  13.007  40.672   9.125
  423POPC   GL2 8198  13.198  40.352   9.094
  423POPC   C1A 8199  12.714  40.918   8.846
  423POPC   D2A 8200  12.490  41.238   8.575
  423POPC   C3A 8201  12.617  41.196   8.105
  423POPC   C4A 8202  12.777  40.829   7.835
  423POPC   C1B 8203  12.982  40.374   8.699
  423POPC   C2B 8204  13.067  40.519   8.267
  423POPC   C3B 8205  12.970  40.333   7.863
  423POPC   C4B 8206  12.725  40.396   7.492
  424POPC   NC3 8207  28.923   7.071   9.281
  424POPC   PO4 8208  29.305   7.397   9.748
  424POPC   GL1 8209  29.245   7.495   9.251
  424POPC   GL2 8210  29.008   7.772   9.173
  424POPC   C1A 8211  29.273   7.364   8.764
  424POPC   D2A 8212  29.395   7.434   8.309
  424POPC   C3A 8213  29.344   7.173   7.913
  424POPC   C4A 8214  29.049   7.326   7.598
  424POPC   C1B 8215  28.835   7.601   8.784
  424POPC   C2B 8216  28.888   7.415   8.387
  424POPC   C3B 8217  29.047   7.633   7.991
  424POPC   C4B 8218  28.945   7.816   7.553
  425POPC   NC3 8219  32.575  24.259   9.502
  425POPC   PO4 8220  32.334  24.913   9.400
  425POPC   GL1 8221  32.244  24.667   9.080
  425POPC   GL2 8222  32.225  24.341   9.168
  425POPC   C1A 8223  32.268  24.698   8.667
  425POPC   D2A 8224  32.464  24.450   8.375
  425POPC   C3A 8225  32.393  24.690   8.017
  425POPC   C4A 8226  32.214  24.619   7.641
  425POPC   C1B 8227  32.201  24.190   8.769
  425POPC   C2B 8228  31.953  24.329   8.419
  425POPC   C3B 8229  32.062  24.272   8.013
  425POPC   C4B 8230  31.901  24.150   7.625
  426POPC   NC3 8231   5.393  36.565   9.472
  426POPC   PO4 8232   4.964  37.192   9.518
  426POPC   GL1 8233   5.039  36.864   9.240
  426POPC   GL2 8234   4.713  36.725   9.187
  426POPC   C1A 8235   5.161  36.844   8.802
  426POPC   D2A 8236   5.308  36.929   8.356
  426POPC   C3A 8237   5.267  36.578   8.025
  426POPC   C4A 8238   5.279  36.611   7.562
  426POPC   C1B 8239   4.736  37.107   8.912
  426POPC   C2B 8240   4.819  37.118   8.479
  426POPC   C3B 8241   4.846  36.835   8.160
  426POPC   C4B 8242   4.852  36.865   7.738
  427POPC   NC3 8243  42.998  34.380   9.411
  427POPC   PO4 8244  43.459  34.966   9.477
  427POPC   GL1 8245  43.460  34.650   9.189
  427POPC   GL2 8246  43.106  34.761   9.088
  427POPC   C1A 8247  43.420  34.508   8.768
  427POPC   D2A 8248  43.220  34.777   8.463
  427POPC   C3A 8249  43.067  34.549   8.099
  427POPC   C4A 8250  43.228  34.677   7.715
  427POPC   C1B 8251  42.911  34.487   8.754
  427POPC   C2B 8252  42.786  34.233   8.398
  427POPC   C3B 8253  42.614  34.342   7.988
  427POPC   C4B 8254  42.788  34.432   7.593
  428POPC   NC3 8255  16.028  41.612   9.409
  428POPC   PO4 8256  15.406  41.241   9.347
  428POPC   GL1 8257  15.743  41.326   9.032
  428POPC   GL2 8258  16.109  41.352   8.991
  428POPC   C1A 8259  15.828  41.619   8.665
  428POPC   D2A 8260  15.999  41.466   8.278
  428POPC   C3A 8261  15.800  41.544   7.881
  428POPC   C4A 8262  15.682  41.260   7.587
  428POPC   C1B 8263  16.370  41.356   8.662
  428POPC   C2B 8264  16.498  41.595   8.312
  428POPC   C3B 8265  16.360  41.545   7.923
  428POPC   C4B 8266  16.225  41.269   7.693
  429POPC   NC3 8267  29.717  21.663   9.423
  429POPC   PO4 8268  29.724  22.408   9.505
  429POPC   GL1 8269  29.724  22.100   9.149
  429POPC   GL2 8270  30.059  21.903   9.117
  429POPC   C1A 8271  29.686  21.919   8.735
  429POPC   D2A 8272  29.688  22.139   8.346
  429POPC   C3A 8273  29.843  22.078   7.920
  429POPC   C4A 8274  29.591  22.357   7.682
  429POPC   C1B 8275  30.170  22.091   8.741
  429POPC   C2B 8276  30.176  22.049   8.323
  429POPC   C3B 8277  30.362  21.959   7.961
  429POPC   C4B 8278  30.254  22.106   7.549
  430POPC   NC3 8279  27.547  42.651   9.395
  430POPC   PO4 8280  27.770  42.081   9.328
  430POPC   GL1 8281  27.525  42.188   8.965
  430POPC   GL2 8282  27.475  42.534   8.907
  430POPC   C1A 8283  27.622  42.244   8.497
  430POPC   D2A 8284  27.842  41.962   8.177
  430POPC   C3A 8285  27.776  42.112   7.758
  430POPC   C4A 8286  27.430  42.403   7.655
  430POPC   C1B 8287  27.913  42.736   8.777
  430POPC   C2B 8288  28.129  42.738   8.340
  430POPC   C3B 8289  27.991  42.562   7.911
  430POPC   C4B 8290  27.924  42.502   7.437
  431POPC   NC3 8291  35.183  23.621   9.469
  431POPC   PO4 8292  35.624  23.343   9.170
  431POPC   GL1 8293  35.566  23.802   9.084
  431POPC   GL2 8294  35.222  23.929   9.086
  431POPC   C1A 8295  35.581  23.859   8.640
  431POPC   D2A 8296  35.398  23.506   8.405
  431POPC   C3A 8297  35.537  23.463   7.978
  431POPC   C4A 8298  35.629  23.613   7.585
  431POPC   C1B 8299  34.877  23.831   8.803
  431POPC   C2B 8300  34.815  23.548   8.460
  431POPC   C3B 8301  35.023  23.476   8.070
  431POPC   C4B 8302  35.125  23.697   7.714
  432POPC   NC3 8303  41.173   8.221   9.399
  432POPC   PO4 8304  41.632   8.581   9.638
  432POPC   GL1 8305  41.726   8.424   9.210
  432POPC   GL2 8306  41.660   8.084   9.137
  432POPC   C1A 8307  41.807   8.481   8.748
  432POPC   D2A 8308  41.958   8.497   8.306
  432POPC   C3A 8309  41.722   8.271   7.990
  432POPC   C4A 8310  41.571   8.328   7.581
  432POPC   C1B 8311  41.446   8.118   8.703
  432POPC   C2B 8312  41.352   7.988   8.240
  432POPC   C3B 8313  41.362   7.900   7.777
  432POPC   C4B 8314  41.272   7.844   7.327
  433POPC   NC3 8315  15.756   5.999   9.887
  433POPC   PO4 8316  16.057   5.578   9.474
  433POPC   GL1 8317  15.988   5.671   9.050
  433POPC   GL2 8318  16.036   6.001   9.173
  433POPC   C1A 8319  15.985   5.471   8.604
  433POPC   D2A 8320  15.842   5.443   8.161
  433POPC   C3A 8321  16.026   5.676   7.810
  433POPC   C4A 8322  16.289   5.719   7.439
  433POPC   C1B 8323  15.951   6.125   8.777
  433POPC   C2B 8324  15.975   5.972   8.374
  433POPC   C3B 8325  15.919   6.160   8.003
  433POPC   C4B 8326  15.993   6.141   7.539
  434POPC   NC3 8327  28.333   0.033   9.368
  434POPC   PO4 8328  27.945   0.554   9.706
  434POPC   GL1 8329  28.089   0.579   9.237
  434POPC   GL2 8330  28.192   0.321   8.989
  434POPC   C1A 8331  28.069   0.765   8.789
  434POPC   D2A 8332  28.228   0.450   8.480
  434POPC   C3A 8333  28.549   0.550   8.178
  434POPC   C4A 8334  28.386   0.485   7.761
  434POPC   C1B 8335  28.552   0.132   8.773
  434POPC   C2B 8336  28.795   0.094   8.388
  434POPC   C3B 8337  28.529   0.061   8.025
  434POPC   C4B 8338  28.528   0.032   7.585
  435POPC   NC3 8339  10.244  21.117   9.421
  435POPC   PO4 8340  10.486  21.731   9.239
  435POPC   GL1 8341  10.513  21.340   9.009
  435POPC   GL2 8342  10.218  21.171   8.931
  435POPC   C1A 8343  10.855  21.082   8.802
  435POPC   D2A 8344  11.124  21.158   8.443
  435POPC   C3A 8345  10.878  21.237   8.074
  435POPC   C4A 8346  10.637  21.118   7.689
  435POPC   C1B 8347  10.416  21.197   8.528
  435POPC   C2B 8348  10.367  21.229   8.104
  435POPC   C3B 8349  10.174  20.986   7.782
  435POPC   C4B 8350  10.275  20.857   7.334
  436POPC   NC3 8351   5.190  11.685   9.390
  436POPC   PO4 8352   4.836  11.129   9.548
  436POPC   GL1 8353   4.992  11.280   9.151
  436POPC   GL2 8354   5.297  11.095   9.172
  436POPC   C1A 8355   5.080  11.545   8.752
  436POPC   D2A 8356   5.354  11.581   8.357
  436POPC   C3A 8357   5.067  11.686   8.020
  436POPC   C4A 8358   4.935  11.398   7.736
  436POPC   C1B 8359   5.181  11.019   8.752
  436POPC   C2B 8360   5.220  11.025   8.343
  436POPC   C3B 8361   5.312  11.200   7.993
  436POPC   C4B 8362   5.235  11.050   7.565
  437POPC   NC3 8363  18.033  40.205   9.488
  437POPC   PO4 8364  18.417  39.632   9.560
  437POPC   GL1 8365  18.406  39.912   9.206
  437POPC   GL2 8366  18.082  40.000   9.038
  437POPC   C1A 8367  18.425  39.699   8.829
  437POPC   D2A 8368  18.707  39.578   8.533
  437POPC   C3A 8369  18.521  39.549   8.138
  437POPC   C4A 8370  18.420  39.811   7.814
  437POPC   C1B 8371  18.296  40.174   8.685
  437POPC   C2B 8372  18.202  40.037   8.269
  437POPC   C3B 8373  18.028  40.133   7.872
  437POPC   C4B 8374  18.214  40.423   7.600
  438POPC   NC3 8375  34.693  26.530   9.447
  438POPC   PO4 8376  34.755  27.184   9.709
  438POPC   GL1 8377  34.511  26.997   9.228
  438POPC   GL2 8378  34.716  26.757   8.989
  438POPC   C1A 8379  34.455  27.050   8.722
  438POPC   D2A 8380  34.591  26.819   8.350
  438POPC   C3A 8381  34.530  26.998   7.923
  438POPC   C4A 8382  34.278  26.910   7.541
  438POPC   C1B 8383  34.976  27.025   8.652
  438POPC   C2B 8384  35.038  27.054   8.237
  438POPC   C3B 8385  34.951  26.686   7.995
  438POPC   C4B 8386  34.898  26.806   7.580
  439POPC   NC3 8387  25.551  33.722   9.424
  439POPC   PO4 8388  24.968  33.514   9.465
  439POPC   GL1 8389  25.146  33.710   9.098
  439POPC   GL2 8390  25.251  33.384   8.935
  439POPC   C1A 8391  25.228  34.048   8.754
  439POPC   D2A 8392  25.360  34.102   8.287
  439POPC   C3A 8393  25.067  33.919   7.939
  439POPC   C4A 8394  25.001  33.474   7.874
  439POPC   C1B 8395  25.563  33.643   8.714
  439POPC   C2B 8396  25.782  33.765   8.316
  439POPC   C3B 8397  25.551  33.761   7.915
  439POPC   C4B 8398  25.407  33.519   7.551
  440POPC   NC3 8399   9.104  25.673   9.417
  440POPC   PO4 8400   8.599  26.090   9.458
  440POPC   GL1 8401   8.801  25.953   9.091
  440POPC   GL2 8402   9.150  26.074   9.048
  440POPC   C1A 8403   8.849  25.900   8.660
  440POPC   D2A 8404   8.760  26.131   8.290
  440POPC   C3A 8405   8.857  25.876   7.991
  440POPC   C4A 8406   8.687  25.970   7.632
  440POPC   C1B 8407   9.406  25.782   8.783
  440POPC   C2B 8408   9.279  25.612   8.412
  440POPC   C3B 8409   9.376  25.790   8.019
  440POPC   C4B 8410   9.237  25.911   7.631
  441POPC   NC3 8411   2.315  20.097   9.402
  441POPC   PO4 8412   1.685  19.713   9.435
  441POPC   GL1 8413   1.893  19.902   9.116
  441POPC   GL2 8414   1.811  19.634   8.860
  441POPC   C1A 8415   2.130  20.057   8.752
  441POPC   D2A 8416   2.254  19.812   8.428
  441POPC   C3A 8417   2.028  19.876   8.060
  441POPC   C4A 8418   2.092  19.627   7.722
  441POPC   C1B 8419   1.610  20.038   8.720
  441POPC   C2B 8420   1.569  20.236   8.286
  441POPC   C3B 8421   1.472  20.064   7.891
  441POPC   C4B 8422   1.795  19.995   7.589
  442POPC   NC3 8423  29.365  27.922   9.480
  442POPC   PO4 8424  29.032  28.533   9.394
  442POPC   GL1 8425  29.025  28.480   9.050
  442POPC   GL2 8426  29.026  28.092   9.103
  442POPC   C1A 8427  29.256  28.603   8.741
  442POPC   D2A 8428  29.006  28.682   8.430
  442POPC   C3A 8429  29.148  28.545   8.113
  442POPC   C4A 8430  29.502  28.534   7.917
  442POPC   C1B 8431  28.894  28.193   8.671
  442POPC   C2B 8432  28.703  28.032   8.347
  442POPC   C3B 8433  28.817  28.183   7.963
  442POPC   C4B 8434  29.112  28.301   7.670
  443POPC   NC3 8435  26.647  37.927   9.480
  443POPC   PO4 8436  26.824  38.612   9.524
  443POPC   GL1 8437  26.944  38.569   9.120
  443POPC   GL2 8438  26.939  38.184   9.111
  443POPC   C1A 8439  26.971  38.502   8.697
  443POPC   D2A 8440  26.627  38.438   8.444
  443POPC   C3A 8441  26.742  38.420   8.040
  443POPC   C4A 8442  26.639  38.502   7.619
  443POPC   C1B 8443  26.771  38.014   8.752
  443POPC   C2B 8444  26.943  38.033   8.358
  443POPC   C3B 8445  26.823  37.924   7.973
  443POPC   C4B 8446  27.019  38.169   7.657
  444POPC   NC3 8447  18.199  22.573   9.609
  444POPC   PO4 8448  18.463  21.970   9.529
  444POPC   GL1 8449  18.318  22.130   9.151
  444POPC   GL2 8450  18.644  22.298   9.138
  444POPC   C1A 8451  18.377  22.291   8.711
  444POPC   D2A 8452  18.193  22.290   8.321
  444POPC   C3A 8453  18.402  22.220   7.980
  444POPC   C4A 8454  18.384  22.447   7.578
  444POPC   C1B 8455  18.689  21.922   8.832
  444POPC   C2B 8456  18.482  21.860   8.436
  444POPC   C3B 8457  18.601  21.740   8.080
  444POPC   C4B 8458  18.547  21.824   7.694
  445POPC   NC3 8459   2.871  24.798   9.722
  445POPC   PO4 8460   2.630  25.534   9.538
  445POPC   GL1 8461   2.540  25.362   9.077
  445POPC   GL2 8462   2.821  25.279   8.913
  445POPC   C1A 8463   2.472  25.381   8.591
  445POPC   D2A 8464   2.831  25.433   8.334
  445POPC   C3A 8465   2.748  25.344   7.917
  445POPC   C4A 8466   2.957  25.443   7.559
  445POPC   C1B 8467   2.878  24.994   8.576
  445POPC   C2B 8468   2.592  24.794   8.286
  445POPC   C3B 8469   2.457  24.907   7.876
  445POPC   C4B 8470   2.731  24.939   7.553
  446POPC   NC3 8471  43.682  21.449   9.442
  446POPC   PO4 8472  44.317  21.083   9.570
  446POPC   GL1 8473  44.007  21.182   9.148
  446POPC   GL2 8474  44.183  21.371   8.888
  446POPC   C1A 8475  43.655  21.393   8.817
  446POPC   D2A 8476  43.419  21.550   8.465
  446POPC   C3A 8477  43.557  21.481   8.044
  446POPC   C4A 8478  43.839  21.586   7.741
  446POPC   C1B 8479  43.984  21.078   8.630
  446POPC   C2B 8480  43.915  21.200   8.234
  446POPC   C3B 8481  43.837  21.083   7.827
  446POPC   C4B 8482  43.806  21.013   7.364
  447POPC   NC3 8483  28.617  42.222   9.524
  447POPC   PO4 8484  29.213  42.319   9.288
  447POPC   GL1 8485  29.144  42.472   8.954
  447POPC   GL2 8486  28.852  42.631   9.054
  447POPC   C1A 8487  29.300  42.266   8.620
  447POPC   D2A 8488  29.474  42.263   8.252
  447POPC   C3A 8489  29.093  42.294   8.082
  447POPC   C4A 8490  29.110  42.062   7.769
  447POPC   C1B 8491  28.890  42.822   8.689
  447POPC   C2B 8492  29.115  42.741   8.340
  447POPC   C3B 8493  28.978  42.833   7.952
  447POPC   C4B 8494  29.163  42.806   7.516
  448POPC   NC3 8495  10.713   9.736   9.409
  448POPC   PO4 8496  11.326   9.523   9.496
  448POPC   GL1 8497  11.353   9.764   9.118
  448POPC   GL2 8498  11.025   9.776   9.005
  448POPC   C1A 8499  11.486   9.521   8.772
  448POPC   D2A 8500  11.555   9.288   8.393
  448POPC   C3A 8501  11.470   9.462   7.995
  448POPC   C4A 8502  11.373   9.818   7.785
  448POPC   C1B 8503  11.198   9.931   8.632
  448POPC   C2B 8504  11.096   9.758   8.243
  448POPC   C3B 8505  10.886   9.858   7.874
  448POPC   C4B 8506  10.979   9.912   7.431
  449POPC   NC3 8507  12.301  25.026   9.462
  449POPC   PO4 8508  11.725  25.389   9.688
  449POPC   GL1 8509  11.752  25.196   9.243
  449POPC   GL2 8510  11.985  25.423   9.177
  449POPC   C1A 8511  12.049  25.040   8.834
  449POPC   D2A 8512  12.339  25.133   8.431
  449POPC   C3A 8513  12.174  25.080   7.988
  449POPC   C4A 8514  11.752  25.092   7.724
  449POPC   C1B 8515  11.797  25.472   8.768
  449POPC   C2B 8516  12.008  25.502   8.368
  449POPC   C3B 8517  11.897  25.520   7.955
  449POPC   C4B 8518  12.150  25.395   7.578
  450POPC   NC3 8519  28.280   7.219   9.482
  450POPC   PO4 8520  27.682   7.369   9.488
  450POPC   GL1 8521  27.710   7.223   9.103
  450POPC   GL2 8522  27.637   7.511   8.963
  450POPC   C1A 8523  27.534   7.069   8.696
  450POPC   D2A 8524  27.238   7.151   8.349
  450POPC   C3A 8525  27.491   7.283   8.020
  450POPC   C4A 8526  27.446   7.488   7.637
  450POPC   C1B 8527  27.944   7.403   8.656
  450POPC   C2B 8528  27.925   7.729   8.395
  450POPC   C3B 8529  27.755   7.728   8.030
  450POPC   C4B 8530  27.815   7.820   7.642
  451POPC   NC3 8531  26.393   0.457   9.749
  451POPC   PO4 8532  27.002   0.650   9.454
  451POPC   GL1 8533  26.865   0.428   9.098
  451POPC   GL2 8534  26.575   0.278   9.164
  451POPC   C1A 8535  26.751   0.537   8.684
  451POPC   D2A 8536  26.602   0.685   8.309
  451POPC   C3A 8537  26.778   0.504   7.954
  451POPC   C4A 8538  26.723   0.387   7.483
  451POPC   C1B 8539  26.553   0.066   8.758
  451POPC   C2B 8540  26.637   0.159   8.329
  451POPC   C3B 8541  26.403   0.182   7.934
  451POPC   C4B 8542  26.481  44.929   7.582
  452POPC   NC3 8543  31.086  27.613   9.567
  452POPC   PO4 8544  31.710  27.715   9.677
  452POPC   GL1 8545  31.544  27.609   9.243
  452POPC   GL2 8546  31.236  27.432   9.120
  452POPC   C1A 8547  31.594  27.659   8.800
  452POPC   D2A 8548  31.519  27.783   8.390
  452POPC   C3A 8549  31.700  27.527   8.078
  452POPC   C4A 8550  31.584  27.609   7.677
  452POPC   C1B 8551  31.088  27.639   8.737
  452POPC   C2B 8552  31.017  27.748   8.332
  452POPC   C3B 8553  31.077  27.578   7.953
  452POPC   C4B 8554  31.100  27.734   7.539
  453POPC   NC3 8555   4.153  44.102   9.512
  453POPC   PO4 8556   4.511  43.503   9.501
  453POPC   GL1 8557   4.411  43.790   9.169
  453POPC   GL2 8558   4.507  44.173   9.158
  453POPC   C1A 8559   4.113  43.804   8.799
  453POPC   D2A 8560   3.923  43.974   8.409
  453POPC   C3A 8561   4.219  43.884   8.038
  453POPC   C4A 8562   4.521  43.540   7.883
  453POPC   C1B 8563   4.590  44.022   8.774
  453POPC   C2B 8564   4.561  43.790   8.427
  453POPC   C3B 8565   4.774  43.923   8.085
  453POPC   C4B 8566   4.635  44.049   7.691
  454POPC   NC3 8567  32.743   6.542   9.309
  454POPC   PO4 8568  33.224   6.781   9.702
  454POPC   GL1 8569  33.192   6.709   9.157
  454POPC   GL2 8570  32.966   6.453   8.886
  454POPC   C1A 8571  33.314   6.732   8.709
  454POPC   D2A 8572  32.995   6.741   8.390
  454POPC   C3A 8573  32.950   6.483   8.047
  454POPC   C4A 8574  33.200   6.588   7.716
  454POPC   C1B 8575  32.598   6.617   8.679
  454POPC   C2B 8576  32.460   6.551   8.296
  454POPC   C3B 8577  32.626   6.872   8.056
  454POPC   C4B 8578  32.756   6.886   7.672
  455POPC   NC3 8579  30.913  17.582   9.628
  455POPC   PO4 8580  30.460  17.216   9.512
  455POPC   GL1 8581  30.542  17.486   9.193
  455POPC   GL2 8582  30.817  17.692   9.150
  455POPC   C1A 8583  30.687  17.349   8.785
  455POPC   D2A 8584  30.581  17.539   8.405
  455POPC   C3A 8585  30.646  17.316   8.069
  455POPC   C4A 8586  30.611  17.508   7.710
  455POPC   C1B 8587  30.800  17.852   8.754
  455POPC   C2B 8588  31.018  17.778   8.409
  455POPC   C3B 8589  30.932  17.771   8.012
  455POPC   C4B 8590  30.927  17.897   7.590
  456POPC   NC3 8591  40.474  19.179   9.571
  456POPC   PO4 8592  41.086  18.974   9.664
  456POPC   GL1 8593  40.901  18.972   9.208
  456POPC   GL2 8594  40.585  18.800   9.233
  456POPC   C1A 8595  40.886  19.239   8.791
  456POPC   D2A 8596  40.859  19.022   8.412
  456POPC   C3A 8597  40.654  19.241   8.109
  456POPC   C4A 8598  40.707  19.113   7.701
  456POPC   C1B 8599  40.559  18.846   8.802
  456POPC   C2B 8600  40.352  18.949   8.400
  456POPC   C3B 8601  40.404  18.803   7.982
  456POPC   C4B 8602  40.441  18.687   7.550
  457POPC   NC3 8603  21.983  39.477   9.848
  457POPC   PO4 8604  21.913  39.131   9.316
  457POPC   GL1 8605  22.245  39.216   9.067
  457POPC   GL2 8606  22.312  39.550   9.137
  457POPC   C1A 8607  22.174  39.046   8.663
  457POPC   D2A 8608  22.079  38.826   8.299
  457POPC   C3A 8609  22.301  38.957   7.950
  457POPC   C4A 8610  22.223  39.149   7.576
  457POPC   C1B 8611  22.519  39.456   8.714
  457POPC   C2B 8612  22.352  39.371   8.317
  457POPC   C3B 8613  22.274  39.506   7.917
  457POPC   C4B 8614  22.508  39.545   7.506
  458POPC   NC3 8615   6.447  18.238   9.634
  458POPC   PO4 8616   6.882  18.466   9.173
  458POPC   GL1 8617   6.520  18.252   9.028
  458POPC   GL2 8618   6.443  17.961   9.198
  458POPC   C1A 8619   6.424  18.240   8.584
  458POPC   D2A 8620   6.471  18.557   8.284
  458POPC   C3A 8621   6.577  18.462   7.861
  458POPC   C4A 8622   6.925  18.215   7.788
  458POPC   C1B 8623   6.613  17.805   8.780
  458POPC   C2B 8624   6.868  17.949   8.475
  458POPC   C3B 8625   6.611  18.011   8.128
  458POPC   C4B 8626   6.492  17.932   7.704
  459POPC   NC3 8627  19.497  33.640   9.540
  459POPC   PO4 8628  20.038  34.045   9.486
  459POPC   GL1 8629  19.965  33.855   9.118
  459POPC   GL2 8630  19.629  33.804   9.084
  459POPC   C1A 8631  20.004  33.709   8.711
  459POPC   D2A 8632  19.977  33.923   8.336
  459POPC   C3A 8633  20.188  33.882   7.943
  459POPC   C4A 8634  20.053  33.892   7.496
  459POPC   C1B 8635  19.516  33.568   8.720
  459POPC   C2B 8636  19.723  33.436   8.371
  459POPC   C3B 8637  19.608  33.696   8.055
  459POPC   C4B 8638  19.588  33.812   7.645
  460POPC   NC3 8639  32.250   3.101   9.810
  460POPC   PO4 8640  32.181   2.511   9.554
  460POPC   GL1 8641  32.278   2.631   9.119
  460POPC   GL2 8642  32.625   2.588   9.145
  460POPC   C1A 8643  32.085   2.807   8.744
  460POPC   D2A 8644  32.030   3.144   8.428
  460POPC   C3A 8645  31.997   2.910   8.024
  460POPC   C4A 8646  32.081   3.041   7.615
  460POPC   C1B 8647  32.604   2.803   8.760
  460POPC   C2B 8648  32.396   2.783   8.344
  460POPC   C3B 8649  32.501   2.909   7.932
  460POPC   C4B 8650  32.819   2.995   7.667
  461POPC   NC3 8651  35.431   8.043   9.591
  461POPC   PO4 8652  35.118   8.678   9.734
  461POPC   GL1 8653  35.191   8.403   9.303
  461POPC   GL2 8654  35.567   8.266   9.161
  461POPC   C1A 8655  35.169   8.207   8.874
  461POPC   D2A 8656  35.300   8.087   8.467
  461POPC   C3A 8657  35.233   8.244   8.077
  461POPC   C4A 8658  35.382   8.509   7.734
  461POPC   C1B 8659  35.629   7.921   8.825
  461POPC   C2B 8660  35.531   7.632   8.481
  461POPC   C3B 8661  35.536   7.783   8.059
  461POPC   C4B 8662  35.426   8.001   7.675
  462POPC   NC3 8663   6.670  33.484   9.568
  462POPC   PO4 8664   6.821  32.844   9.599
  462POPC   GL1 8665   6.705  33.031   9.198
  462POPC   GL2 8666   6.367  32.995   9.023
  462POPC   C1A 8667   6.789  33.053   8.742
  462POPC   D2A 8668   6.517  32.803   8.506
  462POPC   C3A 8669   6.486  32.823   8.064
  462POPC   C4A 8670   6.768  32.854   7.741
  462POPC   C1B 8671   6.278  33.241   8.665
  462POPC   C2B 8672   6.509  33.292   8.336
  462POPC   C3B 8673   6.896  33.172   8.171
  462POPC   C4B 8674   6.767  33.348   7.822
  463POPC   NC3 8675  16.100   6.810   9.435
  463POPC   PO4 8676  15.647   6.351   9.609
  463POPC   GL1 8677  15.844   6.464   9.171
  463POPC   GL2 8678  16.206   6.496   9.012
  463POPC   C1A 8679  15.776   6.601   8.756
  463POPC   D2A 8680  15.958   6.569   8.372
  463POPC   C3A 8681  15.680   6.630   8.070
  463POPC   C4A 8682  15.522   6.820   7.733
  463POPC   C1B 8683  16.434   6.780   8.714
  463POPC   C2B 8684  16.222   7.063   8.430
  463POPC   C3B 8685  16.058   6.973   8.045
  463POPC   C4B 8686  16.096   6.570   7.789
  464POPC   NC3 8687  21.169  11.665   9.564
  464POPC   PO4 8688  21.606  12.142   9.524
  464POPC   GL1 8689  21.650  12.023   9.104
  464POPC   GL2 8690  21.302  12.062   9.069
  464POPC   C1A 8691  21.594  11.862   8.690
  464POPC   D2A 8692  21.296  11.943   8.376
  464POPC   C3A 8693  21.511  12.113   8.038
  464POPC   C4A 8694  21.726  12.175   7.631
  464POPC   C1B 8695  20.998  12.145   8.757
  464POPC   C2B 8696  20.961  12.342   8.389
  464POPC   C3B 8697  20.981  12.192   8.001
  464POPC   C4B 8698  21.204  12.202   7.651
  465POPC   NC3 8699  26.173  36.146   9.971
  465POPC   PO4 8700  26.008  36.660   9.478
  465POPC   GL1 8701  26.014  36.340   9.141
  465POPC   GL2 8702  25.756  36.084   9.173
  465POPC   C1A 8703  26.150  36.169   8.728
  465POPC   D2A 8704  26.216  35.900   8.361
  465POPC   C3A 8705  26.411  36.082   8.004
  465POPC   C4A 8706  26.239  36.242   7.649
  465POPC   C1B 8707  25.829  35.781   8.817
  465POPC   C2B 8708  25.720  35.755   8.380
  465POPC   C3B 8709  25.910  35.895   7.926
  465POPC   C4B 8710  25.951  35.902   7.431
  466POPC   NC3 8711  25.866  16.376   9.402
  466POPC   PO4 8712  26.354  15.948   9.416
  466POPC   GL1 8713  25.987  15.924   9.135
  466POPC   GL2 8714  25.877  15.566   9.111
  466POPC   C1A 8715  25.917  16.088   8.699
  466POPC   D2A 8716  25.698  16.137   8.286
  466POPC   C3A 8717  25.968  16.074   7.945
  466POPC   C4A 8718  26.403  16.207   7.914
  466POPC   C1B 8719  26.189  15.632   8.753
  466POPC   C2B 8720  26.277  15.866   8.326
  466POPC   C3B 8721  26.348  15.695   7.872
  466POPC   C4B 8722  26.536  15.680   7.433
  467POPC   NC3 8723  36.337   7.496   9.534
  467POPC   PO4 8724  35.835   7.902   9.438
  467POPC   GL1 8725  36.094   7.682   9.147
  467POPC   GL2 8726  36.053   7.296   9.137
  467POPC   C1A 8727  36.279   7.581   8.788
  467POPC   D2A 8728  36.008   7.486   8.507
  467POPC   C3A 8729  36.058   7.658   8.118
  467POPC   C4A 8730  35.934   7.845   7.720
  467POPC   C1B 8731  35.948   7.023   8.786
  467POPC   C2B 8732  36.040   7.018   8.338
  467POPC   C3B 8733  35.777   7.004   8.004
  467POPC   C4B 8734  35.843   7.337   7.776
  468POPC   NC3 8735  33.062   6.356   9.684
  468POPC   PO4 8736  32.851   5.706   9.608
  468POPC   GL1 8737  33.088   5.715   9.218
  468POPC   GL2 8738  33.108   6.070   9.189
  468POPC   C1A 8739  33.005   5.820   8.747
  468POPC   D2A 8740  32.825   6.143   8.454
  468POPC   C3A 8741  32.821   5.965   8.027
  468POPC   C4A 8742  33.048   5.759   7.679
  468POPC   C1B 8743  33.370   6.165   8.801
  468POPC   C2B 8744  33.326   6.285   8.369
  468POPC   C3B 8745  33.309   6.136   7.927
  468POPC   C4B 8746  33.522   5.900   7.615
  469POPC   NC3 8747  27.211   3.343   9.816
  469POPC   PO4 8748  27.572   3.769   9.427
  469POPC   GL1 8749  27.666   3.549   9.065
  469POPC   GL2 8750  27.486   3.250   8.959
  469POPC   C1A 8751  27.664   3.694   8.685
  469POPC   D2A 8752  27.666   3.653   8.285
  469POPC   C3A 8753  27.469   4.012   8.153
  469POPC   C4A 8754  27.228   4.033   7.816
  469POPC   C1B 8755  27.272   2.947   8.689
  469POPC   C2B 8756  27.304   2.944   8.240
  469POPC   C3B 8757  27.535   3.211   7.978
  469POPC   C4B 8758  27.545   3.642   7.803
  470POPC   NC3 8759  20.093   7.002   9.413
  470POPC   PO4 8760  19.555   6.566   9.458
  470POPC   GL1 8761  19.749   6.671   9.118
  470POPC   GL2 8762  20.072   6.499   9.186
  470POPC   C1A 8763  19.626   6.468   8.743
  470POPC   D2A 8764  19.546   6.225   8.384
  470POPC   C3A 8765  19.586   6.419   8.021
  470POPC   C4A 8766  19.692   6.650   7.663
  470POPC   C1B 8767  20.142   6.710   8.804
  470POPC   C2B 8768  19.906   6.781   8.450
  470POPC   C3B 8769  20.011   6.670   8.074
  470POPC   C4B 8770  20.144   6.852   7.751
  471POPC   NC3 8771   8.652  28.178   9.389
  471POPC   PO4 8772   7.998  28.181   9.629
  471POPC   GL1 8773   8.078  28.349   9.231
  471POPC   GL2 8774   7.835  28.158   9.116
  471POPC   C1A 8775   8.308  28.551   8.884
  471POPC   D2A 8776   8.446  28.616   8.447
  471POPC   C3A 8777   8.311  28.299   8.143
  471POPC   C4A 8778   8.437  28.193   7.755
  471POPC   C1B 8779   8.079  28.107   8.769
  471POPC   C2B 8780   8.002  27.932   8.400
  471POPC   C3B 8781   7.863  28.041   8.031
  471POPC   C4B 8782   8.012  27.942   7.657
  472POPC   NC3 8783   6.008  41.886   9.477
  472POPC   PO4 8784   5.698  41.340   9.512
  472POPC   GL1 8785   5.720  41.570   9.138
  472POPC   GL2 8786   5.510  41.832   9.092
  472POPC   C1A 8787   5.927  41.666   8.731
  472POPC   D2A 8788   6.056  41.519   8.276
  472POPC   C3A 8789   5.880  41.577   7.843
  472POPC   C4A 8790   6.169  41.522   7.457
  472POPC   C1B 8791   5.553  42.006   8.724
  472POPC   C2B 8792   5.637  41.817   8.331
  472POPC   C3B 8793   5.457  41.872   7.959
  472POPC   C4B 8794   5.602  42.017   7.581
  473POPC   NC3 8795  13.520  44.261   9.490
  473POPC   PO4 8796  13.876  43.635   9.382
  473POPC   GL1 8797  13.678  43.911   9.148
  473POPC   GL2 8798  13.844  44.175   9.087
  473POPC   C1A 8799  13.694  43.841   8.727
  473POPC   D2A 8800  13.502  43.585   8.442
  473POPC   C3A 8801  13.608  43.684   8.020
  473POPC   C4A 8802  13.292  43.805   7.726
  473POPC   C1B 8803  13.403  44.242   8.859
  473POPC   C2B 8804  13.297  44.058   8.474
  473POPC   C3B 8805  13.502  44.183   8.106
  473POPC   C4B 8806  13.358  44.326   7.731
  474POPC   NC3 8807   4.583  32.371   9.569
  474POPC   PO4 8808   4.154  32.854   9.467
  474POPC   GL1 8809   4.336  32.535   9.169
  474POPC   GL2 8810   4.146  32.246   9.079
  474POPC   C1A 8811   4.482  32.474   8.750
  474POPC   D2A 8812   4.417  32.263   8.350
  474POPC   C3A 8813   4.461  32.431   7.919
  474POPC   C4A 8814   4.584  32.435   7.466
  474POPC   C1B 8815   4.031  31.913   8.807
  474POPC   C2B 8816   4.040  31.938   8.380
  474POPC   C3B 8817   4.092  32.010   7.944
  474POPC   C4B 8818   4.078  31.687   7.602
  475POPC   NC3 8819  24.009   8.892   9.547
  475POPC   PO4 8820  23.497   9.299   9.393
  475POPC   GL1 8821  23.758   9.067   9.100
  475POPC   GL2 8822  23.895   8.731   9.034
  475POPC   C1A 8823  23.682   9.020   8.657
  475POPC   D2A 8824  23.606   9.231   8.284
  475POPC   C3A 8825  23.634   8.961   7.964
  475POPC   C4A 8826  23.674   8.711   7.590
  475POPC   C1B 8827  24.167   9.012   8.794
  475POPC   C2B 8828  24.286   9.171   8.437
  475POPC   C3B 8829  24.148   9.002   8.090
  475POPC   C4B 8830  24.019   9.103   7.690
  476POPC   NC3 8831   0.230   2.074   9.402
  476POPC   PO4 8832   0.820   1.859   9.557
  476POPC   GL1 8833   0.639   1.994   9.128
  476POPC   GL2 8834   0.493   1.680   9.059
  476POPC   C1A 8835   0.356   2.210   8.785
  476POPC   D2A 8836   0.154   2.020   8.404
  476POPC   C3A 8837   0.241   2.187   7.963
  476POPC   C4A 8838   0.233   2.067   7.502
  476POPC   C1B 8839   0.558   1.765   8.637
  476POPC   C2B 8840   0.454   1.613   8.221
  476POPC   C3B 8841   0.559   1.797   7.826
  476POPC   C4B 8842   0.618   1.762   7.356
  477POPC   NC3 8843  15.424  25.880   9.520
  477POPC   PO4 8844  14.838  26.184   9.432
  477POPC   GL1 8845  14.908  25.910   9.118
  477POPC   GL2 8846  15.251  25.985   9.013
  477POPC   C1A 8847  14.894  25.777   8.692
  477POPC   D2A 8848  15.253  25.825   8.459
  477POPC   C3A 8849  15.151  25.938   8.069
  477POPC   C4A 8850  14.991  25.675   7.756
  477POPC   C1B 8851  15.041  26.272   8.726
  477POPC   C2B 8852  14.878  26.486   8.361
  477POPC   C3B 8853  15.093  26.496   7.988
  477POPC   C4B 8854  15.304  26.238   7.694
  478POPC   NC3 8855   7.574  33.597   9.644
  478POPC   PO4 8856   7.223  34.100   9.332
  478POPC   GL1 8857   7.325  33.793   9.054
  478POPC   GL2 8858   7.657  33.658   9.134
  478POPC   C1A 8859   7.401  33.783   8.618
  478POPC   D2A 8860   7.328  33.502   8.278
  478POPC   C3A 8861   7.528  33.651   7.907
  478POPC   C4A 8862   7.460  33.749   7.441
  478POPC   C1B 8863   7.882  33.641   8.756
  478POPC   C2B 8864   7.835  33.531   8.331
  478POPC   C3B 8865   8.011  33.434   7.931
  478POPC   C4B 8866   7.744  33.340   7.574
  479POPC   NC3 8867  13.204  24.467   9.375
  479POPC   PO4 8868  12.756  24.913   9.532
  479POPC   GL1 8869  12.624  24.595   9.207
  479POPC   GL2 8870  12.789  24.241   9.136
  479POPC   C1A 8871  12.533  24.484   8.783
  479POPC   D2A 8872  12.730  24.513   8.384
  479POPC   C3A 8873  12.602  24.796   8.072
  479POPC   C4A 8874  12.631  24.743   7.631
  479POPC   C1B 8875  12.946  24.117   8.696
  479POPC   C2B 8876  12.814  24.029   8.265
  479POPC   C3B 8877  12.833  24.333   7.878
  479POPC   C4B 8878  13.119  24.592   7.563
  480POPC   NC3 8879  21.884  22.855   9.507
  480POPC   PO4 8880  21.200  23.133   9.506
  480POPC   GL1 8881  21.387  23.040   9.119
  480POPC   GL2 8882  21.593  22.764   9.106
  480POPC   C1A 8883  21.418  23.110   8.678
  480POPC   D2A 8884  21.135  23.305   8.411
  480POPC   C3A 8885  21.016  23.254   8.014
  480POPC   C4A 8886  21.223  23.103   7.667
  480POPC   C1B 8887  21.249  22.651   8.828
  480POPC   C2B 8888  21.179  22.739   8.428
  480POPC   C3B 8889  21.356  22.901   8.117
  480POPC   C4B 8890  21.283  22.590   7.789
  481POPC   NC3 8891  14.600   7.215   9.556
  481POPC   PO4 8892  14.067   7.559   9.418
  481POPC   GL1 8893  14.292   7.231   9.154
  481POPC   GL2 8894  14.696   7.165   9.072
  481POPC   C1A 8895  14.294   7.174   8.737
  481POPC   D2A 8896  14.079   7.335   8.403
  481POPC   C3A 8897  14.337   7.484   8.080
  481POPC   C4A 8898  14.448   7.504   7.647
  481POPC   C1B 8899  14.770   7.361   8.701
  481POPC   C2B 8900  14.819   7.309   8.282
  481POPC   C3B 8901  14.731   7.175   7.908
  481POPC   C4B 8902  14.699   7.080   7.500
  482POPC   NC3 8903  39.457  18.543   9.553
  482POPC   PO4 8904  38.867  18.168   9.535
  482POPC   GL1 8905  39.031  18.001   9.143
  482POPC   GL2 8906  39.317  18.170   9.197
  482POPC   C1A 8907  38.992  18.080   8.710
  482POPC   D2A 8908  38.844  17.855   8.339
  482POPC   C3A 8909  38.913  18.141   8.019
  482POPC   C4A 8910  39.161  18.198   7.639
  482POPC   C1B 8911  39.326  18.441   8.828
  482POPC   C2B 8912  39.234  18.399   8.379
  482POPC   C3B 8913  39.355  18.547   7.971
  482POPC   C4B 8914  39.645  18.453   7.673
  483POPC   NC3 8915   8.742  27.283   9.428
  483POPC   PO4 8916   8.946  27.866   9.683
  483POPC   GL1 8917   9.060  27.690   9.223
  483POPC   GL2 8918   8.796  27.495   8.983
  483POPC   C1A 8919   9.128  27.764   8.751
  483POPC   D2A 8920   8.853  27.521   8.470
  483POPC   C3A 8921   8.823  27.643   8.071
  483POPC   C4A 8922   9.192  27.679   7.842
  483POPC   C1B 8923   9.111  27.233   8.816
  483POPC   C2B 8924   9.133  27.091   8.383
  483POPC   C3B 8925   9.044  27.174   7.954
  483POPC   C4B 8926   8.811  27.335   7.655
  484POPC   NC3 8927  35.662  41.421   9.367
  484POPC   PO4 8928  35.130  41.762   9.506
  484POPC   GL1 8929  35.187  41.559   9.105
  484POPC   GL2 8930  34.984  41.729   8.855
  484POPC   C1A 8931  35.406  41.497   8.694
  484POPC   D2A 8932  35.220  41.704   8.355
  484POPC   C3A 8933  35.298  41.642   7.932
  484POPC   C4A 8934  35.582  41.682   7.576
  484POPC   C1B 8935  34.899  41.346   8.692
  484POPC   C2B 8936  35.108  41.201   8.336
  484POPC   C3B 8937  35.029  41.127   7.916
  484POPC   C4B 8938  34.997  41.425   7.606
  485POPC   NC3 8939  43.869  34.206   9.870
  485POPC   PO4 8940  44.001  33.619   9.494
  485POPC   GL1 8941  44.033  33.637   9.082
  485POPC   GL2 8942  44.199  33.316   9.070
  485POPC   C1A 8943  44.000  33.932   8.727
  485POPC   D2A 8944  43.722  34.058   8.398
  485POPC   C3A 8945  43.886  34.043   7.994
  485POPC   C4A 8946  43.606  33.848   7.718
  485POPC   C1B 8947  44.156  33.420   8.638
  485POPC   C2B 8948  44.153  33.680   8.292
  485POPC   C3B 8949  43.992  33.559   7.929
  485POPC   C4B 8950  44.153  33.322   7.637
  486POPC   NC3 8951  42.746   9.318   9.769
  486POPC   PO4 8952  43.385   9.103   9.615
  486POPC   GL1 8953  43.187   9.010   9.210
  486POPC   GL2 8954  43.017   8.695   9.144
  486POPC   C1A 8955  43.360   8.865   8.807
  486POPC   D2A 8956  43.443   9.073   8.427
  486POPC   C3A 8957  43.554   8.904   8.062
  486POPC   C4A 8958  43.323   8.796   7.700
  486POPC   C1B 8959  42.827   8.849   8.766
  486POPC   C2B 8960  42.935   9.005   8.370
  486POPC   C3B 8961  42.796   8.905   7.959
  486POPC   C4B 8962  42.800   8.594   7.638
  487POPC   NC3 8963  41.276  23.378   9.534
  487POPC   PO4 8964  41.510  23.979   9.331
  487POPC   GL1 8965  41.372  23.653   9.076
  487POPC   GL2 8966  41.148  23.870   8.986
  487POPC   C1A 8967  41.547  23.601   8.666
  487POPC   D2A 8968  41.714  23.723   8.276
  487POPC   C3A 8969  41.623  23.496   7.909
  487POPC   C4A 8970  41.741  23.554   7.477
  487POPC   C1B 8971  41.041  24.028   8.632
  487POPC   C2B 8972  41.230  23.996   8.287
  487POPC   C3B 8973  41.224  23.810   7.944
  487POPC   C4B 8974  41.297  23.847   7.510
  488POPC   NC3 8975  33.723  22.787   9.507
  488POPC   PO4 8976  33.383  23.370   9.469
  488POPC   GL1 8977  33.726  23.161   9.133
  488POPC   GL2 8978  33.894  22.804   9.037
  488POPC   C1A 8979  33.923  23.202   8.730
  488POPC   D2A 8980  33.807  22.975   8.359
  488POPC   C3A 8981  33.891  23.230   8.009
  488POPC   C4A 8982  33.764  23.120   7.581
  488POPC   C1B 8983  33.981  22.556   8.652
  488POPC   C2B 8984  34.104  22.537   8.209
  488POPC   C3B 8985  33.901  22.723   7.842
  488POPC   C4B 8986  33.916  22.647   7.365
  489POPC   NC3 8987  23.179   3.270   9.409
  489POPC   PO4 8988  22.685   3.686   9.670
  489POPC   GL1 8989  22.707   3.566   9.255
  489POPC   GL2 8990  23.027   3.669   9.117
  489POPC   C1A 8991  22.678   3.437   8.816
  489POPC   D2A 8992  23.009   3.545   8.530
  489POPC   C3A 8993  22.879   3.610   8.115
  489POPC   C4A 8994  23.055   3.318   7.827
  489POPC   C1B 8995  23.095   3.983   8.837
  489POPC   C2B 8996  23.067   4.060   8.456
  489POPC   C3B 8997  23.282   3.898   8.125
  489POPC   C4B 8998  23.071   3.884   7.726
  490POPC   NC3 8999  42.867  15.025   9.649
  490POPC   PO4 9000  43.118  15.610   9.564
  490POPC   GL1 9001  43.204  15.386   9.159
  490POPC   GL2 9002  43.286  15.041   9.235
  490POPC   C1A 9003  43.358  15.199   8.740
  490POPC   D2A 9004  43.342  14.931   8.395
  490POPC   C3A 9005  43.216  15.192   8.081
  490POPC   C4A 9006  43.161  15.223   7.671
  490POPC   C1B 9007  42.959  14.939   8.881
  490POPC   C2B 9008  42.829  15.044   8.412
  490POPC   C3B 9009  42.685  15.363   8.086
  490POPC   C4B 9010  42.676  15.395   7.627
  491POPC   NC3 9011   8.049  19.131   9.436
  491POPC   PO4 9012   8.623  19.581   9.369
  491POPC   GL1 9013   8.371  19.342   9.093
  491POPC   GL2 9014   8.443  19.005   9.073
  491POPC   C1A 9015   8.041  19.277   8.788
  491POPC   D2A 9016   8.225  19.398   8.401
  491POPC   C3A 9017   8.060  19.282   8.047
  491POPC   C4A 9018   8.113  19.025   7.731
  491POPC   C1B 9019   8.427  18.989   8.647
  491POPC   C2B 9020   8.303  18.848   8.223
  491POPC   C3B 9021   8.581  18.820   7.872
  491POPC   C4B 9022   8.767  18.836   7.505
  492POPC   NC3 9023  18.639  27.039   9.458
  492POPC   PO4 9024  19.013  27.773   9.533
  492POPC   GL1 9025  19.085  27.708   9.064
  492POPC   GL2 9026  19.395  27.836   9.081
  492POPC   C1A 9027  19.036  27.352   8.688
  492POPC   D2A 9028  18.783  27.369   8.290
  492POPC   C3A 9029  19.038  27.479   7.911
  492POPC   C4A 9030  18.919  27.656   7.485
  492POPC   C1B 9031  19.449  27.643   8.679
  492POPC   C2B 9032  19.440  27.532   8.246
  492POPC   C3B 9033  19.608  27.772   7.878
  492POPC   C4B 9034  19.674  27.826   7.387
  493POPC   NC3 9035  37.274  43.211   9.865
  493POPC   PO4 9036  36.764  43.127   9.345
  493POPC   GL1 9037  36.939  43.202   8.951
  493POPC   GL2 9038  37.315  43.129   8.985
  493POPC   C1A 9039  36.641  43.285   8.615
  493POPC   D2A 9040  36.510  43.279   8.190
  493POPC   C3A 9041  36.768  43.445   7.874
  493POPC   C4A 9042  37.134  43.397   7.690
  493POPC   C1B 9043  37.228  42.789   8.677
  493POPC   C2B 9044  37.225  43.005   8.331
  493POPC   C3B 9045  37.097  42.991   7.974
  493POPC   C4B 9046  36.697  42.920   7.853
  494POPC   NC3 9047  18.551  36.473   9.559
  494POPC   PO4 9048  18.372  35.845   9.426
  494POPC   GL1 9049  18.552  36.052   9.134
  494POPC   GL2 9050  18.301  36.311   9.142
  494POPC   C1A 9051  18.455  35.986   8.704
  494POPC   D2A 9052  18.267  35.993   8.299
  494POPC   C3A 9053  18.464  36.002   7.907
  494POPC   C4A 9054  18.366  36.023   7.471
  494POPC   C1B 9055  17.925  36.385   8.908
  494POPC   C2B 9056  17.915  36.366   8.440
  494POPC   C3B 9057  18.135  36.410   8.011
  494POPC   C4B 9058  18.028  36.387   7.531
  495POPC   NC3 9059   9.952  10.509   9.579
  495POPC   PO4 9060   9.278  10.420   9.638
  495POPC   GL1 9061   9.517  10.509   9.241
  495POPC   GL2 9062   9.770  10.802   9.181
  495POPC   C1A 9063   9.539  10.507   8.779
  495POPC   D2A 9064   9.850  10.328   8.501
  495POPC   C3A 9065   9.848  10.374   8.065
  495POPC   C4A 9066   9.820  10.408   7.634
  495POPC   C1B 9067   9.716  10.972   8.766
  495POPC   C2B 9068   9.794  10.819   8.355
  495POPC   C3B 9069   9.641  10.825   7.943
  495POPC   C4B 9070   9.807  10.961   7.618
  496POPC   NC3 9071  20.788  42.082   9.524
  496POPC   PO4 9072  20.375  42.514   9.371
  496POPC   GL1 9073  20.566  42.214   9.080
  496POPC   GL2 9074  20.893  42.314   9.055
  496POPC   C1A 9075  20.604  42.089   8.669
  496POPC   D2A 9076  20.592  42.293   8.279
  496POPC   C3A 9077  20.356  42.126   7.923
  496POPC   C4A 9078  20.479  42.226   7.484
  496POPC   C1B 9079  21.065  42.307   8.621
  496POPC   C2B 9080  21.117  42.194   8.193
  496POPC   C3B 9081  20.865  42.313   7.854
  496POPC   C4B 9082  20.915  42.643   7.564
  497POPC   NC3 9083  34.499  19.400   9.508
  497POPC   PO4 9084  34.846  20.007   9.530
  497POPC   GL1 9085  34.694  19.824   9.160
  497POPC   GL2 9086  34.341  19.752   9.186
  497POPC   C1A 9087  34.814  19.930   8.745
  497POPC   D2A 9088  34.901  19.872   8.326
  497POPC   C3A 9089  34.693  20.072   8.003
  497POPC   C4A 9090  34.654  19.706   7.836
  497POPC   C1B 9091  34.325  19.968   8.812
  497POPC   C2B 9092  34.395  20.087   8.424
  497POPC   C3B 9093  34.195  19.948   8.062
  497POPC   C4B 9094  34.191  19.761   7.671
  498POPC   NC3 9095  21.634   9.275   9.454
  498POPC   PO4 9096  21.330   8.600   9.456
  498POPC   GL1 9097  21.508   8.861   9.166
  498POPC   GL2 9098  21.229   9.116   9.200
  498POPC   C1A 9099  21.509   9.094   8.776
  498POPC   D2A 9100  21.370   9.294   8.411
  498POPC   C3A 9101  21.384   8.968   8.125
  498POPC   C4A 9102  21.446   9.045   7.734
  498POPC   C1B 9103  21.051   8.845   8.881
  498POPC   C2B 9104  20.944   8.945   8.456
  498POPC   C3B 9105  20.929   8.771   8.071
  498POPC   C4B 9106  21.065   8.657   7.679
  499POPC   NC3 9107  34.293   2.327   9.231
  499POPC   PO4 9108  34.624   1.910   9.634
  499POPC   GL1 9109  34.663   1.837   9.132
  499POPC   GL2 9110  34.367   1.824   9.091
  499POPC   C1A 9111  34.769   2.022   8.630
  499POPC   D2A 9112  34.847   2.303   8.221
  499POPC   C3A 9113  34.730   2.237   7.740
  499POPC   C4A 9114  34.488   1.853   7.550
  499POPC   C1B 9115  34.272   2.004   8.709
  499POPC   C2B 9116  34.284   1.858   8.355
  499POPC   C3B 9117  34.432   2.003   8.061
  499POPC   C4B 9118  34.193   2.184   7.792
  500POPC   NC3 9119  17.808  41.770   9.206
  500POPC   PO4 9120  17.328  41.553   9.607
  500POPC   GL1 9121  17.226  41.496   9.181
  500POPC   GL2 9122  17.323  41.787   9.110
  500POPC   C1A 9123  17.443  41.408   8.772
  500POPC   D2A 9124  17.448  41.529   8.340
  500POPC   C3A 9125  17.789  41.494   8.054
  500POPC   C4A 9126  17.823  41.244   7.677
  500POPC   C1B 9127  17.215  41.931   8.752
  500POPC   C2B 9128  17.316  42.102   8.357
  500POPC   C3B 9129  17.498  41.931   8.006
  500POPC   C4B 9130  17.332  41.525   7.829
  501POPC   NC3 9131   5.732  30.082   9.842
  501POPC   PO4 9132   5.783  30.640   9.440
  501POPC   GL1 9133   5.830  30.758   9.072
  501POPC   GL2 9134   6.063  31.038   9.109
  501POPC   C1A 9135   5.731  30.511   8.739
  501POPC   D2A 9136   5.751  30.691   8.380
  501POPC   C3A 9137   5.613  30.569   8.019
  501POPC   C4A 9138   5.755  30.554   7.620
  501POPC   C1B 9139   5.951  31.189   8.697
  501POPC   C2B 9140   6.085  31.043   8.305
  501POPC   C3B 9141   5.929  30.949   7.895
  501POPC   C4B 9142   6.111  30.918   7.420
  502POPC   NC3 9143  29.538   9.946   9.438
  502POPC   PO4 9144  30.094   9.565   9.465
  502POPC   GL1 9145  29.952   9.501   9.060
  502POPC   GL2 9146  29.803   9.800   9.033
  502POPC   C1A 9147  29.841   9.482   8.607
  502POPC   D2A 9148  29.911   9.726   8.223
  502POPC   C3A 9149  29.798   9.535   7.821
  502POPC   C4A 9150  29.922   9.426   7.399
  502POPC   C1B 9151  29.505   9.902   8.707
  502POPC   C2B 9152  29.404   9.826   8.283
  502POPC   C3B 9153  29.513   9.951   7.905
  502POPC   C4B 9154  29.758   9.950   7.526
  503POPC   NC3 9155   2.911  32.526   9.447
  503POPC   PO4 9156   2.465  31.938   9.512
  503POPC   GL1 9157   2.755  32.083   9.220
  503POPC   GL2 9158   2.547  32.355   9.123
  503POPC   C1A 9159   2.887  32.145   8.796
  503POPC   D2A 9160   2.709  31.961   8.445
  503POPC   C3A 9161   2.914  32.090   8.083
  503POPC   C4A 9162   2.708  32.149   7.719
  503POPC   C1B 9163   2.506  32.645   8.792
  503POPC   C2B 9164   2.662  32.498   8.435
  503POPC   C3B 9165   2.475  32.384   8.100
  503POPC   C4B 9166   2.480  32.716   7.841
  504POPC   NC3 9167  43.816   0.624   9.457
  504POPC   PO4 9168  43.876   0.013   9.447
  504POPC   GL1 9169  44.030   0.282   9.104
  504POPC   GL2 9170  44.231   0.576   9.152
  504POPC   C1A 9171  43.877   0.446   8.719
  504POPC   D2A 9172  43.753   0.272   8.324
  504POPC   C3A 9173  43.983   0.269   7.974
  504POPC   C4A 9174  43.897   0.177   7.564
  504POPC   C1B 9175  44.265   0.807   8.760
  504POPC   C2B 9176  44.179   0.648   8.345
  504POPC   C3B 9177  43.818   0.744   8.091
  504POPC   C4B 9178  43.918   0.707   7.650
  505POPC   NC3 9179  13.345  32.773   9.383
  505POPC   PO4 9180  13.315  33.350   9.484
  505POPC   GL1 9181  13.650  33.167   9.156
  505POPC   GL2 9182  13.565  32.848   8.944
  505POPC   C1A 9183  14.002  33.063   8.814
  505POPC   D2A 9184  13.929  32.920   8.371
  505POPC   C3A 9185  13.641  33.199   8.130
  505POPC   C4A 9186  13.656  33.393   7.708
  505POPC   C1B 9187  13.508  33.191   8.660
  505POPC   C2B 9188  13.196  33.151   8.386
  505POPC   C3B 9189  13.183  32.970   7.991
  505POPC   C4B 9190  13.277  33.070   7.601
  506POPC   NC3 9191  27.294  28.935   9.544
  506POPC   PO4 9192  27.784  29.265   9.710
  506POPC   GL1 9193  27.677  29.088   9.268
  506POPC   GL2 9194  27.448  29.362   9.187
  506POPC   C1A 9195  27.473  28.985   8.836
  506POPC   D2A 9196  27.579  28.749   8.467
  506POPC   C3A 9197  27.464  28.897   8.083
  506POPC   C4A 9198  27.534  28.939   7.690
  506POPC   C1B 9199  27.461  29.497   8.783
  506POPC   C2B 9200  27.483  29.287   8.397
  506POPC   C3B 9201  27.456  29.396   7.953
  506POPC   C4B 9202  27.756  29.642   7.763
  507POPC   NC3 9203  11.995  39.611   9.449
  507POPC   PO4 9204  12.421  40.052   9.573
  507POPC   GL1 9205  12.128  40.040   9.193
  507POPC   GL2 9206  12.098  39.736   8.984
  507POPC   C1A 9207  11.953  40.212   8.802
  507POPC   D2A 9208  11.726  40.152   8.384
  507POPC   C3A 9209  11.977  40.204   8.000
  507POPC   C4A 9210  12.153  39.997   7.612
  507POPC   C1B 9211  11.733  39.764   8.765
  507POPC   C2B 9212  11.761  39.631   8.361
  507POPC   C3B 9213  12.054  39.693   8.044
  507POPC   C4B 9214  11.975  39.504   7.648
  508POPC   NC3 9215  12.671  23.773   9.438
  508POPC   PO4 9216  12.003  23.767   9.464
  508POPC   GL1 9217  12.191  23.679   9.110
  508POPC   GL2 9218  12.493  23.486   9.052
  508POPC   C1A 9219  12.111  23.532   8.704
  508POPC   D2A 9220  12.046  23.747   8.337
  508POPC   C3A 9221  12.209  23.547   8.017
  508POPC   C4A 9222  11.979  23.680   7.716
  508POPC   C1B 9223  12.495  23.915   8.801
  508POPC   C2B 9224  12.352  24.149   8.438
  508POPC   C3B 9225  12.353  24.044   7.998
  508POPC   C4B 9226  12.500  23.930   7.586
  509POPC   NC3 9227  41.779  31.117   9.191
  509POPC   PO4 9228  41.173  31.295   9.347
  509POPC   GL1 9229  41.328  31.566   9.048
  509POPC   GL2 9230  41.599  31.849   9.109
  509POPC   C1A 9231  41.437  31.358   8.668
  509POPC   D2A 9232  41.677  31.460   8.353
  509POPC   C3A 9233  41.435  31.492   7.972
  509POPC   C4A 9234  41.661  31.275   7.684
  509POPC   C1B 9235  41.956  31.793   8.772
  509POPC   C2B 9236  42.133  31.710   8.344
  509POPC   C3B 9237  41.887  31.722   7.982
  509POPC   C4B 9238  41.800  31.745   7.567
  510POPC   NC3 9239   8.667  36.458   9.457
  510POPC   PO4 9240   9.128  35.957   9.385
  510POPC   GL1 9241   8.938  36.222   9.090
  510POPC   GL2 9242   8.666  35.997   9.098
  510POPC   C1A 9243   8.848  36.464   8.709
  510POPC   D2A 9244   9.010  36.567   8.281
  510POPC   C3A 9245   8.866  36.362   7.895
  510POPC   C4A 9246   9.046  36.368   7.459
  510POPC   C1B 9247   8.816  35.882   8.712
  510POPC   C2B 9248   8.784  36.095   8.343
  510POPC   C3B 9249   8.831  35.847   7.991
  510POPC   C4B 9250   8.843  35.918   7.594
  511POPC   NC3 9251  10.794  41.482   9.628
  511POPC   PO4 9252  10.447  41.978   9.537
  511POPC   GL1 9253  10.642  41.727   9.187
  511POPC   GL2 9254  10.559  41.358   9.160
  511POPC   C1A 9255  10.473  41.682   8.759
  511POPC   D2A 9256  10.599  41.826   8.356
  511POPC   C3A 9257  10.474  41.591   8.022
  511POPC   C4A 9258  10.282  41.801   7.709
  511POPC   C1B 9259  10.735  41.214   8.757
  511POPC   C2B 9260  10.838  41.379   8.351
  511POPC   C3B 9261  10.821  41.210   7.951
  511POPC   C4B 9262  10.493  41.171   7.644
  512POPC   NC3 9263  30.102  32.451   9.528
  512POPC   PO4 9264  30.711  32.173   9.490
  512POPC   GL1 9265  30.546  32.178   9.146
  512POPC   GL2 9266  30.477  32.553   9.183
  512POPC   C1A 9267  30.788  32.008   8.815
  512POPC   D2A 9268  30.898  31.908   8.422
  512POPC   C3A 9269  30.950  32.232   8.137
  512POPC   C4A 9270  30.886  31.995   7.733
  512POPC   C1B 9271  30.650  32.501   8.784
  512POPC   C2B 9272  30.506  32.285   8.467
  512POPC   C3B 9273  30.478  32.101   8.100
  512POPC   C4B 9274  30.503  32.352   7.723
  513POPC   NC3 9275   9.422  24.674   9.369
  513POPC   PO4 9276   8.797  24.532   9.558
  513POPC   GL1 9277   8.960  24.409   9.166
  513POPC   GL2 9278   8.996  24.695   9.074
  513POPC   C1A 9279   9.060  24.274   8.726
  513POPC   D2A 9280   9.308  24.292   8.374
  513POPC   C3A 9281   9.077  24.359   8.023
  513POPC   C4A 9282   9.039  24.648   7.690
  513POPC   C1B 9283   8.685  24.611   8.747
  513POPC   C2B 9284   8.802  24.677   8.355
  513POPC   C3B 9285   8.636  24.612   7.987
  513POPC   C4B 9286   8.532  24.823   7.665
  514POPC   NC3 9287  40.737  22.536   9.509
  514POPC   PO4 9288  40.574  21.846   9.413
  514POPC   GL1 9289  40.744  22.153   9.139
  514POPC   GL2 9290  40.506  22.437   9.077
  514POPC   C1A 9291  40.978  22.168   8.755
  514POPC   D2A 9292  41.188  21.991   8.400
  514POPC   C3A 9293  41.043  22.161   8.031
  514POPC   C4A 9294  40.805  22.089   7.671
  514POPC   C1B 9295  40.477  22.245   8.686
  514POPC   C2B 9296  40.600  22.217   8.270
  514POPC   C3B 9297  40.471  22.410   7.879
  514POPC   C4B 9298  40.363  22.269   7.465
  515POPC   NC3 9299  15.473  33.976   9.416
  515POPC   PO4 9300  14.804  33.674   9.465
  515POPC   GL1 9301  15.092  33.781   9.068
  515POPC   GL2 9302  15.263  34.075   8.951
  515POPC   C1A 9303  15.146  33.666   8.618
  515POPC   D2A 9304  14.839  33.500   8.259
  515POPC   C3A 9305  15.043  33.540   7.846
  515POPC   C4A 9306  15.452  33.716   7.906
  515POPC   C1B 9307  14.945  34.218   8.707
  515POPC   C2B 9308  14.970  34.026   8.305
  515POPC   C3B 9309  15.207  34.160   7.937
  515POPC   C4B 9310  15.119  34.067   7.506
  516POPC   NC3 9311  32.199  41.199   9.836
  516POPC   PO4 9312  32.008  40.686   9.371
  516POPC   GL1 9313  32.315  40.659   9.068
  516POPC   GL2 9314  32.566  40.407   9.215
  516POPC   C1A 9315  32.254  40.954   8.719
  516POPC   D2A 9316  32.052  40.944   8.360
  516POPC   C3A 9317  32.285  40.928   8.009
  516POPC   C4A 9318  32.054  40.882   7.644
  516POPC   C1B 9319  32.705  40.428   8.795
  516POPC   C2B 9320  32.502  40.612   8.434
  516POPC   C3B 9321  32.574  40.502   8.033
  516POPC   C4B 9322  32.662  40.292   7.689
  517POPC   NC3 9323   0.180  27.726   9.540
  517POPC   PO4 9324   0.518  27.243   9.649
  517POPC   GL1 9325   0.406  27.508   9.169
  517POPC   GL2 9326   0.667  27.701   8.991
  517POPC   C1A 9327   0.203  27.668   8.779
  517POPC   D2A 9328   0.310  27.583   8.345
  517POPC   C3A 9329   0.467  27.826   8.030
  517POPC   C4A 9330   0.256  27.516   7.808
  517POPC   C1B 9331   0.591  27.342   8.666
  517POPC   C2B 9332   0.733  27.137   8.324
  517POPC   C3B 9333   0.569  27.107   7.930
  517POPC   C4B 9334   0.722  27.415   7.643
  518POPC   NC3 9335  17.561  20.332   9.597
  518POPC   PO4 9336  16.981  20.719   9.512
  518POPC   GL1 9337  17.339  20.719   9.269
  518POPC   GL2 9338  17.324  20.378   9.151
  518POPC   C1A 9339  17.454  20.768   8.834
  518POPC   D2A 9340  17.324  20.763   8.406
  518POPC   C3A 9341  17.531  21.006   8.107
  518POPC   C4A 9342  17.607  20.751   7.754
  518POPC   C1B 9343  17.684  20.291   8.864
  518POPC   C2B 9344  17.810  20.173   8.438
  518POPC   C3B 9345  17.678  20.293   8.011
  518POPC   C4B 9346  17.773  20.295   7.553
  519POPC   NC3 9347  22.731  19.779   9.690
  519POPC   PO4 9348  22.892  20.332   9.567
  519POPC   GL1 9349  22.686  20.066   9.237
  519POPC   GL2 9350  22.671  19.719   9.145
  519POPC   C1A 9351  22.814  20.064   8.774
  519POPC   D2A 9352  22.804  20.236   8.351
  519POPC   C3A 9353  22.834  20.037   7.949
  519POPC   C4A 9354  23.197  19.878   7.706
  519POPC   C1B 9355  22.517  19.650   8.693
  519POPC   C2B 9356  22.528  19.692   8.213
  519POPC   C3B 9357  22.687  19.561   7.795
  519POPC   C4B 9358  23.005  19.461   7.480
  520POPC   NC3 9359   0.042  43.334   9.565
  520POPC   PO4 9360  44.388  43.150   9.456
  520POPC   GL1 9361  44.727  43.084   9.213
  520POPC   GL2 9362  44.693  43.386   9.078
  520POPC   C1A 9363  44.848  43.006   8.782
  520POPC   D2A 9364  44.621  42.880   8.454
  520POPC   C3A 9365  44.646  43.140   8.146
  520POPC   C4A 9366  44.540  43.042   7.763
  520POPC   C1B 9367  44.332  43.159   8.793
  520POPC   C2B 9368  44.161  43.236   8.345
  520POPC   C3B 9369  44.282  43.483   7.972
  520POPC   C4B 9370  44.708  43.534   7.824
  521POPC   NC3 9371  26.977   8.754   9.440
  521POPC   PO4 9372  26.979   8.074   9.407
  521POPC   GL1 9373  27.113   8.315   9.041
  521POPC   GL2 9374  26.844   8.564   8.978
  521POPC   C1A 9375  27.023   8.200   8.613
  521POPC   D2A 9376  26.664   8.076   8.360
  521POPC   C3A 9377  26.837   7.991   7.984
  521POPC   C4A 9378  26.936   8.145   7.565
  521POPC   C1B 9379  26.645   8.550   8.566
  521POPC   C2B 9380  26.917   8.488   8.193
  521POPC   C3B 9381  26.794   8.555   7.804
  521POPC   C4B 9382  26.468   8.782   7.669
  522POPC   NC3 9383  39.871  30.609   9.597
  522POPC   PO4 9384  40.533  30.469   9.671
  522POPC   GL1 9385  40.277  30.560   9.269
  522POPC   GL2 9386  39.975  30.766   9.137
  522POPC   C1A 9387  40.268  30.517   8.808
  522POPC   D2A 9388  40.295  30.714   8.394
  522POPC   C3A 9389  40.215  30.481   8.021
  522POPC   C4A 9390  39.839  30.422   7.773
  522POPC   C1B 9391  40.037  31.000   8.772
  522POPC   C2B 9392  39.782  30.902   8.409
  522POPC   C3B 9393  39.807  30.890   7.978
  522POPC   C4B 9394  40.122  30.967   7.696
  523POPC   NC3 9395  36.583   9.860   9.303
  523POPC   PO4 9396  36.978   9.366   9.657
  523POPC   GL1 9397  37.003   9.546   9.192
  523POPC   GL2 9398  36.709   9.522   8.948
  523POPC   C1A 9399  37.100   9.728   8.764
  523POPC   D2A 9400  36.923   9.981   8.486
  523POPC   C3A 9401  36.845   9.799   8.107
  523POPC   C4A 9402  36.902   9.884   7.689
  523POPC   C1B 9403  36.578   9.518   8.551
  523POPC   C2B 9404  36.568   9.362   8.145
  523POPC   C3B 9405  36.520   9.561   7.754
  523POPC   C4B 9406  36.733   9.469   7.317
  524POPC   NC3 9407   8.610  22.095   9.459
  524POPC   PO4 9408   8.016  22.185   9.614
  524POPC   GL1 9409   8.220  22.290   9.196
  524POPC   GL2 9410   8.300  21.948   9.083
  524POPC   C1A 9411   8.439  22.365   8.788
  524POPC   D2A 9412   8.375  22.118   8.403
  524POPC   C3A 9413   8.452  22.338   7.999
  524POPC   C4A 9414   8.347  22.115   7.601
  524POPC   C1B 9415   7.992  22.059   8.792
  524POPC   C2B 9416   7.852  22.000   8.396
  524POPC   C3B 9417   8.005  22.112   8.028
  524POPC   C4B 9418   7.841  22.102   7.646
  525POPC   NC3 9419  39.137  37.769   9.611
  525POPC   PO4 9420  39.649  37.430   9.532
  525POPC   GL1 9421  39.361  37.508   9.214
  525POPC   GL2 9422  39.356  37.845   9.131
  525POPC   C1A 9423  39.075  37.528   8.851
  525POPC   D2A 9424  39.214  37.652   8.444
  525POPC   C3A 9425  39.036  37.445   8.131
  525POPC   C4A 9426  39.026  37.432   7.699
  525POPC   C1B 9427  39.036  38.021   8.793
  525POPC   C2B 9428  38.926  38.069   8.334
  525POPC   C3B 9429  39.032  37.916   7.898
  525POPC   C4B 9430  38.765  37.861   7.529
  526POPC   NC3 9431  18.876  39.761   9.530
  526POPC   PO4 9432  19.473  40.118   9.441
  526POPC   GL1 9433  19.191  39.996   9.116
  526POPC   GL2 9434  18.862  40.183   9.198
  526POPC   C1A 9435  19.316  39.894   8.660
  526POPC   D2A 9436  19.487  40.111   8.255
  526POPC   C3A 9437  19.136  40.189   7.978
  526POPC   C4A 9438  18.928  39.814   7.810
  526POPC   C1B 9439  18.811  40.017   8.785
  526POPC   C2B 9440  18.723  40.074   8.342
  526POPC   C3B 9441  18.556  40.275   7.978
  526POPC   C4B 9442  18.693  40.229   7.582
  527POPC   NC3 9443  15.388  39.554   9.458
  527POPC   PO4 9444  14.992  39.044   9.576
  527POPC   GL1 9445  15.141  39.112   9.194
  527POPC   GL2 9446  15.493  39.189   9.114
  527POPC   C1A 9447  14.972  39.135   8.816
  527POPC   D2A 9448  15.202  39.248   8.480
  527POPC   C3A 9449  15.019  39.131   8.092
  527POPC   C4A 9450  15.027  39.294   7.706
  527POPC   C1B 9451  15.718  39.087   8.730
  527POPC   C2B 9452  15.586  38.946   8.361
  527POPC   C3B 9453  15.513  39.200   8.004
  527POPC   C4B 9454  15.797  39.257   7.667
  528POPC   NC3 9455   6.981  34.401   9.584
  528POPC   PO4 9456   6.372  34.607   9.472
  528POPC   GL1 9457   6.645  34.678   9.129
  528POPC   GL2 9458   6.835  34.378   9.086
  528POPC   C1A 9459   6.733  34.697   8.682
  528POPC   D2A 9460   6.464  34.586   8.341
  528POPC   C3A 9461   6.494  34.745   7.953
  528POPC   C4A 9462   6.865  34.986   7.791
  528POPC   C1B 9463   6.526  34.239   8.766
  528POPC   C2B 9464   6.613  34.104   8.338
  528POPC   C3B 9465   6.688  34.250   7.917
  528POPC   C4B 9466   7.030  34.512   7.744
  529POPC   NC3 9467  35.479  43.340   9.333
  529POPC   PO4 9468  35.406  44.054   9.374
  529POPC   GL1 9469  35.505  43.789   9.047
  529POPC   GL2 9470  35.225  43.554   8.938
  529POPC   C1A 9471  35.495  43.936   8.629
  529POPC   D2A 9472  35.264  43.954   8.284
  529POPC   C3A 9473  35.388  44.094   7.896
  529POPC   C4A 9474  35.046  43.910   7.685
  529POPC   C1B 9475  35.566  43.399   8.666
  529POPC   C2B 9476  35.624  43.558   8.292
  529POPC   C3B 9477  35.394  43.570   7.944
  529POPC   C4B 9478  35.483  43.660   7.592
  530POPC   NC3 9479  14.514  25.838   9.479
  530POPC   PO4 9480  13.999  26.366   9.416
  530POPC   GL1 9481  14.306  26.251   9.098
  530POPC   GL2 9482  14.401  25.909   8.983
  530POPC   C1A 9483  14.367  26.330   8.672
  530POPC   D2A 9484  14.480  25.988   8.403
  530POPC   C3A 9485  14.677  26.128   8.035
  530POPC   C4A 9486  14.630  26.484   7.791
  530POPC   C1B 9487  14.081  25.755   8.677
  530POPC   C2B 9488  14.059  25.756   8.200
  530POPC   C3B 9489  14.306  25.854   7.824
  530POPC   C4B 9490  14.236  25.852   7.347
  531POPC   NC3 9491  40.328  34.769   9.367
  531POPC   PO4 9492  39.837  34.407   9.561
  531POPC   GL1 9493  40.062  34.318   9.146
  531POPC   GL2 9494  40.440  34.358   9.076
  531POPC   C1A 9495  40.097  34.349   8.693
  531POPC   D2A 9496  40.093  34.603   8.330
  531POPC   C3A 9497  40.052  34.337   7.997
  531POPC   C4A 9498  39.773  34.167   7.683
  531POPC   C1B 9499  40.479  34.671   8.724
  531POPC   C2B 9500  40.470  34.967   8.390
  531POPC   C3B 9501  40.318  34.894   7.940
  531POPC   C4B 9502  40.188  34.586   7.584
  532POPC   NC3 9503   4.689  11.505   9.770
  532POPC   PO4 9504   4.048  11.338   9.609
  532POPC   GL1 9505   4.164  11.281   9.178
  532POPC   GL2 9506   4.479  11.158   9.170
  532POPC   C1A 9507   4.233  11.453   8.791
  532POPC   D2A 9508   4.324  11.551   8.420
  532POPC   C3A 9509   4.024  11.441   8.093
  532POPC   C4A 9510   4.087  11.579   7.684
  532POPC   C1B 9511   4.676  11.180   8.755
  532POPC   C2B 9512   4.816  11.356   8.357
  532POPC   C3B 9513   4.544  11.280   8.060
  532POPC   C4B 9514   4.488  11.198   7.671
  533POPC   NC3 9515   2.412  42.931   9.237
  533POPC   PO4 9516   2.945  43.261   9.522
  533POPC   GL1 9517   3.080  43.367   9.114
  533POPC   GL2 9518   2.720  43.396   9.025
  533POPC   C1A 9519   3.067  43.440   8.653
  533POPC   D2A 9520   2.867  43.353   8.251
  533POPC   C3A 9521   2.746  43.381   7.840
  533POPC   C4A 9522   3.061  43.273   7.559
  533POPC   C1B 9523   2.647  43.128   8.644
  533POPC   C2B 9524   2.679  42.883   8.232
  533POPC   C3B 9525   2.862  42.874   7.792
  533POPC   C4B 9526   2.656  43.043   7.384
  534POPC   NC3 9527  36.132  20.410   9.651
  534POPC   PO4 9528  36.225  21.097   9.619
  534POPC   GL1 9529  36.281  20.739   9.277
  534POPC   GL2 9530  35.938  20.558   9.204
  534POPC   C1A 9531  36.333  20.398   8.928
  534POPC   D2A 9532  36.247  20.372   8.487
  534POPC   C3A 9533  36.487  20.341   8.119
  534POPC   C4A 9534  36.380  20.326   7.706
  534POPC   C1B 9535  35.965  20.943   8.945
  534POPC   C2B 9536  36.014  20.980   8.532
  534POPC   C3B 9537  35.973  20.695   8.203
  534POPC   C4B 9538  36.163  20.762   7.830
  535POPC   NC3 9539  28.574   6.246   9.412
  535POPC   PO4 9540  28.600   6.898   9.567
  535POPC   GL1 9541  28.448   6.853   9.133
  535POPC   GL2 9542  28.234   6.543   9.156
  535POPC   C1A 9543  28.421   6.674   8.693
  535POPC   D2A 9544  28.652   6.513   8.344
  535POPC   C3A 9545  28.457   6.605   7.959
  535POPC   C4A 9546  28.368   6.978   7.750
  535POPC   C1B 9547  27.982   6.414   8.780
  535POPC   C2B 9548  28.100   6.427   8.339
  535POPC   C3B 9549  28.036   6.282   7.934
  535POPC   C4B 9550  28.323   6.266   7.604
  536POPC   NC3 9551  35.448  14.740   9.672
  536POPC   PO4 9552  35.306  14.115   9.666
  536POPC   GL1 9553  35.315  14.258   9.234
  536POPC   GL2 9554  35.348  14.596   9.167
  536POPC   C1A 9555  35.590  14.230   8.843
  536POPC   D2A 9556  35.396  13.991   8.515
  536POPC   C3A 9557  35.517  14.137   8.106
  536POPC   C4A 9558  35.732  14.086   7.726
  536POPC   C1B 9559  35.121  14.377   8.770
  536POPC   C2B 9560  34.978  14.241   8.354
  536POPC   C3B 9561  35.055  14.351   7.932
  536POPC   C4B 9562  35.325  14.350   7.610
  537POPC   NC3 9563  43.349  12.581   9.487
  537POPC   PO4 9564  42.761  12.979   9.402
  537POPC   GL1 9565  43.100  12.813   9.098
  537POPC   GL2 9566  43.232  12.467   9.029
  537POPC   C1A 9567  43.245  12.856   8.678
  537POPC   D2A 9568  43.131  13.124   8.333
  537POPC   C3A 9569  43.191  12.915   7.969
  537POPC   C4A 9570  42.956  12.884   7.569
  537POPC   C1B 9571  42.969  12.393   8.733
  537POPC   C2B 9572  42.947  12.598   8.345
  537POPC   C3B 9573  42.848  12.507   7.934
  537POPC   C4B 9574  43.226  12.487   7.696
  538POPC   NC3 9575   3.494  21.004   9.773
  538POPC   PO4 9576   3.787  21.535   9.421
  538POPC   GL1 9577   3.790  21.538   8.994
  538POPC   GL2 9578   3.442  21.423   8.938
  538POPC   C1A 9579   3.733  21.633   8.554
  538POPC   D2A 9580   3.317  21.780   8.416
  538POPC   C3A 9581   3.351  21.639   8.017
  538POPC   C4A 9582   3.700  21.534   7.798
  538POPC   C1B 9583   3.240  21.036   8.723
  538POPC   C2B 9584   3.322  20.925   8.325
  538POPC   C3B 9585   3.350  21.135   7.935
  538POPC   C4B 9586   3.296  21.318   7.551
  539POPC   NC3 9587  32.399  43.197   9.852
  539POPC   PO4 9588  32.391  43.047   9.244
  539POPC   GL1 9589  32.293  43.246   8.946
  539POPC   GL2 9590  32.045  43.473   8.852
  539POPC   C1A 9591  32.456  43.192   8.569
  539POPC   D2A 9592  32.397  42.912   8.266
  539POPC   C3A 9593  32.514  43.028   7.882
  539POPC   C4A 9594  32.254  43.028   7.554
  539POPC   C1B 9595  31.954  43.054   8.629
  539POPC   C2B 9596  31.948  42.685   8.367
  539POPC   C3B 9597  31.774  42.679   7.968
  539POPC   C4B 9598  31.926  42.616   7.560
  540POPC   NC3 9599  30.544  29.098   9.336
  540POPC   PO4 9600  31.207  29.151   9.322
  540POPC   GL1 9601  30.958  29.069   9.028
  540POPC   GL2 9602  30.909  28.736   9.157
  540POPC   C1A 9603  30.788  29.148   8.643
  540POPC   D2A 9604  30.591  29.023   8.292
  540POPC   C3A 9605  30.702  29.206   7.917
  540POPC   C4A 9606  30.355  29.368   7.744
  540POPC   C1B 9607  30.749  28.644   8.764
  540POPC   C2B 9608  30.915  28.638   8.377
  540POPC   C3B 9609  30.768  28.666   7.953
  540POPC   C4B 9610  31.015  28.891   7.638
  541POPC   NC3 9611  17.832   4.659   9.491
  541POPC   PO4 9612  17.507   5.197   9.667
  541POPC   GL1 9613  17.689   5.132   9.225
  541POPC   GL2 9614  17.383   5.201   9.034
  541POPC   C1A 9615  17.823   4.838   8.832
  541POPC   D2A 9616  18.045   4.835   8.445
  541POPC   C3A 9617  17.754   5.048   8.181
  541POPC   C4A 9618  17.455   4.946   7.858
  541POPC   C1B 9619  17.232   4.921   8.683
  541POPC   C2B 9620  17.124   5.053   8.267
  541POPC   C3B 9621  17.384   5.403   8.135
  541POPC   C4B 9622  17.554   5.436   7.726
  542POPC   NC3 9623  36.247   8.137   9.486
  542POPC   PO4 9624  35.867   8.657   9.408
  542POPC   GL1 9625  36.179   8.498   9.140
  542POPC   GL2 9626  36.060   8.182   9.026
  542POPC   C1A 9627  36.374   8.473   8.759
  542POPC   D2A 9628  36.392   8.312   8.368
  542POPC   C3A 9629  36.231   8.130   8.044
  542POPC   C4A 9630  36.372   8.138   7.652
  542POPC   C1B 9631  36.093   8.019   8.638
  542POPC   C2B 9632  35.815   8.064   8.360
  542POPC   C3B 9633  35.739   8.246   8.001
  542POPC   C4B 9634  35.886   8.386   7.635
  543POPC   NC3 9635  15.181  33.397   9.386
  543POPC   PO4 9636  15.167  32.742   9.449
  543POPC   GL1 9637  15.328  32.760   9.072
  543POPC   GL2 9638  15.462  33.073   9.106
  543POPC   C1A 9639  15.110  32.748   8.680
  543POPC   D2A 9640  14.966  32.999   8.380
  543POPC   C3A 9641  15.229  32.851   8.071
  543POPC   C4A 9642  15.167  33.038   7.705
  543POPC   C1B 9643  15.352  33.200   8.689
  543POPC   C2B 9644  15.339  33.330   8.250
  543POPC   C3B 9645  15.601  33.238   7.907
  543POPC   C4B 9646  15.651  33.241   7.439
  544POPC   NC3 9647  32.670  17.782   9.454
  544POPC   PO4 9648  31.945  17.839   9.442
  544POPC   GL1 9649  32.132  17.461   9.213
  544POPC   GL2 9650  32.431  17.551   9.084
  544POPC   C1A 9651  32.103  17.264   8.797
  544POPC   D2A 9652  31.927  17.339   8.364
  544POPC   C3A 9653  32.161  17.504   8.015
  544POPC   C4A 9654  32.029  17.506   7.584
  544POPC   C1B 9655  32.619  17.354   8.789
  544POPC   C2B 9656  32.670  17.276   8.391
  544POPC   C3B 9657  32.698  17.466   8.010
  544POPC   C4B 9658  32.549  17.430   7.615
  545POPC   NC3 9659  26.745  28.589   9.329
  545POPC   PO4 9660  27.010  29.283   9.443
  545POPC   GL1 9661  26.811  29.242   9.051
  545POPC   GL2 9662  26.825  28.917   8.957
  545POPC   C1A 9663  27.000  29.309   8.633
  545POPC   D2A 9664  27.016  29.464   8.209
  545POPC   C3A 9665  26.676  29.280   8.032
  545POPC   C4A 9666  26.538  28.939   7.853
  545POPC   C1B 9667  27.031  28.786   8.596
  545POPC   C2B 9668  26.993  28.946   8.202
  545POPC   C3B 9669  27.034  28.839   7.745
  545POPC   C4B 9670  27.168  28.991   7.325
  546POPC   NC3 9671   8.377  29.577   9.334
  546POPC   PO4 9672   7.874  29.124   9.562
  546POPC   GL1 9673   7.916  29.386   9.225
  546POPC   GL2 9674   8.181  29.191   9.073
  546POPC   C1A 9675   7.874  29.513   8.796
  546POPC   D2A 9676   8.087  29.482   8.418
  546POPC   C3A 9677   7.930  29.480   8.020
  546POPC   C4A 9678   8.213  29.296   7.732
  546POPC   C1B 9679   8.092  28.980   8.690
  546POPC   C2B 9680   7.963  28.984   8.266
  546POPC   C3B 9681   8.244  28.803   7.954
  546POPC   C4B 9682   8.582  28.682   7.660
  547POPC   NC3 9683  15.624  15.871   9.445
  547POPC   PO4 9684  15.067  16.244   9.452
  547POPC   GL1 9685  15.133  15.960   9.037
  547POPC   GL2 9686  15.491  15.883   8.961
  547POPC   C1A 9687  15.075  15.859   8.583
  547POPC   D2A 9688  14.843  16.138   8.277
  547POPC   C3A 9689  14.956  16.098   7.851
  547POPC   C4A 9690  15.052  15.789   7.569
  547POPC   C1B 9691  15.463  16.156   8.627
  547POPC   C2B 9692  15.354  16.157   8.213
  547POPC   C3B 9693  15.506  16.140   7.813
  547POPC   C4B 9694  15.508  15.945   7.444
  548POPC   NC3 9695  36.364  16.738   9.558
  548POPC   PO4 9696  35.686  16.991   9.444
  548POPC   GL1 9697  36.039  16.941   9.180
  548POPC   GL2 9698  36.085  16.597   9.114
  548POPC   C1A 9699  36.236  16.955   8.758
  548POPC   D2A 9700  36.138  16.675   8.409
  548POPC   C3A 9701  36.052  16.891   8.046
  548POPC   C4A 9702  36.144  16.908   7.637
  548POPC   C1B 9703  36.007  16.338   8.774
  548POPC   C2B 9704  35.703  16.368   8.461
  548POPC   C3B 9705  35.670  16.523   8.053
  548POPC   C4B 9706  35.954  16.460   7.740
  549POPC   NC3 9707  14.079  41.430   9.525
  549POPC   PO4 9708  14.690  41.760   9.573
  549POPC   GL1 9709  14.597  41.779   9.128
  549POPC   GL2 9710  14.256  41.643   9.057
  549POPC   C1A 9711  14.502  41.908   8.700
  549POPC   D2A 9712  14.267  41.693   8.378
  549POPC   C3A 9713  14.558  41.651   8.068
  549POPC   C4A 9714  14.524  41.556   7.663
  549POPC   C1B 9715  14.492  41.394   8.731
  549POPC   C2B 9716  14.338  41.059   8.527
  549POPC   C3B 9717  14.349  41.163   8.111
  549POPC   C4B 9718  14.278  41.070   7.732
  550POPC   NC3 9719  31.197  16.866   9.514
  550POPC   PO4 9720  30.737  16.523   9.763
  550POPC   GL1 9721  30.729  16.827   9.319
  550POPC   GL2 9722  30.937  17.172   9.225
  550POPC   C1A 9723  30.587  16.841   8.882
  550POPC   D2A 9724  30.609  16.580   8.497
  550POPC   C3A 9725  30.439  16.639   8.096
  550POPC   C4A 9726  30.586  16.439   7.724
  550POPC   C1B 9727  31.097  16.978   8.841
  550POPC   C2B 9728  30.916  17.012   8.441
  550POPC   C3B 9729  30.888  16.864   8.037
  550POPC   C4B 9730  30.778  17.019   7.656
  551POPC   NC3 9731  22.059   4.589   9.692
  551POPC   PO4 9732  22.300   5.281   9.673
  551POPC   GL1 9733  22.105   5.183   9.248
  551POPC   GL2 9734  22.052   4.826   9.204
  551POPC   C1A 9735  22.111   5.310   8.795
  551POPC   D2A 9736  22.313   5.415   8.406
  551POPC   C3A 9737  22.094   5.272   8.035
  551POPC   C4A 9738  22.288   5.304   7.640
  551POPC   C1B 9739  22.065   4.759   8.767
  551POPC   C2B 9740  21.938   4.909   8.382
  551POPC   C3B 9741  22.024   4.746   7.958
  551POPC   C4B 9742  21.928   4.949   7.558
  552POPC   NC3 9743  13.148  12.975   9.345
  552POPC   PO4 9744  13.863  12.763   9.465
  552POPC   GL1 9745  13.613  12.885   9.118
  552POPC   GL2 9746  13.786  13.095   8.973
  552POPC   C1A 9747  13.353  13.175   8.769
  552POPC   D2A 9748  13.187  13.275   8.367
  552POPC   C3A 9749  13.346  12.932   8.131
  552POPC   C4A 9750  13.536  12.929   7.741
  552POPC   C1B 9751  13.973  13.010   8.659
  552POPC   C2B 9752  13.817  12.869   8.330
  552POPC   C3B 9753  13.988  12.881   7.992
  552POPC   C4B 9754  13.960  12.689   7.634
  553POPC   NC3 9755   1.610  23.789   9.469
  553POPC   PO4 9756   0.998  24.064   9.610
  553POPC   GL1 9757   1.222  24.021   9.181
  553POPC   GL2 9758   1.236  23.679   9.110
  553POPC   C1A 9759   1.345  24.002   8.718
  553POPC   D2A 9760   1.306  23.718   8.346
  553POPC   C3A 9761   1.373  23.847   7.913
  553POPC   C4A 9762   1.326  23.773   7.475
  553POPC   C1B 9763   0.992  23.456   8.804
  553POPC   C2B 9764   0.938  23.354   8.371
  553POPC   C3B 9765   0.940  23.522   7.928
  553POPC   C4B 9766   0.929  23.421   7.479
  554POPC   NC3 9767  24.557   1.983   9.503
  554POPC   PO4 9768  24.155   1.610   9.268
  554POPC   GL1 9769  24.352   1.939   9.034
  554POPC   GL2 9770  24.714   1.973   9.038
  554POPC   C1A 9771  24.329   2.218   8.711
  554POPC   D2A 9772  24.380   2.083   8.306
  554POPC   C3A 9773  24.631   2.258   7.976
  554POPC   C4A 9774  24.670   2.105   7.525
  554POPC   C1B 9775  24.744   1.889   8.638
  554POPC   C2B 9776  24.993   1.779   8.309
  554POPC   C3B 9777  24.984   1.909   7.929
  554POPC   C4B 9778  24.988   1.735   7.585
  555POPC   NC3 9779  13.628  42.419   9.609
  555POPC   PO4 9780  13.798  41.970   9.218
  555POPC   GL1 9781  13.738  42.380   9.105
  555POPC   GL2 9782  13.383  42.487   9.101
  555POPC   C1A 9783  13.864  42.595   8.736
  555POPC   D2A 9784  14.032  42.728   8.341
  555POPC   C3A 9785  13.818  42.496   8.010
  555POPC   C4A 9786  13.752  42.122   7.790
  555POPC   C1B 9787  13.462  42.245   8.704
  555POPC   C2B 9788  13.510  42.172   8.280
  555POPC   C3B 9789  13.302  42.326   7.922
  555POPC   C4B 9790  13.325  42.186   7.490
  556POPC   NC3 9791  21.002  25.300   9.220
  556POPC   PO4 9792  20.361  25.163   9.445
  556POPC   GL1 9793  20.583  25.032   9.052
  556POPC   GL2 9794  20.621  25.350   8.865
  556POPC   C1A 9795  20.641  24.859   8.608
  556POPC   D2A 9796  20.500  25.098   8.218
  556POPC   C3A 9797  20.644  25.122   7.784
  556POPC   C4A 9798  20.891  25.470   7.577
  556POPC   C1B 9799  20.257  25.586   8.658
  556POPC   C2B 9800  20.179  25.694   8.272
  556POPC   C3B 9801  20.273  25.501   7.907
  556POPC   C4B 9802  20.258  25.906   7.749
  557POPC   NC3 9803  18.792  29.177   9.410
  557POPC   PO4 9804  18.120  29.246   9.510
  557POPC   GL1 9805  18.384  29.384   9.205
  557POPC   GL2 9806  18.396  29.019   9.084
  557POPC   C1A 9807  18.562  29.362   8.781
  557POPC   D2A 9808  18.412  29.039   8.469
  557POPC   C3A 9809  18.468  29.274   8.087
  557POPC   C4A 9810  18.451  28.940   7.810
  557POPC   C1B 9811  18.069  29.248   8.853
  557POPC   C2B 9812  18.056  29.385   8.463
  557POPC   C3B 9813  17.964  29.155   8.116
  557POPC   C4B 9814  18.075  29.278   7.708
  558POPC   NC3 9815  33.778  37.140   9.584
  558POPC   PO4 9816  34.212  36.606   9.434
  558POPC   GL1 9817  34.023  36.871   9.162
  558POPC   GL2 9818  33.731  36.665   9.214
  558POPC   C1A 9819  34.150  36.913   8.726
  558POPC   D2A 9820  33.861  37.032   8.400
  558POPC   C3A 9821  33.929  37.117   8.000
  558POPC   C4A 9822  33.872  36.895   7.630
  558POPC   C1B 9823  33.636  36.782   8.804
  558POPC   C2B 9824  33.462  36.659   8.431
  558POPC   C3B 9825  33.607  36.683   8.026
  558POPC   C4B 9826  33.406  36.657   7.627
  559POPC   NC3 9827  35.483  38.184   9.581
  559POPC   PO4 9828  34.954  38.478   9.263
  559POPC   GL1 9829  35.224  38.378   9.010
  559POPC   GL2 9830  35.474  38.537   9.048
  559POPC   C1A 9831  35.198  38.551   8.604
  559POPC   D2A 9832  35.176  38.291   8.262
  559POPC   C3A 9833  35.075  38.528   7.919
  559POPC   C4A 9834  35.306  38.342   7.620
  559POPC   C1B 9835  35.623  38.280   8.684
  559POPC   C2B 9836  35.706  38.466   8.265
  559POPC   C3B 9837  35.535  38.735   7.908
  559POPC   C4B 9838  35.333  38.863   7.533
  560POPC   NC3 9839  43.721  13.769   9.498
  560POPC   PO4 9840  43.542  13.083   9.398
  560POPC   GL1 9841  43.794  13.384   9.136
  560POPC   GL2 9842  44.085  13.663   9.154
  560POPC   C1A 9843  43.701  13.679   8.816
  560POPC   D2A 9844  43.705  13.916   8.435
  560POPC   C3A 9845  43.873  13.709   8.071
  560POPC   C4A 9846  43.677  13.799   7.671
  560POPC   C1B 9847  44.117  13.947   8.763
  560POPC   C2B 9848  44.321  13.911   8.344
  560POPC   C3B 9849  44.224  14.039   7.918
  560POPC   C4B 9850  44.180  13.727   7.617
  561POPC   NC3 9851  34.991  29.917   9.521
  561POPC   PO4 9852  34.338  30.235   9.419
  561POPC   GL1 9853  34.561  29.978   9.132
  561POPC   GL2 9854  34.764  29.689   9.138
  561POPC   C1A 9855  34.486  29.882   8.718
  561POPC   D2A 9856  34.318  29.770   8.337
  561POPC   C3A 9857  34.498  29.983   7.981
  561POPC   C4A 9858  34.385  30.103   7.535
  561POPC   C1B 9859  34.915  29.577   8.753
  561POPC   C2B 9860  34.865  29.752   8.370
  561POPC   C3B 9861  35.018  29.689   7.977
  561POPC   C4B 9862  34.840  29.890   7.626
  562POPC   NC3 9863   3.849   9.267   9.897
  562POPC   PO4 9864   3.406   9.791   9.561
  562POPC   GL1 9865   3.325   9.893   9.161
  562POPC   GL2 9866   3.621   9.732   9.056
  562POPC   C1A 9867   3.429  10.089   8.757
  562POPC   D2A 9868   3.472   9.833   8.405
  562POPC   C3A 9869   3.436  10.018   8.003
  562POPC   C4A 9870   3.566   9.826   7.639
  562POPC   C1B 9871   3.892   9.406   8.842
  562POPC   C2B 9872   4.058   9.458   8.443
  562POPC   C3B 9873   3.867   9.661   8.093
  562POPC   C4B 9874   3.827   9.398   7.739
  563POPC   NC3 9875  13.270   4.154   9.589
  563POPC   PO4 9876  13.644   4.761   9.546
  563POPC   GL1 9877  13.907   4.506   9.274
  563POPC   GL2 9878  13.649   4.263   9.199
  563POPC   C1A 9879  13.960   4.493   8.813
  563POPC   D2A 9880  13.816   4.252   8.449
  563POPC   C3A 9881  13.750   4.394   8.026
  563POPC   C4A 9882  13.734   4.037   7.783
  563POPC   C1B 9883  13.436   4.348   8.800
  563POPC   C2B 9884  13.381   4.537   8.394
  563POPC   C3B 9885  13.228   4.495   7.998
  563POPC   C4B 9886  13.336   4.375   7.622
  564POPC   NC3 9887  42.600  12.172   9.362
  564POPC   PO4 9888  42.340  11.511   9.452
  564POPC   GL1 9889  42.338  11.807   9.086
  564POPC   GL2 9890  42.687  11.636   9.066
  564POPC   C1A 9891  42.312  12.213   8.763
  564POPC   D2A 9892  42.513  12.297   8.335
  564POPC   C3A 9893  42.289  12.158   7.942
  564POPC   C4A 9894  42.063  11.831   7.650
  564POPC   C1B 9895  42.652  11.856   8.679
  564POPC   C2B 9896  42.291  11.821   8.415
  564POPC   C3B 9897  42.340  11.660   8.032
  564POPC   C4B 9898  42.546  11.550   7.681
  565POPC   NC3 9899   3.651  21.121   9.280
  565POPC   PO4 9900   3.663  20.534   9.568
  565POPC   GL1 9901   3.493  20.460   9.131
  565POPC   GL2 9902   3.604  20.755   8.925
  565POPC   C1A 9903   3.313  20.430   8.686
  565POPC   D2A 9904   3.607  20.488   8.354
  565POPC   C3A 9905   3.439  20.600   7.958
  565POPC   C4A 9906   3.199  20.455   7.637
  565POPC   C1B 9907   3.749  21.100   8.633
  565POPC   C2B 9908   4.000  21.188   8.266
  565POPC   C3B 9909   3.819  20.974   7.902
  565POPC   C4B 9910   3.552  20.880   7.539
  566POPC   NC3 9911  40.838  39.891   9.506
  566POPC   PO4 9912  40.615  40.470   9.461
  566POPC   GL1 9913  40.688  40.182   9.119
  566POPC   GL2 9914  40.479  39.867   9.142
  566POPC   C1A 9915  40.807  40.251   8.705
  566POPC   D2A 9916  40.955  40.142   8.339
  566POPC   C3A 9917  40.835  40.270   7.945
  566POPC   C4A 9918  40.914  40.144   7.533
  566POPC   C1B 9919  40.780  39.729   8.854
  566POPC   C2B 9920  40.837  39.677   8.446
  566POPC   C3B 9921  40.756  39.753   8.017
  566POPC   C4B 9922  40.504  39.885   7.709
  567POPC   NC3 9923   8.778  31.017   9.615
  567POPC   PO4 9924   9.201  30.555   9.629
  567POPC   GL1 9925   9.045  30.554   9.213
  567POPC   GL2 9926   9.288  30.360   9.065
  567POPC   C1A 9927   8.975  30.896   8.907
  567POPC   D2A 9928   9.126  30.997   8.471
  567POPC   C3A 9929   8.925  31.115   8.098
  567POPC   C4A 9930   8.916  30.809   7.795
  567POPC   C1B 9931   9.103  30.478   8.669
  567POPC   C2B 9932   9.012  30.378   8.246
  567POPC   C3B 9933   9.255  30.454   7.896
  567POPC   C4B 9934   9.524  30.500   7.544
  568POPC   NC3 9935  32.188  16.998   9.505
  568POPC   PO4 9936  32.611  16.451   9.511
  568POPC   GL1 9937  32.343  16.613   9.184
  568POPC   GL2 9938  32.492  16.941   9.095
  568POPC   C1A 9939  32.003  16.724   8.905
  568POPC   D2A 9940  31.931  16.857   8.496
  568POPC   C3A 9941  32.000  16.713   8.113
  568POPC   C4A 9942  32.315  16.534   7.873
  568POPC   C1B 9943  32.436  16.879   8.693
  568POPC   C2B 9944  32.484  16.729   8.333
  568POPC   C3B 9945  32.389  17.036   8.040
  568POPC   C4B 9946  32.117  17.023   7.700
  569POPC   NC3 9947  36.350  13.303   9.522
  569POPC   PO4 9948  35.843  12.850   9.519
  569POPC   GL1 9949  36.037  12.754   9.120
  569POPC   GL2 9950  36.371  12.966   9.136
  569POPC   C1A 9951  35.955  12.678   8.655
  569POPC   D2A 9952  35.963  12.919   8.250
  569POPC   C3A 9953  35.893  12.817   7.811
  569POPC   C4A 9954  35.769  12.573   7.435
  569POPC   C1B 9955  36.433  12.658   8.837
  569POPC   C2B 9956  36.436  12.758   8.414
  569POPC   C3B 9957  36.369  12.727   7.992
  569POPC   C4B 9958  36.536  13.086   7.780
  570POPC   NC3 9959  10.490   3.206   9.559
  570POPC   PO4 9960  10.898   2.571   9.529
  570POPC   GL1 9961  10.661   2.815   9.208
  570POPC   GL2 9962  10.861   3.125   9.179
  570POPC   C1A 9963  10.589   2.774   8.740
  570POPC   D2A 9964  10.301   2.778   8.396
  570POPC   C3A 9965  10.407   2.776   7.953
  570POPC   C4A 9966  10.557   2.428   7.701
  570POPC   C1B 9967  11.071   2.809   8.904
  570POPC   C2B 9968  11.116   2.744   8.463
  570POPC   C3B 9969  10.876   2.653   8.108
  570POPC   C4B 9970  10.893   2.778   7.684
  571POPC   NC3 9971   0.432   1.583   9.554
  571POPC   PO4 9972   0.864   1.097   9.474
  571POPC   GL1 9973   0.688   1.165   9.112
  571POPC   GL2 9974   0.362   1.192   9.205
  571POPC   C1A 9975   0.634   1.273   8.708
  571POPC   D2A 9976   0.816   1.216   8.333
  571POPC   C3A 9977   0.515   1.125   8.029
  571POPC   C4A 9978   0.636   1.332   7.670
  571POPC   C1B 9979   0.139   1.367   8.827
  571POPC   C2B 9980   0.130   1.226   8.405
  571POPC   C3B 9981   0.000   1.360   7.995
  571POPC   C4B 9982   0.155   1.175   7.628
  572POPC   NC3 9983   4.482  40.824   9.669
  572POPC   PO4 9984   3.854  40.496   9.341
  572POPC   GL1 9985   4.176  40.794   9.007
  572POPC   GL2 9986   4.494  40.898   9.151
  572POPC   C1A 9987   4.149  40.870   8.588
  572POPC   D2A 9988   4.147  40.604   8.268
  572POPC   C3A 9989   4.149  40.854   7.934
  572POPC   C4A 9990   4.148  40.562   7.655
  572POPC   C1B 9991   4.618  40.763   8.721
  572POPC   C2B 9992   4.604  40.868   8.278
  572POPC   C3B 9993   4.647  40.759   7.865
  572POPC   C4B 9994   4.494  40.925   7.471
  573POPC   NC3 9995  27.354  15.731   9.484
  573POPC   PO4 9996  27.654  16.414   9.406
  573POPC   GL1 9997  27.486  16.162   9.084
  573POPC   GL2 9998  27.540  15.793   9.021
  573POPC   C1A 9999  27.648  16.121   8.654
  573POPC   D2A10000  27.605  15.809   8.329
  573POPC   C3A10001  27.800  15.989   7.957
  573POPC   C4A10002  27.668  15.882   7.545
  573POPC   C1B10003  27.193  15.925   8.715
  573POPC   C2B10004  27.160  16.127   8.310
  573POPC   C3B10005  27.338  16.196   7.899
  573POPC   C4B10006  27.601  16.382   7.545
  574POPC   NC310007  15.053   3.640   9.633
  574POPC   PO410008  14.854   3.187   9.219
  574POPC   GL110009  15.025   3.541   9.119
  574POPC   GL210010  15.347   3.436   9.188
  574POPC   C1A10011  15.075   3.598   8.699
  574POPC   D2A10012  14.916   3.427   8.316
  574POPC   C3A10013  14.930   3.736   8.001
  574POPC   C4A10014  15.321   3.697   7.833
  574POPC   C1B10015  15.421   3.194   8.803
  574POPC   C2B10016  15.341   3.030   8.399
  574POPC   C3B10017  15.444   3.167   7.971
  574POPC   C4B10018  15.475   3.331   7.520
  575POPC   NC310019  32.293  39.197   9.601
  575POPC   PO410020  31.689  39.061   9.472
  575POPC   GL110021  32.016  39.133   9.140
  575POPC   GL210022  32.357  39.271   9.123
  575POPC   C1A10023  32.246  39.017   8.730
  575POPC   D2A10024  32.533  39.096   8.382
  575POPC   C3A10025  32.410  38.983   7.963
  575POPC   C4A10026  32.002  39.107   7.789
  575POPC   C1B10027  32.201  39.536   8.764
  575POPC   C2B10028  32.146  39.707   8.370
  575POPC   C3B10029  32.295  39.480   8.013
  575POPC   C4B10030  32.249  39.535   7.572
  576POPC   NC310031  20.891   2.818   9.592
  576POPC   PO410032  21.309   2.297   9.776
  576POPC   GL110033  21.379   2.476   9.290
  576POPC   GL210034  21.354   2.855   9.288
  576POPC   C1A10035  21.224   2.628   8.862
  576POPC   D2A10036  21.255   2.983   8.533
  576POPC   C3A10037  21.374   2.809   8.144
  576POPC   C4A10038  21.225   2.459   7.880
  576POPC   C1B10039  21.550   3.114   8.934
  576POPC   C2B10040  21.692   3.233   8.487
  576POPC   C3B10041  21.698   3.179   8.017
  576POPC   C4B10042  21.351   3.085   7.685
  577POPC   NC310043  11.335  21.933   9.773
  577POPC   PO410044  11.340  21.328   9.570
  577POPC   GL110045  11.277  21.530   9.195
  577POPC   GL210046  10.980  21.389   9.185
  577POPC   C1A10047  11.442  21.344   8.804
  577POPC   D2A10048  11.579  21.411   8.391
  577POPC   C3A10049  11.378  21.364   8.003
  577POPC   C4A10050  11.407  21.546   7.594
  577POPC   C1B10051  10.996  21.569   8.760
  577POPC   C2B10052  11.061  21.692   8.366
  577POPC   C3B10053  10.785  21.788   8.051
  577POPC   C4B10054  10.879  21.573   7.683
  578POPC   NC310055  14.423  33.406   9.508
  578POPC   PO410056  14.276  32.803   9.402
  578POPC   GL110057  14.534  33.064   9.150
  578POPC   GL210058  14.827  32.893   9.082
  578POPC   C1A10059  14.490  33.320   8.792
  578POPC   D2A10060  14.446  33.054   8.452
  578POPC   C3A10061  14.394  33.172   8.060
  578POPC   C4A10062  14.032  33.058   7.841
  578POPC   C1B10063  14.589  32.658   8.752
  578POPC   C2B10064  14.681  32.592   8.293
  578POPC   C3B10065  14.739  32.796   7.884
  578POPC   C4B10066  14.803  32.755   7.407
  579POPC   NC310067  15.873  24.734   9.340
  579POPC   PO410068  16.265  24.166   9.453
  579POPC   GL110069  16.197  24.392   9.095
  579POPC   GL210070  15.839  24.258   9.112
  579POPC   C1A10071  16.128  24.276   8.657
  579POPC   D2A10072  15.883  24.401   8.298
  579POPC   C3A10073  16.056  24.708   8.055
  579POPC   C4A10074  16.210  24.625   7.610
  579POPC   C1B10075  15.682  24.528   8.759
  579POPC   C2B10076  15.636  24.840   8.437
  579POPC   C3B10077  15.536  24.871   8.025
  579POPC   C4B10078  15.718  24.672   7.684
  580POPC   NC310079  44.148  41.418   9.464
  580POPC   PO410080  43.468  41.419   9.536
  580POPC   GL110081  43.701  41.414   9.185
  580POPC   GL210082  43.772  41.769   9.163
  580POPC   C1A10083  43.861  41.363   8.781
  580POPC   D2A10084  43.804  41.528   8.370
  580POPC   C3A10085  44.016  41.412   8.003
  580POPC   C4A10086  43.735  41.379   7.644
  580POPC   C1B10087  43.745  41.980   8.752
  580POPC   C2B10088  43.917  42.031   8.327
  580POPC   C3B10089  43.755  41.834   7.937
  580POPC   C4B10090  44.073  41.767   7.624
  581POPC   NC310091  33.520  20.630   9.424
  581POPC   PO410092  33.975  20.174   9.347
  581POPC   GL110093  33.769  20.415   9.047
  581POPC   GL210094  33.483  20.218   8.990
  581POPC   C1A10095  33.769  20.820   8.809
  581POPC   D2A10096  33.970  20.852   8.438
  581POPC   C3A10097  33.836  20.725   8.065
  581POPC   C4A10098  33.840  20.871   7.683
  581POPC   C1B10099  33.476  20.456   8.619
  581POPC   C2B10100  33.376  20.420   8.220
  581POPC   C3B10101  33.318  20.127   7.936
  581POPC   C4B10102  33.423  20.239   7.567
  582POPC   NC310103   3.438  14.569   9.378
  582POPC   PO410104   4.024  14.134   9.413
  582POPC   GL110105   3.719  14.227   9.109
  582POPC   GL210106   3.727  14.582   8.965
  582POPC   C1A10107   3.466  14.141   8.751
  582POPC   D2A10108   3.423  14.313   8.346
  582POPC   C3A10109   3.596  14.089   7.996
  582POPC   C4A10110   3.368  14.080   7.620
  582POPC   C1B10111   3.355  14.681   8.711
  582POPC   C2B10112   3.313  14.853   8.277
  582POPC   C3B10113   3.514  14.615   7.937
  582POPC   C4B10114   3.835  14.781   7.722
  583POPC   NC310115  15.229  37.637   9.473
  583POPC   PO410116  14.771  37.393   9.102
  583POPC   GL110117  15.179  37.589   8.952
  583POPC   GL210118  15.464  37.801   9.035
  583POPC   C1A10119  15.142  37.804   8.584
  583POPC   D2A10120  14.747  37.765   8.345
  583POPC   C3A10121  14.980  37.654   8.031
  583POPC   C4A10122  15.132  37.874   7.717
  583POPC   C1B10123  15.769  37.965   8.741
  583POPC   C2B10124  15.850  37.782   8.332
  583POPC   C3B10125  15.528  37.930   8.056
  583POPC   C4B10126  15.482  38.313   7.841
  584POPC   NC310127   0.087  23.309   9.481
  584POPC   PO410128   0.264  22.669   9.562
  584POPC   GL110129   0.328  22.838   9.186
  584POPC   GL210130   0.626  22.781   9.167
  584POPC   C1A10131   0.163  23.046   8.830
  584POPC   D2A10132  44.971  23.012   8.423
  584POPC   C3A10133   0.196  23.052   8.014
  584POPC   C4A10134   0.301  23.359   7.695
  584POPC   C1B10135   0.684  23.033   8.830
  584POPC   C2B10136   0.523  23.044   8.463
  584POPC   C3B10137   0.716  22.959   8.121
  584POPC   C4B10138   0.689  23.053   7.739
  585POPC   NC310139  14.871  42.185   9.529
  585POPC   PO410140  15.266  42.637   9.418
  585POPC   GL110141  15.019  42.512   9.107
  585POPC   GL210142  15.235  42.227   9.110
  585POPC   C1A10143  14.912  42.325   8.693
  585POPC   D2A10144  14.804  42.090   8.308
  585POPC   C3A10145  14.895  42.344   7.951
  585POPC   C4A10146  15.224  42.605   7.789
  585POPC   C1B10147  15.538  42.049   8.830
  585POPC   C2B10148  15.370  41.931   8.447
  585POPC   C3B10149  15.333  42.151   8.078
  585POPC   C4B10150  15.392  42.109   7.676
  586POPC   NC310151  16.963  19.530   9.570
  586POPC   PO410152  16.451  19.945   9.411
  586POPC   GL110153  16.722  19.797   9.129
  586POPC   GL210154  16.646  19.450   9.109
  586POPC   C1A10155  16.807  19.687   8.682
  586POPC   D2A10156  16.800  20.000   8.402
  586POPC   C3A10157  16.741  19.869   8.059
  586POPC   C4A10158  16.795  20.142   7.726
  586POPC   C1B10159  16.377  19.419   8.713
  586POPC   C2B10160  16.339  19.634   8.339
  586POPC   C3B10161  16.406  19.480   7.957
  586POPC   C4B10162  16.641  19.661   7.614
  587POPC   NC310163  18.293  17.115   9.433
  587POPC   PO410164  18.185  16.439   9.459
  587POPC   GL110165  18.390  16.627   9.097
  587POPC   GL210166  18.431  16.995   8.983
  587POPC   C1A10167  18.574  16.584   8.696
  587POPC   D2A10168  18.336  16.607   8.309
  587POPC   C3A10169  18.611  16.574   7.998
  587POPC   C4A10170  18.605  16.438   7.615
  587POPC   C1B10171  18.132  16.898   8.673
  587POPC   C2B10172  18.112  17.099   8.264
  587POPC   C3B10173  18.101  16.998   7.822
  587POPC   C4B10174  17.970  17.076   7.324
  588POPC   NC310175  12.617   1.859   9.419
  588POPC   PO410176  13.150   2.385   9.493
  588POPC   GL110177  13.058   2.178   9.126
  588POPC   GL210178  13.005   1.815   9.090
  588POPC   C1A10179  12.817   2.197   8.738
  588POPC   D2A10180  12.624   2.430   8.398
  588POPC   C3A10181  12.654   2.248   8.003
  588POPC   C4A10182  12.576   2.116   7.583
  588POPC   C1B10183  12.966   1.690   8.667
  588POPC   C2B10184  12.988   1.903   8.267
  588POPC   C3B10185  12.952   1.860   7.826
  588POPC   C4B10186  13.085   1.652   7.463
  589POPC   NC310187  42.958  14.071   9.934
  589POPC   PO410188  43.145  14.661   9.683
  589POPC   GL110189  43.251  14.530   9.235
  589POPC   GL210190  43.409  14.199   9.171
  589POPC   C1A10191  43.378  14.620   8.804
  589POPC   D2A10192  43.438  14.411   8.403
  589POPC   C3A10193  43.163  14.579   8.055
  589POPC   C4A10194  43.172  14.691   7.599
  589POPC   C1B10195  43.032  14.257   8.860
  589POPC   C2B10196  42.940  14.196   8.399
  589POPC   C3B10197  43.008  14.110   7.953
  589POPC   C4B10198  42.859  14.261   7.517
  590POPC   NC310199  43.609  14.639   9.575
  590POPC   PO410200  44.014  14.139   9.440
  590POPC   GL110201  43.885  14.466   9.152
  590POPC   GL210202  43.728  14.795   9.108
  590POPC   C1A10203  44.016  14.484   8.735
  590POPC   D2A10204  44.016  14.294   8.343
  590POPC   C3A10205  43.726  14.246   8.007
  590POPC   C4A10206  44.006  14.497   7.825
  590POPC   C1B10207  43.787  14.923   8.700
  590POPC   C2B10208  43.840  14.770   8.282
  590POPC   C3B10209  43.601  14.792   7.914
  590POPC   C4B10210  43.649  14.583   7.486
  591POPC   NC310211   4.656  36.100   9.742
  591POPC   PO410212   5.247  36.085   9.415
  591POPC   GL110213   5.068  36.353   9.090
  591POPC   GL210214   4.768  36.212   9.254
  591POPC   C1A10215   5.051  36.402   8.590
  591POPC   D2A10216   5.243  36.111   8.309
  591POPC   C3A10217   5.278  36.078   7.884
  591POPC   C4A10218   5.235  35.743   7.646
  591POPC   C1B10219   4.642  36.210   8.840
  591POPC   C2B10220   4.742  35.992   8.454
  591POPC   C3B10221   4.810  35.927   8.042
  591POPC   C4B10222   4.470  35.942   7.788
  592POPC   NC310223  44.055  39.693   9.393
  592POPC   PO410224  44.052  39.029   9.473
  592POPC   GL110225  43.940  39.268   9.105
  592POPC   GL210226  43.780  38.984   8.996
  592POPC   C1A10227  43.977  39.464   8.697
  592POPC   D2A10228  44.268  39.426   8.349
  592POPC   C3A10229  44.165  39.490   7.905
  592POPC   C4A10230  44.009  39.142   7.651
  592POPC   C1B10231  43.624  39.106   8.632
  592POPC   C2B10232  43.807  39.183   8.224
  592POPC   C3B10233  43.659  39.430   7.892
  592POPC   C4B10234  43.502  39.281   7.509
  593POPC   NC310235  43.498  40.970   9.414
  593POPC   PO410236  44.178  40.963   9.481
  593POPC   GL110237  44.024  40.728   9.144
  593POPC   GL210238  43.729  40.537   9.192
  593POPC   C1A10239  43.806  40.830   8.757
  593POPC   D2A10240  43.600  41.055   8.458
  593POPC   C3A10241  43.761  40.972   8.104
  593POPC   C4A10242  44.021  40.966   7.780
  593POPC   C1B10243  43.576  40.370   8.786
  593POPC   C2B10244  43.599  40.505   8.353
  593POPC   C3B10245  43.830  40.505   7.948
  593POPC   C4B10246  43.872  40.568   7.523
  594POPC   NC310247  32.708   8.146   9.567
  594POPC   PO410248  33.325   8.161   9.829
  594POPC   GL110249  33.169   8.279   9.350
  594POPC   GL210250  33.283   8.054   9.082
  594POPC   C1A10251  33.140   8.472   8.889
  594POPC   D2A10252  33.197   8.404   8.444
  594POPC   C3A10253  32.837   8.475   8.169
  594POPC   C4A10254  32.713   8.351   7.752
  594POPC   C1B10255  32.971   7.915   8.798
  594POPC   C2B10256  32.843   7.998   8.390
  594POPC   C3B10257  33.032   7.987   8.000
  594POPC   C4B10258  33.375   7.902   7.748
  595POPC   NC310259  26.112  20.926   9.444
  595POPC   PO410260  26.018  21.573   9.526
  595POPC   GL110261  26.017  21.415   9.105
  595POPC   GL210262  25.889  21.109   8.926
  595POPC   C1A10263  26.089  21.520   8.671
  595POPC   D2A10264  25.855  21.345   8.358
  595POPC   C3A10265  26.152  21.229   8.064
  595POPC   C4A10266  26.072  21.053   7.670
  595POPC   C1B10267  25.600  21.471   8.818
  595POPC   C2B10268  25.467  21.736   8.483
  595POPC   C3B10269  25.521  21.581   8.044
  595POPC   C4B10270  25.880  21.545   7.755
  596POPC   NC310271  29.508  39.735   9.762
  596POPC   PO410272  29.210  40.288   9.530
  596POPC   GL110273  29.156  39.971   9.174
  596POPC   GL210274  28.851  39.756   9.257
  596POPC   C1A10275  29.259  40.005   8.701
  596POPC   D2A10276  29.335  40.356   8.369
  596POPC   C3A10277  29.511  40.283   7.954
  596POPC   C4A10278  29.479  39.908   7.712
  596POPC   C1B10279  28.747  39.822   8.817
  596POPC   C2B10280  28.866  39.842   8.388
  596POPC   C3B10281  29.073  40.008   8.043
  596POPC   C4B10282  28.990  40.421   7.886
  597POPC   NC310283  20.665  31.809   9.237
  597POPC   PO410284  20.781  31.349   9.761
  597POPC   GL110285  20.599  31.284   9.250
  597POPC   GL210286  20.218  31.287   9.118
  597POPC   C1A10287  20.568  31.411   8.761
  597POPC   D2A10288  20.681  31.278   8.362
  597POPC   C3A10289  20.721  31.542   8.008
  597POPC   C4A10290  21.055  31.575   7.792
  597POPC   C1B10291  20.056  31.315   8.686
  597POPC   C2B10292  20.203  31.116   8.296
  597POPC   C3B10293  20.381  31.199   7.886
  597POPC   C4B10294  20.272  31.389   7.465
  598POPC   NC310295  32.669   1.519   9.479
  598POPC   PO410296  32.606   0.790   9.528
  598POPC   GL110297  32.357   1.039   9.210
  598POPC   GL210298  32.470   1.370   9.040
  598POPC   C1A10299  32.369   0.963   8.766
  598POPC   D2A10300  32.513   1.143   8.376
  598POPC   C3A10301  32.229   0.910   8.098
  598POPC   C4A10302  32.128   0.894   7.687
  598POPC   C1B10303  32.104   1.420   8.738
  598POPC   C2B10304  32.074   1.388   8.278
  598POPC   C3B10305  32.290   1.369   7.856
  598POPC   C4B10306  32.108   1.497   7.459
  599POPC   NC310307  15.468  16.552   9.552
  599POPC   PO410308  15.026  17.019   9.410
  599POPC   GL110309  15.161  16.637   9.118
  599POPC   GL210310  15.426  16.370   9.092
  599POPC   C1A10311  15.022  16.397   8.744
  599POPC   D2A10312  15.093  16.611   8.345
  599POPC   C3A10313  15.190  16.543   7.914
  599POPC   C4A10314  14.980  16.707   7.566
  599POPC   C1B10315  15.549  16.647   8.772
  599POPC   C2B10316  15.481  16.956   8.471
  599POPC   C3B10317  15.448  16.974   8.029
  599POPC   C4B10318  15.679  16.628   7.823
  600POPC   NC310319  17.195  28.685   9.443
  600POPC   PO410320  16.643  28.332   9.665
  600POPC   GL110321  16.560  28.153   9.237
  600POPC   GL210322  16.607  28.486   9.108
  600POPC   C1A10323  16.579  28.122   8.771
  600POPC   D2A10324  16.686  28.371   8.418
  600POPC   C3A10325  16.962  28.160   8.122
  600POPC   C4A10326  16.895  28.169   7.688
  600POPC   C1B10327  16.306  28.566   8.760
  600POPC   C2B10328  16.238  28.606   8.320
  600POPC   C3B10329  16.539  28.737   8.019
  600POPC   C4B10330  16.592  28.576   7.625
  601POPC   NC310331  36.576  17.702   9.405
  601POPC   PO410332  37.274  17.453   9.475
  601POPC   GL110333  37.013  17.507   9.125
  601POPC   GL210334  36.874  17.187   9.042
  601POPC   C1A10335  36.916  17.817   8.794
  601POPC   D2A10336  36.823  17.906   8.362
  601POPC   C3A10337  36.549  17.758   8.027
  601POPC   C4A10338  36.757  17.563   7.694
  601POPC   C1B10339  36.863  17.342   8.642
  601POPC   C2B10340  36.808  17.382   8.230
  601POPC   C3B10341  36.923  17.114   7.933
  601POPC   C4B10342  36.964  17.117   7.545
  602POPC   NC310343  18.651  13.578   9.519
  602POPC   PO410344  19.288  13.823   9.459
  602POPC   GL110345  18.991  13.698   9.164
  602POPC   GL210346  19.256  13.604   8.985
  602POPC   C1A10347  18.807  13.599   8.761
  602POPC   D2A10348  19.045  13.747   8.404
  602POPC   C3A10349  18.918  13.644   7.991
  602POPC   C4A10350  18.788  13.681   7.594
  602POPC   C1B10351  19.483  13.876   8.705
  602POPC   C2B10352  19.503  14.012   8.309
  602POPC   C3B10353  19.540  14.158   7.921
  602POPC   C4B10354  19.318  13.849   7.716
  603POPC   NC310355  27.476  32.141   9.576
  603POPC   PO410356  27.419  32.714   9.301
  603POPC   GL110357  27.588  32.410   9.016
  603POPC   GL210358  27.516  32.070   9.067
  603POPC   C1A10359  27.660  32.237   8.587
  603POPC   D2A10360  27.784  32.187   8.163
  603POPC   C3A10361  27.477  32.390   7.910
  603POPC   C4A10362  27.415  32.700   7.586
  603POPC   C1B10363  27.335  31.866   8.701
  603POPC   C2B10364  27.301  31.943   8.237
  603POPC   C3B10365  27.496  31.883   7.823
  603POPC   C4B10366  27.448  32.130   7.449
  604POPC   NC310367  21.045  21.113   9.372
  604POPC   PO410368  21.574  21.534   9.527
  604POPC   GL110369  21.485  21.614   9.124
  604POPC   GL210370  21.185  21.473   9.029
  604POPC   C1A10371  21.569  21.557   8.702
  604POPC   D2A10372  21.723  21.453   8.335
  604POPC   C3A10373  21.410  21.385   8.030
  604POPC   C4A10374  21.401  21.039   7.760
  604POPC   C1B10375  20.984  21.655   8.667
  604POPC   C2B10376  21.153  21.765   8.293
  604POPC   C3B10377  20.992  21.670   7.877
  604POPC   C4B10378  20.833  21.824   7.460
  605POPC   NC310379  22.971  24.131   9.524
  605POPC   PO410380  23.225  24.814   9.460
  605POPC   GL110381  22.888  24.665   9.213
  605POPC   GL210382  22.969  24.359   9.070
  605POPC   C1A10383  22.588  24.679   8.877
  605POPC   D2A10384  22.486  24.591   8.451
  605POPC   C3A10385  22.604  24.849   8.116
  605POPC   C4A10386  22.737  24.548   7.789
  605POPC   C1B10387  22.895  24.288   8.654
  605POPC   C2B10388  23.134  24.284   8.291
  605POPC   C3B10389  23.033  24.137   7.902
  605POPC   C4B10390  23.174  24.357   7.556
  606POPC   NC310391  38.843  22.731   9.299
  606POPC   PO410392  39.351  22.996   9.686
  606POPC   GL110393  39.321  23.029   9.230
  606POPC   GL210394  39.016  23.129   9.029
  606POPC   C1A10395  39.380  22.874   8.808
  606POPC   D2A10396  39.323  22.898   8.395
  606POPC   C3A10397  39.405  22.532   8.163
  606POPC   C4A10398  39.538  22.556   7.747
  606POPC   C1B10399  38.854  22.873   8.652
  606POPC   C2B10400  38.907  22.665   8.235
  606POPC   C3B10401  39.107  22.907   7.882
  606POPC   C4B10402  38.833  23.014   7.539
  607POPC   NC310403   4.851   0.743   9.230
  607POPC   PO410404   5.219   0.235   9.573
  607POPC   GL110405   5.042   0.270   9.128
  607POPC   GL210406   5.402   0.207   9.059
  607POPC   C1A10407   4.714   0.435   8.723
  607POPC   D2A10408   4.665   0.650   8.292
  607POPC   C3A10409   4.934   0.467   7.957
  607POPC   C4A10410   5.186   0.638   7.630
  607POPC   C1B10411   5.267   0.298   8.649
  607POPC   C2B10412   5.407   0.125   8.272
  607POPC   C3B10413   5.329   0.175   7.837
  607POPC   C4B10414   5.243   0.209   7.393
  608POPC   NC310415  44.792  25.570   9.476
  608POPC   PO410416  44.598  24.913   9.506
  608POPC   GL110417  44.512  25.143   9.063
  608POPC   GL210418  44.465  25.465   9.025
  608POPC   C1A10419  44.493  25.275   8.559
  608POPC   D2A10420  44.624  25.030   8.211
  608POPC   C3A10421  44.786  25.291   7.919
  608POPC   C4A10422  44.448  25.518   7.810
  608POPC   C1B10423  44.901  25.402   8.827
  608POPC   C2B10424   0.006  25.488   8.378
  608POPC   C3B10425  44.998  25.762   7.985
  608POPC   C4B10426  44.810  25.788   7.573
  609POPC   NC310427  24.377  11.842   9.439
  609POPC   PO410428  24.287  12.458   9.457
  609POPC   GL110429  24.457  12.237   9.089
  609POPC   GL210430  24.507  11.867   8.964
  609POPC   C1A10431  24.299  12.219   8.691
  609POPC   D2A10432  24.401  11.860   8.442
  609POPC   C3A10433  24.444  12.008   8.049
  609POPC   C4A10434  24.448  11.962   7.625
  609POPC   C1B10435  24.801  12.100   8.685
  609POPC   C2B10436  24.920  11.944   8.288
  609POPC   C3B10437  25.179  11.989   7.940
  609POPC   C4B10438  25.147  12.221   7.582
  610POPC   NC310439   1.774   9.925   9.371
  610POPC   PO410440   1.088   9.888   9.586
  610POPC   GL110441   1.064   9.708   9.163
  610POPC   GL210442   1.306   9.940   9.099
  610POPC   C1A10443   1.082   9.755   8.684
  610POPC   D2A10444   0.922  10.021   8.342
  610POPC   C3A10445   0.972   9.691   8.043
  610POPC   C4A10446   1.276   9.574   7.742
  610POPC   C1B10447   1.490  10.076   8.711
  610POPC   C2B10448   1.421   9.960   8.265
  610POPC   C3B10449   1.566  10.019   7.860
  610POPC   C4B10450   1.772   9.678   7.612
  611POPC   NC310451   5.768  28.011   9.506
  611POPC   PO410452   5.725  27.359   9.341
  611POPC   GL110453   5.921  27.690   9.131
  611POPC   GL210454   5.617  27.871   9.052
  611POPC   C1A10455   5.970  27.743   8.703
  611POPC   D2A10456   6.151  27.559   8.373
  611POPC   C3A10457   5.993  27.383   8.020
  611POPC   C4A10458   6.188  27.597   7.730
  611POPC   C1B10459   5.469  28.017   8.682
  611POPC   C2B10460   5.631  27.852   8.320
  611POPC   C3B10461   5.896  27.911   8.016
  611POPC   C4B10462   5.703  27.722   7.668
  612POPC   NC310463  37.657   3.026   9.412
  612POPC   PO410464  37.374   2.447   9.288
  612POPC   GL110465  37.520   2.754   8.999
  612POPC   GL210466  37.857   2.730   9.060
  612POPC   C1A10467  37.721   3.054   8.704
  612POPC   D2A10468  37.516   3.146   8.347
  612POPC   C3A10469  37.650   2.988   7.949
  612POPC   C4A10470  37.508   2.561   7.830
  612POPC   C1B10471  37.844   2.467   8.700
  612POPC   C2B10472  37.974   2.504   8.275
  612POPC   C3B10473  38.009   2.628   7.834
  612POPC   C4B10474  38.005   2.507   7.398
  613POPC   NC310475  16.754   2.538   9.474
  613POPC   PO410476  16.386   3.136   9.466
  613POPC   GL110477  16.505   2.805   9.110
  613POPC   GL210478  16.853   2.802   9.060
  613POPC   C1A10479  16.607   2.644   8.673
  613POPC   D2A10480  16.713   2.825   8.281
  613POPC   C3A10481  16.607   2.629   7.922
  613POPC   C4A10482  16.455   2.964   7.689
  613POPC   C1B10483  17.015   2.985   8.713
  613POPC   C2B10484  17.203   2.901   8.333
  613POPC   C3B10485  17.118   2.924   7.926
  613POPC   C4B10486  16.994   2.750   7.563
  614POPC   NC310487  39.327  39.703   9.298
  614POPC   PO410488  39.419  40.344   9.541
  614POPC   GL110489  39.204  40.192   9.174
  614POPC   GL210490  39.489  40.080   9.019
  614POPC   C1A10491  39.032  40.022   8.765
  614POPC   D2A10492  39.020  39.790   8.334
  614POPC   C3A10493  39.025  39.968   7.905
  614POPC   C4A10494  38.902  40.351   7.704
  614POPC   C1B10495  39.507  39.923   8.600
  614POPC   C2B10496  39.432  40.115   8.198
  614POPC   C3B10497  39.535  39.939   7.805
  614POPC   C4B10498  39.504  39.487   7.827
  615POPC   NC310499  42.029  28.322   9.471
  615POPC   PO410500  42.675  28.585   9.413
  615POPC   GL110501  42.391  28.619   9.074
  615POPC   GL210502  42.198  28.315   8.997
  615POPC   C1A10503  42.371  28.584   8.611
  615POPC   D2A10504  42.553  28.494   8.226
  615POPC   C3A10505  42.283  28.716   7.931
  615POPC   C4A10506  42.217  28.509   7.532
  615POPC   C1B10507  42.473  28.081   8.695
  615POPC   C2B10508  42.426  27.874   8.285
  615POPC   C3B10509  42.386  28.117   7.912
  615POPC   C4B10510  42.797  28.105   7.889
  616POPC   NC310511   9.514   3.481   9.264
  616POPC   PO410512   9.067   3.856   9.655
  616POPC   GL110513   9.044   3.715   9.198
  616POPC   GL210514   9.031   3.325   9.131
  616POPC   C1A10515   9.103   3.680   8.725
  616POPC   D2A10516   9.014   3.468   8.308
  616POPC   C3A10517   9.112   3.747   7.922
  616POPC   C4A10518   8.867   3.841   7.551
  616POPC   C1B10519   9.258   3.173   8.727
  616POPC   C2B10520   9.404   3.108   8.299
  616POPC   C3B10521   9.282   3.291   7.909
  616POPC   C4B10522   8.841   3.349   7.711
  617POPC   NC310523   7.778  17.213   9.372
  617POPC   PO410524   8.218  17.723   9.366
  617POPC   GL110525   8.393  17.443   9.057
  617POPC   GL210526   8.069  17.360   8.923
  617POPC   C1A10527   8.447  17.276   8.600
  617POPC   D2A10528   8.145  17.005   8.356
  617POPC   C3A10529   8.016  17.234   7.977
  617POPC   C4A10530   8.277  17.523   7.743
  617POPC   C1B10531   8.253  17.748   8.667
  617POPC   C2B10532   8.343  17.787   8.208
  617POPC   C3B10533   8.628  17.897   7.865
  617POPC   C4B10534   8.531  17.852   7.426
  618POPC   NC310535  11.568  13.747   9.599
  618POPC   PO410536  10.989  13.558   9.524
  618POPC   GL110537  11.335  13.419   9.272
  618POPC   GL210538  11.435  13.769   9.110
  618POPC   C1A10539  11.412  13.318   8.857
  618POPC   D2A10540  11.482  13.625   8.534
  618POPC   C3A10541  11.435  13.573   8.062
  618POPC   C4A10542  11.097  13.500   7.795
  618POPC   C1B10543  11.106  13.863   8.809
  618POPC   C2B10544  11.040  14.085   8.413
  618POPC   C3B10545  11.081  13.988   7.994
  618POPC   C4B10546  11.116  13.971   7.563
  619POPC   NC310547  32.550  30.163   9.394
  619POPC   PO410548  32.244  29.641   9.641
  619POPC   GL110549  32.252  29.657   9.199
  619POPC   GL210550  31.952  29.491   9.121
  619POPC   C1A10551  32.319  29.909   8.805
  619POPC   D2A10552  32.248  30.199   8.456
  619POPC   C3A10553  32.426  30.161   8.063
  619POPC   C4A10554  32.425  29.839   7.776
  619POPC   C1B10555  31.866  29.692   8.716
  619POPC   C2B10556  32.072  29.718   8.305
  619POPC   C3B10557  31.939  29.545   7.898
  619POPC   C4B10558  32.089  29.663   7.462
  620POPC   NC310559  35.597  44.401   9.130
  620POPC   PO410560  35.448  44.962   9.563
  620POPC   GL110561  35.216  44.772   9.222
  620POPC   GL210562  35.035  44.457   9.308
  620POPC   C1A10563  35.144  44.795   8.782
  620POPC   D2A10564  35.294  44.912   8.337
  620POPC   C3A10565  35.365  44.670   7.990
  620POPC   C4A10566  35.752  44.833   7.812
  620POPC   C1B10567  34.851  44.356   8.893
  620POPC   C2B10568  35.023  44.394   8.474
  620POPC   C3B10569  34.915  44.270   8.076
  620POPC   C4B10570  35.035  44.405   7.692
  621POPC   NC310571  42.321   1.597   9.434
  621POPC   PO410572  42.610   1.051   9.692
  621POPC   GL110573  42.569   1.156   9.260
  621POPC   GL210574  42.668   0.836   9.169
  621POPC   C1A10575  42.591   1.371   8.857
  621POPC   D2A10576  42.386   1.305   8.496
  621POPC   C3A10577  42.594   1.192   8.139
  621POPC   C4A10578  42.520   1.442   7.811
  621POPC   C1B10579  42.506   0.860   8.770
  621POPC   C2B10580  42.320   0.817   8.380
  621POPC   C3B10581  42.434   0.706   8.000
  621POPC   C4B10582  42.501   0.963   7.675
  622POPC   NC310583   8.569  31.990   9.516
  622POPC   PO410584   9.215  32.273   9.648
  622POPC   GL110585   9.174  32.349   9.209
  622POPC   GL210586   8.826  32.443   9.204
  622POPC   C1A10587   9.054  32.213   8.792
  622POPC   D2A10588   8.976  31.975   8.422
  622POPC   C3A10589   8.969  32.170   8.031
  622POPC   C4A10590   8.935  31.984   7.650
  622POPC   C1B10591   8.693  32.573   8.801
  622POPC   C2B10592   8.817  32.493   8.403
  622POPC   C3B10593   8.730  32.640   8.001
  622POPC   C4B10594   8.851  32.497   7.614
  623POPC   NC310595  20.525  17.104   9.492
  623POPC   PO410596  20.659  16.343   9.530
  623POPC   GL110597  20.784  16.450   9.145
  623POPC   GL210598  20.770  16.786   9.165
  623POPC   C1A10599  20.552  16.512   8.777
  623POPC   D2A10600  20.398  16.727   8.421
  623POPC   C3A10601  20.403  16.449   8.093
  623POPC   C4A10602  20.662  16.572   7.768
  623POPC   C1B10603  20.748  16.993   8.756
  623POPC   C2B10604  20.929  17.050   8.379
  623POPC   C3B10605  20.815  17.008   7.972
  623POPC   C4B10606  21.126  17.067   7.667
  624POPC   NC310607  44.038  22.383   9.449
  624POPC   PO410608  44.002  21.756   9.261
  624POPC   GL110609  43.809  22.134   9.051
  624POPC   GL210610  43.504  22.227   9.243
  624POPC   C1A10611  43.780  22.190   8.596
  624POPC   D2A10612  43.836  21.862   8.254
  624POPC   C3A10613  44.002  22.057   7.887
  624POPC   C4A10614  44.328  22.399   7.911
  624POPC   C1B10615  43.452  22.498   8.883
  624POPC   C2B10616  43.400  22.532   8.449
  624POPC   C3B10617  43.695  22.406   8.115
  624POPC   C4B10618  43.680  22.402   7.645
  625POPC   NC310619  21.207   7.089   9.447
  625POPC   PO410620  21.253   6.471   9.587
  625POPC   GL110621  21.381   6.484   9.152
  625POPC   GL210622  21.697   6.562   9.245
  625POPC   C1A10623  21.495   6.712   8.728
  625POPC   D2A10624  21.353   7.012   8.413
  625POPC   C3A10625  21.148   6.858   8.047
  625POPC   C4A10626  21.439   6.928   7.743
  625POPC   C1B10627  21.773   6.313   8.864
  625POPC   C2B10628  21.557   6.248   8.474
  625POPC   C3B10629  21.580   6.581   8.167
  625POPC   C4B10630  21.673   6.487   7.703
  626POPC   NC310631  37.761   8.438   9.525
  626POPC   PO410632  37.422   7.861   9.483
  626POPC   GL110633  37.798   8.020   9.178
  626POPC   GL210634  37.636   7.729   8.993
  626POPC   C1A10635  38.021   8.425   8.803
  626POPC   D2A10636  37.893   8.755   8.307
  626POPC   C3A10637  37.552   8.766   7.861
  626POPC   C4A10638  37.331   8.503   7.433
  626POPC   C1B10639  37.493   8.013   8.597
  626POPC   C2B10640  37.866   8.273   8.360
  626POPC   C3B10641  37.937   8.446   7.887
  626POPC   C4B10642  37.835   8.435   7.421
  627POPC   NC310643  30.936  33.653   9.508
  627POPC   PO410644  30.529  34.216   9.426
  627POPC   GL110645  30.607  33.828   9.135
  627POPC   GL210646  30.829  33.475   9.059
  627POPC   C1A10647  30.767  33.857   8.714
  627POPC   D2A10648  30.731  34.173   8.424
  627POPC   C3A10649  30.657  33.990   8.034
  627POPC   C4A10650  30.541  33.949   7.624
  627POPC   C1B10651  30.592  33.366   8.705
  627POPC   C2B10652  30.633  33.518   8.298
  627POPC   C3B10653  30.971  33.586   8.008
  627POPC   C4B10654  30.944  33.599   7.542
  628POPC   NC310655   1.169  16.391   9.666
  628POPC   PO410656   1.018  16.918   9.305
  628POPC   GL110657   1.399  16.774   9.091
  628POPC   GL210658   1.584  16.524   9.264
  628POPC   C1A10659   1.490  16.886   8.656
  628POPC   D2A10660   1.258  16.731   8.296
  628POPC   C3A10661   1.344  16.648   7.872
  628POPC   C4A10662   0.944  16.744   7.745
  628POPC   C1B10663   1.727  16.469   8.819
  628POPC   C2B10664   1.764  16.548   8.362
  628POPC   C3B10665   1.706  16.298   7.990
  628POPC   C4B10666   1.449  16.136   7.673
  629POPC   NC310667  14.544  39.058   9.531
  629POPC   PO410668  14.096  39.490   9.516
  629POPC   GL110669  14.331  39.386   9.154
  629POPC   GL210670  14.693  39.416   9.143
  629POPC   C1A10671  14.418  39.128   8.795
  629POPC   D2A10672  14.648  39.135   8.422
  629POPC   C3A10673  14.453  39.013   8.043
  629POPC   C4A10674  14.106  39.250   7.896
  629POPC   C1B10675  14.807  39.616   8.728
  629POPC   C2B10676  14.856  39.580   8.309
  629POPC   C3B10677  14.629  39.470   7.949
  629POPC   C4B10678  14.599  39.443   7.480
  630POPC   NC310679   0.521  26.786   9.522
  630POPC   PO410680   0.839  27.264   9.208
  630POPC   GL110681   0.497  27.014   9.069
  630POPC   GL210682   0.172  27.066   9.247
  630POPC   C1A10683   0.397  26.727   8.749
  630POPC   D2A10684   0.538  26.663   8.337
  630POPC   C3A10685   0.289  26.652   7.979
  630POPC   C4A10686   0.616  26.528   7.733
  630POPC   C1B10687   0.095  27.160   8.795
  630POPC   C2B10688   0.217  27.070   8.366
  630POPC   C3B10689   0.006  27.084   7.965
  630POPC   C4B10690   0.188  27.072   7.580
  631POPC   NC310691  43.042  27.139   9.699
  631POPC   PO410692  43.241  27.766   9.508
  631POPC   GL110693  43.099  27.636   9.127
  631POPC   GL210694  42.977  27.319   9.132
  631POPC   C1A10695  43.118  27.867   8.743
  631POPC   D2A10696  43.422  27.936   8.401
  631POPC   C3A10697  43.275  27.912   7.961
  631POPC   C4A10698  43.459  27.895   7.533
  631POPC   C1B10699  43.122  27.365   8.694
  631POPC   C2B10700  43.032  27.577   8.315
  631POPC   C3B10701  42.794  27.594   7.967
  631POPC   C4B10702  42.984  27.479   7.579
  632POPC   NC310703   9.277  38.095   9.587
  632POPC   PO410704   9.402  38.819   9.449
  632POPC   GL110705   9.226  38.519   9.139
  632POPC   GL210706   9.104  38.162   9.112
  632POPC   C1A10707   9.120  38.520   8.703
  632POPC   D2A10708   9.273  38.443   8.315
  632POPC   C3A10709   9.143  38.602   7.930
  632POPC   C4A10710   9.036  38.418   7.528
  632POPC   C1B10711   8.734  38.223   8.845
  632POPC   C2B10712   8.703  38.337   8.393
  632POPC   C3B10713   8.736  38.286   7.943
  632POPC   C4B10714   8.504  38.402   7.555
  633POPC   NC310715  28.149  19.302   9.575
  633POPC   PO410716  28.200  18.702   9.529
  633POPC   GL110717  28.309  18.906   9.142
  633POPC   GL210718  28.297  19.275   9.088
  633POPC   C1A10719  28.405  18.899   8.693
  633POPC   D2A10720  28.216  19.012   8.291
  633POPC   C3A10721  28.470  19.030   7.927
  633POPC   C4A10722  28.493  19.156   7.481
  633POPC   C1B10723  28.096  19.343   8.695
  633POPC   C2B10724  28.071  19.502   8.288
  633POPC   C3B10725  28.070  19.370   7.853
  633POPC   C4B10726  28.274  19.611   7.540
  634POPC   NC310727  10.199  14.416   9.711
  634POPC   PO410728  10.841  14.575   9.483
  634POPC   GL110729  10.751  14.408   9.136
  634POPC   GL210730  10.436  14.521   9.119
  634POPC   C1A10731  10.711  14.195   8.789
  634POPC   D2A10732  10.633  14.438   8.470
  634POPC   C3A10733  10.817  14.417   8.059
  634POPC   C4A10734  10.763  14.636   7.705
  634POPC   C1B10735  10.235  14.296   8.784
  634POPC   C2B10736  10.135  14.318   8.410
  634POPC   C3B10737  10.288  14.493   8.076
  634POPC   C4B10738  10.418  14.248   7.773
  635POPC   NC310739  37.596  28.527   9.706
  635POPC   PO410740  38.140  28.162   9.466
  635POPC   GL110741  37.916  28.474   9.209
  635POPC   GL210742  37.560  28.417   9.186
  635POPC   C1A10743  37.877  28.519   8.752
  635POPC   D2A10744  37.957  28.733   8.326
  635POPC   C3A10745  37.811  28.459   7.963
  635POPC   C4A10746  37.792  28.019   7.856
  635POPC   C1B10747  37.335  28.606   8.854
  635POPC   C2B10748  37.466  28.559   8.416
  635POPC   C3B10749  37.309  28.500   8.023
  635POPC   C4B10750  37.265  28.695   7.637
  636POPC   NC310751  27.306  22.221   9.595
  636POPC   PO410752  27.935  22.016   9.534
  636POPC   GL110753  27.729  22.163   9.178
  636POPC   GL210754  27.385  22.333   9.111
  636POPC   C1A10755  27.745  21.982   8.780
  636POPC   D2A10756  27.669  21.815   8.403
  636POPC   C3A10757  27.812  21.977   8.074
  636POPC   C4A10758  27.693  22.045   7.718
  636POPC   C1B10759  27.655  22.503   8.794
  636POPC   C2B10760  27.597  22.329   8.406
  636POPC   C3B10761  27.372  22.230   8.048
  636POPC   C4B10762  27.420  22.463   7.665
  637POPC   NC310763   8.862  42.760   9.615
  637POPC   PO410764   9.292  42.354   9.476
  637POPC   GL110765   9.225  42.470   9.080
  637POPC   GL210766   8.876  42.414   9.140
  637POPC   C1A10767   9.275  42.372   8.654
  637POPC   D2A10768   9.006  42.307   8.290
  637POPC   C3A10769   9.138  42.427   7.861
  637POPC   C4A10770   8.966  42.275   7.485
  637POPC   C1B10771   8.830  42.128   8.759
  637POPC   C2B10772   8.724  41.888   8.330
  637POPC   C3B10773   8.801  41.897   7.855
  637POPC   C4B10774   8.594  41.804   7.418
  638POPC   NC310775  11.398  31.530   9.840
  638POPC   PO410776  10.725  31.639   9.558
  638POPC   GL110777  11.036  31.524   9.203
  638POPC   GL210778  11.404  31.638   9.214
  638POPC   C1A10779  11.207  31.452   8.764
  638POPC   D2A10780  11.429  31.581   8.373
  638POPC   C3A10781  11.299  31.390   7.938
  638POPC   C4A10782  11.069  31.378   7.514
  638POPC   C1B10783  11.701  31.431   8.896
  638POPC   C2B10784  11.909  31.399   8.521
  638POPC   C3B10785  11.865  31.449   8.106
  638POPC   C4B10786  11.747  31.341   7.727
  639POPC   NC310787  29.813  25.620   9.487
  639POPC   PO410788  30.194  25.088   9.410
  639POPC   GL110789  29.899  25.255   9.115
  639POPC   GL210790  30.030  25.560   9.045
  639POPC   C1A10791  29.729  25.203   8.687
  639POPC   D2A10792  29.727  25.000   8.273
  639POPC   C3A10793  29.831  25.222   7.868
  639POPC   C4A10794  29.886  25.017   7.424
  639POPC   C1B10795  30.196  25.392   8.704
  639POPC   C2B10796  30.193  25.266   8.305
  639POPC   C3B10797  30.258  25.486   7.946
  639POPC   C4B10798  30.259  25.359   7.569
  640POPC   NC310799  36.950  14.080   9.711
  640POPC   PO410800  36.394  14.380   9.588
  640POPC   GL110801  36.750  14.480   9.248
  640POPC   GL210802  36.896  14.155   9.130
  640POPC   C1A10803  36.966  14.589   8.803
  640POPC   D2A10804  36.889  14.475   8.337
  640POPC   C3A10805  36.945  14.729   7.923
  640POPC   C4A10806  36.972  14.813   7.464
  640POPC   C1B10807  36.636  14.187   8.737
  640POPC   C2B10808  36.396  14.113   8.374
  640POPC   C3B10809  36.537  14.276   8.012
  640POPC   C4B10810  36.916  14.237   7.816
  641POPC   NC310811   8.609   0.055   9.378
  641POPC   PO410812   8.347  44.497   9.468
  641POPC   GL110813   8.094  44.574   9.146
  641POPC   GL210814   8.151  44.930   9.142
  641POPC   C1A10815   8.013  44.382   8.749
  641POPC   D2A10816   7.901  44.549   8.340
  641POPC   C3A10817   7.999  44.376   7.976
  641POPC   C4A10818   7.861  44.574   7.592
  641POPC   C1B10819   8.269  44.829   8.722
  641POPC   C2B10820   8.210  45.000   8.320
  641POPC   C3B10821   8.025  44.917   7.916
  641POPC   C4B10822   8.260  44.852   7.480
  642POPC   NC310823  35.160   1.961   9.570
  642POPC   PO410824  34.759   2.305   9.220
  642POPC   GL110825  35.137   2.077   9.046
  642POPC   GL210826  35.161   1.731   9.133
  642POPC   C1A10827  35.510   1.903   8.774
  642POPC   D2A10828  35.514   1.589   8.408
  642POPC   C3A10829  35.436   1.853   8.022
  642POPC   C4A10830  35.230   2.238   7.879
  642POPC   C1B10831  35.087   1.617   8.729
  642POPC   C2B10832  34.985   1.503   8.302
  642POPC   C3B10833  34.912   1.802   7.973
  642POPC   C4B10834  35.040   1.863   7.561
  643POPC   NC310835  38.267  14.908   9.480
  643POPC   PO410836  38.630  15.502   9.567
  643POPC   GL110837  38.513  15.367   9.170
  643POPC   GL210838  38.640  15.035   9.159
  643POPC   C1A10839  38.617  15.364   8.727
  643POPC   D2A10840  38.713  15.529   8.318
  643POPC   C3A10841  38.457  15.393   7.965
  643POPC   C4A10842  38.652  15.284   7.572
  643POPC   C1B10843  38.471  14.872   8.764
  643POPC   C2B10844  38.404  15.041   8.360
  643POPC   C3B10845  38.514  14.890   7.968
  643POPC   C4B10846  38.155  14.946   7.741
  644POPC   NC310847  25.607   9.380   9.507
  644POPC   PO410848  25.241   8.847   9.604
  644POPC   GL110849  25.201   8.853   9.127
  644POPC   GL210850  25.029   9.164   9.010
  644POPC   C1A10851  25.131   8.762   8.684
  644POPC   D2A10852  25.035   8.605   8.244
  644POPC   C3A10853  24.995   8.832   7.826
  644POPC   C4A10854  25.202   8.699   7.391
  644POPC   C1B10855  25.396   9.194   8.722
  644POPC   C2B10856  25.437   8.940   8.312
  644POPC   C3B10857  25.493   8.853   7.863
  644POPC   C4B10858  25.470   9.097   7.466
  645POPC   NC310859  13.116  22.278   9.472
  645POPC   PO410860  13.777  22.199   9.498
  645POPC   GL110861  13.743  22.038   9.106
  645POPC   GL210862  13.429  21.950   9.087
  645POPC   C1A10863  13.814  21.890   8.683
  645POPC   D2A10864  13.788  21.815   8.224
  645POPC   C3A10865  13.844  22.190   7.993
  645POPC   C4A10866  14.148  22.338   7.736
  645POPC   C1B10867  13.300  21.754   8.709
  645POPC   C2B10868  13.059  21.764   8.313
  645POPC   C3B10869  13.211  21.699   7.903
  645POPC   C4B10870  13.607  21.827   7.720
  646POPC   NC310871  24.570  28.039   9.459
  646POPC   PO410872  24.108  28.539   9.517
  646POPC   GL110873  24.487  28.531   9.221
  646POPC   GL210874  24.758  28.275   9.045
  646POPC   C1A10875  24.532  28.625   8.789
  646POPC   D2A10876  24.781  28.515   8.449
  646POPC   C3A10877  24.592  28.405   8.090
  646POPC   C4A10878  24.689  28.537   7.721
  646POPC   C1B10879  25.106  28.229   8.711
  646POPC   C2B10880  25.169  28.183   8.225
  646POPC   C3B10881  24.879  28.059   7.846
  646POPC   C4B10882  24.436  28.114   7.655
  647POPC   NC310883   6.158  21.554   9.790
  647POPC   PO410884   6.669  21.320   9.436
  647POPC   GL110885   6.806  21.222   9.055
  647POPC   GL210886   7.046  20.973   9.230
  647POPC   C1A10887   6.552  21.424   8.688
  647POPC   D2A10888   6.306  21.317   8.304
  647POPC   C3A10889   6.464  21.240   7.880
  647POPC   C4A10890   6.705  21.540   7.758
  647POPC   C1B10891   7.154  20.930   8.804
  647POPC   C2B10892   6.929  21.139   8.503
  647POPC   C3B10893   6.960  21.215   8.079
  647POPC   C4B10894   7.068  21.208   7.648
  648POPC   NC310895   7.153   2.688   9.533
  648POPC   PO410896   7.727   3.042   9.556
  648POPC   GL110897   7.456   2.904   9.150
  648POPC   GL210898   7.385   2.539   9.103
  648POPC   C1A10899   7.212   2.896   8.733
  648POPC   D2A10900   7.416   2.885   8.342
  648POPC   C3A10901   7.476   3.122   7.963
  648POPC   C4A10902   7.570   3.098   7.519
  648POPC   C1B10903   7.624   2.581   8.727
  648POPC   C2B10904   7.460   2.387   8.379
  648POPC   C3B10905   7.320   2.503   8.002
  648POPC   C4B10906   7.603   2.630   7.696
  649POPC   NC310907   9.697   0.814   9.793
  649POPC   PO410908   9.694   0.217   9.729
  649POPC   GL110909   9.714   0.478   9.356
  649POPC   GL210910   9.773   0.185   9.184
  649POPC   C1A10911   9.728   0.617   8.897
  649POPC   D2A10912   9.850   0.519   8.423
  649POPC   C3A10913   9.755   0.725   7.991
  649POPC   C4A10914   9.742   0.716   7.497
  649POPC   C1B10915   9.793   0.102   8.773
  649POPC   C2B10916   9.683   0.027   8.372
  649POPC   C3B10917   9.724   0.211   7.975
  649POPC   C4B10918   9.755   0.203   7.544
  650POPC   NC310919  31.826  44.848   9.511
  650POPC   PO410920  31.131  44.847   9.601
  650POPC   GL110921  31.222  44.565   9.216
  650POPC   GL210922  31.607  44.549   9.138
  650POPC   C1A10923  31.266  44.647   8.741
  650POPC   D2A10924  31.368  44.958   8.398
  650POPC   C3A10925  31.393  44.765   7.991
  650POPC   C4A10926  31.243  44.380   7.787
  650POPC   C1B10927  31.760  44.434   8.705
  650POPC   C2B10928  31.788  44.510   8.224
  650POPC   C3B10929  31.808  44.489   7.731
  650POPC   C4B10930  31.915  44.296   7.268
  651POPC   NC310931  11.217  34.130   9.484
  651POPC   PO410932  11.616  34.604   9.730
  651POPC   GL110933  11.485  34.739   9.234
  651POPC   GL210934  11.132  34.780   9.167
  651POPC   C1A10935  11.586  34.817   8.772
  651POPC   D2A10936  11.341  34.873   8.362
  651POPC   C3A10937  11.417  34.615   8.002
  651POPC   C4A10938  11.703  34.886   7.825
  651POPC   C1B10939  11.130  34.583   8.752
  651POPC   C2B10940  10.959  34.538   8.343
  651POPC   C3B10941  10.927  34.669   7.927
  651POPC   C4B10942  11.034  34.428   7.598
  652POPC   NC310943  26.679  29.625   9.410
  652POPC   PO410944  26.931  30.216   9.369
  652POPC   GL110945  26.884  30.021   9.057
  652POPC   GL210946  27.039  29.696   9.020
  652POPC   C1A10947  26.886  30.146   8.691
  652POPC   D2A10948  26.908  29.926   8.367
  652POPC   C3A10949  26.813  30.211   8.088
  652POPC   C4A10950  26.909  30.149   7.719
  652POPC   C1B10951  26.653  29.676   8.749
  652POPC   C2B10952  26.465  29.637   8.336
  652POPC   C3B10953  26.602  29.755   7.902
  652POPC   C4B10954  26.499  29.527   7.528
  653POPC   NC310955  41.480  33.416   9.493
  653POPC   PO410956  41.267  34.125   9.518
  653POPC   GL110957  41.605  33.924   9.282
  653POPC   GL210958  41.372  33.738   9.125
  653POPC   C1A10959  41.766  33.909   8.842
  653POPC   D2A10960  41.647  33.985   8.416
  653POPC   C3A10961  41.786  33.718   8.111
  653POPC   C4A10962  41.703  33.796   7.672
  653POPC   C1B10963  41.255  33.482   8.792
  653POPC   C2B10964  41.284  33.619   8.384
  653POPC   C3B10965  41.282  33.790   7.991
  653POPC   C4B10966  41.180  33.472   7.738
  654POPC   NC310967   0.059  11.843   9.529
  654POPC   PO410968   0.501  12.263   9.539
  654POPC   GL110969   0.386  12.158   9.139
  654POPC   GL210970   0.289  11.817   9.054
  654POPC   C1A10971   0.476  12.131   8.718
  654POPC   D2A10972   0.262  11.937   8.457
  654POPC   C3A10973   0.462  12.102   8.131
  654POPC   C4A10974   0.376  12.034   7.742
  654POPC   C1B10975   0.688  11.694   8.814
  654POPC   C2B10976   0.836  11.868   8.415
  654POPC   C3B10977   0.810  11.765   7.962
  654POPC   C4B10978   0.737  11.693   7.535
  655POPC   NC310979  32.519  14.609   9.526
  655POPC   PO410980  31.926  14.214   9.358
  655POPC   GL110981  32.110  14.444   9.039
  655POPC   GL210982  32.485  14.481   9.043
  655POPC   C1A10983  32.205  14.602   8.620
  655POPC   D2A10984  32.179  14.804   8.213
  655POPC   C3A10985  32.138  14.501   7.878
  655POPC   C4A10986  32.067  14.139   7.641
  655POPC   C1B10987  32.685  14.386   8.668
  655POPC   C2B10988  32.548  14.371   8.269
  655POPC   C3B10989  32.631  14.545   7.906
  655POPC   C4B10990  32.518  14.392   7.520
  656POPC   NC310991  19.279   3.754   9.306
  656POPC   PO410992  18.708   3.451   9.434
  656POPC   GL110993  18.854   3.478   9.017
  656POPC   GL210994  19.201   3.371   8.987
  656POPC   C1A10995  18.980   3.557   8.577
  656POPC   D2A10996  19.112   3.271   8.252
  656POPC   C3A10997  18.864   3.322   7.896
  656POPC   C4A10998  18.842   3.796   7.756
  656POPC   C1B10999  19.486   3.650   8.699
  656POPC   C2B11000  19.492   3.761   8.265
  656POPC   C3B11001  19.302   3.607   7.877
  656POPC   C4B11002  19.121   3.466   7.477
  657POPC   NC311003  22.898  43.478   9.913
  657POPC   PO411004  22.757  42.893   9.516
  657POPC   GL111005  23.016  43.139   9.187
  657POPC   GL211006  22.798  43.340   8.964
  657POPC   C1A11007  23.232  43.182   8.769
  657POPC   D2A11008  22.993  43.127   8.381
  657POPC   C3A11009  23.143  43.243   7.973
  657POPC   C4A11010  22.864  43.342   7.622
  657POPC   C1B11011  22.815  42.872   8.790
  657POPC   C2B11012  22.674  42.707   8.396
  657POPC   C3B11013  22.613  42.944   8.065
  657POPC   C4B11014  22.716  42.850   7.681
  658POPC   NC311015  39.842  29.496   9.209
  658POPC   PO411016  39.768  30.099   9.579
  658POPC   GL111017  39.938  30.071   9.181
  658POPC   GL211018  39.617  29.973   9.064
  658POPC   C1A11019  40.266  29.993   8.850
  658POPC   D2A11020  40.268  30.142   8.432
  658POPC   C3A11021  40.229  29.841   8.100
  658POPC   C4A11022  40.163  30.035   7.718
  658POPC   C1B11023  39.796  29.897   8.674
  658POPC   C2B11024  39.747  29.709   8.293
  658POPC   C3B11025  39.716  29.915   7.909
  658POPC   C4B11026  39.758  29.769   7.493
  659POPC   NC311027  12.535  38.016   9.691
  659POPC   PO411028  12.799  37.460   9.556
  659POPC   GL111029  12.738  37.714   9.185
  659POPC   GL211030  12.607  38.039   9.198
  659POPC   C1A11031  12.921  37.735   8.782
  659POPC   D2A11032  12.865  37.956   8.444
  659POPC   C3A11033  12.838  37.809   8.068
  659POPC   C4A11034  13.007  37.690   7.719
  659POPC   C1B11035  12.506  38.092   8.778
  659POPC   C2B11036  12.364  37.902   8.403
  659POPC   C3B11037  12.383  37.977   7.969
  659POPC   C4B11038  12.407  38.168   7.564
  660POPC   NC311039   0.575   0.733   9.455
  660POPC   PO411040   0.506   0.148   9.309
  660POPC   GL111041   0.550   0.441   9.024
  660POPC   GL211042   0.267   0.615   9.074
  660POPC   C1A11043   0.502   0.404   8.605
  660POPC   D2A11044   0.704   0.188   8.293
  660POPC   C3A11045   0.543   0.374   7.970
  660POPC   C4A11046   0.342   0.194   7.662
  660POPC   C1B11047   0.306   0.867   8.757
  660POPC   C2B11048   0.127   0.698   8.399
  660POPC   C3B11049   0.081   0.837   8.020
  660POPC   C4B11050   0.311   0.702   7.649
  661POPC   NC311051  17.307   4.052   9.367
  661POPC   PO411052  17.418   4.711   9.289
  661POPC   GL111053  17.600   4.402   9.050
  661POPC   GL211054  17.808   4.169   9.223
  661POPC   C1A11055  17.437   4.227   8.667
  661POPC   D2A11056  17.232   4.158   8.270
  661POPC   C3A11057  17.200   4.548   8.061
  661POPC   C4A11058  17.212   4.561   7.619
  661POPC   C1B11059  17.905   4.038   8.788
  661POPC   C2B11060  17.881   4.244   8.395
  661POPC   C3B11061  17.894   4.066   8.000
  661POPC   C4B11062  17.527   4.223   7.824
  662POPC   NC311063  42.360  37.986   9.551
  662POPC   PO411064  42.132  38.621   9.489
  662POPC   GL111065  42.545  38.534   9.256
  662POPC   GL211066  42.440  38.225   9.060
  662POPC   C1A11067  42.732  38.581   8.839
  662POPC   D2A11068  42.443  38.402   8.533
  662POPC   C3A11069  42.408  38.458   8.085
  662POPC   C4A11070  42.662  38.669   7.772
  662POPC   C1B11071  42.229  37.966   8.703
  662POPC   C2B11072  42.174  37.858   8.242
  662POPC   C3B11073  42.075  38.111   7.868
  662POPC   C4B11074  42.380  38.257   7.595
  663POPC   NC311075   5.322  41.673   9.534
  663POPC   PO411076   4.809  41.115   9.500
  663POPC   GL111077   5.168  41.293   9.233
  663POPC   GL211078   5.025  41.625   9.097
  663POPC   C1A11079   5.359  41.395   8.825
  663POPC   D2A11080   5.203  41.620   8.492
  663POPC   C3A11081   5.104  41.500   8.047
  663POPC   C4A11082   5.323  41.467   7.677
  663POPC   C1B11083   4.733  41.653   8.732
  663POPC   C2B11084   4.756  41.771   8.282
  663POPC   C3B11085   4.713  41.773   7.842
  663POPC   C4B11086   4.968  41.829   7.493
  664POPC   NC311087  34.016  25.819   9.633
  664POPC   PO411088  33.518  25.235   9.501
  664POPC   GL111089  33.703  25.283   9.141
  664POPC   GL211090  33.991  25.452   9.253
  664POPC   C1A11091  33.926  25.132   8.802
  664POPC   D2A11092  33.731  25.000   8.447
  664POPC   C3A11093  33.866  25.172   8.068
  664POPC   C4A11094  33.636  25.444   7.799
  664POPC   C1B11095  34.145  25.587   8.855
  664POPC   C2B11096  34.093  25.463   8.428
  664POPC   C3B11097  34.001  25.695   8.052
  664POPC   C4B11098  34.049  25.677   7.651
  665POPC   NC311099  44.973  38.179   9.328
  665POPC   PO411100  44.512  38.549   9.623
  665POPC   GL111101  44.530  38.496   9.209
  665POPC   GL211102  44.840  38.658   9.196
  665POPC   C1A11103  44.435  38.351   8.799
  665POPC   D2A11104  44.608  38.486   8.417
  665POPC   C3A11105  44.405  38.456   8.047
  665POPC   C4A11106  44.638  38.277   7.741
  665POPC   C1B11107  44.791  38.802   8.782
  665POPC   C2B11108   0.030  38.771   8.374
  665POPC   C3B11109  44.827  38.755   7.971
  665POPC   C4B11110  44.946  38.626   7.560
  666POPC   NC311111  43.831  35.321   9.507
  666POPC   PO411112  43.685  35.895   9.165
  666POPC   GL111113  43.824  35.473   9.017
  666POPC   GL211114  43.793  35.088   9.077
  666POPC   C1A11115  44.078  35.373   8.690
  666POPC   D2A11116  44.212  35.394   8.289
  666POPC   C3A11117  43.895  35.611   8.109
  666POPC   C4A11118  43.702  35.537   7.758
  666POPC   C1B11119  43.639  34.979   8.728
  666POPC   C2B11120  43.708  35.208   8.356
  666POPC   C3B11121  43.933  35.109   7.975
  666POPC   C4B11122  43.679  34.862   7.801
  667POPC   NC311123  26.485  41.523   9.538
  667POPC   PO411124  27.159  41.441   9.481
  667POPC   GL111125  27.004  41.547   9.097
  667POPC   GL211126  27.266  41.682   8.891
  667POPC   C1A11127  26.624  41.383   8.884
  667POPC   D2A11128  26.454  41.511   8.481
  667POPC   C3A11129  26.725  41.363   8.157
  667POPC   C4A11130  26.548  41.283   7.782
  667POPC   C1B11131  26.987  41.576   8.567
  667POPC   C2B11132  26.766  41.878   8.298
  667POPC   C3B11133  26.612  41.779   7.902
  667POPC   C4B11134  26.966  41.567   7.706
  668POPC   NC311135  14.845  22.514   9.444
  668POPC   PO411136  15.249  21.979   9.375
  668POPC   GL111137  14.982  22.094   9.075
  668POPC   GL211138  15.106  22.433   9.019
  668POPC   C1A11139  15.201  22.046   8.694
  668POPC   D2A11140  15.254  21.835   8.344
  668POPC   C3A11141  15.365  22.027   7.979
  668POPC   C4A11142  15.099  22.008   7.631
  668POPC   C1B11143  14.811  22.386   8.673
  668POPC   C2B11144  14.958  22.248   8.281
  668POPC   C3B11145  15.026  22.422   7.911
  668POPC   C4B11146  15.113  22.569   7.514
  669POPC   NC311147  20.250   9.113   9.890
  669POPC   PO411148  19.763   8.884   9.379
  669POPC   GL111149  19.838   9.248   9.064
  669POPC   GL211150  20.219   9.250   9.073
  669POPC   C1A11151  19.610   9.309   8.657
  669POPC   D2A11152  19.772   9.165   8.269
  669POPC   C3A11153  19.533   9.135   7.922
  669POPC   C4A11154  19.507   8.892   7.578
  669POPC   C1B11155  20.046   8.999   8.695
  669POPC   C2B11156  20.069   8.743   8.333
  669POPC   C3B11157  20.016   8.865   7.906
  669POPC   C4B11158  19.846   8.544   7.675
  670POPC   NC311159  17.883   8.798   9.351
  670POPC   PO411160  17.546   9.327   9.616
  670POPC   GL111161  17.426   9.038   9.172
  670POPC   GL211162  17.548   8.693   9.012
  670POPC   C1A11163  17.228   8.865   8.701
  670POPC   D2A11164  17.226   8.832   8.259
  670POPC   C3A11165  17.388   9.135   8.028
  670POPC   C4A11166  17.454   9.118   7.600
  670POPC   C1B11167  17.794   8.807   8.674
  670POPC   C2B11168  17.772   8.878   8.252
  670POPC   C3B11169  17.629   8.718   7.841
  670POPC   C4B11170  17.911   8.569   7.504
  671POPC   NC311171   1.401  35.336   9.578
  671POPC   PO411172   0.804  35.195   9.441
  671POPC   GL111173   1.121  35.397   9.161
  671POPC   GL211174   1.416  35.604   9.147
  671POPC   C1A11175   1.327  35.207   8.826
  671POPC   D2A11176   1.124  35.018   8.493
  671POPC   C3A11177   1.048  35.313   8.192
  671POPC   C4A11178   0.910  35.241   7.785
  671POPC   C1B11179   1.339  35.742   8.725
  671POPC   C2B11180   1.501  35.662   8.315
  671POPC   C3B11181   1.411  35.640   7.870
  671POPC   C4B11182   1.486  35.718   7.391
  672POPC   NC311183  36.038  29.807   9.443
  672POPC   PO411184  35.901  30.498   9.606
  672POPC   GL111185  35.919  30.236   9.188
  672POPC   GL211186  36.282  30.143   9.114
  672POPC   C1A11187  35.944  30.020   8.751
  672POPC   D2A11188  36.070  30.087   8.294
  672POPC   C3A11189  36.088  29.852   7.915
  672POPC   C4A11190  36.165  29.737   7.445
  672POPC   C1B11191  36.412  30.275   8.682
  672POPC   C2B11192  36.548  30.246   8.249
  672POPC   C3B11193  36.385  30.254   7.820
  672POPC   C4B11194  36.228  30.571   7.560
  673POPC   NC311195  37.726   5.487   9.531
  673POPC   PO411196  37.688   6.067   9.527
  673POPC   GL111197  37.698   5.900   9.128
  673POPC   GL211198  37.458   5.637   9.102
  673POPC   C1A11199  37.981   5.818   8.761
  673POPC   D2A11200  37.993   5.573   8.378
  673POPC   C3A11201  37.869   5.740   8.003
  673POPC   C4A11202  37.790   5.994   7.524
  673POPC   C1B11203  37.488   5.792   8.680
  673POPC   C2B11204  37.495   5.569   8.291
  673POPC   C3B11205  37.464   5.573   7.794
  673POPC   C4B11206  37.319   5.845   7.458
  674POPC   NC311207   6.732  31.371   9.596
  674POPC   PO411208   6.740  31.987   9.517
  674POPC   GL111209   6.660  31.633   9.165
  674POPC   GL211210   6.571  31.240   9.140
  674POPC   C1A11211   6.938  31.405   8.835
  674POPC   D2A11212   7.082  31.494   8.403
  674POPC   C3A11213   6.839  31.414   7.981
  674POPC   C4A11214   6.466  31.617   7.814
  674POPC   C1B11215   6.460  31.194   8.720
  674POPC   C2B11216   6.432  31.395   8.303
  674POPC   C3B11217   6.398  31.143   7.899
  674POPC   C4B11218   6.683  31.070   7.577
  675POPC   NC311219  20.009  12.358  10.081
  675POPC   PO411220  19.882  12.771   9.522
  675POPC   GL111221  19.916  12.805   9.117
  675POPC   GL211222  19.893  13.177   9.153
  675POPC   C1A11223  19.757  12.803   8.720
  675POPC   D2A11224  19.479  12.975   8.440
  675POPC   C3A11225  19.585  12.938   8.037
  675POPC   C4A11226  19.512  12.591   7.788
  675POPC   C1B11227  20.111  13.249   8.767
  675POPC   C2B11228  19.937  13.179   8.353
  675POPC   C3B11229  20.093  13.351   7.982
  675POPC   C4B11230  20.293  13.264   7.594
  676POPC   NC311231   6.963  27.111   9.274
  676POPC   PO411232   7.411  26.744   9.660
  676POPC   GL111233   7.624  26.698   9.221
  676POPC   GL211234   7.743  27.063   9.180
  676POPC   C1A11235   7.471  26.565   8.785
  676POPC   D2A11236   7.209  26.665   8.409
  676POPC   C3A11237   7.451  26.644   8.037
  676POPC   C4A11238   7.305  26.639   7.614
  676POPC   C1B11239   7.784  26.992   8.757
  676POPC   C2B11240   7.602  26.994   8.379
  676POPC   C3B11241   7.508  27.173   8.002
  676POPC   C4B11242   7.589  27.038   7.597
  677POPC   NC311243  16.583  34.967   9.322
  677POPC   PO411244  17.113  35.287   9.448
  677POPC   GL111245  16.894  35.356   9.061
  677POPC   GL211246  16.568  35.443   9.106
  677POPC   C1A11247  16.904  35.468   8.626
  677POPC   D2A11248  16.588  35.442   8.290
  677POPC   C3A11249  16.862  35.554   7.983
  677POPC   C4A11250  17.093  35.465   7.684
  677POPC   C1B11251  16.455  35.243   8.751
  677POPC   C2B11252  16.432  34.921   8.445
  677POPC   C3B11253  16.376  34.975   8.024
  677POPC   C4B11254  16.481  35.315   7.765
  678POPC   NC311255  26.589  16.373   9.506
  678POPC   PO411256  27.240  16.093   9.756
  678POPC   GL111257  27.000  16.058   9.321
  678POPC   GL211258  27.019  16.400   9.187
  678POPC   C1A11259  26.784  15.779   8.971
  678POPC   D2A11260  26.696  15.529   8.586
  678POPC   C3A11261  26.776  15.779   8.206
  678POPC   C4A11262  26.845  15.968   7.805
  678POPC   C1B11263  26.799  16.279   8.789
  678POPC   C2B11264  26.669  16.300   8.341
  678POPC   C3B11265  26.859  16.469   7.948
  678POPC   C4B11266  27.066  16.396   7.537
  679POPC   NC311267  18.872  31.410   9.519
  679POPC   PO411268  18.176  31.246   9.564
  679POPC   GL111269  18.285  31.445   9.191
  679POPC   GL211270  18.565  31.638   9.190
  679POPC   C1A11271  18.330  31.365   8.774
  679POPC   D2A11272  18.073  31.502   8.438
  679POPC   C3A11273  18.201  31.498   8.015
  679POPC   C4A11274  17.876  31.636   7.760
  679POPC   C1B11275  18.594  31.865   8.844
  679POPC   C2B11276  18.549  31.701   8.457
  679POPC   C3B11277  18.595  31.850   8.068
  679POPC   C4B11278  18.530  31.697   7.654
  680POPC   NC311279  44.725   8.757   9.886
  680POPC   PO411280  44.835   9.268   9.402
  680POPC   GL111281  44.785   9.078   8.955
  680POPC   GL211282  44.789   8.681   8.899
  680POPC   C1A11283  44.808   9.073   8.498
  680POPC   D2A11284  44.450   9.243   8.269
  680POPC   C3A11285  44.431   9.146   7.863
  680POPC   C4A11286  44.409   9.510   7.668
  680POPC   C1B11287  44.405   8.815   8.715
  680POPC   C2B11288  44.461   8.747   8.307
  680POPC   C3B11289  44.774   8.798   8.027
  680POPC   C4B11290  44.922   9.001   7.677
  681POPC   NC311291  28.244   4.592   9.590
  681POPC   PO411292  28.463   3.904   9.628
  681POPC   GL111293  28.539   4.182   9.221
  681POPC   GL211294  28.199   4.364   9.134
  681POPC   C1A11295  28.486   4.275   8.754
  681POPC   D2A11296  28.386   4.119   8.393
  681POPC   C3A11297  28.471   4.265   8.036
  681POPC   C4A11298  28.281   4.252   7.678
  681POPC   C1B11299  28.056   4.562   8.698
  681POPC   C2B11300  28.178   4.608   8.265
  681POPC   C3B11301  27.929   4.542   7.886
  681POPC   C4B11302  27.965   4.515   7.380
  682POPC   NC311303   8.677  17.639   9.469
  682POPC   PO411304   8.925  17.016   9.335
  682POPC   GL111305   8.916  17.378   9.106
  682POPC   GL211306   9.238  17.435   8.998
  682POPC   C1A11307   8.785  17.605   8.774
  682POPC   D2A11308   8.804  17.633   8.356
  682POPC   C3A11309   8.651  17.380   8.064
  682POPC   C4A11310   8.957  17.510   7.775
  682POPC   C1B11311   9.262  17.639   8.582
  682POPC   C2B11312   9.349  17.539   8.157
  682POPC   C3B11313   9.472  17.228   7.882
  682POPC   C4B11314   9.261  17.215   7.494
  683POPC   NC311315  24.869  21.116   9.249
  683POPC   PO411316  24.786  20.619   9.694
  683POPC   GL111317  24.565  20.503   9.273
  683POPC   GL211318  24.448  20.836   9.155
  683POPC   C1A11319  24.469  20.424   8.814
  683POPC   D2A11320  24.662  20.479   8.400
  683POPC   C3A11321  24.526  20.601   8.001
  683POPC   C4A11322  24.696  20.521   7.602
  683POPC   C1B11323  24.546  20.898   8.729
  683POPC   C2B11324  24.386  20.971   8.339
  683POPC   C3B11325  24.138  20.930   7.981
  683POPC   C4B11326  24.272  20.800   7.568
  684POPC   NC311327  23.139  14.182   9.462
  684POPC   PO411328  22.577  14.529   9.436
  684POPC   GL111329  22.851  14.385   9.056
  684POPC   GL211330  23.219  14.382   9.012
  684POPC   C1A11331  22.998  14.363   8.590
  684POPC   D2A11332  23.212  14.563   8.297
  684POPC   C3A11333  22.939  14.397   7.996
  684POPC   C4A11334  22.758  14.372   7.588
  684POPC   C1B11335  23.434  14.135   8.646
  684POPC   C2B11336  23.286  13.989   8.285
  684POPC   C3B11337  23.407  14.153   7.922
  684POPC   C4B11338  23.223  14.206   7.562
  685POPC   NC311339  17.461  17.241   9.602
  685POPC   PO411340  17.277  16.618   9.562
  685POPC   GL111341  17.471  16.647   9.220
  685POPC   GL211342  17.188  16.793   9.063
  685POPC   C1A11343  17.669  16.874   8.888
  685POPC   D2A11344  17.667  17.079   8.488
  685POPC   C3A11345  17.701  16.829   8.096
  685POPC   C4A11346  17.604  16.991   7.689
  685POPC   C1B11347  17.340  16.496   8.769
  685POPC   C2B11348  17.320  16.709   8.409
  685POPC   C3B11349  17.209  16.658   8.001
  685POPC   C4B11350  17.506  16.498   7.711
  686POPC   NC311351   7.774  37.223   9.385
  686POPC   PO411352   8.338  36.884   9.550
  686POPC   GL111353   8.195  36.852   9.148
  686POPC   GL211354   8.232  37.192   9.093
  686POPC   C1A11355   8.411  36.734   8.752
  686POPC   D2A11356   8.439  36.510   8.316
  686POPC   C3A11357   8.440  36.690   7.894
  686POPC   C4A11358   8.271  37.001   7.557
  686POPC   C1B11359   8.017  37.083   8.727
  686POPC   C2B11360   8.154  36.956   8.346
  686POPC   C3B11361   7.979  36.931   7.965
  686POPC   C4B11362   7.724  36.861   7.614
  687POPC   NC311363   9.395  20.348   9.462
  687POPC   PO411364   9.617  19.690   9.373
  687POPC   GL111365   9.665  19.934   9.026
  687POPC   GL211366   9.744  20.254   9.099
  687POPC   C1A11367   9.615  19.955   8.576
  687POPC   D2A11368   9.827  19.724   8.231
  687POPC   C3A11369   9.611  19.739   7.866
  687POPC   C4A11370   9.275  20.032   7.764
  687POPC   C1B11371   9.979  20.271   8.752
  687POPC   C2B11372  10.069  20.214   8.358
  687POPC   C3B11373  10.260  20.181   7.989
  687POPC   C4B11374  10.120  19.882   7.732
  688POPC   NC311375  26.085  13.769   9.501
  688POPC   PO411376  26.305  13.257   9.807
  688POPC   GL111377  26.324  13.368   9.321
  688POPC   GL211378  25.954  13.325   9.239
  688POPC   C1A11379  26.253  13.594   8.889
  688POPC   D2A11380  26.170  13.502   8.434
  688POPC   C3A11381  25.952  13.758   8.120
  688POPC   C4A11382  26.199  13.779   7.732
  688POPC   C1B11383  25.860  13.261   8.797
  688POPC   C2B11384  25.656  13.411   8.439
  688POPC   C3B11385  25.609  13.209   8.044
  688POPC   C4B11386  25.859  13.392   7.759
  689POPC   NC311387  15.954  30.995   9.329
  689POPC   PO411388  15.788  31.644   9.502
  689POPC   GL111389  15.818  31.452   9.131
  689POPC   GL211390  16.150  31.422   9.143
  689POPC   C1A11391  15.823  31.432   8.689
  689POPC   D2A11392  16.099  31.608   8.377
  689POPC   C3A11393  16.014  31.456   7.936
  689POPC   C4A11394  15.666  31.601   7.704
  689POPC   C1B11395  16.325  31.321   8.749
  689POPC   C2B11396  16.530  31.284   8.359
  689POPC   C3B11397  16.542  31.240   7.930
  689POPC   C4B11398  16.363  31.340   7.547
  690POPC   NC311399  41.721   2.806   9.571
  690POPC   PO411400  41.239   2.378   9.310
  690POPC   GL111401  41.483   2.735   9.129
  690POPC   GL211402  41.371   3.067   9.149
  690POPC   C1A11403  41.692   2.692   8.773
  690POPC   D2A11404  41.559   2.530   8.372
  690POPC   C3A11405  41.655   2.715   8.005
  690POPC   C4A11406  41.518   2.616   7.593
  690POPC   C1B11407  41.572   3.168   8.750
  690POPC   C2B11408  41.788   3.064   8.387
  690POPC   C3B11409  41.821   3.189   7.968
  690POPC   C4B11410  41.574   3.115   7.600
  691POPC   NC311411   4.914  16.073   9.577
  691POPC   PO411412   5.423  15.701   9.513
  691POPC   GL111413   5.179  15.788   9.143
  691POPC   GL211414   5.085  16.137   9.058
  691POPC   C1A11415   5.257  15.839   8.690
  691POPC   D2A11416   4.994  15.996   8.355
  691POPC   C3A11417   5.090  15.837   7.952
  691POPC   C4A11418   5.457  15.905   7.717
  691POPC   C1B11419   4.788  16.331   8.751
  691POPC   C2B11420   4.801  16.468   8.321
  691POPC   C3B11421   4.736  16.227   7.896
  691POPC   C4B11422   4.617  16.259   7.403
  692POPC   NC311423   5.438  39.191   9.469
  692POPC   PO411424   4.734  39.381   9.618
  692POPC   GL111425   4.964  39.242   9.228
  692POPC   GL211426   4.838  39.514   9.026
  692POPC   C1A11427   5.162  39.116   8.811
  692POPC   D2A11428   5.022  39.056   8.346
  692POPC   C3A11429   5.208  39.068   7.890
  692POPC   C4A11430   5.265  39.065   7.411
  692POPC   C1B11431   5.012  39.552   8.589
  692POPC   C2B11432   5.354  39.484   8.320
  692POPC   C3B11433   5.413  39.544   7.897
  692POPC   C4B11434   5.083  39.519   7.613
  693POPC   NC311435  16.736  26.294   9.867
  693POPC   PO411436  16.548  25.873   9.420
  693POPC   GL111437  16.801  26.037   9.129
  693POPC   GL211438  16.618  26.336   9.049
  693POPC   C1A11439  16.780  25.958   8.696
  693POPC   D2A11440  16.838  26.099   8.262
  693POPC   C3A11441  16.849  25.880   7.902
  693POPC   C4A11442  16.910  25.848   7.446
  693POPC   C1B11443  16.752  26.473   8.636
  693POPC   C2B11444  16.532  26.511   8.243
  693POPC   C3B11445  16.652  26.355   7.834
  693POPC   C4B11446  16.477  26.137   7.469
  694POPC   NC311447  32.319  29.202   9.544
  694POPC   PO411448  32.731  28.788   9.205
  694POPC   GL111449  32.444  29.120   9.074
  694POPC   GL211450  32.145  28.969   9.091
  694POPC   C1A11451  32.302  29.388   8.761
  694POPC   D2A11452  32.440  29.344   8.364
  694POPC   C3A11453  32.192  29.093   8.091
  694POPC   C4A11454  32.301  29.262   7.703
  694POPC   C1B11455  32.281  28.885   8.634
  694POPC   C2B11456  32.440  28.636   8.288
  694POPC   C3B11457  32.470  28.634   7.837
  694POPC   C4B11458  32.229  28.805   7.511
  695POPC   NC311459  44.304  43.630   9.485
  695POPC   PO411460  44.977  43.780   9.711
  695POPC   GL111461  44.815  43.848   9.252
  695POPC   GL211462  44.492  43.888   9.079
  695POPC   C1A11463  44.918  43.934   8.797
  695POPC   D2A11464  44.866  44.137   8.406
  695POPC   C3A11465  45.000  43.923   8.061
  695POPC   C4A11466  44.855  44.010   7.692
  695POPC   C1B11467  44.454  43.647   8.721
  695POPC   C2B11468  44.624  43.664   8.327
  695POPC   C3B11469  44.480  43.963   8.023
  695POPC   C4B11470  44.384  43.882   7.581
  696POPC   NC311471   7.549  30.121   9.475
  696POPC   PO411472   7.049  29.688   9.589
  696POPC   GL111473   7.196  29.829   9.193
  696POPC   GL211474   7.522  29.696   9.174
  696POPC   C1A11475   7.407  30.056   8.847
  696POPC   D2A11476   7.370  30.086   8.419
  696POPC   C3A11477   7.614  30.347   8.163
  696POPC   C4A11478   7.709  30.238   7.746
  696POPC   C1B11479   7.353  29.528   8.796
  696POPC   C2B11480   7.539  29.584   8.388
  696POPC   C3B11481   7.465  29.783   7.970
  696POPC   C4B11482   7.283  29.595   7.577
  697POPC   NC311483  10.931   7.307   9.394
  697POPC   PO411484  10.314   7.684   9.560
  697POPC   GL111485  10.498   7.572   9.194
  697POPC   GL211486  10.491   7.223   9.110
  697POPC   C1A11487  10.501   7.738   8.795
  697POPC   D2A11488  10.459   7.894   8.391
  697POPC   C3A11489  10.384   7.534   8.173
  697POPC   C4A11490  10.605   7.481   7.813
  697POPC   C1B11491  10.775   7.250   8.730
  697POPC   C2B11492  10.764   7.103   8.293
  697POPC   C3B11493  10.965   7.156   7.906
  697POPC   C4B11494  10.916   7.333   7.447
  698POPC   NC311495  16.802  33.320   9.742
  698POPC   PO411496  16.962  32.744   9.478
  698POPC   GL111497  17.052  32.808   9.071
  698POPC   GL211498  16.764  33.042   9.071
  698POPC   C1A11499  17.087  33.057   8.688
  698POPC   D2A11500  16.845  33.313   8.422
  698POPC   C3A11501  16.838  33.114   8.047
  698POPC   C4A11502  16.953  33.079   7.617
  698POPC   C1B11503  16.665  32.779   8.767
  698POPC   C2B11504  16.644  32.747   8.368
  698POPC   C3B11505  16.369  32.766   8.088
  698POPC   C4B11506  16.510  32.841   7.737
  699POPC   NC311507  19.394  31.964   9.447
  699POPC   PO411508  18.741  31.881   9.595
  699POPC   GL111509  18.942  32.012   9.203
  699POPC   GL211510  19.028  32.363   9.209
  699POPC   C1A11511  19.209  32.039   8.815
  699POPC   D2A11512  19.041  32.055   8.398
  699POPC   C3A11513  19.282  32.048   8.009
  699POPC   C4A11514  18.964  31.947   7.738
  699POPC   C1B11515  18.788  32.363   8.824
  699POPC   C2B11516  18.828  32.525   8.403
  699POPC   C3B11517  18.919  32.420   7.978
  699POPC   C4B11518  18.733  32.662   7.669
  700POPC   NC311519  17.676   2.235   9.386
  700POPC   PO411520  17.114   1.912   9.508
  700POPC   GL111521  17.395   1.856   9.150
  700POPC   GL211522  17.415   2.192   8.962
  700POPC   C1A11523  17.639   1.769   8.784
  700POPC   D2A11524  17.565   2.054   8.435
  700POPC   C3A11525  17.470   1.788   8.091
  700POPC   C4A11526  17.723   1.613   7.776
  700POPC   C1B11527  17.028   2.363   8.827
  700POPC   C2B11528  16.940   2.383   8.389
  700POPC   C3B11529  17.100   2.431   8.015
  700POPC   C4B11530  17.422   2.205   7.800
  701POPC   NC311531  10.302  35.344   9.492
  701POPC   PO411532  10.880  35.201   9.361
  701POPC   GL111533  10.564  35.248   9.038
  701POPC   GL211534  10.375  35.595   9.024
  701POPC   C1A11535  10.397  35.294   8.606
  701POPC   D2A11536  10.408  35.530   8.217
  701POPC   C3A11537  10.471  35.322   7.853
  701POPC   C4A11538  10.867  35.142   7.777
  701POPC   C1B11539  10.347  35.872   8.620
  701POPC   C2B11540  10.255  36.010   8.167
  701POPC   C3B11541  10.197  35.758   7.772
  701POPC   C4B11542  10.511  35.605   7.432
  702POPC   NC311543   2.301  22.491   9.347
  702POPC   PO411544   2.854  22.198   9.499
  702POPC   GL111545   2.860  21.958   9.107
  702POPC   GL211546   2.534  22.083   9.085
  702POPC   C1A11547   2.756  21.931   8.637
  702POPC   D2A11548   2.427  22.187   8.421
  702POPC   C3A11549   2.521  22.361   8.013
  702POPC   C4A11550   2.853  22.418   7.720
  702POPC   C1B11551   2.286  21.858   8.814
  702POPC   C2B11552   2.298  21.687   8.448
  702POPC   C3B11553   2.199  21.863   8.080
  702POPC   C4B11554   2.477  21.907   7.730
  703POPC   NC311555  31.865  24.942   9.329
  703POPC   PO411556  31.469  24.413   9.375
  703POPC   GL111557  31.747  24.240   9.092
  703POPC   GL211558  31.786  24.503   8.881
  703POPC   C1A11559  31.717  23.996   8.732
  703POPC   D2A11560  31.494  24.025   8.366
  703POPC   C3A11561  31.536  24.266   7.993
  703POPC   C4A11562  31.368  24.123   7.603
  703POPC   C1B11563  31.347  24.393   8.694
  703POPC   C2B11564  31.200  24.569   8.275
  703POPC   C3B11565  31.467  24.835   8.038
  703POPC   C4B11566  31.536  24.708   7.638
  704POPC   NC311567  14.857  42.976   9.490
  704POPC   PO411568  15.392  43.129   9.835
  704POPC   GL111569  15.309  43.133   9.312
  704POPC   GL211570  15.050  43.363   9.175
  704POPC   C1A11571  15.238  42.973   8.875
  704POPC   D2A11572  14.935  43.004   8.519
  704POPC   C3A11573  15.093  43.038   8.092
  704POPC   C4A11574  14.866  42.972   7.734
  704POPC   C1B11575  15.194  43.444   8.718
  704POPC   C2B11576  14.970  43.500   8.311
  704POPC   C3B11577  14.804  43.454   7.869
  704POPC   C4B11578  14.797  43.342   7.391
  705POPC   NC311579  22.851  26.481   9.438
  705POPC   PO411580  23.347  26.716   9.674
  705POPC   GL111581  23.219  26.716   9.192
  705POPC   GL211582  22.915  26.942   9.192
  705POPC   C1A11583  23.090  26.652   8.766
  705POPC   D2A11584  23.244  26.728   8.369
  705POPC   C3A11585  22.980  26.739   8.030
  705POPC   C4A11586  22.998  26.934   7.644
  705POPC   C1B11587  22.614  26.797   8.854
  705POPC   C2B11588  22.453  26.715   8.450
  705POPC   C3B11589  22.484  26.821   8.025
  705POPC   C4B11590  22.543  26.670   7.594
  706POPC   NC311591  34.713  16.375   9.507
  706POPC   PO411592  34.256  16.903   9.570
  706POPC   GL111593  34.385  16.674   9.178
  706POPC   GL211594  34.755  16.726   9.111
  706POPC   C1A11595  34.320  16.636   8.722
  706POPC   D2A11596  34.413  16.487   8.309
  706POPC   C3A11597  34.465  16.851   8.038
  706POPC   C4A11598  34.338  16.757   7.661
  706POPC   C1B11599  34.820  16.507   8.743
  706POPC   C2B11600  34.871  16.699   8.337
  706POPC   C3B11601  34.821  16.519   7.910
  706POPC   C4B11602  34.733  16.511   7.464
  707POPC   NC311603  39.226  32.693   9.539
  707POPC   PO411604  39.253  33.321   9.440
  707POPC   GL111605  39.097  33.060   9.112
  707POPC   GL211606  38.889  32.781   9.168
  707POPC   C1A11607  38.949  33.175   8.696
  707POPC   D2A11608  39.234  33.327   8.387
  707POPC   C3A11609  39.172  33.161   7.974
  707POPC   C4A11610  39.399  32.903   7.700
  707POPC   C1B11611  39.030  32.650   8.769
  707POPC   C2B11612  39.243  32.706   8.403
  707POPC   C3B11613  39.106  32.613   8.008
  707POPC   C4B11614  38.868  32.775   7.739
  708POPC   NC311615  23.922  12.735   9.473
  708POPC   PO411616  23.336  13.081   9.299
  708POPC   GL111617  23.672  12.911   9.034
  708POPC   GL211618  23.869  12.610   8.998
  708POPC   C1A11619  23.631  12.833   8.576
  708POPC   D2A11620  23.840  12.681   8.183
  708POPC   C3A11621  23.552  12.650   7.881
  708POPC   C4A11622  23.476  12.966   7.530
  708POPC   C1B11623  24.106  12.677   8.614
  708POPC   C2B11624  24.325  12.530   8.224
  708POPC   C3B11625  24.297  12.709   7.798
  708POPC   C4B11626  24.304  12.886   7.360
  709POPC   NC311627  30.392  19.369   9.156
  709POPC   PO411628  29.852  19.102   9.476
  709POPC   GL111629  29.994  19.065   9.113
  709POPC   GL211630  30.269  18.826   9.128
  709POPC   C1A11631  29.883  19.297   8.756
  709POPC   D2A11632  29.625  19.223   8.437
  709POPC   C3A11633  29.663  18.961   8.100
  709POPC   C4A11634  29.826  19.117   7.734
  709POPC   C1B11635  30.070  18.808   8.699
  709POPC   C2B11636  30.114  19.073   8.333
  709POPC   C3B11637  30.302  19.005   7.930
  709POPC   C4B11638  30.162  18.753   7.567
  710POPC   NC311639  19.688   3.934   9.649
  710POPC   PO411640  20.023   4.495   9.490
  710POPC   GL111641  19.950   4.387   9.099
  710POPC   GL211642  19.780   4.097   9.182
  710POPC   C1A11643  19.952   4.567   8.682
  710POPC   D2A11644  19.638   4.627   8.373
  710POPC   C3A11645  19.702   4.672   7.919
  710POPC   C4A11646  20.147   4.580   7.854
  710POPC   C1B11647  19.620   4.153   8.783
  710POPC   C2B11648  19.884   4.110   8.452
  710POPC   C3B11649  19.779   4.206   8.085
  710POPC   C4B11650  19.630   3.980   7.803
  711POPC   NC311651   9.788  15.316   9.568
  711POPC   PO411652   9.848  14.663   9.559
  711POPC   GL111653   9.903  14.997   9.196
  711POPC   GL211654   9.547  15.122   9.159
  711POPC   C1A11655   9.894  15.295   8.840
  711POPC   D2A11656   9.888  15.159   8.428
  711POPC   C3A11657   9.706  15.286   8.067
  711POPC   C4A11658   9.907  15.227   7.692
  711POPC   C1B11659   9.532  14.938   8.751
  711POPC   C2B11660   9.355  15.013   8.345
  711POPC   C3B11661   9.308  14.847   7.951
  711POPC   C4B11662   9.485  14.953   7.581
  712POPC   NC311663  25.460  35.745   9.446
  712POPC   PO411664  25.409  35.125   9.551
  712POPC   GL111665  25.230  35.080   9.129
  712POPC   GL211666  25.279  35.433   9.097
  712POPC   C1A11667  25.124  35.157   8.696
  712POPC   D2A11668  25.357  35.335   8.358
  712POPC   C3A11669  25.474  35.094   8.005
  712POPC   C4A11670  25.487  35.263   7.600
  712POPC   C1B11671  25.325  35.678   8.745
  712POPC   C2B11672  25.193  35.858   8.361
  712POPC   C3B11673  25.394  35.701   7.995
  712POPC   C4B11674  25.513  35.759   7.610
  713POPC   NC311675  25.158  14.929   9.307
  713POPC   PO411676  24.870  15.384   9.748
  713POPC   GL111677  25.051  15.538   9.278
  713POPC   GL211678  25.371  15.382   9.150
  713POPC   C1A11679  25.025  15.534   8.799
  713POPC   D2A11680  24.993  15.226   8.435
  713POPC   C3A11681  25.092  15.344   8.011
  713POPC   C4A11682  25.117  15.055   7.686
  713POPC   C1B11683  25.413  15.198   8.744
  713POPC   C2B11684  25.522  15.259   8.301
  713POPC   C3B11685  25.552  14.970   7.957
  713POPC   C4B11686  25.576  14.853   7.512
  714POPC   NC311687   2.817  41.328   9.565
  714POPC   PO411688   2.572  41.873   9.719
  714POPC   GL111689   2.604  41.632   9.222
  714POPC   GL211690   2.378  41.371   9.151
  714POPC   C1A11691   2.704  41.332   8.783
  714POPC   D2A11692   2.966  41.319   8.418
  714POPC   C3A11693   2.752  41.251   8.048
  714POPC   C4A11694   2.839  41.436   7.628
  714POPC   C1B11695   2.281  41.596   8.740
  714POPC   C2B11696   2.504  41.614   8.335
  714POPC   C3B11697   2.459  41.687   7.887
  714POPC   C4B11698   2.394  41.614   7.441
  715POPC   NC311699   4.248  15.684   9.348
  715POPC   PO411700   4.144  16.326   9.459
  715POPC   GL111701   4.275  16.250   9.073
  715POPC   GL211702   4.580  16.087   9.138
  715POPC   C1A11703   4.296  16.084   8.687
  715POPC   D2A11704   4.372  16.194   8.283
  715POPC   C3A11705   4.043  16.116   7.990
  715POPC   C4A11706   3.993  15.669   7.813
  715POPC   C1B11707   4.744  15.815   8.793
  715POPC   C2B11708   4.557  15.718   8.397
  715POPC   C3B11709   4.474  15.779   7.966
  715POPC   C4B11710   4.701  15.791   7.594
  716POPC   NC311711   4.491  36.984   9.575
  716POPC   PO411712   3.959  37.276   9.265
  716POPC   GL111713   4.271  37.142   9.095
  716POPC   GL211714   4.194  36.828   9.161
  716POPC   C1A11715   4.311  37.164   8.658
  716POPC   D2A11716   4.358  36.932   8.307
  716POPC   C3A11717   4.452  37.151   7.947
  716POPC   C4A11718   4.247  37.157   7.546
  716POPC   C1B11719   4.426  36.688   8.779
  716POPC   C2B11720   4.543  36.475   8.403
  716POPC   C3B11721   4.498  36.531   7.949
  716POPC   C4B11722   4.871  36.358   7.757
  717POPC   NC311723  44.530  42.176   9.524
  717POPC   PO411724   0.185  42.162   9.487
  717POPC   GL111725  44.885  42.277   9.147
  717POPC   GL211726  44.552  42.070   9.040
  717POPC   C1A11727  44.761  42.474   8.766
  717POPC   D2A11728  44.531  42.386   8.388
  717POPC   C3A11729  44.668  42.593   8.009
  717POPC   C4A11730  44.432  42.531   7.618
  717POPC   C1B11731  44.904  41.831   8.885
  717POPC   C2B11732  44.931  41.830   8.450
  717POPC   C3B11733  44.761  42.058   8.086
  717POPC   C4B11734  44.960  42.259   7.758
  718POPC   NC311735  30.946   4.364   9.449
  718POPC   PO411736  30.321   4.072   9.342
  718POPC   GL111737  30.543   4.430   9.079
  718POPC   GL211738  30.918   4.559   8.991
  718POPC   C1A11739  30.550   4.380   8.652
  718POPC   D2A11740  30.484   3.963   8.480
  718POPC   C3A11741  30.409   4.092   8.103
  718POPC   C4A11742  30.532   4.493   7.902
  718POPC   C1B11743  31.016   4.158   8.749
  718POPC   C2B11744  30.979   3.953   8.299
  718POPC   C3B11745  31.161   4.121   7.895
  718POPC   C4B11746  31.110   4.020   7.415
  719POPC   NC311747  17.770  37.044   9.562
  719POPC   PO411748  17.152  36.794   9.417
  719POPC   GL111749  17.422  36.876   9.081
  719POPC   GL211750  17.801  36.851   9.093
  719POPC   C1A11751  17.551  36.665   8.704
  719POPC   D2A11752  17.534  36.686   8.300
  719POPC   C3A11753  17.173  36.766   8.088
  719POPC   C4A11754  17.336  36.897   7.697
  719POPC   C1B11755  17.693  37.178   8.761
  719POPC   C2B11756  17.797  37.139   8.356
  719POPC   C3B11757  17.798  37.002   7.952
  719POPC   C4B11758  17.587  37.347   7.774
  720POPC   NC311759  14.696   4.574   9.639
  720POPC   PO411760  15.126   4.101   9.601
  720POPC   GL111761  15.227   4.313   9.206
  720POPC   GL211762  14.952   4.570   9.166
  720POPC   C1A11763  15.353   4.188   8.776
  720POPC   D2A11764  15.215   3.984   8.392
  720POPC   C3A11765  15.255   4.176   8.008
  720POPC   C4A11766  15.535   4.143   7.691
  720POPC   C1B11767  15.156   4.671   8.780
  720POPC   C2B11768  15.166   4.536   8.387
  720POPC   C3B11769  15.022   4.623   7.997
  720POPC   C4B11770  15.316   4.667   7.758
  721POPC   NC311771  25.001  37.179   9.390
  721POPC   PO411772  24.469  36.748   9.417
  721POPC   GL111773  24.529  36.940   9.025
  721POPC   GL211774  24.849  36.791   9.076
  721POPC   C1A11775  24.322  36.967   8.596
  721POPC   D2A11776  24.098  36.720   8.269
  721POPC   C3A11777  24.272  36.752   7.852
  721POPC   C4A11778  24.199  37.076   7.564
  721POPC   C1B11779  24.710  36.601   8.674
  721POPC   C2B11780  24.643  36.759   8.237
  721POPC   C3B11781  24.775  36.722   7.797
  721POPC   C4B11782  25.025  36.770   7.401
  722POPC   NC311783  24.000  36.671   9.435
  722POPC   PO411784  23.600  37.192   9.592
  722POPC   GL111785  23.556  37.004   9.157
  722POPC   GL211786  23.456  36.649   9.215
  722POPC   C1A11787  23.704  36.990   8.698
  722POPC   D2A11788  23.558  37.084   8.271
  722POPC   C3A11789  23.804  37.011   7.942
  722POPC   C4A11790  23.649  37.127   7.588
  722POPC   C1B11791  23.363  36.561   8.776
  722POPC   C2B11792  23.586  36.595   8.390
  722POPC   C3B11793  23.522  36.596   7.998
  722POPC   C4B11794  23.402  36.586   7.611
  723POPC   NC311795  32.527  21.501   9.402
  723POPC   PO411796  31.996  21.131   9.501
  723POPC   GL111797  32.015  21.288   9.080
  723POPC   GL211798  32.137  21.618   9.077
  723POPC   C1A11799  31.934  21.448   8.627
  723POPC   D2A11800  32.127  21.580   8.236
  723POPC   C3A11801  32.125  21.259   7.946
  723POPC   C4A11802  32.408  21.015   7.732
  723POPC   C1B11803  32.421  21.451   8.739
  723POPC   C2B11804  32.502  21.229   8.317
  723POPC   C3B11805  32.591  21.489   7.950
  723POPC   C4B11806  32.394  21.882   7.812
  724POPC   NC311807  12.321   7.957   9.473
  724POPC   PO411808  12.172   7.241   9.590
  724POPC   GL111809  11.984   7.249   9.185
  724POPC   GL211810  12.030   7.625   9.158
  724POPC   C1A11811  11.893   7.341   8.770
  724POPC   D2A11812  12.155   7.431   8.438
  724POPC   C3A11813  11.988   7.283   8.081
  724POPC   C4A11814  11.983   7.557   7.776
  724POPC   C1B11815  12.408   7.676   8.836
  724POPC   C2B11816  12.616   7.720   8.438
  724POPC   C3B11817  12.349   7.808   8.060
  724POPC   C4B11818  12.416   7.773   7.578
  725POPC   NC311819  33.403  16.143   9.638
  725POPC   PO411820  32.819  15.718   9.498
  725POPC   GL111821  33.045  15.959   9.223
  725POPC   GL211822  33.143  15.660   9.073
  725POPC   C1A11823  32.917  15.999   8.790
  725POPC   D2A11824  32.586  15.960   8.496
  725POPC   C3A11825  32.644  16.206   8.115
  725POPC   C4A11826  32.939  16.011   7.887
  725POPC   C1B11827  33.276  15.555   8.702
  725POPC   C2B11828  33.072  15.718   8.343
  725POPC   C3B11829  33.257  15.627   7.976
  725POPC   C4B11830  33.234  15.716   7.591
  726POPC   NC311831   8.665   7.105   9.349
  726POPC   PO411832   8.021   7.088   9.492
  726POPC   GL111833   8.172   7.266   9.140
  726POPC   GL211834   7.854   7.455   9.113
  726POPC   C1A11835   8.437   7.336   8.766
  726POPC   D2A11836   8.481   7.697   8.513
  726POPC   C3A11837   8.467   7.596   8.045
  726POPC   C4A11838   8.478   7.202   7.797
  726POPC   C1B11839   7.939   7.407   8.709
  726POPC   C2B11840   8.023   7.548   8.337
  726POPC   C3B11841   7.786   7.388   8.039
  726POPC   C4B11842   8.002   7.436   7.724
  727POPC   NC311843  32.422  16.025   9.492
  727POPC   PO411844  32.196  15.582   9.095
  727POPC   GL111845  32.289  16.038   9.007
  727POPC   GL211846  31.965  16.217   8.999
  727POPC   C1A11847  32.381  16.369   8.719
  727POPC   D2A11848  32.172  16.295   8.329
  727POPC   C3A11849  32.243  15.887   8.128
  727POPC   C4A11850  32.426  15.929   7.727
  727POPC   C1B11851  31.945  15.939   8.616
  727POPC   C2B11852  31.723  15.790   8.257
  727POPC   C3B11853  31.840  15.777   7.855
  727POPC   C4B11854  31.963  16.187   7.731
  728POPC   NC311855   0.955  40.001   9.407
  728POPC   PO411856   1.557  39.782   9.568
  728POPC   GL111857   1.372  39.809   9.159
  728POPC   GL211858   1.357  40.172   9.123
  728POPC   C1A11859   1.065  39.902   8.790
  728POPC   D2A11860   1.119  40.204   8.439
  728POPC   C3A11861   1.116  40.065   8.009
  728POPC   C4A11862   0.753  40.177   7.769
  728POPC   C1B11863   1.548  40.054   8.721
  728POPC   C2B11864   1.681  40.137   8.326
  728POPC   C3B11865   1.588  40.280   7.919
  728POPC   C4B11866   1.485  39.950   7.645
  729POPC   NC311867   0.100  10.344   9.604
  729POPC   PO411868   0.789  10.553   9.560
  729POPC   GL111869   0.625  10.514   9.081
  729POPC   GL211870   0.314  10.191   9.110
  729POPC   C1A11871   0.546  10.718   8.687
  729POPC   D2A11872   0.302  10.731   8.275
  729POPC   C3A11873   0.557  10.759   7.872
  729POPC   C4A11874   0.766  10.635   7.459
  729POPC   C1B11875   0.185  10.364   8.672
  729POPC   C2B11876   0.412  10.224   8.314
  729POPC   C3B11877   0.246  10.356   7.920
  729POPC   C4B11878   0.020  10.732   7.820
  730POPC   NC311879  30.583  38.119   9.547
  730POPC   PO411880  30.936  37.473   9.476
  730POPC   GL111881  30.839  37.795   9.219
  730POPC   GL211882  30.485  37.719   9.260
  730POPC   C1A11883  30.751  37.833   8.788
  730POPC   D2A11884  30.848  37.498   8.512
  730POPC   C3A11885  30.824  37.570   8.093
  730POPC   C4A11886  30.986  37.737   7.722
  730POPC   C1B11887  30.293  37.661   8.892
  730POPC   C2B11888  30.316  37.610   8.471
  730POPC   C3B11889  30.319  37.608   8.050
  730POPC   C4B11890  30.501  37.608   7.660
  731POPC   NC311891  11.760   5.031   9.455
  731POPC   PO411892  11.165   5.302   9.498
  731POPC   GL111893  11.420   5.249   9.106
  731POPC   GL211894  11.461   4.867   9.043
  731POPC   C1A11895  11.410   5.169   8.636
  731POPC   D2A11896  11.433   5.041   8.201
  731POPC   C3A11897  11.190   5.275   7.856
  731POPC   C4A11898  11.437   5.398   7.518
  731POPC   C1B11899  11.158   4.693   8.689
  731POPC   C2B11900  11.108   4.634   8.224
  731POPC   C3B11901  11.232   4.773   7.815
  731POPC   C4B11902  10.979   4.786   7.497
  732POPC   NC311903  15.358  31.499   9.393
  732POPC   PO411904  14.848  31.291   9.252
  732POPC   GL111905  15.081  31.464   8.923
  732POPC   GL211906  15.382  31.268   8.946
  732POPC   C1A11907  15.338  31.551   8.553
  732POPC   D2A11908  15.562  31.480   8.214
  732POPC   C3A11909  15.226  31.519   7.945
  732POPC   C4A11910  15.200  31.608   7.532
  732POPC   C1B11911  15.453  31.024   8.612
  732POPC   C2B11912  15.531  30.968   8.190
  732POPC   C3B11913  15.516  31.124   7.775
  732POPC   C4B11914  15.421  31.178   7.332
  733POPC   NC311915  15.896  20.938   9.431
  733POPC   PO411916  16.096  21.637   9.505
  733POPC   GL111917  15.893  21.474   9.176
  733POPC   GL211918  16.152  21.255   9.032
  733POPC   C1A11919  15.898  21.651   8.772
  733POPC   D2A11920  16.164  21.381   8.500
  733POPC   C3A11921  16.140  21.519   8.073
  733POPC   C4A11922  15.764  21.678   7.829
  733POPC   C1B11923  15.764  21.181   8.754
  733POPC   C2B11924  15.677  21.395   8.340
  733POPC   C3B11925  15.768  21.179   7.938
  733POPC   C4B11926  15.619  21.270   7.521
  734POPC   NC311927  33.303   7.233   9.768
  734POPC   PO411928  32.989   7.784   9.453
  734POPC   GL111929  33.226   7.535   9.167
  734POPC   GL211930  33.357   7.193   9.235
  734POPC   C1A11931  33.028   7.385   8.788
  734POPC   D2A11932  32.772   7.254   8.438
  734POPC   C3A11933  32.876   7.495   8.088
  734POPC   C4A11934  33.014   7.527   7.664
  734POPC   C1B11935  33.503   7.202   8.787
  734POPC   C2B11936  33.283   7.166   8.388
  734POPC   C3B11937  33.149   7.051   7.955
  734POPC   C4B11938  33.184   7.067   7.475
  735POPC   NC311939  37.917  29.583   9.438
  735POPC   PO411940  37.759  28.903   9.502
  735POPC   GL111941  37.634  28.931   9.106
  735POPC   GL211942  37.693  29.290   9.081
  735POPC   C1A11943  37.641  28.970   8.682
  735POPC   D2A11944  37.657  29.181   8.332
  735POPC   C3A11945  37.627  28.926   7.974
  735POPC   C4A11946  37.649  29.012   7.554
  735POPC   C1B11947  37.386  29.421   8.769
  735POPC   C2B11948  37.295  29.546   8.328
  735POPC   C3B11949  37.449  29.403   7.913
  735POPC   C4B11950  37.422  29.468   7.466
  736POPC   NC311951  37.291  34.975   9.497
  736POPC   PO411952  37.975  34.832   9.432
  736POPC   GL111953  37.832  34.497   9.159
  736POPC   GL211954  37.470  34.588   9.164
  736POPC   C1A11955  37.767  34.480   8.715
  736POPC   D2A11956  37.903  34.766   8.406
  736POPC   C3A11957  37.877  34.555   8.028
  736POPC   C4A11958  37.814  34.694   7.611
  736POPC   C1B11959  37.344  34.763   8.770
  736POPC   C2B11960  37.373  34.562   8.369
  736POPC   C3B11961  37.382  34.671   7.939
  736POPC   C4B11962  37.518  34.296   7.735
  737POPC   NC311963  16.494  32.618   9.462
  737POPC   PO411964  16.665  31.957   9.545
  737POPC   GL111965  16.491  32.179   9.197
  737POPC   GL211966  16.810  32.356   9.143
  737POPC   C1A11967  16.451  32.328   8.784
  737POPC   D2A11968  16.727  32.254   8.439
  737POPC   C3A11969  16.595  32.277   8.028
  737POPC   C4A11970  16.390  32.156   7.631
  737POPC   C1B11971  17.067  32.406   8.772
  737POPC   C2B11972  17.123  32.592   8.349
  737POPC   C3B11973  16.969  32.625   7.947
  737POPC   C4B11974  16.800  32.470   7.593
  738POPC   NC311975  32.767  34.066   9.512
  738POPC   PO411976  33.138  33.478   9.424
  738POPC   GL111977  33.199  33.581   9.043
  738POPC   GL211978  33.080  33.910   9.076
  738POPC   C1A11979  32.930  33.584   8.706
  738POPC   D2A11980  32.799  33.711   8.321
  738POPC   C3A11981  33.068  33.570   8.021
  738POPC   C4A11982  32.843  33.458   7.677
  738POPC   C1B11983  32.932  34.108   8.668
  738POPC   C2B11984  33.073  34.125   8.224
  738POPC   C3B11985  32.942  33.995   7.794
  738POPC   C4B11986  33.148  33.929   7.393
  739POPC   NC311987   4.714  18.683   9.360
  739POPC   PO411988   4.947  19.365   9.492
  739POPC   GL111989   5.145  19.236   9.122
  739POPC   GL211990   5.176  18.873   9.117
  739POPC   C1A11991   5.046  19.188   8.717
  739POPC   D2A11992   5.282  19.170   8.349
  739POPC   C3A11993   4.987  19.148   8.041
  739POPC   C4A11994   5.110  19.272   7.693
  739POPC   C1B11995   5.308  18.768   8.669
  739POPC   C2B11996   5.096  18.666   8.299
  739POPC   C3B11997   5.180  18.615   7.880
  739POPC   C4B11998   4.992  18.818   7.566
  740POPC   NC311999  17.484   5.595   9.442
  740POPC   PO412000  17.321   6.179   9.709
  740POPC   GL112001  17.296   6.029   9.261
  740POPC   GL212002  17.624   6.074   9.145
  740POPC   C1A12003  17.297   5.862   8.800
  740POPC   D2A12004  17.255   6.048   8.358
  740POPC   C3A12005  17.392   5.892   7.949
  740POPC   C4A12006  17.292   5.823   7.508
  740POPC   C1B12007  17.775   6.024   8.705
  740POPC   C2B12008  17.780   6.111   8.245
  740POPC   C3B12009  17.885   5.832   7.897
  740POPC   C4B12010  17.800   5.807   7.478
  741POPC   NC312011  34.292  21.078   9.534
  741POPC   PO412012  34.358  21.763   9.491
  741POPC   GL112013  34.546  21.546   9.126
  741POPC   GL212014  34.538  21.180   9.107
  741POPC   C1A12015  34.677  21.458   8.667
  741POPC   D2A12016  34.713  21.465   8.188
  741POPC   C3A12017  34.403  21.496   7.938
  741POPC   C4A12018  34.613  21.505   7.556
  741POPC   C1B12019  34.477  20.967   8.722
  741POPC   C2B12020  34.326  21.186   8.363
  741POPC   C3B12021  34.257  20.995   7.983
  741POPC   C4B12022  34.247  21.161   7.545
  742POPC   NC312023  35.128  42.199   9.696
  742POPC   PO412024  34.569  42.614   9.337
  742POPC   GL112025  34.534  42.288   9.146
  742POPC   GL212026  34.849  42.070   9.190
  742POPC   C1A12027  34.304  42.217   8.810
  742POPC   D2A12028  34.436  42.329   8.449
  742POPC   C3A12029  34.457  42.194   8.044
  742POPC   C4A12030  34.751  42.414   7.773
  742POPC   C1B12031  34.861  42.225   8.761
  742POPC   C2B12032  34.800  41.985   8.411
  742POPC   C3B12033  34.971  42.037   8.034
  742POPC   C4B12034  34.863  41.916   7.647
  743POPC   NC312035  14.911  34.859   9.470
  743POPC   PO412036  15.075  34.220   9.386
  743POPC   GL112037  15.096  34.566   9.089
  743POPC   GL212038  15.319  34.847   9.158
  743POPC   C1A12039  15.084  34.710   8.682
  743POPC   D2A12040  15.098  34.505   8.295
  743POPC   C3A12041  14.855  34.543   7.927
  743POPC   C4A12042  14.959  34.649   7.519
  743POPC   C1B12043  15.491  34.992   8.746
  743POPC   C2B12044  15.412  34.882   8.328
  743POPC   C3B12045  15.280  34.831   7.910
  743POPC   C4B12046  15.454  34.998   7.560
  744POPC   NC312047  38.920  26.687   9.547
  744POPC   PO412048  39.432  26.355   9.705
  744POPC   GL112049  39.348  26.651   9.254
  744POPC   GL212050  39.084  26.908   9.133
  744POPC   C1A12051  39.393  26.721   8.800
  744POPC   D2A12052  39.294  26.947   8.463
  744POPC   C3A12053  39.309  26.790   8.091
  744POPC   C4A12054  39.417  26.871   7.706
  744POPC   C1B12055  38.880  26.599   8.822
  744POPC   C2B12056  38.617  26.430   8.500
  744POPC   C3B12057  38.757  26.488   8.099
  744POPC   C4B12058  38.988  26.591   7.741
  745POPC   NC312059  32.017   8.587   9.477
  745POPC   PO412060  32.294   7.913   9.446
  745POPC   GL112061  32.348   8.305   9.178
  745POPC   GL212062  32.707   8.485   9.154
  745POPC   C1A12063  32.038   8.305   8.820
  745POPC   D2A12064  31.939   8.059   8.444
  745POPC   C3A12065  31.973   8.278   8.067
  745POPC   C4A12066  32.192   8.271   7.667
  745POPC   C1B12067  32.656   8.328   8.763
  745POPC   C2B12068  32.405   8.296   8.448
  745POPC   C3B12069  32.445   8.134   8.098
  745POPC   C4B12070  32.576   7.842   7.839
  746POPC   NC312071   2.551   3.612   9.429
  746POPC   PO412072   2.936   3.025   9.306
  746POPC   GL112073   2.847   3.374   9.086
  746POPC   GL212074   2.509   3.259   9.052
  746POPC   C1A12075   2.748   3.601   8.727
  746POPC   D2A12076   2.976   3.737   8.395
  746POPC   C3A12077   2.781   3.651   8.004
  746POPC   C4A12078   2.993   3.856   7.697
  746POPC   C1B12079   2.636   3.097   8.666
  746POPC   C2B12080   2.766   3.218   8.263
  746POPC   C3B12081   2.434   3.231   7.933
  746POPC   C4B12082   2.444   3.306   7.524
  747POPC   NC312083   5.485  16.161   9.382
  747POPC   PO412084   6.149  15.949   9.522
  747POPC   GL112085   5.897  15.970   9.135
  747POPC   GL212086   6.006  15.649   9.091
  747POPC   C1A12087   5.668  16.155   8.725
  747POPC   D2A12088   5.522  16.053   8.257
  747POPC   C3A12089   5.895  16.053   7.914
  747POPC   C4A12090   5.903  16.231   7.516
  747POPC   C1B12091   5.769  15.654   8.746
  747POPC   C2B12092   5.925  15.791   8.367
  747POPC   C3B12093   5.799  15.578   7.980
  747POPC   C4B12094   5.925  15.708   7.521
  748POPC   NC312095  39.629   4.237   9.145
  748POPC   PO412096  39.977   4.625   9.611
  748POPC   GL112097  40.133   4.459   9.173
  748POPC   GL212098  40.238   4.099   9.139
  748POPC   C1A12099  40.079   4.418   8.699
  748POPC   D2A12100  39.780   4.545   8.364
  748POPC   C3A12101  39.885   4.396   7.953
  748POPC   C4A12102  40.288   4.530   7.836
  748POPC   C1B12103  40.372   3.986   8.703
  748POPC   C2B12104  40.350   4.166   8.249
  748POPC   C3B12105  40.200   3.992   7.833
  748POPC   C4B12106  40.351   3.968   7.357
  749POPC   NC312107   1.705   7.375   9.465
  749POPC   PO412108   2.139   7.889   9.424
  749POPC   GL112109   1.942   7.655   9.133
  749POPC   GL212110   2.169   7.367   9.183
  749POPC   C1A12111   1.799   7.386   8.784
  749POPC   D2A12112   1.825   7.182   8.387
  749POPC   C3A12113   1.831   7.319   7.957
  749POPC   C4A12114   1.553   7.270   7.604
  749POPC   C1B12115   2.307   7.569   8.798
  749POPC   C2B12116   2.249   7.500   8.382
  749POPC   C3B12117   2.287   7.110   8.187
  749POPC   C4B12118   2.289   7.024   7.748
  750POPC   NC312119   2.445   7.072   9.549
  750POPC   PO412120   2.374   6.420   9.488
  750POPC   GL112121   2.642   6.559   9.149
  750POPC   GL212122   2.987   6.687   9.191
  750POPC   C1A12123   2.573   6.642   8.735
  750POPC   D2A12124   2.756   6.589   8.331
  750POPC   C3A12125   2.487   6.628   7.985
  750POPC   C4A12126   2.698   6.730   7.584
  750POPC   C1B12127   3.065   6.777   8.744
  750POPC   C2B12128   3.144   6.928   8.318
  750POPC   C3B12129   3.106   6.761   7.916
  750POPC   C4B12130   3.257   6.651   7.522
  751POPC   NC312131  12.522   4.409   9.402
  751POPC   PO412132  13.088   4.583   9.697
  751POPC   GL112133  13.085   4.409   9.188
  751POPC   GL212134  13.070   4.061   8.998
  751POPC   C1A12135  12.836   4.443   8.773
  751POPC   D2A12136  12.850   4.577   8.353
  751POPC   C3A12137  12.786   4.278   8.017
  751POPC   C4A12138  12.807   4.433   7.613
  751POPC   C1B12139  13.088   4.094   8.502
  751POPC   C2B12140  13.339   4.010   8.128
  751POPC   C3B12141  13.243   3.889   7.695
  751POPC   C4B12142  13.054   4.076   7.304
  752POPC   NC312143   7.191  17.931   9.747
  752POPC   PO412144   7.344  17.266   9.534
  752POPC   GL112145   7.307  17.506   9.193
  752POPC   GL212146   7.461  17.827   9.236
  752POPC   C1A12147   7.434  17.382   8.797
  752POPC   D2A12148   7.254  17.554   8.464
  752POPC   C3A12149   7.457  17.505   8.099
  752POPC   C4A12150   7.333  17.521   7.677
  752POPC   C1B12151   7.758  17.755   8.925
  752POPC   C2B12152   7.782  17.628   8.505
  752POPC   C3B12153   7.830  17.858   8.144
  752POPC   C4B12154   7.790  17.679   7.756
  753POPC   NC312155   0.784  10.140   9.341
  753POPC   PO412156   0.257   9.836   9.509
  753POPC   GL112157   0.531   9.717   9.125
  753POPC   GL212158   0.676   9.979   8.854
  753POPC   C1A12159   0.638   9.490   8.750
  753POPC   D2A12160   0.543   9.690   8.377
  753POPC   C3A12161   0.489   9.463   8.041
  753POPC   C4A12162   0.653   9.516   7.659
  753POPC   C1B12163   0.223   9.881   8.722
  753POPC   C2B12164  44.944  10.000   8.364
  753POPC   C3B12165   0.163   9.862   8.033
  753POPC   C4B12166   0.573   9.963   7.894
  754POPC   NC312167  35.290  27.114   9.659
  754POPC   PO412168  35.382  27.854   9.519
  754POPC   GL112169  35.295  27.754   9.115
  754POPC   GL212170  35.580  27.960   9.046
  754POPC   C1A12171  35.343  27.390   8.830
  754POPC   D2A12172  35.558  27.363   8.420
  754POPC   C3A12173  35.331  27.435   8.024
  754POPC   C4A12174  35.506  27.359   7.596
  754POPC   C1B12175  35.504  27.833   8.656
  754POPC   C2B12176  35.335  27.873   8.295
  754POPC   C3B12177  35.491  27.898   7.910
  754POPC   C4B12178  35.248  27.782   7.591
  755POPC   NC312179  29.151  42.733   9.468
  755POPC   PO412180  29.126  43.355   9.423
  755POPC   GL112181  28.988  43.145   9.081
  755POPC   GL212182  29.267  42.965   9.043
  755POPC   C1A12183  28.862  43.332   8.704
  755POPC   D2A12184  29.033  43.279   8.304
  755POPC   C3A12185  28.877  43.526   7.982
  755POPC   C4A12186  28.956  43.261   7.684
  755POPC   C1B12187  29.325  43.084   8.663
  755POPC   C2B12188  29.563  43.016   8.318
  755POPC   C3B12189  29.453  42.977   7.912
  755POPC   C4B12190  29.696  42.887   7.578
  756POPC   NC312191  35.871  10.526   9.526
  756POPC   PO412192  36.449  10.130   9.661
  756POPC   GL112193  36.350  10.475   9.289
  756POPC   GL212194  36.196  10.833   9.228
  756POPC   C1A12195  36.259  10.522   8.807
  756POPC   D2A12196  36.005  10.320   8.447
  756POPC   C3A12197  36.096  10.493   8.035
  756POPC   C4A12198  36.029  10.338   7.609
  756POPC   C1B12199  35.981  10.984   8.839
  756POPC   C2B12200  36.124  10.861   8.421
  756POPC   C3B12201  35.993  11.037   8.030
  756POPC   C4B12202  35.874  10.827   7.678
  757POPC   NC312203  11.305  36.550   9.407
  757POPC   PO412204  11.062  37.210   9.434
  757POPC   GL112205  10.950  37.018   9.083
  757POPC   GL212206  11.261  36.874   9.032
  757POPC   C1A12207  11.045  37.103   8.664
  757POPC   D2A12208  11.261  37.157   8.312
  757POPC   C3A12209  11.314  36.966   7.951
  757POPC   C4A12210  11.255  36.531   7.894
  757POPC   C1B12211  11.474  36.814   8.658
  757POPC   C2B12212  11.543  36.619   8.291
  757POPC   C3B12213  11.742  36.709   7.943
  757POPC   C4B12214  11.681  36.555   7.585
  758POPC   NC312215  22.292   1.703   9.436
  758POPC   PO412216  21.956   2.355   9.505
  758POPC   GL112217  22.002   2.046   9.166
  758POPC   GL212218  21.727   2.189   8.997
  758POPC   C1A12219  22.207   2.091   8.761
  758POPC   D2A12220  22.068   2.294   8.381
  758POPC   C3A12221  22.112   2.094   7.967
  758POPC   C4A12222  22.395   1.798   7.720
  758POPC   C1B12223  21.796   1.824   8.710
  758POPC   C2B12224  22.019   1.754   8.337
  758POPC   C3B12225  21.944   1.608   7.893
  758POPC   C4B12226  21.763   1.662   7.477
  759POPC   NC312227   2.721  16.102   9.532
  759POPC   PO412228   2.232  15.580   9.597
  759POPC   GL112229   2.377  15.680   9.125
  759POPC   GL212230   2.729  15.753   9.111
  759POPC   C1A12231   2.464  15.950   8.717
  759POPC   D2A12232   2.705  16.124   8.395
  759POPC   C3A12233   2.562  16.151   7.980
  759POPC   C4A12234   2.645  15.888   7.652
  759POPC   C1B12235   2.984  15.980   8.837
  759POPC   C2B12236   3.187  15.917   8.445
  759POPC   C3B12237   3.110  16.058   8.033
  759POPC   C4B12238   3.158  15.908   7.637
  760POPC   NC312239  30.134  30.353   9.712
  760POPC   PO412240  29.604  30.701   9.590
  760POPC   GL112241  29.821  30.676   9.206
  760POPC   GL212242  30.133  30.498   9.197
  760POPC   C1A12243  29.769  30.588   8.782
  760POPC   D2A12244  29.703  30.732   8.379
  760POPC   C3A12245  29.860  30.498   8.056
  760POPC   C4A12246  29.856  30.677   7.662
  760POPC   C1B12247  30.253  30.724   8.779
  760POPC   C2B12248  30.292  30.586   8.339
  760POPC   C3B12249  30.326  30.611   7.898
  760POPC   C4B12250  30.328  30.866   7.545
  761POPC   NC312251  37.260   5.914   9.499
  761POPC   PO412252  36.721   6.193   9.634
  761POPC   GL112253  36.656   5.915   9.240
  761POPC   GL212254  36.914   5.652   9.206
  761POPC   C1A12255  36.561   5.709   8.820
  761POPC   D2A12256  36.500   5.845   8.386
  761POPC   C3A12257  36.514   5.583   7.998
  761POPC   C4A12258  36.521   5.568   7.477
  761POPC   C1B12259  37.046   5.518   8.810
  761POPC   C2B12260  36.837   5.426   8.424
  761POPC   C3B12261  37.069   5.440   8.074
  761POPC   C4B12262  37.250   5.128   7.755
  762POPC   NC312263  38.204  15.686   9.592
  762POPC   PO412264  38.632  16.176   9.541
  762POPC   GL112265  38.453  15.913   9.216
  762POPC   GL212266  38.062  15.981   9.177
  762POPC   C1A12267  38.393  15.834   8.797
  762POPC   D2A12268  38.520  16.074   8.460
  762POPC   C3A12269  38.446  15.901   8.080
  762POPC   C4A12270  38.716  15.779   7.745
  762POPC   C1B12271  38.258  16.328   8.940
  762POPC   C2B12272  38.309  16.559   8.557
  762POPC   C3B12273  38.487  16.482   8.138
  762POPC   C4B12274  38.353  16.277   7.754
  763POPC   NC312275  25.165   7.072   9.484
  763POPC   PO412276  25.458   6.425   9.374
  763POPC   GL112277  25.356   6.764   9.116
  763POPC   GL212278  25.022   6.827   9.064
  763POPC   C1A12279  25.412   6.956   8.735
  763POPC   D2A12280  25.166   6.902   8.399
  763POPC   C3A12281  25.394   6.857   8.053
  763POPC   C4A12282  25.518   6.520   7.809
  763POPC   C1B12283  24.737   6.758   8.762
  763POPC   C2B12284  24.657   6.880   8.390
  763POPC   C3B12285  24.837   6.706   8.041
  763POPC   C4B12286  25.068   6.709   7.708
  764POPC   NC312287  10.875  38.211   9.368
  764POPC   PO412288  10.242  38.495   9.350
  764POPC   GL112289  10.604  38.513   9.080
  764POPC   GL212290  10.818  38.803   9.001
  764POPC   C1A12291  10.660  38.409   8.681
  764POPC   D2A12292  10.557  38.137   8.378
  764POPC   C3A12293  10.546  38.344   8.014
  764POPC   C4A12294  10.815  38.608   7.843
  764POPC   C1B12295  10.427  38.849   8.766
  764POPC   C2B12296  10.279  38.636   8.390
  764POPC   C3B12297  10.228  38.762   7.967
  764POPC   C4B12298   9.871  38.928   7.720
  765POPC   NC312299  39.647  36.190   9.524
  765POPC   PO412300  39.024  36.389   9.477
  765POPC   GL112301  39.312  36.251   9.139
  765POPC   GL212302  39.408  35.878   9.175
  765POPC   C1A12303  39.463  36.144   8.724
  765POPC   D2A12304  39.224  36.209   8.346
  765POPC   C3A12305  39.503  36.152   8.012
  765POPC   C4A12306  39.515  36.020   7.603
  765POPC   C1B12307  39.037  35.856   8.869
  765POPC   C2B12308  38.888  35.738   8.439
  765POPC   C3B12309  39.054  35.837   8.018
  765POPC   C4B12310  39.070  35.702   7.591
  766POPC   NC312311   1.141  36.874   9.261
  766POPC   PO412312   1.640  37.170   9.316
  766POPC   GL112313   1.431  37.258   8.957
  766POPC   GL212314   1.107  37.388   9.074
  766POPC   C1A12315   1.404  36.931   8.613
  766POPC   D2A12316   1.020  36.659   8.503
  766POPC   C3A12317   1.061  36.531   8.075
  766POPC   C4A12318   1.426  36.581   7.834
  766POPC   C1B12319   0.988  37.217   8.684
  766POPC   C2B12320   1.060  37.118   8.257
  766POPC   C3B12321   0.945  37.215   7.840
  766POPC   C4B12322   1.269  37.009   7.644
  767POPC   NC312323   9.895  22.810   9.498
  767POPC   PO412324   9.798  23.453   9.405
  767POPC   GL112325   9.905  23.170   9.111
  767POPC   GL212326   9.564  23.057   9.109
  767POPC   C1A12327   9.885  22.863   8.764
  767POPC   D2A12328  10.004  22.925   8.342
  767POPC   C3A12329   9.987  22.603   8.051
  767POPC   C4A12330   9.809  22.669   7.658
  767POPC   C1B12331   9.343  22.893   8.782
  767POPC   C2B12332   9.376  23.055   8.360
  767POPC   C3B12333   9.529  22.957   7.993
  767POPC   C4B12334   9.346  22.935   7.591
  768POPC   NC312335  40.514  26.430   9.665
  768POPC   PO412336  40.985  26.846   9.344
  768POPC   GL112337  40.711  26.883   9.071
  768POPC   GL212338  40.550  26.578   9.114
  768POPC   C1A12339  40.829  26.790   8.694
  768POPC   D2A12340  40.681  26.779   8.344
  768POPC   C3A12341  40.998  26.788   8.078
  768POPC   C4A12342  40.923  26.929   7.703
  768POPC   C1B12343  40.362  26.544   8.693
  768POPC   C2B12344  40.235  26.544   8.242
  768POPC   C3B12345  40.488  26.701   7.877
  768POPC   C4B12346  40.719  26.465   7.573
  769POPC   NC312347  42.260  23.208   9.592
  769POPC   PO412348  41.925  22.575   9.445
  769POPC   GL112349  42.160  22.839   9.094
  769POPC   GL212350  42.191  23.223   9.097
  769POPC   C1A12351  42.255  22.914   8.633
  769POPC   D2A12352  42.446  23.059   8.235
  769POPC   C3A12353  42.340  22.816   7.888
  769POPC   C4A12354  42.208  22.513   7.639
  769POPC   C1B12355  41.865  23.185   8.796
  769POPC   C2B12356  41.788  23.002   8.390
  769POPC   C3B12357  41.946  23.117   7.998
  769POPC   C4B12358  42.092  23.178   7.587
  770POPC   NC312359  20.967  11.128   9.212
  770POPC   PO412360  21.522  11.146   9.567
  770POPC   GL112361  21.521  11.211   9.119
  770POPC   GL212362  21.431  11.551   9.091
  770POPC   C1A12363  21.390  11.221   8.668
  770POPC   D2A12364  21.531  11.469   8.302
  770POPC   C3A12365  21.390  11.231   7.931
  770POPC   C4A12366  21.017  10.984   7.836
  770POPC   C1B12367  21.105  11.633   8.763
  770POPC   C2B12368  21.009  11.506   8.320
  770POPC   C3B12369  21.161  11.701   7.936
  770POPC   C4B12370  21.599  11.679   7.780
  771POPC   NC312371   3.804  36.988   9.577
  771POPC   PO412372   3.113  36.816   9.538
  771POPC   GL112373   3.388  37.054   9.267
  771POPC   GL212374   3.648  36.792   9.131
  771POPC   C1A12375   3.399  37.143   8.828
  771POPC   D2A12376   3.394  36.776   8.563
  771POPC   C3A12377   3.348  36.906   8.158
  771POPC   C4A12378   3.521  37.122   7.864
  771POPC   C1B12379   3.874  36.896   8.749
  771POPC   C2B12380   3.855  37.011   8.329
  771POPC   C3B12381   3.995  36.862   7.943
  771POPC   C4B12382   3.688  36.620   7.791
  772POPC   NC312383  31.416  31.333   9.861
  772POPC   PO412384  31.675  31.905   9.466
  772POPC   GL112385  31.607  31.505   9.238
  772POPC   GL212386  31.254  31.451   9.202
  772POPC   C1A12387  31.528  31.281   8.829
  772POPC   D2A12388  31.721  31.311   8.435
  772POPC   C3A12389  31.479  31.212   8.058
  772POPC   C4A12390  31.624  31.345   7.676
  772POPC   C1B12391  31.342  31.765   8.812
  772POPC   C2B12392  31.302  31.592   8.387
  772POPC   C3B12393  31.216  31.641   7.940
  772POPC   C4B12394  31.353  31.758   7.541
  773POPC   NC312395   2.702  34.777   9.611
  773POPC   PO412396   3.240  34.419   9.368
  773POPC   GL112397   2.805  34.452   9.202
  773POPC   GL212398   2.554  34.177   9.226
  773POPC   C1A12399   2.586  34.608   8.851
  773POPC   D2A12400   2.720  34.775   8.464
  773POPC   C3A12401   2.733  34.500   8.099
  773POPC   C4A12402   2.721  34.746   7.736
  773POPC   C1B12403   2.350  34.137   8.814
  773POPC   C2B12404   2.320  34.402   8.423
  773POPC   C3B12405   2.288  34.281   8.003
  773POPC   C4B12406   2.468  34.343   7.620
  774POPC   NC312407  44.938  18.451   9.533
  774POPC   PO412408  44.604  17.854   9.580
  774POPC   GL112409  44.692  18.125   9.199
  774POPC   GL212410   0.006  18.081   9.173
  774POPC   C1A12411  44.527  18.143   8.756
  774POPC   D2A12412  44.485  18.482   8.464
  774POPC   C3A12413  44.422  18.446   8.034
  774POPC   C4A12414  44.702  18.648   7.766
  774POPC   C1B12415   0.001  18.254   8.762
  774POPC   C2B12416  44.878  18.156   8.375
  774POPC   C3B12417  44.929  18.267   7.999
  774POPC   C4B12418  44.670  18.053   7.752
  775POPC   NC312419  18.662  18.482   9.251
  775POPC   PO412420  19.241  18.496   9.539
  775POPC   GL112421  19.210  18.377   9.114
  775POPC   GL212422  18.991  18.544   8.858
  775POPC   C1A12423  19.424  18.310   8.717
  775POPC   D2A12424  19.109  18.279   8.393
  775POPC   C3A12425  19.186  18.149   8.002
  775POPC   C4A12426  18.944  17.989   7.720
  775POPC   C1B12427  18.661  18.265   8.648
  775POPC   C2B12428  18.547  18.352   8.254
  775POPC   C3B12429  18.854  18.531   7.996
  775POPC   C4B12430  18.998  18.523   7.604
  776POPC   NC312431  18.051  18.516   9.566
  776POPC   PO412432  18.535  18.062   9.430
  776POPC   GL112433  18.219  18.256   9.150
  776POPC   GL212434  17.981  18.032   9.083
  776POPC   C1A12435  18.172  18.453   8.729
  776POPC   D2A12436  17.981  18.502   8.304
  776POPC   C3A12437  18.192  18.526   7.915
  776POPC   C4A12438  18.504  18.277   7.745
  776POPC   C1B12439  18.294  17.904   8.788
  776POPC   C2B12440  18.198  18.014   8.409
  776POPC   C3B12441  18.112  18.020   8.012
  776POPC   C4B12442  17.994  17.931   7.628
  777POPC   NC312443  40.870  25.434   9.793
  777POPC   PO412444  40.834  26.115   9.824
  777POPC   GL112445  40.887  26.225   9.365
  777POPC   GL212446  40.554  26.097   9.266
  777POPC   C1A12447  41.004  26.351   8.921
  777POPC   D2A12448  41.046  26.380   8.453
  777POPC   C3A12449  40.779  26.319   8.093
  777POPC   C4A12450  40.898  26.030   7.800
  777POPC   C1B12451  40.576  26.105   8.833
  777POPC   C2B12452  40.629  25.975   8.427
  777POPC   C3B12453  40.737  25.655   8.130
  777POPC   C4B12454  40.666  25.602   7.693
  778POPC   NC312455  18.477  41.725   9.594
  778POPC   PO412456  17.905  41.335   9.323
  778POPC   GL112457  18.220  41.300   9.065
  778POPC   GL212458  18.316  41.635   9.124
  778POPC   C1A12459  18.169  41.326   8.624
  778POPC   D2A12460  18.114  41.137   8.195
  778POPC   C3A12461  18.282  41.423   7.877
  778POPC   C4A12462  18.208  41.505   7.440
  778POPC   C1B12463  18.361  41.843   8.755
  778POPC   C2B12464  18.406  41.691   8.323
  778POPC   C3B12465  18.510  41.933   7.939
  778POPC   C4B12466  18.779  41.828   7.601
  779POPC   NC312467   1.695  28.018   9.523
  779POPC   PO412468   1.983  28.688   9.562
  779POPC   GL112469   1.863  28.601   9.086
  779POPC   GL212470   1.796  28.212   9.061
  779POPC   C1A12471   2.023  28.628   8.671
  779POPC   D2A12472   2.389  28.449   8.489
  779POPC   C3A12473   2.241  28.429   8.095
  779POPC   C4A12474   1.921  28.652   7.835
  779POPC   C1B12475   2.092  28.111   8.763
  779POPC   C2B12476   1.893  28.190   8.411
  779POPC   C3B12477   1.811  28.082   8.027
  779POPC   C4B12478   2.106  28.096   7.723
  780POPC   NC312479  19.888  31.247   9.522
  780POPC   PO412480  19.845  31.841   9.530
  780POPC   GL112481  19.657  31.689   9.112
  780POPC   GL212482  19.645  31.360   9.092
  780POPC   C1A12483  19.602  31.613   8.636
  780POPC   D2A12484  19.928  31.644   8.298
  780POPC   C3A12485  19.926  31.453   7.887
  780POPC   C4A12486  19.748  31.412   7.435
  780POPC   C1B12487  19.554  31.115   8.737
  780POPC   C2B12488  19.695  31.174   8.312
  780POPC   C3B12489  19.585  31.072   7.882
  780POPC   C4B12490  19.967  30.999   7.648
  781POPC   NC312491  20.757  30.885   9.610
  781POPC   PO412492  20.133  30.874   9.429
  781POPC   GL112493  20.432  30.782   9.124
  781POPC   GL212494  20.800  30.800   9.121
  781POPC   C1A12495  20.493  30.915   8.711
  781POPC   D2A12496  20.677  30.742   8.376
  781POPC   C3A12497  20.468  30.709   8.035
  781POPC   C4A12498  20.609  30.424   7.740
  781POPC   C1B12499  21.041  30.768   8.761
  781POPC   C2B12500  21.116  30.982   8.365
  781POPC   C3B12501  20.909  31.050   7.967
  781POPC   C4B12502  20.963  30.803   7.633
  782POPC   NC312503  17.698   6.426   9.575
  782POPC   PO412504  17.177   6.882   9.521
  782POPC   GL112505  17.436   6.881   9.201
  782POPC   GL212506  17.401   6.540   9.170
  782POPC   C1A12507  17.519   6.880   8.770
  782POPC   D2A12508  17.276   6.981   8.441
  782POPC   C3A12509  17.500   6.970   8.095
  782POPC   C4A12510  17.344   6.957   7.714
  782POPC   C1B12511  17.362   6.378   8.762
  782POPC   C2B12512  17.465   6.514   8.353
  782POPC   C3B12513  17.358   6.460   7.927
  782POPC   C4B12514  17.644   6.246   7.666
  783POPC   NC312515  27.936  26.948   9.458
  783POPC   PO412516  27.344  26.732   9.698
  783POPC   GL112517  27.621  26.652   9.217
  783POPC   GL212518  27.620  26.984   9.028
  783POPC   C1A12519  27.516  26.608   8.717
  783POPC   D2A12520  27.383  26.844   8.362
  783POPC   C3A12521  27.548  26.603   8.030
  783POPC   C4A12522  27.612  26.516   7.615
  783POPC   C1B12523  27.820  26.998   8.593
  783POPC   C2B12524  27.774  27.135   8.153
  783POPC   C3B12525  27.744  26.996   7.731
  783POPC   C4B12526  27.656  27.153   7.297
  784POPC   NC312527   4.881  43.184   9.504
  784POPC   PO412528   5.551  42.820   9.386
  784POPC   GL112529   5.225  43.018   9.181
  784POPC   GL212530   5.361  43.307   8.991
  784POPC   C1A12531   4.906  43.004   8.847
  784POPC   D2A12532   4.971  42.850   8.415
  784POPC   C3A12533   4.825  43.084   8.039
  784POPC   C4A12534   4.983  43.250   7.635
  784POPC   C1B12535   5.400  42.948   8.706
  784POPC   C2B12536   5.487  42.834   8.270
  784POPC   C3B12537   5.287  42.923   7.866
  784POPC   C4B12538   5.314  42.999   7.346
  785POPC   NC312539   2.462  11.562   9.490
  785POPC   PO412540   1.844  11.169   9.414
  785POPC   GL112541   2.046  11.447   9.168
  785POPC   GL212542   1.749  11.513   8.969
  785POPC   C1A12543   2.294  11.516   8.797
  785POPC   D2A12544   2.230  11.324   8.400
  785POPC   C3A12545   2.187  11.636   8.078
  785POPC   C4A12546   2.036  11.399   7.762
  785POPC   C1B12547   1.585  11.181   8.715
  785POPC   C2B12548   1.506  11.254   8.305
  785POPC   C3B12549   1.572  11.081   7.923
  785POPC   C4B12550   1.595  11.330   7.574
  786POPC   NC312551  32.553   7.524   9.338
  786POPC   PO412552  31.906   7.242   9.541
  786POPC   GL112553  32.146   7.255   9.180
  786POPC   GL212554  32.102   7.612   9.070
  786POPC   C1A12555  32.318   7.263   8.769
  786POPC   D2A12556  32.306   7.037   8.432
  786POPC   C3A12557  32.394   7.308   8.075
  786POPC   C4A12558  32.544   7.365   7.700
  786POPC   C1B12559  32.352   7.859   8.769
  786POPC   C2B12560  32.422   7.713   8.371
  786POPC   C3B12561  32.108   7.758   8.045
  786POPC   C4B12562  31.952   7.823   7.636
  787POPC   NC312563  23.550   8.009   9.449
  787POPC   PO412564  24.034   8.456   9.426
  787POPC   GL112565  23.889   8.189   9.068
  787POPC   GL212566  23.508   8.184   8.988
  787POPC   C1A12567  23.873   8.183   8.615
  787POPC   D2A12568  23.591   8.103   8.275
  787POPC   C3A12569  23.817   8.241   7.941
  787POPC   C4A12570  23.980   8.028   7.600
  787POPC   C1B12571  23.523   8.530   8.745
  787POPC   C2B12572  23.655   8.610   8.329
  787POPC   C3B12573  23.367   8.526   7.985
  787POPC   C4B12574  23.408   8.244   7.656
  788POPC   NC312575   8.666  23.092   9.500
  788POPC   PO412576   9.375  22.900   9.532
  788POPC   GL112577   9.051  22.861   9.238
  788POPC   GL212578   9.017  23.188   9.115
  788POPC   C1A12579   8.779  22.801   8.868
  788POPC   D2A12580   8.908  22.914   8.475
  788POPC   C3A12581   9.042  22.726   8.077
  788POPC   C4A12582   8.830  22.798   7.667
  788POPC   C1B12583   9.134  23.352   8.717
  788POPC   C2B12584   8.952  23.386   8.307
  788POPC   C3B12585   9.018  23.215   7.920
  788POPC   C4B12586   8.689  23.319   7.657
  789POPC   NC312587  12.445   3.420   9.275
  789POPC   PO412588  12.075   3.929   9.613
  789POPC   GL112589  12.032   3.706   9.192
  789POPC   GL212590  11.979   3.370   9.030
  789POPC   C1A12591  11.976   3.863   8.784
  789POPC   D2A12592  12.126   3.848   8.372
  789POPC   C3A12593  11.920   3.502   8.158
  789POPC   C4A12594  11.862   3.564   7.738
  789POPC   C1B12595  12.282   3.469   8.682
  789POPC   C2B12596  12.408   3.408   8.297
  789POPC   C3B12597  12.372   3.580   7.922
  789POPC   C4B12598  12.450   3.463   7.531
  790POPC   NC312599   2.409  31.457   9.417
  790POPC   PO412600   3.081  31.380   9.286
  790POPC   GL112601   2.753  31.252   9.116
  790POPC   GL212602   2.697  31.583   8.959
  790POPC   C1A12603   2.703  31.053   8.764
  790POPC   D2A12604   2.853  31.265   8.446
  790POPC   C3A12605   2.668  31.109   8.111
  790POPC   C4A12606   2.733  31.238   7.703
  790POPC   C1B12607   3.096  31.662   8.703
  790POPC   C2B12608   3.109  31.664   8.280
  790POPC   C3B12609   2.758  31.612   8.041
  790POPC   C4B12610   3.028  31.677   7.726
  791POPC   NC312611  21.458  20.650   9.617
  791POPC   PO412612  21.014  20.696   9.152
  791POPC   GL112613  21.452  20.741   9.096
  791POPC   GL212614  21.536  21.090   9.209
  791POPC   C1A12615  21.483  20.561   8.674
  791POPC   D2A12616  21.411  20.349   8.285
  791POPC   C3A12617  21.565  20.573   7.924
  791POPC   C4A12618  21.593  20.594   7.481
  791POPC   C1B12619  21.400  21.088   8.731
  791POPC   C2B12620  21.314  20.900   8.303
  791POPC   C3B12621  21.048  20.660   8.021
  791POPC   C4B12622  21.089  20.687   7.612
  792POPC   NC312623  12.259  19.704   9.593
  792POPC   PO412624  11.755  19.933   9.524
  792POPC   GL112625  11.990  19.915   9.142
  792POPC   GL212626  12.333  19.796   9.091
  792POPC   C1A12627  11.966  19.772   8.716
  792POPC   D2A12628  12.106  19.587   8.342
  792POPC   C3A12629  11.856  19.581   7.975
  792POPC   C4A12630  11.866  19.831   7.565
  792POPC   C1B12631  12.453  19.949   8.692
  792POPC   C2B12632  12.436  20.005   8.267
  792POPC   C3B12633  12.258  19.878   7.900
  792POPC   C4B12634  12.247  19.446   7.670
  793POPC   NC312635  38.474  23.567   9.335
  793POPC   PO412636  38.829  24.047   9.301
  793POPC   GL112637  38.607  23.847   8.937
  793POPC   GL212638  38.450  23.454   8.854
  793POPC   C1A12639  38.573  23.788   8.490
  793POPC   D2A12640  38.798  23.696   8.107
  793POPC   C3A12641  38.576  23.897   7.777
  793POPC   C4A12642  38.223  24.032   7.605
  793POPC   C1B12643  38.123  23.793   8.784
  793POPC   C2B12644  38.079  23.958   8.407
  793POPC   C3B12645  38.254  23.681   8.096
  793POPC   C4B12646  38.415  23.398   7.757
  794POPC   NC312647  42.039  25.914   9.470
  794POPC   PO412648  42.558  26.389   9.556
  794POPC   GL112649  42.406  26.408   9.112
  794POPC   GL212650  42.067  26.418   9.125
  794POPC   C1A12651  42.510  26.230   8.687
  794POPC   D2A12652  42.481  26.266   8.239
  794POPC   C3A12653  42.617  25.970   7.929
  794POPC   C4A12654  42.371  25.849   7.592
  794POPC   C1B12655  41.982  26.103   8.829
  794POPC   C2B12656  42.043  26.016   8.390
  794POPC   C3B12657  42.045  26.038   7.957
  794POPC   C4B12658  41.909  26.083   7.537
  795POPC   NC312659  22.758   5.941   9.500
  795POPC   PO412660  23.127   5.509   9.159
  795POPC   GL112661  23.027   5.950   9.030
  795POPC   GL212662  22.710   6.156   9.051
  795POPC   C1A12663  22.931   5.938   8.590
  795POPC   D2A12664  23.249   5.952   8.277
  795POPC   C3A12665  23.219   5.656   7.981
  795POPC   C4A12666  23.229   5.919   7.672
  795POPC   C1B12667  22.757   6.399   8.701
  795POPC   C2B12668  22.728   6.294   8.268
  795POPC   C3B12669  22.921   6.249   7.894
  795POPC   C4B12670  22.811   6.108   7.459
  796POPC   NC312671   1.048  13.524   9.663
  796POPC   PO412672   1.400  13.935   9.459
  796POPC   GL112673   1.093  13.761   9.168
  796POPC   GL212674   1.332  13.904   8.938
  796POPC   C1A12675   0.960  13.581   8.754
  796POPC   D2A12676   1.205  13.613   8.374
  796POPC   C3A12677   1.081  13.678   7.943
  796POPC   C4A12678   1.238  13.392   7.615
  796POPC   C1B12679   0.995  14.119   8.733
  796POPC   C2B12680   1.119  14.140   8.299
  796POPC   C3B12681   1.488  13.944   8.091
  796POPC   C4B12682   1.461  13.881   7.652
  797POPC   NC312683   4.134   0.824   9.536
  797POPC   PO412684   4.628   0.356   9.431
  797POPC   GL112685   4.243   0.391   9.227
  797POPC   GL212686   4.365   0.652   9.079
  797POPC   C1A12687   4.216   0.276   8.773
  797POPC   D2A12688   4.181   0.444   8.356
  797POPC   C3A12689   4.450   0.242   8.036
  797POPC   C4A12690   4.309   0.131   7.622
  797POPC   C1B12691   4.060   0.876   8.885
  797POPC   C2B12692   4.037   0.962   8.456
  797POPC   C3B12693   4.127   0.861   8.051
  797POPC   C4B12694   4.218   0.616   7.726
  798POPC   NC312695  39.855  11.370   9.517
  798POPC   PO412696  40.351  11.075   9.489
  798POPC   GL112697  40.086  11.114   9.110
  798POPC   GL212698  39.997  11.471   9.051
  798POPC   C1A12699  39.881  11.105   8.688
  798POPC   D2A12700  39.646  11.271   8.318
  798POPC   C3A12701  39.876  11.115   7.930
  798POPC   C4A12702  40.274  10.871   7.825
  798POPC   C1B12703  39.761  11.613   8.714
  798POPC   C2B12704  40.036  11.575   8.374
  798POPC   C3B12705  39.872  11.613   7.992
  798POPC   C4B12706  40.030  11.529   7.614
  799POPC   NC312707  18.648  33.719   9.282
  799POPC   PO412708  19.196  34.018   9.603
  799POPC   GL112709  19.146  33.974   9.164
  799POPC   GL212710  19.125  33.649   9.039
  799POPC   C1A12711  19.240  34.009   8.705
  799POPC   D2A12712  19.164  33.799   8.295
  799POPC   C3A12713  19.277  34.072   7.943
  799POPC   C4A12714  19.234  34.149   7.508
  799POPC   C1B12715  19.013  33.403   8.698
  799POPC   C2B12716  18.681  33.329   8.387
  799POPC   C3B12717  18.730  33.480   7.960
  799POPC   C4B12718  19.136  33.597   7.788
  800POPC   NC312719   7.932   9.440   9.495
  800POPC   PO412720   8.621   9.682   9.481
  800POPC   GL112721   8.249   9.728   9.143
  800POPC   GL212722   8.109  10.064   9.021
  800POPC   C1A12723   8.067   9.660   8.723
  800POPC   D2A12724   8.114   9.537   8.300
  800POPC   C3A12725   8.002   9.798   7.954
  800POPC   C4A12726   7.948   9.447   7.677
  800POPC   C1B12727   8.361  10.144   8.711
  800POPC   C2B12728   8.368   9.995   8.317
  800POPC   C3B12729   8.568  10.096   7.955
  800POPC   C4B12730   8.338  10.015   7.616
  801POPC   NC312731  19.040  22.856   9.496
  801POPC   PO412732  19.504  23.276   9.384
  801POPC   GL112733  19.219  23.041   9.056
  801POPC   GL212734  18.843  23.052   9.065
  801POPC   C1A12735  19.094  23.022   8.605
  801POPC   D2A12736  19.016  22.753   8.268
  801POPC   C3A12737  19.012  22.972   7.850
  801POPC   C4A12738  19.262  22.880   7.464
  801POPC   C1B12739  18.587  23.010   8.694
  801POPC   C2B12740  18.506  22.687   8.380
  801POPC   C3B12741  18.674  22.623   7.938
  801POPC   C4B12742  18.793  22.681   7.472
  802POPC   NC312743  30.733  38.981   9.491
  802POPC   PO412744  31.018  38.324   9.561
  802POPC   GL112745  30.898  38.579   9.217
  802POPC   GL212746  30.753  38.287   9.095
  802POPC   C1A12747  30.949  38.616   8.769
  802POPC   D2A12748  30.800  38.463   8.370
  802POPC   C3A12749  30.967  38.637   7.999
  802POPC   C4A12750  30.714  38.640   7.638
  802POPC   C1B12751  30.500  38.328   8.762
  802POPC   C2B12752  30.459  38.081   8.423
  802POPC   C3B12753  30.625  38.037   8.040
  802POPC   C4B12754  30.639  38.121   7.653
  803POPC   NC312755   5.876  15.549   9.555
  803POPC   PO412756   5.508  14.978   9.482
  803POPC   GL112757   5.814  15.174   9.215
  803POPC   GL212758   5.539  15.393   9.117
  803POPC   C1A12759   6.142  15.234   8.860
  803POPC   D2A12760   6.026  15.319   8.466
  803POPC   C3A12761   6.127  15.179   8.103
  803POPC   C4A12762   6.002  15.218   7.678
  803POPC   C1B12763   5.613  15.087   8.769
  803POPC   C2B12764   5.732  14.908   8.384
  803POPC   C3B12765   5.627  15.089   8.002
  803POPC   C4B12766   5.346  15.391   7.843
  804POPC   NC312767  36.464  43.362   9.602
  804POPC   PO412768  35.781  43.223   9.665
  804POPC   GL112769  36.077  43.193   9.316
  804POPC   GL212770  36.275  42.892   9.300
  804POPC   C1A12771  36.170  43.279   8.870
  804POPC   D2A12772  36.084  43.415   8.436
  804POPC   C3A12773  36.018  43.347   8.004
  804POPC   C4A12774  36.297  43.251   7.716
  804POPC   C1B12775  36.157  42.776   8.881
  804POPC   C2B12776  36.235  42.919   8.482
  804POPC   C3B12777  36.223  42.862   8.063
  804POPC   C4B12778  36.030  42.833   7.681
  805POPC   NC312779  35.737  18.246   9.390
  805POPC   PO412780  35.014  18.451   9.449
  805POPC   GL112781  35.151  18.330   9.081
  805POPC   GL212782  35.329  18.063   9.144
  805POPC   C1A12783  35.312  18.320   8.682
  805POPC   D2A12784  35.214  18.416   8.263
  805POPC   C3A12785  35.550  18.579   7.947
  805POPC   C4A12786  35.623  18.354   7.533
  805POPC   C1B12787  35.622  17.926   8.812
  805POPC   C2B12788  35.653  18.087   8.384
  805POPC   C3B12789  35.542  18.064   7.979
  805POPC   C4B12790  35.721  17.857   7.614
  806POPC   NC312791   5.905  21.686   9.324
  806POPC   PO412792   6.036  21.122   9.609
  806POPC   GL112793   5.951  21.177   9.161
  806POPC   GL212794   5.599  21.311   9.108
  806POPC   C1A12795   6.039  21.379   8.741
  806POPC   D2A12796   5.908  21.644   8.348
  806POPC   C3A12797   6.017  21.497   7.907
  806POPC   C4A12798   6.029  21.182   7.572
  806POPC   C1B12799   5.572  21.586   8.746
  806POPC   C2B12800   5.377  21.600   8.367
  806POPC   C3B12801   5.528  21.674   7.975
  806POPC   C4B12802   5.580  21.399   7.627
  807POPC   NC312803  19.891  25.200   9.450
  807POPC   PO412804  20.038  25.857   9.338
  807POPC   GL112805  19.877  25.555   9.071
  807POPC   GL212806  20.129  25.320   9.041
  807POPC   C1A12807  19.736  25.346   8.713
  807POPC   D2A12808  19.520  25.293   8.297
  807POPC   C3A12809  19.755  25.471   7.954
  807POPC   C4A12810  19.561  25.294   7.615
  807POPC   C1B12811  20.195  25.090   8.711
  807POPC   C2B12812  20.018  25.206   8.313
  807POPC   C3B12813  19.814  24.969   7.992
  807POPC   C4B12814  20.038  25.099   7.631
  808POPC   NC312815  18.611  13.052   9.155
  808POPC   PO412816  18.137  12.688   9.423
  808POPC   GL112817  18.232  12.710   9.016
  808POPC   GL212818  18.190  13.051   8.863
  808POPC   C1A12819  18.322  12.653   8.574
  808POPC   D2A12820  18.402  13.006   8.299
  808POPC   C3A12821  18.530  12.820   7.893
  808POPC   C4A12822  18.315  12.402   7.855
  808POPC   C1B12823  17.841  13.206   8.622
  808POPC   C2B12824  17.904  13.262   8.226
  808POPC   C3B12825  17.915  13.295   7.815
  808POPC   C4B12826  18.218  13.101   7.564
  809POPC   NC312827  36.209   9.661   9.608
  809POPC   PO412828  35.939  10.164   9.244
  809POPC   GL112829  35.914   9.724   9.157
  809POPC   GL212830  36.224   9.666   8.966
  809POPC   C1A12831  35.765   9.547   8.764
  809POPC   D2A12832  36.090   9.720   8.432
  809POPC   C3A12833  36.049   9.610   7.993
  809POPC   C4A12834  35.926   9.838   7.618
  809POPC   C1B12835  36.427  10.017   8.701
  809POPC   C2B12836  36.480  10.173   8.281
  809POPC   C3B12837  36.361  10.036   7.884
  809POPC   C4B12838  36.446  10.099   7.447
  810POPC   NC312839  29.616   6.430   9.310
  810POPC   PO412840  30.106   6.888   9.432
  810POPC   GL112841  30.085   6.663   9.104
  810POPC   GL212842  30.185   6.330   9.256
  810POPC   C1A12843  29.889   6.708   8.681
  810POPC   D2A12844  29.715   6.443   8.344
  810POPC   C3A12845  29.838   6.681   8.003
  810POPC   C4A12846  29.839   6.917   7.654
  810POPC   C1B12847  30.127   6.273   8.809
  810POPC   C2B12848  30.244   6.424   8.387
  810POPC   C3B12849  30.175   6.304   7.961
  810POPC   C4B12850  30.194   6.495   7.536
  811POPC   NC312851  10.648  15.673   9.455
  811POPC   PO412852  10.310  16.218   9.445
  811POPC   GL112853  10.368  15.910   9.111
  811POPC   GL212854  10.660  16.097   9.061
  811POPC   C1A12855  10.623  15.740   8.714
  811POPC   D2A12856  10.831  15.773   8.278
  811POPC   C3A12857  10.502  15.755   7.980
  811POPC   C4A12858  10.477  15.845   7.575
  811POPC   C1B12859  10.357  16.197   8.702
  811POPC   C2B12860  10.416  16.135   8.285
  811POPC   C3B12861  10.425  16.273   7.857
  811POPC   C4B12862  10.685  16.295   7.449
  812POPC   NC312863  42.066  26.721   9.560
  812POPC   PO412864  42.676  27.034   9.436
  812POPC   GL112865  42.561  27.006   9.041
  812POPC   GL212866  42.233  26.901   9.101
  812POPC   C1A12867  42.544  26.749   8.700
  812POPC   D2A12868  42.376  26.858   8.363
  812POPC   C3A12869  42.547  26.722   8.040
  812POPC   C4A12870  42.292  26.829   7.718
  812POPC   C1B12871  42.109  27.098   8.747
  812POPC   C2B12872  41.874  26.991   8.428
  812POPC   C3B12873  41.964  27.068   8.029
  812POPC   C4B12874  41.823  27.007   7.640
  813POPC   NC312875  29.022  25.748   9.368
  813POPC   PO412876  28.875  26.343   9.558
  813POPC   GL112877  29.064  26.403   9.160
  813POPC   GL212878  29.289  26.159   9.194
  813POPC   C1A12879  28.991  26.454   8.696
  813POPC   D2A12880  28.883  26.276   8.308
  813POPC   C3A12881  28.943  26.417   7.888
  813POPC   C4A12882  28.975  26.044   7.697
  813POPC   C1B12883  29.210  26.003   8.792
  813POPC   C2B12884  29.431  26.071   8.434
  813POPC   C3B12885  29.361  25.965   8.038
  813POPC   C4B12886  29.491  26.007   7.632
  814POPC   NC312887  38.569   1.136   9.627
  814POPC   PO412888  38.105   1.530   9.596
  814POPC   GL112889  38.343   1.326   9.173
  814POPC   GL212890  38.363   0.955   9.157
  814POPC   C1A12891  38.203   1.227   8.715
  814POPC   D2A12892  38.137   1.096   8.279
  814POPC   C3A12893  38.382   1.200   7.927
  814POPC   C4A12894  38.492   1.457   7.539
  814POPC   C1B12895  38.640   0.982   8.772
  814POPC   C2B12896  38.667   1.220   8.365
  814POPC   C3B12897  38.742   1.534   8.010
  814POPC   C4B12898  39.072   1.581   7.726
  815POPC   NC312899  25.142  42.807   9.554
  815POPC   PO412900  25.206  43.479   9.411
  815POPC   GL112901  25.023  43.254   9.098
  815POPC   GL212902  24.782  43.009   9.251
  815POPC   C1A12903  25.225  43.146   8.703
  815POPC   D2A12904  25.222  43.342   8.299
  815POPC   C3A12905  25.338  43.114   7.945
  815POPC   C4A12906  25.498  43.384   7.642
  815POPC   C1B12907  24.774  42.903   8.809
  815POPC   C2B12908  24.851  42.984   8.371
  815POPC   C3B12909  24.956  42.771   7.989
  815POPC   C4B12910  24.950  42.925   7.558
  816POPC   NC312911  34.760   9.305   9.214
  816POPC   PO412912  34.651   9.933   9.377
  816POPC   GL112913  34.552   9.709   9.002
  816POPC   GL212914  34.292   9.521   9.061
  816POPC   C1A12915  34.693   9.562   8.600
  816POPC   D2A12916  34.791   9.829   8.279
  816POPC   C3A12917  34.793   9.980   7.862
  816POPC   C4A12918  34.793   9.758   7.504
  816POPC   C1B12919  34.237   9.325   8.678
  816POPC   C2B12920  34.380   9.327   8.252
  816POPC   C3B12921  34.566   9.526   7.921
  816POPC   C4B12922  34.355   9.480   7.562
  817POPC   NC312923   5.339  29.259   9.602
  817POPC   PO412924   4.678  29.495   9.513
  817POPC   GL112925   4.952  29.219   9.222
  817POPC   GL212926   4.716  29.013   9.050
  817POPC   C1A12927   5.166  29.304   8.810
  817POPC   D2A12928   5.488  29.349   8.466
  817POPC   C3A12929   5.382  29.334   8.022
  817POPC   C4A12930   5.121  29.111   7.751
  817POPC   C1B12931   4.861  28.903   8.655
  817POPC   C2B12932   4.851  28.983   8.199
  817POPC   C3B12933   4.792  28.734   7.821
  817POPC   C4B12934   4.673  28.901   7.407
  818POPC   NC312935   5.686   0.263   9.499
  818POPC   PO412936   6.034   0.813   9.531
  818POPC   GL112937   5.902   0.568   9.166
  818POPC   GL212938   5.940   0.220   9.053
  818POPC   C1A12939   5.671   0.571   8.804
  818POPC   D2A12940   5.839   0.516   8.406
  818POPC   C3A12941   5.602   0.551   8.061
  818POPC   C4A12942   5.769   0.369   7.707
  818POPC   C1B12943   5.791   0.072   8.656
  818POPC   C2B12944   5.919   0.040   8.205
  818POPC   C3B12945   5.747  44.867   7.848
  818POPC   C4B12946   5.675  44.935   7.396
  819POPC   NC312947  43.311  31.735   9.941
  819POPC   PO412948  43.158  32.368   9.725
  819POPC   GL112949  43.241  32.209   9.306
  819POPC   GL212950  43.025  32.437   9.137
  819POPC   C1A12951  43.343  32.165   8.843
  819POPC   D2A12952  43.302  32.423   8.456
  819POPC   C3A12953  43.416  32.308   8.039
  819POPC   C4A12954  43.149  32.269   7.661
  819POPC   C1B12955  42.964  32.654   8.757
  819POPC   C2B12956  42.726  32.577   8.353
  819POPC   C3B12957  42.776  32.562   7.885
  819POPC   C4B12958  42.771  32.495   7.398
  820POPC   NC312959  31.261   0.509  10.004
  820POPC   PO412960  31.650   0.700   9.551
  820POPC   GL112961  31.375   0.652   9.155
  820POPC   GL212962  31.603   0.938   9.095
  820POPC   C1A12963  31.296   0.401   8.757
  820POPC   D2A12964  31.560   0.452   8.387
  820POPC   C3A12965  31.412   0.308   7.979
  820POPC   C4A12966  31.699   0.066   7.709
  820POPC   C1B12967  31.853   0.946   8.743
  820POPC   C2B12968  31.745   0.964   8.310
  820POPC   C3B12969  31.671   0.764   7.914
  820POPC   C4B12970  31.720   0.705   7.465
  821POPC   NC312971   1.977  21.035   9.323
  821POPC   PO412972   1.974  20.397   9.300
  821POPC   GL112973   2.189  20.600   9.006
  821POPC   GL212974   1.891  20.746   8.917
  821POPC   C1A12975   2.422  20.482   8.634
  821POPC   D2A12976   2.332  20.287   8.226
  821POPC   C3A12977   2.124  20.560   7.904
  821POPC   C4A12978   1.717  20.475   7.778
  821POPC   C1B12979   1.920  20.521   8.552
  821POPC   C2B12980   1.739  20.717   8.231
  821POPC   C3B12981   1.765  20.973   7.872
  821POPC   C4B12982   1.830  20.843   7.453
  822POPC   NC312983  20.204  10.484   9.260
  822POPC   PO412984  20.836  10.467   9.485
  822POPC   GL112985  20.692  10.501   9.098
  822POPC   GL212986  20.885  10.273   8.951
  822POPC   C1A12987  20.534  10.627   8.708
  822POPC   D2A12988  20.680  10.844   8.378
  822POPC   C3A12989  20.423  10.675   8.099
  822POPC   C4A12990  20.435  10.538   7.685
  822POPC   C1B12991  21.046  10.572   8.708
  822POPC   C2B12992  21.111  10.500   8.312
  822POPC   C3B12993  20.879  10.501   7.939
  822POPC   C4B12994  20.919  10.565   7.479
  823POPC   NC312995  10.904  28.845   9.428
  823POPC   PO412996  11.385  29.364   9.332
  823POPC   GL112997  11.298  28.986   9.094
  823POPC   GL212998  11.007  29.169   9.033
  823POPC   C1A12999  11.136  28.895   8.661
  823POPC   D2A13000  11.275  29.144   8.363
  823POPC   C3A13001  11.266  28.928   8.046
  823POPC   C4A13002  11.313  29.089   7.693
  823POPC   C1B13003  11.157  29.495   8.717
  823POPC   C2B13004  10.993  29.665   8.348
  823POPC   C3B13005  11.009  29.427   7.935
  823POPC   C4B13006  10.952  29.333   7.477
  824POPC   NC313007  35.150  10.143   9.483
  824POPC   PO413008  35.151   9.460   9.442
  824POPC   GL113009  35.087   9.772   9.123
  824POPC   GL213010  35.434   9.924   9.113
  824POPC   C1A13011  35.181   9.780   8.690
  824POPC   D2A13012  35.259   9.462   8.423
  824POPC   C3A13013  35.187   9.625   8.043
  824POPC   C4A13014  35.292   9.794   7.643
  824POPC   C1B13015  35.641  10.016   8.712
  824POPC   C2B13016  35.609   9.827   8.312
  824POPC   C3B13017  35.769  10.083   8.019
  824POPC   C4B13018  35.600  10.456   7.882
  825POPC   NC313019   0.084  38.227   9.929
  825POPC   PO413020   0.501  38.585   9.509
  825POPC   GL113021   0.411  38.412   9.152
  825POPC   GL213022   0.682  38.582   9.032
  825POPC   C1A13023   0.194  38.467   8.763
  825POPC   D2A13024   0.081  38.257   8.392
  825POPC   C3A13025   0.156  38.367   7.983
  825POPC   C4A13026   0.133  38.147   7.584
  825POPC   C1B13027   0.672  38.274   8.730
  825POPC   C2B13028   0.557  38.444   8.350
  825POPC   C3B13029   0.671  38.369   7.938
  825POPC   C4B13030   0.462  38.523   7.592
  826POPC   NC313031  34.127  29.739   9.381
  826POPC   PO413032  33.605  30.095   9.632
  826POPC   GL113033  33.694  29.949   9.186
  826POPC   GL213034  33.423  29.790   9.134
  826POPC   C1A13035  33.959  29.948   8.781
  826POPC   D2A13036  33.806  29.875   8.351
  826POPC   C3A13037  33.998  29.948   7.955
  826POPC   C4A13038  33.897  29.796   7.541
  826POPC   C1B13039  33.453  30.014   8.704
  826POPC   C2B13040  33.355  30.078   8.224
  826POPC   C3B13041  33.400  29.825   7.808
  826POPC   C4B13042  33.422  29.954   7.350
  827POPC   NC313043  32.998   8.731   9.558
  827POPC   PO413044  32.807   9.412   9.390
  827POPC   GL113045  32.820   9.010   9.154
  827POPC   GL213046  33.163   8.914   9.115
  827POPC   C1A13047  32.817   8.834   8.728
  827POPC   D2A13048  33.060   8.901   8.364
  827POPC   C3A13049  32.992   9.164   8.040
  827POPC   C4A13050  32.857   8.845   7.781
  827POPC   C1B13051  33.414   8.912   8.721
  827POPC   C2B13052  33.536   9.056   8.274
  827POPC   C3B13053  33.368   8.816   7.917
  827POPC   C4B13054  33.217   8.411   7.800
  828POPC   NC313055  31.678  21.634   9.495
  828POPC   PO413056  31.281  21.081   9.416
  828POPC   GL113057  31.449  21.327   9.141
  828POPC   GL213058  31.118  21.526   9.126
  828POPC   C1A13059  31.449  21.400   8.738
  828POPC   D2A13060  31.406  21.213   8.368
  828POPC   C3A13061  31.655  21.382   8.103
  828POPC   C4A13062  31.554  21.326   7.699
  828POPC   C1B13063  31.152  21.801   8.740
  828POPC   C2B13064  31.415  21.755   8.358
  828POPC   C3B13065  31.393  21.781   7.913
  828POPC   C4B13066  31.335  21.763   7.454
  829POPC   NC313067  21.258  40.582   9.565
  829POPC   PO413068  21.560  41.081   9.673
  829POPC   GL113069  21.651  40.806   9.269
  829POPC   GL213070  21.308  40.680   9.087
  829POPC   C1A13071  21.731  40.654   8.828
  829POPC   D2A13072  21.503  40.441   8.489
  829POPC   C3A13073  21.568  40.615   8.078
  829POPC   C4A13074  21.635  40.835   7.719
  829POPC   C1B13075  21.202  40.857   8.718
  829POPC   C2B13076  21.117  40.883   8.295
  829POPC   C3B13077  21.143  40.870   7.878
  829POPC   C4B13078  21.195  40.564   7.613
  830POPC   NC313079  22.581  14.992   9.283
  830POPC   PO413080  23.082  15.305   9.706
  830POPC   GL113081  23.026  15.235   9.235
  830POPC   GL213082  23.042  14.868   9.082
  830POPC   C1A13083  22.901  15.255   8.785
  830POPC   D2A13084  23.013  15.110   8.381
  830POPC   C3A13085  22.766  15.256   8.001
  830POPC   C4A13086  22.930  15.269   7.513
  830POPC   C1B13087  22.732  14.777   8.687
  830POPC   C2B13088  22.679  14.782   8.205
  830POPC   C3B13089  22.875  14.837   7.757
  830POPC   C4B13090  22.670  14.812   7.316
  831POPC   NC313091  37.243  30.988   9.470
  831POPC   PO413092  37.689  30.542   9.708
  831POPC   GL113093  37.780  30.708   9.254
  831POPC   GL213094  37.491  30.650   9.097
  831POPC   C1A13095  37.897  30.633   8.759
  831POPC   D2A13096  37.843  30.404   8.341
  831POPC   C3A13097  37.878  30.565   7.907
  831POPC   C4A13098  37.918  30.984   7.774
  831POPC   C1B13099  37.401  30.685   8.646
  831POPC   C2B13100  37.568  30.810   8.234
  831POPC   C3B13101  37.423  30.803   7.809
  831POPC   C4B13102  37.205  30.545   7.532
  832POPC   NC313103  10.579  10.917   9.479
  832POPC   PO413104  10.327  10.397   9.837
  832POPC   GL113105  10.345  10.516   9.278
  832POPC   GL213106  10.692  10.617   9.086
  832POPC   C1A13107  10.302  10.405   8.807
  832POPC   D2A13108  10.308  10.473   8.342
  832POPC   C3A13109  10.375  10.224   7.965
  832POPC   C4A13110  10.761  10.314   7.728
  832POPC   C1B13111  10.690  10.729   8.648
  832POPC   C2B13112  11.008  10.711   8.309
  832POPC   C3B13113  10.988  11.057   8.071
  832POPC   C4B13114  10.652  11.003   7.797
  833POPC   NC313115  26.115  37.152   9.513
  833POPC   PO413116  25.431  37.019   9.384
  833POPC   GL113117  25.834  36.953   9.085
  833POPC   GL213118  26.102  37.252   9.023
  833POPC   C1A13119  25.946  36.647   8.717
  833POPC   D2A13120  26.204  36.504   8.310
  833POPC   C3A13121  26.036  36.654   7.886
  833POPC   C4A13122  25.697  36.837   7.585
  833POPC   C1B13123  26.327  36.986   8.739
  833POPC   C2B13124  26.473  36.975   8.312
  833POPC   C3B13125  26.331  37.096   7.907
  833POPC   C4B13126  26.469  37.000   7.512
  834POPC   NC313127  23.894  41.090   9.578
  834POPC   PO413128  23.346  40.810   9.535
  834POPC   GL113129  23.643  40.846   9.171
  834POPC   GL213130  23.953  41.025   9.098
  834POPC   C1A13131  23.771  40.714   8.746
  834POPC   D2A13132  23.585  40.618   8.375
  834POPC   C3A13133  23.812  40.576   7.994
  834POPC   C4A13134  23.569  40.673   7.626
  834POPC   C1B13135  23.808  41.224   8.753
  834POPC   C2B13136  23.831  41.095   8.350
  834POPC   C3B13137  23.621  41.038   8.021
  834POPC   C4B13138  23.886  41.055   7.709
  835POPC   NC313139  42.742  11.270   9.451
  835POPC   PO413140  43.340  11.298   9.547
  835POPC   GL113141  43.184  11.237   9.123
  835POPC   GL213142  43.055  10.975   9.122
  835POPC   C1A13143  43.222  11.272   8.659
  835POPC   D2A13144  42.851  11.426   8.467
  835POPC   C3A13145  42.866  11.625   8.095
  835POPC   C4A13146  43.069  11.560   7.724
  835POPC   C1B13147  42.818  10.998   8.774
  835POPC   C2B13148  42.933  10.913   8.339
  835POPC   C3B13149  43.217  11.096   8.019
  835POPC   C4B13150  43.210  11.061   7.542
  836POPC   NC313151  35.456  43.005   9.924
  836POPC   PO413152  35.373  42.879   9.302
  836POPC   GL113153  35.378  43.020   8.959
  836POPC   GL213154  35.732  43.036   8.991
  836POPC   C1A13155  35.132  43.104   8.638
  836POPC   D2A13156  35.214  43.233   8.261
  836POPC   C3A13157  35.144  43.008   7.896
  836POPC   C4A13158  35.245  43.132   7.433
  836POPC   C1B13159  35.721  42.872   8.617
  836POPC   C2B13160  35.720  43.046   8.248
  836POPC   C3B13161  35.619  43.076   7.801
  836POPC   C4B13162  35.614  42.805   7.378
  837POPC   NC313163  16.051   5.098   9.577
  837POPC   PO413164  15.511   5.539   9.582
  837POPC   GL113165  15.732   5.234   9.196
  837POPC   GL213166  15.967   4.943   9.116
  837POPC   C1A13167  15.665   5.087   8.724
  837POPC   D2A13168  15.516   5.020   8.268
  837POPC   C3A13169  15.773   4.981   7.908
  837POPC   C4A13170  16.176   5.170   7.834
  837POPC   C1B13171  16.149   4.869   8.723
  837POPC   C2B13172  16.111   4.886   8.286
  837POPC   C3B13173  16.215   4.651   7.909
  837POPC   C4B13174  16.462   4.802   7.560
  838POPC   NC313175  21.628   2.651   9.683
  838POPC   PO413176  22.128   3.043   9.533
  838POPC   GL113177  21.877   2.767   9.203
  838POPC   GL213178  22.106   2.532   9.036
  838POPC   C1A13179  21.724   2.662   8.754
  838POPC   D2A13180  21.858   2.753   8.343
  838POPC   C3A13181  21.753   2.486   8.017
  838POPC   C4A13182  21.716   2.728   7.690
  838POPC   C1B13183  22.296   2.645   8.682
  838POPC   C2B13184  22.464   2.606   8.295
  838POPC   C3B13185  22.248   2.604   7.950
  838POPC   C4B13186  22.187   3.005   7.902
  839POPC   NC313187  39.161  43.498   9.941
  839POPC   PO413188  39.399  43.025   9.540
  839POPC   GL113189  39.111  43.220   9.283
  839POPC   GL213190  39.321  43.048   9.037
  839POPC   C1A13191  38.897  43.241   8.880
  839POPC   D2A13192  39.204  43.182   8.553
  839POPC   C3A13193  39.075  43.052   8.185
  839POPC   C4A13194  39.262  42.954   7.808
  839POPC   C1B13195  39.505  42.782   8.720
  839POPC   C2B13196  39.446  42.631   8.325
  839POPC   C3B13197  39.611  42.581   7.907
  839POPC   C4B13198  39.556  42.676   7.477
  840POPC   NC313199  30.979   2.604   9.427
  840POPC   PO413200  30.564   3.125   9.466
  840POPC   GL113201  30.655   2.860   9.136
  840POPC   GL213202  30.423   2.598   9.114
  840POPC   C1A13203  30.941   2.852   8.797
  840POPC   D2A13204  30.785   2.943   8.414
  840POPC   C3A13205  30.954   2.894   8.029
  840POPC   C4A13206  30.861   3.075   7.646
  840POPC   C1B13207  30.511   2.586   8.681
  840POPC   C2B13208  30.612   2.499   8.237
  840POPC   C3B13209  30.548   2.688   7.827
  840POPC   C4B13210  30.505   2.682   7.384
  841POPC   NC313211  33.590  43.314   9.667
  841POPC   PO413212  34.104  42.924   9.671
  841POPC   GL113213  33.973  43.058   9.195
  841POPC   GL213214  33.662  43.312   9.153
  841POPC   C1A13215  33.937  43.126   8.695
  841POPC   D2A13216  33.856  42.980   8.248
  841POPC   C3A13217  34.027  43.219   7.891
  841POPC   C4A13218  33.857  43.316   7.487
  841POPC   C1B13219  33.441  43.301   8.749
  841POPC   C2B13220  33.356  43.197   8.298
  841POPC   C3B13221  33.479  43.224   7.854
  841POPC   C4B13222  33.393  43.578   7.559
  842POPC   NC313223   5.600  17.718   9.590
  842POPC   PO413224   6.008  17.206   9.450
  842POPC   GL113225   5.831  17.269   9.089
  842POPC   GL213226   5.534  17.480   9.126
  842POPC   C1A13227   5.613  17.133   8.735
  842POPC   D2A13228   5.586  17.342   8.353
  842POPC   C3A13229   5.903  17.470   8.154
  842POPC   C4A13230   5.939  17.543   7.751
  842POPC   C1B13231   5.721  17.627   8.742
  842POPC   C2B13232   5.698  17.875   8.375
  842POPC   C3B13233   5.537  17.795   7.969
  842POPC   C4B13234   5.696  17.956   7.593
  843POPC   NC313235  11.052  20.958   9.601
  843POPC   PO413236  11.601  20.735   9.557
  843POPC   GL113237  11.343  20.683   9.211
  843POPC   GL213238  11.355  21.012   9.163
  843POPC   C1A13239  11.209  20.689   8.743
  843POPC   D2A13240  11.112  20.674   8.282
  843POPC   C3A13241  11.257  20.394   7.959
  843POPC   C4A13242  11.042  20.442   7.580
  843POPC   C1B13243  11.676  20.871   8.860
  843POPC   C2B13244  11.605  20.907   8.419
  843POPC   C3B13245  11.562  20.808   7.982
  843POPC   C4B13246  11.601  21.038   7.603
  844POPC   NC313247  38.610  37.813   9.335
  844POPC   PO413248  38.189  37.268   9.441
  844POPC   GL113249  38.265  37.483   9.101
  844POPC   GL213250  38.035  37.716   9.147
  844POPC   C1A13251  38.520  37.447   8.714
  844POPC   D2A13252  38.383  37.337   8.300
  844POPC   C3A13253  38.570  37.578   7.957
  844POPC   C4A13254  38.522  37.425   7.560
  844POPC   C1B13255  38.206  37.862   8.773
  844POPC   C2B13256  38.394  37.851   8.386
  844POPC   C3B13257  38.193  37.919   8.021
  844POPC   C4B13258  38.250  37.878   7.602
  845POPC   NC313259   6.922  27.081   9.798
  845POPC   PO413260   6.433  26.719   9.459
  845POPC   GL113261   6.521  26.926   9.095
  845POPC   GL213262   6.686  26.629   9.028
  845POPC   C1A13263   6.652  26.966   8.647
  845POPC   D2A13264   6.359  27.070   8.314
  845POPC   C3A13265   6.641  27.160   8.005
  845POPC   C4A13266   7.051  26.977   7.903
  845POPC   C1B13267   6.460  26.384   8.731
  845POPC   C2B13268   6.523  26.512   8.332
  845POPC   C3B13269   6.493  26.333   7.944
  845POPC   C4B13270   6.611  26.714   7.768
  846POPC   NC313271   0.777  25.398   9.469
  846POPC   PO413272   0.164  25.305   9.607
  846POPC   GL113273   0.274  25.462   9.200
  846POPC   GL213274   0.529  25.221   9.071
  846POPC   C1A13275   0.391  25.582   8.756
  846POPC   D2A13276   0.476  25.278   8.436
  846POPC   C3A13277   0.370  25.370   8.021
  846POPC   C4A13278   0.212  25.454   7.629
  846POPC   C1B13279   0.654  24.883   8.787
  846POPC   C2B13280   0.517  24.756   8.371
  846POPC   C3B13281   0.581  24.829   7.935
  846POPC   C4B13282   0.616  25.113   7.603
  847POPC   NC313283  32.332  20.916   9.732
  847POPC   PO413284  32.191  20.355   9.404
  847POPC   GL113285  32.135  20.734   9.138
  847POPC   GL213286  32.305  20.478   8.893
  847POPC   C1A13287  32.263  20.966   8.765
  847POPC   D2A13288  32.372  20.726   8.427
  847POPC   C3A13289  32.190  20.651   8.014
  847POPC   C4A13290  31.864  20.411   7.795
  847POPC   C1B13291  32.517  20.218   8.566
  847POPC   C2B13292  32.630  20.406   8.155
  847POPC   C3B13293  32.534  20.387   7.691
  847POPC   C4B13294  32.624  20.293   7.210
  848POPC   NC313295   3.298  25.933   9.328
  848POPC   PO413296   3.845  26.227   9.566
  848POPC   GL113297   3.648  26.254   9.168
  848POPC   GL213298   3.747  25.932   9.089
  848POPC   C1A13299   3.501  26.173   8.735
  848POPC   D2A13300   3.337  26.386   8.436
  848POPC   C3A13301   3.279  26.187   8.068
  848POPC   C4A13302   3.561  26.324   7.759
  848POPC   C1B13303   3.989  25.966   8.767
  848POPC   C2B13304   3.837  25.906   8.406
  848POPC   C3B13305   3.703  25.912   8.045
  848POPC   C4B13306   3.962  25.926   7.744
  849POPC   NC313307   8.112   7.653   9.499
  849POPC   PO413308   8.339   8.274   9.598
  849POPC   GL113309   8.258   8.115   9.132
  849POPC   GL213310   8.243   7.777   8.999
  849POPC   C1A13311   8.297   8.196   8.659
  849POPC   D2A13312   8.298   8.064   8.208
  849POPC   C3A13313   8.135   8.344   7.886
  849POPC   C4A13314   8.432   8.509   7.605
  849POPC   C1B13315   7.881   7.907   8.697
  849POPC   C2B13316   7.789   8.105   8.320
  849POPC   C3B13317   7.875   7.889   7.955
  849POPC   C4B13318   8.210   7.895   7.675
  850POPC   NC313319  10.218  23.589   9.300
  850POPC   PO413320  10.406  24.245   9.415
  850POPC   GL113321  10.565  23.957   9.135
  850POPC   GL213322  10.718  23.653   9.287
  850POPC   C1A13323  10.398  23.891   8.727
  850POPC   D2A13324  10.594  23.846   8.343
  850POPC   C3A13325  10.330  23.812   7.986
  850POPC   C4A13326  10.440  23.952   7.580
  850POPC   C1B13327  10.748  23.535   8.860
  850POPC   C2B13328  10.738  23.361   8.449
  850POPC   C3B13329  10.628  23.395   8.052
  850POPC   C4B13330  10.420  23.407   7.670
  851POPC   NC313331  31.377  35.092   9.637
  851POPC   PO413332  31.892  35.442   9.526
  851POPC   GL113333  31.619  35.214   9.219
  851POPC   GL213334  31.405  35.491   9.209
  851POPC   C1A13335  31.297  35.100   8.889
  851POPC   D2A13336  31.448  35.034   8.482
  851POPC   C3A13337  31.372  35.225   8.111
  851POPC   C4A13338  31.153  35.081   7.780
  851POPC   C1B13339  31.581  35.512   8.800
  851POPC   C2B13340  31.696  35.598   8.391
  851POPC   C3B13341  31.762  35.528   7.983
  851POPC   C4B13342  31.568  35.353   7.637
  852POPC   NC313343  28.390  13.790   9.411
  852POPC   PO413344  28.821  13.231   9.479
  852POPC   GL113345  28.585  13.418   9.108
  852POPC   GL213346  28.181  13.488   9.078
  852POPC   C1A13347  28.561  13.568   8.682
  852POPC   D2A13348  28.417  13.836   8.340
  852POPC   C3A13349  28.338  13.632   7.949
  852POPC   C4A13350  28.578  13.665   7.574
  852POPC   C1B13351  28.082  13.748   8.733
  852POPC   C2B13352  27.969  14.056   8.398
  852POPC   C3B13353  27.933  13.962   7.943
  852POPC   C4B13354  28.053  13.764   7.515
  853POPC   NC313355  23.579  13.460   9.474
  853POPC   PO413356  23.530  14.061   9.255
  853POPC   GL113357  23.771  13.746   9.070
  853POPC   GL213358  23.568  13.419   8.979
  853POPC   C1A13359  23.755  13.726   8.644
  853POPC   D2A13360  23.530  13.538   8.369
  853POPC   C3A13361  23.816  13.622   8.055
  853POPC   C4A13362  23.771  13.857   7.708
  853POPC   C1B13363  23.932  13.241   8.752
  853POPC   C2B13364  23.914  13.195   8.334
  853POPC   C3B13365  23.613  13.155   8.008
  853POPC   C4B13366  23.958  13.103   7.760
  854POPC   NC313367  42.939  36.516   9.715
  854POPC   PO413368  43.119  37.183   9.463
  854POPC   GL113369  42.954  37.052   9.067
  854POPC   GL213370  43.177  36.785   9.104
  854POPC   C1A13371  42.942  36.765   8.658
  854POPC   D2A13372  42.932  36.623   8.215
  854POPC   C3A13373  42.869  36.854   7.828
  854POPC   C4A13374  42.693  37.252   7.617
  854POPC   C1B13375  43.457  36.844   8.777
  854POPC   C2B13376  43.381  36.764   8.377
  854POPC   C3B13377  43.364  36.861   7.980
  854POPC   C4B13378  43.552  36.695   7.610
  855POPC   NC313379   8.394  33.141   9.477
  855POPC   PO413380   7.753  33.156   9.783
  855POPC   GL113381   7.872  33.161   9.279
  855POPC   GL213382   7.797  32.850   9.081
  855POPC   C1A13383   8.079  33.174   8.812
  855POPC   D2A13384   8.058  33.029   8.348
  855POPC   C3A13385   8.433  33.061   8.058
  855POPC   C4A13386   8.410  33.273   7.620
  855POPC   C1B13387   8.179  32.671   8.816
  855POPC   C2B13388   8.307  32.565   8.398
  855POPC   C3B13389   8.200  32.552   7.954
  855POPC   C4B13390   8.021  32.935   7.795
  856POPC   NC313391  41.966  42.062   9.388
  856POPC   PO413392  42.637  42.305   9.511
  856POPC   GL113393  42.420  42.212   9.162
  856POPC   GL213394  42.179  42.475   9.112
  856POPC   C1A13395  42.322  42.113   8.740
  856POPC   D2A13396  42.472  42.379   8.407
  856POPC   C3A13397  42.305  42.368   8.032
  856POPC   C4A13398  42.387  42.067   7.728
  856POPC   C1B13399  42.036  42.519   8.690
  856POPC   C2B13400  41.899  42.273   8.336
  856POPC   C3B13401  41.862  42.179   7.885
  856POPC   C4B13402  41.949  42.516   7.620
  857POPC   NC313403  42.306  27.371   9.335
  857POPC   PO413404  42.406  28.022   9.418
  857POPC   GL113405  42.253  27.806   9.079
  857POPC   GL213406  42.596  27.699   9.062
  857POPC   C1A13407  42.118  27.692   8.668
  857POPC   D2A13408  41.983  27.541   8.252
  857POPC   C3A13409  42.199  27.642   7.872
  857POPC   C4A13410  42.104  27.522   7.452
  857POPC   C1B13411  42.655  27.580   8.677
  857POPC   C2B13412  42.426  27.364   8.411
  857POPC   C3B13413  42.440  27.227   8.026
  857POPC   C4B13414  42.538  27.249   7.626
  858POPC   NC313415  15.548  35.614   9.330
  858POPC   PO413416  16.194  35.222   9.424
  858POPC   GL113417  16.017  35.485   9.162
  858POPC   GL213418  15.759  35.217   9.103
  858POPC   C1A13419  16.001  35.569   8.743
  858POPC   D2A13420  16.108  35.307   8.393
  858POPC   C3A13421  16.052  35.451   8.016
  858POPC   C4A13422  15.759  35.453   7.718
  858POPC   C1B13423  16.006  34.989   8.792
  858POPC   C2B13424  15.915  34.816   8.383
  858POPC   C3B13425  15.803  34.998   7.991
  858POPC   C4B13426  16.056  35.048   7.617
  859POPC   NC313427  10.290  28.037   9.567
  859POPC   PO413428   9.712  28.389   9.551
  859POPC   GL113429   9.792  28.398   9.125
  859POPC   GL213430   9.664  28.059   9.125
  859POPC   C1A13431   9.837  28.508   8.677
  859POPC   D2A13432  10.154  28.479   8.344
  859POPC   C3A13433   9.931  28.349   7.961
  859POPC   C4A13434   9.622  28.662   7.783
  859POPC   C1B13435   9.547  28.078   8.703
  859POPC   C2B13436   9.523  28.290   8.285
  859POPC   C3B13437   9.460  28.132   7.853
  859POPC   C4B13438   9.556  27.795   7.515
  860POPC   NC313439  10.526  38.842   9.462
  860POPC   PO413440  10.829  39.428   9.437
  860POPC   GL113441  10.645  39.282   9.088
  860POPC   GL213442  10.989  39.312   8.943
  860POPC   C1A13443  10.359  39.347   8.730
  860POPC   D2A13444  10.337  39.142   8.327
  860POPC   C3A13445  10.245  39.287   7.924
  860POPC   C4A13446  10.480  39.433   7.587
  860POPC   C1B13447  10.850  39.101   8.604
  860POPC   C2B13448  10.744  38.833   8.300
  860POPC   C3B13449  10.703  39.088   7.939
  860POPC   C4B13450  10.766  39.005   7.512
  861POPC   NC313451  42.765   7.585   9.505
  861POPC   PO413452  42.131   7.319   9.488
  861POPC   GL113453  42.389   7.458   9.181
  861POPC   GL213454  42.605   7.171   9.164
  861POPC   C1A13455  42.292   7.640   8.794
  861POPC   D2A13456  42.081   7.511   8.430
  861POPC   C3A13457  42.252   7.524   8.030
  861POPC   C4A13458  42.060   7.240   7.748
  861POPC   C1B13459  42.731   7.417   8.777
  861POPC   C2B13460  42.630   7.530   8.370
  861POPC   C3B13461  42.726   7.329   7.961
  861POPC   C4B13462  42.636   7.568   7.614
  862POPC   NC313463  43.212   8.654   9.619
  862POPC   PO413464  42.979   8.012   9.487
  862POPC   GL113465  43.077   8.180   9.119
  862POPC   GL213466  43.395   8.117   9.048
  862POPC   C1A13467  43.102   8.395   8.739
  862POPC   D2A13468  42.950   8.517   8.371
  862POPC   C3A13469  43.173   8.438   8.024
  862POPC   C4A13470  43.109   8.171   7.688
  862POPC   C1B13471  43.440   8.045   8.586
  862POPC   C2B13472  43.408   7.984   8.163
  862POPC   C3B13473  43.569   7.983   7.759
  862POPC   C4B13474  43.560   8.367   7.502
  863POPC   NC313475  29.529  16.757   9.519
  863POPC   PO413476  28.913  16.965   9.396
  863POPC   GL113477  29.222  16.875   9.112
  863POPC   GL213478  29.372  16.537   9.115
  863POPC   C1A13479  29.356  16.902   8.713
  863POPC   D2A13480  29.520  16.753   8.347
  863POPC   C3A13481  29.420  16.921   7.960
  863POPC   C4A13482  29.264  16.729   7.608
  863POPC   C1B13483  29.293  16.414   8.780
  863POPC   C2B13484  28.980  16.598   8.512
  863POPC   C3B13485  29.083  16.590   8.100
  863POPC   C4B13486  29.441  16.390   7.959
  864POPC   NC313487   5.488   4.045   9.444
  864POPC   PO413488   4.859   4.374   9.531
  864POPC   GL113489   5.035   4.143   9.190
  864POPC   GL213490   5.208   4.424   9.128
  864POPC   C1A13491   5.035   4.126   8.736
  864POPC   D2A13492   5.183   4.150   8.306
  864POPC   C3A13493   4.944   4.328   7.967
  864POPC   C4A13494   5.088   4.246   7.504
  864POPC   C1B13495   5.321   4.605   8.756
  864POPC   C2B13496   5.448   4.594   8.324
  864POPC   C3B13497   5.422   4.503   7.883
  864POPC   C4B13498   5.504   4.509   7.426
  865POPC   NC313499  29.201  20.807   9.447
  865POPC   PO413500  28.626  20.370   9.454
  865POPC   GL113501  29.024  20.448   9.113
  865POPC   GL213502  29.352  20.695   8.997
  865POPC   C1A13503  29.147  20.384   8.668
  865POPC   D2A13504  29.221  20.641   8.325
  865POPC   C3A13505  29.338  20.523   7.909
  865POPC   C4A13506  28.989  20.640   7.620
  865POPC   C1B13507  29.014  20.898   8.755
  865POPC   C2B13508  28.968  21.100   8.341
  865POPC   C3B13509  29.186  21.017   7.940
  865POPC   C4B13510  29.326  20.974   7.475
  866POPC   NC313511  15.825   2.130   9.416
  866POPC   PO413512  16.209   1.527   9.476
  866POPC   GL113513  16.186   1.835   9.158
  866POPC   GL213514  15.821   1.779   9.038
  866POPC   C1A13515  16.180   1.918   8.722
  866POPC   D2A13516  15.895   1.732   8.456
  866POPC   C3A13517  16.025   1.874   8.070
  866POPC   C4A13518  15.926   1.869   7.681
  866POPC   C1B13519  15.733   2.152   8.754
  866POPC   C2B13520  15.909   2.261   8.360
  866POPC   C3B13521  15.698   2.253   7.949
  866POPC   C4B13522  15.709   2.295   7.498
  867POPC   NC313523  42.851   4.117   9.406
  867POPC   PO413524  43.282   4.580   9.557
  867POPC   GL113525  43.214   4.339   9.129
  867POPC   GL213526  43.018   4.015   8.948
  867POPC   C1A13527  43.042   4.480   8.748
  867POPC   D2A13528  43.057   4.321   8.350
  867POPC   C3A13529  43.082   4.608   7.981
  867POPC   C4A13530  43.287   4.703   7.558
  867POPC   C1B13531  42.648   4.135   8.741
  867POPC   C2B13532  42.430   4.418   8.463
  867POPC   C3B13533  42.628   4.396   8.059
  867POPC   C4B13534  42.982   4.113   7.897
  868POPC   NC313535   4.253  23.485   9.574
  868POPC   PO413536   4.747  23.806   9.526
  868POPC   GL113537   4.621  23.795   9.133
  868POPC   GL213538   4.262  23.796   9.161
  868POPC   C1A13539   4.506  23.919   8.730
  868POPC   D2A13540   4.284  23.810   8.369
  868POPC   C3A13541   4.483  23.925   7.980
  868POPC   C4A13542   4.238  23.839   7.613
  868POPC   C1B13543   4.286  23.441   8.844
  868POPC   C2B13544   4.244  23.280   8.396
  868POPC   C3B13545   4.279  23.455   7.949
  868POPC   C4B13546   4.445  23.367   7.498
  869POPC   NC313547  41.351  20.952   9.450
  869POPC   PO413548  41.555  21.647   9.417
  869POPC   GL113549  41.530  21.325   9.155
  869POPC   GL213550  41.196  21.365   9.148
  869POPC   C1A13551  41.657  21.339   8.748
  869POPC   D2A13552  41.483  21.538   8.392
  869POPC   C3A13553  41.548  21.385   7.979
  869POPC   C4A13554  41.794  21.692   7.751
  869POPC   C1B13555  41.212  21.119   8.790
  869POPC   C2B13556  41.381  21.033   8.369
  869POPC   C3B13557  41.160  20.952   7.991
  869POPC   C4B13558  41.053  21.253   7.686
  870POPC   NC313559   0.687  43.419   9.336
  870POPC   PO413560   0.351  42.970   9.658
  870POPC   GL113561   0.502  42.947   9.237
  870POPC   GL213562   0.234  43.089   9.116
  870POPC   C1A13563   0.664  42.987   8.790
  870POPC   D2A13564   0.608  43.293   8.463
  870POPC   C3A13565   0.682  43.179   8.043
  870POPC   C4A13566   0.560  43.261   7.609
  870POPC   C1B13567   0.239  42.694   8.865
  870POPC   C2B13568   0.267  42.817   8.420
  870POPC   C3B13569   0.176  43.173   8.136
  870POPC   C4B13570   0.052  43.156   7.714
  871POPC   NC313571  25.973   4.677   9.525
  871POPC   PO413572  25.690   5.288   9.574
  871POPC   GL113573  25.844   5.128   9.185
  871POPC   GL213574  25.697   4.835   9.119
  871POPC   C1A13575  26.103   5.111   8.804
  871POPC   D2A13576  26.306   5.361   8.466
  871POPC   C3A13577  26.334   5.073   8.141
  871POPC   C4A13578  26.004   4.889   7.873
  871POPC   C1B13579  25.614   5.003   8.705
  871POPC   C2B13580  25.794   5.112   8.324
  871POPC   C3B13581  25.540   5.089   7.965
  871POPC   C4B13582  25.582   5.163   7.574
  872POPC   NC313583  29.342  14.082   9.506
  872POPC   PO413584  29.028  14.625   9.765
  872POPC   GL113585  29.040  14.624   9.269
  872POPC   GL213586  29.163  14.364   9.135
  872POPC   C1A13587  29.194  14.742   8.798
  872POPC   D2A13588  29.271  14.573   8.354
  872POPC   C3A13589  29.274  14.455   7.885
  872POPC   C4A13590  29.600  14.510   7.568
  872POPC   C1B13591  29.422  14.274   8.791
  872POPC   C2B13592  29.265  14.054   8.489
  872POPC   C3B13593  29.264  13.982   8.066
  872POPC   C4B13594  28.908  13.976   7.826
  873POPC   NC313595   1.234  27.131   9.393
  873POPC   PO413596   0.922  26.482   9.528
  873POPC   GL113597   0.923  26.738   9.176
  873POPC   GL213598   1.252  26.697   9.083
  873POPC   C1A13599   0.907  26.852   8.724
  873POPC   D2A13600   1.057  26.615   8.388
  873POPC   C3A13601   0.960  26.786   8.008
  873POPC   C4A13602   1.077  27.061   7.699
  873POPC   C1B13603   1.368  26.399   8.756
  873POPC   C2B13604   1.531  26.433   8.321
  873POPC   C3B13605   1.385  26.527   7.888
  873POPC   C4B13606   1.584  26.685   7.527
  874POPC   NC313607  15.602  25.263   9.524
  874POPC   PO413608  16.244  24.996   9.423
  874POPC   GL113609  15.969  25.231   9.177
  874POPC   GL213610  16.092  25.523   9.020
  874POPC   C1A13611  15.826  25.129   8.805
  874POPC   D2A13612  16.099  25.094   8.453
  874POPC   C3A13613  15.855  25.235   8.134
  874POPC   C4A13614  15.975  25.110   7.765
  874POPC   C1B13615  15.953  25.574   8.580
  874POPC   C2B13616  16.175  25.609   8.175
  874POPC   C3B13617  15.978  25.625   7.773
  874POPC   C4B13618  16.016  25.848   7.394
  875POPC   NC313619  27.167  33.096   9.400
  875POPC   PO413620  26.557  32.969   9.725
  875POPC   GL113621  26.598  32.989   9.240
  875POPC   GL213622  26.450  32.710   9.078
  875POPC   C1A13623  26.832  32.916   8.817
  875POPC   D2A13624  27.080  32.996   8.424
  875POPC   C3A13625  26.918  32.883   8.018
  875POPC   C4A13626  26.960  32.962   7.597
  875POPC   C1B13627  26.432  32.624   8.680
  875POPC   C2B13628  26.492  32.774   8.279
  875POPC   C3B13629  26.496  32.581   7.905
  875POPC   C4B13630  26.587  32.649   7.443
  876POPC   NC313631  18.033  21.819   9.507
  876POPC   PO413632  18.482  21.291   9.401
  876POPC   GL113633  18.357  21.603   9.142
  876POPC   GL213634  17.998  21.565   9.035
  876POPC   C1A13635  18.389  21.469   8.728
  876POPC   D2A13636  18.093  21.423   8.437
  876POPC   C3A13637  18.069  21.100   8.174
  876POPC   C4A13638  17.949  21.126   7.776
  876POPC   C1B13639  18.087  21.862   8.763
  876POPC   C2B13640  17.917  21.889   8.411
  876POPC   C3B13641  18.098  21.831   8.070
  876POPC   C4B13642  18.058  21.662   7.723
  877POPC   NC313643  22.732   4.975   9.611
  877POPC   PO413644  23.296   5.330   9.714
  877POPC   GL113645  23.131   5.007   9.279
  877POPC   GL213646  22.763   4.890   9.133
  877POPC   C1A13647  23.052   5.013   8.760
  877POPC   D2A13648  22.850   5.357   8.456
  877POPC   C3A13649  22.748   5.246   8.011
  877POPC   C4A13650  23.030   5.306   7.658
  877POPC   C1B13651  22.538   4.980   8.759
  877POPC   C2B13652  22.730   4.857   8.376
  877POPC   C3B13653  22.634   4.686   8.002
  877POPC   C4B13654  22.421   4.811   7.656
  878POPC   NC313655   9.566  27.131   9.563
  878POPC   PO413656  10.089  27.612   9.557
  878POPC   GL113657   9.869  27.581   9.206
  878POPC   GL213658   9.898  27.251   9.194
  878POPC   C1A13659   9.963  27.621   8.781
  878POPC   D2A13660   9.969  27.454   8.358
  878POPC   C3A13661   9.753  27.736   8.061
  878POPC   C4A13662   9.965  27.594   7.726
  878POPC   C1B13663   9.628  27.247   8.831
  878POPC   C2B13664   9.470  27.468   8.482
  878POPC   C3B13665   9.507  27.304   8.078
  878POPC   C4B13666   9.493  27.313   7.642
  879POPC   NC313667   5.137   3.097   9.334
  879POPC   PO413668   4.727   2.595   9.563
  879POPC   GL113669   4.962   2.620   9.186
  879POPC   GL213670   4.900   2.864   8.918
  879POPC   C1A13671   5.095   2.385   8.837
  879POPC   D2A13672   5.046   2.584   8.478
  879POPC   C3A13673   5.149   2.462   8.075
  879POPC   C4A13674   4.830   2.615   7.795
  879POPC   C1B13675   4.961   3.083   8.498
  879POPC   C2B13676   5.276   2.965   8.189
  879POPC   C3B13677   5.329   2.820   7.748
  879POPC   C4B13678   5.431   2.757   7.297
  880POPC   NC313679   5.843  20.697   9.597
  880POPC   PO413680   5.891  20.135   9.326
  880POPC   GL113681   5.807  20.496   9.106
  880POPC   GL213682   5.594  20.788   9.151
  880POPC   C1A13683   6.066  20.529   8.768
  880POPC   D2A13684   6.063  20.649   8.397
  880POPC   C3A13685   5.821  20.457   8.085
  880POPC   C4A13686   5.988  20.411   7.709
  880POPC   C1B13687   5.736  20.937   8.749
  880POPC   C2B13688   5.826  21.120   8.355
  880POPC   C3B13689   6.047  20.965   8.020
  880POPC   C4B13690   5.693  20.912   7.817
  881POPC   NC313691  11.176  27.225   9.414
  881POPC   PO413692  11.432  27.923   9.642
  881POPC   GL113693  11.317  27.693   9.272
  881POPC   GL213694  11.658  27.673   9.194
  881POPC   C1A13695  11.044  27.557   8.905
  881POPC   D2A13696  11.054  27.484   8.471
  881POPC   C3A13697  11.037  27.457   8.024
  881POPC   C4A13698  11.345  27.606   7.740
  881POPC   C1B13699  11.529  27.661   8.759
  881POPC   C2B13700  11.481  27.813   8.337
  881POPC   C3B13701  11.635  27.993   7.924
  881POPC   C4B13702  11.709  27.864   7.457
  882POPC   NC313703  13.718   8.909   9.542
  882POPC   PO413704  13.120   9.132   9.452
  882POPC   GL113705  13.473   9.165   9.150
  882POPC   GL213706  13.864   9.088   9.097
  882POPC   C1A13707  13.512   8.980   8.759
  882POPC   D2A13708  13.586   8.741   8.446
  882POPC   C3A13709  13.542   8.965   8.076
  882POPC   C4A13710  13.373   9.171   7.730
  882POPC   C1B13711  14.020   8.874   8.739
  882POPC   C2B13712  13.987   9.029   8.335
  882POPC   C3B13713  14.033   9.113   7.937
  882POPC   C4B13714  13.816   8.910   7.625
  883POPC   NC313715  18.923  18.813   9.721
  883POPC   PO413716  19.088  19.482   9.569
  883POPC   GL113717  19.184  19.214   9.227
  883POPC   GL213718  18.980  18.916   9.218
  883POPC   C1A13719  19.287  19.135   8.806
  883POPC   D2A13720  19.158  19.293   8.405
  883POPC   C3A13721  19.179  19.033   8.046
  883POPC   C4A13722  19.411  18.994   7.681
  883POPC   C1B13723  18.786  19.034   8.803
  883POPC   C2B13724  18.794  18.856   8.390
  883POPC   C3B13725  18.659  18.992   7.965
  883POPC   C4B13726  18.925  19.049   7.573
  884POPC   NC313727  14.578  35.413   9.461
  884POPC   PO413728  15.237  35.286   9.487
  884POPC   GL113729  15.221  35.327   9.042
  884POPC   GL213730  14.907  35.121   8.999
  884POPC   C1A13731  15.484  35.504   8.710
  884POPC   D2A13732  15.615  35.337   8.345
  884POPC   C3A13733  15.306  35.319   8.069
  884POPC   C4A13734  15.252  35.446   7.685
  884POPC   C1B13735  15.030  35.210   8.567
  884POPC   C2B13736  14.798  35.359   8.186
  884POPC   C3B13737  14.862  35.098   7.817
  884POPC   C4B13738  14.826  35.104   7.359
  885POPC   NC313739  23.122  40.434   9.413
  885POPC   PO413740  23.037  39.766   9.567
  885POPC   GL113741  22.965  39.994   9.170
  885POPC   GL213742  22.725  39.827   9.005
  885POPC   C1A13743  23.029  40.142   8.725
  885POPC   D2A13744  22.854  40.306   8.320
  885POPC   C3A13745  23.097  40.155   7.969
  885POPC   C4A13746  23.309  40.250   7.585
  885POPC   C1B13747  22.543  40.000   8.648
  885POPC   C2B13748  22.681  39.778   8.306
  885POPC   C3B13749  22.681  39.833   7.893
  885POPC   C4B13750  22.899  39.937   7.551
  886POPC   NC313751  17.806  12.965   9.743
  886POPC   PO413752  17.403  13.148   9.185
  886POPC   GL113753  17.437  12.796   8.981
  886POPC   GL213754  17.661  12.566   9.168
  886POPC   C1A13755  17.360  12.841   8.542
  886POPC   D2A13756  17.050  12.654   8.270
  886POPC   C3A13757  17.242  12.508   7.907
  886POPC   C4A13758  17.543  12.818   7.770
  886POPC   C1B13759  17.831  12.632   8.723
  886POPC   C2B13760  17.849  12.767   8.329
  886POPC   C3B13761  18.031  12.822   7.961
  886POPC   C4B13762  17.976  12.633   7.566
  887POPC   NC313763  40.575  30.093   9.421
  887POPC   PO413764  40.319  29.511   9.347
  887POPC   GL113765  40.782  29.684   9.189
  887POPC   GL213766  40.911  30.029   9.001
  887POPC   C1A13767  40.861  29.567   8.773
  887POPC   D2A13768  40.588  29.658   8.455
  887POPC   C3A13769  40.725  29.562   8.045
  887POPC   C4A13770  40.600  29.797   7.714
  887POPC   C1B13771  40.987  29.998   8.524
  887POPC   C2B13772  40.707  30.072   8.155
  887POPC   C3B13773  40.695  30.320   7.772
  887POPC   C4B13774  40.874  30.296   7.355
  888POPC   NC313775  37.662  12.503   9.385
  888POPC   PO413776  37.421  13.182   9.401
  888POPC   GL113777  37.751  12.965   9.146
  888POPC   GL213778  38.074  12.754   9.174
  888POPC   C1A13779  37.741  12.781   8.749
  888POPC   D2A13780  37.583  12.980   8.389
  888POPC   C3A13781  37.590  12.679   8.086
  888POPC   C4A13782  37.705  12.770   7.700
  888POPC   C1B13783  38.174  12.517   8.766
  888POPC   C2B13784  37.950  12.419   8.394
  888POPC   C3B13785  38.077  12.535   7.982
  888POPC   C4B13786  37.947  12.356   7.604
  889POPC   NC313787   5.393  19.439   9.519
  889POPC   PO413788   5.797  18.844   9.560
  889POPC   GL113789   5.660  19.103   9.213
  889POPC   GL213790   5.994  19.157   9.176
  889POPC   C1A13791   5.674  19.116   8.749
  889POPC   D2A13792   5.779  18.793   8.427
  889POPC   C3A13793   5.630  18.825   7.996
  889POPC   C4A13794   5.492  18.954   7.566
  889POPC   C1B13795   6.170  18.922   8.837
  889POPC   C2B13796   6.292  19.024   8.407
  889POPC   C3B13797   6.196  18.860   7.988
  889POPC   C4B13798   5.967  19.109   7.740
  890POPC   NC313799  41.387   1.295   9.625
  890POPC   PO413800  41.878   1.709   9.513
  890POPC   GL113801  41.684   1.479   9.179
  890POPC   GL213802  42.020   1.455   9.046
  890POPC   C1A13803  41.538   1.242   8.784
  890POPC   D2A13804  41.333   1.059   8.389
  890POPC   C3A13805  41.304   1.223   7.985
  890POPC   C4A13806  41.564   1.145   7.637
  890POPC   C1B13807  42.044   1.092   8.815
  890POPC   C2B13808  41.895   1.124   8.408
  890POPC   C3B13809  42.063   1.217   8.018
  890POPC   C4B13810  42.012   0.898   7.706
  891POPC   NC313811  43.354  43.324   9.538
  891POPC   PO413812  43.505  42.683   9.406
  891POPC   GL113813  43.194  42.976   9.160
  891POPC   GL213814  43.007  43.336   9.157
  891POPC   C1A13815  43.307  43.143   8.769
  891POPC   D2A13816  43.110  43.282   8.411
  891POPC   C3A13817  43.256  43.105   8.042
  891POPC   C4A13818  43.058  42.922   7.649
  891POPC   C1B13819  42.754  43.180   8.817
  891POPC   C2B13820  42.603  43.309   8.413
  891POPC   C3B13821  42.769  43.209   8.002
  891POPC   C4B13822  42.803  43.347   7.547
  892POPC   NC313823  33.518   0.043   9.592
  892POPC   PO413824  34.090   0.338   9.484
  892POPC   GL113825  33.850   0.419   9.124
  892POPC   GL213826  33.546   0.231   9.125
  892POPC   C1A13827  33.956   0.315   8.733
  892POPC   D2A13828  33.962   0.050   8.412
  892POPC   C3A13829  33.918   0.261   8.065
  892POPC   C4A13830  33.944   0.081   7.736
  892POPC   C1B13831  33.452   0.410   8.776
  892POPC   C2B13832  33.489   0.259   8.385
  892POPC   C3B13833  33.442   0.443   7.998
  892POPC   C4B13834  33.561   0.353   7.591
  893POPC   NC313835   3.267  43.639   9.546
  893POPC   PO413836   3.469  44.306   9.475
  893POPC   GL113837   3.353  44.164   9.087
  893POPC   GL213838   3.400  43.790   9.068
  893POPC   C1A13839   3.448  44.140   8.663
  893POPC   D2A13840   3.316  43.937   8.293
  893POPC   C3A13841   3.661  43.856   7.985
  893POPC   C4A13842   3.774  43.912   7.554
  893POPC   C1B13843   3.585  43.622   8.685
  893POPC   C2B13844   3.436  43.436   8.314
  893POPC   C3B13845   3.237  43.565   7.942
  893POPC   C4B13846   3.533  43.430   7.683
  894POPC   NC313847   3.659  27.381   9.500
  894POPC   PO413848   2.968  27.446   9.369
  894POPC   GL113849   3.287  27.384   9.149
  894POPC   GL213850   3.411  27.703   9.188
  894POPC   C1A13851   3.451  27.237   8.798
  894POPC   D2A13852   3.311  27.435   8.444
  894POPC   C3A13853   3.552  27.538   8.080
  894POPC   C4A13854   3.606  27.305   7.709
  894POPC   C1B13855   3.613  27.721   8.788
  894POPC   C2B13856   3.783  27.926   8.390
  894POPC   C3B13857   3.655  28.040   7.994
  894POPC   C4B13858   3.530  27.914   7.606
  895POPC   NC313859   2.034  42.509   9.575
  895POPC   PO413860   2.509  42.138   9.209
  895POPC   GL113861   2.256  42.446   9.104
  895POPC   GL213862   1.883  42.388   9.114
  895POPC   C1A13863   2.125  42.374   8.691
  895POPC   D2A13864   1.866  42.213   8.359
  895POPC   C3A13865   2.089  42.301   7.990
  895POPC   C4A13866   2.119  42.534   7.625
  895POPC   C1B13867   1.647  42.510   8.731
  895POPC   C2B13868   1.520  42.588   8.296
  895POPC   C3B13869   1.616  42.470   7.842
  895POPC   C4B13870   1.680  42.638   7.375
  896POPC   NC313871  22.158  14.103   9.412
  896POPC   PO413872  22.164  14.814   9.471
  896POPC   GL113873  22.261  14.669   9.042
  896POPC   GL213874  22.347  14.320   9.000
  896POPC   C1A13875  22.228  14.693   8.581
  896POPC   D2A13876  21.873  14.623   8.305
  896POPC   C3A13877  21.870  14.204   8.128
  896POPC   C4A13878  21.855  14.305   7.713
  896POPC   C1B13879  22.617  14.059   8.731
  896POPC   C2B13880  22.549  14.325   8.386
  896POPC   C3B13881  22.356  14.393   8.013
  896POPC   C4B13882  22.394  14.701   7.747
  897POPC   NC313883  41.574  39.670   9.417
  897POPC   PO413884  41.435  39.052   9.454
  897POPC   GL113885  41.226  39.136   9.088
  897POPC   GL213886  41.109  39.500   9.194
  897POPC   C1A13887  41.450  39.028   8.686
  897POPC   D2A13888  41.840  39.210   8.436
  897POPC   C3A13889  41.774  39.110   7.994
  897POPC   C4A13890  41.412  38.875   7.886
  897POPC   C1B13891  41.293  39.524   8.778
  897POPC   C2B13892  41.370  39.403   8.367
  897POPC   C3B13893  41.701  39.603   8.115
  897POPC   C4B13894  41.508  39.538   7.743
  898POPC   NC313895  41.442   8.957   9.461
  898POPC   PO413896  42.170   9.054   9.447
  898POPC   GL113897  41.827   9.202   9.187
  898POPC   GL213898  41.637   8.909   9.012
  898POPC   C1A13899  41.789   9.321   8.778
  898POPC   D2A13900  41.768   8.942   8.516
  898POPC   C3A13901  41.797   8.992   8.082
  898POPC   C4A13902  41.605   9.110   7.693
  898POPC   C1B13903  41.341   8.688   8.751
  898POPC   C2B13904  41.427   8.507   8.352
  898POPC   C3B13905  41.405   8.673   7.940
  898POPC   C4B13906  41.285   8.757   7.524
  899POPC   NC313907   3.824  20.142   9.389
  899POPC   PO413908   3.346  19.718   9.517
  899POPC   GL113909   3.554  19.798   9.126
  899POPC   GL213910   3.663  19.440   9.183
  899POPC   C1A13911   3.674  20.035   8.714
  899POPC   D2A13912   3.807  20.021   8.232
  899POPC   C3A13913   3.518  20.103   7.858
  899POPC   C4A13914   3.431  20.068   7.388
  899POPC   C1B13915   3.417  19.444   8.811
  899POPC   C2B13916   3.601  19.605   8.450
  899POPC   C3B13917   3.488  19.624   8.038
  899POPC   C4B13918   3.652  19.650   7.627
  900POPC   NC313919  20.199  36.722   9.498
  900POPC   PO413920  19.706  37.216   9.453
  900POPC   GL113921  20.062  37.076   9.141
  900POPC   GL213922  19.995  36.707   8.939
  900POPC   C1A13923  20.254  37.078   8.752
  900POPC   D2A13924  20.118  36.849   8.414
  900POPC   C3A13925  20.301  37.088   8.126
  900POPC   C4A13926  20.095  37.232   7.770
  900POPC   C1B13927  19.645  36.668   8.558
  900POPC   C2B13928  19.358  37.016   8.399
  900POPC   C3B13929  19.508  37.133   7.987
  900POPC   C4B13930  19.841  36.809   7.901
  901POPC   NC313931   2.345  44.826   9.467
  901POPC   PO413932   1.844  44.382   9.655
  901POPC   GL113933   1.895  44.621   9.231
  901POPC   GL213934   2.109  44.822   9.037
  901POPC   C1A13935   1.691  44.718   8.787
  901POPC   D2A13936   1.877  44.814   8.383
  901POPC   C3A13937   1.759  44.599   8.024
  901POPC   C4A13938   1.853  44.881   7.729
  901POPC   C1B13939   2.191  44.553   8.711
  901POPC   C2B13940   2.284  44.547   8.268
  901POPC   C3B13941   2.313  44.715   7.831
  901POPC   C4B13942   2.246  44.669   7.350
  902POPC   NC313943   4.211  11.747   9.352
  902POPC   PO413944   3.914  12.312   9.159
  902POPC   GL113945   4.328  12.163   9.089
  902POPC   GL213946   4.514  12.430   9.208
  902POPC   C1A13947   4.329  12.037   8.687
  902POPC   D2A13948   4.042  12.389   8.522
  902POPC   C3A13949   4.104  12.438   8.091
  902POPC   C4A13950   4.322  12.149   7.855
  902POPC   C1B13951   4.558  12.500   8.764
  902POPC   C2B13952   4.551  12.333   8.341
  902POPC   C3B13953   4.615  11.913   8.213
  902POPC   C4B13954   4.567  11.718   7.820
  903POPC   NC313955  23.511  28.942   9.463
  903POPC   PO413956  24.035  29.413   9.417
  903POPC   GL113957  23.845  29.109   9.124
  903POPC   GL213958  23.491  29.190   9.030
  903POPC   C1A13959  23.742  28.795   8.810
  903POPC   D2A13960  23.736  29.074   8.467
  903POPC   C3A13961  23.978  29.029   8.100
  903POPC   C4A13962  23.954  29.007   7.683
  903POPC   C1B13963  23.253  28.991   8.729
  903POPC   C2B13964  23.331  28.827   8.330
  903POPC   C3B13965  23.490  29.003   7.974
  903POPC   C4B13966  23.301  28.964   7.620
  904POPC   NC313967  44.301  27.983   9.940
  904POPC   PO413968  44.727  27.572   9.571
  904POPC   GL113969  44.843  27.535   9.150
  904POPC   GL213970  44.607  27.816   9.074
  904POPC   C1A13971  44.662  27.437   8.739
  904POPC   D2A13972  44.824  27.404   8.328
  904POPC   C3A13973  44.733  27.535   7.889
  904POPC   C4A13974  44.637  27.224   7.538
  904POPC   C1B13975  44.776  27.935   8.685
  904POPC   C2B13976  44.939  27.903   8.236
  904POPC   C3B13977   0.023  27.969   7.811
  904POPC   C4B13978  44.898  28.088   7.408
  905POPC   NC313979  32.406   5.622   9.509
  905POPC   PO413980  32.363   6.329   9.468
  905POPC   GL113981  32.296   5.988   9.144
  905POPC   GL213982  32.607   5.827   9.068
  905POPC   C1A13983  31.987   5.836   8.810
  905POPC   D2A13984  31.712   5.768   8.436
  905POPC   C3A13985  31.922   5.812   8.019
  905POPC   C4A13986  32.327   5.971   7.825
  905POPC   C1B13987  32.515   5.629   8.646
  905POPC   C2B13988  32.382   5.585   8.204
  905POPC   C3B13989  32.597   5.553   7.786
  905POPC   C4B13990  32.642   5.801   7.395
  906POPC   NC313991  38.796  35.493   9.392
  906POPC   PO413992  39.404  35.307   9.518
  906POPC   GL113993  39.347  35.064   9.174
  906POPC   GL213994  39.002  35.043   9.213
  906POPC   C1A13995  39.519  35.118   8.793
  906POPC   D2A13996  39.482  35.437   8.509
  906POPC   C3A13997  39.576  35.300   8.122
  906POPC   C4A13998  39.504  35.619   7.883
  906POPC   C1B13999  39.029  35.252   8.806
  906POPC   C2B14000  39.108  35.082   8.430
  906POPC   C3B14001  39.072  35.329   8.090
  906POPC   C4B14002  39.015  35.215   7.702
  907POPC   NC314003   6.909  14.148   9.589
  907POPC   PO414004   6.381  14.499   9.576
  907POPC   GL114005   6.409  14.627   9.165
  907POPC   GL214006   6.744  14.513   9.173
  907POPC   C1A14007   6.353  14.366   8.777
  907POPC   D2A14008   6.517  14.176   8.394
  907POPC   C3A14009   6.310  14.155   7.977
  907POPC   C4A14010   6.309  14.413   7.617
  907POPC   C1B14011   6.883  14.308   8.794
  907POPC   C2B14012   7.016  14.438   8.381
  907POPC   C3B14013   6.752  14.448   8.019
  907POPC   C4B14014   6.788  14.249   7.643
  908POPC   NC314015  30.552   6.743   9.471
  908POPC   PO414016  30.703   6.088   9.491
  908POPC   GL114017  30.883   6.369   9.146
  908POPC   GL214018  30.593   6.563   8.997
  908POPC   C1A14019  30.969   6.470   8.684
  908POPC   D2A14020  30.711   6.682   8.356
  908POPC   C3A14021  30.683   6.469   7.960
  908POPC   C4A14022  30.992   6.401   7.594
  908POPC   C1B14023  30.395   6.883   8.734
  908POPC   C2B14024  30.248   6.925   8.309
  908POPC   C3B14025  30.321   6.841   7.893
  908POPC   C4B14026  30.647   6.802   7.592
  909POPC   NC314027   2.144  32.372   9.532
  909POPC   PO414028   1.737  31.867   9.351
  909POPC   GL114029   2.070  32.115   9.107
  909POPC   GL214030   2.047  32.463   9.060
  909POPC   C1A14031   2.279  32.185   8.697
  909POPC   D2A14032   2.028  32.192   8.330
  909POPC   C3A14033   2.118  32.085   7.886
  909POPC   C4A14034   2.288  32.360   7.562
  909POPC   C1B14035   1.991  32.679   8.702
  909POPC   C2B14036   2.177  32.716   8.348
  909POPC   C3B14037   1.996  32.584   7.979
  909POPC   C4B14038   2.019  32.769   7.594
  910POPC   NC314039  34.807  14.775   9.609
  910POPC   PO414040  34.351  15.202   9.385
  910POPC   GL114041  34.439  15.073   9.010
  910POPC   GL214042  34.387  14.747   9.041
  910POPC   C1A14043  34.650  15.191   8.635
  910POPC   D2A14044  34.838  15.287   8.265
  910POPC   C3A14045  34.606  15.217   7.857
  910POPC   C4A14046  34.629  15.320   7.410
  910POPC   C1B14047  34.407  14.737   8.611
  910POPC   C2B14048  34.438  14.939   8.246
  910POPC   C3B14049  34.275  14.824   7.870
  910POPC   C4B14050  34.285  14.913   7.454
  911POPC   NC314051  33.417   4.821   9.247
  911POPC   PO414052  33.958   4.370   9.468
  911POPC   GL114053  33.704   4.378   9.133
  911POPC   GL214054  33.860   4.681   9.050
  911POPC   C1A14055  33.745   4.150   8.747
  911POPC   D2A14056  33.529   4.065   8.361
  911POPC   C3A14057  33.761   4.159   7.977
  911POPC   C4A14058  33.708   4.506   7.746
  911POPC   C1B14059  34.035   4.672   8.682
  911POPC   C2B14060  33.889   4.508   8.332
  911POPC   C3B14061  34.098   4.698   8.021
  911POPC   C4B14062  34.072   4.780   7.589
  912POPC   NC314063  13.443  31.844   9.395
  912POPC   PO414064  13.570  31.268   9.497
  912POPC   GL114065  13.584  31.453   9.099
  912POPC   GL214066  13.864  31.299   9.040
  912POPC   C1A14067  13.381  31.499   8.678
  912POPC   D2A14068  13.120  31.454   8.321
  912POPC   C3A14069  13.359  31.394   7.951
  912POPC   C4A14070  13.333  31.713   7.673
  912POPC   C1B14071  13.885  31.602   8.707
  912POPC   C2B14072  13.914  31.938   8.390
  912POPC   C3B14073  13.803  31.744   7.983
  912POPC   C4B14074  13.888  31.330   7.786
  913POPC   NC314075  13.018  37.055   9.499
  913POPC   PO414076  12.476  36.786   9.572
  913POPC   GL114077  12.718  36.621   9.206
  913POPC   GL214078  12.901  36.909   9.035
  913POPC   C1A14079  12.748  36.540   8.744
  913POPC   D2A14080  12.852  36.928   8.490
  913POPC   C3A14081  12.728  36.902   8.059
  913POPC   C4A14082  12.826  36.546   7.827
  913POPC   C1B14083  12.724  37.271   8.859
  913POPC   C2B14084  12.678  37.449   8.423
  913POPC   C3B14085  12.997  37.330   8.113
  913POPC   C4B14086  13.117  37.177   7.706
  914POPC   NC314087  40.944  32.513   9.455
  914POPC   PO414088  41.599  32.956   9.432
  914POPC   GL114089  41.574  33.148   9.053
  914POPC   GL214090  41.777  33.429   9.032
  914POPC   C1A14091  41.509  33.002   8.664
  914POPC   D2A14092  41.403  33.097   8.262
  914POPC   C3A14093  41.565  32.815   7.924
  914POPC   C4A14094  41.516  32.929   7.482
  914POPC   C1B14095  41.765  33.440   8.570
  914POPC   C2B14096  41.878  33.195   8.187
  914POPC   C3B14097  41.675  33.300   7.810
  914POPC   C4B14098  41.856  33.392   7.413
  915POPC   NC314099  41.810  22.067   9.428
  915POPC   PO414100  41.166  22.289   9.522
  915POPC   GL114101  41.302  22.297   9.150
  915POPC   GL214102  41.074  22.545   9.098
  915POPC   C1A14103  41.497  22.096   8.805
  915POPC   D2A14104  41.753  21.964   8.459
  915POPC   C3A14105  41.576  22.025   8.070
  915POPC   C4A14106  41.747  22.243   7.754
  915POPC   C1B14107  41.286  22.598   8.732
  915POPC   C2B14108  41.485  22.449   8.384
  915POPC   C3B14109  41.399  22.511   7.976
  915POPC   C4B14110  41.278  22.288   7.585
  916POPC   NC314111  31.737  17.442   9.536
  916POPC   PO414112  31.737  16.815   9.517
  916POPC   GL114113  31.526  16.785   9.130
  916POPC   GL214114  31.482  17.125   9.160
  916POPC   C1A14115  31.523  16.630   8.720
  916POPC   D2A14116  31.609  16.298   8.423
  916POPC   C3A14117  31.566  16.461   8.016
  916POPC   C4A14118  31.775  16.659   7.658
  916POPC   C1B14119  31.598  17.156   8.764
  916POPC   C2B14120  31.440  16.989   8.390
  916POPC   C3B14121  31.581  17.000   8.012
  916POPC   C4B14122  31.284  16.840   7.721
  917POPC   NC314123  41.152  30.839   9.419
  917POPC   PO414124  40.723  31.346   9.635
  917POPC   GL114125  40.704  31.220   9.185
  917POPC   GL214126  40.387  31.082   9.147
  917POPC   C1A14127  40.917  31.350   8.750
  917POPC   D2A14128  41.031  31.578   8.345
  917POPC   C3A14129  40.903  31.456   7.909
  917POPC   C4A14130  40.808  31.698   7.513
  917POPC   C1B14131  40.423  31.377   8.794
  917POPC   C2B14132  40.502  31.560   8.385
  917POPC   C3B14133  40.396  31.408   7.981
  917POPC   C4B14134  40.457  31.324   7.541
  918POPC   NC314135  29.923  17.675   9.474
  918POPC   PO414136  29.881  17.024   9.640
  918POPC   GL114137  30.048  17.269   9.226
  918POPC   GL214138  29.764  17.441   9.040
  918POPC   C1A14139  30.208  17.567   8.839
  918POPC   D2A14140  30.089  17.471   8.429
  918POPC   C3A14141  30.189  17.599   8.013
  918POPC   C4A14142  29.850  17.696   7.745
  918POPC   C1B14143  29.652  17.304   8.619
  918POPC   C2B14144  29.712  17.284   8.147
  918POPC   C3B14145  29.738  17.195   7.685
  918POPC   C4B14146  29.564  16.987   7.251
  919POPC   NC314147  20.277  23.996   9.387
  919POPC   PO414148  20.949  24.002   9.427
  919POPC   GL114149  20.701  23.777   9.147
  919POPC   GL214150  20.446  23.493   9.228
  919POPC   C1A14151  20.654  23.964   8.767
  919POPC   D2A14152  20.509  23.886   8.394
  919POPC   C3A14153  20.797  23.725   8.116
  919POPC   C4A14154  20.680  23.825   7.743
  919POPC   C1B14155  20.293  23.608   8.814
  919POPC   C2B14156  20.167  23.501   8.397
  919POPC   C3B14157  20.221  23.711   8.014
  919POPC   C4B14158  20.307  23.491   7.649
  920POPC   NC314159  36.260  38.569   9.366
  920POPC   PO414160  35.688  38.600   9.662
  920POPC   GL114161  35.881  38.303   9.179
  920POPC   GL214162  36.191  38.088   9.194
  920POPC   C1A14163  36.084  38.505   8.695
  920POPC   D2A14164  36.153  38.896   8.385
  920POPC   C3A14165  36.031  38.783   7.942
  920POPC   C4A14166  35.864  38.351   7.767
  920POPC   C1B14167  36.068  37.999   8.755
  920POPC   C2B14168  36.121  38.122   8.277
  920POPC   C3B14169  36.310  38.068   7.817
  920POPC   C4B14170  36.285  38.139   7.325
  921POPC   NC314171   6.652   5.129   9.483
  921POPC   PO414172   6.854   4.668   9.101
  921POPC   GL114173   6.535   4.942   9.016
  921POPC   GL214174   6.696   5.256   8.974
  921POPC   C1A14175   6.354   5.033   8.639
  921POPC   D2A14176   6.332   4.937   8.238
  921POPC   C3A14177   6.625   5.103   8.030
  921POPC   C4A14178   6.530   5.099   7.655
  921POPC   C1B14179   6.870   5.091   8.550
  921POPC   C2B14180   6.850   4.719   8.260
  921POPC   C3B14181   6.826   4.696   7.780
  921POPC   C4B14182   6.848   4.883   7.325
  922POPC   NC314183  17.411  18.803   9.385
  922POPC   PO414184  17.839  19.271   9.288
  922POPC   GL114185  17.479  19.179   9.035
  922POPC   GL214186  17.284  18.842   8.904
  922POPC   C1A14187  17.450  19.308   8.649
  922POPC   D2A14188  17.220  19.205   8.338
  922POPC   C3A14189  17.407  19.165   7.990
  922POPC   C4A14190  17.191  18.861   7.797
  922POPC   C1B14191  17.688  18.777   8.743
  922POPC   C2B14192  17.636  18.878   8.343
  922POPC   C3B14193  17.692  18.749   7.926
  922POPC   C4B14194  17.637  18.891   7.520
  923POPC   NC314195  29.194  32.657   9.453
  923POPC   PO414196  28.900  32.029   9.617
  923POPC   GL114197  28.995  32.271   9.198
  923POPC   GL214198  29.286  32.135   9.196
  923POPC   C1A14199  29.219  32.459   8.803
  923POPC   D2A14200  29.052  32.626   8.447
  923POPC   C3A14201  29.220  32.595   8.024
  923POPC   C4A14202  29.150  32.607   7.571
  923POPC   C1B14203  29.050  32.003   8.773
  923POPC   C2B14204  29.163  32.116   8.378
  923POPC   C3B14205  29.051  31.956   7.994
  923POPC   C4B14206  29.282  32.147   7.693
  924POPC   NC314207  18.438  30.855   9.566
  924POPC   PO414208  18.367  30.216   9.499
  924POPC   GL114209  18.273  30.512   9.156
  924POPC   GL214210  18.253  30.911   9.099
  924POPC   C1A14211  18.239  30.373   8.747
  924POPC   D2A14212  18.079  30.308   8.337
  924POPC   C3A14213  18.075  30.639   8.073
  924POPC   C4A14214  18.211  30.521   7.677
  924POPC   C1B14215  18.117  30.900   8.659
  924POPC   C2B14216  18.304  31.081   8.289
  924POPC   C3B14217  18.388  31.012   7.860
  924POPC   C4B14218  17.961  30.967   7.692
  925POPC   NC314219   8.400  37.981   9.514
  925POPC   PO414220   7.733  37.762   9.472
  925POPC   GL114221   7.961  37.633   9.139
  925POPC   GL214222   7.741  37.450   8.953
  925POPC   C1A14223   8.206  37.648   8.776
  925POPC   D2A14224   8.298  37.992   8.482
  925POPC   C3A14225   8.525  37.853   8.135
  925POPC   C4A14226   8.318  37.929   7.744
  925POPC   C1B14227   7.773  37.493   8.519
  925POPC   C2B14228   8.145  37.491   8.278
  925POPC   C3B14229   8.113  37.436   7.863
  925POPC   C4B14230   7.765  37.400   7.576
  926POPC   NC314231  32.199  27.043   9.647
  926POPC   PO414232  32.477  26.516   9.509
  926POPC   GL114233  32.210  26.722   9.201
  926POPC   GL214234  32.279  27.098   9.157
  926POPC   C1A14235  32.016  26.822   8.793
  926POPC   D2A14236  31.840  26.935   8.387
  926POPC   C3A14237  32.067  26.673   8.084
  926POPC   C4A14238  32.247  26.828   7.712
  926POPC   C1B14239  32.283  27.251   8.747
  926POPC   C2B14240  32.339  27.040   8.370
  926POPC   C3B14241  32.212  27.231   8.020
  926POPC   C4B14242  32.549  27.317   7.764
  927POPC   NC314243  40.738  41.757   9.372
  927POPC   PO414244  40.244  41.259   9.237
  927POPC   GL114245  40.629  41.405   9.045
  927POPC   GL214246  41.018  41.403   9.114
  927POPC   C1A14247  40.757  41.679   8.718
  927POPC   D2A14248  40.900  41.566   8.325
  927POPC   C3A14249  40.658  41.566   7.961
  927POPC   C4A14250  40.666  41.213   7.693
  927POPC   C1B14251  41.223  41.388   8.708
  927POPC   C2B14252  41.378  41.364   8.269
  927POPC   C3B14253  41.181  41.483   7.872
  927POPC   C4B14254  41.049  41.449   7.456
  928POPC   NC314255   2.688  21.016   9.528
  928POPC   PO414256   2.679  20.370   9.513
  928POPC   GL114257   2.671  20.655   9.182
  928POPC   GL214258   3.029  20.692   9.095
  928POPC   C1A14259   2.644  20.903   8.827
  928POPC   D2A14260   2.843  20.778   8.464
  928POPC   C3A14261   2.533  20.744   8.147
  928POPC   C4A14262   2.639  20.666   7.704
  928POPC   C1B14263   2.861  20.304   8.877
  928POPC   C2B14264   2.830  20.234   8.449
  928POPC   C3B14265   2.912  20.389   8.061
  928POPC   C4B14266   2.797  20.165   7.679
  929POPC   NC314267   9.199  29.014   9.412
  929POPC   PO414268   8.780  29.514   9.576
  929POPC   GL114269   8.814  29.324   9.166
  929POPC   GL214270   8.725  29.594   8.957
  929POPC   C1A14271   8.963  29.120   8.773
  929POPC   D2A14272   8.931  29.270   8.359
  929POPC   C3A14273   9.203  29.117   8.071
  929POPC   C4A14274   9.136  29.013   7.643
  929POPC   C1B14275   8.497  29.329   8.688
  929POPC   C2B14276   8.447  29.115   8.309
  929POPC   C3B14277   8.665  29.106   7.938
  929POPC   C4B14278   8.881  29.443   7.860
  930POPC   NC314279  27.396  17.874   9.459
  930POPC   PO414280  27.877  17.456   9.241
  930POPC   GL114281  27.704  17.531   8.925
  930POPC   GL214282  27.358  17.619   9.010
  930POPC   C1A14283  27.690  17.225   8.600
  930POPC   D2A14284  27.699  16.969   8.242
  930POPC   C3A14285  27.694  17.265   7.920
  930POPC   C4A14286  27.625  17.603   7.655
  930POPC   C1B14287  27.407  17.657   8.561
  930POPC   C2B14288  27.656  17.726   8.221
  930POPC   C3B14289  27.483  18.001   7.931
  930POPC   C4B14290  27.161  17.855   7.632
  931POPC   NC314291  19.054  25.402   9.625
  931POPC   PO414292  19.173  26.108   9.532
  931POPC   GL114293  19.056  26.161   9.111
  931POPC   GL214294  18.812  25.934   9.000
  931POPC   C1A14295  19.134  26.220   8.665
  931POPC   D2A14296  19.090  26.448   8.273
  931POPC   C3A14297  19.208  26.262   7.863
  931POPC   C4A14298  19.194  26.039   7.436
  931POPC   C1B14299  18.791  25.796   8.585
  931POPC   C2B14300  18.919  25.702   8.177
  931POPC   C3B14301  18.823  25.917   7.818
  931POPC   C4B14302  18.618  25.725   7.501
  932POPC   NC314303  42.434  24.986   9.505
  932POPC   PO414304  41.986  25.452   9.408
  932POPC   GL114305  42.249  25.232   9.083
  932POPC   GL214306  42.618  25.262   9.109
  932POPC   C1A14307  42.409  25.295   8.624
  932POPC   D2A14308  42.456  25.625   8.280
  932POPC   C3A14309  42.183  25.528   7.927
  932POPC   C4A14310  42.174  25.343   7.495
  932POPC   C1B14311  42.573  24.876   8.872
  932POPC   C2B14312  42.607  24.822   8.449
  932POPC   C3B14313  42.764  24.970   8.072
  932POPC   C4B14314  42.426  25.037   7.813
  933POPC   NC314315  22.293  28.252   9.928
  933POPC   PO414316  21.864  28.281   9.455
  933POPC   GL114317  22.092  28.386   9.125
  933POPC   GL214318  22.368  28.192   9.189
  933POPC   C1A14319  21.994  28.499   8.720
  933POPC   D2A14320  21.926  28.234   8.380
  933POPC   C3A14321  22.043  28.442   8.028
  933POPC   C4A14322  21.805  28.443   7.651
  933POPC   C1B14323  22.359  28.105   8.766
  933POPC   C2B14324  22.452  28.278   8.380
  933POPC   C3B14325  22.376  28.063   8.029
  933POPC   C4B14326  22.142  28.087   7.686
  934POPC   NC314327   8.867   9.285   9.480
  934POPC   PO414328   8.890   8.605   9.340
  934POPC   GL114329   8.831   8.898   9.099
  934POPC   GL214330   9.118   9.090   9.092
  934POPC   C1A14331   8.933   8.796   8.708
  934POPC   D2A14332   8.862   8.924   8.327
  934POPC   C3A14333   9.158   8.716   8.076
  934POPC   C4A14334   9.291   8.832   7.707
  934POPC   C1B14335   8.908   9.296   8.719
  934POPC   C2B14336   9.112   9.427   8.316
  934POPC   C3B14337   9.020   9.236   7.934
  934POPC   C4B14338   8.750   8.877   7.834
  935POPC   NC314339  11.284  42.829   9.237
  935POPC   PO414340  11.620  42.270   9.287
  935POPC   GL114341  11.139  42.366   9.131
  935POPC   GL214342  11.050  42.046   9.093
  935POPC   C1A14343  11.009  42.588   8.697
  935POPC   D2A14344  11.319  42.527   8.326
  935POPC   C3A14345  11.218  42.241   7.993
  935POPC   C4A14346  10.938  42.539   7.829
  935POPC   C1B14347  11.299  42.164   8.704
  935POPC   C2B14348  11.599  42.079   8.369
  935POPC   C3B14349  11.711  42.118   7.931
  935POPC   C4B14350  11.488  42.260   7.527
  936POPC   NC314351  32.817  19.251   9.452
  936POPC   PO414352  33.301  18.803   9.540
  936POPC   GL114353  33.122  18.926   9.172
  936POPC   GL214354  33.474  18.913   9.056
  936POPC   C1A14355  33.106  19.220   8.831
  936POPC   D2A14356  33.224  19.286   8.426
  936POPC   C3A14357  32.986  19.194   8.068
  936POPC   C4A14358  33.068  19.193   7.640
  936POPC   C1B14359  33.280  18.678   8.729
  936POPC   C2B14360  33.027  18.718   8.377
  936POPC   C3B14361  33.079  18.731   7.925
  936POPC   C4B14362  33.036  18.711   7.498
  937POPC   NC314363  17.303  21.887   9.334
  937POPC   PO414364  17.805  22.319   9.553
  937POPC   GL114365  17.603  22.280   9.160
  937POPC   GL214366  17.793  22.034   9.114
  937POPC   C1A14367  17.465  22.005   8.739
  937POPC   D2A14368  17.209  22.115   8.419
  937POPC   C3A14369  17.411  21.919   8.099
  937POPC   C4A14370  17.551  21.981   7.736
  937POPC   C1B14371  17.868  22.315   8.738
  937POPC   C2B14372  17.673  22.305   8.349
  937POPC   C3B14373  17.733  22.423   7.973
  937POPC   C4B14374  17.985  22.192   7.703
  938POPC   NC314375   9.685  11.472   9.567
  938POPC   PO414376  10.118  10.951   9.530
  938POPC   GL114377   9.985  11.294   9.203
  938POPC   GL214378   9.629  11.351   9.088
  938POPC   C1A14379  10.007  11.395   8.764
  938POPC   D2A14380   9.704  11.384   8.443
  938POPC   C3A14381   9.891  11.252   8.085
  938POPC   C4A14382  10.202  11.271   7.767
  938POPC   C1B14383   9.496  11.689   8.803
  938POPC   C2B14384   9.292  11.708   8.388
  938POPC   C3B14385   9.345  11.451   8.018
  938POPC   C4B14386   9.675  11.437   7.680
  939POPC   NC314387   5.612  25.525   9.321
  939POPC   PO414388   6.189  25.859   9.578
  939POPC   GL114389   6.085  26.009   9.165
  939POPC   GL214390   5.971  25.702   8.998
  939POPC   C1A14391   5.975  26.204   8.757
  939POPC   D2A14392   5.937  26.027   8.340
  939POPC   C3A14393   5.895  26.262   7.951
  939POPC   C4A14394   5.519  26.266   7.693
  939POPC   C1B14395   5.600  25.806   8.720
  939POPC   C2B14396   5.418  25.702   8.326
  939POPC   C3B14397   5.639  25.788   7.959
  939POPC   C4B14398   5.582  25.790   7.516
  940POPC   NC314399  11.022  33.627   9.582
  940POPC   PO414400  11.673  33.800   9.613
  940POPC   GL114401  11.450  33.774   9.212
  940POPC   GL214402  11.225  33.590   9.109
  940POPC   C1A14403  11.374  33.966   8.791
  940POPC   D2A14404  11.391  34.260   8.414
  940POPC   C3A14405  11.141  34.159   8.035
  940POPC   C4A14406  11.328  34.040   7.649
  940POPC   C1B14407  11.227  33.345   8.758
  940POPC   C2B14408  11.080  33.338   8.364
  940POPC   C3B14409  11.284  33.343   8.013
  940POPC   C4B14410  11.059  33.671   7.830
  941POPC   NC314411   1.435  25.526   9.469
  941POPC   PO414412   1.004  24.992   9.440
  941POPC   GL114413   1.247  25.183   9.131
  941POPC   GL214414   1.096  25.508   9.080
  941POPC   C1A14415   1.439  25.333   8.748
  941POPC   D2A14416   1.261  25.478   8.368
  941POPC   C3A14417   1.394  25.164   8.087
  941POPC   C4A14418   1.603  25.457   7.826
  941POPC   C1B14419   0.909  25.327   8.758
  941POPC   C2B14420   0.938  25.089   8.408
  941POPC   C3B14421   0.874  25.244   8.038
  941POPC   C4B14422   1.109  25.330   7.698
  942POPC   NC314423  28.929   3.960   9.530
  942POPC   PO414424  28.846   4.588   9.452
  942POPC   GL114425  29.071   4.389   9.153
  942POPC   GL214426  29.068   4.030   9.056
  942POPC   C1A14427  28.936   4.466   8.779
  942POPC   D2A14428  28.895   4.159   8.442
  942POPC   C3A14429  28.975   4.309   8.033
  942POPC   C4A14430  28.780   4.385   7.647
  942POPC   C1B14431  29.325   4.160   8.718
  942POPC   C2B14432  29.498   4.157   8.319
  942POPC   C3B14433  29.375   4.029   7.914
  942POPC   C4B14434  29.235   4.226   7.545
  943POPC   NC314435  38.151   9.344   9.432
  943POPC   PO414436  38.617   9.801   9.562
  943POPC   GL114437  38.371   9.925   9.194
  943POPC   GL214438  38.388   9.603   9.052
  943POPC   C1A14439  38.435   9.990   8.731
  943POPC   D2A14440  38.366   9.857   8.291
  943POPC   C3A14441  38.330  10.054   7.898
  943POPC   C4A14442  38.678   9.933   7.638
  943POPC   C1B14443  38.406   9.478   8.613
  943POPC   C2B14444  38.686   9.382   8.262
  943POPC   C3B14445  38.775   9.482   7.842
  943POPC   C4B14446  38.901   9.284   7.467
  944POPC   NC314447   9.493   6.688   9.507
  944POPC   PO414448   8.910   6.755   9.178
  944POPC   GL114449   9.051   6.455   8.967
  944POPC   GL214450   8.754   6.244   9.133
  944POPC   C1A14451   9.153   6.727   8.607
  944POPC   D2A14452   8.887   6.887   8.313
  944POPC   C3A14453   9.010   6.724   7.944
  944POPC   C4A14454   9.018   6.839   7.516
  944POPC   C1B14455   8.536   6.417   8.767
  944POPC   C2B14456   8.341   6.556   8.400
  944POPC   C3B14457   8.499   6.697   8.004
  944POPC   C4B14458   8.721   6.438   7.670
  945POPC   NC314459  17.292  22.468   9.599
  945POPC   PO414460  17.595  22.969   9.777
  945POPC   GL114461  17.636  22.789   9.334
  945POPC   GL214462  17.338  22.737   9.160
  945POPC   C1A14463  17.705  22.900   8.857
  945POPC   D2A14464  17.653  23.158   8.464
  945POPC   C3A14465  17.702  22.975   8.022
  945POPC   C4A14466  17.526  22.956   7.583
  945POPC   C1B14467  17.403  22.518   8.730
  945POPC   C2B14468  17.391  22.705   8.327
  945POPC   C3B14469  17.276  22.674   7.913
  945POPC   C4B14470  16.958  22.723   7.612
  946POPC   NC314471  36.900  36.438   9.862
  946POPC   PO414472  37.272  36.120   9.405
  946POPC   GL114473  36.879  36.152   9.188
  946POPC   GL214474  37.066  36.358   8.988
  946POPC   C1A14475  36.675  36.205   8.741
  946POPC   D2A14476  36.629  36.189   8.297
  946POPC   C3A14477  36.936  36.177   8.040
  946POPC   C4A14478  36.940  36.177   7.652
  946POPC   C1B14479  37.128  35.931   8.803
  946POPC   C2B14480  37.069  35.864   8.411
  946POPC   C3B14481  37.119  35.709   8.036
  946POPC   C4B14482  37.302  35.816   7.691
  947POPC   NC314483  15.331  28.544   9.414
  947POPC   PO414484  15.169  27.899   9.520
  947POPC   GL114485  15.122  28.127   9.138
  947POPC   GL214486  14.941  28.446   9.087
  947POPC   C1A14487  14.997  28.127   8.707
  947POPC   D2A14488  15.307  28.240   8.431
  947POPC   C3A14489  15.337  28.103   8.035
  947POPC   C4A14490  15.697  28.091   7.767
  947POPC   C1B14491  15.228  28.617   8.784
  947POPC   C2B14492  15.365  28.749   8.400
  947POPC   C3B14493  15.221  28.604   8.039
  947POPC   C4B14494  15.331  28.453   7.664
  948POPC   NC314495  23.504  44.493   9.663
  948POPC   PO414496  24.049  44.819   9.620
  948POPC   GL114497  23.894  44.715   9.196
  948POPC   GL214498  23.818  44.344   9.251
  948POPC   C1A14499  23.684  44.917   8.787
  948POPC   D2A14500  23.479  44.942   8.333
  948POPC   C3A14501  23.675   0.005   7.905
  948POPC   C4A14502  23.571  44.898   7.449
  948POPC   C1B14503  23.557  44.452   8.924
  948POPC   C2B14504  23.650  44.493   8.483
  948POPC   C3B14505  23.635  44.502   8.035
  948POPC   C4B14506  23.897  44.566   7.689
  949POPC   NC314507  30.974  44.960  10.022
  949POPC   PO414508  30.618  44.571   9.630
  949POPC   GL114509  30.673  44.574   9.210
  949POPC   GL214510  30.348  44.699   9.164
  949POPC   C1A14511  30.766  44.758   8.846
  949POPC   D2A14512  30.858  44.932   8.474
  949POPC   C3A14513  30.945  44.616   8.208
  949POPC   C4A14514  30.857  44.693   7.794
  949POPC   C1B14515  30.266  44.812   8.776
  949POPC   C2B14516  30.435  44.626   8.432
  949POPC   C3B14517  30.430  44.757   8.036
  949POPC   C4B14518  30.196  44.929   7.722
  950POPC   NC314519  11.467   9.080   9.434
  950POPC   PO414520  10.961   8.596   9.407
  950POPC   GL114521  11.166   8.868   9.111
  950POPC   GL214522  11.151   9.270   9.086
  950POPC   C1A14523  11.372   8.972   8.752
  950POPC   D2A14524  11.281   8.836   8.360
  950POPC   C3A14525  11.532   8.939   8.019
  950POPC   C4A14526  11.346   9.086   7.671
  950POPC   C1B14527  11.017   9.362   8.654
  950POPC   C2B14528  11.040   9.249   8.204
  950POPC   C3B14529  10.926   9.354   7.783
  950POPC   C4B14530  10.789   9.434   7.359
  951POPC   NC314531  32.018  19.338   9.400
  951POPC   PO414532  32.530  18.876   9.466
  951POPC   GL114533  32.389  19.143   9.134
  951POPC   GL214534  32.625  19.345   8.999
  951POPC   C1A14535  32.198  19.150   8.714
  951POPC   D2A14536  32.109  18.896   8.322
  951POPC   C3A14537  32.122  19.024   7.873
  951POPC   C4A14538  32.156  18.822   7.460
  951POPC   C1B14539  32.701  18.918   8.818
  951POPC   C2B14540  32.644  19.081   8.442
  951POPC   C3B14541  32.593  18.847   8.119
  951POPC   C4B14542  32.624  18.912   7.708
  952POPC   NC314543   4.062  25.809   9.465
  952POPC   PO414544   4.682  26.178   9.473
  952POPC   GL114545   4.433  25.995   9.138
  952POPC   GL214546   4.164  26.221   9.167
  952POPC   C1A14547   4.459  25.766   8.725
  952POPC   D2A14548   4.297  25.690   8.278
  952POPC   C3A14549   4.406  26.003   8.004
  952POPC   C4A14550   4.654  26.008   7.633
  952POPC   C1B14551   3.933  26.478   8.830
  952POPC   C2B14552   3.888  26.407   8.415
  952POPC   C3B14553   3.991  26.449   8.002
  952POPC   C4B14554   4.015  26.382   7.550
  953POPC   NC314555  12.846  20.437   9.431
  953POPC   PO414556  13.025  20.948   9.134
  953POPC   GL114557  12.959  20.617   8.935
  953POPC   GL214558  12.618  20.669   8.985
  953POPC   C1A14559  12.945  20.738   8.512
  953POPC   D2A14560  12.592  20.897   8.263
  953POPC   C3A14561  12.729  20.785   7.860
  953POPC   C4A14562  13.077  20.499   7.805
  953POPC   C1B14563  12.540  20.442   8.600
  953POPC   C2B14564  12.768  20.376   8.213
  953POPC   C3B14565  12.618  20.258   7.833
  953POPC   C4B14566  12.664  20.279   7.427
  954POPC   NC314567   9.497   5.859   9.420
  954POPC   PO414568   8.870   5.720   9.550
  954POPC   GL114569   9.041   5.818   9.151
  954POPC   GL214570   9.245   5.517   9.112
  954POPC   C1A14571   8.934   6.030   8.721
  954POPC   D2A14572   8.874   6.347   8.374
  954POPC   C3A14573   9.011   6.173   7.986
  954POPC   C4A14574   9.331   5.914   7.866
  954POPC   C1B14575   8.965   5.521   8.761
  954POPC   C2B14576   8.954   5.644   8.354
  954POPC   C3B14577   9.207   5.444   8.052
  954POPC   C4B14578   9.005   5.553   7.708
  955POPC   NC314579  16.108  37.163   9.423
  955POPC   PO414580  16.153  37.784   9.456
  955POPC   GL114581  15.953  37.626   9.092
  955POPC   GL214582  15.717  37.331   9.104
  955POPC   C1A14583  16.118  37.484   8.708
  955POPC   D2A14584  16.413  37.575   8.369
  955POPC   C3A14585  16.259  37.456   8.012
  955POPC   C4A14586  15.955  37.659   7.828
  955POPC   C1B14587  15.608  37.461   8.671
  955POPC   C2B14588  15.404  37.485   8.265
  955POPC   C3B14589  15.492  37.492   7.781
  955POPC   C4B14590  15.789  37.490   7.377
  956POPC   NC314591  19.132  11.008   9.567
  956POPC   PO414592  18.569  11.319   9.678
  956POPC   GL114593  18.808  11.229   9.234
  956POPC   GL214594  19.165  11.201   9.107
  956POPC   C1A14595  18.800  11.339   8.783
  956POPC   D2A14596  18.552  11.179   8.427
  956POPC   C3A14597  18.722  11.291   8.032
  956POPC   C4A14598  18.860  11.154   7.667
  956POPC   C1B14599  19.336  11.169   8.729
  956POPC   C2B14600  19.123  11.171   8.358
  956POPC   C3B14601  19.261  11.045   7.971
  956POPC   C4B14602  19.345  11.276   7.605
  957POPC   NC314603  21.741  37.320   9.214
  957POPC   PO414604  21.370  36.958   9.664
  957POPC   GL114605  21.287  36.930   9.189
  957POPC   GL214606  21.608  36.852   9.024
  957POPC   C1A14607  21.214  36.671   8.783
  957POPC   D2A14608  21.464  36.621   8.429
  957POPC   C3A14609  21.249  36.723   8.075
  957POPC   C4A14610  21.331  36.627   7.683
  957POPC   C1B14611  21.475  37.116   8.664
  957POPC   C2B14612  21.536  37.118   8.234
  957POPC   C3B14613  21.634  37.035   7.821
  957POPC   C4B14614  21.863  36.854   7.459
  958POPC   NC314615  38.708  18.677   9.578
  958POPC   PO414616  38.095  19.129   9.504
  958POPC   GL114617  38.426  19.093   9.208
  958POPC   GL214618  38.472  18.770   9.157
  958POPC   C1A14619  38.684  19.099   8.822
  958POPC   D2A14620  38.515  19.109   8.434
  958POPC   C3A14621  38.762  19.108   8.089
  958POPC   C4A14622  38.560  19.025   7.707
  958POPC   C1B14623  38.359  18.697   8.771
  958POPC   C2B14624  38.251  18.644   8.402
  958POPC   C3B14625  38.242  18.842   8.057
  958POPC   C4B14626  38.281  18.596   7.696
  959POPC   NC314627  11.017  44.692   9.605
  959POPC   PO414628  11.585  44.356   9.759
  959POPC   GL114629  11.475  44.733   9.371
  959POPC   GL214630  11.191   0.024   9.281
  959POPC   C1A14631  11.535  44.813   8.910
  959POPC   D2A14632  11.542  44.494   8.573
  959POPC   C3A14633  11.403  44.562   8.165
  959POPC   C4A14634  11.420  44.611   7.736
  959POPC   C1B14635  11.098   0.059   8.851
  959POPC   C2B14636  11.061  44.748   8.534
  959POPC   C3B14637  10.920  44.724   8.121
  959POPC   C4B14638  11.144   0.018   7.887
  960POPC   NC314639  14.088   1.323   9.412
  960POPC   PO414640  14.650   0.926   9.355
  960POPC   GL114641  14.312   1.013   9.074
  960POPC   GL214642  14.460   1.363   9.078
  960POPC   C1A14643  14.203   1.223   8.678
  960POPC   D2A14644  14.418   1.470   8.355
  960POPC   C3A14645  14.243   1.365   7.968
  960POPC   C4A14646  14.157   0.965   7.801
  960POPC   C1B14647  14.724   1.208   8.763
  960POPC   C2B14648  14.946   1.265   8.417
  960POPC   C3B14649  14.766   1.286   8.028
  960POPC   C4B14650  14.934   1.218   7.664
  961POPC   NC314651   7.470  38.164   9.386
  961POPC   PO414652   7.450  38.721   9.479
  961POPC   GL114653   7.337  38.635   9.062
  961POPC   GL214654   7.135  38.398   9.073
  961POPC   C1A14655   7.413  38.520   8.615
  961POPC   D2A14656   7.444  38.455   8.151
  961POPC   C3A14657   7.759  38.228   7.923
  961POPC   C4A14658   7.948  38.372   7.517
  961POPC   C1B14659   7.075  38.153   8.737
  961POPC   C2B14660   7.007  38.285   8.345
  961POPC   C3B14661   7.007  38.458   7.912
  961POPC   C4B14662   7.363  38.347   7.621
  962POPC   NC314663  29.260  22.488   9.535
  962POPC   PO414664  28.867  21.948   9.395
  962POPC   GL114665  29.160  22.166   9.133
  962POPC   GL214666  29.030  22.502   9.093
  962POPC   C1A14667  29.293  22.251   8.724
  962POPC   D2A14668  29.189  22.082   8.319
  962POPC   C3A14669  29.375  21.869   7.980
  962POPC   C4A14670  29.468  21.887   7.528
  962POPC   C1B14671  28.871  22.722   8.764
  962POPC   C2B14672  28.935  22.500   8.380
  962POPC   C3B14673  29.107  22.435   7.944
  962POPC   C4B14674  29.168  22.560   7.497
  963POPC   NC314675  19.497  13.419   9.422
  963POPC   PO414676  20.124  13.740   9.482
  963POPC   GL114677  20.122  13.654   9.094
  963POPC   GL214678  19.761  13.690   9.089
  963POPC   C1A14679  20.045  13.860   8.721
  963POPC   D2A14680  19.950  13.690   8.384
  963POPC   C3A14681  19.987  13.933   8.041
  963POPC   C4A14682  19.958  13.772   7.672
  963POPC   C1B14683  19.638  13.389   8.751
  963POPC   C2B14684  19.466  13.472   8.381
  963POPC   C3B14685  19.604  13.573   8.026
  963POPC   C4B14686  19.662  13.347   7.701
  964POPC   NC314687  15.742  43.233   9.550
  964POPC   PO414688  16.254  42.778   9.469
  964POPC   GL114689  16.006  42.954   9.126
  964POPC   GL214690  15.783  43.203   9.029
  964POPC   C1A14691  15.989  42.918   8.638
  964POPC   D2A14692  16.231  42.902   8.222
  964POPC   C3A14693  15.984  42.910   7.825
  964POPC   C4A14694  15.596  42.942   7.577
  964POPC   C1B14695  16.264  43.287   8.867
  964POPC   C2B14696  16.388  43.365   8.435
  964POPC   C3B14697  16.194  43.386   8.007
  964POPC   C4B14698  16.385  43.171   7.677
  965POPC   NC314699   6.032   1.854   9.636
  965POPC   PO414700   5.374   1.922   9.550
  965POPC   GL114701   5.612   1.755   9.137
  965POPC   GL214702   6.003   1.751   9.142
  965POPC   C1A14703   5.790   1.884   8.689
  965POPC   D2A14704   5.929   2.254   8.408
  965POPC   C3A14705   5.933   2.189   7.970
  965POPC   C4A14706   5.899   1.942   7.622
  965POPC   C1B14707   6.295   1.706   8.801
  965POPC   C2B14708   6.296   1.898   8.431
  965POPC   C3B14709   6.391   2.000   8.045
  965POPC   C4B14710   6.359   1.748   7.756
  966POPC   NC314711  20.958  20.205   9.293
  966POPC   PO414712  20.960  20.760   9.684
  966POPC   GL114713  20.571  20.538   9.315
  966POPC   GL214714  20.308  20.756   9.156
  966POPC   C1A14715  20.443  20.359   8.848
  966POPC   D2A14716  20.328  20.496   8.364
  966POPC   C3A14717  20.544  20.362   7.938
  966POPC   C4A14718  20.769  20.316   7.536
  966POPC   C1B14719  20.468  20.858   8.746
  966POPC   C2B14720  20.732  20.805   8.394
  966POPC   C3B14721  20.521  20.859   8.022
  966POPC   C4B14722  20.601  20.825   7.619
  967POPC   NC314723  36.539   1.681   9.437
  967POPC   PO414724  36.149   1.170   9.432
  967POPC   GL114725  36.121   1.255   9.043
  967POPC   GL214726  36.383   1.478   9.011
  967POPC   C1A14727  36.182   1.169   8.627
  967POPC   D2A14728  35.954   1.315   8.280
  967POPC   C3A14729  36.154   1.194   7.886
  967POPC   C4A14730  36.365   1.016   7.526
  967POPC   C1B14731  36.586   1.500   8.658
  967POPC   C2B14732  36.459   1.408   8.260
  967POPC   C3B14733  36.608   1.450   7.867
  967POPC   C4B14734  36.578   1.440   7.393
  968POPC   NC314735  29.977  44.545   9.528
  968POPC   PO414736  29.491   0.078   9.396
  968POPC   GL114737  29.818  44.859   9.123
  968POPC   GL214738  29.895  44.466   9.042
  968POPC   C1A14739  29.774  44.824   8.680
  968POPC   D2A14740  29.999  44.868   8.297
  968POPC   C3A14741  29.725  44.870   7.944
  968POPC   C4A14742  29.706  44.825   7.500
  968POPC   C1B14743  29.948  44.347   8.614
  968POPC   C2B14744  29.847  44.382   8.192
  968POPC   C3B14745  30.062  44.455   7.820
  968POPC   C4B14746  30.098  44.539   7.375
  969POPC   NC314747  23.487   4.893   9.677
  969POPC   PO414748  24.054   5.193   9.359
  969POPC   GL114749  23.884   5.136   8.968
  969POPC   GL214750  23.545   5.183   9.031
  969POPC   C1A14751  23.968   5.181   8.508
  969POPC   D2A14752  24.130   4.947   8.154
  969POPC   C3A14753  23.900   5.005   7.795
  969POPC   C4A14754  23.503   5.213   7.817
  969POPC   C1B14755  23.526   4.949   8.628
  969POPC   C2B14756  23.260   5.054   8.278
  969POPC   C3B14757  23.121   4.858   7.930
  969POPC   C4B14758  23.413   4.739   7.624
  970POPC   NC314759  34.746  11.585   9.555
  970POPC   PO414760  34.226  11.170   9.421
  970POPC   GL114761  34.658  11.202   9.209
  970POPC   GL214762  34.848  10.944   9.034
  970POPC   C1A14763  34.782  11.428   8.829
  970POPC   D2A14764  34.478  11.669   8.547
  970POPC   C3A14765  34.428  11.675   8.065
  970POPC   C4A14766  34.321  11.529   7.615
  970POPC   C1B14767  34.517  11.021   8.714
  970POPC   C2B14768  34.568  11.228   8.329
  970POPC   C3B14769  34.521  11.173   7.914
  970POPC   C4B14770  34.212  10.903   7.701
  971POPC   NC314771  35.322  10.965   9.526
  971POPC   PO414772  35.480  10.371   9.725
  971POPC   GL114773  35.486  10.426   9.215
  971POPC   GL214774  35.633  10.751   9.157
  971POPC   C1A14775  35.244  10.321   8.803
  971POPC   D2A14776  35.431  10.309   8.371
  971POPC   C3A14777  35.241  10.134   8.043
  971POPC   C4A14778  35.052  10.486   7.893
  971POPC   C1B14779  35.687  10.580   8.750
  971POPC   C2B14780  35.628  10.779   8.352
  971POPC   C3B14781  35.448  10.925   7.985
  971POPC   C4B14782  35.479  11.147   7.621
  972POPC   NC314783  38.577  37.050   9.557
  972POPC   PO414784  38.208  36.534   9.520
  972POPC   GL114785  38.395  36.777   9.131
  972POPC   GL214786  38.574  37.090   9.076
  972POPC   C1A14787  38.231  37.006   8.737
  972POPC   D2A14788  38.299  36.781   8.346
  972POPC   C3A14789  38.341  36.943   7.925
  972POPC   C4A14790  38.565  36.598   7.738
  972POPC   C1B14791  38.726  36.911   8.714
  972POPC   C2B14792  38.803  37.036   8.331
  972POPC   C3B14793  38.874  36.980   7.914
  972POPC   C4B14794  38.805  37.030   7.471
  973POPC   NC314795  31.947  27.966   9.357
  973POPC   PO414796  32.362  28.334   9.778
  973POPC   GL114797  32.249  28.441   9.298
  973POPC   GL214798  31.877  28.524   9.254
  973POPC   C1A14799  32.314  28.363   8.813
  973POPC   D2A14800  32.463  28.121   8.430
  973POPC   C3A14801  32.288  28.204   8.016
  973POPC   C4A14802  32.378  28.154   7.574
  973POPC   C1B14803  31.870  28.631   8.822
  973POPC   C2B14804  31.979  28.475   8.397
  973POPC   C3B14805  31.965  28.609   7.969
  973POPC   C4B14806  31.935  28.389   7.593
  974POPC   NC314807   0.187   7.121   9.542
  974POPC   PO414808   0.589   6.527   9.520
  974POPC   GL114809   0.553   6.711   9.131
  974POPC   GL214810   0.225   6.816   9.143
  974POPC   C1A14811   0.566   6.888   8.721
  974POPC   D2A14812   0.555   6.646   8.362
  974POPC   C3A14813   0.528   6.802   7.963
  974POPC   C4A14814   0.534   6.577   7.581
  974POPC   C1B14815   0.179   6.526   8.848
  974POPC   C2B14816   0.044   6.612   8.482
  974POPC   C3B14817  44.896   6.753   8.129
  974POPC   C4B14818   0.073   6.816   7.705
  975POPC   NC314819   9.516   1.235   9.234
  975POPC   PO414820  10.082   1.025   9.632
  975POPC   GL114821   9.979   1.037   9.218
  975POPC   GL214822  10.031   1.393   9.228
  975POPC   C1A14823   9.932   1.062   8.749
  975POPC   D2A14824   9.609   0.982   8.437
  975POPC   C3A14825   9.667   1.267   8.104
  975POPC   C4A14826   9.557   1.133   7.699
  975POPC   C1B14827  10.077   1.583   8.822
  975POPC   C2B14828  10.112   1.409   8.412
  975POPC   C3B14829  10.129   1.011   8.211
  975POPC   C4B14830  10.050   1.054   7.775
  976POPC   NC314831   6.741   2.374   9.333
  976POPC   PO414832   6.465   2.950   9.497
  976POPC   GL114833   6.592   2.876   9.107
  976POPC   GL214834   6.902   2.759   9.074
  976POPC   C1A14835   6.464   2.646   8.740
  976POPC   D2A14836   6.180   2.713   8.376
  976POPC   C3A14837   6.338   2.512   8.027
  976POPC   C4A14838   6.671   2.681   7.801
  976POPC   C1B14839   6.985   2.461   8.731
  976POPC   C2B14840   6.920   2.676   8.349
  976POPC   C3B14841   7.006   2.934   8.052
  976POPC   C4B14842   7.147   2.850   7.658
  977POPC   NC314843  29.001   7.040   9.810
  977POPC   PO414844  28.674   7.487   9.431
  977POPC   GL114845  28.474   7.391   9.059
  977POPC   GL214846  28.150   7.549   9.096
  977POPC   C1A14847  28.441   7.197   8.662
  977POPC   D2A14848  28.539   7.022   8.261
  977POPC   C3A14849  28.639   7.342   7.945
  977POPC   C4A14850  28.350   7.658   7.781
  977POPC   C1B14851  28.352   7.715   8.695
  977POPC   C2B14852  28.418   7.617   8.306
  977POPC   C3B14853  28.139   7.331   8.121
  977POPC   C4B14854  27.940   7.283   7.746
  978POPC   NC314855  16.512  22.241   9.478
  978POPC   PO414856  17.099  22.295   9.230
  978POPC   GL114857  16.816  22.001   9.124
  978POPC   GL214858  16.608  22.240   8.948
  978POPC   C1A14859  16.881  21.826   8.750
  978POPC   D2A14860  16.713  22.055   8.416
  978POPC   C3A14861  16.893  21.963   8.011
  978POPC   C4A14862  17.088  22.236   7.700
  978POPC   C1B14863  16.878  22.498   8.657
  978POPC   C2B14864  16.901  22.511   8.215
  978POPC   C3B14865  16.614  22.419   7.882
  978POPC   C4B14866  16.519  22.458   7.450
  979POPC   NC314867  28.160  38.610   9.411
  979POPC   PO414868  28.627  38.127   9.493
  979POPC   GL114869  28.415  38.246   9.121
  979POPC   GL214870  28.442  38.596   8.988
  979POPC   C1A14871  28.414  38.173   8.684
  979POPC   D2A14872  28.312  38.236   8.263
  979POPC   C3A14873  28.705  38.429   8.103
  979POPC   C4A14874  28.728  38.522   7.670
  979POPC   C1B14875  28.099  38.790   8.788
  979POPC   C2B14876  27.965  38.713   8.414
  979POPC   C3B14877  27.868  38.737   7.997
  979POPC   C4B14878  28.112  38.622   7.641
  980POPC   NC314879  11.325  24.873   9.308
  980POPC   PO414880  11.272  25.566   9.420
  980POPC   GL114881  11.334  25.430   9.026
  980POPC   GL214882  11.277  25.111   8.878
  980POPC   C1A14883  11.305  25.553   8.611
  980POPC   D2A14884  11.530  25.323   8.301
  980POPC   C3A14885  11.391  25.446   7.903
  980POPC   C4A14886  11.288  25.313   7.501
  980POPC   C1B14887  11.104  25.053   8.461
  980POPC   C2B14888  11.068  24.779   8.126
  980POPC   C3B14889  11.221  24.880   7.738
  980POPC   C4B14890  11.079  24.908   7.277
  981POPC   NC314891  43.741  18.504   9.429
  981POPC   PO414892  43.536  19.118   9.543
  981POPC   GL114893  43.757  19.080   9.154
  981POPC   GL214894  43.735  18.758   8.974
  981POPC   C1A14895  43.849  19.241   8.747
  981POPC   D2A14896  44.056  19.332   8.364
  981POPC   C3A14897  43.843  19.270   7.991
  981POPC   C4A14898  43.822  19.504   7.641
  981POPC   C1B14899  44.037  18.777   8.621
  981POPC   C2B14900  43.986  18.799   8.176
  981POPC   C3B14901  44.057  18.749   7.727
  981POPC   C4B14902  44.187  18.804   7.285
  982POPC   NC314903  16.953  16.251   9.510
  982POPC   PO414904  16.656  15.720   9.771
  982POPC   GL114905  16.682  15.793   9.314
  982POPC   GL214906  16.417  15.612   9.142
  982POPC   C1A14907  16.784  15.874   8.855
  982POPC   D2A14908  16.738  16.112   8.458
  982POPC   C3A14909  16.920  15.931   8.043
  982POPC   C4A14910  16.888  15.801   7.583
  982POPC   C1B14911  16.498  15.457   8.733
  982POPC   C2B14912  16.761  15.493   8.349
  982POPC   C3B14913  16.621  15.531   7.910
  982POPC   C4B14914  16.404  15.660   7.488
  983POPC   NC314915   6.739  23.952   9.469
  983POPC   PO414916   7.136  23.448   9.322
  983POPC   GL114917   6.783  23.644   9.076
  983POPC   GL214918   6.941  23.977   9.000
  983POPC   C1A14919   6.474  23.943   8.854
  983POPC   D2A14920   6.638  24.114   8.485
  983POPC   C3A14921   6.466  23.897   8.150
  983POPC   C4A14922   6.602  23.904   7.762
  983POPC   C1B14923   6.956  23.735   8.605
  983POPC   C2B14924   6.962  23.666   8.171
  983POPC   C3B14925   6.697  23.439   7.920
  983POPC   C4B14926   6.693  23.475   7.507
  984POPC   NC314927   3.518  26.548   9.583
  984POPC   PO414928   3.318  27.100   9.657
  984POPC   GL114929   3.534  26.931   9.248
  984POPC   GL214930   3.867  26.728   9.258
  984POPC   C1A14931   3.458  26.712   8.837
  984POPC   D2A14932   3.316  26.902   8.433
  984POPC   C3A14933   3.306  26.705   8.038
  984POPC   C4A14934   3.399  26.814   7.640
  984POPC   C1B14935   3.896  26.997   8.886
  984POPC   C2B14936   3.827  26.912   8.476
  984POPC   C3B14937   3.735  26.973   8.067
  984POPC   C4B14938   3.893  26.844   7.686
  985POPC   NC314939  36.113  42.064   9.590
  985POPC   PO414940  36.120  41.460   9.392
  985POPC   GL114941  36.208  41.807   9.160
  985POPC   GL214942  36.505  41.955   9.284
  985POPC   C1A14943  36.042  41.896   8.762
  985POPC   D2A14944  35.984  41.533   8.460
  985POPC   C3A14945  35.814  41.605   8.044
  985POPC   C4A14946  36.075  41.590   7.639
  985POPC   C1B14947  36.574  41.981   8.863
  985POPC   C2B14948  36.449  41.866   8.453
  985POPC   C3B14949  36.337  41.677   8.082
  985POPC   C4B14950  36.501  41.938   7.813
  986POPC   NC314951  22.581  39.827   9.483
  986POPC   PO414952  21.921  40.107   9.532
  986POPC   GL114953  21.991  39.951   9.122
  986POPC   GL214954  22.307  40.115   9.092
  986POPC   C1A14955  22.108  39.738   8.701
  986POPC   D2A14956  21.966  39.798   8.264
  986POPC   C3A14957  22.102  39.977   7.853
  986POPC   C4A14958  22.038  39.743   7.458
  986POPC   C1B14959  22.048  40.251   8.717
  986POPC   C2B14960  22.014  40.405   8.297
  986POPC   C3B14961  22.029  40.493   7.866
  986POPC   C4B14962  22.064  40.301   7.436
  987POPC   NC314963   2.638  15.401   9.469
  987POPC   PO414964   3.097  14.907   9.492
  987POPC   GL114965   2.992  15.190   9.137
  987POPC   GL214966   2.633  15.232   8.996
  987POPC   C1A14967   2.991  15.039   8.698
  987POPC   D2A14968   2.737  15.019   8.324
  987POPC   C3A14969   2.804  15.166   7.904
  987POPC   C4A14970   2.868  14.947   7.489
  987POPC   C1B14971   2.694  15.497   8.640
  987POPC   C2B14972   2.687  15.604   8.195
  987POPC   C3B14973   2.396  15.497   7.854
  987POPC   C4B14974   2.544  15.447   7.400
  988POPC   NC314975   5.394  24.867   9.503
  988POPC   PO414976   4.788  24.489   9.501
  988POPC   GL114977   4.828  24.535   9.120
  988POPC   GL214978   5.200  24.498   9.113
  988POPC   C1A14979   4.847  24.319   8.760
  988POPC   D2A14980   5.037  24.390   8.391
  988POPC   C3A14981   4.871  24.300   8.024
  988POPC   C4A14982   5.012  24.541   7.707
  988POPC   C1B14983   5.392  24.288   8.760
  988POPC   C2B14984   5.539  24.341   8.324
  988POPC   C3B14985   5.412  24.240   7.928
  988POPC   C4B14986   5.717  24.127   7.617
  989POPC   NC314987  35.698  19.952   9.210
  989POPC   PO414988  36.324  19.745   9.459
  989POPC   GL114989  36.206  19.877   9.086
  989POPC   GL214990  36.099  19.541   9.003
  989POPC   C1A14991  36.079  19.915   8.662
  989POPC   D2A14992  36.233  19.868   8.277
  989POPC   C3A14993  36.008  20.161   8.048
  989POPC   C4A14994  35.916  20.095   7.650
  989POPC   C1B14995  35.741  19.516   8.710
  989POPC   C2B14996  35.680  19.696   8.332
  989POPC   C3B14997  35.857  19.657   7.956
  989POPC   C4B14998  35.629  19.647   7.619
  990POPC   NC314999  14.610   6.205   9.281
  990POPC   PO415000  14.769   6.801   9.445
  990POPC   GL115001  14.439   6.730   9.156
  990POPC   GL215002  14.200   6.534   9.286
  990POPC   C1A15003  14.478   6.707   8.718
  990POPC   D2A15004  14.451   6.945   8.317
  990POPC   C3A15005  14.412   6.780   7.926
  990POPC   C4A15006  14.189   7.067   7.676
  990POPC   C1B15007  14.077   6.392   8.880
  990POPC   C2B15008  14.226   6.334   8.477
  990POPC   C3B15009  14.034   6.404   8.120
  990POPC   C4B15010  14.009   6.541   7.731
  991POPC   NC315011  14.538  26.539   9.439
  991POPC   PO415012  14.193  26.995   9.737
  991POPC   GL115013  14.291  27.020   9.272
  991POPC   GL215014  14.127  26.762   9.144
  991POPC   C1A15015  14.501  26.865   8.841
  991POPC   D2A15016  14.354  27.008   8.465
  991POPC   C3A15017  14.525  26.847   8.145
  991POPC   C4A15018  14.241  26.815   7.821
  991POPC   C1B15019  13.951  26.941   8.799
  991POPC   C2B15020  13.953  26.666   8.456
  991POPC   C3B15021  14.215  26.418   8.168
  991POPC   C4B15022  14.170  26.319   7.734
  992POPC   NC315023  40.113   9.798   9.587
  992POPC   PO415024  39.519   9.507   9.780
  992POPC   GL115025  39.699   9.842   9.301
  992POPC   GL215026  40.088   9.776   9.097
  992POPC   C1A15027  39.775  10.017   8.813
  992POPC   D2A15028  39.759   9.809   8.394
  992POPC   C3A15029  39.615   9.985   7.994
  992POPC   C4A15030  39.744   9.832   7.589
  992POPC   C1B15031  40.250   9.655   8.671
  992POPC   C2B15032  40.362   9.572   8.206
  992POPC   C3B15033  40.059   9.482   7.816
  992POPC   C4B15034  40.026   9.505   7.350
  993POPC   NC315035  42.084   8.595   9.572
  993POPC   PO415036  42.739   8.918   9.510
  993POPC   GL115037  42.478   8.782   9.127
  993POPC   GL215038  42.125   8.715   9.070
  993POPC   C1A15039  42.320   9.034   8.718
  993POPC   D2A15040  42.153   9.268   8.411
  993POPC   C3A15041  42.297   9.123   8.029
  993POPC   C4A15042  42.063   9.330   7.735
  993POPC   C1B15043  42.358   8.541   8.707
  993POPC   C2B15044  42.468   8.674   8.302
  993POPC   C3B15045  42.308   8.566   7.905
  993POPC   C4B15046  41.925   8.702   7.677
  994POPC   NC315047  21.433  32.380   9.526
  994POPC   PO415048  20.876  32.211   9.273
  994POPC   GL115049  21.271  32.116   9.095
  994POPC   GL215050  21.644  32.078   9.155
  994POPC   C1A15051  21.383  31.938   8.720
  994POPC   D2A15052  21.470  32.110   8.347
  994POPC   C3A15053  21.203  32.086   8.002
  994POPC   C4A15054  21.633  32.103   7.828
  994POPC   C1B15055  21.616  32.403   8.821
  994POPC   C2B15056  21.482  32.613   8.432
  994POPC   C3B15057  21.438  32.538   7.984
  994POPC   C4B15058  21.319  32.537   7.510
  995POPC   NC315059  30.875  30.978   9.467
  995POPC   PO415060  30.566  30.338   9.527
  995POPC   GL115061  30.644  30.600   9.146
  995POPC   GL215062  30.438  30.915   9.213
  995POPC   C1A15063  30.745  30.586   8.683
  995POPC   D2A15064  30.779  30.440   8.218
  995POPC   C3A15065  30.800  30.533   7.750
  995POPC   C4A15066  30.611  30.546   7.298
  995POPC   C1B15067  30.645  31.065   8.848
  995POPC   C2B15068  30.611  30.981   8.411
  995POPC   C3B15069  30.477  31.080   8.023
  995POPC   C4B15070  30.771  31.014   7.770
  996POPC   NC315071   9.526   3.369   9.763
  996POPC   PO415072   9.635   3.919   9.353
  996POPC   GL115073   9.900   3.703   9.041
  996POPC   GL215074  10.079   3.943   8.859
  996POPC   C1A15075   9.707   3.520   8.663
  996POPC   D2A15076   9.512   3.609   8.312
  996POPC   C3A15077   9.755   3.420   8.027
  996POPC   C4A15078   9.707   3.594   7.654
  996POPC   C1B15079  10.217   3.571   8.657
  996POPC   C2B15080  10.152   3.700   8.293
  996POPC   C3B15081  10.071   3.827   7.941
  996POPC   C4B15082  10.229   3.647   7.621
  997POPC   NC315083  41.056  21.808   9.424
  997POPC   PO415084  40.842  21.135   9.437
  997POPC   GL115085  40.727  21.253   9.000
  997POPC   GL215086  40.760  21.623   9.000
  997POPC   C1A15087  40.520  21.372   8.627
  997POPC   D2A15088  40.524  21.603   8.239
  997POPC   C3A15089  40.680  21.591   7.791
  997POPC   C4A15090  40.638  21.328   7.411
  997POPC   C1B15091  41.006  21.558   8.627
  997POPC   C2B15092  41.041  21.523   8.161
  997POPC   C3B15093  41.216  21.740   7.808
  997POPC   C4B15094  41.058  21.710   7.414
  998POPC   NC315095  21.842   4.346   9.226
  998POPC   PO415096  22.445   4.632   9.452
  998POPC   GL115097  22.344   4.360   9.101
  998POPC   GL215098  22.285   4.025   9.252
  998POPC   C1A15099  22.178   4.151   8.701
  998POPC   D2A15100  22.040   4.392   8.360
  998POPC   C3A15101  21.963   4.239   7.954
  998POPC   C4A15102  22.364   4.307   7.742
  998POPC   C1B15103  22.592   3.942   8.922
  998POPC   C2B15104  22.582   3.838   8.485
  998POPC   C3B15105  22.368   3.905   8.107
  998POPC   C4B15106  22.547   3.848   7.707
  999POPC   NC315107  43.586  39.121   9.440
  999POPC   PO415108  42.867  38.920   9.429
  999POPC   GL115109  43.145  38.999   9.068
  999POPC   GL215110  43.342  39.308   9.044
  999POPC   C1A15111  43.103  39.028   8.635
  999POPC   D2A15112  43.338  38.928   8.251
  999POPC   C3A15113  43.215  39.168   7.928
  999POPC   C4A15114  42.806  39.155   7.846
  999POPC   C1B15115  43.210  39.543   8.714
  999POPC   C2B15116  43.372  39.486   8.331
  999POPC   C3B15117  43.222  39.704   7.996
  999POPC   C4B15118  43.052  39.567   7.637
 1000POPC   NC315119  36.600   2.664   9.322
 1000POPC   PO415120  35.982   2.842   9.560
 1000POPC   GL115121  36.004   2.850   9.125
 1000POPC   GL215122  36.153   2.518   9.109
 1000POPC   C1A15123  35.832   2.698   8.718
 1000POPC   D2A15124  35.681   2.409   8.382
 1000POPC   C3A15125  35.818   2.602   7.991
 1000POPC   C4A15126  35.753   3.023   7.866
 1000POPC   C1B15127  36.364   2.665   8.734
 1000POPC   C2B15128  36.466   2.885   8.391
 1000POPC   C3B15129  36.277   2.856   8.030
 1000POPC   C4B15130  36.379   2.580   7.786
 1001POPC   NC315131  34.371   4.525   9.283
 1001POPC   PO415132  34.588   5.121   9.563
 1001POPC   GL115133  34.514   5.227   9.145
 1001POPC   GL215134  34.643   4.936   9.038
 1001POPC   C1A15135  34.339   5.135   8.697
 1001POPC   D2A15136  34.449   4.951   8.290
 1001POPC   C3A15137  34.342   5.155   7.905
 1001POPC   C4A15138  34.724   5.258   7.718
 1001POPC   C1B15139  34.759   4.746   8.646
 1001POPC   C2B15140  35.018   4.837   8.312
 1001POPC   C3B15141  34.919   4.834   7.910
 1001POPC   C4B15142  34.549   4.729   7.754
 1002POPC   NC315143   5.592  35.101   9.677
 1002POPC   PO415144   6.052  35.554   9.465
 1002POPC   GL115145   5.860  35.454   9.107
 1002POPC   GL215146   5.887  35.114   9.011
 1002POPC   C1A15147   6.008  35.495   8.691
 1002POPC   D2A15148   6.330  35.512   8.396
 1002POPC   C3A15149   6.045  35.429   8.043
 1002POPC   C4A15150   6.022  35.501   7.594
 1002POPC   C1B15151   5.696  34.981   8.651
 1002POPC   C2B15152   5.671  35.259   8.323
 1002POPC   C3B15153   5.590  35.307   7.876
 1002POPC   C4B15154   5.531  34.955   7.624
 1003POPC   NC315155  18.816  34.670   9.541
 1003POPC   PO415156  19.418  34.640   9.305
 1003POPC   GL115157  19.069  34.594   9.070
 1003POPC   GL215158  18.788  34.344   9.154
 1003POPC   C1A15159  19.211  34.676   8.645
 1003POPC   D2A15160  19.492  34.830   8.309
 1003POPC   C3A15161  19.409  34.570   7.955
 1003POPC   C4A15162  19.210  34.654   7.544
 1003POPC   C1B15163  18.825  34.319   8.702
 1003POPC   C2B15164  19.068  34.327   8.317
 1003POPC   C3B15165  18.915  34.457   7.914
 1003POPC   C4B15166  18.553  34.372   7.687
 1004POPC   NC315167  42.736  32.442   9.566
 1004POPC   PO415168  42.219  32.100   9.446
 1004POPC   GL115169  42.515  32.244   9.141
 1004POPC   GL215170  42.788  31.986   9.166
 1004POPC   C1A15171  42.419  32.440   8.754
 1004POPC   D2A15172  42.389  32.156   8.429
 1004POPC   C3A15173  42.346  32.324   8.070
 1004POPC   C4A15174  42.330  32.431   7.656
 1004POPC   C1B15175  42.844  32.161   8.708
 1004POPC   C2B15176  42.922  32.116   8.251
 1004POPC   C3B15177  42.720  32.030   7.864
 1004POPC   C4B15178  42.274  31.921   7.755
 1005POPC   NC315179  18.006  36.129   9.546
 1005POPC   PO415180  17.357  36.194   9.473
 1005POPC   GL115181  17.508  36.044   9.080
 1005POPC   GL215182  17.786  35.848   9.166
 1005POPC   C1A15183  17.461  36.161   8.643
 1005POPC   D2A15184  17.172  36.255   8.325
 1005POPC   C3A15185  17.432  36.167   8.022
 1005POPC   C4A15186  17.653  36.511   7.841
 1005POPC   C1B15187  17.912  35.917   8.739
 1005POPC   C2B15188  17.770  35.898   8.288
 1005POPC   C3B15189  17.934  35.970   7.840
 1005POPC   C4B15190  17.897  35.831   7.393
 1006POPC   NC315191  34.429  20.200   9.414
 1006POPC   PO415192  34.691  20.833   9.504
 1006POPC   GL115193  34.501  20.655   9.142
 1006POPC   GL215194  34.154  20.785   9.132
 1006POPC   C1A15195  34.676  20.422   8.775
 1006POPC   D2A15196  34.883  20.367   8.374
 1006POPC   C3A15197  34.783  20.598   7.972
 1006POPC   C4A15198  34.699  21.013   7.773
 1006POPC   C1B15199  34.184  20.509   8.756
 1006POPC   C2B15200  34.398  20.591   8.360
 1006POPC   C3B15201  34.283  20.463   7.971
 1006POPC   C4B15202  34.333  20.681   7.580
 1007POPC   NC315203  17.059  23.086   9.556
 1007POPC   PO415204  16.831  22.512   9.675
 1007POPC   GL115205  16.683  22.676   9.242
 1007POPC   GL215206  16.878  22.940   9.095
 1007POPC   C1A15207  16.474  22.799   8.812
 1007POPC   D2A15208  16.383  22.804   8.330
 1007POPC   C3A15209  16.669  22.943   7.980
 1007POPC   C4A15210  16.534  22.974   7.504
 1007POPC   C1B15211  17.173  22.956   8.712
 1007POPC   C2B15212  17.144  23.159   8.277
 1007POPC   C3B15213  17.140  23.183   7.816
 1007POPC   C4B15214  16.983  23.198   7.378
 1008POPC   NC315215   0.642  20.159   9.458
 1008POPC   PO415216   0.762  19.503   9.522
 1008POPC   GL115217   0.555  19.743   9.150
 1008POPC   GL215218   0.224  19.864   9.218
 1008POPC   C1A15219   0.431  20.000   8.746
 1008POPC   D2A15220   0.632  19.807   8.366
 1008POPC   C3A15221   0.645  19.993   7.959
 1008POPC   C4A15222   0.528  20.184   7.557
 1008POPC   C1B15223   0.148  19.572   8.850
 1008POPC   C2B15224   0.093  19.613   8.390
 1008POPC   C3B15225   0.245  19.654   7.965
 1008POPC   C4B15226   0.110  19.509   7.554
 1009POPC   NC315227  27.255  19.091   9.583
 1009POPC   PO415228  26.669  19.342   9.528
 1009POPC   GL115229  26.840  19.014   9.240
 1009POPC   GL215230  26.552  18.912   9.068
 1009POPC   C1A15231  26.964  18.871   8.794
 1009POPC   D2A15232  26.817  18.931   8.354
 1009POPC   C3A15233  26.993  18.784   7.974
 1009POPC   C4A15234  26.871  19.105   7.716
 1009POPC   C1B15235  26.455  18.739   8.663
 1009POPC   C2B15236  26.240  18.928   8.349
 1009POPC   C3B15237  26.395  19.110   8.007
 1009POPC   C4B15238  26.475  18.787   7.756
 1010POPC   NC315239  42.298  12.989   9.470
 1010POPC   PO415240  42.103  12.269   9.380
 1010POPC   GL115241  42.359  12.600   9.129
 1010POPC   GL215242  42.204  12.937   8.989
 1010POPC   C1A15243  42.548  12.678   8.720
 1010POPC   D2A15244  42.498  12.812   8.303
 1010POPC   C3A15245  42.175  12.667   8.067
 1010POPC   C4A15246  42.102  12.936   7.713
 1010POPC   C1B15247  42.435  13.194   8.679
 1010POPC   C2B15248  42.631  13.298   8.267
 1010POPC   C3B15249  42.577  13.136   7.835
 1010POPC   C4B15250  42.354  13.343   7.479
 1011POPC   NC315251  42.275  44.876   9.738
 1011POPC   PO415252  42.472  44.391   9.279
 1011POPC   GL115253  42.214  44.614   9.098
 1011POPC   GL215254  42.250  44.942   9.223
 1011POPC   C1A15255  42.153  44.520   8.671
 1011POPC   D2A15256  42.371  44.301   8.363
 1011POPC   C3A15257  42.217  44.433   8.010
 1011POPC   C4A15258  42.555  44.636   7.784
 1011POPC   C1B15259  42.311   0.004   8.758
 1011POPC   C2B15260  42.373  44.856   8.332
 1011POPC   C3B15261  42.132  44.918   7.964
 1011POPC   C4B15262  42.012  44.947   7.561
 1012POPC   NC315263   7.854   8.260   9.658
 1012POPC   PO415264   7.158   8.555   9.677
 1012POPC   GL115265   7.371   8.313   9.304
 1012POPC   GL215266   7.685   8.490   9.225
 1012POPC   C1A15267   7.402   8.118   8.862
 1012POPC   D2A15268   7.149   7.930   8.568
 1012POPC   C3A15269   7.277   8.104   8.226
 1012POPC   C4A15270   7.425   8.061   7.828
 1012POPC   C1B15271   7.828   8.418   8.805
 1012POPC   C2B15272   7.719   8.611   8.419
 1012POPC   C3B15273   7.520   8.542   8.002
 1012POPC   C4B15274   7.597   8.454   7.551
 1013POPC   NC315275   6.470  17.243   9.532
 1013POPC   PO415276   6.774  17.838   9.570
 1013POPC   GL115277   6.752  17.548   9.221
 1013POPC   GL215278   6.380  17.459   9.084
 1013POPC   C1A15279   6.929  17.436   8.840
 1013POPC   D2A15280   6.729  17.454   8.423
 1013POPC   C3A15281   6.942  17.601   8.070
 1013POPC   C4A15282   6.833  17.548   7.687
 1013POPC   C1B15283   6.152  17.350   8.699
 1013POPC   C2B15284   6.294  17.214   8.313
 1013POPC   C3B15285   6.396  17.514   7.987
 1013POPC   C4B15286   6.375  17.409   7.547
 1014POPC   NC315287  44.537   9.643   9.463
 1014POPC   PO415288  44.677  10.216   9.767
 1014POPC   GL115289  44.836  10.041   9.284
 1014POPC   GL215290  44.961   9.689   9.138
 1014POPC   C1A15291  44.717  10.007   8.825
 1014POPC   D2A15292  44.581   9.670   8.534
 1014POPC   C3A15293  44.522   9.794   8.104
 1014POPC   C4A15294  44.744   9.862   7.762
 1014POPC   C1B15295   0.133   9.407   8.816
 1014POPC   C2B15296   0.065   9.493   8.387
 1014POPC   C3B15297  44.871   9.417   8.006
 1014POPC   C4B15298   0.132   9.493   7.665
 1015POPC   NC315299   7.606   3.549   9.542
 1015POPC   PO415300   7.053   3.116   9.390
 1015POPC   GL115301   7.289   3.480   9.128
 1015POPC   GL215302   7.647   3.385   9.086
 1015POPC   C1A15303   7.372   3.712   8.682
 1015POPC   D2A15304   7.620   3.502   8.305
 1015POPC   C3A15305   7.489   3.629   7.912
 1015POPC   C4A15306   7.142   3.850   7.776
 1015POPC   C1B15307   7.528   3.252   8.724
 1015POPC   C2B15308   7.142   3.314   8.443
 1015POPC   C3B15309   7.028   3.421   8.028
 1015POPC   C4B15310   7.145   3.361   7.587
 1016POPC   NC315311  33.582  32.121   9.431
 1016POPC   PO415312  34.029  32.591   9.368
 1016POPC   GL115313  33.677  32.517   9.093
 1016POPC   GL215314  33.821  32.170   8.997
 1016POPC   C1A15315  33.497  32.367   8.690
 1016POPC   D2A15316  33.661  32.081   8.379
 1016POPC   C3A15317  33.733  32.309   7.996
 1016POPC   C4A15318  33.382  32.298   7.757
 1016POPC   C1B15319  33.999  31.856   8.721
 1016POPC   C2B15320  34.085  31.723   8.299
 1016POPC   C3B15321  33.787  31.777   7.970
 1016POPC   C4B15322  33.693  31.928   7.609
 1017POPC   NC315323  16.937  10.181   9.450
 1017POPC   PO415324  16.638   9.533   9.608
 1017POPC   GL115325  16.513   9.889   9.321
 1017POPC   GL215326  16.809   9.793   9.135
 1017POPC   C1A15327  16.404   9.936   8.855
 1017POPC   D2A15328  16.623   9.707   8.490
 1017POPC   C3A15329  16.510   9.614   8.049
 1017POPC   C4A15330  16.776   9.516   7.717
 1017POPC   C1B15331  17.067   9.699   8.784
 1017POPC   C2B15332  17.252   9.681   8.378
 1017POPC   C3B15333  16.992   9.871   8.079
 1017POPC   C4B15334  16.951   9.986   7.663
 1018POPC   NC315335  23.115   0.967   9.437
 1018POPC   PO415336  22.618   1.425   9.653
 1018POPC   GL115337  22.828   1.332   9.264
 1018POPC   GL215338  23.150   1.475   9.188
 1018POPC   C1A15339  22.870   1.267   8.824
 1018POPC   D2A15340  22.997   1.344   8.431
 1018POPC   C3A15341  22.858   1.025   8.162
 1018POPC   C4A15342  23.039   1.004   7.772
 1018POPC   C1B15343  23.324   1.569   8.776
 1018POPC   C2B15344  23.422   1.656   8.354
 1018POPC   C3B15345  23.254   1.442   7.982
 1018POPC   C4B15346  23.339   1.439   7.538
 1019POPC   NC315347  21.205  21.894   9.489
 1019POPC   PO415348  21.716  22.414   9.484
 1019POPC   GL115349  21.570  22.112   9.219
 1019POPC   GL215350  21.288  22.305   9.172
 1019POPC   C1A15351  21.347  21.994   8.800
 1019POPC   D2A15352  21.320  22.259   8.441
 1019POPC   C3A15353  21.413  22.122   8.049
 1019POPC   C4A15354  21.198  22.094   7.703
 1019POPC   C1B15355  21.666  22.384   8.808
 1019POPC   C2B15356  21.687  22.701   8.509
 1019POPC   C3B15357  21.701  22.544   8.130
 1019POPC   C4B15358  21.780  22.347   7.773
 1020POPC   NC315359   0.925  34.711   9.514
 1020POPC   PO415360   0.242  34.583   9.477
 1020POPC   GL115361   0.374  34.496   9.087
 1020POPC   GL215362   0.724  34.568   9.065
 1020POPC   C1A15363   0.247  34.686   8.725
 1020POPC   D2A15364   0.240  34.457   8.354
 1020POPC   C3A15365   0.091  34.639   8.008
 1020POPC   C4A15366   0.324  34.450   7.711
 1020POPC   C1B15367   0.658  34.404   8.672
 1020POPC   C2B15368   0.670  34.747   8.396
 1020POPC   C3B15369   0.555  34.899   8.018
 1020POPC   C4B15370   0.679  34.792   7.643
 1021POPC   NC315371  14.664  17.292   9.616
 1021POPC   PO415372  14.159  17.471   9.200
 1021POPC   GL115373  14.254  17.624   8.853
 1021POPC   GL215374  14.146  17.966   8.767
 1021POPC   C1A15375  14.287  17.472   8.476
 1021POPC   D2A15376  14.532  17.200   8.240
 1021POPC   C3A15377  14.569  17.293   7.813
 1021POPC   C4A15378  14.288  17.387   7.491
 1021POPC   C1B15379  14.612  17.938   8.699
 1021POPC   C2B15380  14.739  17.671   8.351
 1021POPC   C3B15381  14.401  17.700   8.032
 1021POPC   C4B15382  14.460  17.861   7.641
 1022POPC   NC315383  37.321  13.586   9.172
 1022POPC   PO415384  36.708  13.620   9.491
 1022POPC   GL115385  36.674  13.462   9.085
 1022POPC   GL215386  36.958  13.235   8.982
 1022POPC   C1A15387  36.811  13.689   8.694
 1022POPC   D2A15388  36.895  13.956   8.315
 1022POPC   C3A15389  36.672  13.794   7.962
 1022POPC   C4A15390  36.666  13.560   7.595
 1022POPC   C1B15391  37.175  13.319   8.559
 1022POPC   C2B15392  37.016  13.454   8.153
 1022POPC   C3B15393  37.162  13.460   7.724
 1022POPC   C4B15394  37.064  13.399   7.263
 1023POPC   NC315395  15.288  23.246   9.770
 1023POPC   PO415396  15.316  23.854   9.470
 1023POPC   GL115397  15.362  23.878   9.070
 1023POPC   GL215398  15.609  23.644   9.080
 1023POPC   C1A15399  15.304  23.641   8.679
 1023POPC   D2A15400  14.934  23.613   8.466
 1023POPC   C3A15401  14.998  23.936   8.175
 1023POPC   C4A15402  15.163  23.970   7.763
 1023POPC   C1B15403  15.710  23.971   8.724
 1023POPC   C2B15404  15.511  24.048   8.321
 1023POPC   C3B15405  15.681  24.105   7.909
 1023POPC   C4B15406  15.613  23.847   7.569
 1024POPC   NC315407  39.582  24.339  10.135
 1024POPC   PO415408  40.143  24.326   9.680
 1024POPC   GL115409  40.146  24.577   9.285
 1024POPC   GL215410  39.815  24.596   9.185
 1024POPC   C1A15411  40.237  24.536   8.825
 1024POPC   D2A15412  40.048  24.367   8.439
 1024POPC   C3A15413  40.266  24.383   8.077
 1024POPC   C4A15414  40.194  24.440   7.663
 1024POPC   C1B15415  39.730  24.268   8.851
 1024POPC   C2B15416  39.536  24.238   8.421
 1024POPC   C3B15417  39.735  24.342   7.995
 1024POPC   C4B15418  39.686  24.503   7.571
 1025POPC   NC315419  25.252  23.361   9.428
 1025POPC   PO415420  25.231  24.017   9.429
 1025POPC   GL115421  25.295  23.743   9.052
 1025POPC   GL215422  25.571  23.460   9.036
 1025POPC   C1A15423  25.059  23.686   8.643
 1025POPC   D2A15424  25.025  23.604   8.188
 1025POPC   C3A15425  25.142  23.897   7.854
 1025POPC   C4A15426  24.897  23.982   7.506
 1025POPC   C1B15427  25.570  23.670   8.631
 1025POPC   C2B15428  25.532  23.745   8.192
 1025POPC   C3B15429  25.459  23.491   7.826
 1025POPC   C4B15430  25.591  23.627   7.404
 1026POPC   NC315431  19.998   2.268   9.636
 1026POPC   PO415432  19.478   1.893   9.447
 1026POPC   GL115433  19.774   2.051   9.129
 1026POPC   GL215434  20.077   2.236   9.127
 1026POPC   C1A15435  19.883   1.972   8.694
 1026POPC   D2A15436  20.116   1.804   8.335
 1026POPC   C3A15437  19.926   1.884   7.960
 1026POPC   C4A15438  20.047   2.071   7.546
 1026POPC   C1B15439  20.030   2.446   8.739
 1026POPC   C2B15440  20.083   2.313   8.328
 1026POPC   C3B15441  19.934   2.400   7.962
 1026POPC   C4B15442  19.604   2.228   7.773
 1027POPC   NC315443  25.222   6.079   9.593
 1027POPC   PO415444  24.947   5.484   9.386
 1027POPC   GL115445  25.180   5.792   9.163
 1027POPC   GL215446  25.048   6.141   9.143
 1027POPC   C1A15447  25.443   5.972   8.865
 1027POPC   D2A15448  25.452   5.931   8.457
 1027POPC   C3A15449  25.630   6.009   8.068
 1027POPC   C4A15450  25.443   6.036   7.671
 1027POPC   C1B15451  25.094   6.388   8.815
 1027POPC   C2B15452  24.922   6.404   8.451
 1027POPC   C3B15453  25.178   6.345   8.121
 1027POPC   C4B15454  24.978   6.228   7.764
 1028POPC   NC315455  35.650  25.821   9.292
 1028POPC   PO415456  35.099  26.282   9.449
 1028POPC   GL115457  35.302  26.141   9.114
 1028POPC   GL215458  35.166  25.852   9.008
 1028POPC   C1A15459  35.360  26.173   8.672
 1028POPC   D2A15460  35.480  25.859   8.411
 1028POPC   C3A15461  35.538  25.928   7.979
 1028POPC   C4A15462  35.263  26.079   7.654
 1028POPC   C1B15463  34.994  25.749   8.652
 1028POPC   C2B15464  35.007  25.582   8.259
 1028POPC   C3B15465  34.970  25.665   7.833
 1028POPC   C4B15466  35.003  25.397   7.432
 1029POPC   NC315467  28.207  22.084   9.907
 1029POPC   PO415468  28.273  21.558   9.445
 1029POPC   GL115469  28.223  21.709   9.015
 1029POPC   GL215470  28.600  21.763   8.969
 1029POPC   C1A15471  28.078  21.567   8.622
 1029POPC   D2A15472  28.213  21.181   8.455
 1029POPC   C3A15473  28.475  21.117   8.108
 1029POPC   C4A15474  28.265  21.187   7.739
 1029POPC   C1B15475  28.617  21.495   8.608
 1029POPC   C2B15476  28.451  21.622   8.206
 1029POPC   C3B15477  28.451  21.666   7.760
 1029POPC   C4B15478  28.692  21.405   7.436
 1030POPC   NC315479  40.458  21.398   9.398
 1030POPC   PO415480  39.763  21.345   9.481
 1030POPC   GL115481  39.955  21.549   9.146
 1030POPC   GL215482  40.165  21.279   8.985
 1030POPC   C1A15483  39.779  21.627   8.741
 1030POPC   D2A15484  40.050  21.457   8.462
 1030POPC   C3A15485  40.041  21.463   8.048
 1030POPC   C4A15486  40.245  21.161   7.737
 1030POPC   C1B15487  39.874  21.038   8.712
 1030POPC   C2B15488  39.888  21.022   8.257
 1030POPC   C3B15489  39.806  20.899   7.880
 1030POPC   C4B15490  39.741  21.268   7.685
 1031POPC   NC315491  30.580  13.137   9.620
 1031POPC   PO415492  30.573  13.806   9.660
 1031POPC   GL115493  30.598  13.713   9.226
 1031POPC   GL215494  30.557  13.354   9.131
 1031POPC   C1A15495  30.766  13.749   8.805
 1031POPC   D2A15496  30.514  13.552   8.475
 1031POPC   C3A15497  30.642  13.718   8.094
 1031POPC   C4A15498  31.013  13.600   7.873
 1031POPC   C1B15499  30.884  13.268   8.774
 1031POPC   C2B15500  30.998  13.439   8.386
 1031POPC   C3B15501  30.751  13.213   8.099
 1031POPC   C4B15502  30.975  13.095   7.762
 1032POPC   NC315503  44.823  34.441   9.633
 1032POPC   PO415504  44.178  34.457   9.641
 1032POPC   GL115505  44.503  34.632   9.294
 1032POPC   GL215506  44.851  34.451   9.144
 1032POPC   C1A15507  44.642  34.802   8.891
 1032POPC   D2A15508  44.798  34.683   8.484
 1032POPC   C3A15509  44.585  34.534   8.113
 1032POPC   C4A15510  44.476  34.757   7.776
 1032POPC   C1B15511  44.960  34.258   8.781
 1032POPC   C2B15512  44.784  34.181   8.409
 1032POPC   C3B15513  44.937  34.165   8.028
 1032POPC   C4B15514  44.723  34.192   7.653
 1033POPC   NC315515  35.701  16.519   9.450
 1033POPC   PO415516  35.056  16.782   9.520
 1033POPC   GL115517  35.326  16.753   9.139
 1033POPC   GL215518  35.533  16.479   8.980
 1033POPC   C1A15519  35.219  16.831   8.724
 1033POPC   D2A15520  35.410  16.818   8.370
 1033POPC   C3A15521  35.236  16.800   8.001
 1033POPC   C4A15522  35.275  16.530   7.678
 1033POPC   C1B15523  35.745  16.800   8.772
 1033POPC   C2B15524  35.817  17.094   8.461
 1033POPC   C3B15525  35.608  17.211   8.083
 1033POPC   C4B15526  35.639  16.936   7.732
 1034POPC   NC315527   3.714   1.720   9.685
 1034POPC   PO415528   3.127   1.939   9.464
 1034POPC   GL115529   3.497   1.919   9.178
 1034POPC   GL215530   3.803   1.703   9.190
 1034POPC   C1A15531   3.379   2.060   8.753
 1034POPC   D2A15532   3.156   2.168   8.370
 1034POPC   C3A15533   3.411   2.102   8.010
 1034POPC   C4A15534   3.396   1.915   7.615
 1034POPC   C1B15535   3.869   1.878   8.779
 1034POPC   C2B15536   3.753   1.880   8.336
 1034POPC   C3B15537   3.867   1.847   7.903
 1034POPC   C4B15538   4.089   1.615   7.555
 1035POPC   NC315539  32.858  12.599   9.457
 1035POPC   PO415540  33.226  13.206   9.629
 1035POPC   GL115541  33.182  12.975   9.282
 1035POPC   GL215542  32.863  13.079   9.225
 1035POPC   C1A15543  33.253  12.784   8.871
 1035POPC   D2A15544  33.123  12.821   8.422
 1035POPC   C3A15545  33.349  12.629   8.077
 1035POPC   C4A15546  33.193  12.855   7.737
 1035POPC   C1B15547  32.806  13.036   8.786
 1035POPC   C2B15548  32.605  12.936   8.407
 1035POPC   C3B15549  32.767  12.848   8.019
 1035POPC   C4B15550  32.645  12.574   7.722
 1036POPC   NC315551  39.583  10.408   9.468
 1036POPC   PO415552  38.938  10.737   9.427
 1036POPC   GL115553  39.195  10.592   9.075
 1036POPC   GL215554  39.408  10.297   9.008
 1036POPC   C1A15555  39.106  10.540   8.630
 1036POPC   D2A15556  39.076  10.615   8.185
 1036POPC   C3A15557  39.435  10.491   7.947
 1036POPC   C4A15558  39.177  10.611   7.628
 1036POPC   C1B15559  39.271  10.039   8.693
 1036POPC   C2B15560  39.233  10.149   8.294
 1036POPC   C3B15561  39.108  10.119   7.878
 1036POPC   C4B15562  39.364  10.146   7.551
 1037POPC   NC315563  20.313  39.322   9.467
 1037POPC   PO415564  20.771  38.894   9.524
 1037POPC   GL115565  20.744  39.093   9.108
 1037POPC   GL215566  20.498  39.395   8.973
 1037POPC   C1A15567  20.583  38.950   8.716
 1037POPC   D2A15568  20.382  39.131   8.394
 1037POPC   C3A15569  20.584  39.056   8.019
 1037POPC   C4A15570  20.898  39.247   7.768
 1037POPC   C1B15571  20.296  39.600   8.571
 1037POPC   C2B15572  20.236  39.515   8.083
 1037POPC   C3B15573  20.436  39.465   7.661
 1037POPC   C4B15574  20.290  39.557   7.230
 1038POPC   NC315575  30.646  40.471   9.518
 1038POPC   PO415576  30.777  39.813   9.687
 1038POPC   GL115577  30.752  39.877   9.237
 1038POPC   GL215578  30.880  40.216   9.158
 1038POPC   C1A15579  30.588  39.981   8.805
 1038POPC   D2A15580  30.681  39.802   8.415
 1038POPC   C3A15581  30.845  40.049   8.111
 1038POPC   C4A15582  30.699  39.912   7.758
 1038POPC   C1B15583  31.219  40.338   8.872
 1038POPC   C2B15584  31.115  40.366   8.453
 1038POPC   C3B15585  31.225  40.400   8.049
 1038POPC   C4B15586  31.019  40.322   7.681
 1039POPC   NC315587  36.398  26.049   9.398
 1039POPC   PO415588  35.814  26.246   9.138
 1039POPC   GL115589  36.218  26.133   8.927
 1039POPC   GL215590  36.366  25.808   8.932
 1039POPC   C1A15591  36.292  26.088   8.486
 1039POPC   D2A15592  35.915  26.160   8.250
 1039POPC   C3A15593  35.979  26.165   7.830
 1039POPC   C4A15594  36.203  26.055   7.423
 1039POPC   C1B15595  35.959  25.761   8.669
 1039POPC   C2B15596  35.915  25.643   8.229
 1039POPC   C3B15597  35.981  25.661   7.775
 1039POPC   C4B15598  36.318  25.539   7.471
 1040POPC   NC315599  31.406  42.158   9.475
 1040POPC   PO415600  31.426  42.786   9.270
 1040POPC   GL115601  31.684  42.405   9.119
 1040POPC   GL215602  31.460  42.078   9.000
 1040POPC   C1A15603  31.699  42.383   8.692
 1040POPC   D2A15604  31.335  42.536   8.524
 1040POPC   C3A15605  31.295  42.552   8.090
 1040POPC   C4A15606  31.462  42.392   7.700
 1040POPC   C1B15607  31.327  41.954   8.606
 1040POPC   C2B15608  31.520  42.122   8.251
 1040POPC   C3B15609  31.674  41.974   7.887
 1040POPC   C4B15610  31.407  41.847   7.528
 1041POPC   NC315611  33.719   8.390   9.797
 1041POPC   PO415612  34.279   8.172   9.532
 1041POPC   GL115613  33.966   8.319   9.220
 1041POPC   GL215614  34.120   8.227   8.888
 1041POPC   C1A15615  33.653   8.436   8.892
 1041POPC   D2A15616  33.699   8.568   8.455
 1041POPC   C3A15617  33.609   8.251   8.132
 1041POPC   C4A15618  33.718   8.284   7.708
 1041POPC   C1B15619  33.830   8.047   8.590
 1041POPC   C2B15620  33.779   7.707   8.304
 1041POPC   C3B15621  33.864   7.811   7.892
 1041POPC   C4B15622  34.182   8.166   7.897
 1042POPC   NC315623  31.611  23.996   9.532
 1042POPC   PO415624  31.650  23.317   9.563
 1042POPC   GL115625  31.520  23.601   9.194
 1042POPC   GL215626  31.355  23.929   9.084
 1042POPC   C1A15627  31.493  23.526   8.752
 1042POPC   D2A15628  31.739  23.556   8.365
 1042POPC   C3A15629  31.531  23.506   7.950
 1042POPC   C4A15630  31.648  23.697   7.581
 1042POPC   C1B15631  31.093  23.848   8.767
 1042POPC   C2B15632  31.156  23.652   8.375
 1042POPC   C3B15633  31.184  23.851   7.992
 1042POPC   C4B15634  31.088  23.676   7.619
 1043POPC   NC315635   4.022  10.890   9.454
 1043POPC   PO415636   4.254  10.317   9.503
 1043POPC   GL115637   4.504  10.331   9.144
 1043POPC   GL215638   4.379  10.656   9.086
 1043POPC   C1A15639   4.448  10.292   8.695
 1043POPC   D2A15640   4.354  10.501   8.291
 1043POPC   C3A15641   4.589  10.419   7.896
 1043POPC   C4A15642   4.342  10.288   7.516
 1043POPC   C1B15643   4.164  10.926   8.805
 1043POPC   C2B15644   4.242  11.048   8.419
 1043POPC   C3B15645   4.158  10.947   8.028
 1043POPC   C4B15646   4.256  10.749   7.676
 1044POPC   NC315647  30.788  25.789   9.411
 1044POPC   PO415648  30.686  26.431   9.498
 1044POPC   GL115649  30.787  26.293   9.127
 1044POPC   GL215650  30.588  26.015   9.020
 1044POPC   C1A15651  30.778  26.356   8.696
 1044POPC   D2A15652  30.723  26.035   8.403
 1044POPC   C3A15653  30.865  26.124   7.987
 1044POPC   C4A15654  31.172  25.883   7.769
 1044POPC   C1B15655  30.285  25.901   8.754
 1044POPC   C2B15656  30.289  25.768   8.365
 1044POPC   C3B15657  30.375  25.977   8.002
 1044POPC   C4B15658  30.398  25.859   7.576
 1045POPC   NC315659  16.448   0.845   9.337
 1045POPC   PO415660  16.978   1.242   9.567
 1045POPC   GL115661  16.846   1.336   9.177
 1045POPC   GL215662  16.809   1.019   8.986
 1045POPC   C1A15663  16.777   1.499   8.792
 1045POPC   D2A15664  16.892   1.221   8.500
 1045POPC   C3A15665  16.609   1.234   8.201
 1045POPC   C4A15666  16.761   1.313   7.819
 1045POPC   C1B15667  16.446   0.937   8.659
 1045POPC   C2B15668  16.276   0.838   8.217
 1045POPC   C3B15669  16.323   1.049   7.800
 1045POPC   C4B15670  16.580   0.907   7.439
 1046POPC   NC315671   0.526  13.187   9.475
 1046POPC   PO415672   0.696  13.833   9.562
 1046POPC   GL115673   0.598  13.608   9.168
 1046POPC   GL215674   0.255  13.482   9.166
 1046POPC   C1A15675   0.497  13.793   8.765
 1046POPC   D2A15676   0.686  13.886   8.376
 1046POPC   C3A15677   0.577  13.694   8.006
 1046POPC   C4A15678   0.733  13.370   7.709
 1046POPC   C1B15679   0.316  13.321   8.763
 1046POPC   C2B15680   0.271  13.483   8.377
 1046POPC   C3B15681   0.265  13.300   7.966
 1046POPC   C4B15682   0.266  13.539   7.610
 1047POPC   NC315683  42.780   2.484   9.469
 1047POPC   PO415684  42.153   2.666   9.596
 1047POPC   GL115685  42.068   2.743   9.163
 1047POPC   GL215686  42.458   2.723   9.123
 1047POPC   C1A15687  42.174   2.836   8.734
 1047POPC   D2A15688  42.060   2.618   8.404
 1047POPC   C3A15689  42.181   2.789   8.027
 1047POPC   C4A15690  41.996   2.835   7.638
 1047POPC   C1B15691  42.712   2.637   8.741
 1047POPC   C2B15692  42.581   2.555   8.302
 1047POPC   C3B15693  42.703   2.489   7.855
 1047POPC   C4B15694  42.789   2.569   7.409
 1048POPC   NC315695  28.594  18.517   9.393
 1048POPC   PO415696  27.943  18.071   9.603
 1048POPC   GL115697  28.189  18.140   9.212
 1048POPC   GL215698  28.045  18.448   9.123
 1048POPC   C1A15699  28.494  18.143   8.838
 1048POPC   D2A15700  28.591  17.949   8.454
 1048POPC   C3A15701  28.497  18.117   8.067
 1048POPC   C4A15702  28.588  18.230   7.657
 1048POPC   C1B15703  28.103  18.410   8.707
 1048POPC   C2B15704  28.331  18.501   8.355
 1048POPC   C3B15705  28.177  18.591   7.952
 1048POPC   C4B15706  28.370  18.674   7.573
 1049POPC   NC315707  24.301  42.003   9.389
 1049POPC   PO415708  24.694  42.593   9.590
 1049POPC   GL115709  24.620  42.454   9.176
 1049POPC   GL215710  24.732  42.107   9.079
 1049POPC   C1A15711  24.539  42.430   8.725
 1049POPC   D2A15712  24.234  42.243   8.428
 1049POPC   C3A15713  24.433  42.186   8.023
 1049POPC   C4A15714  24.710  42.405   7.723
 1049POPC   C1B15715  24.975  42.058   8.715
 1049POPC   C2B15716  24.887  42.261   8.319
 1049POPC   C3B15717  24.953  42.028   7.952
 1049POPC   C4B15718  24.869  41.826   7.567
 1050POPC   NC315719   8.956  21.247   9.471
 1050POPC   PO415720   9.092  21.947   9.428
 1050POPC   GL115721   8.951  21.596   9.095
 1050POPC   GL215722   8.716  21.291   9.031
 1050POPC   C1A15723   9.006  21.408   8.661
 1050POPC   D2A15724   9.159  21.511   8.319
 1050POPC   C3A15725   8.924  21.415   8.032
 1050POPC   C4A15726   8.918  21.285   7.649
 1050POPC   C1B15727   8.581  21.670   8.754
 1050POPC   C2B15728   8.770  21.820   8.361
 1050POPC   C3B15729   8.566  21.813   7.959
 1050POPC   C4B15730   8.550  21.599   7.529
 1051POPC   NC315731  27.850  32.836   9.470
 1051POPC   PO415732  27.483  33.433   9.466
 1051POPC   GL115733  27.564  33.222   9.069
 1051POPC   GL215734  27.768  32.935   9.002
 1051POPC   C1A15735  27.548  33.145   8.604
 1051POPC   D2A15736  27.779  33.277   8.228
 1051POPC   C3A15737  27.609  33.133   7.843
 1051POPC   C4A15738  27.371  33.204   7.461
 1051POPC   C1B15739  27.902  32.681   8.712
 1051POPC   C2B15740  27.691  32.685   8.311
 1051POPC   C3B15741  27.886  32.714   7.916
 1051POPC   C4B15742  27.875  32.428   7.570
 1052POPC   NC315743   3.848  44.991   9.469
 1052POPC   PO415744   4.364  44.520   9.534
 1052POPC   GL115745   4.226  44.601   9.173
 1052POPC   GL215746   4.370  44.911   9.115
 1052POPC   C1A15747   4.118  44.322   8.817
 1052POPC   D2A15748   4.330  44.279   8.419
 1052POPC   C3A15749   4.112  44.397   8.081
 1052POPC   C4A15750   4.158  44.254   7.682
 1052POPC   C1B15751   4.449  44.690   8.720
 1052POPC   C2B15752   4.578  44.724   8.302
 1052POPC   C3B15753   4.452  44.708   7.872
 1052POPC   C4B15754   4.365  44.661   7.442
 1053POPC   NC315755  32.895  26.359   9.391
 1053POPC   PO415756  33.003  27.017   9.595
 1053POPC   GL115757  33.043  26.917   9.184
 1053POPC   GL215758  32.724  26.815   9.180
 1053POPC   C1A15759  33.047  26.703   8.771
 1053POPC   D2A15760  32.864  26.786   8.344
 1053POPC   C3A15761  33.100  26.720   7.962
 1053POPC   C4A15762  33.349  26.896   7.583
 1053POPC   C1B15763  32.537  26.809   8.791
 1053POPC   C2B15764  32.432  26.530   8.450
 1053POPC   C3B15765  32.579  26.537   7.980
 1053POPC   C4B15766  32.750  26.835   7.612
 1054POPC   NC315767  19.470  30.538   9.516
 1054POPC   PO415768  18.890  30.933   9.586
 1054POPC   GL115769  19.089  30.820   9.223
 1054POPC   GL215770  18.776  30.636   9.180
 1054POPC   C1A15771  19.121  30.781   8.763
 1054POPC   D2A15772  18.966  30.503   8.425
 1054POPC   C3A15773  18.882  30.828   8.073
 1054POPC   C4A15774  19.134  30.868   7.671
 1054POPC   C1B15775  18.615  30.708   8.799
 1054POPC   C2B15776  18.487  30.636   8.391
 1054POPC   C3B15777  18.556  30.438   8.025
 1054POPC   C4B15778  18.764  30.512   7.650
 1055POPC   NC315779  13.283  38.532   9.472
 1055POPC   PO415780  13.896  38.586   9.629
 1055POPC   GL115781  13.860  38.408   9.182
 1055POPC   GL215782  13.552  38.365   9.075
 1055POPC   C1A15783  13.882  38.353   8.693
 1055POPC   D2A15784  13.654  38.497   8.298
 1055POPC   C3A15785  13.588  38.224   7.911
 1055POPC   C4A15786  13.722  38.319   7.422
 1055POPC   C1B15787  13.406  38.625   8.739
 1055POPC   C2B15788  13.171  38.832   8.415
 1055POPC   C3B15789  13.275  38.717   8.012
 1055POPC   C4B15790  13.455  38.650   7.674
 1056POPC   NC315791   8.218  25.784   9.495
 1056POPC   PO415792   7.967  26.426   9.538
 1056POPC   GL115793   8.147  26.186   9.218
 1056POPC   GL215794   8.298  26.402   9.081
 1056POPC   C1A15795   8.329  25.953   8.837
 1056POPC   D2A15796   8.199  26.095   8.424
 1056POPC   C3A15797   8.334  25.956   8.014
 1056POPC   C4A15798   8.196  26.137   7.617
 1056POPC   C1B15799   7.957  26.378   8.786
 1056POPC   C2B15800   7.903  26.567   8.405
 1056POPC   C3B15801   8.028  26.404   8.035
 1056POPC   C4B15802   7.739  26.376   7.723
 1057POPC   NC315803   9.732   1.753   9.583
 1057POPC   PO415804   9.409   2.328   9.331
 1057POPC   GL115805   9.689   2.120   9.061
 1057POPC   GL215806   9.659   1.742   9.092
 1057POPC   C1A15807   9.574   2.183   8.632
 1057POPC   D2A15808   9.317   1.949   8.336
 1057POPC   C3A15809   9.557   2.030   7.975
 1057POPC   C4A15810   9.587   2.388   7.720
 1057POPC   C1B15811   9.593   1.664   8.669
 1057POPC   C2B15812   9.876   1.858   8.371
 1057POPC   C3B15813  10.011   1.741   7.978
 1057POPC   C4B15814   9.693   1.612   7.713
 1058POPC   NC315815  11.849  20.372   9.451
 1058POPC   PO415816  12.243  20.945   9.376
 1058POPC   GL115817  12.112  20.660   9.105
 1058POPC   GL215818  12.291  20.325   9.142
 1058POPC   C1A15819  12.176  20.785   8.703
 1058POPC   D2A15820  12.023  20.617   8.349
 1058POPC   C3A15821  12.270  20.561   8.035
 1058POPC   C4A15822  12.048  20.793   7.770
 1058POPC   C1B15823  12.056  20.277   8.741
 1058POPC   C2B15824  11.926  20.103   8.307
 1058POPC   C3B15825  11.864  20.270   7.883
 1058POPC   C4B15826  12.164  20.299   7.565
 1059POPC   NC315827  24.524  10.898   9.530
 1059POPC   PO415828  24.707  11.530   9.430
 1059POPC   GL115829  24.353  11.392   9.109
 1059POPC   GL215830  24.173  11.053   9.149
 1059POPC   C1A15831  24.393  11.366   8.629
 1059POPC   D2A15832  24.720  11.199   8.286
 1059POPC   C3A15833  24.588  11.181   7.862
 1059POPC   C4A15834  24.287  11.508   7.806
 1059POPC   C1B15835  24.182  10.893   8.707
 1059POPC   C2B15836  24.217  11.030   8.242
 1059POPC   C3B15837  24.160  10.941   7.773
 1059POPC   C4B15838  24.277  11.190   7.414
 1060POPC   NC315839  16.259  33.934   9.461
 1060POPC   PO415840  15.645  33.512   9.402
 1060POPC   GL115841  15.873  33.766   9.110
 1060POPC   GL215842  15.769  34.105   9.028
 1060POPC   C1A15843  16.009  33.598   8.701
 1060POPC   D2A15844  15.797  33.573   8.274
 1060POPC   C3A15845  15.959  33.589   7.822
 1060POPC   C4A15846  16.303  33.789   7.666
 1060POPC   C1B15847  15.677  33.970   8.658
 1060POPC   C2B15848  16.013  34.035   8.383
 1060POPC   C3B15849  15.845  34.038   8.019
 1060POPC   C4B15850  15.624  34.111   7.645
 1061POPC   NC315851  10.351  36.326   9.670
 1061POPC   PO415852  10.881  35.978   9.757
 1061POPC   GL115853  10.567  35.997   9.321
 1061POPC   GL215854  10.741  35.940   8.978
 1061POPC   C1A15855  10.401  36.309   8.961
 1061POPC   D2A15856  10.306  36.413   8.511
 1061POPC   C3A15857  10.588  36.383   8.125
 1061POPC   C4A15858  10.405  36.281   7.697
 1061POPC   C1B15859  10.771  36.175   8.599
 1061POPC   C2B15860  10.774  35.902   8.261
 1061POPC   C3B15861  10.675  35.887   7.845
 1061POPC   C4B15862  10.790  36.035   7.392
 1062POPC   NC315863  38.385  42.069   9.431
 1062POPC   PO415864  38.299  42.778   9.600
 1062POPC   GL115865  38.459  42.547   9.278
 1062POPC   GL215866  38.144  42.528   9.067
 1062POPC   C1A15867  38.613  42.388   8.872
 1062POPC   D2A15868  38.502  42.456   8.460
 1062POPC   C3A15869  38.711  42.137   8.178
 1062POPC   C4A15870  38.788  42.111   7.750
 1062POPC   C1B15871  38.113  42.193   8.725
 1062POPC   C2B15872  38.221  42.069   8.295
 1062POPC   C3B15873  38.315  42.370   7.981
 1062POPC   C4B15874  38.191  42.239   7.644
 1063POPC   NC315875  21.266  24.347   9.369
 1063POPC   PO415876  21.659  24.891   9.511
 1063POPC   GL115877  21.615  24.628   9.125
 1063POPC   GL215878  21.713  24.320   9.043
 1063POPC   C1A15879  21.539  24.658   8.665
 1063POPC   D2A15880  21.198  24.570   8.325
 1063POPC   C3A15881  21.299  24.672   7.884
 1063POPC   C4A15882  21.440  24.666   7.419
 1063POPC   C1B15883  21.410  24.189   8.740
 1063POPC   C2B15884  21.539  24.192   8.324
 1063POPC   C3B15885  21.358  24.166   7.957
 1063POPC   C4B15886  21.400  24.175   7.525
 1064POPC   NC315887   3.717  22.911   9.363
 1064POPC   PO415888   3.110  23.165   9.530
 1064POPC   GL115889   3.224  23.084   9.110
 1064POPC   GL215890   3.294  22.758   9.132
 1064POPC   C1A15891   3.523  23.129   8.753
 1064POPC   D2A15892   3.679  23.055   8.342
 1064POPC   C3A15893   3.371  23.195   8.056
 1064POPC   C4A15894   3.498  23.253   7.655
 1064POPC   C1B15895   3.522  22.605   8.777
 1064POPC   C2B15896   3.392  22.629   8.375
 1064POPC   C3B15897   3.578  22.487   8.028
 1064POPC   C4B15898   3.633  22.813   7.832
 1065POPC   NC315899  36.867  12.290   9.494
 1065POPC   PO415900  36.759  11.686   9.342
 1065POPC   GL115901  36.984  11.849   9.022
 1065POPC   GL215902  37.062  12.198   9.034
 1065POPC   C1A15903  36.805  12.005   8.639
 1065POPC   D2A15904  36.963  11.915   8.256
 1065POPC   C3A15905  36.736  11.952   7.894
 1065POPC   C4A15906  36.529  12.303   7.701
 1065POPC   C1B15907  37.374  12.370   8.777
 1065POPC   C2B15908  37.409  12.280   8.365
 1065POPC   C3B15909  37.238  12.291   7.952
 1065POPC   C4B15910  37.248  12.583   7.596
 1066POPC   NC315911   0.548  23.912   9.590
 1066POPC   PO415912   0.548  23.206   9.472
 1066POPC   GL115913   0.589  23.612   9.169
 1066POPC   GL215914   0.701  24.009   9.135
 1066POPC   C1A15915   0.365  23.744   8.801
 1066POPC   D2A15916   0.195  23.458   8.507
 1066POPC   C3A15917   0.474  23.458   8.169
 1066POPC   C4A15918   0.479  23.797   7.912
 1066POPC   C1B15919   0.852  23.938   8.744
 1066POPC   C2B15920   0.804  23.853   8.323
 1066POPC   C3B15921   0.922  24.071   7.960
 1066POPC   C4B15922   0.840  23.916   7.586
 1067POPC   NC315923  25.025  16.423   9.456
 1067POPC   PO415924  25.117  17.109   9.551
 1067POPC   GL115925  25.211  16.825   9.154
 1067POPC   GL215926  25.431  16.528   9.136
 1067POPC   C1A15927  25.425  16.910   8.740
 1067POPC   D2A15928  25.239  17.068   8.345
 1067POPC   C3A15929  25.036  16.766   8.171
 1067POPC   C4A15930  24.792  16.604   7.911
 1067POPC   C1B15931  25.466  16.315   8.763
 1067POPC   C2B15932  25.410  16.538   8.401
 1067POPC   C3B15933  25.533  16.654   8.007
 1067POPC   C4B15934  25.572  16.372   7.667
 1068POPC   NC315935  30.363  31.834   9.525
 1068POPC   PO415936  30.883  31.445   9.550
 1068POPC   GL115937  30.749  31.640   9.207
 1068POPC   GL215938  30.465  31.441   9.172
 1068POPC   C1A15939  30.893  31.514   8.824
 1068POPC   D2A15940  30.637  31.470   8.509
 1068POPC   C3A15941  30.860  31.374   8.163
 1068POPC   C4A15942  30.730  31.509   7.763
 1068POPC   C1B15943  30.366  31.754   8.879
 1068POPC   C2B15944  30.278  31.822   8.476
 1068POPC   C3B15945  30.342  31.596   8.086
 1068POPC   C4B15946  30.368  31.853   7.694
 1069POPC   NC315947   3.257  33.966   9.429
 1069POPC   PO415948   2.591  33.680   9.549
 1069POPC   GL115949   2.901  33.667   9.190
 1069POPC   GL215950   2.985  33.995   9.024
 1069POPC   C1A15951   2.977  33.586   8.741
 1069POPC   D2A15952   3.148  33.574   8.343
 1069POPC   C3A15953   2.822  33.471   8.081
 1069POPC   C4A15954   2.674  33.551   7.634
 1069POPC   C1B15955   2.859  34.201   8.666
 1069POPC   C2B15956   2.630  34.003   8.340
 1069POPC   C3B15957   2.683  33.967   7.923
 1069POPC   C4B15958   2.954  34.200   7.698
 1070POPC   NC315959  34.638  35.518   9.465
 1070POPC   PO415960  34.186  35.016   9.565
 1070POPC   GL115961  34.420  35.153   9.138
 1070POPC   GL215962  34.772  35.194   9.073
 1070POPC   C1A15963  34.476  35.324   8.676
 1070POPC   D2A15964  34.647  35.160   8.275
 1070POPC   C3A15965  34.369  35.200   7.935
 1070POPC   C4A15966  34.282  35.450   7.603
 1070POPC   C1B15967  34.841  35.633   8.869
 1070POPC   C2B15968  34.630  35.805   8.504
 1070POPC   C3B15969  34.484  35.668   8.117
 1070POPC   C4B15970  34.765  35.525   7.794
 1071POPC   NC315971  25.264  20.619   9.792
 1071POPC   PO415972  25.677  20.831   9.294
 1071POPC   GL115973  25.200  20.714   9.174
 1071POPC   GL215974  25.068  20.365   9.173
 1071POPC   C1A15975  24.989  20.655   8.759
 1071POPC   D2A15976  24.929  20.925   8.375
 1071POPC   C3A15977  25.020  20.717   7.986
 1071POPC   C4A15978  25.062  20.869   7.552
 1071POPC   C1B15979  25.298  20.245   8.767
 1071POPC   C2B15980  25.207  20.383   8.357
 1071POPC   C3B15981  25.446  20.378   7.977
 1071POPC   C4B15982  25.188  20.363   7.645
 1072POPC   NC315983  33.680  28.870   9.594
 1072POPC   PO415984  33.710  29.486   9.440
 1072POPC   GL115985  33.859  29.436   9.076
 1072POPC   GL215986  33.944  29.076   9.146
 1072POPC   C1A15987  33.672  29.518   8.708
 1072POPC   D2A15988  33.691  29.291   8.337
 1072POPC   C3A15989  33.798  29.482   7.988
 1072POPC   C4A15990  33.674  29.248   7.688
 1072POPC   C1B15991  34.046  29.132   8.712
 1072POPC   C2B15992  33.950  28.845   8.406
 1072POPC   C3B15993  34.033  28.980   8.007
 1072POPC   C4B15994  34.237  29.221   7.711
 1073POPC   NC315995  16.263  10.704   9.823
 1073POPC   PO415996  16.815  10.868   9.480
 1073POPC   GL115997  16.825  10.680   9.097
 1073POPC   GL215998  16.612  10.434   9.159
 1073POPC   C1A15999  16.788  10.885   8.713
 1073POPC   D2A16000  17.046  10.905   8.354
 1073POPC   C3A16001  16.837  10.811   7.963
 1073POPC   C4A16002  16.742  10.461   7.677
 1073POPC   C1B16003  16.512  10.437   8.718
 1073POPC   C2B16004  16.402  10.458   8.276
 1073POPC   C3B16005  16.531  10.126   7.971
 1073POPC   C4B16006  16.478  10.055   7.486
 1074POPC   NC316007  13.576  14.507   9.399
 1074POPC   PO416008  13.770  13.851   9.549
 1074POPC   GL116009  13.709  14.062   9.131
 1074POPC   GL216010  13.932  14.352   9.066
 1074POPC   C1A16011  13.576  14.222   8.712
 1074POPC   D2A16012  13.352  14.229   8.309
 1074POPC   C3A16013  13.518  14.326   7.894
 1074POPC   C4A16014  13.329  14.615   7.576
 1074POPC   C1B16015  13.754  14.678   8.737
 1074POPC   C2B16016  13.546  14.711   8.337
 1074POPC   C3B16017  13.675  14.831   7.936
 1074POPC   C4B16018  13.815  14.677   7.575
 1075POPC   NC316019  24.480   5.441   9.386
 1075POPC   PO416020  24.630   6.085   9.578
 1075POPC   GL116021  24.370   5.950   9.219
 1075POPC   GL216022  24.667   5.808   9.078
 1075POPC   C1A16023  24.266   5.713   8.796
 1075POPC   D2A16024  24.483   5.774   8.386
 1075POPC   C3A16025  24.283   5.838   7.967
 1075POPC   C4A16026  24.446   5.749   7.562
 1075POPC   C1B16027  24.930   5.891   8.708
 1075POPC   C2B16028  24.973   5.921   8.278
 1075POPC   C3B16029  24.806   5.754   7.927
 1075POPC   C4B16030  24.953   5.802   7.520
 1076POPC   NC316031  44.083  29.629   9.402
 1076POPC   PO416032  44.129  30.253   9.675
 1076POPC   GL116033  43.901  30.202   9.214
 1076POPC   GL216034  43.734  29.893   9.133
 1076POPC   C1A16035  43.997  30.153   8.730
 1076POPC   D2A16036  44.095  29.733   8.537
 1076POPC   C3A16037  44.095  29.707   8.105
 1076POPC   C4A16038  43.895  29.932   7.781
 1076POPC   C1B16039  43.586  29.877   8.703
 1076POPC   C2B16040  43.689  30.043   8.295
 1076POPC   C3B16041  43.515  30.259   7.929
 1076POPC   C4B16042  43.424  29.975   7.575
 1077POPC   NC316043   7.660  34.170   9.227
 1077POPC   PO416044   7.367  34.671   9.554
 1077POPC   GL116045   7.355  34.635   9.104
 1077POPC   GL216046   7.318  34.337   8.902
 1077POPC   C1A16047   7.236  34.787   8.675
 1077POPC   D2A16048   7.066  34.695   8.260
 1077POPC   C3A16049   7.438  34.657   8.008
 1077POPC   C4A16050   7.504  34.687   7.570
 1077POPC   C1B16051   7.041  34.247   8.587
 1077POPC   C2B16052   7.165  34.186   8.153
 1077POPC   C3B16053   7.472  34.173   7.795
 1077POPC   C4B16054   7.435  34.253   7.334
 1078POPC   NC316055   1.562  22.311   9.833
 1078POPC   PO416056   1.945  21.792   9.590
 1078POPC   GL116057   2.031  22.054   9.188
 1078POPC   GL216058   1.805  21.916   8.929
 1078POPC   C1A16059   2.030  22.332   8.788
 1078POPC   D2A16060   1.905  22.123   8.431
 1078POPC   C3A16061   1.978  22.352   8.086
 1078POPC   C4A16062   2.098  22.229   7.725
 1078POPC   C1B16063   1.466  21.958   8.632
 1078POPC   C2B16064   1.360  21.751   8.260
 1078POPC   C3B16065   1.660  21.965   7.955
 1078POPC   C4B16066   1.688  22.081   7.506
 1079POPC   NC316067   3.994  33.979   9.542
 1079POPC   PO416068   3.432  33.545   9.485
 1079POPC   GL116069   3.413  33.648   9.052
 1079POPC   GL216070   3.656  33.902   9.128
 1079POPC   C1A16071   3.379  33.954   8.688
 1079POPC   D2A16072   3.644  34.019   8.300
 1079POPC   C3A16073   3.537  33.694   7.995
 1079POPC   C4A16074   3.143  33.708   7.799
 1079POPC   C1B16075   3.891  34.042   8.801
 1079POPC   C2B16076   4.086  34.263   8.491
 1079POPC   C3B16077   4.043  34.249   8.047
 1079POPC   C4B16078   3.894  33.952   7.743
 1080POPC   NC316079   7.841  21.498   9.689
 1080POPC   PO416080   8.434  21.195   9.460
 1080POPC   GL116081   8.247  21.430   9.096
 1080POPC   GL216082   7.939  21.530   9.073
 1080POPC   C1A16083   8.177  21.331   8.654
 1080POPC   D2A16084   8.534  21.332   8.362
 1080POPC   C3A16085   8.444  21.295   7.930
 1080POPC   C4A16086   8.459  21.062   7.575
 1080POPC   C1B16087   7.667  21.643   8.739
 1080POPC   C2B16088   7.753  21.484   8.367
 1080POPC   C3B16089   8.104  21.599   8.163
 1080POPC   C4B16090   8.108  21.674   7.749
 1081POPC   NC316091  42.110  29.813   9.417
 1081POPC   PO416092  42.599  30.208   9.261
 1081POPC   GL116093  42.384  30.265   8.947
 1081POPC   GL216094  42.223  29.946   8.945
 1081POPC   C1A16095  42.299  30.186   8.524
 1081POPC   D2A16096  42.168  30.146   8.147
 1081POPC   C3A16097  42.429  30.245   7.834
 1081POPC   C4A16098  42.701  30.141   7.489
 1081POPC   C1B16099  42.238  29.671   8.558
 1081POPC   C2B16100  42.036  29.652   8.157
 1081POPC   C3B16101  42.036  29.866   7.745
 1081POPC   C4B16102  41.883  29.622   7.344
 1082POPC   NC316103  11.704  41.834   9.428
 1082POPC   PO416104  11.234  41.475   9.757
 1082POPC   GL116105  11.210  41.609   9.292
 1082POPC   GL216106  11.068  41.368   9.113
 1082POPC   C1A16107  11.453  41.698   8.840
 1082POPC   D2A16108  11.643  41.555   8.458
 1082POPC   C3A16109  11.470  41.650   8.068
 1082POPC   C4A16110  11.266  41.428   7.748
 1082POPC   C1B16111  10.968  41.666   8.774
 1082POPC   C2B16112  11.110  41.831   8.386
 1082POPC   C3B16113  10.972  41.770   7.976
 1082POPC   C4B16114  10.776  41.598   7.609
 1083POPC   NC316115  44.442  11.352   9.450
 1083POPC   PO416116  44.819  10.781   9.644
 1083POPC   GL116117  44.925  11.091   9.262
 1083POPC   GL216118  44.910  11.465   9.217
 1083POPC   C1A16119  44.781  11.171   8.801
 1083POPC   D2A16120  44.423  11.223   8.483
 1083POPC   C3A16121  44.571  11.355   8.066
 1083POPC   C4A16122  44.863  11.210   7.782
 1083POPC   C1B16123  44.855  11.680   8.816
 1083POPC   C2B16124  44.912  11.566   8.396
 1083POPC   C3B16125  44.977  11.780   8.013
 1083POPC   C4B16126  44.787  11.695   7.619
 1084POPC   NC316127  19.390  41.388   9.364
 1084POPC   PO416128  18.686  41.274   9.610
 1084POPC   GL116129  18.719  41.297   9.185
 1084POPC   GL216130  19.015  41.206   9.056
 1084POPC   C1A16131  18.685  41.459   8.771
 1084POPC   D2A16132  18.935  41.532   8.409
 1084POPC   C3A16133  18.793  41.517   8.019
 1084POPC   C4A16134  18.737  41.318   7.653
 1084POPC   C1B16135  19.298  41.369   8.733
 1084POPC   C2B16136  19.391  41.356   8.307
 1084POPC   C3B16137  19.318  41.561   7.934
 1084POPC   C4B16138  19.645  41.538   7.635
 1085POPC   NC316139  33.152  39.491   9.893
 1085POPC   PO416140  32.933  40.105   9.549
 1085POPC   GL116141  32.995  40.132   9.130
 1085POPC   GL216142  33.316  40.201   9.125
 1085POPC   C1A16143  32.914  39.928   8.750
 1085POPC   D2A16144  33.115  39.830   8.362
 1085POPC   C3A16145  32.969  39.991   7.974
 1085POPC   C4A16146  33.137  40.095   7.611
 1085POPC   C1B16147  33.221  40.347   8.698
 1085POPC   C2B16148  33.065  40.360   8.294
 1085POPC   C3B16149  33.100  40.502   7.887
 1085POPC   C4B16150  33.428  40.500   7.555
 1086POPC   NC316151  37.788  36.570   9.706
 1086POPC   PO416152  37.352  37.048   9.469
 1086POPC   GL116153  37.549  36.901   9.141
 1086POPC   GL216154  37.897  36.854   9.205
 1086POPC   C1A16155  37.602  36.993   8.742
 1086POPC   D2A16156  37.272  36.847   8.483
 1086POPC   C3A16157  37.359  36.663   8.096
 1086POPC   C4A16158  37.418  36.932   7.759
 1086POPC   C1B16159  37.985  36.585   8.835
 1086POPC   C2B16160  37.835  36.484   8.395
 1086POPC   C3B16161  37.863  36.687   7.970
 1086POPC   C4B16162  37.899  36.942   7.576
 1087POPC   NC316163  15.541  13.031   9.889
 1087POPC   PO416164  15.019  12.839   9.554
 1087POPC   GL116165  15.111  12.642   9.120
 1087POPC   GL216166  15.037  12.940   8.927
 1087POPC   C1A16167  15.204  12.571   8.643
 1087POPC   D2A16168  14.931  12.764   8.355
 1087POPC   C3A16169  14.960  13.160   8.163
 1087POPC   C4A16170  14.836  13.123   7.743
 1087POPC   C1B16171  15.454  13.009   8.671
 1087POPC   C2B16172  15.539  12.832   8.284
 1087POPC   C3B16173  15.342  12.906   7.890
 1087POPC   C4B16174  15.307  13.324   7.761
 1088POPC   NC316175  18.018  21.190   9.363
 1088POPC   PO416176  17.963  20.531   9.471
 1088POPC   GL116177  18.192  20.651   9.096
 1088POPC   GL216178  18.196  20.283   9.040
 1088POPC   C1A16179  18.114  20.902   8.704
 1088POPC   D2A16180  17.843  20.693   8.396
 1088POPC   C3A16181  18.072  20.611   8.013
 1088POPC   C4A16182  18.420  20.859   7.825
 1088POPC   C1B16183  18.270  20.411   8.621
 1088POPC   C2B16184  18.467  20.697   8.332
 1088POPC   C3B16185  18.562  20.425   7.997
 1088POPC   C4B16186  18.327  20.227   7.685
 1089POPC   NC316187  25.018  32.407   9.433
 1089POPC   PO416188  25.372  31.857   9.265
 1089POPC   GL116189  25.122  32.044   9.002
 1089POPC   GL216190  25.123  32.410   8.944
 1089POPC   C1A16191  25.206  32.054   8.595
 1089POPC   D2A16192  25.156  32.346   8.313
 1089POPC   C3A16193  25.347  32.126   8.018
 1089POPC   C4A16194  25.147  32.148   7.670
 1089POPC   C1B16195  25.558  32.360   8.796
 1089POPC   C2B16196  25.654  32.480   8.376
 1089POPC   C3B16197  25.503  32.612   7.978
 1089POPC   C4B16198  25.636  32.346   7.639
 1090POPC   NC316199  26.093  44.401   9.360
 1090POPC   PO416200  26.276   0.065   9.514
 1090POPC   GL116201  26.183  44.933   9.119
 1090POPC   GL216202  26.382  44.651   9.018
 1090POPC   C1A16203  26.046  44.880   8.712
 1090POPC   D2A16204  26.312  44.770   8.381
 1090POPC   C3A16205  26.073  44.817   8.006
 1090POPC   C4A16206  25.853  44.520   7.764
 1090POPC   C1B16207  26.265  44.271   8.753
 1090POPC   C2B16208  26.101  44.161   8.353
 1090POPC   C3B16209  26.294  44.386   8.050
 1090POPC   C4B16210  26.438  44.427   7.692
 1091POPC   NC316211  33.707  35.265   9.407
 1091POPC   PO416212  34.253  35.627   9.235
 1091POPC   GL116213  33.958  35.441   8.983
 1091POPC   GL216214  33.634  35.616   9.045
 1091POPC   C1A16215  33.726  35.233   8.666
 1091POPC   D2A16216  33.642  35.011   8.299
 1091POPC   C3A16217  33.842  35.240   7.959
 1091POPC   C4A16218  33.688  35.268   7.560
 1091POPC   C1B16219  33.719  35.763   8.632
 1091POPC   C2B16220  33.821  35.710   8.202
 1091POPC   C3B16221  33.599  35.698   7.800
 1091POPC   C4B16222  33.429  35.721   7.359
 1092POPC   NC316223  21.287  15.402   9.642
 1092POPC   PO416224  21.276  14.839   9.232
 1092POPC   GL116225  21.566  15.102   9.105
 1092POPC   GL216226  21.353  15.400   9.138
 1092POPC   C1A16227  21.649  15.098   8.687
 1092POPC   D2A16228  21.375  15.101   8.378
 1092POPC   C3A16229  21.450  14.884   8.058
 1092POPC   C4A16230  21.095  14.886   7.802
 1092POPC   C1B16231  21.257  15.473   8.717
 1092POPC   C2B16232  21.403  15.604   8.298
 1092POPC   C3B16233  21.322  15.367   7.909
 1092POPC   C4B16234  21.024  15.392   7.579
 1093POPC   NC316235  23.730  37.575   9.781
 1093POPC   PO416236  23.125  37.755   9.489
 1093POPC   GL116237  22.836  37.661   9.191
 1093POPC   GL216238  23.076  37.498   8.977
 1093POPC   C1A16239  22.680  37.841   8.816
 1093POPC   D2A16240  22.940  37.784   8.457
 1093POPC   C3A16241  22.784  37.730   8.064
 1093POPC   C4A16242  22.844  37.987   7.738
 1093POPC   C1B16243  22.790  37.363   8.665
 1093POPC   C2B16244  22.966  37.293   8.275
 1093POPC   C3B16245  23.222  37.460   7.991
 1093POPC   C4B16246  23.115  37.416   7.567
 1094POPC   NC316247  13.042  42.793   9.514
 1094POPC   PO416248  12.369  42.859   9.423
 1094POPC   GL116249  12.593  43.082   9.090
 1094POPC   GL216250  12.928  43.196   9.167
 1094POPC   C1A16251  12.730  43.053   8.659
 1094POPC   D2A16252  13.039  42.896   8.329
 1094POPC   C3A16253  12.848  43.051   7.961
 1094POPC   C4A16254  12.533  43.157   7.686
 1094POPC   C1B16255  13.148  43.320   8.768
 1094POPC   C2B16256  13.010  43.392   8.373
 1094POPC   C3B16257  13.269  43.314   8.068
 1094POPC   C4B16258  13.198  43.293   7.680
 1095POPC   NC316259   0.609  39.063   9.416
 1095POPC   PO416260  44.992  39.359   9.564
 1095POPC   GL116261  44.966  39.156   9.129
 1095POPC   GL216262   0.264  38.910   9.056
 1095POPC   C1A16263   0.101  39.206   8.666
 1095POPC   D2A16264   0.370  39.459   8.405
 1095POPC   C3A16265   0.493  39.404   7.979
 1095POPC   C4A16266   0.870  39.655   7.827
 1095POPC   C1B16267   0.506  38.870   8.648
 1095POPC   C2B16268   0.473  38.944   8.197
 1095POPC   C3B16269   0.262  38.958   7.794
 1095POPC   C4B16270   0.331  38.923   7.325
 1096POPC   NC316271   7.970   6.003   9.501
 1096POPC   PO416272   8.058   5.415   9.564
 1096POPC   GL116273   8.139   5.637   9.190
 1096POPC   GL216274   8.446   5.819   9.266
 1096POPC   C1A16275   7.914   5.856   8.814
 1096POPC   D2A16276   8.027   6.077   8.402
 1096POPC   C3A16277   8.101   5.879   7.982
 1096POPC   C4A16278   7.996   6.047   7.565
 1096POPC   C1B16279   8.419   5.926   8.842
 1096POPC   C2B16280   8.520   5.954   8.422
 1096POPC   C3B16281   8.492   6.178   8.050
 1096POPC   C4B16282   8.582   5.855   7.757
 1097POPC   NC316283   5.112   7.148   9.421
 1097POPC   PO416284   5.425   7.741   9.331
 1097POPC   GL116285   5.302   7.476   9.028
 1097POPC   GL216286   4.987   7.538   9.061
 1097POPC   C1A16287   5.261   7.520   8.588
 1097POPC   D2A16288   5.322   7.563   8.156
 1097POPC   C3A16289   5.206   7.208   7.840
 1097POPC   C4A16290   4.918   7.125   7.467
 1097POPC   C1B16291   4.772   7.505   8.700
 1097POPC   C2B16292   4.822   7.719   8.327
 1097POPC   C3B16293   4.854   7.563   7.902
 1097POPC   C4B16294   4.838   7.675   7.466
 1098POPC   NC316295  18.976   7.690   9.424
 1098POPC   PO416296  18.705   7.071   9.603
 1098POPC   GL116297  18.689   7.344   9.198
 1098POPC   GL216298  19.009   7.290   9.028
 1098POPC   C1A16299  18.704   7.607   8.784
 1098POPC   D2A16300  18.991   7.719   8.449
 1098POPC   C3A16301  18.901   7.531   8.087
 1098POPC   C4A16302  18.892   7.653   7.685
 1098POPC   C1B16303  19.328   7.465   8.741
 1098POPC   C2B16304  19.406   7.391   8.309
 1098POPC   C3B16305  19.291   7.269   7.908
 1098POPC   C4B16306  19.318   7.455   7.514
 1099POPC   NC316307  21.757  37.269   9.727
 1099POPC   PO416308  21.271  37.696   9.433
 1099POPC   GL116309  21.363  37.621   9.051
 1099POPC   GL216310  21.643  37.852   9.068
 1099POPC   C1A16311  21.113  37.517   8.711
 1099POPC   D2A16312  21.063  37.711   8.335
 1099POPC   C3A16313  21.209  37.459   8.032
 1099POPC   C4A16314  21.391  37.783   7.829
 1099POPC   C1B16315  21.748  37.658   8.678
 1099POPC   C2B16316  21.616  37.626   8.292
 1099POPC   C3B16317  21.828  37.509   7.930
 1099POPC   C4B16318  21.700  37.474   7.503
 1100POPC   NC316319   1.862   0.742   9.811
 1100POPC   PO416320   2.201   0.257   9.560
 1100POPC   GL116321   1.940   0.308   9.164
 1100POPC   GL216322   1.849   0.603   8.945
 1100POPC   C1A16323   1.931   0.177   8.723
 1100POPC   D2A16324   1.752   0.344   8.351
 1100POPC   C3A16325   2.046   0.286   8.023
 1100POPC   C4A16326   2.162   0.305   7.607
 1100POPC   C1B16327   2.010   0.799   8.635
 1100POPC   C2B16328   2.014   0.770   8.229
 1100POPC   C3B16329   1.883   0.757   7.817
 1100POPC   C4B16330   1.970   0.747   7.415
 1101POPC   NC316331  29.926  33.174   9.568
 1101POPC   PO416332  29.217  33.173   9.439
 1101POPC   GL116333  29.641  33.060   9.184
 1101POPC   GL216334  29.950  32.812   9.182
 1101POPC   C1A16335  29.928  33.211   8.849
 1101POPC   D2A16336  30.138  33.412   8.486
 1101POPC   C3A16337  30.103  33.185   8.126
 1101POPC   C4A16338  30.035  33.204   7.725
 1101POPC   C1B16339  29.695  32.673   8.854
 1101POPC   C2B16340  29.546  32.748   8.461
 1101POPC   C3B16341  29.736  32.779   8.081
 1101POPC   C4B16342  29.603  32.807   7.683
 1102POPC   NC316343  40.932  18.566   9.528
 1102POPC   PO416344  40.606  18.062   9.738
 1102POPC   GL116345  40.676  18.284   9.210
 1102POPC   GL216346  40.929  18.494   9.010
 1102POPC   C1A16347  40.490  18.302   8.776
 1102POPC   D2A16348  40.542  18.207   8.346
 1102POPC   C3A16349  40.807  18.525   8.175
 1102POPC   C4A16350  40.887  18.623   7.760
 1102POPC   C1B16351  41.011  18.216   8.676
 1102POPC   C2B16352  41.091  18.100   8.266
 1102POPC   C3B16353  40.985  18.120   7.861
 1102POPC   C4B16354  41.313  18.194   7.614
 1103POPC   NC316355  12.804  11.947   9.620
 1103POPC   PO416356  12.990  12.570   9.561
 1103POPC   GL116357  12.902  12.263   9.213
 1103POPC   GL216358  13.073  11.956   9.145
 1103POPC   C1A16359  12.862  12.257   8.750
 1103POPC   D2A16360  12.538  12.181   8.421
 1103POPC   C3A16361  12.674  12.151   7.993
 1103POPC   C4A16362  12.668  12.338   7.582
 1103POPC   C1B16363  12.709  11.771   8.896
 1103POPC   C2B16364  12.675  11.678   8.457
 1103POPC   C3B16365  12.576  11.634   8.014
 1103POPC   C4B16366  12.787  11.781   7.652
 1104POPC   NC316367  27.851  36.811   9.492
 1104POPC   PO416368  27.192  36.874   9.527
 1104POPC   GL116369  27.391  36.886   9.156
 1104POPC   GL216370  27.489  36.554   9.234
 1104POPC   C1A16371  27.622  37.078   8.782
 1104POPC   D2A16372  27.509  37.193   8.347
 1104POPC   C3A16373  27.712  37.010   7.984
 1104POPC   C4A16374  27.732  37.040   7.513
 1104POPC   C1B16375  27.594  36.581   8.808
 1104POPC   C2B16376  27.851  36.703   8.493
 1104POPC   C3B16377  27.747  36.506   8.160
 1104POPC   C4B16378  27.780  36.561   7.748
 1105POPC   NC316379  16.406  10.975   9.278
 1105POPC   PO416380  16.440  11.599   9.544
 1105POPC   GL116381  16.708  11.615   9.186
 1105POPC   GL216382  16.845  11.263   9.142
 1105POPC   C1A16383  16.714  11.630   8.745
 1105POPC   D2A16384  16.717  11.312   8.422
 1105POPC   C3A16385  16.651  11.462   8.009
 1105POPC   C4A16386  16.597  11.304   7.599
 1105POPC   C1B16387  17.115  11.293   8.800
 1105POPC   C2B16388  17.224  11.433   8.392
 1105POPC   C3B16389  17.135  11.265   8.003
 1105POPC   C4B16390  17.069  11.407   7.634
 1106POPC   NC316391  12.189  36.465   9.407
 1106POPC   PO416392  11.622  36.455   9.752
 1106POPC   GL116393  11.701  36.239   9.265
 1106POPC   GL216394  11.911  36.419   8.995
 1106POPC   C1A16395  11.855  35.933   8.868
 1106POPC   D2A16396  12.173  35.921   8.465
 1106POPC   C3A16397  12.115  35.898   7.973
 1106POPC   C4A16398  12.229  35.788   7.509
 1106POPC   C1B16399  11.974  36.625   8.610
 1106POPC   C2B16400  12.020  36.392   8.253
 1106POPC   C3B16401  12.119  36.390   7.842
 1106POPC   C4B16402  12.116  36.396   7.405
 1107POPC   NC316403  18.501  44.120   9.486
 1107POPC   PO416404  18.582  43.510   9.360
 1107POPC   GL116405  18.467  43.824   9.044
 1107POPC   GL216406  18.151  44.000   9.109
 1107POPC   C1A16407  18.389  43.775   8.610
 1107POPC   D2A16408  18.188  43.770   8.218
 1107POPC   C3A16409  18.544  43.767   7.886
 1107POPC   C4A16410  18.771  43.618   7.497
 1107POPC   C1B16411  18.092  44.197   8.717
 1107POPC   C2B16412  18.296  44.250   8.330
 1107POPC   C3B16413  18.222  44.151   7.875
 1107POPC   C4B16414  18.028  43.767   7.705
 1108POPC   NC316415  40.552  11.453   9.663
 1108POPC   PO416416  40.856  10.895   9.653
 1108POPC   GL116417  40.801  11.204   9.269
 1108POPC   GL216418  40.503  11.453   9.159
 1108POPC   C1A16419  40.887  11.382   8.845
 1108POPC   D2A16420  40.822  11.120   8.525
 1108POPC   C3A16421  40.925  11.179   8.108
 1108POPC   C4A16422  41.131  11.076   7.742
 1108POPC   C1B16423  40.372  11.352   8.729
 1108POPC   C2B16424  40.283  11.130   8.341
 1108POPC   C3B16425  40.345  11.349   7.973
 1108POPC   C4B16426  40.687  11.413   7.722
 1109POPC   NC316427  26.051  14.880   9.516
 1109POPC   PO416428  25.989  14.229   9.546
 1109POPC   GL116429  26.154  14.247   9.151
 1109POPC   GL216430  26.250  14.585   9.149
 1109POPC   C1A16431  26.264  14.190   8.732
 1109POPC   D2A16432  26.078  14.236   8.314
 1109POPC   C3A16433  25.845  14.501   8.012
 1109POPC   C4A16434  26.041  14.261   7.712
 1109POPC   C1B16435  26.019  14.665   8.799
 1109POPC   C2B16436  26.093  14.756   8.389
 1109POPC   C3B16437  26.347  14.641   8.032
 1109POPC   C4B16438  26.192  14.747   7.642
 1110POPC   NC316439  16.424  40.694   9.428
 1110POPC   PO416440  17.046  40.939   9.500
 1110POPC   GL116441  16.820  40.876   9.118
 1110POPC   GL216442  16.805  40.533   9.120
 1110POPC   C1A16443  16.659  40.929   8.676
 1110POPC   D2A16444  16.517  41.078   8.250
 1110POPC   C3A16445  16.596  40.938   7.836
 1110POPC   C4A16446  16.507  40.986   7.364
 1110POPC   C1B16447  16.633  40.435   8.763
 1110POPC   C2B16448  16.739  40.552   8.342
 1110POPC   C3B16449  16.579  40.429   7.970
 1110POPC   C4B16450  16.490  40.510   7.568
 1111POPC   NC316451   3.072  20.104   9.548
 1111POPC   PO416452   2.573  19.667   9.471
 1111POPC   GL116453   2.710  19.627   9.105
 1111POPC   GL216454   3.014  19.782   9.129
 1111POPC   C1A16455   2.637  19.841   8.763
 1111POPC   D2A16456   2.780  19.733   8.392
 1111POPC   C3A16457   2.571  19.874   8.039
 1111POPC   C4A16458   2.599  19.693   7.659
 1111POPC   C1B16459   3.169  19.893   8.739
 1111POPC   C2B16460   3.291  20.023   8.348
 1111POPC   C3B16461   3.074  19.908   8.024
 1111POPC   C4B16462   3.132  19.748   7.671
 1112POPC   NC316463   7.977  44.222   9.557
 1112POPC   PO416464   8.468  43.729   9.507
 1112POPC   GL116465   8.447  43.922   9.129
 1112POPC   GL216466   8.114  44.034   9.114
 1112POPC   C1A16467   8.348  43.761   8.705
 1112POPC   D2A16468   8.375  43.661   8.263
 1112POPC   C3A16469   8.426  44.030   7.998
 1112POPC   C4A16470   8.343  43.868   7.617
 1112POPC   C1B16471   7.861  43.886   8.779
 1112POPC   C2B16472   7.995  44.001   8.370
 1112POPC   C3B16473   7.935  43.830   7.965
 1112POPC   C4B16474   7.862  44.065   7.612
 1113POPC   NC316475   2.997  19.367   9.455
 1113POPC   PO416476   2.812  18.699   9.538
 1113POPC   GL116477   2.894  18.965   9.147
 1113POPC   GL216478   2.572  19.121   9.182
 1113POPC   C1A16479   2.933  19.283   8.779
 1113POPC   D2A16480   3.148  19.386   8.370
 1113POPC   C3A16481   2.926  19.386   7.992
 1113POPC   C4A16482   2.771  19.005   7.808
 1113POPC   C1B16483   2.399  19.308   8.812
 1113POPC   C2B16484   2.555  19.281   8.410
 1113POPC   C3B16485   2.418  19.380   8.038
 1113POPC   C4B16486   2.335  19.204   7.655
 1114POPC   NC316487   4.808  30.003   9.468
 1114POPC   PO416488   5.511  29.785   9.508
 1114POPC   GL116489   5.215  29.907   9.153
 1114POPC   GL216490   4.921  29.694   9.071
 1114POPC   C1A16491   5.091  30.015   8.719
 1114POPC   D2A16492   5.076  29.732   8.356
 1114POPC   C3A16493   5.090  29.995   7.972
 1114POPC   C4A16494   5.479  30.136   7.800
 1114POPC   C1B16495   4.680  29.456   8.735
 1114POPC   C2B16496   4.594  29.451   8.283
 1114POPC   C3B16497   4.899  29.519   7.928
 1114POPC   C4B16498   5.220  29.629   7.591
 1115POPC   NC316499  18.714  40.835   9.469
 1115POPC   PO416500  19.366  40.921   9.296
 1115POPC   GL116501  19.219  40.752   8.924
 1115POPC   GL216502  18.892  40.686   9.027
 1115POPC   C1A16503  19.012  40.974   8.583
 1115POPC   D2A16504  19.014  41.068   8.137
 1115POPC   C3A16505  19.185  41.084   7.748
 1115POPC   C4A16506  19.273  40.712   7.477
 1115POPC   C1B16507  18.705  40.510   8.687
 1115POPC   C2B16508  18.756  40.627   8.282
 1115POPC   C3B16509  18.914  40.635   7.856
 1115POPC   C4B16510  18.698  40.731   7.493
 1116POPC   NC316511  18.007  43.148   9.425
 1116POPC   PO416512  18.539  42.922   9.625
 1116POPC   GL116513  18.442  43.009   9.176
 1116POPC   GL216514  18.145  42.817   9.068
 1116POPC   C1A16515  18.279  43.271   8.799
 1116POPC   D2A16516  18.398  43.236   8.354
 1116POPC   C3A16517  18.222  43.347   7.966
 1116POPC   C4A16518  18.582  43.260   7.813
 1116POPC   C1B16519  18.327  42.784   8.686
 1116POPC   C2B16520  18.207  42.701   8.318
 1116POPC   C3B16521  18.227  42.844   7.919
 1116POPC   C4B16522  17.931  42.787   7.598
 1117POPC   NC316523   7.438  20.587   9.607
 1117POPC   PO416524   6.811  20.538   9.368
 1117POPC   GL116525   7.115  20.466   9.058
 1117POPC   GL216526   7.448  20.620   9.104
 1117POPC   C1A16527   7.093  20.459   8.613
 1117POPC   D2A16528   7.054  20.717   8.243
 1117POPC   C3A16529   7.233  20.591   7.843
 1117POPC   C4A16530   7.161  20.719   7.420
 1117POPC   C1B16531   7.579  20.617   8.693
 1117POPC   C2B16532   7.539  20.565   8.285
 1117POPC   C3B16533   7.647  20.831   7.967
 1117POPC   C4B16534   7.736  20.631   7.644
 1118POPC   NC316535  44.453   5.574   9.518
 1118POPC   PO416536  44.732   6.137   9.630
 1118POPC   GL116537  44.490   5.996   9.233
 1118POPC   GL216538  44.682   5.698   9.084
 1118POPC   C1A16539  44.328   5.861   8.791
 1118POPC   D2A16540  44.555   5.719   8.395
 1118POPC   C3A16541  44.366   5.802   8.014
 1118POPC   C4A16542  44.501   6.007   7.664
 1118POPC   C1B16543  44.996   5.556   8.787
 1118POPC   C2B16544   0.084   5.729   8.384
 1118POPC   C3B16545  44.915   5.910   7.994
 1118POPC   C4B16546  44.986   5.775   7.566
 1119POPC   NC316547  36.835  10.525   9.650
 1119POPC   PO416548  36.997  10.052   9.282
 1119POPC   GL116549  36.765  10.330   9.038
 1119POPC   GL216550  36.785  10.714   9.076
 1119POPC   C1A16551  36.752  10.463   8.628
 1119POPC   D2A16552  37.076  10.440   8.340
 1119POPC   C3A16553  36.870  10.341   7.955
 1119POPC   C4A16554  36.522  10.523   7.734
 1119POPC   C1B16555  36.999  10.916   8.660
 1119POPC   C2B16556  37.086  10.919   8.167
 1119POPC   C3B16557  37.085  10.756   7.719
 1119POPC   C4B16558  37.284  10.714   7.285
 1120POPC   NC316559  21.068   8.192   9.416
 1120POPC   PO416560  21.735   7.989   9.454
 1120POPC   GL116561  21.538   8.208   9.130
 1120POPC   GL216562  21.349   7.911   9.069
 1120POPC   C1A16563  21.425   8.500   8.786
 1120POPC   D2A16564  21.097   8.432   8.452
 1120POPC   C3A16565  21.296   8.394   8.046
 1120POPC   C4A16566  21.726   8.449   7.901
 1120POPC   C1B16567  21.448   8.012   8.649
 1120POPC   C2B16568  21.624   8.047   8.247
 1120POPC   C3B16569  21.587   7.837   7.874
 1120POPC   C4B16570  21.278   7.716   7.574
 1121POPC   NC316571  36.342   4.194   9.456
 1121POPC   PO416572  35.780   4.410   9.503
 1121POPC   GL116573  35.988   4.403   9.109
 1121POPC   GL216574  36.197   4.694   9.097
 1121POPC   C1A16575  36.058   4.159   8.704
 1121POPC   D2A16576  36.374   4.208   8.366
 1121POPC   C3A16577  36.241   4.183   7.959
 1121POPC   C4A16578  36.045   4.247   7.532
 1121POPC   C1B16579  36.078   4.669   8.676
 1121POPC   C2B16580  36.076   4.592   8.258
 1121POPC   C3B16581  35.807   4.437   7.980
 1121POPC   C4B16582  35.684   4.626   7.628
 1122POPC   NC316583  36.148  15.763   9.532
 1122POPC   PO416584  36.422  16.324   9.370
 1122POPC   GL116585  36.345  16.008   9.107
 1122POPC   GL216586  36.001  15.957   9.095
 1122POPC   C1A16587  36.333  15.938   8.689
 1122POPC   D2A16588  36.215  16.109   8.310
 1122POPC   C3A16589  36.394  15.808   8.022
 1122POPC   C4A16590  36.417  15.845   7.569
 1122POPC   C1B16591  35.775  15.780   8.759
 1122POPC   C2B16592  35.551  15.884   8.371
 1122POPC   C3B16593  35.786  16.028   8.013
 1122POPC   C4B16594  35.961  15.732   7.767
 1123POPC   NC316595   3.838   4.036   9.470
 1123POPC   PO416596   3.616   4.592   9.775
 1123POPC   GL116597   3.524   4.474   9.249
 1123POPC   GL216598   3.435   4.132   9.182
 1123POPC   C1A16599   3.679   4.320   8.793
 1123POPC   D2A16600   3.866   4.444   8.389
 1123POPC   C3A16601   3.717   4.319   7.992
 1123POPC   C4A16602   3.770   4.491   7.609
 1123POPC   C1B16603   3.256   3.960   8.839
 1123POPC   C2B16604   3.285   4.154   8.457
 1123POPC   C3B16605   3.242   4.137   8.037
 1123POPC   C4B16606   3.458   4.035   7.647
 1124POPC   NC316607  39.187   3.568   9.440
 1124POPC   PO416608  39.827   3.934   9.415
 1124POPC   GL116609  39.556   3.741   9.070
 1124POPC   GL216610  39.227   3.718   8.972
 1124POPC   C1A16611  39.532   3.800   8.585
 1124POPC   D2A16612  39.247   3.710   8.256
 1124POPC   C3A16613  39.308   3.493   7.906
 1124POPC   C4A16614  38.987   3.459   7.656
 1124POPC   C1B16615  39.342   3.370   8.754
 1124POPC   C2B16616  39.376   3.237   8.353
 1124POPC   C3B16617  39.124   3.031   8.077
 1124POPC   C4B16618  39.298   2.960   7.711
 1125POPC   NC316619  29.598  42.107   9.369
 1125POPC   PO416620  30.181  42.392   9.530
 1125POPC   GL116621  29.971  42.514   9.164
 1125POPC   GL216622  29.627  42.617   9.226
 1125POPC   C1A16623  29.915  42.263   8.807
 1125POPC   D2A16624  30.099  42.055   8.489
 1125POPC   C3A16625  29.978  42.163   8.102
 1125POPC   C4A16626  29.879  42.142   7.680
 1125POPC   C1B16627  29.608  42.673   8.780
 1125POPC   C2B16628  29.838  42.575   8.411
 1125POPC   C3B16629  29.823  42.631   7.997
 1125POPC   C4B16630  29.462  42.452   7.756
 1126POPC   NC316631  36.628  24.534  10.085
 1126POPC   PO416632  36.564  24.892   9.440
 1126POPC   GL116633  36.732  24.620   9.092
 1126POPC   GL216634  37.019  24.405   9.208
 1126POPC   C1A16635  36.796  24.583   8.635
 1126POPC   D2A16636  36.834  24.736   8.193
 1126POPC   C3A16637  36.917  24.401   7.951
 1126POPC   C4A16638  36.618  24.250   7.667
 1126POPC   C1B16639  37.260  24.427   8.824
 1126POPC   C2B16640  37.162  24.308   8.405
 1126POPC   C3B16641  37.366  24.148   8.052
 1126POPC   C4B16642  37.414  24.289   7.626
 1127POPC   NC316643  34.910  13.980   9.449
 1127POPC   PO416644  34.417  13.582   9.429
 1127POPC   GL116645  34.785  13.575   9.132
 1127POPC   GL216646  34.876  13.917   8.958
 1127POPC   C1A16647  34.737  13.363   8.726
 1127POPC   D2A16648  34.371  13.399   8.451
 1127POPC   C3A16649  34.352  13.581   8.057
 1127POPC   C4A16650  34.195  13.591   7.667
 1127POPC   C1B16651  34.502  13.814   8.744
 1127POPC   C2B16652  34.719  13.765   8.360
 1127POPC   C3B16653  34.702  13.971   7.952
 1127POPC   C4B16654  34.657  13.906   7.512
 1128POPC   NC316655   6.555  22.314   9.678
 1128POPC   PO416656   7.138  21.954   9.628
 1128POPC   GL116657   6.787  21.977   9.265
 1128POPC   GL216658   6.546  22.287   9.178
 1128POPC   C1A16659   6.720  22.001   8.788
 1128POPC   D2A16660   6.858  22.233   8.423
 1128POPC   C3A16661   6.718  22.082   8.033
 1128POPC   C4A16662   6.844  22.004   7.626
 1128POPC   C1B16663   6.517  22.512   8.787
 1128POPC   C2B16664   6.342  22.354   8.407
 1128POPC   C3B16665   6.360  22.475   8.000
 1128POPC   C4B16666   6.686  22.512   7.693
 1129POPC   NC316667  33.882   6.904   9.516
 1129POPC   PO416668  33.444   6.377   9.425
 1129POPC   GL116669  33.702   6.442   9.070
 1129POPC   GL216670  33.695   6.809   9.041
 1129POPC   C1A16671  33.763   6.489   8.622
 1129POPC   D2A16672  33.631   6.801   8.325
 1129POPC   C3A16673  33.610   6.541   8.033
 1129POPC   C4A16674  33.712   6.392   7.682
 1129POPC   C1B16675  33.999   6.936   8.689
 1129POPC   C2B16676  34.126   6.807   8.257
 1129POPC   C3B16677  34.011   6.810   7.843
 1129POPC   C4B16678  33.617   6.935   7.709
 1130POPC   NC316679  23.248  29.687   9.475
 1130POPC   PO416680  22.631  29.775   9.558
 1130POPC   GL116681  22.870  29.876   9.182
 1130POPC   GL216682  23.090  30.125   9.150
 1130POPC   C1A16683  22.842  29.892   8.720
 1130POPC   D2A16684  22.736  30.203   8.380
 1130POPC   C3A16685  22.561  29.979   8.033
 1130POPC   C4A16686  22.770  29.819   7.707
 1130POPC   C1B16687  23.065  30.342   8.777
 1130POPC   C2B16688  23.279  30.210   8.424
 1130POPC   C3B16689  23.259  29.989   8.059
 1130POPC   C4B16690  22.984  30.243   7.876
 1131POPC   NC316691   0.626   8.685   9.803
 1131POPC   PO416692   0.637   8.125   9.474
 1131POPC   GL116693   0.517   8.137   9.096
 1131POPC   GL216694   0.345   8.452   9.160
 1131POPC   C1A16695   0.235   7.909   8.823
 1131POPC   D2A16696   0.139   8.043   8.399
 1131POPC   C3A16697   0.399   8.113   8.035
 1131POPC   C4A16698   0.458   7.919   7.632
 1131POPC   C1B16699   0.264   8.410   8.738
 1131POPC   C2B16700   0.352   8.575   8.342
 1131POPC   C3B16701   0.230   8.593   7.923
 1131POPC   C4B16702   0.380   8.407   7.590
 1132POPC   NC316703  30.091   4.486   9.441
 1132POPC   PO416704  29.422   4.153   9.489
 1132POPC   GL116705  29.589   4.324   9.120
 1132POPC   GL216706  29.758   4.628   9.097
 1132POPC   C1A16707  29.824   4.288   8.732
 1132POPC   D2A16708  29.986   4.057   8.402
 1132POPC   C3A16709  29.908   4.286   8.027
 1132POPC   C4A16710  30.142   4.165   7.690
 1132POPC   C1B16711  30.119   4.714   8.813
 1132POPC   C2B16712  30.131   4.569   8.396
 1132POPC   C3B16713  30.074   4.777   8.006
 1132POPC   C4B16714  30.149   4.667   7.629
 1133POPC   NC316715  42.916  26.256   9.808
 1133POPC   PO416716  43.388  25.903   9.481
 1133POPC   GL116717  43.376  25.992   9.072
 1133POPC   GL216718  43.407  26.368   9.130
 1133POPC   C1A16719  43.186  25.822   8.702
 1133POPC   D2A16720  42.931  26.004   8.354
 1133POPC   C3A16721  43.130  25.895   7.953
 1133POPC   C4A16722  42.950  25.812   7.528
 1133POPC   C1B16723  43.154  26.356   8.730
 1133POPC   C2B16724  42.953  26.521   8.327
 1133POPC   C3B16725  42.974  26.373   7.879
 1133POPC   C4B16726  42.807  26.289   7.435
 1134POPC   NC316727  41.947  40.372   9.395
 1134POPC   PO416728  41.279  40.049   9.470
 1134POPC   GL116729  41.506  40.237   9.166
 1134POPC   GL216730  41.238  40.394   8.995
 1134POPC   C1A16731  41.743  40.140   8.787
 1134POPC   D2A16732  41.933  40.270   8.411
 1134POPC   C3A16733  41.707  40.232   8.040
 1134POPC   C4A16734  41.792  39.946   7.721
 1134POPC   C1B16735  41.233  40.017   8.801
 1134POPC   C2B16736  41.421  39.913   8.441
 1134POPC   C3B16737  41.239  39.799   8.099
 1134POPC   C4B16738  41.291  40.019   7.828
 1135POPC   NC316739  15.909  34.868   9.540
 1135POPC   PO416740  15.892  34.225   9.495
 1135POPC   GL116741  16.056  34.497   9.186
 1135POPC   GL216742  15.773  34.657   9.098
 1135POPC   C1A16743  16.058  34.448   8.730
 1135POPC   D2A16744  16.368  34.420   8.422
 1135POPC   C3A16745  16.161  34.490   8.042
 1135POPC   C4A16746  16.128  34.252   7.675
 1135POPC   C1B16747  15.528  34.483   8.786
 1135POPC   C2B16748  15.596  34.382   8.382
 1135POPC   C3B16749  15.631  34.495   8.003
 1135POPC   C4B16750  15.800  34.619   7.653
 1136POPC   NC316751  13.570  26.166   9.492
 1136POPC   PO416752  14.076  25.729   9.554
 1136POPC   GL116753  13.896  25.937   9.133
 1136POPC   GL216754  13.528  25.918   9.057
 1136POPC   C1A16755  13.823  26.235   8.769
 1136POPC   D2A16756  13.543  26.309   8.393
 1136POPC   C3A16757  13.754  26.210   8.004
 1136POPC   C4A16758  13.831  25.958   7.644
 1136POPC   C1B16759  13.459  25.827   8.644
 1136POPC   C2B16760  13.540  25.804   8.217
 1136POPC   C3B16761  13.694  25.551   7.899
 1136POPC   C4B16762  13.373  25.769   7.616
 1137POPC   NC316763  42.872  28.158   9.417
 1137POPC   PO416764  43.502  28.549   9.602
 1137POPC   GL116765  43.356  28.384   9.212
 1137POPC   GL216766  43.109  28.629   9.161
 1137POPC   C1A16767  43.277  28.360   8.744
 1137POPC   D2A16768  43.001  28.243   8.380
 1137POPC   C3A16769  43.186  28.428   8.001
 1137POPC   C4A16770  43.116  28.305   7.569
 1137POPC   C1B16771  42.859  28.670   8.782
 1137POPC   C2B16772  43.014  28.761   8.388
 1137POPC   C3B16773  42.922  28.870   7.980
 1137POPC   C4B16774  42.722  28.602   7.734
 1138POPC   NC316775  33.851   0.793   9.460
 1138POPC   PO416776  33.735   1.454   9.596
 1138POPC   GL116777  33.553   1.203   9.190
 1138POPC   GL216778  33.457   0.832   9.110
 1138POPC   C1A16779  33.640   1.283   8.723
 1138POPC   D2A16780  34.051   1.123   8.475
 1138POPC   C3A16781  34.028   1.171   8.039
 1138POPC   C4A16782  33.552   1.234   7.974
 1138POPC   C1B16783  33.747   0.801   8.749
 1138POPC   C2B16784  33.617   0.835   8.295
 1138POPC   C3B16785  33.783   0.774   7.848
 1138POPC   C4B16786  34.048   0.770   7.449
 1139POPC   NC316787  11.400  30.448   9.578
 1139POPC   PO416788  10.945  30.856   9.493
 1139POPC   GL116789  11.242  30.759   9.158
 1139POPC   GL216790  11.400  31.093   9.159
 1139POPC   C1A16791  11.336  30.512   8.765
 1139POPC   D2A16792  11.524  30.564   8.324
 1139POPC   C3A16793  11.262  30.466   7.951
 1139POPC   C4A16794  10.913  30.365   7.679
 1139POPC   C1B16795  11.567  30.966   8.755
 1139POPC   C2B16796  11.448  31.072   8.353
 1139POPC   C3B16797  11.563  30.918   7.958
 1139POPC   C4B16798  11.387  31.003   7.581
 1140POPC   NC316799   1.474  10.879   9.393
 1140POPC   PO416800   1.168  11.470   9.434
 1140POPC   GL116801   1.247  11.258   9.068
 1140POPC   GL216802   1.077  10.925   9.048
 1140POPC   C1A16803   1.159  11.451   8.664
 1140POPC   D2A16804   1.009  11.408   8.268
 1140POPC   C3A16805   1.182  11.406   7.851
 1140POPC   C4A16806   1.164  11.466   7.374
 1140POPC   C1B16807   1.138  10.904   8.603
 1140POPC   C2B16808   1.170  10.898   8.179
 1140POPC   C3B16809   1.080  10.897   7.776
 1140POPC   C4B16810   1.215  10.922   7.343
 1141POPC   NC316811  16.326  16.044   9.636
 1141POPC   PO416812  15.964  15.551   9.394
 1141POPC   GL116813  16.019  15.970   9.141
 1141POPC   GL216814  16.351  16.119   9.117
 1141POPC   C1A16815  15.922  16.287   8.797
 1141POPC   D2A16816  15.799  16.410   8.350
 1141POPC   C3A16817  15.894  16.029   8.124
 1141POPC   C4A16818  15.990  15.926   7.690
 1141POPC   C1B16819  16.284  15.927   8.689
 1141POPC   C2B16820  16.365  15.830   8.240
 1141POPC   C3B16821  16.462  16.037   7.829
 1141POPC   C4B16822  16.544  16.136   7.373
 1142POPC   NC316823  34.475  18.645   9.439
 1142POPC   PO416824  34.923  19.153   9.515
 1142POPC   GL116825  34.794  18.994   9.133
 1142POPC   GL216826  34.730  19.328   9.051
 1142POPC   C1A16827  34.588  18.950   8.706
 1142POPC   D2A16828  34.660  18.661   8.329
 1142POPC   C3A16829  34.536  18.799   7.908
 1142POPC   C4A16830  34.109  18.952   7.788
 1142POPC   C1B16831  34.829  19.424   8.654
 1142POPC   C2B16832  34.658  19.395   8.254
 1142POPC   C3B16833  34.839  19.245   7.872
 1142POPC   C4B16834  34.820  19.331   7.402
 1143POPC   NC316835   8.140   2.846   9.512
 1143POPC   PO416836   8.598   2.369   9.418
 1143POPC   GL116837   8.296   2.522   9.115
 1143POPC   GL216838   7.912   2.589   9.152
 1143POPC   C1A16839   8.217   2.630   8.707
 1143POPC   D2A16840   8.385   2.972   8.486
 1143POPC   C3A16841   8.363   2.833   8.075
 1143POPC   C4A16842   8.578   2.896   7.739
 1143POPC   C1B16843   7.926   2.990   8.900
 1143POPC   C2B16844   7.889   3.043   8.453
 1143POPC   C3B16845   7.861   2.798   8.089
 1143POPC   C4B16846   8.041   2.947   7.657
 1144POPC   NC316847   5.798  23.960   9.471
 1144POPC   PO416848   6.368  23.581   9.461
 1144POPC   GL116849   6.074  23.722   9.112
 1144POPC   GL216850   5.675  23.662   9.041
 1144POPC   C1A16851   5.947  24.023   8.809
 1144POPC   D2A16852   5.737  23.901   8.473
 1144POPC   C3A16853   5.992  23.694   8.206
 1144POPC   C4A16854   6.103  23.764   7.782
 1144POPC   C1B16855   5.396  23.482   8.705
 1144POPC   C2B16856   5.535  23.459   8.270
 1144POPC   C3B16857   5.559  23.743   7.926
 1144POPC   C4B16858   5.414  23.722   7.498
 1145POPC   NC316859  44.009  42.868   9.434
 1145POPC   PO416860  43.792  43.535   9.530
 1145POPC   GL116861  43.983  43.350   9.174
 1145POPC   GL216862  43.672  43.180   9.151
 1145POPC   C1A16863  43.901  43.459   8.737
 1145POPC   D2A16864  43.581  43.488   8.412
 1145POPC   C3A16865  43.725  43.352   7.996
 1145POPC   C4A16866  44.037  43.075   7.801
 1145POPC   C1B16867  43.808  42.962   8.806
 1145POPC   C2B16868  43.702  42.992   8.393
 1145POPC   C3B16869  43.663  42.810   8.017
 1145POPC   C4B16870  43.571  42.990   7.617
 1146POPC   NC316871  41.275   6.246   9.430
 1146POPC   PO416872  41.788   5.739   9.500
 1146POPC   GL116873  41.725   6.050   9.214
 1146POPC   GL216874  41.467   5.887   9.101
 1146POPC   C1A16875  41.844   6.158   8.798
 1146POPC   D2A16876  41.794   5.850   8.452
 1146POPC   C3A16877  41.859   6.039   8.079
 1146POPC   C4A16878  41.572   6.026   7.764
 1146POPC   C1B16879  41.367   6.001   8.696
 1146POPC   C2B16880  41.362   6.074   8.252
 1146POPC   C3B16881  41.087   5.956   7.937
 1146POPC   C4B16882  41.090   5.578   7.742
 1147POPC   NC316883  23.157  33.936   9.376
 1147POPC   PO416884  22.521  33.755   9.448
 1147POPC   GL116885  22.785  33.713   9.108
 1147POPC   GL216886  22.968  33.434   9.022
 1147POPC   C1A16887  22.933  33.831   8.717
 1147POPC   D2A16888  23.106  33.639   8.376
 1147POPC   C3A16889  22.933  33.724   8.004
 1147POPC   C4A16890  23.073  33.655   7.624
 1147POPC   C1B16891  22.642  33.372   8.734
 1147POPC   C2B16892  22.683  33.298   8.313
 1147POPC   C3B16893  22.466  33.508   8.001
 1147POPC   C4B16894  22.577  33.491   7.636
 1148POPC   NC316895   6.147  24.735   9.502
 1148POPC   PO416896   5.548  24.386   9.478
 1148POPC   GL116897   5.770  24.432   9.112
 1148POPC   GL216898   6.119  24.369   9.137
 1148POPC   C1A16899   5.847  24.516   8.682
 1148POPC   D2A16900   5.987  24.777   8.341
 1148POPC   C3A16901   5.801  24.675   7.928
 1148POPC   C4A16902   5.985  24.697   7.483
 1148POPC   C1B16903   6.337  24.449   8.762
 1148POPC   C2B16904   6.164  24.254   8.396
 1148POPC   C3B16905   5.966  24.192   8.051
 1148POPC   C4B16906   6.229  24.254   7.699
 1149POPC   NC316907   8.469  20.021   9.274
 1149POPC   PO416908   8.069  19.563   9.648
 1149POPC   GL116909   7.980  19.651   9.205
 1149POPC   GL216910   7.922  19.997   9.210
 1149POPC   C1A16911   8.107  19.784   8.758
 1149POPC   D2A16912   7.966  19.835   8.311
 1149POPC   C3A16913   8.277  19.752   7.986
 1149POPC   C4A16914   8.420  19.688   7.551
 1149POPC   C1B16915   7.921  20.266   8.839
 1149POPC   C2B16916   8.003  20.368   8.394
 1149POPC   C3B16917   7.859  20.259   7.981
 1149POPC   C4B16918   8.036  20.027   7.648
 1150POPC   NC316919  32.670  42.724   9.435
 1150POPC   PO416920  33.147  43.203   9.587
 1150POPC   GL116921  33.111  43.129   9.140
 1150POPC   GL216922  32.807  43.312   9.092
 1150POPC   C1A16923  32.928  42.903   8.792
 1150POPC   D2A16924  32.873  42.752   8.382
 1150POPC   C3A16925  33.001  42.894   7.949
 1150POPC   C4A16926  32.819  42.801   7.513
 1150POPC   C1B16927  32.947  43.387   8.669
 1150POPC   C2B16928  32.848  43.294   8.265
 1150POPC   C3B16929  33.004  43.401   7.903
 1150POPC   C4B16930  32.692  43.468   7.694
 1151POPC   NC316931  26.575   0.833   9.277
 1151POPC   PO416932  26.862   1.522   9.343
 1151POPC   GL116933  26.802   1.254   9.055
 1151POPC   GL216934  26.475   1.277   8.962
 1151POPC   C1A16935  26.922   1.032   8.725
 1151POPC   D2A16936  26.765   1.160   8.352
 1151POPC   C3A16937  26.942   0.977   8.009
 1151POPC   C4A16938  26.813   0.879   7.624
 1151POPC   C1B16939  26.667   1.575   8.676
 1151POPC   C2B16940  26.831   1.647   8.244
 1151POPC   C3B16941  26.705   1.416   7.833
 1151POPC   C4B16942  26.639   1.633   7.384
 1152POPC   NC316943  43.082  38.403   9.426
 1152POPC   PO416944  43.680  38.009   9.492
 1152POPC   GL116945  43.370  38.114   9.105
 1152POPC   GL216946  42.971  38.120   9.032
 1152POPC   C1A16947  43.231  38.443   8.758
 1152POPC   D2A16948  42.954  38.421   8.382
 1152POPC   C3A16949  43.197  38.480   8.017
 1152POPC   C4A16950  43.581  38.341   7.871
 1152POPC   C1B16951  42.755  38.016   8.682
 1152POPC   C2B16952  42.661  38.006   8.261
 1152POPC   C3B16953  42.797  38.192   7.886
 1152POPC   C4B16954  42.869  38.326   7.456
 1153POPC   NC316955  30.836  15.150   9.422
 1153POPC   PO416956  30.409  15.649   9.483
 1153POPC   GL116957  30.452  15.347   9.121
 1153POPC   GL216958  30.380  14.981   9.041
 1153POPC   C1A16959  30.583  15.313   8.693
 1153POPC   D2A16960  30.581  15.542   8.321
 1153POPC   C3A16961  30.446  15.250   8.037
 1153POPC   C4A16962  30.663  15.379   7.715
 1153POPC   C1B16963  30.758  14.830   8.794
 1153POPC   C2B16964  30.980  14.930   8.376
 1153POPC   C3B16965  30.965  15.021   7.917
 1153POPC   C4B16966  30.924  15.005   7.443
 1154POPC   NC316967   5.523  30.254   9.365
 1154POPC   PO416968   6.148  30.113   9.668
 1154POPC   GL116969   5.956  30.141   9.197
 1154POPC   GL216970   6.123  30.332   9.021
 1154POPC   C1A16971   5.641  29.991   8.802
 1154POPC   D2A16972   5.852  29.703   8.497
 1154POPC   C3A16973   5.677  29.754   8.102
 1154POPC   C4A16974   5.703  29.616   7.708
 1154POPC   C1B16975   6.086  30.137   8.664
 1154POPC   C2B16976   5.837  30.197   8.316
 1154POPC   C3B16977   6.002  30.218   7.921
 1154POPC   C4B16978   6.138  29.871   7.711
 1155POPC   NC316979  10.427   6.418   9.274
 1155POPC   PO416980   9.940   6.835   9.552
 1155POPC   GL116981   9.929   6.576   9.175
 1155POPC   GL216982   9.585   6.609   9.016
 1155POPC   C1A16983  10.012   6.436   8.731
 1155POPC   D2A16984   9.850   6.606   8.321
 1155POPC   C3A16985  10.053   6.614   7.909
 1155POPC   C4A16986   9.931   6.943   7.616
 1155POPC   C1B16987   9.505   6.368   8.648
 1155POPC   C2B16988   9.364   6.498   8.218
 1155POPC   C3B16989   9.503   6.696   7.834
 1155POPC   C4B16990   9.290   6.422   7.527
 1156POPC   NC316991   0.816   6.919   9.508
 1156POPC   PO416992   1.434   7.021   9.312
 1156POPC   GL116993   1.131   6.694   9.162
 1156POPC   GL216994   0.984   6.968   9.025
 1156POPC   C1A16995   0.984   6.563   8.739
 1156POPC   D2A16996   1.049   6.772   8.337
 1156POPC   C3A16997   1.040   6.555   7.938
 1156POPC   C4A16998   1.412   6.371   7.695
 1156POPC   C1B16999   1.341   7.061   8.693
 1156POPC   C2B17000   1.334   7.199   8.289
 1156POPC   C3B17001   1.426   6.929   7.963
 1156POPC   C4B17002   1.232   6.853   7.555
 1157POPC   NC317003  12.490  13.871   9.680
 1157POPC   PO417004  11.944  13.438   9.583
 1157POPC   GL117005  11.868  13.462   9.183
 1157POPC   GL217006  12.123  13.744   9.228
 1157POPC   C1A17007  11.904  13.391   8.727
 1157POPC   D2A17008  11.786  13.267   8.292
 1157POPC   C3A17009  11.952  13.556   7.959
 1157POPC   C4A17010  12.009  13.592   7.505
 1157POPC   C1B17011  11.888  13.869   8.879
 1157POPC   C2B17012  11.945  13.837   8.461
 1157POPC   C3B17013  12.020  14.050   8.104
 1157POPC   C4B17014  12.043  14.069   7.676
 1158POPC   NC317015   0.972  23.019   9.444
 1158POPC   PO417016   1.534  23.334   9.372
 1158POPC   GL117017   1.321  23.146   9.047
 1158POPC   GL217018   1.322  22.804   9.117
 1158POPC   C1A17019   1.171  22.991   8.656
 1158POPC   D2A17020   1.261  22.813   8.298
 1158POPC   C3A17021   1.217  23.103   8.025
 1158POPC   C4A17022   1.322  23.117   7.611
 1158POPC   C1B17023   0.976  22.586   8.888
 1158POPC   C2B17024   0.823  22.598   8.487
 1158POPC   C3B17025   0.918  22.490   8.085
 1158POPC   C4B17026   1.062  22.709   7.779
 1159POPC   NC317027   5.831  10.678   9.732
 1159POPC   PO417028   5.586  10.273   9.224
 1159POPC   GL117029   5.912  10.522   9.245
 1159POPC   GL217030   5.755  10.848   9.243
 1159POPC   C1A17031   6.167  10.688   8.918
 1159POPC   D2A17032   6.112  10.842   8.486
 1159POPC   C3A17033   6.038  10.554   8.149
 1159POPC   C4A17034   5.948  10.370   7.757
 1159POPC   C1B17035   5.681  10.883   8.815
 1159POPC   C2B17036   5.595  10.666   8.431
 1159POPC   C3B17037   5.573  10.752   7.992
 1159POPC   C4B17038   5.569  10.660   7.559
 1160POPC   NC317039   0.643  44.132   9.521
 1160POPC   PO417040   0.263  43.587   9.248
 1160POPC   GL117041   0.512  43.907   9.086
 1160POPC   GL217042   0.237  44.152   9.151
 1160POPC   C1A17043   0.611  43.807   8.677
 1160POPC   D2A17044   0.292  43.702   8.411
 1160POPC   C3A17045   0.428  43.635   7.999
 1160POPC   C4A17046   0.191  43.642   7.665
 1160POPC   C1B17047   0.352  44.248   8.702
 1160POPC   C2B17048   0.538  44.163   8.305
 1160POPC   C3B17049   0.756  44.047   7.937
 1160POPC   C4B17050   0.447  44.110   7.656
 1161POPC   NC317051   1.052   2.287   9.582
 1161POPC   PO417052   1.518   1.853   9.441
 1161POPC   GL117053   1.168   1.995   9.171
 1161POPC   GL217054   1.016   1.667   9.079
 1161POPC   C1A17055   0.980   2.203   8.797
 1161POPC   D2A17056   1.233   2.212   8.401
 1161POPC   C3A17057   1.041   2.099   7.991
 1161POPC   C4A17058   1.200   2.118   7.573
 1161POPC   C1B17059   1.129   1.717   8.698
 1161POPC   C2B17060   0.969   1.723   8.329
 1161POPC   C3B17061   1.087   1.553   7.980
 1161POPC   C4B17062   1.024   1.660   7.620
 1162POPC   NC317063  23.967  24.090   9.446
 1162POPC   PO417064  23.874  23.455   9.222
 1162POPC   GL117065  23.597  23.548   8.957
 1162POPC   GL217066  23.657  23.885   9.063
 1162POPC   C1A17067  23.735  23.458   8.561
 1162POPC   D2A17068  23.864  23.701   8.226
 1162POPC   C3A17069  23.697  23.548   7.831
 1162POPC   C4A17070  23.397  23.203   7.711
 1162POPC   C1B17071  23.827  23.974   8.685
 1162POPC   C2B17072  23.607  24.119   8.347
 1162POPC   C3B17073  23.706  24.164   7.952
 1162POPC   C4B17074  23.926  23.995   7.575
 1163POPC   NC317075  21.947  11.058   9.401
 1163POPC   PO417076  22.358  11.628   9.444
 1163POPC   GL117077  22.051  11.494   9.140
 1163POPC   GL217078  22.207  11.177   8.991
 1163POPC   C1A17079  21.846  11.411   8.747
 1163POPC   D2A17080  21.967  11.103   8.442
 1163POPC   C3A17081  21.909  11.246   8.039
 1163POPC   C4A17082  21.962  11.331   7.638
 1163POPC   C1B17083  22.466  11.030   8.672
 1163POPC   C2B17084  22.389  10.776   8.318
 1163POPC   C3B17085  22.179  10.827   7.957
 1163POPC   C4B17086  22.168  10.824   7.529
 1164POPC   NC317087  23.596  42.034   9.720
 1164POPC   PO417088  24.126  42.429   9.518
 1164POPC   GL117089  23.863  42.419   9.181
 1164POPC   GL217090  23.497  42.412   9.224
 1164POPC   C1A17091  23.932  42.510   8.772
 1164POPC   D2A17092  23.727  42.520   8.401
 1164POPC   C3A17093  24.001  42.529   8.041
 1164POPC   C4A17094  23.733  42.408   7.719
 1164POPC   C1B17095  23.335  42.173   8.843
 1164POPC   C2B17096  23.335  42.114   8.408
 1164POPC   C3B17097  23.364  42.303   8.039
 1164POPC   C4B17098  23.293  42.110   7.662
 1165POPC   NC317099  25.505  17.204   9.296
 1165POPC   PO417100  26.038  17.474   9.691
 1165POPC   GL117101  25.950  17.539   9.249
 1165POPC   GL217102  26.205  17.442   9.076
 1165POPC   C1A17103  25.875  17.669   8.792
 1165POPC   D2A17104  25.697  17.526   8.422
 1165POPC   C3A17105  25.836  17.652   8.042
 1165POPC   C4A17106  25.917  17.569   7.638
 1165POPC   C1B17107  26.374  17.376   8.696
 1165POPC   C2B17108  26.240  17.538   8.324
 1165POPC   C3B17109  26.307  17.385   7.923
 1165POPC   C4B17110  26.671  17.276   7.736
 1166POPC   NC317111   6.341  16.434   9.553
 1166POPC   PO417112   5.685  16.566   9.425
 1166POPC   GL117113   6.043  16.729   9.227
 1166POPC   GL217114   6.157  16.415   9.087
 1166POPC   C1A17115   6.048  16.837   8.807
 1166POPC   D2A17116   5.722  16.690   8.520
 1166POPC   C3A17117   5.830  16.908   8.171
 1166POPC   C4A17118   5.668  17.126   7.855
 1166POPC   C1B17119   6.176  16.194   8.704
 1166POPC   C2B17120   5.983  16.308   8.327
 1166POPC   C3B17121   6.071  16.522   7.932
 1166POPC   C4B17122   6.327  16.501   7.554
 1167POPC   NC317123  27.590  27.980   9.567
 1167POPC   PO417124  27.487  27.268   9.487
 1167POPC   GL117125  27.826  27.413   9.200
 1167POPC   GL217126  27.753  27.750   9.145
 1167POPC   C1A17127  27.699  27.454   8.748
 1167POPC   D2A17128  27.586  27.807   8.471
 1167POPC   C3A17129  27.635  27.662   8.072
 1167POPC   C4A17130  27.636  27.486   7.685
 1167POPC   C1B17131  27.316  27.751   8.921
 1167POPC   C2B17132  27.077  27.880   8.543
 1167POPC   C3B17133  27.184  27.983   8.104
 1167POPC   C4B17134  27.382  27.922   7.692
 1168POPC   NC317135  26.075   5.558   9.564
 1168POPC   PO417136  25.642   6.082   9.787
 1168POPC   GL117137  25.682   5.955   9.331
 1168POPC   GL217138  25.661   5.615   9.182
 1168POPC   C1A17139  25.953   5.993   8.943
 1168POPC   D2A17140  26.183   6.199   8.589
 1168POPC   C3A17141  26.207   5.988   8.183
 1168POPC   C4A17142  26.400   6.092   7.790
 1168POPC   C1B17143  25.758   5.517   8.741
 1168POPC   C2B17144  25.879   5.612   8.317
 1168POPC   C3B17145  25.962   5.434   7.905
 1168POPC   C4B17146  25.757   5.636   7.556
 1169POPC   NC317147   6.759  27.889   9.484
 1169POPC   PO417148   6.580  27.211   9.518
 1169POPC   GL117149   6.459  27.465   9.213
 1169POPC   GL217150   6.781  27.569   9.070
 1169POPC   C1A17151   6.370  27.381   8.796
 1169POPC   D2A17152   6.675  27.462   8.471
 1169POPC   C3A17153   6.556  27.648   8.097
 1169POPC   C4A17154   6.694  27.582   7.703
 1169POPC   C1B17155   7.035  27.746   8.745
 1169POPC   C2B17156   6.922  27.910   8.358
 1169POPC   C3B17157   6.876  28.015   7.948
 1169POPC   C4B17158   7.053  27.910   7.563
 1170POPC   NC317159  44.324  28.764   9.496
 1170POPC   PO417160  44.464  29.352   9.491
 1170POPC   GL117161  44.674  29.204   9.094
 1170POPC   GL217162  44.578  28.878   9.085
 1170POPC   C1A17163  44.658  29.077   8.622
 1170POPC   D2A17164  44.371  29.289   8.301
 1170POPC   C3A17165  44.542  29.381   7.915
 1170POPC   C4A17166  44.983  29.318   7.876
 1170POPC   C1B17167  44.263  28.777   8.770
 1170POPC   C2B17168  44.408  28.680   8.362
 1170POPC   C3B17169  44.669  28.909   8.127
 1170POPC   C4B17170  44.732  28.918   7.727
 1171POPC   NC317171  41.019  34.031   9.894
 1171POPC   PO417172  40.760  34.600   9.505
 1171POPC   GL117173  40.779  34.787   9.130
 1171POPC   GL217174  40.944  34.500   8.938
 1171POPC   C1A17175  40.863  34.999   8.784
 1171POPC   D2A17176  40.955  34.765   8.432
 1171POPC   C3A17177  40.830  34.952   8.022
 1171POPC   C4A17178  40.796  34.913   7.567
 1171POPC   C1B17179  40.761  34.273   8.594
 1171POPC   C2B17180  40.575  34.479   8.239
 1171POPC   C3B17181  40.648  34.498   7.830
 1171POPC   C4B17182  40.687  34.406   7.427
 1172POPC   NC317183   7.502  26.297   9.574
 1172POPC   PO417184   7.716  25.622   9.488
 1172POPC   GL117185   7.454  25.881   9.189
 1172POPC   GL217186   7.645  26.179   9.116
 1172POPC   C1A17187   7.353  26.006   8.737
 1172POPC   D2A17188   7.518  26.221   8.380
 1172POPC   C3A17189   7.362  26.085   7.988
 1172POPC   C4A17190   7.326  26.141   7.559
 1172POPC   C1B17191   7.827  25.866   8.850
 1172POPC   C2B17192   7.747  25.722   8.435
 1172POPC   C3B17193   7.827  25.940   8.057
 1172POPC   C4B17194   7.745  25.870   7.633
 1173POPC   NC317195  31.782   1.856   9.459
 1173POPC   PO417196  31.246   2.241   9.321
 1173POPC   GL117197  31.558   2.139   9.100
 1173POPC   GL217198  31.866   2.312   9.209
 1173POPC   C1A17199  31.631   1.853   8.792
 1173POPC   D2A17200  31.695   1.720   8.351
 1173POPC   C3A17201  31.318   1.745   8.068
 1173POPC   C4A17202  31.210   1.998   7.737
 1173POPC   C1B17203  31.837   2.361   8.763
 1173POPC   C2B17204  31.563   2.210   8.420
 1173POPC   C3B17205  31.653   2.136   8.006
 1173POPC   C4B17206  31.700   2.485   7.783
 1174POPC   NC317207  43.764   8.821   9.614
 1174POPC   PO417208  44.364   8.900   9.636
 1174POPC   GL117209  44.075   8.920   9.216
 1174POPC   GL217210  43.715   9.122   9.192
 1174POPC   C1A17211  43.892   8.838   8.786
 1174POPC   D2A17212  43.994   8.599   8.401
 1174POPC   C3A17213  44.065   8.783   8.019
 1174POPC   C4A17214  43.878   8.762   7.687
 1174POPC   C1B17215  43.727   9.327   8.768
 1174POPC   C2B17216  43.943   9.150   8.376
 1174POPC   C3B17217  43.940   9.271   7.944
 1174POPC   C4B17218  43.620   9.223   7.638
 1175POPC   NC317219  13.451   2.730   9.585
 1175POPC   PO417220  13.738   3.235   9.348
 1175POPC   GL117221  13.659   2.856   9.124
 1175POPC   GL217222  13.519   2.500   9.124
 1175POPC   C1A17223  13.748   2.724   8.738
 1175POPC   D2A17224  13.526   2.753   8.422
 1175POPC   C3A17225  13.709   2.594   8.116
 1175POPC   C4A17226  14.032   2.709   7.843
 1175POPC   C1B17227  13.228   2.514   8.773
 1175POPC   C2B17228  13.130   2.389   8.345
 1175POPC   C3B17229  13.192   2.329   7.905
 1175POPC   C4B17230  13.554   2.491   7.661
 1176POPC   NC317231  24.378  13.792   9.532
 1176POPC   PO417232  24.713  13.264   9.611
 1176POPC   GL117233  24.555  13.451   9.196
 1176POPC   GL217234  24.665  13.820   9.108
 1176POPC   C1A17235  24.286  13.599   8.836
 1176POPC   D2A17236  24.203  13.746   8.416
 1176POPC   C3A17237  24.309  13.466   8.080
 1176POPC   C4A17238  24.182  13.556   7.688
 1176POPC   C1B17239  24.611  13.984   8.669
 1176POPC   C2B17240  24.634  13.925   8.215
 1176POPC   C3B17241  24.565  13.867   7.804
 1176POPC   C4B17242  24.808  13.590   7.472
 1177POPC   NC317243  26.387  15.481   9.438
 1177POPC   PO417244  25.721  15.205   9.496
 1177POPC   GL117245  25.809  15.049   9.084
 1177POPC   GL217246  26.168  15.128   9.089
 1177POPC   C1A17247  25.908  15.176   8.651
 1177POPC   D2A17248  26.104  15.389   8.304
 1177POPC   C3A17249  25.858  15.512   7.953
 1177POPC   C4A17250  25.933  15.169   7.692
 1177POPC   C1B17251  26.405  15.117   8.738
 1177POPC   C2B17252  26.492  15.057   8.330
 1177POPC   C3B17253  26.401  15.153   7.900
 1177POPC   C4B17254  26.367  15.208   7.431
 1178POPC   NC317255  14.922  13.286   9.488
 1178POPC   PO417256  14.297  13.533   9.534
 1178POPC   GL117257  14.391  13.643   9.085
 1178POPC   GL217258  14.200  13.930   8.950
 1178POPC   C1A17259  14.428  13.414   8.687
 1178POPC   D2A17260  14.199  13.281   8.304
 1178POPC   C3A17261  14.412  13.408   7.969
 1178POPC   C4A17262  14.440  13.530   7.560
 1178POPC   C1B17263  14.299  13.892   8.544
 1178POPC   C2B17264  14.439  14.148   8.232
 1178POPC   C3B17265  14.356  13.936   7.886
 1178POPC   C4B17266  13.990  13.722   7.949
 1179POPC   NC317267  17.661   3.130   9.520
 1179POPC   PO417268  17.039   2.909   9.510
 1179POPC   GL117269  17.353   2.861   9.146
 1179POPC   GL217270  17.717   2.851   9.077
 1179POPC   C1A17271  17.421   2.673   8.727
 1179POPC   D2A17272  17.704   2.786   8.394
 1179POPC   C3A17273  17.551   2.669   7.996
 1179POPC   C4A17274  17.520   2.843   7.586
 1179POPC   C1B17275  17.879   2.465   8.771
 1179POPC   C2B17276  18.090   2.433   8.358
 1179POPC   C3B17277  18.042   2.660   7.948
 1179POPC   C4B17278  17.839   2.457   7.578
 1180POPC   NC317279  25.388  27.515   9.538
 1180POPC   PO417280  25.793  27.936   9.383
 1180POPC   GL117281  25.465  27.780   9.110
 1180POPC   GL217282  25.465  27.407   9.048
 1180POPC   C1A17283  25.241  27.746   8.727
 1180POPC   D2A17284  25.199  27.539   8.358
 1180POPC   C3A17285  24.901  27.600   8.102
 1180POPC   C4A17286  25.018  27.575   7.685
 1180POPC   C1B17287  25.561  27.160   8.689
 1180POPC   C2B17288  25.464  27.089   8.274
 1180POPC   C3B17289  25.451  27.345   7.952
 1180POPC   C4B17290  25.506  27.516   7.593
 1181POPC   NC317291  42.818   5.844   9.387
 1181POPC   PO417292  43.435   5.857   9.588
 1181POPC   GL117293  43.358   6.011   9.165
 1181POPC   GL217294  43.254   5.684   9.088
 1181POPC   C1A17295  43.281   6.012   8.685
 1181POPC   D2A17296  43.048   5.853   8.300
 1181POPC   C3A17297  43.152   5.924   7.856
 1181POPC   C4A17298  43.489   6.193   7.766
 1181POPC   C1B17299  42.993   5.559   8.753
 1181POPC   C2B17300  42.990   5.344   8.373
 1181POPC   C3B17301  43.153   5.394   7.950
 1181POPC   C4B17302  42.878   5.554   7.620
 1182POPC   NC317303  33.575  19.899   9.370
 1182POPC   PO417304  34.045  19.415   9.437
 1182POPC   GL117305  33.747  19.488   9.099
 1182POPC   GL217306  33.874  19.787   8.975
 1182POPC   C1A17307  33.446  19.636   8.753
 1182POPC   D2A17308  33.461  19.934   8.411
 1182POPC   C3A17309  33.682  19.766   8.042
 1182POPC   C4A17310  33.718  19.856   7.587
 1182POPC   C1B17311  33.864  20.091   8.670
 1182POPC   C2B17312  33.913  20.311   8.336
 1182POPC   C3B17313  33.809  20.249   7.918
 1182POPC   C4B17314  33.957  20.353   7.536
 1183POPC   NC317315  17.752   9.767   9.562
 1183POPC   PO417316  17.963   9.255   9.241
 1183POPC   GL117317  17.694   9.567   9.111
 1183POPC   GL217318  17.352   9.572   9.177
 1183POPC   C1A17319  17.563   9.862   8.805
 1183POPC   D2A17320  17.790   9.980   8.464
 1183POPC   C3A17321  17.546  10.069   8.116
 1183POPC   C4A17322  17.593   9.974   7.675
 1183POPC   C1B17323  17.443   9.338   8.749
 1183POPC   C2B17324  17.725   9.400   8.389
 1183POPC   C3B17325  17.609   9.581   8.004
 1183POPC   C4B17326  17.269   9.581   7.760
 1184POPC   NC317327  14.774  32.482   9.419
 1184POPC   PO417328  14.263  31.988   9.454
 1184POPC   GL117329  14.468  32.148   9.128
 1184POPC   GL217330  14.699  31.919   8.994
 1184POPC   C1A17331  14.210  32.239   8.799
 1184POPC   D2A17332  14.256  32.370   8.420
 1184POPC   C3A17333  14.196  32.172   8.023
 1184POPC   C4A17334  14.136  32.521   7.780
 1184POPC   C1B17335  14.682  32.158   8.611
 1184POPC   C2B17336  14.599  31.983   8.249
 1184POPC   C3B17337  14.716  31.953   7.868
 1184POPC   C4B17338  14.638  32.349   7.680
 1185POPC   NC317339  20.189   8.312   9.761
 1185POPC   PO417340  20.639   7.991   9.440
 1185POPC   GL117341  20.656   7.979   9.059
 1185POPC   GL217342  20.882   7.706   9.013
 1185POPC   C1A17343  20.659   8.321   8.747
 1185POPC   D2A17344  20.566   8.538   8.367
 1185POPC   C3A17345  20.701   8.342   7.979
 1185POPC   C4A17346  20.573   8.440   7.583
 1185POPC   C1B17347  20.959   7.909   8.673
 1185POPC   C2B17348  20.826   7.991   8.320
 1185POPC   C3B17349  21.057   7.946   7.973
 1185POPC   C4B17350  20.977   8.124   7.607
 1186POPC   NC317351  26.544  39.093   9.556
 1186POPC   PO417352  27.050  39.492   9.580
 1186POPC   GL117353  26.948  39.147   9.238
 1186POPC   GL217354  26.655  39.221   9.070
 1186POPC   C1A17355  27.069  39.003   8.795
 1186POPC   D2A17356  26.919  38.882   8.351
 1186POPC   C3A17357  26.952  39.228   8.062
 1186POPC   C4A17358  27.136  39.264   7.674
 1186POPC   C1B17359  26.550  39.007   8.706
 1186POPC   C2B17360  26.499  39.196   8.316
 1186POPC   C3B17361  26.568  39.556   8.107
 1186POPC   C4B17362  26.623  39.431   7.691
 1187POPC   NC317363  41.426  26.702   9.407
 1187POPC   PO417364  41.302  27.199   9.754
 1187POPC   GL117365  41.421  27.179   9.240
 1187POPC   GL217366  41.670  26.954   9.040
 1187POPC   C1A17367  41.260  27.112   8.806
 1187POPC   D2A17368  41.336  26.795   8.509
 1187POPC   C3A17369  41.510  26.846   8.101
 1187POPC   C4A17370  41.388  26.774   7.699
 1187POPC   C1B17371  41.759  26.629   8.792
 1187POPC   C2B17372  42.082  26.508   8.544
 1187POPC   C3B17373  42.066  26.546   8.108
 1187POPC   C4B17374  41.777  26.482   7.825
 1188POPC   NC317375  43.430  37.601   9.491
 1188POPC   PO417376  42.816  37.918   9.462
 1188POPC   GL117377  43.059  37.621   9.136
 1188POPC   GL217378  43.368  37.363   9.059
 1188POPC   C1A17379  43.207  37.753   8.756
 1188POPC   D2A17380  43.072  37.663   8.349
 1188POPC   C3A17381  43.234  37.954   8.087
 1188POPC   C4A17382  43.216  38.006   7.675
 1188POPC   C1B17383  43.170  37.249   8.668
 1188POPC   C2B17384  42.967  37.133   8.311
 1188POPC   C3B17385  43.080  37.305   7.965
 1188POPC   C4B17386  43.420  37.518   7.827
 1189POPC   NC317387  31.798   7.742   9.476
 1189POPC   PO417388  31.558   8.419   9.463
 1189POPC   GL117389  31.463   8.471   9.030
 1189POPC   GL217390  31.125   8.573   9.008
 1189POPC   C1A17391  31.534   8.337   8.601
 1189POPC   D2A17392  31.342   7.963   8.383
 1189POPC   C3A17393  31.595   7.904   8.035
 1189POPC   C4A17394  31.648   8.208   7.695
 1189POPC   C1B17395  31.045   8.282   8.695
 1189POPC   C2B17396  31.047   8.458   8.300
 1189POPC   C3B17397  31.168   8.325   7.915
 1189POPC   C4B17398  31.185   7.964   7.717
 1190POPC   NC317399  25.507  18.770   9.504
 1190POPC   PO417400  24.876  19.092   9.361
 1190POPC   GL117401  25.274  19.087   9.172
 1190POPC   GL217402  25.382  19.419   9.229
 1190POPC   C1A17403  25.362  18.863   8.786
 1190POPC   D2A17404  25.165  18.967   8.409
 1190POPC   C3A17405  25.404  18.873   8.089
 1190POPC   C4A17406  25.379  18.910   7.659
 1190POPC   C1B17407  25.579  19.321   8.830
 1190POPC   C2B17408  25.476  19.388   8.387
 1190POPC   C3B17409  25.332  19.360   7.960
 1190POPC   C4B17410  25.631  19.368   7.613
 1191POPC   NC317411  18.525  17.638   9.619
 1191POPC   PO417412  17.906  17.396   9.536
 1191POPC   GL117413  18.149  17.545   9.164
 1191POPC   GL217414  18.509  17.553   9.119
 1191POPC   C1A17415  18.210  17.399   8.729
 1191POPC   D2A17416  18.396  17.533   8.355
 1191POPC   C3A17417  18.234  17.503   7.951
 1191POPC   C4A17418  18.350  17.323   7.560
 1191POPC   C1B17419  18.735  17.552   8.736
 1191POPC   C2B17420  18.816  17.814   8.360
 1191POPC   C3B17421  18.582  17.864   8.020
 1191POPC   C4B17422  18.481  17.809   7.550
 1192POPC   NC317423  16.464  14.366   9.479
 1192POPC   PO417424  17.100  14.074   9.352
 1192POPC   GL117425  16.837  14.390   9.128
 1192POPC   GL217426  16.468  14.329   8.971
 1192POPC   C1A17427  16.797  14.685   8.798
 1192POPC   D2A17428  16.561  14.620   8.412
 1192POPC   C3A17429  16.687  14.453   8.025
 1192POPC   C4A17430  16.656  14.676   7.624
 1192POPC   C1B17431  16.750  14.182   8.644
 1192POPC   C2B17432  16.787  13.944   8.255
 1192POPC   C3B17433  17.085  14.080   7.973
 1192POPC   C4B17434  16.992  14.312   7.609
 1193POPC   NC317435   7.756  23.197   9.812
 1193POPC   PO417436   7.335  22.663   9.696
 1193POPC   GL117437   7.322  22.680   9.210
 1193POPC   GL217438   6.934  22.636   9.176
 1193POPC   C1A17439   7.504  22.856   8.813
 1193POPC   D2A17440   7.736  22.915   8.449
 1193POPC   C3A17441   7.537  22.930   8.070
 1193POPC   C4A17442   7.749  22.938   7.725
 1193POPC   C1B17443   7.108  22.515   8.778
 1193POPC   C2B17444   7.179  22.759   8.415
 1193POPC   C3B17445   7.017  22.617   8.070
 1193POPC   C4B17446   7.217  22.670   7.709
 1194POPC   NC317447  17.126   5.040   9.449
 1194POPC   PO417448  16.482   4.912   9.576
 1194POPC   GL117449  16.601   5.227   9.257
 1194POPC   GL217450  16.857   5.060   9.019
 1194POPC   C1A17451  16.454   5.316   8.833
 1194POPC   D2A17452  16.621   5.033   8.509
 1194POPC   C3A17453  16.623   5.036   8.056
 1194POPC   C4A17454  16.926   4.943   7.745
 1194POPC   C1B17455  16.967   5.379   8.691
 1194POPC   C2B17456  16.871   5.509   8.260
 1194POPC   C3B17457  16.986   5.432   7.840
 1194POPC   C4B17458  17.104   5.340   7.419
 1195POPC   NC317459  38.447  21.471   9.901
 1195POPC   PO417460  38.777  21.225   9.362
 1195POPC   GL117461  38.492  21.345   9.056
 1195POPC   GL217462  38.669  21.648   8.952
 1195POPC   C1A17463  38.338  21.450   8.653
 1195POPC   D2A17464  38.452  21.307   8.243
 1195POPC   C3A17465  38.139  21.309   7.916
 1195POPC   C4A17466  38.230  21.481   7.495
 1195POPC   C1B17467  38.841  21.348   8.658
 1195POPC   C2B17468  38.930  21.169   8.287
 1195POPC   C3B17469  38.891  21.402   7.955
 1195POPC   C4B17470  38.588  21.189   7.706
 1196POPC   NC317471   5.838   7.555   9.481
 1196POPC   PO417472   6.410   7.120   9.427
 1196POPC   GL117473   6.001   7.079   9.134
 1196POPC   GL217474   5.819   7.423   9.018
 1196POPC   C1A17475   5.747   7.072   8.695
 1196POPC   D2A17476   5.752   7.498   8.512
 1196POPC   C3A17477   5.848   7.535   8.106
 1196POPC   C4A17478   5.628   7.452   7.758
 1196POPC   C1B17479   6.034   7.780   8.858
 1196POPC   C2B17480   6.199   7.755   8.466
 1196POPC   C3B17481   6.289   7.788   8.056
 1196POPC   C4B17482   6.083   7.645   7.652
 1197POPC   NC317483   6.771  14.859   9.568
 1197POPC   PO417484   6.242  15.242   9.501
 1197POPC   GL117485   6.582  15.149   9.185
 1197POPC   GL217486   6.955  15.015   9.127
 1197POPC   C1A17487   6.724  15.352   8.813
 1197POPC   D2A17488   6.540  15.322   8.425
 1197POPC   C3A17489   6.721  15.396   8.037
 1197POPC   C4A17490   6.492  15.122   7.766
 1197POPC   C1B17491   6.733  14.829   8.764
 1197POPC   C2B17492   6.777  14.883   8.313
 1197POPC   C3B17493   6.943  14.942   7.923
 1197POPC   C4B17494   6.773  14.759   7.574
 1198POPC   NC317495  29.606  31.181   9.520
 1198POPC   PO417496  29.905  31.785   9.571
 1198POPC   GL117497  29.946  31.557   9.197
 1198POPC   GL217498  29.997  31.192   9.166
 1198POPC   C1A17499  29.876  31.680   8.792
 1198POPC   D2A17500  29.889  31.521   8.369
 1198POPC   C3A17501  29.880  31.801   8.024
 1198POPC   C4A17502  29.901  31.723   7.589
 1198POPC   C1B17503  30.189  31.268   8.752
 1198POPC   C2B17504  30.102  31.061   8.370
 1198POPC   C3B17505  29.980  31.168   7.949
 1198POPC   C4B17506  30.238  31.347   7.626
 1199POPC   NC317507   4.849  35.674   9.330
 1199POPC   PO417508   5.166  35.093   9.513
 1199POPC   GL117509   5.360  35.186   9.118
 1199POPC   GL217510   5.028  35.334   8.950
 1199POPC   C1A17511   5.475  35.453   8.758
 1199POPC   D2A17512   5.148  35.643   8.506
 1199POPC   C3A17513   5.161  35.527   8.084
 1199POPC   C4A17514   5.098  35.164   7.813
 1199POPC   C1B17515   4.741  35.106   8.644
 1199POPC   C2B17516   4.650  34.918   8.223
 1199POPC   C3B17517   4.626  34.951   7.761
 1199POPC   C4B17518   4.628  35.078   7.314
 1200POPC   NC317519  15.560  10.759   9.435
 1200POPC   PO417520  16.136  10.299   9.644
 1200POPC   GL117521  16.141  10.255   9.169
 1200POPC   GL217522  16.134  10.575   9.014
 1200POPC   C1A17523  15.939  10.208   8.744
 1200POPC   D2A17524  15.791  10.491   8.422
 1200POPC   C3A17525  15.949  10.313   8.056
 1200POPC   C4A17526  16.189  10.404   7.694
 1200POPC   C1B17527  16.160  10.838   8.660
 1200POPC   C2B17528  15.952  10.991   8.307
 1200POPC   C3B17529  15.993  10.825   7.904
 1200POPC   C4B17530  16.392  10.860   7.684
 1201POPC   NC317531  11.278   6.371   9.441
 1201POPC   PO417532  11.629   6.932   9.410
 1201POPC   GL117533  11.340   6.741   9.108
 1201POPC   GL217534  11.537   6.486   9.030
 1201POPC   C1A17535  11.142   6.649   8.692
 1201POPC   D2A17536  10.897   6.502   8.338
 1201POPC   C3A17537  11.086   6.660   7.980
 1201POPC   C4A17538  11.517   6.813   7.875
 1201POPC   C1B17539  11.704   6.480   8.642
 1201POPC   C2B17540  11.445   6.479   8.307
 1201POPC   C3B17541  11.444   6.288   7.946
 1201POPC   C4B17542  11.620   6.368   7.592
 1202POPC   NC317543   7.817  34.544   9.653
 1202POPC   PO417544   8.432  34.418   9.443
 1202POPC   GL117545   8.190  34.419   9.089
 1202POPC   GL217546   7.894  34.620   9.140
 1202POPC   C1A17547   8.248  34.553   8.656
 1202POPC   D2A17548   8.367  34.914   8.354
 1202POPC   C3A17549   8.448  34.724   7.970
 1202POPC   C4A17550   8.343  34.295   7.826
 1202POPC   C1B17551   7.730  34.592   8.718
 1202POPC   C2B17552   7.889  34.652   8.311
 1202POPC   C3B17553   7.944  34.643   7.896
 1202POPC   C4B17554   7.912  34.359   7.574
 1203POPC   NC317555   1.482  29.815   9.470
 1203POPC   PO417556   0.981  30.257   9.498
 1203POPC   GL117557   1.203  30.127   9.166
 1203POPC   GL217558   1.071  29.779   9.128
 1203POPC   C1A17559   1.231  30.084   8.742
 1203POPC   D2A17560   1.250  30.242   8.358
 1203POPC   C3A17561   1.113  29.957   8.056
 1203POPC   C4A17562   1.021  29.961   7.634
 1203POPC   C1B17563   1.369  29.598   8.802
 1203POPC   C2B17564   1.335  29.570   8.329
 1203POPC   C3B17565   1.411  29.577   7.847
 1203POPC   C4B17566   1.097  29.478   7.488
 1204POPC   NC317567  37.797  38.080   9.564
 1204POPC   PO417568  37.380  38.596   9.513
 1204POPC   GL117569  37.661  38.485   9.166
 1204POPC   GL217570  37.888  38.223   9.091
 1204POPC   C1A17571  37.580  38.475   8.726
 1204POPC   D2A17572  37.423  38.265   8.362
 1204POPC   C3A17573  37.578  38.475   7.975
 1204POPC   C4A17574  37.827  38.841   7.788
 1204POPC   C1B17575  38.076  38.344   8.710
 1204POPC   C2B17576  37.956  38.292   8.315
 1204POPC   C3B17577  38.103  38.400   7.907
 1204POPC   C4B17578  37.858  38.220   7.604
 1205POPC   NC317579   0.678  31.342   9.296
 1205POPC   PO417580   1.262  31.210   9.608
 1205POPC   GL117581   1.253  31.313   9.167
 1205POPC   GL217582   1.160  31.647   9.111
 1205POPC   C1A17583   1.487  31.455   8.781
 1205POPC   D2A17584   1.281  31.455   8.392
 1205POPC   C3A17585   1.149  31.168   8.090
 1205POPC   C4A17586   1.077  31.245   7.652
 1205POPC   C1B17587   0.930  31.607   8.738
 1205POPC   C2B17588   0.935  31.820   8.322
 1205POPC   C3B17589   1.149  31.682   7.947
 1205POPC   C4B17590   1.176  31.711   7.489
 1206POPC   NC317591   9.292   4.227   9.476
 1206POPC   PO417592   8.655   4.077   9.233
 1206POPC   GL117593   9.021   4.237   9.043
 1206POPC   GL217594   9.162   4.586   9.112
 1206POPC   C1A17595   8.999   4.201   8.636
 1206POPC   D2A17596   8.887   3.959   8.317
 1206POPC   C3A17597   8.855   4.176   7.944
 1206POPC   C4A17598   8.842   4.558   7.761
 1206POPC   C1B17599   9.351   4.560   8.681
 1206POPC   C2B17600   9.158   4.542   8.256
 1206POPC   C3B17601   9.308   4.416   7.859
 1206POPC   C4B17602   9.277   4.553   7.422
 1207POPC   NC317603  15.597  40.817   9.466
 1207POPC   PO417604  16.217  41.115   9.428
 1207POPC   GL117605  16.016  40.872   9.125
 1207POPC   GL217606  15.895  40.558   9.119
 1207POPC   C1A17607  16.186  40.754   8.745
 1207POPC   D2A17608  16.049  40.947   8.397
 1207POPC   C3A17609  16.161  40.721   8.058
 1207POPC   C4A17610  16.095  40.791   7.667
 1207POPC   C1B17611  15.686  40.616   8.715
 1207POPC   C2B17612  15.544  40.949   8.402
 1207POPC   C3B17613  15.661  40.875   7.962
 1207POPC   C4B17614  15.718  40.443   7.801
 1208POPC   NC317615  30.633  22.592   9.610
 1208POPC   PO417616  30.877  21.990   9.522
 1208POPC   GL117617  30.851  22.056   9.136
 1208POPC   GL217618  30.519  22.221   9.187
 1208POPC   C1A17619  30.665  21.963   8.767
 1208POPC   D2A17620  30.673  22.139   8.370
 1208POPC   C3A17621  30.983  22.005   8.150
 1208POPC   C4A17622  30.841  21.807   7.818
 1208POPC   C1B17623  30.426  22.523   8.858
 1208POPC   C2B17624  30.536  22.611   8.439
 1208POPC   C3B17625  30.407  22.490   8.032
 1208POPC   C4B17626  30.696  22.293   7.775
 1209POPC   NC317627  18.338  42.507   9.626
 1209POPC   PO417628  17.995  41.995   9.553
 1209POPC   GL117629  18.228  42.169   9.197
 1209POPC   GL217630  18.475  42.450   9.162
 1209POPC   C1A17631  18.121  42.339   8.790
 1209POPC   D2A17632  18.289  42.195   8.392
 1209POPC   C3A17633  18.159  42.295   7.999
 1209POPC   C4A17634  18.364  42.445   7.641
 1209POPC   C1B17635  18.613  42.289   8.800
 1209POPC   C2B17636  18.697  42.499   8.455
 1209POPC   C3B17637  18.608  42.520   8.078
 1209POPC   C4B17638  18.721  42.787   7.738
 1210POPC   NC317639   5.674  39.874   9.426
 1210POPC   PO417640   5.672  40.507   9.630
 1210POPC   GL117641   5.886  40.251   9.206
 1210POPC   GL217642   6.083  40.380   8.976
 1210POPC   C1A17643   5.932  39.900   8.812
 1210POPC   D2A17644   6.079  39.954   8.346
 1210POPC   C3A17645   5.864  39.785   7.946
 1210POPC   C4A17646   6.037  39.744   7.526
 1210POPC   C1B17647   5.853  40.353   8.585
 1210POPC   C2B17648   5.974  40.562   8.245
 1210POPC   C3B17649   5.955  40.280   7.971
 1210POPC   C4B17650   5.774  40.177   7.627
 1211POPC   NC317651   8.429  23.851   9.467
 1211POPC   PO417652   8.193  23.170   9.615
 1211POPC   GL117653   8.175  23.467   9.243
 1211POPC   GL217654   8.497  23.456   9.117
 1211POPC   C1A17655   8.096  23.625   8.792
 1211POPC   D2A17656   7.843  23.449   8.407
 1211POPC   C3A17657   7.910  23.596   7.960
 1211POPC   C4A17658   8.084  23.989   7.771
 1211POPC   C1B17659   8.614  23.279   8.751
 1211POPC   C2B17660   8.413  23.388   8.375
 1211POPC   C3B17661   8.441  23.620   7.986
 1211POPC   C4B17662   8.552  23.816   7.581
 1212POPC   NC317663   1.810  15.760   9.593
 1212POPC   PO417664   2.324  16.164   9.307
 1212POPC   GL117665   2.031  16.047   9.019
 1212POPC   GL217666   1.747  16.042   9.181
 1212POPC   C1A17667   2.018  15.707   8.713
 1212POPC   D2A17668   2.213  15.747   8.305
 1212POPC   C3A17669   2.043  15.889   7.920
 1212POPC   C4A17670   2.164  15.792   7.474
 1212POPC   C1B17671   1.565  15.995   8.794
 1212POPC   C2B17672   1.736  15.964   8.379
 1212POPC   C3B17673   1.538  15.788   8.027
 1212POPC   C4B17674   1.674  15.621   7.618
 1213POPC   NC317675  25.869  42.499   9.441
 1213POPC   PO417676  26.310  41.968   9.506
 1213POPC   GL117677  26.198  42.229   9.140
 1213POPC   GL217678  26.302  42.569   9.140
 1213POPC   C1A17679  25.988  42.415   8.762
 1213POPC   D2A17680  25.812  42.528   8.361
 1213POPC   C3A17681  25.825  42.226   8.003
 1213POPC   C4A17682  26.087  42.109   7.652
 1213POPC   C1B17683  26.384  42.748   8.754
 1213POPC   C2B17684  26.416  42.604   8.348
 1213POPC   C3B17685  26.140  42.617   7.979
 1213POPC   C4B17686  26.315  42.566   7.572
 1214POPC   NC317687  42.817  23.470   9.386
 1214POPC   PO417688  43.458  23.634   9.328
 1214POPC   GL117689  43.504  23.956   9.013
 1214POPC   GL217690  43.148  24.016   8.947
 1214POPC   C1A17691  43.476  23.848   8.579
 1214POPC   D2A17692  43.099  23.796   8.330
 1214POPC   C3A17693  43.208  23.700   7.939
 1214POPC   C4A17694  43.095  23.952   7.653
 1214POPC   C1B17695  42.975  23.608   8.787
 1214POPC   C2B17696  42.785  23.384   8.447
 1214POPC   C3B17697  42.759  23.485   8.018
 1214POPC   C4B17698  42.631  23.207   7.755
 1215POPC   NC317699  32.826  41.782   9.733
 1215POPC   PO417700  33.358  41.498   9.459
 1215POPC   GL117701  33.210  41.512   9.067
 1215POPC   GL217702  33.146  41.190   9.020
 1215POPC   C1A17703  33.086  41.761   8.697
 1215POPC   D2A17704  32.882  41.664   8.301
 1215POPC   C3A17705  33.038  41.918   7.950
 1215POPC   C4A17706  33.394  41.844   7.652
 1215POPC   C1B17707  33.117  41.252   8.604
 1215POPC   C2B17708  33.329  41.262   8.257
 1215POPC   C3B17709  33.154  41.432   7.920
 1215POPC   C4B17710  32.973  41.303   7.584
 1216POPC   NC317711  22.080  22.161   9.593
 1216POPC   PO417712  22.501  21.789   9.215
 1216POPC   GL117713  22.378  22.124   9.037
 1216POPC   GL217714  22.076  22.295   9.108
 1216POPC   C1A17715  22.303  22.107   8.632
 1216POPC   D2A17716  22.065  22.369   8.441
 1216POPC   C3A17717  22.209  22.444   8.037
 1216POPC   C4A17718  22.238  22.116   7.713
 1216POPC   C1B17719  21.887  21.938   8.874
 1216POPC   C2B17720  21.750  21.961   8.436
 1216POPC   C3B17721  21.849  21.856   7.992
 1216POPC   C4B17722  21.658  21.898   7.584
 1217POPC   NC317723  17.354   1.517   9.536
 1217POPC   PO417724  17.655   0.935   9.652
 1217POPC   GL117725  17.645   1.181   9.286
 1217POPC   GL217726  17.311   1.080   9.219
 1217POPC   C1A17727  17.692   1.101   8.849
 1217POPC   D2A17728  17.674   0.931   8.445
 1217POPC   C3A17729  17.731   1.214   8.100
 1217POPC   C4A17730  17.621   1.131   7.649
 1217POPC   C1B17731  17.271   1.384   8.891
 1217POPC   C2B17732  17.401   1.412   8.474
 1217POPC   C3B17733  17.213   1.341   8.082
 1217POPC   C4B17734  17.209   1.529   7.692
 1218POPC   NC317735  40.433  23.359   9.389
 1218POPC   PO417736  41.012  22.981   9.488
 1218POPC   GL117737  40.723  22.913   9.149
 1218POPC   GL217738  40.995  23.013   8.959
 1218POPC   C1A17739  40.754  22.670   8.705
 1218POPC   D2A17740  40.641  22.727   8.277
 1218POPC   C3A17741  40.911  22.663   7.905
 1218POPC   C4A17742  40.905  22.578   7.427
 1218POPC   C1B17743  40.655  23.172   8.723
 1218POPC   C2B17744  40.731  23.236   8.313
 1218POPC   C3B17745  40.632  23.098   7.907
 1218POPC   C4B17746  40.854  23.080   7.551
 1219POPC   NC317747  21.191  23.603   9.494
 1219POPC   PO417748  21.700  24.064   9.475
 1219POPC   GL117749  21.430  23.882   9.143
 1219POPC   GL217750  21.545  23.531   9.130
 1219POPC   C1A17751  21.254  23.705   8.732
 1219POPC   D2A17752  21.425  23.697   8.295
 1219POPC   C3A17753  21.253  23.674   7.837
 1219POPC   C4A17754  21.031  23.650   7.417
 1219POPC   C1B17755  21.770  23.456   8.752
 1219POPC   C2B17756  21.849  23.223   8.397
 1219POPC   C3B17757  21.686  23.320   8.021
 1219POPC   C4B17758  21.642  23.375   7.611
 1220POPC   NC317759  12.688  14.714   9.809
 1220POPC   PO417760  13.108  14.282   9.419
 1220POPC   GL117761  13.144  14.280   8.995
 1220POPC   GL217762  12.797  14.282   8.820
 1220POPC   C1A17763  13.178  14.577   8.663
 1220POPC   D2A17764  12.877  14.506   8.329
 1220POPC   C3A17765  12.997  14.423   7.922
 1220POPC   C4A17766  12.907  14.033   7.754
 1220POPC   C1B17767  12.543  14.655   8.710
 1220POPC   C2B17768  12.533  14.870   8.363
 1220POPC   C3B17769  12.399  14.811   8.006
 1220POPC   C4B17770  12.651  14.758   7.657
 1221POPC   NC317771  13.149  15.557   9.532
 1221POPC   PO417772  12.893  16.148   9.349
 1221POPC   GL117773  12.847  15.864   9.079
 1221POPC   GL217774  12.711  15.576   9.270
 1221POPC   C1A17775  12.680  15.981   8.672
 1221POPC   D2A17776  12.728  16.210   8.293
 1221POPC   C3A17777  12.889  16.048   7.928
 1221POPC   C4A17778  12.864  16.260   7.515
 1221POPC   C1B17779  12.705  15.479   8.807
 1221POPC   C2B17780  12.675  15.586   8.357
 1221POPC   C3B17781  12.596  15.631   7.927
 1221POPC   C4B17782  12.788  15.748   7.505
 1222POPC   NC317783  15.856  33.053   9.447
 1222POPC   PO417784  16.500  33.082   9.495
 1222POPC   GL117785  16.230  32.837   9.092
 1222POPC   GL217786  15.853  32.741   9.020
 1222POPC   C1A17787  16.178  32.752   8.624
 1222POPC   D2A17788  16.329  33.136   8.475
 1222POPC   C3A17789  16.176  33.241   8.107
 1222POPC   C4A17790  16.056  33.064   7.713
 1222POPC   C1B17791  15.864  33.117   8.791
 1222POPC   C2B17792  15.779  33.076   8.391
 1222POPC   C3B17793  15.845  32.803   8.083
 1222POPC   C4B17794  15.614  32.784   7.714
 1223POPC   NC317795  25.772  12.894   9.518
 1223POPC   PO417796  25.100  12.823   9.411
 1223POPC   GL117797  25.281  12.799   9.056
 1223POPC   GL217798  25.520  13.052   9.110
 1223POPC   C1A17799  25.142  12.722   8.639
 1223POPC   D2A17800  25.361  12.794   8.284
 1223POPC   C3A17801  25.231  12.596   7.922
 1223POPC   C4A17802  25.516  12.825   7.705
 1223POPC   C1B17803  25.325  13.193   8.748
 1223POPC   C2B17804  25.158  13.281   8.371
 1223POPC   C3B17805  25.127  13.103   7.988
 1223POPC   C4B17806  25.018  13.015   7.638
 1224POPC   NC317807  11.746  28.270   9.550
 1224POPC   PO417808  11.068  28.459   9.615
 1224POPC   GL117809  11.247  28.460   9.194
 1224POPC   GL217810  11.465  28.175   9.155
 1224POPC   C1A17811  11.398  28.473   8.741
 1224POPC   D2A17812  11.143  28.486   8.348
 1224POPC   C3A17813  11.376  28.431   7.989
 1224POPC   C4A17814  11.292  28.608   7.629
 1224POPC   C1B17815  11.173  28.032   8.874
 1224POPC   C2B17816  11.011  28.007   8.476
 1224POPC   C3B17817  11.119  27.998   8.033
 1224POPC   C4B17818  11.266  28.097   7.600
 1225POPC   NC317819  29.310  26.308   9.685
 1225POPC   PO417820  29.091  26.879   9.393
 1225POPC   GL117821  29.201  26.865   8.997
 1225POPC   GL217822  28.836  26.842   8.949
 1225POPC   C1A17823  29.305  26.873   8.588
 1225POPC   D2A17824  29.168  26.710   8.231
 1225POPC   C3A17825  29.309  26.818   7.839
 1225POPC   C4A17826  29.063  26.887   7.455
 1225POPC   C1B17827  28.868  27.183   8.740
 1225POPC   C2B17828  29.019  27.224   8.335
 1225POPC   C3B17829  29.056  27.233   7.926
 1225POPC   C4B17830  28.775  27.265   7.621
 1226POPC   NC317831   4.261  39.359   9.504
 1226POPC   PO417832   4.437  38.708   9.399
 1226POPC   GL117833   4.157  38.965   9.173
 1226POPC   GL217834   4.473  39.140   9.103
 1226POPC   C1A17835   4.094  39.228   8.779
 1226POPC   D2A17836   4.077  39.455   8.367
 1226POPC   C3A17837   4.233  39.273   7.979
 1226POPC   C4A17838   4.027  39.200   7.587
 1226POPC   C1B17839   4.638  39.158   8.712
 1226POPC   C2B17840   4.588  39.363   8.351
 1226POPC   C3B17841   4.766  39.333   7.973
 1226POPC   C4B17842   4.762  39.024   7.648
 1227POPC   NC317843   3.811  42.224   9.519
 1227POPC   PO417844   3.250  42.485   9.444
 1227POPC   GL117845   3.437  42.683   9.081
 1227POPC   GL217846   3.720  42.504   9.108
 1227POPC   C1A17847   3.398  42.591   8.673
 1227POPC   D2A17848   3.339  42.143   8.552
 1227POPC   C3A17849   3.295  42.118   8.104
 1227POPC   C4A17850   3.142  42.439   7.816
 1227POPC   C1B17851   3.786  42.274   8.755
 1227POPC   C2B17852   3.687  42.421   8.303
 1227POPC   C3B17853   3.718  42.295   7.892
 1227POPC   C4B17854   3.869  42.626   7.662
 1228POPC   NC317855   2.500   2.892   9.412
 1228POPC   PO417856   2.991   2.524   9.652
 1228POPC   GL117857   2.917   2.476   9.185
 1228POPC   GL217858   2.583   2.444   9.149
 1228POPC   C1A17859   3.141   2.571   8.780
 1228POPC   D2A17860   3.138   2.924   8.463
 1228POPC   C3A17861   3.006   2.805   8.046
 1228POPC   C4A17862   2.763   2.907   7.721
 1228POPC   C1B17863   2.461   2.625   8.795
 1228POPC   C2B17864   2.720   2.619   8.469
 1228POPC   C3B17865   2.520   2.789   8.178
 1228POPC   C4B17866   2.314   2.672   7.878
 1229POPC   NC317867   0.831  37.702   9.520
 1229POPC   PO417868   0.176  37.869   9.618
 1229POPC   GL117869   0.401  37.896   9.232
 1229POPC   GL217870   0.458  37.565   9.168
 1229POPC   C1A17871   0.307  37.917   8.770
 1229POPC   D2A17872   0.506  37.948   8.364
 1229POPC   C3A17873   0.397  37.884   7.939
 1229POPC   C4A17874   0.358  37.694   7.521
 1229POPC   C1B17875   0.298  37.401   8.761
 1229POPC   C2B17876   0.257  37.498   8.300
 1229POPC   C3B17877   0.452  37.360   7.902
 1229POPC   C4B17878   0.415  37.186   7.461
 1230POPC   NC317879  41.749  25.055   9.503
 1230POPC   PO417880  41.338  25.481   9.812
 1230POPC   GL117881  41.307  25.411   9.335
 1230POPC   GL217882  41.608  25.250   9.074
 1230POPC   C1A17883  41.168  25.396   8.898
 1230POPC   D2A17884  41.415  25.074   8.627
 1230POPC   C3A17885  41.596  25.266   8.234
 1230POPC   C4A17886  41.436  25.151   7.803
 1230POPC   C1B17887  41.920  25.019   8.771
 1230POPC   C2B17888  42.079  24.968   8.315
 1230POPC   C3B17889  41.930  25.093   7.875
 1230POPC   C4B17890  41.771  25.003   7.440
 1231POPC   NC317891  10.380  27.235   9.583
 1231POPC   PO417892  10.935  27.578   9.617
 1231POPC   GL117893  10.637  27.687   9.286
 1231POPC   GL217894  10.378  27.459   9.124
 1231POPC   C1A17895  10.621  27.820   8.851
 1231POPC   D2A17896  10.390  27.720   8.524
 1231POPC   C3A17897  10.661  27.735   8.237
 1231POPC   C4A17898  10.705  27.810   7.845
 1231POPC   C1B17899  10.605  27.310   8.756
 1231POPC   C2B17900  10.492  27.252   8.339
 1231POPC   C3B17901  10.384  27.405   7.940
 1231POPC   C4B17902  10.370  27.250   7.518
 1232POPC   NC317903  40.670   3.586   9.925
 1232POPC   PO417904  41.116   3.307   9.550
 1232POPC   GL117905  40.865   3.440   9.189
 1232POPC   GL217906  40.668   3.154   9.042
 1232POPC   C1A17907  40.871   3.608   8.766
 1232POPC   D2A17908  40.955   3.442   8.342
 1232POPC   C3A17909  40.704   3.584   7.974
 1232POPC   C4A17910  40.732   3.700   7.540
 1232POPC   C1B17911  41.048   3.121   8.758
 1232POPC   C2B17912  41.256   2.986   8.370
 1232POPC   C3B17913  41.317   3.224   8.023
 1232POPC   C4B17914  41.115   3.395   7.687
 1233POPC   NC317915  34.315  27.315   9.561
 1233POPC   PO417916  33.735  27.617   9.740
 1233POPC   GL117917  33.735  27.505   9.275
 1233POPC   GL217918  34.048  27.424   9.129
 1233POPC   C1A17919  33.660  27.591   8.808
 1233POPC   D2A17920  33.832  27.442   8.387
 1233POPC   C3A17921  33.543  27.288   8.073
 1233POPC   C4A17922  33.730  27.562   7.817
 1233POPC   C1B17923  33.973  27.158   8.777
 1233POPC   C2B17924  34.089  26.981   8.357
 1233POPC   C3B17925  34.035  27.143   7.958
 1233POPC   C4B17926  33.818  27.138   7.585
 1234POPC   NC317927  11.857  38.030   9.404
 1234POPC   PO417928  11.802  37.430   9.619
 1234POPC   GL117929  12.197  37.629   9.302
 1234POPC   GL217930  12.151  37.877   9.053
 1234POPC   C1A17931  12.285  37.493   8.791
 1234POPC   D2A17932  12.102  37.471   8.349
 1234POPC   C3A17933  12.369  37.430   7.969
 1234POPC   C4A17934  12.519  37.648   7.571
 1234POPC   C1B17935  11.978  38.086   8.715
 1234POPC   C2B17936  11.846  37.936   8.333
 1234POPC   C3B17937  11.932  37.758   7.955
 1234POPC   C4B17938  11.951  38.181   7.784
 1235POPC   NC317939  40.381  40.826   9.303
 1235POPC   PO417940  41.006  41.011   9.486
 1235POPC   GL117941  40.823  40.941   9.097
 1235POPC   GL217942  40.816  40.665   9.036
 1235POPC   C1A17943  40.767  41.119   8.673
 1235POPC   D2A17944  40.569  41.135   8.281
 1235POPC   C3A17945  40.965  41.056   8.095
 1235POPC   C4A17946  41.227  41.008   7.739
 1235POPC   C1B17947  40.534  40.667   8.708
 1235POPC   C2B17948  40.662  40.598   8.311
 1235POPC   C3B17949  40.587  40.754   7.917
 1235POPC   C4B17950  40.835  40.681   7.580
 1236POPC   NC317951  35.252   0.317   9.335
 1236POPC   PO417952  35.854   0.556   9.460
 1236POPC   GL117953  35.662   0.463   9.090
 1236POPC   GL217954  35.482   0.773   9.036
 1236POPC   C1A17955  35.407   0.339   8.686
 1236POPC   D2A17956  35.171   0.409   8.267
 1236POPC   C3A17957  35.298   0.209   7.874
 1236POPC   C4A17958  35.583   0.269   7.531
 1236POPC   C1B17959  35.805   0.713   8.704
 1236POPC   C2B17960  35.807   0.432   8.364
 1236POPC   C3B17961  35.707   0.548   7.958
 1236POPC   C4B17962  35.399   0.730   7.715
 1237POPC   NC317963  29.323   4.673   9.505
 1237POPC   PO417964  28.959   5.302   9.442
 1237POPC   GL117965  29.100   5.169   9.081
 1237POPC   GL217966  29.427   5.045   9.134
 1237POPC   C1A17967  28.997   5.008   8.690
 1237POPC   D2A17968  29.251   5.121   8.359
 1237POPC   C3A17969  29.051   5.112   7.970
 1237POPC   C4A17970  28.875   5.324   7.612
 1237POPC   C1B17971  29.380   4.712   8.806
 1237POPC   C2B17972  29.232   4.593   8.394
 1237POPC   C3B17973  29.420   4.562   7.998
 1237POPC   C4B17974  29.273   4.764   7.631
 1238POPC   NC317975   6.392  29.420   9.487
 1238POPC   PO417976   6.536  28.799   9.294
 1238POPC   GL117977   6.626  29.164   9.106
 1238POPC   GL217978   6.960  29.351   9.190
 1238POPC   C1A17979   6.454  29.132   8.712
 1238POPC   D2A17980   6.557  28.886   8.340
 1238POPC   C3A17981   6.502  29.103   7.931
 1238POPC   C4A17982   6.465  28.976   7.503
 1238POPC   C1B17983   6.827  29.473   8.761
 1238POPC   C2B17984   6.655  29.406   8.329
 1238POPC   C3B17985   6.932  29.390   7.934
 1238POPC   C4B17986   6.891  29.272   7.528
 1239POPC   NC317987   9.128   5.341   9.586
 1239POPC   PO417988   8.796   4.811   9.530
 1239POPC   GL117989   8.951   5.071   9.198
 1239POPC   GL217990   8.751   5.371   9.204
 1239POPC   C1A17991   9.170   5.041   8.820
 1239POPC   D2A17992   9.006   5.139   8.424
 1239POPC   C3A17993   8.831   4.913   8.126
 1239POPC   C4A17994   9.198   4.918   7.860
 1239POPC   C1B17995   8.480   5.410   8.869
 1239POPC   C2B17996   8.534   5.315   8.437
 1239POPC   C3B17997   8.636   5.397   8.030
 1239POPC   C4B17998   8.710   5.135   7.673
 1240POPC   NC317999  22.814  15.808   9.541
 1240POPC   PO418000  23.283  16.167   9.242
 1240POPC   GL118001  22.847  16.057   9.092
 1240POPC   GL218002  22.788  15.713   9.003
 1240POPC   C1A18003  22.546  16.096   8.750
 1240POPC   D2A18004  22.626  16.211   8.331
 1240POPC   C3A18005  22.577  15.991   7.964
 1240POPC   C4A18006  22.772  16.054   7.502
 1240POPC   C1B18007  22.796  15.669   8.525
 1240POPC   C2B18008  23.115  15.586   8.201
 1240POPC   C3B18009  22.946  15.687   7.805
 1240POPC   C4B18010  22.569  15.591   7.658
 1241POPC   NC318011   5.539  13.117   9.572
 1241POPC   PO418012   6.102  12.739   9.549
 1241POPC   GL118013   5.856  12.812   9.193
 1241POPC   GL218014   5.483  12.776   9.181
 1241POPC   C1A18015   5.818  13.037   8.820
 1241POPC   D2A18016   5.791  12.931   8.416
 1241POPC   C3A18017   5.988  13.197   8.103
 1241POPC   C4A18018   5.973  12.982   7.717
 1241POPC   C1B18019   5.330  12.901   8.787
 1241POPC   C2B18020   5.303  13.107   8.405
 1241POPC   C3B18021   5.507  13.017   8.006
 1241POPC   C4B18022   5.303  13.138   7.675
 1242POPC   NC318023  16.688   1.676   9.513
 1242POPC   PO418024  16.333   2.314   9.435
 1242POPC   GL118025  16.602   2.194   9.080
 1242POPC   GL218026  16.861   1.917   9.078
 1242POPC   C1A18027  16.647   2.061   8.646
 1242POPC   D2A18028  16.426   2.264   8.332
 1242POPC   C3A18029  16.509   2.110   7.948
 1242POPC   C4A18030  16.337   2.132   7.578
 1242POPC   C1B18031  17.125   1.855   8.704
 1242POPC   C2B18032  16.977   1.728   8.318
 1242POPC   C3B18033  16.993   1.935   7.926
 1242POPC   C4B18034  16.883   2.263   7.596
 1243POPC   NC318035  39.634  25.990   9.484
 1243POPC   PO418036  39.018  26.287   9.345
 1243POPC   GL118037  39.298  26.123   9.126
 1243POPC   GL218038  39.196  25.808   9.226
 1243POPC   C1A18039  39.454  26.217   8.732
 1243POPC   D2A18040  39.186  26.408   8.420
 1243POPC   C3A18041  39.361  26.270   8.059
 1243POPC   C4A18042  39.341  26.243   7.660
 1243POPC   C1B18043  39.306  25.710   8.794
 1243POPC   C2B18044  39.318  25.856   8.368
 1243POPC   C3B18045  39.270  25.709   7.929
 1243POPC   C4B18046  39.116  25.803   7.499
 1244POPC   NC318047  30.550   9.576   9.590
 1244POPC   PO418048  30.978  10.015   9.341
 1244POPC   GL118049  30.698   9.910   9.010
 1244POPC   GL218050  30.456   9.626   9.083
 1244POPC   C1A18051  30.739   9.889   8.568
 1244POPC   D2A18052  30.783   9.595   8.236
 1244POPC   C3A18053  30.806   9.810   7.852
 1244POPC   C4A18054  31.085   9.860   7.525
 1244POPC   C1B18055  30.249   9.780   8.717
 1244POPC   C2B18056  30.276  10.086   8.385
 1244POPC   C3B18057  30.359   9.940   8.022
 1244POPC   C4B18058  30.233   9.758   7.673
 1245POPC   NC318059  14.452  20.533   9.689
 1245POPC   PO418060  14.819  21.093   9.545
 1245POPC   GL118061  14.588  20.848   9.249
 1245POPC   GL218062  14.231  20.835   9.318
 1245POPC   C1A18063  14.575  20.493   8.933
 1245POPC   D2A18064  14.686  20.478   8.489
 1245POPC   C3A18065  14.481  20.479   8.124
 1245POPC   C4A18066  14.585  20.464   7.724
 1245POPC   C1B18067  14.236  20.862   8.853
 1245POPC   C2B18068  14.365  20.904   8.401
 1245POPC   C3B18069  14.325  20.940   7.932
 1245POPC   C4B18070  14.324  20.851   7.475
 1246POPC   NC318071  14.913  15.042   9.439
 1246POPC   PO418072  15.276  15.564   9.332
 1246POPC   GL118073  15.303  15.412   8.911
 1246POPC   GL218074  15.072  15.146   8.966
 1246POPC   C1A18075  15.139  15.333   8.485
 1246POPC   D2A18076  14.992  14.993   8.247
 1246POPC   C3A18077  15.350  14.884   7.970
 1246POPC   C4A18078  15.619  15.122   7.770
 1246POPC   C1B18079  14.794  15.502   8.825
 1246POPC   C2B18080  14.661  15.619   8.406
 1246POPC   C3B18081  14.960  15.638   8.082
 1246POPC   C4B18082  15.096  15.307   7.817
 1247POPC   NC318083  42.808  44.303   9.581
 1247POPC   PO418084  43.161  43.735   9.586
 1247POPC   GL118085  43.177  43.822   9.201
 1247POPC   GL218086  42.839  43.903   9.189
 1247POPC   C1A18087  43.214  43.661   8.787
 1247POPC   D2A18088  43.113  43.901   8.423
 1247POPC   C3A18089  43.011  43.665   8.066
 1247POPC   C4A18090  42.953  43.839   7.669
 1247POPC   C1B18091  43.005  44.186   8.865
 1247POPC   C2B18092  42.868  44.401   8.479
 1247POPC   C3B18093  42.838  44.247   8.043
 1247POPC   C4B18094  42.935  44.338   7.583
 1248POPC   NC318095  36.243  41.012   9.420
 1248POPC   PO418096  36.206  40.315   9.426
 1248POPC   GL118097  36.272  40.607   9.099
 1248POPC   GL218098  35.946  40.726   9.036
 1248POPC   C1A18099  36.428  40.629   8.675
 1248POPC   D2A18100  36.269  40.414   8.314
 1248POPC   C3A18101  36.022  40.700   8.093
 1248POPC   C4A18102  36.281  40.745   7.795
 1248POPC   C1B18103  36.121  41.047   8.770
 1248POPC   C2B18104  36.286  41.075   8.370
 1248POPC   C3B18105  36.124  41.205   7.997
 1248POPC   C4B18106  35.926  41.096   7.615
 1249POPC   NC318107  18.936   9.426   9.827
 1249POPC   PO418108  19.507   9.627   9.396
 1249POPC   GL118109  19.330   9.626   9.030
 1249POPC   GL218110  19.029   9.777   9.126
 1249POPC   C1A18111  19.128   9.515   8.673
 1249POPC   D2A18112  19.202   9.709   8.278
 1249POPC   C3A18113  19.127   9.503   7.878
 1249POPC   C4A18114  19.429   9.421   7.501
 1249POPC   C1B18115  19.083  10.014   8.725
 1249POPC   C2B18116  18.811  10.051   8.384
 1249POPC   C3B18117  18.856   9.965   7.987
 1249POPC   C4B18118  19.227  10.072   7.786
 1250POPC   NC318119   4.667   3.478   9.510
 1250POPC   PO418120   5.295   3.560   9.388
 1250POPC   GL118121   5.112   3.651   9.002
 1250POPC   GL218122   5.016   3.355   8.925
 1250POPC   C1A18123   4.884   3.662   8.560
 1250POPC   D2A18124   4.683   3.922   8.251
 1250POPC   C3A18125   4.951   3.835   7.889
 1250POPC   C4A18126   5.194   3.733   7.518
 1250POPC   C1B18127   5.368   3.451   8.612
 1250POPC   C2B18128   5.336   3.666   8.236
 1250POPC   C3B18129   5.251   3.417   7.920
 1250POPC   C4B18130   4.937   3.141   7.836
 1251POPC   NC318131   0.451  10.928   9.441
 1251POPC   PO418132   0.412  11.571   9.480
 1251POPC   GL118133   0.405  11.329   9.139
 1251POPC   GL218134   0.744  11.306   9.164
 1251POPC   C1A18135   0.267  11.386   8.745
 1251POPC   D2A18136   0.479  11.486   8.376
 1251POPC   C3A18137   0.255  11.299   8.077
 1251POPC   C4A18138   0.276  11.522   7.692
 1251POPC   C1B18139   0.735  11.185   8.731
 1251POPC   C2B18140   0.694  11.035   8.293
 1251POPC   C3B18141   0.704  11.249   7.872
 1251POPC   C4B18142   0.778  11.157   7.442
 1252POPC   NC318143  22.900  40.995   9.634
 1252POPC   PO418144  22.663  40.349   9.421
 1252POPC   GL118145  22.727  40.664   9.122
 1252POPC   GL218146  22.999  40.919   9.157
 1252POPC   C1A18147  22.957  40.661   8.731
 1252POPC   D2A18148  22.909  40.847   8.356
 1252POPC   C3A18149  23.188  40.676   8.063
 1252POPC   C4A18150  22.964  40.593   7.720
 1252POPC   C1B18151  23.306  41.115   8.907
 1252POPC   C2B18152  23.351  41.090   8.488
 1252POPC   C3B18153  23.164  41.225   8.119
 1252POPC   C4B18154  23.218  41.045   7.716
 1253POPC   NC318155  41.776  10.156   9.528
 1253POPC   PO418156  41.086  10.197   9.705
 1253POPC   GL118157  41.371  10.223   9.208
 1253POPC   GL218158  41.641  10.438   9.123
 1253POPC   C1A18159  41.318  10.558   8.747
 1253POPC   D2A18160  41.204  10.760   8.340
 1253POPC   C3A18161  41.276  10.472   8.018
 1253POPC   C4A18162  41.409  10.608   7.667
 1253POPC   C1B18163  41.623  10.176   8.747
 1253POPC   C2B18164  41.680  10.400   8.332
 1253POPC   C3B18165  41.861  10.580   7.915
 1253POPC   C4B18166  41.819  10.383   7.461
 1254POPC   NC318167  21.395  35.615   9.538
 1254POPC   PO418168  21.555  35.042   9.305
 1254POPC   GL118169  21.420  35.345   9.080
 1254POPC   GL218170  21.104  35.463   9.064
 1254POPC   C1A18171  21.382  35.192   8.667
 1254POPC   D2A18172  21.713  35.128   8.394
 1254POPC   C3A18173  21.683  35.331   7.985
 1254POPC   C4A18174  21.616  35.028   7.712
 1254POPC   C1B18175  21.274  35.678   8.723
 1254POPC   C2B18176  21.373  35.555   8.321
 1254POPC   C3B18177  21.191  35.385   7.968
 1254POPC   C4B18178  21.356  35.694   7.734
 1255POPC   NC318179  42.109  44.279   9.531
 1255POPC   PO418180  41.492  44.088   9.413
 1255POPC   GL118181  41.727  43.911   9.129
 1255POPC   GL218182  41.940  44.176   9.066
 1255POPC   C1A18183  41.563  43.862   8.737
 1255POPC   D2A18184  41.615  43.638   8.399
 1255POPC   C3A18185  41.461  43.793   8.073
 1255POPC   C4A18186  41.672  43.795   7.746
 1255POPC   C1B18187  41.689  44.353   8.768
 1255POPC   C2B18188  41.724  44.498   8.354
 1255POPC   C3B18189  41.702  44.244   8.013
 1255POPC   C4B18190  41.666  44.283   7.590
 1256POPC   NC318191   0.754  21.671   9.545
 1256POPC   PO418192   0.565  21.002   9.652
 1256POPC   GL118193   0.600  21.179   9.262
 1256POPC   GL218194   0.368  21.455   9.253
 1256POPC   C1A18195   0.649  21.234   8.830
 1256POPC   D2A18196   0.534  21.418   8.430
 1256POPC   C3A18197   0.325  21.191   8.107
 1256POPC   C4A18198   0.472  21.045   7.717
 1256POPC   C1B18199   0.211  21.531   8.836
 1256POPC   C2B18200   0.185  21.777   8.450
 1256POPC   C3B18201   0.214  21.796   8.013
 1256POPC   C4B18202   0.368  21.558   7.682
 1257POPC   NC318203  39.927  22.011   9.434
 1257POPC   PO418204  40.244  22.650   9.475
 1257POPC   GL118205  39.973  22.481   9.152
 1257POPC   GL218206  40.073  22.164   8.989
 1257POPC   C1A18207  39.851  22.555   8.727
 1257POPC   D2A18208  40.160  22.523   8.398
 1257POPC   C3A18209  39.940  22.345   8.065
 1257POPC   C4A18210  39.901  22.125   7.682
 1257POPC   C1B18211  40.256  21.807   8.787
 1257POPC   C2B18212  40.167  21.951   8.361
 1257POPC   C3B18213  40.302  21.942   7.935
 1257POPC   C4B18214  40.202  21.672   7.629
 1258POPC   NC318215  32.155  37.433   9.493
 1258POPC   PO418216  32.543  37.977   9.388
 1258POPC   GL118217  32.229  37.788   9.138
 1258POPC   GL218218  32.372  37.459   9.034
 1258POPC   C1A18219  31.980  37.699   8.794
 1258POPC   D2A18220  32.002  37.772   8.389
 1258POPC   C3A18221  32.281  37.628   8.081
 1258POPC   C4A18222  31.994  37.711   7.759
 1258POPC   C1B18223  32.475  37.677   8.662
 1258POPC   C2B18224  32.720  37.767   8.317
 1258POPC   C3B18225  32.697  38.046   7.967
 1258POPC   C4B18226  32.409  37.978   7.648
 1259POPC   NC318227  33.348  40.263   9.625
 1259POPC   PO418228  33.620  40.832   9.532
 1259POPC   GL118229  33.686  40.702   9.153
 1259POPC   GL218230  33.775  40.356   9.299
 1259POPC   C1A18231  33.915  40.915   8.780
 1259POPC   D2A18232  34.075  40.943   8.337
 1259POPC   C3A18233  33.789  41.027   7.993
 1259POPC   C4A18234  33.757  40.886   7.541
 1259POPC   C1B18235  33.719  40.319   8.850
 1259POPC   C2B18236  33.795  40.515   8.480
 1259POPC   C3B18237  33.905  40.524   8.058
 1259POPC   C4B18238  33.905  40.407   7.656
 1260POPC   NC318239  12.734  29.625   9.421
 1260POPC   PO418240  12.903  30.291   9.581
 1260POPC   GL118241  13.037  30.113   9.200
 1260POPC   GL218242  12.701  30.054   9.091
 1260POPC   C1A18243  13.109  30.102   8.758
 1260POPC   D2A18244  12.847  30.170   8.416
 1260POPC   C3A18245  12.984  30.028   8.025
 1260POPC   C4A18246  12.690  30.144   7.717
 1260POPC   C1B18247  12.736  29.756   8.750
 1260POPC   C2B18248  12.833  29.608   8.326
 1260POPC   C3B18249  12.601  29.671   7.946
 1260POPC   C4B18250  12.693  29.681   7.513
 1261POPC   NC318251  18.803  38.225   9.537
 1261POPC   PO418252  19.423  38.575   9.546
 1261POPC   GL118253  19.198  38.471   9.178
 1261POPC   GL218254  18.862  38.624   9.188
 1261POPC   C1A18255  19.254  38.533   8.739
 1261POPC   D2A18256  19.434  38.377   8.354
 1261POPC   C3A18257  19.264  38.523   7.977
 1261POPC   C4A18258  19.363  38.546   7.546
 1261POPC   C1B18259  18.765  38.385   8.801
 1261POPC   C2B18260  18.909  38.427   8.367
 1261POPC   C3B18261  18.712  38.348   8.013
 1261POPC   C4B18262  18.805  38.522   7.665
 1262POPC   NC318263   0.458  41.806   9.559
 1262POPC   PO418264   0.377  41.182   9.528
 1262POPC   GL118265   0.399  41.466   9.154
 1262POPC   GL218266   0.283  41.190   8.978
 1262POPC   C1A18267   0.367  41.644   8.706
 1262POPC   D2A18268   0.302  41.562   8.242
 1262POPC   C3A18269   0.537  41.641   7.826
 1262POPC   C4A18270   0.617  41.745   7.353
 1262POPC   C1B18271   0.698  41.252   8.783
 1262POPC   C2B18272   0.757  41.353   8.349
 1262POPC   C3B18273   0.718  41.161   7.911
 1262POPC   C4B18274   0.528  41.245   7.481
 1263POPC   NC318275   6.447  35.810   9.460
 1263POPC   PO418276   6.858  36.289   9.567
 1263POPC   GL118277   6.656  36.174   9.150
 1263POPC   GL218278   6.283  36.205   9.110
 1263POPC   C1A18279   6.595  36.260   8.702
 1263POPC   D2A18280   6.594  36.008   8.358
 1263POPC   C3A18281   6.490  36.193   8.020
 1263POPC   C4A18282   6.600  36.183   7.611
 1263POPC   C1B18283   6.171  35.994   8.656
 1263POPC   C2B18284   6.102  35.916   8.206
 1263POPC   C3B18285   6.399  35.719   7.859
 1263POPC   C4B18286   6.408  35.766   7.378
 1264POPC   NC318287  21.523  17.042   9.484
 1264POPC   PO418288  21.479  17.687   9.458
 1264POPC   GL118289  21.303  17.441   9.178
 1264POPC   GL218290  21.614  17.327   9.068
 1264POPC   C1A18291  21.162  17.336   8.759
 1264POPC   D2A18292  21.153  17.585   8.422
 1264POPC   C3A18293  21.054  17.449   8.026
 1264POPC   C4A18294  21.233  17.574   7.623
 1264POPC   C1B18295  21.649  17.206   8.658
 1264POPC   C2B18296  21.443  17.207   8.286
 1264POPC   C3B18297  21.510  17.657   8.062
 1264POPC   C4B18298  21.770  17.766   7.707
 1265POPC   NC318299  18.794  28.178   9.385
 1265POPC   PO418300  19.476  28.271   9.310
 1265POPC   GL118301  19.138  28.435   9.098
 1265POPC   GL218302  19.379  28.515   8.848
 1265POPC   C1A18303  18.877  28.555   8.721
 1265POPC   D2A18304  18.840  28.291   8.330
 1265POPC   C3A18305  18.883  28.458   7.893
 1265POPC   C4A18306  19.196  28.509   7.544
 1265POPC   C1B18307  19.140  28.097   8.726
 1265POPC   C2B18308  19.030  27.816   8.394
 1265POPC   C3B18309  19.070  27.976   7.980
 1265POPC   C4B18310  19.264  28.015   7.591
 1266POPC   NC318311   1.640  43.287   9.381
 1266POPC   PO418312   1.008  42.927   9.348
 1266POPC   GL118313   1.281  43.082   9.076
 1266POPC   GL218314   1.552  42.834   9.117
 1266POPC   C1A18315   1.176  43.327   8.722
 1266POPC   D2A18316   1.086  43.062   8.401
 1266POPC   C3A18317   1.191  43.248   8.045
 1266POPC   C4A18318   1.062  43.126   7.689
 1266POPC   C1B18319   1.608  43.023   8.679
 1266POPC   C2B18320   1.646  43.107   8.246
 1266POPC   C3B18321   1.555  42.968   7.812
 1266POPC   C4B18322   1.477  43.139   7.408
 1267POPC   NC318323  25.731   7.601   9.412
 1267POPC   PO418324  24.994   7.542   9.466
 1267POPC   GL118325  25.100   7.367   9.082
 1267POPC   GL218326  25.442   7.290   9.111
 1267POPC   C1A18327  24.916   7.227   8.729
 1267POPC   D2A18328  24.887   7.371   8.331
 1267POPC   C3A18329  25.005   7.182   7.970
 1267POPC   C4A18330  25.139   7.490   7.724
 1267POPC   C1B18331  25.590   7.460   8.727
 1267POPC   C2B18332  25.595   7.269   8.311
 1267POPC   C3B18333  25.616   7.291   7.851
 1267POPC   C4B18334  25.480   6.983   7.547
 1268POPC   NC318335  23.995   3.948   9.459
 1268POPC   PO418336  23.836   4.561   9.689
 1268POPC   GL118337  23.750   4.396   9.299
 1268POPC   GL218338  23.543   4.685   9.201
 1268POPC   C1A18339  23.667   4.140   8.901
 1268POPC   D2A18340  23.558   4.220   8.466
 1268POPC   C3A18341  23.860   4.174   8.160
 1268POPC   C4A18342  23.677   4.037   7.822
 1268POPC   C1B18343  23.847   4.628   8.866
 1268POPC   C2B18344  23.902   4.618   8.464
 1268POPC   C3B18345  23.668   4.669   8.105
 1268POPC   C4B18346  23.880   4.494   7.733
 1269POPC   NC318347  15.049  24.206   9.388
 1269POPC   PO418348  15.359  24.852   9.417
 1269POPC   GL118349  15.242  24.568   9.082
 1269POPC   GL218350  15.239  24.832   8.822
 1269POPC   C1A18351  15.257  24.261   8.725
 1269POPC   D2A18352  15.261  24.512   8.342
 1269POPC   C3A18353  15.319  24.431   7.921
 1269POPC   C4A18354  15.397  24.352   7.488
 1269POPC   C1B18355  14.875  24.591   8.693
 1269POPC   C2B18356  14.761  24.400   8.331
 1269POPC   C3B18357  14.836  24.341   7.914
 1269POPC   C4B18358  14.927  24.511   7.505
 1270POPC   NC318359  41.367   5.517   9.478
 1270POPC   PO418360  41.717   4.927   9.402
 1270POPC   GL118361  41.551   5.095   9.064
 1270POPC   GL218362  41.691   5.418   9.083
 1270POPC   C1A18363  41.640   4.932   8.663
 1270POPC   D2A18364  41.637   5.128   8.265
 1270POPC   C3A18365  41.745   4.835   7.944
 1270POPC   C4A18366  41.651   4.603   7.578
 1270POPC   C1B18367  41.550   5.456   8.691
 1270POPC   C2B18368  41.316   5.579   8.377
 1270POPC   C3B18369  41.520   5.569   8.013
 1270POPC   C4B18370  41.414   5.180   7.772
 1271POPC   NC318371  15.847  18.357   9.378
 1271POPC   PO418372  15.539  17.777   9.357
 1271POPC   GL118373  15.868  17.919   9.051
 1271POPC   GL218374  16.225  18.053   9.068
 1271POPC   C1A18375  15.935  18.046   8.617
 1271POPC   D2A18376  16.066  18.035   8.172
 1271POPC   C3A18377  15.794  18.207   7.884
 1271POPC   C4A18378  15.707  18.292   7.472
 1271POPC   C1B18379  16.185  18.466   8.799
 1271POPC   C2B18380  16.008  18.526   8.363
 1271POPC   C3B18381  16.196  18.543   7.972
 1271POPC   C4B18382  16.200  18.327   7.619
 1272POPC   NC318383  33.411  27.275   9.610
 1272POPC   PO418384  33.985  26.887   9.452
 1272POPC   GL118385  33.804  26.782   9.062
 1272POPC   GL218386  33.474  26.617   9.134
 1272POPC   C1A18387  34.100  26.632   8.746
 1272POPC   D2A18388  34.226  26.457   8.349
 1272POPC   C3A18389  34.091  26.620   7.938
 1272POPC   C4A18390  33.810  26.657   7.542
 1272POPC   C1B18391  33.599  26.421   8.735
 1272POPC   C2B18392  33.713  26.647   8.392
 1272POPC   C3B18393  33.601  26.711   7.997
 1272POPC   C4B18394  33.416  26.381   7.717
 1273POPC   NC318395   7.330  12.649   9.411
 1273POPC   PO418396   7.309  11.908   9.452
 1273POPC   GL118397   7.326  12.004   9.024
 1273POPC   GL218398   7.376  12.327   9.050
 1273POPC   C1A18399   7.484  12.143   8.598
 1273POPC   D2A18400   7.794  12.010   8.294
 1273POPC   C3A18401   7.568  12.011   7.921
 1273POPC   C4A18402   7.631  12.089   7.461
 1273POPC   C1B18403   7.106  12.484   8.754
 1273POPC   C2B18404   7.009  12.272   8.410
 1273POPC   C3B18405   7.273  12.396   8.110
 1273POPC   C4B18406   7.237  12.328   7.689
 1274POPC   NC318407  19.331  15.770   9.295
 1274POPC   PO418408  19.801  16.095   9.660
 1274POPC   GL118409  19.836  16.012   9.230
 1274POPC   GL218410  19.957  15.645   9.232
 1274POPC   C1A18411  19.692  16.185   8.821
 1274POPC   D2A18412  19.477  16.123   8.439
 1274POPC   C3A18413  19.661  16.207   8.055
 1274POPC   C4A18414  19.529  16.033   7.673
 1274POPC   C1B18415  19.911  15.717   8.805
 1274POPC   C2B18416  19.778  15.686   8.409
 1274POPC   C3B18417  19.679  15.699   8.014
 1274POPC   C4B18418  19.948  15.741   7.663
 1275POPC   NC318419   5.684  31.107   9.434
 1275POPC   PO418420   6.273  31.420   9.514
 1275POPC   GL118421   6.144  31.539   9.118
 1275POPC   GL218422   5.789  31.511   9.088
 1275POPC   C1A18423   6.186  31.643   8.711
 1275POPC   D2A18424   5.882  31.695   8.391
 1275POPC   C3A18425   5.985  31.473   8.035
 1275POPC   C4A18426   5.973  31.360   7.623
 1275POPC   C1B18427   5.512  31.505   8.716
 1275POPC   C2B18428   5.370  31.604   8.286
 1275POPC   C3B18429   5.494  31.519   7.855
 1275POPC   C4B18430   5.527  31.509   7.385
 1276POPC   NC318431  37.700  19.464   9.499
 1276POPC   PO418432  37.888  20.105   9.429
 1276POPC   GL118433  37.894  19.779   9.132
 1276POPC   GL218434  37.579  19.617   9.019
 1276POPC   C1A18435  37.966  19.806   8.716
 1276POPC   D2A18436  37.789  19.871   8.339
 1276POPC   C3A18437  38.038  19.817   7.986
 1276POPC   C4A18438  37.853  19.851   7.615
 1276POPC   C1B18439  37.490  19.993   8.783
 1276POPC   C2B18440  37.340  20.127   8.372
 1276POPC   C3B18441  37.419  19.891   7.988
 1276POPC   C4B18442  37.243  19.676   7.645
 1277POPC   NC318443  33.319  21.301   9.484
 1277POPC   PO418444  32.721  20.997   9.490
 1277POPC   GL118445  32.647  21.098   9.094
 1277POPC   GL218446  32.943  21.336   9.141
 1277POPC   C1A18447  32.819  21.135   8.699
 1277POPC   D2A18448  33.149  21.319   8.442
 1277POPC   C3A18449  33.068  21.228   8.021
 1277POPC   C4A18450  32.860  21.215   7.608
 1277POPC   C1B18451  32.902  21.618   8.840
 1277POPC   C2B18452  32.780  21.683   8.435
 1277POPC   C3B18453  33.039  21.725   8.115
 1277POPC   C4B18454  33.099  21.644   7.715
 1278POPC   NC318455  27.996  36.134   9.427
 1278POPC   PO418456  27.366  35.891   9.468
 1278POPC   GL118457  27.431  36.092   9.070
 1278POPC   GL218458  27.794  36.161   8.978
 1278POPC   C1A18459  27.432  36.134   8.629
 1278POPC   D2A18460  27.242  36.252   8.292
 1278POPC   C3A18461  27.450  36.174   7.920
 1278POPC   C4A18462  27.489  36.177   7.488
 1278POPC   C1B18463  27.840  35.830   8.688
 1278POPC   C2B18464  27.653  35.826   8.292
 1278POPC   C3B18465  27.872  35.811   7.970
 1278POPC   C4B18466  27.955  36.100   7.671
 1279POPC   NC318467  16.938   3.374   9.522
 1279POPC   PO418468  16.485   3.912   9.557
 1279POPC   GL118469  16.589   3.663   9.164
 1279POPC   GL218470  16.692   3.298   9.093
 1279POPC   C1A18471  16.494   3.583   8.717
 1279POPC   D2A18472  16.433   3.209   8.469
 1279POPC   C3A18473  16.597   3.296   8.039
 1279POPC   C4A18474  16.735   3.679   7.783
 1279POPC   C1B18475  17.020   3.477   8.845
 1279POPC   C2B18476  16.932   3.410   8.418
 1279POPC   C3B18477  17.085   3.410   8.018
 1279POPC   C4B18478  16.881   3.241   7.622
 1280POPC   NC318479  14.186  34.195   9.309
 1280POPC   PO418480  14.526  34.610   9.681
 1280POPC   GL118481  14.580  34.520   9.184
 1280POPC   GL218482  14.237  34.615   9.040
 1280POPC   C1A18483  14.600  34.752   8.733
 1280POPC   D2A18484  14.731  34.873   8.328
 1280POPC   C3A18485  14.421  34.812   8.053
 1280POPC   C4A18486  14.486  34.797   7.637
 1280POPC   C1B18487  14.413  34.282   8.727
 1280POPC   C2B18488  14.586  34.372   8.338
 1280POPC   C3B18489  14.403  34.315   7.954
 1280POPC   C4B18490  14.099  34.045   7.858
 1281POPC   NC318491  37.615  22.298   9.387
 1281POPC   PO418492  37.958  21.778   9.457
 1281POPC   GL118493  37.918  21.876   9.047
 1281POPC   GL218494  37.576  21.957   9.018
 1281POPC   C1A18495  37.796  21.673   8.655
 1281POPC   D2A18496  37.497  21.880   8.380
 1281POPC   C3A18497  37.781  22.062   8.107
 1281POPC   C4A18498  38.002  21.812   7.802
 1281POPC   C1B18499  37.686  22.254   8.708
 1281POPC   C2B18500  37.476  22.406   8.355
 1281POPC   C3B18501  37.479  22.501   7.950
 1281POPC   C4B18502  37.264  22.204   7.701
 1282POPC   NC318503  20.330  12.612   9.414
 1282POPC   PO418504  20.820  13.115   9.465
 1282POPC   GL118505  20.699  12.894   9.140
 1282POPC   GL218506  20.386  13.050   9.147
 1282POPC   C1A18507  20.828  12.711   8.750
 1282POPC   D2A18508  20.642  12.722   8.357
 1282POPC   C3A18509  20.864  12.698   7.996
 1282POPC   C4A18510  20.572  12.786   7.674
 1282POPC   C1B18511  20.318  12.779   8.784
 1282POPC   C2B18512  20.141  12.689   8.409
 1282POPC   C3B18513  20.221  12.836   8.043
 1282POPC   C4B18514  19.976  12.883   7.717
 1283POPC   NC318515  43.162  32.823   9.687
 1283POPC   PO418516  43.274  33.329   9.472
 1283POPC   GL118517  43.097  33.057   9.181
 1283POPC   GL218518  43.350  32.817   9.210
 1283POPC   C1A18519  43.171  33.126   8.742
 1283POPC   D2A18520  42.947  33.034   8.364
 1283POPC   C3A18521  43.024  33.157   7.943
 1283POPC   C4A18522  43.027  32.901   7.590
 1283POPC   C1B18523  43.519  32.755   8.815
 1283POPC   C2B18524  43.586  32.993   8.433
 1283POPC   C3B18525  43.433  32.889   8.049
 1283POPC   C4B18526  43.462  32.684   7.692
 1284POPC   NC318527  29.695  20.014   9.468
 1284POPC   PO418528  30.336  19.751   9.412
 1284POPC   GL118529  30.014  19.711   9.092
 1284POPC   GL218530  29.727  19.534   9.231
 1284POPC   C1A18531  30.000  19.986   8.711
 1284POPC   D2A18532  30.216  20.143   8.330
 1284POPC   C3A18533  30.010  19.963   7.955
 1284POPC   C4A18534  29.691  20.149   7.714
 1284POPC   C1B18535  29.551  19.702   8.853
 1284POPC   C2B18536  29.646  19.745   8.429
 1284POPC   C3B18537  29.468  19.833   8.056
 1284POPC   C4B18538  29.660  19.621   7.724
 1285POPC   NC318539  35.880   3.318   9.594
 1285POPC   PO418540  36.451   3.707   9.739
 1285POPC   GL118541  36.313   3.579   9.289
 1285POPC   GL218542  35.951   3.531   9.129
 1285POPC   C1A18543  36.399   3.606   8.825
 1285POPC   D2A18544  36.230   3.708   8.407
 1285POPC   C3A18545  36.470   3.711   8.021
 1285POPC   C4A18546  36.235   3.779   7.655
 1285POPC   C1B18547  35.888   3.246   8.769
 1285POPC   C2B18548  36.045   3.205   8.341
 1285POPC   C3B18549  36.155   3.334   7.920
 1285POPC   C4B18550  35.919   3.389   7.548
 1286POPC   NC318551  40.189   2.722   9.777
 1286POPC   PO418552  39.732   2.395   9.387
 1286POPC   GL118553  39.897   2.803   9.165
 1286POPC   GL218554  40.269   2.790   9.238
 1286POPC   C1A18555  39.740   3.020   8.777
 1286POPC   D2A18556  39.608   2.795   8.376
 1286POPC   C3A18557  39.772   2.931   7.955
 1286POPC   C4A18558  39.812   2.677   7.568
 1286POPC   C1B18559  40.233   2.852   8.774
 1286POPC   C2B18560  40.119   2.966   8.360
 1286POPC   C3B18561  40.314   2.862   7.977
 1286POPC   C4B18562  40.302   2.594   7.637
 1287POPC   NC318563  33.001  37.273   9.451
 1287POPC   PO418564  33.436  36.806   9.620
 1287POPC   GL118565  33.250  36.845   9.242
 1287POPC   GL218566  33.448  37.118   9.146
 1287POPC   C1A18567  33.123  36.672   8.848
 1287POPC   D2A18568  32.987  36.899   8.490
 1287POPC   C3A18569  33.099  36.753   8.084
 1287POPC   C4A18570  32.875  36.815   7.745
 1287POPC   C1B18571  33.421  37.258   8.725
 1287POPC   C2B18572  33.384  37.132   8.298
 1287POPC   C3B18573  33.094  37.250   7.994
 1287POPC   C4B18574  33.196  37.208   7.593
 1288POPC   NC318575   7.022  36.604   9.261
 1288POPC   PO418576   7.373  37.146   9.589
 1288POPC   GL118577   7.352  37.006   9.143
 1288POPC   GL218578   7.679  36.849   9.053
 1288POPC   C1A18579   7.428  37.149   8.721
 1288POPC   D2A18580   7.637  36.990   8.389
 1288POPC   C3A18581   7.544  37.188   8.020
 1288POPC   C4A18582   7.310  37.128   7.655
 1288POPC   C1B18583   7.417  36.646   8.743
 1288POPC   C2B18584   7.371  36.470   8.380
 1288POPC   C3B18585   7.488  36.657   8.028
 1288POPC   C4B18586   7.157  36.701   7.834
 1289POPC   NC318587  39.732   4.242   9.748
 1289POPC   PO418588  39.234   4.074   9.346
 1289POPC   GL118589  39.042   4.199   8.998
 1289POPC   GL218590  38.780   3.935   9.026
 1289POPC   C1A18591  39.291   4.267   8.596
 1289POPC   D2A18592  39.506   4.136   8.209
 1289POPC   C3A18593  39.347   4.378   7.917
 1289POPC   C4A18594  39.487   4.434   7.538
 1289POPC   C1B18595  38.936   3.901   8.603
 1289POPC   C2B18596  38.972   4.134   8.225
 1289POPC   C3B18597  39.072   3.954   7.808
 1289POPC   C4B18598  39.066   3.947   7.354
 1290POPC   NC318599   0.693  22.523   9.601
 1290POPC   PO418600   0.413  21.971   9.459
 1290POPC   GL118601   0.424  21.955   9.069
 1290POPC   GL218602   0.572  22.286   9.027
 1290POPC   C1A18603   0.615  21.883   8.691
 1290POPC   D2A18604   0.514  22.184   8.385
 1290POPC   C3A18605   0.634  22.075   7.983
 1290POPC   C4A18606   0.385  22.122   7.616
 1290POPC   C1B18607   0.386  22.593   8.738
 1290POPC   C2B18608   0.284  22.628   8.294
 1290POPC   C3B18609   0.446  22.578   7.869
 1290POPC   C4B18610   0.516  22.647   7.423
 1291POPC   NC318611   6.196  14.041   9.540
 1291POPC   PO418612   5.761  13.522   9.560
 1291POPC   GL118613   5.898  13.747   9.227
 1291POPC   GL218614   6.013  13.418   9.106
 1291POPC   C1A18615   5.993  13.843   8.816
 1291POPC   D2A18616   6.036  13.977   8.390
 1291POPC   C3A18617   5.947  13.736   8.038
 1291POPC   C4A18618   6.191  13.666   7.674
 1291POPC   C1B18619   5.604  13.491   8.869
 1291POPC   C2B18620   5.643  13.496   8.422
 1291POPC   C3B18621   5.475  13.531   8.010
 1291POPC   C4B18622   5.732  13.426   7.687
 1292POPC   NC318623  16.616  17.763   9.616
 1292POPC   PO418624  16.548  17.144   9.547
 1292POPC   GL118625  16.768  17.327   9.216
 1292POPC   GL218626  16.778  17.658   9.155
 1292POPC   C1A18627  16.824  17.283   8.794
 1292POPC   D2A18628  17.025  17.102   8.477
 1292POPC   C3A18629  16.871  17.123   8.117
 1292POPC   C4A18630  16.943  17.263   7.731
 1292POPC   C1B18631  17.031  17.745   8.795
 1292POPC   C2B18632  16.888  17.610   8.407
 1292POPC   C3B18633  17.071  17.672   8.047
 1292POPC   C4B18634  16.876  17.783   7.708
 1293POPC   NC318635   0.045  24.866   9.624
 1293POPC   PO418636   0.422  24.347   9.480
 1293POPC   GL118637   0.544  24.527   9.151
 1293POPC   GL218638   0.304  24.776   9.185
 1293POPC   C1A18639   0.581  24.371   8.753
 1293POPC   D2A18640   0.826  24.354   8.390
 1293POPC   C3A18641   0.487  24.303   8.081
 1293POPC   C4A18642   0.214  24.499   7.798
 1293POPC   C1B18643   0.169  24.694   8.773
 1293POPC   C2B18644   0.047  24.984   8.503
 1293POPC   C3B18645   0.110  24.931   8.097
 1293POPC   C4B18646   0.120  24.969   7.681
 1294POPC   NC318647  13.324  41.921   9.321
 1294POPC   PO418648  13.858  41.800   9.720
 1294POPC   GL118649  13.607  41.517   9.301
 1294POPC   GL218650  13.800  41.344   9.095
 1294POPC   C1A18651  13.497  41.616   8.782
 1294POPC   D2A18652  13.724  41.734   8.385
 1294POPC   C3A18653  13.480  41.755   8.004
 1294POPC   C4A18654  13.523  41.693   7.572
 1294POPC   C1B18655  13.970  41.417   8.713
 1294POPC   C2B18656  13.909  41.264   8.332
 1294POPC   C3B18657  13.916  41.450   7.947
 1294POPC   C4B18658  13.866  41.291   7.530
 1295POPC   NC318659   2.287  35.795   9.525
 1295POPC   PO418660   1.886  35.335   9.539
 1295POPC   GL118661   1.981  35.490   9.155
 1295POPC   GL218662   1.859  35.844   9.203
 1295POPC   C1A18663   1.839  35.236   8.779
 1295POPC   D2A18664   1.630  35.154   8.346
 1295POPC   C3A18665   1.915  35.116   7.962
 1295POPC   C4A18666   2.344  35.253   7.796
 1295POPC   C1B18667   1.862  35.751   8.744
 1295POPC   C2B18668   2.029  35.513   8.397
 1295POPC   C3B18669   2.071  35.619   7.999
 1295POPC   C4B18670   1.858  35.850   7.727
 1296POPC   NC318671  42.699   8.391   9.398
 1296POPC   PO418672  42.130   8.138   9.476
 1296POPC   GL118673  42.286   8.205   9.127
 1296POPC   GL218674  42.569   7.944   9.153
 1296POPC   C1A18675  42.130   8.102   8.752
 1296POPC   D2A18676  42.337   8.148   8.369
 1296POPC   C3A18677  42.194   8.050   7.993
 1296POPC   C4A18678  42.063   8.212   7.613
 1296POPC   C1B18679  42.664   8.121   8.771
 1296POPC   C2B18680  42.835   8.033   8.381
 1296POPC   C3B18681  42.701   8.225   8.009
 1296POPC   C4B18682  42.567   8.070   7.635
 1297POPC   NC318683   7.060   6.118   9.164
 1297POPC   PO418684   6.787   5.588   9.525
 1297POPC   GL118685   6.685   5.778   9.095
 1297POPC   GL218686   6.368   5.967   9.042
 1297POPC   C1A18687   6.631   5.976   8.637
 1297POPC   D2A18688   6.377   5.949   8.270
 1297POPC   C3A18689   6.708   5.987   7.998
 1297POPC   C4A18690   6.871   5.729   7.643
 1297POPC   C1B18691   6.354   5.570   8.772
 1297POPC   C2B18692   6.548   5.470   8.376
 1297POPC   C3B18693   6.461   5.564   7.915
 1297POPC   C4B18694   6.368   5.719   7.492
 1298POPC   NC318695  18.478  15.633   9.660
 1298POPC   PO418696  18.406  15.013   9.817
 1298POPC   GL118697  18.482  15.143   9.363
 1298POPC   GL218698  18.416  14.857   9.142
 1298POPC   C1A18699  18.412  15.357   8.937
 1298POPC   D2A18700  18.289  15.425   8.486
 1298POPC   C3A18701  18.500  15.284   8.137
 1298POPC   C4A18702  18.569  15.054   7.787
 1298POPC   C1B18703  18.131  14.769   8.838
 1298POPC   C2B18704  18.000  14.852   8.426
 1298POPC   C3B18705  18.106  14.927   8.022
 1298POPC   C4B18706  17.912  14.660   7.757
 1299POPC   NC318707  36.520  22.814   9.768
 1299POPC   PO418708  35.800  22.728   9.513
 1299POPC   GL118709  36.190  22.675   9.158
 1299POPC   GL218710  36.532  22.572   9.279
 1299POPC   C1A18711  36.185  22.861   8.677
 1299POPC   D2A18712  36.366  23.201   8.407
 1299POPC   C3A18713  36.251  23.194   7.966
 1299POPC   C4A18714  36.314  23.004   7.527
 1299POPC   C1B18715  36.585  22.584   8.828
 1299POPC   C2B18716  36.379  22.454   8.453
 1299POPC   C3B18717  36.270  22.670   8.108
 1299POPC   C4B18718  36.301  22.504   7.690
 1300POPC   NC318719  35.336  18.878   9.466
 1300POPC   PO418720  35.780  18.558   9.066
 1300POPC   GL118721  35.441  18.768   8.983
 1300POPC   GL218722  35.582  19.101   9.078
 1300POPC   C1A18723  35.068  18.771   8.737
 1300POPC   D2A18724  35.012  19.015   8.358
 1300POPC   C3A18725  35.070  18.799   7.956
 1300POPC   C4A18726  34.910  18.863   7.538
 1300POPC   C1B18727  35.327  19.213   8.742
 1300POPC   C2B18728  35.536  19.102   8.364
 1300POPC   C3B18729  35.516  19.241   7.943
 1300POPC   C4B18730  35.273  19.235   7.585
 1301POPC   NC318731  39.673  31.334   9.556
 1301POPC   PO418732  39.045  31.408   9.528
 1301POPC   GL118733  39.221  31.300   9.122
 1301POPC   GL218734  39.555  31.084   9.126
 1301POPC   C1A18735  39.189  31.565   8.731
 1301POPC   D2A18736  39.002  31.833   8.429
 1301POPC   C3A18737  38.855  31.698   8.048
 1301POPC   C4A18738  39.083  31.578   7.704
 1301POPC   C1B18739  39.605  31.279   8.729
 1301POPC   C2B18740  39.400  31.261   8.327
 1301POPC   C3B18741  39.492  31.297   7.871
 1301POPC   C4B18742  39.670  31.118   7.513
 1302POPC   NC318743  30.957   5.788   9.245
 1302POPC   PO418744  31.614   5.667   9.459
 1302POPC   GL118745  31.519   5.872   9.072
 1302POPC   GL218746  31.446   6.220   9.152
 1302POPC   C1A18747  31.287   5.984   8.696
 1302POPC   D2A18748  31.197   5.812   8.308
 1302POPC   C3A18749  31.432   5.591   8.020
 1302POPC   C4A18750  31.229   5.636   7.637
 1302POPC   C1B18751  31.700   6.279   8.764
 1302POPC   C2B18752  31.573   6.269   8.324
 1302POPC   C3B18753  31.502   6.092   7.914
 1302POPC   C4B18754  31.830   6.091   7.589
 1303POPC   NC318755   7.016  24.690   9.440
 1303POPC   PO418756   6.425  24.335   9.532
 1303POPC   GL118757   6.650  24.393   9.186
 1303POPC   GL218758   6.560  24.742   9.165
 1303POPC   C1A18759   6.848  24.438   8.810
 1303POPC   D2A18760   6.838  24.617   8.407
 1303POPC   C3A18761   6.600  24.408   8.064
 1303POPC   C4A18762   6.822  24.335   7.687
 1303POPC   C1B18763   6.599  24.928   8.764
 1303POPC   C2B18764   6.502  24.981   8.314
 1303POPC   C3B18765   6.724  24.880   7.908
 1303POPC   C4B18766   6.479  24.673   7.570
 1304POPC   NC318767  13.960  43.189   9.509
 1304POPC   PO418768  14.592  43.375   9.464
 1304POPC   GL118769  14.431  43.024   9.201
 1304POPC   GL218770  14.738  42.969   8.993
 1304POPC   C1A18771  14.289  42.902   8.778
 1304POPC   D2A18772  14.421  43.145   8.429
 1304POPC   C3A18773  14.459  43.021   8.030
 1304POPC   C4A18774  14.359  43.211   7.633
 1304POPC   C1B18775  14.692  43.407   8.784
 1304POPC   C2B18776  14.503  43.681   8.433
 1304POPC   C3B18777  14.330  43.613   7.997
 1304POPC   C4B18778  14.454  43.712   7.550
 1305POPC   NC318779  15.386  20.078   9.461
 1305POPC   PO418780  15.177  19.601   9.734
 1305POPC   GL118781  15.087  19.778   9.201
 1305POPC   GL218782  15.165  20.098   9.024
 1305POPC   C1A18783  15.198  19.669   8.739
 1305POPC   D2A18784  15.418  19.779   8.376
 1305POPC   C3A18785  15.161  19.620   8.074
 1305POPC   C4A18786  15.131  19.490   7.687
 1305POPC   C1B18787  14.869  20.073   8.728
 1305POPC   C2B18788  14.984  20.070   8.314
 1305POPC   C3B18789  15.278  20.107   7.997
 1305POPC   C4B18790  14.987  19.985   7.745
 1306POPC   NC318791   0.258  14.136   9.637
 1306POPC   PO418792   0.667  14.614   9.412
 1306POPC   GL118793   0.605  14.283   9.071
 1306POPC   GL218794   0.328  14.045   9.160
 1306POPC   C1A18795   0.517  14.399   8.623
 1306POPC   D2A18796   0.111  14.604   8.440
 1306POPC   C3A18797   0.189  14.765   8.018
 1306POPC   C4A18798   0.462  14.562   7.727
 1306POPC   C1B18799   0.094  14.188   8.834
 1306POPC   C2B18800   0.193  14.040   8.440
 1306POPC   C3B18801   0.276  14.224   8.089
 1306POPC   C4B18802   0.394  14.054   7.711
 1307POPC   NC318803  12.824  28.628   9.407
 1307POPC   PO418804  12.567  28.088   9.739
 1307POPC   GL118805  12.638  28.153   9.232
 1307POPC   GL218806  12.940  28.346   8.995
 1307POPC   C1A18807  12.493  28.259   8.784
 1307POPC   D2A18808  12.846  28.197   8.468
 1307POPC   C3A18809  12.729  28.200   8.033
 1307POPC   C4A18810  12.824  28.246   7.602
 1307POPC   C1B18811  12.800  28.682   8.707
 1307POPC   C2B18812  12.657  28.641   8.269
 1307POPC   C3B18813  12.812  28.737   7.876
 1307POPC   C4B18814  12.723  28.736   7.438
 1308POPC   NC318815   0.816   3.508   9.702
 1308POPC   PO418816   1.449   3.661   9.507
 1308POPC   GL118817   1.252   3.534   9.140
 1308POPC   GL218818   0.916   3.523   9.196
 1308POPC   C1A18819   1.180   3.748   8.751
 1308POPC   D2A18820   1.296   3.695   8.332
 1308POPC   C3A18821   1.047   3.875   8.048
 1308POPC   C4A18822   0.900   3.889   7.653
 1308POPC   C1B18823   0.933   3.302   8.798
 1308POPC   C2B18824   1.190   3.200   8.413
 1308POPC   C3B18825   1.214   3.322   7.937
 1308POPC   C4B18826   1.005   3.084   7.567
 1309POPC   NC318827  17.700  28.154   9.508
 1309POPC   PO418828  17.065  28.268   9.269
 1309POPC   GL118829  17.433  28.452   9.079
 1309POPC   GL218830  17.769  28.379   9.060
 1309POPC   C1A18831  17.463  28.603   8.708
 1309POPC   D2A18832  17.498  28.332   8.397
 1309POPC   C3A18833  17.553  28.534   8.029
 1309POPC   C4A18834  17.377  28.250   7.794
 1309POPC   C1B18835  17.970  28.211   8.707
 1309POPC   C2B18836  17.961  28.187   8.270
 1309POPC   C3B18837  17.924  28.226   7.848
 1309POPC   C4B18838  17.886  28.324   7.415
 1310POPC   NC318839   6.126   2.645   9.443
 1310POPC   PO418840   5.541   2.906   9.486
 1310POPC   GL118841   5.787   3.040   9.157
 1310POPC   GL218842   5.549   3.281   9.042
 1310POPC   C1A18843   5.917   2.971   8.749
 1310POPC   D2A18844   5.751   3.079   8.352
 1310POPC   C3A18845   6.041   3.059   7.996
 1310POPC   C4A18846   6.212   2.814   7.646
 1310POPC   C1B18847   5.393   2.944   8.754
 1310POPC   C2B18848   5.552   2.613   8.499
 1310POPC   C3B18849   5.694   2.626   8.091
 1310POPC   C4B18850   5.769   2.589   7.670
 1311POPC   NC318851  44.724  16.835   9.572
 1311POPC   PO418852  44.875  16.237   9.443
 1311POPC   GL118853  44.681  16.517   9.128
 1311POPC   GL218854  44.522  16.888   9.124
 1311POPC   C1A18855  44.852  16.602   8.708
 1311POPC   D2A18856  44.876  16.430   8.257
 1311POPC   C3A18857  44.934  16.721   7.924
 1311POPC   C4A18858  44.597  16.627   7.639
 1311POPC   C1B18859  44.512  17.028   8.719
 1311POPC   C2B18860  44.619  16.871   8.323
 1311POPC   C3B18861  44.504  17.019   7.947
 1311POPC   C4B18862  44.730  17.118   7.636
 1312POPC   NC318863  32.534  15.360   9.332
 1312POPC   PO418864  32.087  14.850   9.487
 1312POPC   GL118865  32.211  14.943   9.045
 1312POPC   GL218866  32.422  15.180   8.889
 1312POPC   C1A18867  32.000  15.091   8.649
 1312POPC   D2A18868  32.071  15.430   8.373
 1312POPC   C3A18869  31.901  15.288   8.009
 1312POPC   C4A18870  31.958  14.966   7.739
 1312POPC   C1B18871  32.622  14.897   8.715
 1312POPC   C2B18872  32.708  14.855   8.317
 1312POPC   C3B18873  32.564  15.064   7.947
 1312POPC   C4B18874  32.527  14.906   7.552
 1313POPC   NC318875   7.864  30.996   9.349
 1313POPC   PO418876   7.242  31.334   9.492
 1313POPC   GL118877   7.445  31.200   9.132
 1313POPC   GL218878   7.733  31.439   9.109
 1313POPC   C1A18879   7.438  31.080   8.712
 1313POPC   D2A18880   7.584  31.324   8.373
 1313POPC   C3A18881   7.329  31.296   8.016
 1313POPC   C4A18882   7.211  31.198   7.626
 1313POPC   C1B18883   7.427  31.604   8.804
 1313POPC   C2B18884   7.460  31.847   8.444
 1313POPC   C3B18885   7.571  31.758   8.034
 1313POPC   C4B18886   7.217  31.723   7.760
 1314POPC   NC318887  19.449   8.592   9.597
 1314POPC   PO418888  19.057   8.139   9.442
 1314POPC   GL118889  18.880   8.020   9.044
 1314POPC   GL218890  19.183   8.173   8.940
 1314POPC   C1A18891  18.774   8.141   8.637
 1314POPC   D2A18892  19.184   8.211   8.428
 1314POPC   C3A18893  19.146   8.152   8.014
 1314POPC   C4A18894  19.340   7.913   7.725
 1314POPC   C1B18895  19.421   8.537   8.796
 1314POPC   C2B18896  19.492   8.744   8.397
 1314POPC   C3B18897  19.457   8.579   7.994
 1314POPC   C4B18898  19.315   8.415   7.584
 1315POPC   NC318899  32.391   3.709   9.325
 1315POPC   PO418900  32.135   4.300   9.632
 1315POPC   GL118901  32.303   4.227   9.257
 1315POPC   GL218902  32.371   4.545   9.121
 1315POPC   C1A18903  32.179   4.136   8.852
 1315POPC   D2A18904  32.370   4.045   8.498
 1315POPC   C3A18905  32.289   4.115   8.096
 1315POPC   C4A18906  32.525   3.850   7.821
 1315POPC   C1B18907  32.329   4.607   8.715
 1315POPC   C2B18908  32.560   4.535   8.388
 1315POPC   C3B18909  32.429   4.612   8.037
 1315POPC   C4B18910  32.450   4.424   7.703
 1316POPC   NC318911  35.835  14.934   9.305
 1316POPC   PO418912  35.159  15.091   9.509
 1316POPC   GL118913  35.278  15.096   9.078
 1316POPC   GL218914  35.624  15.172   8.913
 1316POPC   C1A18915  35.171  15.153   8.652
 1316POPC   D2A18916  35.380  15.395   8.367
 1316POPC   C3A18917  35.254  15.263   7.990
 1316POPC   C4A18918  35.274  15.257   7.578
 1316POPC   C1B18919  35.503  14.762   8.708
 1316POPC   C2B18920  35.384  14.623   8.279
 1316POPC   C3B18921  35.400  14.797   7.834
 1316POPC   C4B18922  35.242  14.785   7.389
 1317POPC   NC318923   7.083  16.524   9.205
 1317POPC   PO418924   6.633  16.818   9.624
 1317POPC   GL118925   6.588  16.749   9.196
 1317POPC   GL218926   6.812  17.033   9.170
 1317POPC   C1A18927   6.516  16.582   8.758
 1317POPC   D2A18928   6.301  16.701   8.363
 1317POPC   C3A18929   6.577  16.615   7.990
 1317POPC   C4A18930   6.996  16.600   7.801
 1317POPC   C1B18931   6.581  17.077   8.777
 1317POPC   C2B18932   6.747  16.949   8.373
 1317POPC   C3B18933   6.687  17.114   7.975
 1317POPC   C4B18934   6.817  17.026   7.575
 1318POPC   NC318935  25.794   0.115   9.408
 1318POPC   PO418936  26.018   0.683   9.630
 1318POPC   GL118937  26.110   0.506   9.248
 1318POPC   GL218938  25.791   0.632   9.105
 1318POPC   C1A18939  26.225   0.456   8.817
 1318POPC   D2A18940  26.138   0.284   8.405
 1318POPC   C3A18941  26.153   0.609   8.093
 1318POPC   C4A18942  26.363   0.681   7.700
 1318POPC   C1B18943  25.724   0.302   8.782
 1318POPC   C2B18944  25.586   0.225   8.356
 1318POPC   C3B18945  25.817   0.251   7.987
 1318POPC   C4B18946  25.898   0.487   7.645
 1319POPC   NC318947  20.880   9.887   9.693
 1319POPC   PO418948  20.459   9.401   9.603
 1319POPC   GL118949  20.533   9.659   9.277
 1319POPC   GL218950  20.539  10.021   9.249
 1319POPC   C1A18951  20.563   9.615   8.827
 1319POPC   D2A18952  20.434   9.764   8.404
 1319POPC   C3A18953  20.440   9.512   8.041
 1319POPC   C4A18954  20.692   9.617   7.685
 1319POPC   C1B18955  20.458  10.111   8.781
 1319POPC   C2B18956  20.693  10.224   8.387
 1319POPC   C3B18957  20.581  10.084   7.953
 1319POPC   C4B18958  20.626  10.124   7.474
 1320POPC   NC318959  23.548  25.720   9.461
 1320POPC   PO418960  23.967  25.171   9.490
 1320POPC   GL118961  24.085  25.295   9.083
 1320POPC   GL218962  23.988  25.639   9.051
 1320POPC   C1A18963  23.996  25.252   8.664
 1320POPC   D2A18964  23.628  25.181   8.427
 1320POPC   C3A18965  23.625  25.391   8.057
 1320POPC   C4A18966  23.481  25.171   7.743
 1320POPC   C1B18967  23.581  25.540   8.807
 1320POPC   C2B18968  23.348  25.713   8.433
 1320POPC   C3B18969  23.323  25.832   7.998
 1320POPC   C4B18970  23.582  25.702   7.653
 1321POPC   NC318971  42.753  29.782   9.381
 1321POPC   PO418972  43.361  30.140   9.476
 1321POPC   GL118973  43.221  29.816   9.172
 1321POPC   GL218974  43.010  30.064   8.999
 1321POPC   C1A18975  43.138  29.657   8.744
 1321POPC   D2A18976  43.140  30.023   8.457
 1321POPC   C3A18977  43.230  29.869   8.085
 1321POPC   C4A18978  43.009  29.782   7.734
 1321POPC   C1B18979  42.695  29.906   8.685
 1321POPC   C2B18980  42.664  29.835   8.236
 1321POPC   C3B18981  42.518  29.730   7.831
 1321POPC   C4B18982  42.688  29.555   7.444
 1322POPC   NC318983   1.567   0.710   9.333
 1322POPC   PO418984   1.250   0.176   9.528
 1322POPC   GL118985   1.058   0.298   9.149
 1322POPC   GL218986   1.400   0.333   9.006
 1322POPC   C1A18987   0.989   0.290   8.709
 1322POPC   D2A18988   1.233   0.327   8.330
 1322POPC   C3A18989   1.043   0.399   7.892
 1322POPC   C4A18990   1.157   0.267   7.472
 1322POPC   C1B18991   1.356   0.686   8.715
 1322POPC   C2B18992   1.515   0.838   8.365
 1322POPC   C3B18993   1.439   0.673   8.010
 1322POPC   C4B18994   1.359   0.761   7.586
 1323POPC   NC318995   7.929  36.652   9.562
 1323POPC   PO418996   8.333  36.110   9.463
 1323POPC   GL118997   8.295  36.353   9.116
 1323POPC   GL218998   7.948  36.372   9.138
 1323POPC   C1A18999   8.384  36.207   8.719
 1323POPC   D2A19000   8.144  36.091   8.383
 1323POPC   C3A19001   8.348  36.102   7.985
 1323POPC   C4A19002   7.980  35.982   7.724
 1323POPC   C1B19003   7.948  36.554   8.755
 1323POPC   C2B19004   7.871  36.530   8.364
 1323POPC   C3B19005   7.955  36.423   7.982
 1323POPC   C4B19006   8.080  36.509   7.574
 1324POPC   NC319007   4.866  12.472   9.568
 1324POPC   PO419008   4.731  11.842   9.461
 1324POPC   GL119009   4.847  12.049   9.134
 1324POPC   GL219010   5.183  12.072   9.091
 1324POPC   C1A19011   4.834  12.058   8.719
 1324POPC   D2A19012   5.080  11.994   8.426
 1324POPC   C3A19013   5.024  12.267   8.159
 1324POPC   C4A19014   4.862  12.142   7.807
 1324POPC   C1B19015   5.445  11.919   8.774
 1324POPC   C2B19016   5.576  12.108   8.391
 1324POPC   C3B19017   5.446  12.048   7.970
 1324POPC   C4B19018   5.336  12.130   7.539
 1325POPC   NC319019  32.024  23.501   9.360
 1325POPC   PO419020  32.141  22.918   9.714
 1325POPC   GL119021  32.054  22.976   9.283
 1325POPC   GL219022  32.379  23.144   9.210
 1325POPC   C1A19023  32.161  22.775   8.868
 1325POPC   D2A19024  32.416  22.765   8.497
 1325POPC   C3A19025  32.237  22.838   8.113
 1325POPC   C4A19026  32.126  22.842   7.672
 1325POPC   C1B19027  32.414  23.254   8.779
 1325POPC   C2B19028  32.255  23.339   8.370
 1325POPC   C3B19029  32.414  23.327   7.952
 1325POPC   C4B19030  32.508  23.348   7.527
 1326POPC   NC319031   6.850   6.921   9.468
 1326POPC   PO419032   6.649   6.230   9.396
 1326POPC   GL119033   6.755   6.536   9.109
 1326POPC   GL219034   6.548   6.816   9.055
 1326POPC   C1A19035   6.684   6.506   8.677
 1326POPC   D2A19036   6.325   6.419   8.432
 1326POPC   C3A19037   6.482   6.469   8.033
 1326POPC   C4A19038   6.881   6.474   7.823
 1326POPC   C1B19039   6.659   7.026   8.682
 1326POPC   C2B19040   6.613   6.975   8.244
 1326POPC   C3B19041   6.693   6.956   7.805
 1326POPC   C4B19042   7.086   6.845   7.536
 1327POPC   NC319043  38.051  11.034   9.404
 1327POPC   PO419044  38.549  11.451   9.476
 1327POPC   GL119045  38.344  11.336   9.108
 1327POPC   GL219046  38.044  11.488   9.096
 1327POPC   C1A19047  38.268  11.149   8.719
 1327POPC   D2A19048  38.539  11.259   8.391
 1327POPC   C3A19049  38.348  11.232   7.995
 1327POPC   C4A19050  38.551  11.299   7.624
 1327POPC   C1B19051  38.186  11.671   8.722
 1327POPC   C2B19052  38.334  11.726   8.310
 1327POPC   C3B19053  38.073  11.652   7.948
 1327POPC   C4B19054  38.151  11.628   7.533
 1328POPC   NC319055   3.350  11.393   9.305
 1328POPC   PO419056   2.706  11.159   9.483
 1328POPC   GL119057   2.624  11.263   9.093
 1328POPC   GL219058   2.750  11.621   9.082
 1328POPC   C1A19059   2.576  11.057   8.699
 1328POPC   D2A19060   2.690  11.116   8.300
 1328POPC   C3A19061   2.485  11.219   7.928
 1328POPC   C4A19062   2.498  11.594   7.656
 1328POPC   C1B19063   2.918  11.453   8.718
 1328POPC   C2B19064   3.095  11.422   8.326
 1328POPC   C3B19065   2.922  11.526   7.972
 1328POPC   C4B19066   3.144  11.517   7.639
 1329POPC   NC319067  36.880   8.894   9.654
 1329POPC   PO419068  36.508   9.386   9.373
 1329POPC   GL119069  36.798   9.090   9.192
 1329POPC   GL219070  37.102   8.943   9.181
 1329POPC   C1A19071  37.029   9.181   8.756
 1329POPC   D2A19072  36.968   8.972   8.359
 1329POPC   C3A19073  37.179   9.094   8.014
 1329POPC   C4A19074  36.995   9.388   7.743
 1329POPC   C1B19075  36.784   8.744   8.843
 1329POPC   C2B19076  36.838   8.492   8.451
 1329POPC   C3B19077  36.602   8.682   8.114
 1329POPC   C4B19078  36.710   8.975   7.825
 1330POPC   NC319079  12.012   8.773   9.715
 1330POPC   PO419080  11.870   8.132   9.467
 1330POPC   GL119081  12.089   8.381   9.184
 1330POPC   GL219082  12.181   8.096   8.995
 1330POPC   C1A19083  12.232   8.511   8.746
 1330POPC   D2A19084  12.361   8.170   8.464
 1330POPC   C3A19085  12.306   8.363   8.092
 1330POPC   C4A19086  12.200   8.380   7.694
 1330POPC   C1B19087  11.948   7.854   8.673
 1330POPC   C2B19088  11.785   7.785   8.261
 1330POPC   C3B19089  11.908   8.039   7.928
 1330POPC   C4B19090  11.966   7.981   7.463
 1331POPC   NC319091   4.555  24.939   9.456
 1331POPC   PO419092   5.206  25.326   9.473
 1331POPC   GL119093   5.121  25.341   9.077
 1331POPC   GL219094   5.086  24.999   9.092
 1331POPC   C1A19095   5.254  25.284   8.663
 1331POPC   D2A19096   5.071  25.140   8.289
 1331POPC   C3A19097   5.158  25.407   7.964
 1331POPC   C4A19098   4.840  25.533   7.663
 1331POPC   C1B19099   5.034  24.805   8.726
 1331POPC   C2B19100   4.694  24.770   8.484
 1331POPC   C3B19101   4.739  24.789   8.072
 1331POPC   C4B19102   4.880  25.033   7.741
 1332POPC   NC319103  31.635  32.739   9.232
 1332POPC   PO419104  31.159  33.241   9.452
 1332POPC   GL119105  31.282  33.173   9.069
 1332POPC   GL219106  31.603  33.248   9.051
 1332POPC   C1A19107  31.226  33.156   8.633
 1332POPC   D2A19108  31.363  33.326   8.266
 1332POPC   C3A19109  31.422  32.984   7.982
 1332POPC   C4A19110  31.348  32.823   7.530
 1332POPC   C1B19111  31.732  33.228   8.665
 1332POPC   C2B19112  31.841  33.072   8.287
 1332POPC   C3B19113  31.956  33.278   7.928
 1332POPC   C4B19114  31.745  33.100   7.614
 1333POPC   NC319115  19.946  36.007   9.602
 1333POPC   PO419116  19.665  36.535   9.328
 1333POPC   GL119117  19.968  36.248   9.154
 1333POPC   GL219118  19.873  35.881   9.115
 1333POPC   C1A19119  19.856  36.225   8.738
 1333POPC   D2A19120  19.523  36.153   8.476
 1333POPC   C3A19121  19.693  36.231   8.064
 1333POPC   C4A19122  19.518  36.049   7.711
 1333POPC   C1B19123  19.849  35.709   8.710
 1333POPC   C2B19124  19.887  35.800   8.293
 1333POPC   C3B19125  20.119  35.950   7.956
 1333POPC   C4B19126  20.070  36.027   7.533
 1334POPC   NC319127   8.844  18.627   9.499
 1334POPC   PO419128   8.979  17.956   9.607
 1334POPC   GL119129   8.873  18.049   9.172
 1334POPC   GL219130   8.561  17.956   9.062
 1334POPC   C1A19131   8.939  18.088   8.714
 1334POPC   D2A19132   8.824  18.125   8.290
 1334POPC   C3A19133   9.137  17.973   8.001
 1334POPC   C4A19134   9.418  18.233   7.706
 1334POPC   C1B19135   8.565  18.396   8.880
 1334POPC   C2B19136   8.686  18.590   8.487
 1334POPC   C3B19137   8.964  18.612   8.158
 1334POPC   C4B19138   8.906  18.376   7.814
 1335POPC   NC319139  29.304  37.267   9.177
 1335POPC   PO419140  29.209  37.764   9.587
 1335POPC   GL119141  29.202  37.882   9.146
 1335POPC   GL219142  28.852  37.905   9.099
 1335POPC   C1A19143  29.207  37.763   8.720
 1335POPC   D2A19144  29.066  37.519   8.408
 1335POPC   C3A19145  29.356  37.610   8.115
 1335POPC   C4A19146  29.350  37.733   7.709
 1335POPC   C1B19147  28.689  37.714   8.746
 1335POPC   C2B19148  28.696  37.880   8.341
 1335POPC   C3B19149  28.876  37.706   7.956
 1335POPC   C4B19150  28.906  37.564   7.521
 1336POPC   NC319151  15.010  38.612   9.438
 1336POPC   PO419152  15.404  38.085   9.448
 1336POPC   GL119153  15.478  38.326   9.101
 1336POPC   GL219154  15.492  38.663   9.217
 1336POPC   C1A19155  15.228  38.290   8.750
 1336POPC   D2A19156  14.877  38.248   8.486
 1336POPC   C3A19157  15.064  38.184   8.121
 1336POPC   C4A19158  14.991  38.379   7.710
 1336POPC   C1B19159  15.326  38.779   8.820
 1336POPC   C2B19160  15.103  38.730   8.444
 1336POPC   C3B19161  15.233  38.677   8.066
 1336POPC   C4B19162  15.423  38.806   7.708
 1337POPC   NC319163  13.875  30.942   9.416
 1337POPC   PO419164  13.831  30.350   9.793
 1337POPC   GL119165  13.546  30.638   9.205
 1337POPC   GL219166  13.410  30.958   9.137
 1337POPC   C1A19167  13.502  30.541   8.722
 1337POPC   D2A19168  13.791  30.694   8.366
 1337POPC   C3A19169  13.761  30.486   7.974
 1337POPC   C4A19170  13.398  30.288   7.830
 1337POPC   C1B19171  13.582  31.033   8.740
 1337POPC   C2B19172  13.408  31.040   8.340
 1337POPC   C3B19173  13.422  30.868   7.934
 1337POPC   C4B19174  13.193  30.885   7.572
 1338POPC   NC319175  22.836  10.605   9.432
 1338POPC   PO419176  22.538  10.062   9.199
 1338POPC   GL119177  22.837  10.361   8.973
 1338POPC   GL219178  23.200  10.455   9.113
 1338POPC   C1A19179  22.826  10.672   8.646
 1338POPC   D2A19180  22.859  10.963   8.300
 1338POPC   C3A19181  22.720  10.813   7.894
 1338POPC   C4A19182  22.994  10.915   7.549
 1338POPC   C1B19183  23.288  10.491   8.691
 1338POPC   C2B19184  23.092  10.432   8.253
 1338POPC   C3B19185  23.080  10.440   7.775
 1338POPC   C4B19186  23.198  10.193   7.329
 1339POPC   NC319187  13.598  23.946   9.467
 1339POPC   PO419188  13.818  23.266   9.456
 1339POPC   GL119189  13.823  23.529   9.084
 1339POPC   GL219190  13.863  23.888   9.043
 1339POPC   C1A19191  13.803  23.560   8.639
 1339POPC   D2A19192  13.660  23.524   8.217
 1339POPC   C3A19193  13.897  23.488   7.780
 1339POPC   C4A19194  14.011  23.351   7.361
 1339POPC   C1B19195  13.729  24.075   8.641
 1339POPC   C2B19196  13.731  24.140   8.197
 1339POPC   C3B19197  13.623  23.887   7.874
 1339POPC   C4B19198  13.384  23.496   7.757
 1340POPC   NC319199  33.861  18.321   9.605
 1340POPC   PO419200  33.801  17.667   9.600
 1340POPC   GL119201  33.658  18.020   9.237
 1340POPC   GL219202  33.760  18.392   9.136
 1340POPC   C1A19203  33.838  18.048   8.780
 1340POPC   D2A19204  33.640  18.000   8.372
 1340POPC   C3A19205  33.801  18.116   8.000
 1340POPC   C4A19206  33.795  18.047   7.586
 1340POPC   C1B19207  33.802  18.584   8.778
 1340POPC   C2B19208  33.679  18.519   8.374
 1340POPC   C3B19209  33.755  18.618   7.949
 1340POPC   C4B19210  33.792  18.590   7.489
 1341POPC   NC319211  27.498  20.061   9.561
 1341POPC   PO419212  27.958  19.643   9.291
 1341POPC   GL119213  27.639  19.903   9.093
 1341POPC   GL219214  27.449  19.710   8.973
 1341POPC   C1A19215  27.565  20.115   8.694
 1341POPC   D2A19216  27.686  20.028   8.265
 1341POPC   C3A19217  27.376  19.977   7.889
 1341POPC   C4A19218  27.553  20.175   7.543
 1341POPC   C1B19219  27.623  19.616   8.613
 1341POPC   C2B19220  27.314  19.673   8.317
 1341POPC   C3B19221  27.627  19.572   8.033
 1341POPC   C4B19222  27.721  19.690   7.611
 1342POPC   NC319223  39.936  17.665   9.575
 1342POPC   PO419224  40.433  17.862   9.266
 1342POPC   GL119225  40.135  17.591   9.084
 1342POPC   GL219226  39.930  17.872   9.102
 1342POPC   C1A19227  40.059  17.315   8.691
 1342POPC   D2A19228  40.103  17.378   8.218
 1342POPC   C3A19229  40.175  17.045   7.891
 1342POPC   C4A19230  40.316  17.213   7.497
 1342POPC   C1B19231  40.109  17.887   8.674
 1342POPC   C2B19232  39.795  17.689   8.476
 1342POPC   C3B19233  39.681  17.612   8.071
 1342POPC   C4B19234  39.941  17.488   7.737
 1343POPC   NC319235  26.601  30.879   9.502
 1343POPC   PO419236  25.989  30.547   9.419
 1343POPC   GL119237  25.957  30.800   9.083
 1343POPC   GL219238  26.289  30.930   9.104
 1343POPC   C1A19239  25.961  30.638   8.721
 1343POPC   D2A19240  25.993  30.401   8.387
 1343POPC   C3A19241  25.729  30.609   8.143
 1343POPC   C4A19242  25.787  30.791   7.771
 1343POPC   C1B19243  26.301  31.090   8.708
 1343POPC   C2B19244  26.087  30.970   8.359
 1343POPC   C3B19245  26.228  30.722   8.068
 1343POPC   C4B19246  26.265  30.936   7.726
 1344POPC   NC319247  16.172  36.380   9.484
 1344POPC   PO419248  15.726  36.896   9.443
 1344POPC   GL119249  15.960  36.796   9.090
 1344POPC   GL219250  16.260  36.592   9.027
 1344POPC   C1A19251  15.833  36.983   8.726
 1344POPC   D2A19252  15.585  37.009   8.378
 1344POPC   C3A19253  15.796  37.223   8.087
 1344POPC   C4A19254  15.817  37.077   7.698
 1344POPC   C1B19255  16.355  37.005   8.803
 1344POPC   C2B19256  16.196  37.090   8.391
 1344POPC   C3B19257  16.070  36.786   8.084
 1344POPC   C4B19258  16.257  36.781   7.697
 1345POPC   NC319259  11.866  12.268   9.533
 1345POPC   PO419260  12.353  11.786   9.665
 1345POPC   GL119261  12.138  11.899   9.230
 1345POPC   GL219262  11.942  12.188   9.066
 1345POPC   C1A19263  12.215  11.909   8.753
 1345POPC   D2A19264  12.177  11.710   8.360
 1345POPC   C3A19265  12.158  11.951   7.977
 1345POPC   C4A19266  12.293  11.775   7.567
 1345POPC   C1B19267  11.687  11.959   8.859
 1345POPC   C2B19268  11.775  12.012   8.465
 1345POPC   C3B19269  11.658  12.235   8.092
 1345POPC   C4B19270  11.876  12.288   7.707
 1346POPC   NC319271  21.373  28.202   9.540
 1346POPC   PO419272  21.471  28.896   9.496
 1346POPC   GL119273  21.544  28.537   9.156
 1346POPC   GL219274  21.592  28.131   9.079
 1346POPC   C1A19275  21.454  28.446   8.729
 1346POPC   D2A19276  21.407  28.684   8.409
 1346POPC   C3A19277  21.538  28.559   8.063
 1346POPC   C4A19278  21.379  28.679   7.693
 1346POPC   C1B19279  21.411  27.888   8.757
 1346POPC   C2B19280  21.625  27.803   8.378
 1346POPC   C3B19281  21.621  28.055   7.981
 1346POPC   C4B19282  21.245  28.169   7.771
 1347POPC   NC319283  36.827  25.186   9.666
 1347POPC   PO419284  37.128  25.714   9.554
 1347POPC   GL119285  36.828  25.482   9.240
 1347POPC   GL219286  36.941  25.114   9.138
 1347POPC   C1A19287  36.606  25.366   8.853
 1347POPC   D2A19288  36.766  25.112   8.537
 1347POPC   C3A19289  36.810  25.275   8.131
 1347POPC   C4A19290  36.777  25.460   7.709
 1347POPC   C1B19291  37.161  25.353   8.791
 1347POPC   C2B19292  37.328  25.443   8.353
 1347POPC   C3B19293  37.259  25.439   7.916
 1347POPC   C4B19294  37.097  25.037   7.786
 1348POPC   NC319295   1.555  39.225   9.621
 1348POPC   PO419296   0.965  39.460   9.369
 1348POPC   GL119297   1.296  39.271   9.138
 1348POPC   GL219298   1.094  38.922   9.078
 1348POPC   C1A19299   1.448  39.516   8.747
 1348POPC   D2A19300   1.242  39.705   8.358
 1348POPC   C3A19301   1.376  39.566   7.956
 1348POPC   C4A19302   1.383  39.169   7.767
 1348POPC   C1B19303   1.312  39.035   8.690
 1348POPC   C2B19304   1.281  39.179   8.283
 1348POPC   C3B19305   0.948  39.193   8.003
 1348POPC   C4B19306   0.762  38.894   7.747
 1349POPC   NC319307  26.582  32.551   9.540
 1349POPC   PO419308  27.026  32.051   9.707
 1349POPC   GL119309  27.011  32.033   9.227
 1349POPC   GL219310  26.647  31.954   9.198
 1349POPC   C1A19311  27.024  32.253   8.801
 1349POPC   D2A19312  27.192  32.434   8.382
 1349POPC   C3A19313  26.972  32.338   7.967
 1349POPC   C4A19314  27.015  32.405   7.511
 1349POPC   C1B19315  26.526  32.118   8.772
 1349POPC   C2B19316  26.675  32.299   8.388
 1349POPC   C3B19317  26.526  32.074   8.043
 1349POPC   C4B19318  26.549  32.159   7.647
 1350POPC   NC319319  33.870   6.256   9.521
 1350POPC   PO419320  34.243   5.743   9.518
 1350POPC   GL119321  33.989   5.927   9.158
 1350POPC   GL219322  33.615   5.911   9.222
 1350POPC   C1A19323  33.841   5.972   8.748
 1350POPC   D2A19324  34.041   5.876   8.373
 1350POPC   C3A19325  33.803   5.992   8.034
 1350POPC   C4A19326  34.004   5.956   7.624
 1350POPC   C1B19327  33.484   5.633   8.892
 1350POPC   C2B19328  33.474   5.763   8.453
 1350POPC   C3B19329  33.385   5.643   8.048
 1350POPC   C4B19330  33.487   5.406   7.698
 1351POPC   NC319331  14.339  40.644   9.581
 1351POPC   PO419332  14.524  41.296   9.352
 1351POPC   GL119333  14.576  40.871   9.159
 1351POPC   GL219334  14.258  40.661   9.085
 1351POPC   C1A19335  14.636  40.692   8.750
 1351POPC   D2A19336  14.768  40.551   8.372
 1351POPC   C3A19337  14.661  40.754   7.986
 1351POPC   C4A19338  14.890  40.455   7.761
 1351POPC   C1B19339  14.154  40.491   8.690
 1351POPC   C2B19340  14.260  40.610   8.280
 1351POPC   C3B19341  14.402  40.317   7.960
 1351POPC   C4B19342  14.244  40.194   7.575
 1352POPC   NC319343  16.579  24.649   9.453
 1352POPC   PO419344  17.029  24.157   9.452
 1352POPC   GL119345  16.765  24.289   9.133
 1352POPC   GL219346  17.046  24.192   8.937
 1352POPC   C1A19347  16.710  24.584   8.762
 1352POPC   D2A19348  16.437  24.604   8.379
 1352POPC   C3A19349  16.575  24.735   7.941
 1352POPC   C4A19350  16.857  24.664   7.556
 1352POPC   C1B19351  17.021  24.236   8.505
 1352POPC   C2B19352  16.961  24.553   8.250
 1352POPC   C3B19353  16.839  24.299   7.919
 1352POPC   C4B19354  16.658  23.891   7.846
 1353POPC   NC319355   9.848  38.753   9.327
 1353POPC   PO419356   9.542  38.390   9.845
 1353POPC   GL119357   9.659  38.303   9.331
 1353POPC   GL219358   9.941  38.102   9.148
 1353POPC   C1A19359   9.600  38.332   8.829
 1353POPC   D2A19360   9.779  38.541   8.467
 1353POPC   C3A19361   9.685  38.525   8.024
 1353POPC   C4A19362   9.576  38.333   7.631
 1353POPC   C1B19363  10.135  38.263   8.729
 1353POPC   C2B19364  10.067  38.174   8.263
 1353POPC   C3B19365  10.074  38.260   7.810
 1353POPC   C4B19366  10.181  38.102   7.400
 1354POPC   NC319367   2.449  18.400   9.501
 1354POPC   PO419368   3.083  18.127   9.296
 1354POPC   GL119369   2.679  18.230   9.081
 1354POPC   GL219370   2.551  18.590   9.057
 1354POPC   C1A19371   2.532  18.242   8.671
 1354POPC   D2A19372   2.769  18.223   8.303
 1354POPC   C3A19373   2.512  18.322   7.949
 1354POPC   C4A19374   2.470  18.184   7.520
 1354POPC   C1B19375   2.660  18.848   8.708
 1354POPC   C2B19376   2.888  18.884   8.318
 1354POPC   C3B19377   2.982  18.565   7.985
 1354POPC   C4B19378   2.815  18.531   7.593
 1355POPC   NC319379  21.528  10.774   9.841
 1355POPC   PO419380  21.582  10.148   9.581
 1355POPC   GL119381  21.624  10.371   9.145
 1355POPC   GL219382  21.627  10.030   9.043
 1355POPC   C1A19383  21.549  10.687   8.743
 1355POPC   D2A19384  21.492  10.876   8.291
 1355POPC   C3A19385  21.368  10.630   7.908
 1355POPC   C4A19386  21.443  10.462   7.493
 1355POPC   C1B19387  21.396  10.181   8.685
 1355POPC   C2B19388  21.547  10.232   8.288
 1355POPC   C3B19389  21.429  10.127   7.893
 1355POPC   C4B19390  21.080  10.123   7.670
 1356POPC   NC319391  22.199  35.765   9.313
 1356POPC   PO419392  21.983  35.318   9.767
 1356POPC   GL119393  21.954  35.333   9.276
 1356POPC   GL219394  22.258  35.328   9.067
 1356POPC   C1A19395  21.825  35.450   8.816
 1356POPC   D2A19396  21.894  35.634   8.396
 1356POPC   C3A19397  22.131  35.338   8.177
 1356POPC   C4A19398  22.121  35.141   7.757
 1356POPC   C1B19399  22.320  35.502   8.669
 1356POPC   C2B19400  22.495  35.663   8.300
 1356POPC   C3B19401  22.357  35.727   7.877
 1356POPC   C4B19402  22.189  35.604   7.479
 1357POPC   NC319403  33.218  22.174   9.666
 1357POPC   PO419404  33.919  22.281   9.623
 1357POPC   GL119405  33.864  22.267   9.170
 1357POPC   GL219406  34.049  22.007   9.031
 1357POPC   C1A19407  33.657  22.184   8.746
 1357POPC   D2A19408  33.757  22.159   8.339
 1357POPC   C3A19409  33.575  22.379   8.023
 1357POPC   C4A19410  33.652  22.296   7.612
 1357POPC   C1B19411  33.924  21.747   8.699
 1357POPC   C2B19412  33.994  21.706   8.257
 1357POPC   C3B19413  33.948  21.978   7.892
 1357POPC   C4B19414  34.315  21.894   7.637
 1358POPC   NC319415  30.888  10.432   9.199
 1358POPC   PO419416  30.513  10.879   9.532
 1358POPC   GL119417  30.399  10.693   9.133
 1358POPC   GL219418  30.682  10.830   8.949
 1358POPC   C1A19419  30.442  10.426   8.729
 1358POPC   D2A19420  30.765  10.372   8.376
 1358POPC   C3A19421  30.572  10.402   7.963
 1358POPC   C4A19422  30.393  10.765   7.729
 1358POPC   C1B19423  31.053  10.800   8.701
 1358POPC   C2B19424  30.950  10.873   8.314
 1358POPC   C3B19425  30.978  10.695   7.924
 1358POPC   C4B19426  30.835  10.640   7.492
 1359POPC   NC319427  23.509   5.576   9.390
 1359POPC   PO419428  23.881   6.152   9.429
 1359POPC   GL119429  23.849   5.848   9.125
 1359POPC   GL219430  23.572   6.064   9.000
 1359POPC   C1A19431  23.724   5.600   8.747
 1359POPC   D2A19432  23.581   5.475   8.316
 1359POPC   C3A19433  23.922   5.462   8.006
 1359POPC   C4A19434  23.944   5.666   7.588
 1359POPC   C1B19435  23.962   6.105   8.719
 1359POPC   C2B19436  23.953   5.852   8.354
 1359POPC   C3B19437  23.732   5.942   7.957
 1359POPC   C4B19438  23.939   6.318   7.755
 1360POPC   NC319439   0.262  40.574   9.468
 1360POPC   PO419440   0.901  40.446   9.209
 1360POPC   GL119441   0.631  40.770   9.055
 1360POPC   GL219442   0.300  40.662   8.964
 1360POPC   C1A19443   0.631  40.778   8.613
 1360POPC   D2A19444   0.385  40.532   8.370
 1360POPC   C3A19445   0.581  40.642   8.027
 1360POPC   C4A19446   0.729  40.701   7.648
 1360POPC   C1B19447   0.126  40.894   8.621
 1360POPC   C2B19448   0.326  41.056   8.273
 1360POPC   C3B19449   0.173  41.208   7.897
 1360POPC   C4B19450   0.270  40.883   7.708
 1361POPC   NC319451  21.876  24.482   9.571
 1361POPC   PO419452  22.486  24.222   9.514
 1361POPC   GL119453  22.202  24.338   9.185
 1361POPC   GL219454  22.113  24.700   9.065
 1361POPC   C1A19455  22.194  24.294   8.753
 1361POPC   D2A19456  22.045  24.274   8.325
 1361POPC   C3A19457  22.238  24.508   7.987
 1361POPC   C4A19458  22.265  24.378   7.560
 1361POPC   C1B19459  22.023  24.782   8.583
 1361POPC   C2B19460  21.755  24.645   8.195
 1361POPC   C3B19461  21.766  24.453   7.803
 1361POPC   C4B19462  21.940  24.764   7.542
 1362POPC   NC319463  11.697   7.351   9.584
 1362POPC   PO419464  11.137   7.632   9.676
 1362POPC   GL119465  11.467   7.539   9.203
 1362POPC   GL219466  11.399   7.247   9.092
 1362POPC   C1A19467  11.414   7.529   8.677
 1362POPC   D2A19468  11.032   7.557   8.356
 1362POPC   C3A19469  11.101   7.671   7.906
 1362POPC   C4A19470  11.525   7.769   7.750
 1362POPC   C1B19471  11.518   6.995   8.718
 1362POPC   C2B19472  11.292   7.008   8.337
 1362POPC   C3B19473  11.444   7.316   8.065
 1362POPC   C4B19474  11.398   7.292   7.646
 1363POPC   NC319475  21.752  19.701   9.501
 1363POPC   PO419476  22.328  19.965   9.615
 1363POPC   GL119477  22.177  19.842   9.228
 1363POPC   GL219478  21.969  20.124   9.193
 1363POPC   C1A19479  22.020  19.798   8.791
 1363POPC   D2A19480  21.798  19.888   8.394
 1363POPC   C3A19481  21.982  19.646   8.066
 1363POPC   C4A19482  22.167  19.394   7.742
 1363POPC   C1B19483  22.338  20.195   8.902
 1363POPC   C2B19484  22.340  20.090   8.492
 1363POPC   C3B19485  22.209  20.112   8.086
 1363POPC   C4B19486  22.307  19.904   7.726
 1364POPC   NC319487  33.744  31.330   9.596
 1364POPC   PO419488  33.493  31.735   9.191
 1364POPC   GL119489  33.487  31.279   9.138
 1364POPC   GL219490  33.844  31.214   9.106
 1364POPC   C1A19491  33.515  31.183   8.722
 1364POPC   D2A19492  33.605  31.549   8.474
 1364POPC   C3A19493  33.781  31.324   8.174
 1364POPC   C4A19494  33.489  31.361   7.832
 1364POPC   C1B19495  34.009  31.343   8.706
 1364POPC   C2B19496  34.275  31.236   8.371
 1364POPC   C3B19497  34.283  31.321   7.973
 1364POPC   C4B19498  33.965  31.176   7.702
 1365POPC   NC319499   7.230   0.827   9.597
 1365POPC   PO419500   7.720   1.328   9.437
 1365POPC   GL119501   7.507   1.017   9.213
 1365POPC   GL219502   7.192   1.117   9.143
 1365POPC   C1A19503   7.480   0.852   8.808
 1365POPC   D2A19504   7.370   1.053   8.439
 1365POPC   C3A19505   7.675   1.038   8.141
 1365POPC   C4A19506   7.410   1.060   7.800
 1365POPC   C1B19507   7.449   1.387   8.838
 1365POPC   C2B19508   7.316   1.575   8.472
 1365POPC   C3B19509   7.230   1.435   8.091
 1365POPC   C4B19510   7.307   1.568   7.691
 1366POPC   NC319511  43.853  25.696   9.494
 1366POPC   PO419512  44.164  26.254   9.391
 1366POPC   GL119513  43.875  26.091   9.137
 1366POPC   GL219514  44.103  25.852   9.043
 1366POPC   C1A19515  43.698  26.205   8.729
 1366POPC   D2A19516  43.429  26.126   8.372
 1366POPC   C3A19517  43.598  26.138   7.985
 1366POPC   C4A19518  43.838  26.230   7.647
 1366POPC   C1B19519  44.216  25.734   8.648
 1366POPC   C2B19520  44.044  25.638   8.238
 1366POPC   C3B19521  44.072  25.846   7.850
 1366POPC   C4B19522  44.278  25.816   7.425
 1367POPC   NC319523  32.673   2.228   9.518
 1367POPC   PO419524  32.231   1.709   9.403
 1367POPC   GL119525  32.105   1.891   9.045
 1367POPC   GL219526  32.357   2.133   9.090
 1367POPC   C1A19527  32.097   1.929   8.620
 1367POPC   D2A19528  32.323   1.877   8.284
 1367POPC   C3A19529  32.064   1.819   7.944
 1367POPC   C4A19530  32.348   1.911   7.632
 1367POPC   C1B19531  32.364   2.354   8.683
 1367POPC   C2B19532  32.073   2.361   8.309
 1367POPC   C3B19533  32.167   2.333   7.889
 1367POPC   C4B19534  32.531   2.434   7.686
 1368POPC   NC319535  36.231  24.621   9.282
 1368POPC   PO419536  36.374  24.068   9.583
 1368POPC   GL119537  36.088  24.165   9.135
 1368POPC   GL219538  36.313  24.384   8.853
 1368POPC   C1A19539  35.822  24.324   8.752
 1368POPC   D2A19540  36.028  24.521   8.377
 1368POPC   C3A19541  35.888  24.374   7.973
 1368POPC   C4A19542  36.108  24.244   7.629
 1368POPC   C1B19543  36.354  24.824   8.684
 1368POPC   C2B19544  36.353  24.933   8.262
 1368POPC   C3B19545  36.363  24.607   7.929
 1368POPC   C4B19546  36.309  24.672   7.464
 1369POPC   NC319547   5.225  42.508   9.508
 1369POPC   PO419548   4.880  41.916   9.496
 1369POPC   GL119549   5.104  42.150   9.161
 1369POPC   GL219550   5.136  42.527   9.026
 1369POPC   C1A19551   5.043  42.052   8.753
 1369POPC   D2A19552   5.167  42.089   8.331
 1369POPC   C3A19553   5.074  42.445   8.144
 1369POPC   C4A19554   5.061  42.281   7.768
 1369POPC   C1B19555   5.312  42.464   8.637
 1369POPC   C2B19556   5.618  42.335   8.341
 1369POPC   C3B19557   5.532  42.383   7.939
 1369POPC   C4B19558   5.441  42.562   7.559
 1370POPC   NC319559  28.248  27.686   9.499
 1370POPC   PO419560  28.885  27.765   9.525
 1370POPC   GL119561  28.614  27.752   9.149
 1370POPC   GL219562  28.249  27.878   9.047
 1370POPC   C1A19563  28.476  27.512   8.815
 1370POPC   D2A19564  28.634  27.529   8.438
 1370POPC   C3A19565  28.554  27.389   8.070
 1370POPC   C4A19566  28.500  27.803   7.905
 1370POPC   C1B19567  28.055  27.790   8.677
 1370POPC   C2B19568  28.096  27.493   8.341
 1370POPC   C3B19569  28.090  27.507   7.888
 1370POPC   C4B19570  28.025  27.904   7.679
 1371POPC   NC319571  27.073   1.130   9.461
 1371POPC   PO419572  27.733   1.331   9.487
 1371POPC   GL119573  27.512   1.193   9.138
 1371POPC   GL219574  27.300   1.450   9.108
 1371POPC   C1A19575  27.522   1.066   8.707
 1371POPC   D2A19576  27.705   0.852   8.347
 1371POPC   C3A19577  27.696   1.011   7.883
 1371POPC   C4A19578  27.760   0.892   7.407
 1371POPC   C1B19579  27.186   1.465   8.671
 1371POPC   C2B19580  27.261   1.260   8.288
 1371POPC   C3B19581  27.220   1.391   7.869
 1371POPC   C4B19582  27.467   1.310   7.520
 1372POPC   NC319583   0.968  24.506   9.486
 1372POPC   PO419584   1.733  24.308   9.480
 1372POPC   GL119585   1.408  24.488   9.230
 1372POPC   GL219586   1.592  24.424   8.972
 1372POPC   C1A19587   1.099  24.445   8.850
 1372POPC   D2A19588   1.237  24.691   8.496
 1372POPC   C3A19589   1.054  24.711   8.080
 1372POPC   C4A19590   1.062  24.815   7.627
 1372POPC   C1B19591   1.656  24.368   8.539
 1372POPC   C2B19592   1.327  24.257   8.246
 1372POPC   C3B19593   1.327  24.370   7.828
 1372POPC   C4B19594   1.620  24.179   7.603
 1373POPC   NC319595  20.490  25.737   9.438
 1373POPC   PO419596  20.963  26.212   9.275
 1373POPC   GL119597  20.608  26.114   9.117
 1373POPC   GL219598  20.406  26.338   9.141
 1373POPC   C1A19599  20.547  25.982   8.743
 1373POPC   D2A19600  20.816  25.997   8.415
 1373POPC   C3A19601  20.659  25.830   8.059
 1373POPC   C4A19602  20.760  25.939   7.644
 1373POPC   C1B19603  20.244  26.384   8.740
 1373POPC   C2B19604  20.360  26.229   8.314
 1373POPC   C3B19605  20.596  26.341   7.939
 1373POPC   C4B19606  20.479  26.309   7.480
 1374POPC   NC319607  22.911   6.928   9.565
 1374POPC   PO419608  23.069   6.280   9.498
 1374POPC   GL119609  23.011   6.578   9.185
 1374POPC   GL219610  22.668   6.647   9.220
 1374POPC   C1A19611  23.175   6.686   8.805
 1374POPC   D2A19612  23.192   6.441   8.449
 1374POPC   C3A19613  22.989   6.727   8.216
 1374POPC   C4A19614  23.049   6.757   7.826
 1374POPC   C1B19615  22.491   6.802   8.852
 1374POPC   C2B19616  22.408   6.678   8.411
 1374POPC   C3B19617  22.527   6.666   7.983
 1374POPC   C4B19618  22.656   6.567   7.589
 1375POPC   NC319619  13.478  12.487   9.529
 1375POPC   PO419620  13.653  11.824   9.499
 1375POPC   GL119621  13.563  12.134   9.160
 1375POPC   GL219622  13.835  12.365   9.149
 1375POPC   C1A19623  13.685  12.064   8.731
 1375POPC   D2A19624  13.902  11.780   8.432
 1375POPC   C3A19625  13.804  11.941   8.002
 1375POPC   C4A19626  13.463  11.788   7.679
 1375POPC   C1B19627  13.708  12.573   8.762
 1375POPC   C2B19628  13.480  12.499   8.409
 1375POPC   C3B19629  13.613  12.500   8.005
 1375POPC   C4B19630  13.395  12.248   7.796
 1376POPC   NC319631   1.434  26.383   9.460
 1376POPC   PO419632   1.027  25.790   9.503
 1376POPC   GL119633   1.274  25.966   9.203
 1376POPC   GL219634   1.049  26.203   9.126
 1376POPC   C1A19635   1.388  25.864   8.783
 1376POPC   D2A19636   1.220  26.025   8.409
 1376POPC   C3A19637   1.449  26.012   8.035
 1376POPC   C4A19638   1.256  25.813   7.741
 1376POPC   C1B19639   0.801  26.363   8.805
 1376POPC   C2B19640   0.749  26.207   8.390
 1376POPC   C3B19641   0.966  26.259   8.003
 1376POPC   C4B19642   0.864  26.120   7.592
 1377POPC   NC319643   3.346  15.321   9.516
 1377POPC   PO419644   3.798  14.887   9.374
 1377POPC   GL119645   3.504  15.061   9.078
 1377POPC   GL219646   3.525  15.431   9.065
 1377POPC   C1A19647   3.519  15.170   8.634
 1377POPC   D2A19648   3.730  15.390   8.300
 1377POPC   C3A19649   3.650  15.173   7.969
 1377POPC   C4A19650   3.286  15.042   7.769
 1377POPC   C1B19651   3.190  15.520   8.802
 1377POPC   C2B19652   3.129  15.394   8.367
 1377POPC   C3B19653   3.206  15.521   7.981
 1377POPC   C4B19654   3.516  15.534   7.654
 1378POPC   NC319655  37.318  29.134   9.438
 1378POPC   PO419656  36.643  29.070   9.522
 1378POPC   GL119657  36.809  29.214   9.163
 1378POPC   GL219658  37.022  29.478   9.182
 1378POPC   C1A19659  37.035  29.041   8.821
 1378POPC   D2A19660  37.023  28.802   8.461
 1378POPC   C3A19661  37.135  28.981   8.094
 1378POPC   C4A19662  36.874  28.973   7.739
 1378POPC   C1B19663  36.869  29.525   8.769
 1378POPC   C2B19664  36.812  29.310   8.396
 1378POPC   C3B19665  36.896  29.415   7.997
 1378POPC   C4B19666  37.076  29.711   7.794
 1379POPC   NC319667   6.577  25.610   9.569
 1379POPC   PO419668   6.902  25.147   9.422
 1379POPC   GL119669   6.692  25.347   9.133
 1379POPC   GL219670   6.375  25.243   9.231
 1379POPC   C1A19671   6.822  25.413   8.742
 1379POPC   D2A19672   7.037  25.120   8.498
 1379POPC   C3A19673   6.884  25.295   8.174
 1379POPC   C4A19674   6.935  25.404   7.796
 1379POPC   C1B19675   6.288  25.342   8.792
 1379POPC   C2B19676   6.436  25.488   8.395
 1379POPC   C3B19677   6.403  25.375   7.968
 1379POPC   C4B19678   6.196  24.995   7.858
 1380POPC   NC319679  35.242  15.676   9.620
 1380POPC   PO419680  35.797  16.081   9.570
 1380POPC   GL119681  35.510  15.956   9.227
 1380POPC   GL219682  35.630  15.596   9.242
 1380POPC   C1A19683  35.315  16.070   8.795
 1380POPC   D2A19684  35.195  16.319   8.421
 1380POPC   C3A19685  35.289  16.155   8.018
 1380POPC   C4A19686  35.408  15.730   7.835
 1380POPC   C1B19687  35.318  15.577   8.910
 1380POPC   C2B19688  34.989  15.657   8.615
 1380POPC   C3B19689  35.015  15.762   8.191
 1380POPC   C4B19690  34.907  15.613   7.797
 1381POPC   NC319691  12.571   0.827   9.556
 1381POPC   PO419692  12.834   1.440   9.410
 1381POPC   GL119693  12.987   1.290   9.028
 1381POPC   GL219694  13.111   0.944   9.062
 1381POPC   C1A19695  13.041   1.179   8.607
 1381POPC   D2A19696  13.282   1.086   8.280
 1381POPC   C3A19697  12.944   1.036   8.054
 1381POPC   C4A19698  12.897   1.274   7.714
 1381POPC   C1B19699  12.734   0.872   8.890
 1381POPC   C2B19700  12.609   0.896   8.480
 1381POPC   C3B19701  12.542   0.707   8.099
 1381POPC   C4B19702  12.609   0.862   7.676
 1382POPC   NC319703  33.139  39.710   9.394
 1382POPC   PO419704  32.758  39.263   9.773
 1382POPC   GL119705  32.862  39.288   9.299
 1382POPC   GL219706  32.687  39.644   9.203
 1382POPC   C1A19707  33.032  39.068   8.869
 1382POPC   D2A19708  33.023  39.245   8.428
 1382POPC   C3A19709  32.924  39.021   8.035
 1382POPC   C4A19710  33.163  39.195   7.689
 1382POPC   C1B19711  32.709  39.453   8.801
 1382POPC   C2B19712  32.644  39.606   8.407
 1382POPC   C3B19713  32.813  39.522   8.029
 1382POPC   C4B19714  32.679  39.333   7.691
 1383POPC   NC319715  27.355   4.202   9.351
 1383POPC   PO419716  27.855   4.678   9.353
 1383POPC   GL119717  27.684   4.429   9.010
 1383POPC   GL219718  27.763   4.079   9.077
 1383POPC   C1A19719  27.453   4.246   8.642
 1383POPC   D2A19720  27.205   4.445   8.273
 1383POPC   C3A19721  27.440   4.478   7.934
 1383POPC   C4A19722  27.523   4.650   7.554
 1383POPC   C1B19723  28.002   4.071   8.753
 1383POPC   C2B19724  27.891   4.186   8.372
 1383POPC   C3B19725  27.984   4.002   8.021
 1383POPC   C4B19726  27.788   4.093   7.665
 1384POPC   NC319727  27.144   1.870   9.456
 1384POPC   PO419728  26.576   2.207   9.444
 1384POPC   GL119729  26.688   1.981   9.069
 1384POPC   GL219730  27.017   1.855   8.979
 1384POPC   C1A19731  26.746   2.070   8.635
 1384POPC   D2A19732  27.017   2.282   8.417
 1384POPC   C3A19733  26.950   2.147   8.052
 1384POPC   C4A19734  26.848   1.883   7.777
 1384POPC   C1B19735  27.313   1.962   8.665
 1384POPC   C2B19736  27.336   1.793   8.250
 1384POPC   C3B19737  27.360   1.887   7.810
 1384POPC   C4B19738  27.197   1.715   7.421
 1385POPC   NC319739  13.468  30.256   9.486
 1385POPC   PO419740  13.232  29.676   9.361
 1385POPC   GL119741  13.665  29.859   9.186
 1385POPC   GL219742  13.542  30.125   9.007
 1385POPC   C1A19743  13.977  29.984   8.791
 1385POPC   D2A19744  13.876  30.186   8.389
 1385POPC   C3A19745  13.964  30.012   7.952
 1385POPC   C4A19746  13.925  29.724   7.576
 1385POPC   C1B19747  13.499  29.781   8.698
 1385POPC   C2B19748  13.508  29.858   8.260
 1385POPC   C3B19749  13.466  29.780   7.859
 1385POPC   C4B19750  13.098  29.545   7.801
 1386POPC   NC319751  34.119   3.194   9.422
 1386POPC   PO419752  33.458   3.146   9.552
 1386POPC   GL119753  33.667   3.432   9.237
 1386POPC   GL219754  33.972   3.686   9.307
 1386POPC   C1A19755  33.566   3.559   8.808
 1386POPC   D2A19756  33.708   3.404   8.418
 1386POPC   C3A19757  33.710   3.665   8.085
 1386POPC   C4A19758  33.815   3.451   7.731
 1386POPC   C1B19759  34.055   3.720   8.866
 1386POPC   C2B19760  34.048   3.844   8.438
 1386POPC   C3B19761  34.205   3.671   8.071
 1386POPC   C4B19762  34.080   3.864   7.674
 1387POPC   NC319763  13.813  28.489   9.449
 1387POPC   PO419764  13.222  28.169   9.363
 1387POPC   GL119765  13.492  28.322   9.087
 1387POPC   GL219766  13.393  28.655   9.192
 1387POPC   C1A19767  13.653  28.267   8.670
 1387POPC   D2A19768  13.363  28.122   8.370
 1387POPC   C3A19769  13.580  28.047   8.011
 1387POPC   C4A19770  13.670  28.396   7.779
 1387POPC   C1B19771  13.330  28.646   8.741
 1387POPC   C2B19772  13.164  28.655   8.334
 1387POPC   C3B19773  13.191  28.410   7.981
 1387POPC   C4B19774  13.214  28.584   7.595
 1388POPC   NC319775  36.338  37.484   9.505
 1388POPC   PO419776  35.781  37.859   9.428
 1388POPC   GL119777  36.001  37.588   9.126
 1388POPC   GL219778  36.327  37.627   9.013
 1388POPC   C1A19779  35.919  37.414   8.750
 1388POPC   D2A19780  35.765  37.730   8.448
 1388POPC   C3A19781  35.719  37.641   8.015
 1388POPC   C4A19782  35.887  37.299   7.759
 1388POPC   C1B19783  36.345  37.601   8.566
 1388POPC   C2B19784  36.198  37.609   8.182
 1388POPC   C3B19785  36.362  37.523   7.828
 1388POPC   C4B19786  36.703  37.723   7.672
 1389POPC   NC319787  21.391  26.194   9.442
 1389POPC   PO419788  20.991  25.635   9.534
 1389POPC   GL119789  21.244  25.801   9.102
 1389POPC   GL219790  21.484  26.093   8.980
 1389POPC   C1A19791  21.448  25.744   8.637
 1389POPC   D2A19792  21.383  25.518   8.258
 1389POPC   C3A19793  21.156  25.748   7.947
 1389POPC   C4A19794  21.507  25.983   7.765
 1389POPC   C1B19795  21.220  26.233   8.651
 1389POPC   C2B19796  21.259  26.152   8.226
 1389POPC   C3B19797  21.098  26.269   7.827
 1389POPC   C4B19798  21.350  26.369   7.463
 1390POPC   NC319799   2.261  44.127   9.760
 1390POPC   PO419800   2.014  43.603   9.406
 1390POPC   GL119801   1.940  43.777   9.053
 1390POPC   GL219802   1.895  44.095   9.249
 1390POPC   C1A19803   2.140  43.886   8.654
 1390POPC   D2A19804   2.019  43.709   8.282
 1390POPC   C3A19805   2.331  43.739   7.960
 1390POPC   C4A19806   1.980  43.786   7.707
 1390POPC   C1B19807   1.832  44.238   8.873
 1390POPC   C2B19808   1.861  44.275   8.444
 1390POPC   C3B19809   2.034  44.163   8.058
 1390POPC   C4B19810   2.094  44.281   7.643
 1391POPC   NC319811  17.039  21.174   9.469
 1391POPC   PO419812  17.669  21.495   9.415
 1391POPC   GL119813  17.535  21.211   9.134
 1391POPC   GL219814  17.259  21.425   9.090
 1391POPC   C1A19815  17.677  21.214   8.713
 1391POPC   D2A19816  17.576  21.532   8.450
 1391POPC   C3A19817  17.719  21.493   8.063
 1391POPC   C4A19818  17.595  21.478   7.641
 1391POPC   C1B19819  17.161  21.386   8.712
 1391POPC   C2B19820  17.092  21.607   8.346
 1391POPC   C3B19821  17.214  21.428   7.999
 1391POPC   C4B19822  17.233  21.124   7.691
 1392POPC   NC319823   6.046  34.228   9.499
 1392POPC   PO419824   5.746  34.802   9.378
 1392POPC   GL119825   5.736  34.442   9.131
 1392POPC   GL219826   6.100  34.397   9.024
 1392POPC   C1A19827   5.660  34.450   8.704
 1392POPC   D2A19828   6.024  34.392   8.489
 1392POPC   C3A19829   5.970  34.381   8.081
 1392POPC   C4A19830   5.677  34.514   7.798
 1392POPC   C1B19831   6.224  34.761   8.787
 1392POPC   C2B19832   6.167  35.015   8.424
 1392POPC   C3B19833   5.947  34.899   8.079
 1392POPC   C4B19834   6.035  34.996   7.699
 1393POPC   NC319835   9.648  25.180   9.586
 1393POPC   PO419836  10.291  25.387   9.502
 1393POPC   GL119837   9.923  25.379   9.183
 1393POPC   GL219838   9.545  25.493   9.197
 1393POPC   C1A19839   9.881  25.479   8.745
 1393POPC   D2A19840  10.120  25.632   8.376
 1393POPC   C3A19841   9.849  25.498   8.056
 1393POPC   C4A19842   9.814  25.083   7.871
 1393POPC   C1B19843   9.452  25.212   8.861
 1393POPC   C2B19844   9.582  25.188   8.423
 1393POPC   C3B19845   9.380  25.267   8.030
 1393POPC   C4B19846   9.524  25.487   7.645
 1394POPC   NC319847  15.071  11.408   9.476
 1394POPC   PO419848  15.697  11.189   9.538
 1394POPC   GL119849  15.422  11.186   9.143
 1394POPC   GL219850  15.216  11.471   9.021
 1394POPC   C1A19851  15.292  11.108   8.699
 1394POPC   D2A19852  15.438  10.897   8.366
 1394POPC   C3A19853  15.146  10.903   8.030
 1394POPC   C4A19854  15.161  11.138   7.657
 1394POPC   C1B19855  14.899  11.679   8.799
 1394POPC   C2B19856  14.930  11.624   8.383
 1394POPC   C3B19857  15.162  11.421   8.097
 1394POPC   C4B19858  15.000  11.629   7.717
 1395POPC   NC319859   6.476   0.909   9.421
 1395POPC   PO419860   6.946   0.407   9.560
 1395POPC   GL119861   6.672   0.406   9.161
 1395POPC   GL219862   6.611   0.734   8.961
 1395POPC   C1A19863   6.726   0.188   8.764
 1395POPC   D2A19864   6.943   0.258   8.386
 1395POPC   C3A19865   6.687   0.437   8.073
 1395POPC   C4A19866   6.728   0.614   7.664
 1395POPC   C1B19867   6.291   0.475   8.800
 1395POPC   C2B19868   6.312   0.294   8.410
 1395POPC   C3B19869   6.176   0.464   8.022
 1395POPC   C4B19870   6.208   0.615   7.607
 1396POPC   NC319871  18.824  35.768   9.483
 1396POPC   PO419872  18.787  35.155   9.553
 1396POPC   GL119873  19.004  35.145   9.144
 1396POPC   GL219874  18.992  35.501   9.080
 1396POPC   C1A19875  19.116  35.173   8.680
 1396POPC   D2A19876  18.930  35.161   8.253
 1396POPC   C3A19877  19.130  35.042   7.864
 1396POPC   C4A19878  19.036  35.229   7.438
 1396POPC   C1B19879  18.813  35.601   8.679
 1396POPC   C2B19880  19.015  35.654   8.276
 1396POPC   C3B19881  19.063  35.553   7.847
 1396POPC   C4B19882  19.203  35.753   7.432
 1397POPC   NC319883   1.925   6.403   9.550
 1397POPC   PO419884   2.357   5.817   9.404
 1397POPC   GL119885   2.299   6.051   9.074
 1397POPC   GL219886   1.944   6.099   9.093
 1397POPC   C1A19887   2.118   5.856   8.684
 1397POPC   D2A19888   1.943   6.033   8.315
 1397POPC   C3A19889   2.053   5.736   8.030
 1397POPC   C4A19890   2.404   5.626   7.790
 1397POPC   C1B19891   1.627   5.986   8.756
 1397POPC   C2B19892   1.586   5.658   8.436
 1397POPC   C3B19893   1.549   5.596   7.977
 1397POPC   C4B19894   1.708   5.910   7.700
 1398POPC   NC319895   1.080   3.957   9.417
 1398POPC   PO419896   1.427   4.572   9.462
 1398POPC   GL119897   1.292   4.319   9.114
 1398POPC   GL219898   1.483   4.001   9.112
 1398POPC   C1A19899   1.036   4.253   8.743
 1398POPC   D2A19900   0.937   4.534   8.380
 1398POPC   C3A19901   0.976   4.381   7.956
 1398POPC   C4A19902   0.969   4.381   7.501
 1398POPC   C1B19903   1.543   4.135   8.700
 1398POPC   C2B19904   1.343   4.219   8.330
 1398POPC   C3B19905   1.467   4.245   7.940
 1398POPC   C4B19906   1.433   4.162   7.540
 1399POPC   NC319907  23.255   9.701   9.512
 1399POPC   PO419908  23.799  10.078   9.562
 1399POPC   GL119909  23.903   9.940   9.122
 1399POPC   GL219910  23.797   9.580   9.084
 1399POPC   C1A19911  23.741   9.860   8.686
 1399POPC   D2A19912  23.522   9.742   8.310
 1399POPC   C3A19913  23.721   9.742   7.893
 1399POPC   C4A19914  23.943  10.000   7.590
 1399POPC   C1B19915  23.438   9.458   8.761
 1399POPC   C2B19916  23.135   9.414   8.418
 1399POPC   C3B19917  23.257   9.463   7.958
 1399POPC   C4B19918  23.537   9.334   7.625
 1400POPC   NC319919   3.350   2.365   9.424
 1400POPC   PO419920   3.786   2.915   9.458
 1400POPC   GL119921   3.588   2.719   9.133
 1400POPC   GL219922   3.693   2.382   9.021
 1400POPC   C1A19923   3.515   2.936   8.794
 1400POPC   D2A19924   3.690   2.967   8.411
 1400POPC   C3A19925   3.453   3.079   8.067
 1400POPC   C4A19926   3.664   2.976   7.733
 1400POPC   C1B19927   3.639   2.456   8.573
 1400POPC   C2B19928   3.425   2.578   8.198
 1400POPC   C3B19929   3.351   2.589   7.730
 1400POPC   C4B19930   3.360   2.311   7.307
 1401POPC   NC319931  10.009  33.015   9.312
 1401POPC   PO419932   9.325  33.183   9.390
 1401POPC   GL119933   9.425  33.127   8.988
 1401POPC   GL219934   9.605  32.819   9.037
 1401POPC   C1A19935   9.754  33.183   8.704
 1401POPC   D2A19936   9.899  33.388   8.371
 1401POPC   C3A19937   9.774  33.145   8.016
 1401POPC   C4A19938   9.805  33.230   7.567
 1401POPC   C1B19939   9.885  32.682   8.684
 1401POPC   C2B19940   9.840  32.377   8.352
 1401POPC   C3B19941  10.030  32.412   7.950
 1401POPC   C4B19942   9.899  32.754   7.715
 1402POPC   NC319943  20.022  28.989   9.682
 1402POPC   PO419944  19.437  29.209   9.463
 1402POPC   GL119945  19.646  29.113   9.092
 1402POPC   GL219946  20.009  29.119   9.168
 1402POPC   C1A19947  19.671  29.224   8.678
 1402POPC   D2A19948  19.609  29.009   8.297
 1402POPC   C3A19949  19.837  29.235   7.982
 1402POPC   C4A19950  20.233  29.169   7.785
 1402POPC   C1B19951  20.160  29.100   8.739
 1402POPC   C2B19952  20.142  28.923   8.298
 1402POPC   C3B19953  19.941  28.735   7.905
 1402POPC   C4B19954  20.009  28.715   7.430
 1403POPC   NC319955   5.854  33.574   9.441
 1403POPC   PO419956   6.433  33.922   9.525
 1403POPC   GL119957   6.161  33.867   9.136
 1403POPC   GL219958   6.008  33.539   8.975
 1403POPC   C1A19959   5.878  33.985   8.787
 1403POPC   D2A19960   5.621  33.881   8.424
 1403POPC   C3A19961   5.760  33.908   7.979
 1403POPC   C4A19962   6.157  34.034   7.772
 1403POPC   C1B19963   5.792  33.441   8.629
 1403POPC   C2B19964   5.981  33.453   8.238
 1403POPC   C3B19965   6.036  33.533   7.784
 1403POPC   C4B19966   5.697  33.657   7.511
 1404POPC   NC319967  31.527  40.567   9.425
 1404POPC   PO419968  31.797  41.135   9.604
 1404POPC   GL119969  31.644  41.021   9.199
 1404POPC   GL219970  31.296  41.040   9.106
 1404POPC   C1A19971  31.712  40.940   8.776
 1404POPC   D2A19972  31.526  41.000   8.378
 1404POPC   C3A19973  31.670  40.659   8.137
 1404POPC   C4A19974  31.616  40.653   7.728
 1404POPC   C1B19975  31.143  40.850   8.716
 1404POPC   C2B19976  31.004  40.893   8.276
 1404POPC   C3B19977  31.133  40.841   7.823
 1404POPC   C4B19978  31.186  40.970   7.358
 1405POPC   NC319979  26.870   6.580   9.620
 1405POPC   PO419980  26.295   6.640   9.530
 1405POPC   GL119981  26.635   6.725   9.195
 1405POPC   GL219982  26.879   6.430   9.139
 1405POPC   C1A19983  26.831   6.825   8.804
 1405POPC   D2A19984  26.987   6.665   8.418
 1405POPC   C3A19985  26.890   6.875   8.032
 1405POPC   C4A19986  26.992   6.768   7.609
 1405POPC   C1B19987  26.705   6.306   8.754
 1405POPC   C2B19988  26.827   6.140   8.357
 1405POPC   C3B19989  27.022   6.337   8.007
 1405POPC   C4B19990  26.840   6.271   7.629
 1406POPC   NC319991  15.407  35.833   9.830
 1406POPC   PO419992  15.035  36.264   9.549
 1406POPC   GL119993  15.227  36.003   9.281
 1406POPC   GL219994  15.002  35.716   9.280
 1406POPC   C1A19995  15.237  35.972   8.839
 1406POPC   D2A19996  15.122  36.190   8.460
 1406POPC   C3A19997  15.441  36.261   8.161
 1406POPC   C4A19998  15.241  36.300   7.787
 1406POPC   C1B19999  14.862  35.627   8.831
 1406POPC   C2B20000  15.114  35.683   8.424
 1406POPC   C3B20001  15.172  35.829   8.016
 1406POPC   C4B20002  15.535  35.890   7.788
 1407POPC   NC320003  10.407  43.055   9.440
 1407POPC   PO420004  10.902  43.450   9.290
 1407POPC   GL120005  10.614  43.347   9.060
 1407POPC   GL220006  10.333  43.528   9.221
 1407POPC   C1A20007  10.621  43.065   8.717
 1407POPC   D2A20008  10.657  43.234   8.313
 1407POPC   C3A20009  10.716  42.966   8.002
 1407POPC   C4A20010  10.632  43.083   7.601
 1407POPC   C1B20011  10.178  43.320   8.816
 1407POPC   C2B20012  10.163  43.134   8.385
 1407POPC   C3B20013  10.282  43.309   7.938
 1407POPC   C4B20014  10.207  43.399   7.454
 1408POPC   NC320015   4.334  34.375   9.327
 1408POPC   PO420016   4.431  33.794   9.665
 1408POPC   GL120017   4.530  33.845   9.208
 1408POPC   GL220018   4.784  33.579   9.152
 1408POPC   C1A20019   4.374  33.863   8.735
 1408POPC   D2A20020   4.406  33.909   8.243
 1408POPC   C3A20021   4.262  33.636   7.874
 1408POPC   C4A20022   4.201  33.730   7.396
 1408POPC   C1B20023   4.864  33.740   8.726
 1408POPC   C2B20024   4.800  33.579   8.299
 1408POPC   C3B20025   4.772  33.729   7.893
 1408POPC   C4B20026   4.850  33.897   7.482
 1409POPC   NC320027  38.135  22.642   9.505
 1409POPC   PO420028  38.578  23.110   9.293
 1409POPC   GL120029  38.277  22.932   9.053
 1409POPC   GL220030  37.962  23.053   9.176
 1409POPC   C1A20031  38.248  23.011   8.618
 1409POPC   D2A20032  38.482  23.264   8.318
 1409POPC   C3A20033  38.574  22.978   7.982
 1409POPC   C4A20034  38.340  22.850   7.601
 1409POPC   C1B20035  37.882  23.318   8.798
 1409POPC   C2B20036  37.942  23.342   8.335
 1409POPC   C3B20037  38.034  23.125   7.926
 1409POPC   C4B20038  38.000  23.180   7.446
 1410POPC   NC320039  27.412  35.429   9.452
 1410POPC   PO420040  27.868  34.999   9.558
 1410POPC   GL120041  27.905  35.346   9.256
 1410POPC   GL220042  27.764  35.689   9.179
 1410POPC   C1A20043  27.806  35.329   8.819
 1410POPC   D2A20044  27.528  35.367   8.463
 1410POPC   C3A20045  27.493  35.133   8.108
 1410POPC   C4A20046  27.751  35.299   7.820
 1410POPC   C1B20047  27.379  35.656   8.846
 1410POPC   C2B20048  27.154  35.727   8.455
 1410POPC   C3B20049  27.214  35.604   8.072
 1410POPC   C4B20050  27.452  35.707   7.734
 1411POPC   NC320051   8.352  31.461   9.544
 1411POPC   PO420052   8.856  31.792   9.226
 1411POPC   GL120053   8.445  31.656   9.081
 1411POPC   GL220054   8.291  31.293   9.061
 1411POPC   C1A20055   8.084  31.708   8.840
 1411POPC   D2A20056   7.944  31.697   8.431
 1411POPC   C3A20057   8.218  31.600   8.117
 1411POPC   C4A20058   8.141  31.624   7.705
 1411POPC   C1B20059   7.995  31.190   8.701
 1411POPC   C2B20060   8.049  31.133   8.240
 1411POPC   C3B20061   7.820  31.306   7.910
 1411POPC   C4B20062   7.758  31.379   7.478
 1412POPC   NC320063  44.194   8.000   9.518
 1412POPC   PO420064  43.576   8.374   9.556
 1412POPC   GL120065  43.861   8.295   9.226
 1412POPC   GL220066  43.861   7.940   9.139
 1412POPC   C1A20067  43.774   8.352   8.791
 1412POPC   D2A20068  43.500   8.525   8.430
 1412POPC   C3A20069  43.687   8.409   8.021
 1412POPC   C4A20070  44.008   8.236   7.747
 1412POPC   C1B20071  43.977   7.878   8.733
 1412POPC   C2B20072  43.908   8.052   8.345
 1412POPC   C3B20073  44.138   7.851   8.054
 1412POPC   C4B20074  44.084   7.692   7.680
 1413POPC   NC320075  12.134  37.101   9.649
 1413POPC   PO420076  11.703  36.769   9.276
 1413POPC   GL120077  12.085  36.899   9.173
 1413POPC   GL220078  11.998  37.212   9.137
 1413POPC   C1A20079  12.375  36.888   8.858
 1413POPC   D2A20080  12.357  37.052   8.451
 1413POPC   C3A20081  12.211  36.857   8.086
 1413POPC   C4A20082  12.139  36.859   7.642
 1413POPC   C1B20083  11.906  37.118   8.723
 1413POPC   C2B20084  11.793  37.062   8.316
 1413POPC   C3B20085  11.855  37.224   7.915
 1413POPC   C4B20086  11.673  37.068   7.534
 1414POPC   NC320087   9.782  36.801   9.668
 1414POPC   PO420088   9.770  37.462   9.598
 1414POPC   GL120089   9.797  37.124   9.244
 1414POPC   GL220090   9.645  36.786   9.183
 1414POPC   C1A20091   9.717  37.074   8.769
 1414POPC   D2A20092   9.792  37.134   8.306
 1414POPC   C3A20093   9.696  36.835   7.940
 1414POPC   C4A20094   9.587  36.848   7.449
 1414POPC   C1B20095   9.870  36.570   8.852
 1414POPC   C2B20096   9.852  36.628   8.403
 1414POPC   C3B20097  10.068  36.491   8.025
 1414POPC   C4B20098  10.022  36.613   7.567
 1415POPC   NC320099  41.599  42.969   9.594
 1415POPC   PO420100  42.170  43.408   9.671
 1415POPC   GL120101  41.773  43.377   9.303
 1415POPC   GL220102  41.567  43.050   9.118
 1415POPC   C1A20103  41.728  43.401   8.833
 1415POPC   D2A20104  41.840  43.169   8.445
 1415POPC   C3A20105  41.783  43.352   8.009
 1415POPC   C4A20106  42.084  43.486   7.707
 1415POPC   C1B20107  41.609  42.756   8.802
 1415POPC   C2B20108  41.546  42.751   8.375
 1415POPC   C3B20109  41.751  42.818   8.015
 1415POPC   C4B20110  41.450  43.036   7.766
 1416POPC   NC320111  35.350   4.281   9.548
 1416POPC   PO420112  34.822   4.515   9.237
 1416POPC   GL120113  35.193   4.358   9.058
 1416POPC   GL220114  35.220   3.995   9.168
 1416POPC   C1A20115  35.558   4.533   8.807
 1416POPC   D2A20116  35.548   4.705   8.364
 1416POPC   C3A20117  35.307   4.510   8.007
 1416POPC   C4A20118  35.201   4.521   7.569
 1416POPC   C1B20119  35.510   4.006   8.835
 1416POPC   C2B20120  35.580   4.181   8.432
 1416POPC   C3B20121  35.503   4.024   8.057
 1416POPC   C4B20122  35.547   4.132   7.636
 1417POPC   NC320123  26.806  34.700   9.434
 1417POPC   PO420124  26.621  33.940   9.494
 1417POPC   GL120125  26.699  34.250   9.181
 1417POPC   GL220126  26.423  34.506   9.178
 1417POPC   C1A20127  26.863  34.447   8.810
 1417POPC   D2A20128  26.728  34.341   8.415
 1417POPC   C3A20129  26.906  34.513   8.073
 1417POPC   C4A20130  26.974  34.337   7.712
 1417POPC   C1B20131  26.477  34.820   8.826
 1417POPC   C2B20132  26.668  34.847   8.404
 1417POPC   C3B20133  26.526  34.830   7.975
 1417POPC   C4B20134  26.778  34.798   7.626
 1418POPC   NC320135  36.801  21.021   9.414
 1418POPC   PO420136  36.605  20.445   9.539
 1418POPC   GL120137  36.798  20.542   9.126
 1418POPC   GL220138  37.153  20.659   9.150
 1418POPC   C1A20139  36.715  20.641   8.663
 1418POPC   D2A20140  36.464  20.850   8.300
 1418POPC   C3A20141  36.700  20.765   7.930
 1418POPC   C4A20142  37.006  20.407   7.952
 1418POPC   C1B20143  37.265  20.506   8.736
 1418POPC   C2B20144  37.308  20.656   8.300
 1418POPC   C3B20145  37.266  20.822   7.859
 1418POPC   C4B20146  37.167  20.558   7.439
 1419POPC   NC320147  14.172  27.428   9.594
 1419POPC   PO420148  14.624  27.790   9.532
 1419POPC   GL120149  14.569  27.483   9.197
 1419POPC   GL220150  14.861  27.670   9.074
 1419POPC   C1A20151  14.329  27.346   8.848
 1419POPC   D2A20152  14.265  27.507   8.407
 1419POPC   C3A20153  14.341  27.328   8.016
 1419POPC   C4A20154  14.412  27.660   7.711
 1419POPC   C1B20155  14.643  27.731   8.689
 1419POPC   C2B20156  14.699  27.812   8.238
 1419POPC   C3B20157  14.859  27.933   7.833
 1419POPC   C4B20158  14.770  27.843   7.377
 1420POPC   NC320159   0.343   4.543   9.521
 1420POPC   PO420160   0.620   3.883   9.514
 1420POPC   GL120161   0.698   4.268   9.220
 1420POPC   GL220162   0.364   4.273   9.083
 1420POPC   C1A20163   0.675   4.588   8.851
 1420POPC   D2A20164   0.478   4.390   8.524
 1420POPC   C3A20165   0.483   4.499   8.100
 1420POPC   C4A20166   0.519   4.290   7.708
 1420POPC   C1B20167   0.123   4.118   8.744
 1420POPC   C2B20168   0.000   4.264   8.370
 1420POPC   C3B20169   0.093   4.179   7.970
 1420POPC   C4B20170  44.836   4.203   7.673
 1421POPC   NC320171  13.542   0.592   9.515
 1421POPC   PO420172  13.237   0.017   9.531
 1421POPC   GL120173  13.549   0.197   9.163
 1421POPC   GL220174  13.807   0.516   9.110
 1421POPC   C1A20175  13.531   0.361   8.731
 1421POPC   D2A20176  13.397   0.178   8.374
 1421POPC   C3A20177  13.606   0.230   8.004
 1421POPC   C4A20178  13.602   0.319   7.593
 1421POPC   C1B20179  13.937   0.705   8.716
 1421POPC   C2B20180  13.679   0.716   8.312
 1421POPC   C3B20181  13.680   0.728   7.873
 1421POPC   C4B20182  13.778   0.936   7.457
 1422POPC   NC320183  42.951  16.047   9.581
 1422POPC   PO420184  43.605  16.171   9.422
 1422POPC   GL120185  43.282  15.898   9.136
 1422POPC   GL220186  42.910  15.903   9.115
 1422POPC   C1A20187  43.097  15.666   8.720
 1422POPC   D2A20188  42.908  15.772   8.311
 1422POPC   C3A20189  43.050  15.691   7.876
 1422POPC   C4A20190  43.004  15.745   7.416
 1422POPC   C1B20191  42.986  16.165   8.779
 1422POPC   C2B20192  43.149  16.216   8.396
 1422POPC   C3B20193  42.861  16.314   8.097
 1422POPC   C4B20194  42.928  16.187   7.700
 1423POPC   NC320195  10.329  20.239   9.646
 1423POPC   PO420196  10.598  20.834   9.579
 1423POPC   GL120197  10.553  20.597   9.212
 1423POPC   GL220198  10.246  20.426   9.167
 1423POPC   C1A20199  10.478  20.742   8.797
 1423POPC   D2A20200  10.285  20.709   8.404
 1423POPC   C3A20201  10.585  20.766   8.088
 1423POPC   C4A20202  10.545  20.614   7.690
 1423POPC   C1B20203  10.480  20.240   8.809
 1423POPC   C2B20204  10.700  20.397   8.442
 1423POPC   C3B20205  10.756  20.276   8.004
 1423POPC   C4B20206  10.576  20.122   7.589
 1424POPC   NC320207  26.798  26.286   9.439
 1424POPC   PO420208  27.160  25.752   9.632
 1424POPC   GL120209  27.173  25.850   9.176
 1424POPC   GL220210  26.839  25.859   9.135
 1424POPC   C1A20211  27.139  25.957   8.695
 1424POPC   D2A20212  26.828  25.896   8.335
 1424POPC   C3A20213  26.967  25.961   7.907
 1424POPC   C4A20214  27.180  26.310   7.784
 1424POPC   C1B20215  26.669  26.125   8.790
 1424POPC   C2B20216  26.534  26.318   8.394
 1424POPC   C3B20217  26.656  26.354   7.997
 1424POPC   C4B20218  26.399  26.309   7.670
 1425POPC   NC320219  14.133  38.147   9.556
 1425POPC   PO420220  14.555  38.614   9.459
 1425POPC   GL120221  14.602  38.405   9.124
 1425POPC   GL220222  14.304  38.557   8.991
 1425POPC   C1A20223  14.773  38.636   8.809
 1425POPC   D2A20224  14.522  38.656   8.483
 1425POPC   C3A20225  14.708  38.573   8.106
 1425POPC   C4A20226  14.450  38.526   7.745
 1425POPC   C1B20227  13.975  38.845   8.879
 1425POPC   C2B20228  14.030  38.959   8.458
 1425POPC   C3B20229  14.127  38.648   8.163
 1425POPC   C4B20230  13.947  38.558   7.812
 1426POPC   NC320231  22.215  40.459   9.503
 1426POPC   PO420232  22.423  41.044   9.622
 1426POPC   GL120233  22.179  40.970   9.214
 1426POPC   GL220234  22.202  40.638   9.041
 1426POPC   C1A20235  22.086  41.050   8.754
 1426POPC   D2A20236  21.857  40.898   8.388
 1426POPC   C3A20237  22.012  41.048   7.976
 1426POPC   C4A20238  22.337  41.189   7.707
 1426POPC   C1B20239  22.427  40.618   8.655
 1426POPC   C2B20240  22.380  40.829   8.261
 1426POPC   C3B20241  22.480  40.724   7.840
 1426POPC   C4B20242  22.533  40.306   7.721
 1427POPC   NC320243  10.367   1.374   9.741
 1427POPC   PO420244  10.802   0.979   9.409
 1427POPC   GL120245  10.534   1.250   9.183
 1427POPC   GL220246  10.400   1.015   8.941
 1427POPC   C1A20247  10.569   1.453   8.763
 1427POPC   D2A20248  10.607   1.280   8.363
 1427POPC   C3A20249  10.415   1.376   7.955
 1427POPC   C4A20250  10.497   1.097   7.573
 1427POPC   C1B20251  10.803   0.946   8.746
 1427POPC   C2B20252  10.976   0.883   8.343
 1427POPC   C3B20253  10.814   1.027   7.984
 1427POPC   C4B20254  10.590   0.701   7.859
 1428POPC   NC320255  30.318   1.861   9.532
 1428POPC   PO420256  29.647   1.823   9.390
 1428POPC   GL120257  29.933   1.835   9.091
 1428POPC   GL220258  30.130   2.141   9.171
 1428POPC   C1A20259  29.757   1.784   8.698
 1428POPC   D2A20260  29.781   1.514   8.350
 1428POPC   C3A20261  30.034   1.693   8.041
 1428POPC   C4A20262  29.834   1.990   7.798
 1428POPC   C1B20263  30.250   2.132   8.780
 1428POPC   C2B20264  30.034   2.086   8.391
 1428POPC   C3B20265  30.229   2.219   8.043
 1428POPC   C4B20266  30.172   2.382   7.682
 1429POPC   NC320267  30.799   7.712   9.450
 1429POPC   PO420268  30.930   7.026   9.508
 1429POPC   GL120269  30.638   7.131   9.147
 1429POPC   GL220270  30.866   7.361   9.103
 1429POPC   C1A20271  30.524   7.408   8.759
 1429POPC   D2A20272  30.435   7.407   8.350
 1429POPC   C3A20273  30.676   7.163   8.109
 1429POPC   C4A20274  30.540   7.312   7.765
 1429POPC   C1B20275  31.046   7.589   8.784
 1429POPC   C2B20276  30.944   7.531   8.400
 1429POPC   C3B20277  31.112   7.587   8.044
 1429POPC   C4B20278  31.033   7.346   7.741
 1430POPC   NC320279  10.052  19.594   9.469
 1430POPC   PO420280  10.544  19.845   9.715
 1430POPC   GL120281  10.508  19.927   9.246
 1430POPC   GL220282  10.175  19.928   9.099
 1430POPC   C1A20283  10.588  19.742   8.797
 1430POPC   D2A20284  10.511  19.931   8.366
 1430POPC   C3A20285  10.618  19.764   7.949
 1430POPC   C4A20286  11.022  19.927   7.741
 1430POPC   C1B20287  10.103  19.777   8.664
 1430POPC   C2B20288  10.272  19.489   8.304
 1430POPC   C3B20289  10.159  19.399   7.855
 1430POPC   C4B20290  10.326  19.385   7.412
 1431POPC   NC320291  17.249  43.648   9.473
 1431POPC   PO420292  17.265  44.331   9.533
 1431POPC   GL120293  17.285  44.127   9.151
 1431POPC   GL220294  17.655  44.199   9.134
 1431POPC   C1A20295  17.451  43.770   8.875
 1431POPC   D2A20296  17.319  43.527   8.526
 1431POPC   C3A20297  17.658  43.542   8.247
 1431POPC   C4A20298  17.571  43.665   7.868
 1431POPC   C1B20299  17.527  44.243   8.720
 1431POPC   C2B20300  17.694  44.066   8.377
 1431POPC   C3B20301  17.526  44.186   8.026
 1431POPC   C4B20302  17.575  44.098   7.636
 1432POPC   NC320303  22.132  35.737   9.875
 1432POPC   PO420304  22.511  36.100   9.435
 1432POPC   GL120305  22.230  36.215   9.082
 1432POPC   GL220306  21.927  36.345   9.218
 1432POPC   C1A20307  22.232  36.032   8.655
 1432POPC   D2A20308  22.464  36.172   8.277
 1432POPC   C3A20309  22.150  36.186   7.945
 1432POPC   C4A20310  21.858  35.827   7.819
 1432POPC   C1B20311  21.820  36.450   8.793
 1432POPC   C2B20312  21.863  36.306   8.367
 1432POPC   C3B20313  21.796  36.562   7.981
 1432POPC   C4B20314  21.842  36.362   7.573
 1433POPC   NC320315  22.795  11.520   9.532
 1433POPC   PO420316  23.261  10.918   9.496
 1433POPC   GL120317  23.008  11.138   9.209
 1433POPC   GL220318  22.658  11.113   9.212
 1433POPC   C1A20319  23.024  11.134   8.775
 1433POPC   D2A20320  23.269  11.264   8.419
 1433POPC   C3A20321  22.989  11.504   8.205
 1433POPC   C4A20322  22.927  11.287   7.872
 1433POPC   C1B20323  22.643  11.475   8.889
 1433POPC   C2B20324  22.540  11.535   8.466
 1433POPC   C3B20325  22.450  11.254   8.145
 1433POPC   C4B20326  22.448  11.203   7.717
 1434POPC   NC320327   9.114   7.613   9.481
 1434POPC   PO420328   8.998   6.947   9.650
 1434POPC   GL120329   9.151   7.199   9.182
 1434POPC   GL220330   9.209   7.564   9.003
 1434POPC   C1A20331   8.972   7.227   8.718
 1434POPC   D2A20332   8.890   7.410   8.308
 1434POPC   C3A20333   8.999   7.227   7.902
 1434POPC   C4A20334   9.230   7.322   7.528
 1434POPC   C1B20335   8.973   7.779   8.685
 1434POPC   C2B20336   8.864   7.913   8.258
 1434POPC   C3B20337   9.097   7.724   7.915
 1434POPC   C4B20338   9.396   7.829   7.590
 1435POPC   NC320339  27.732  14.311   9.955
 1435POPC   PO420340  27.329  14.597   9.469
 1435POPC   GL120341  27.439  14.532   9.055
 1435POPC   GL220342  27.290  14.269   8.931
 1435POPC   C1A20343  27.757  14.434   8.765
 1435POPC   D2A20344  27.812  14.676   8.422
 1435POPC   C3A20345  27.815  14.453   8.065
 1435POPC   C4A20346  28.082  14.653   7.824
 1435POPC   C1B20347  27.137  14.531   8.643
 1435POPC   C2B20348  27.339  14.514   8.257
 1435POPC   C3B20349  27.332  14.262   7.887
 1435POPC   C4B20350  27.409  14.173   7.407
 1436POPC   NC320351  31.510  18.030   9.412
 1436POPC   PO420352  31.305  17.329   9.597
 1436POPC   GL120353  31.302  17.583   9.254
 1436POPC   GL220354  31.633  17.637   9.061
 1436POPC   C1A20355  31.201  17.501   8.819
 1436POPC   D2A20356  31.432  17.494   8.409
 1436POPC   C3A20357  31.173  17.317   8.085
 1436POPC   C4A20358  31.134  17.427   7.668
 1436POPC   C1B20359  31.914  17.757   8.695
 1436POPC   C2B20360  31.802  17.828   8.232
 1436POPC   C3B20361  31.620  17.551   7.901
 1436POPC   C4B20362  31.543  17.634   7.435
 1437POPC   NC320363   8.397   8.583   9.269
 1437POPC   PO420364   8.035   8.988   9.514
 1437POPC   GL120365   8.195   9.067   9.097
 1437POPC   GL220366   8.516   9.299   9.091
 1437POPC   C1A20367   8.172   8.785   8.706
 1437POPC   D2A20368   8.237   8.597   8.319
 1437POPC   C3A20369   7.968   8.813   8.010
 1437POPC   C4A20370   7.995   8.765   7.556
 1437POPC   C1B20371   8.381   9.237   8.653
 1437POPC   C2B20372   8.379   9.089   8.220
 1437POPC   C3B20373   8.309   9.107   7.779
 1437POPC   C4B20374   8.299   9.137   7.336
 1438POPC   NC320375  16.169   2.736   9.491
 1438POPC   PO420376  15.563   2.572   9.395
 1438POPC   GL120377  15.889   2.533   9.100
 1438POPC   GL220378  16.000   2.887   9.044
 1438POPC   C1A20379  16.154   2.459   8.763
 1438POPC   D2A20380  16.197   2.736   8.384
 1438POPC   C3A20381  15.899   2.707   8.062
 1438POPC   C4A20382  16.095   2.581   7.689
 1438POPC   C1B20383  15.788   2.846   8.673
 1438POPC   C2B20384  15.839   3.138   8.372
 1438POPC   C3B20385  16.114   3.160   8.061
 1438POPC   C4B20386  15.999   3.221   7.688
 1439POPC   NC320387  43.687   4.807   9.539
 1439POPC   PO420388  44.062   4.181   9.423
 1439POPC   GL120389  44.049   4.437   9.085
 1439POPC   GL220390  43.704   4.528   9.123
 1439POPC   C1A20391  44.132   4.379   8.654
 1439POPC   D2A20392  43.933   4.128   8.341
 1439POPC   C3A20393  44.018   4.243   7.919
 1439POPC   C4A20394  43.824   4.058   7.533
 1439POPC   C1B20395  43.605   4.312   8.757
 1439POPC   C2B20396  43.548   4.487   8.351
 1439POPC   C3B20397  43.512   4.356   7.940
 1439POPC   C4B20398  43.743   4.552   7.649
 1440POPC   NC320399  15.479  26.875   9.429
 1440POPC   PO420400  14.787  26.981   9.413
 1440POPC   GL120401  14.935  26.676   9.106
 1440POPC   GL220402  15.275  26.502   9.140
 1440POPC   C1A20403  15.116  26.793   8.714
 1440POPC   D2A20404  15.403  26.836   8.361
 1440POPC   C3A20405  15.191  27.042   8.043
 1440POPC   C4A20406  14.870  26.931   7.789
 1440POPC   C1B20407  15.534  26.481   8.759
 1440POPC   C2B20408  15.463  26.325   8.329
 1440POPC   C3B20409  15.613  26.552   7.965
 1440POPC   C4B20410  15.381  26.755   7.662
 1441POPC   NC320411  44.734   8.820   9.372
 1441POPC   PO420412  44.639   8.145   9.532
 1441POPC   GL120413  44.517   8.135   9.125
 1441POPC   GL220414  44.358   8.471   9.133
 1441POPC   C1A20415  44.777   8.176   8.756
 1441POPC   D2A20416  44.859   8.470   8.421
 1441POPC   C3A20417  44.870   8.246   8.027
 1441POPC   C4A20418  44.577   7.957   7.829
 1441POPC   C1B20419  44.285   8.312   8.703
 1441POPC   C2B20420  44.397   8.240   8.271
 1441POPC   C3B20421  44.431   8.451   7.880
 1441POPC   C4B20422  44.399   8.737   7.558
 1442POPC   NC320423  10.947  28.628  10.034
 1442POPC   PO420424  10.747  29.244   9.630
 1442POPC   GL120425  10.547  29.235   9.218
 1442POPC   GL220426  10.436  28.865   9.219
 1442POPC   C1A20427  10.633  29.393   8.756
 1442POPC   D2A20428  10.757  29.205   8.350
 1442POPC   C3A20429  10.469  29.161   7.985
 1442POPC   C4A20430  10.483  29.172   7.554
 1442POPC   C1B20431  10.639  28.882   8.820
 1442POPC   C2B20432  10.665  28.707   8.427
 1442POPC   C3B20433  10.785  28.767   8.024
 1442POPC   C4B20434  10.455  28.686   7.740
 1443POPC   NC320435  35.898  24.045   9.608
 1443POPC   PO420436  35.790  24.727   9.409
 1443POPC   GL120437  35.553  24.621   9.063
 1443POPC   GL220438  35.254  24.443   9.115
 1443POPC   C1A20439  35.372  24.708   8.670
 1443POPC   D2A20440  35.504  24.442   8.313
 1443POPC   C3A20441  35.466  24.652   7.917
 1443POPC   C4A20442  35.081  24.715   7.792
 1443POPC   C1B20443  35.211  24.226   8.692
 1443POPC   C2B20444  35.199  23.979   8.294
 1443POPC   C3B20445  35.505  23.992   7.946
 1443POPC   C4B20446  35.619  24.188   7.539
 1444POPC   NC320447   4.588  13.232   9.856
 1444POPC   PO420448   5.112  12.877   9.535
 1444POPC   GL120449   4.929  12.779   9.143
 1444POPC   GL220450   5.004  12.528   9.031
 1444POPC   C1A20451   4.829  12.933   8.750
 1444POPC   D2A20452   4.906  12.703   8.412
 1444POPC   C3A20453   5.006  12.901   8.047
 1444POPC   C4A20454   4.858  12.893   7.644
 1444POPC   C1B20455   5.240  12.405   8.687
 1444POPC   C2B20456   5.403  12.590   8.312
 1444POPC   C3B20457   5.319  12.550   7.861
 1444POPC   C4B20458   5.583  12.659   7.579
 1445POPC   NC320459  40.446  41.285   9.648
 1445POPC   PO420460  39.945  40.817   9.522
 1445POPC   GL120461  39.848  40.733   9.138
 1445POPC   GL220462  39.533  40.586   9.089
 1445POPC   C1A20463  40.018  40.832   8.751
 1445POPC   D2A20464  40.149  40.654   8.378
 1445POPC   C3A20465  40.098  40.881   8.027
 1445POPC   C4A20466  40.043  40.707   7.636
 1445POPC   C1B20467  39.818  40.359   8.774
 1445POPC   C2B20468  39.920  40.204   8.372
 1445POPC   C3B20469  39.814  40.415   8.021
 1445POPC   C4B20470  39.495  40.446   7.704
 1446POPC   NC320471   3.053  16.883   9.561
 1446POPC   PO420472   2.552  16.516   9.742
 1446POPC   GL120473   2.622  16.628   9.283
 1446POPC   GL220474   2.954  16.470   9.214
 1446POPC   C1A20475   2.534  16.834   8.838
 1446POPC   D2A20476   2.556  16.645   8.373
 1446POPC   C3A20477   2.532  16.868   7.952
 1446POPC   C4A20478   2.530  16.610   7.568
 1446POPC   C1B20479   2.869  16.464   8.764
 1446POPC   C2B20480   3.073  16.478   8.350
 1446POPC   C3B20481   2.926  16.545   7.943
 1446POPC   C4B20482   2.984  16.907   7.671
 1447POPC   NC320483  28.811  31.015   9.276
 1447POPC   PO420484  29.218  31.393   9.731
 1447POPC   GL120485  28.969  31.508   9.312
 1447POPC   GL220486  28.913  31.775   9.192
 1447POPC   C1A20487  28.920  31.482   8.799
 1447POPC   D2A20488  28.950  31.634   8.388
 1447POPC   C3A20489  28.966  31.348   8.026
 1447POPC   C4A20490  28.925  31.557   7.645
 1447POPC   C1B20491  29.364  31.681   8.978
 1447POPC   C2B20492  29.443  31.727   8.544
 1447POPC   C3B20493  29.423  31.546   8.157
 1447POPC   C4B20494  29.432  31.673   7.764
 1448POPC   NC320495  38.620  31.613   9.607
 1448POPC   PO420496  38.159  31.263   9.229
 1448POPC   GL120497  38.619  31.316   9.179
 1448POPC   GL220498  38.817  31.648   9.129
 1448POPC   C1A20499  38.822  31.218   8.817
 1448POPC   D2A20500  38.724  31.383   8.431
 1448POPC   C3A20501  38.757  31.157   8.049
 1448POPC   C4A20502  38.563  31.397   7.740
 1448POPC   C1B20503  38.544  31.712   8.790
 1448POPC   C2B20504  38.493  31.898   8.370
 1448POPC   C3B20505  38.336  31.837   7.954
 1448POPC   C4B20506  38.020  31.959   7.624
 1449POPC   NC320507  38.141  30.567   9.596
 1449POPC   PO420508  38.457  31.183   9.714
 1449POPC   GL120509  38.408  30.846   9.278
 1449POPC   GL220510  38.253  30.535   9.113
 1449POPC   C1A20511  38.449  30.883   8.824
 1449POPC   D2A20512  38.507  30.909   8.438
 1449POPC   C3A20513  38.154  30.833   8.233
 1449POPC   C4A20514  38.359  30.743   7.860
 1449POPC   C1B20515  38.342  30.417   8.653
 1449POPC   C2B20516  38.350  30.339   8.231
 1449POPC   C3B20517  38.538  30.259   7.860
 1449POPC   C4B20518  38.554  30.450   7.472
 1450POPC   NC320519  29.659  23.784   9.347
 1450POPC   PO420520  30.081  23.334   9.627
 1450POPC   GL120521  30.034  23.477   9.165
 1450POPC   GL220522  30.147  23.861   9.188
 1450POPC   C1A20523  29.771  23.529   8.743
 1450POPC   D2A20524  29.680  23.917   8.451
 1450POPC   C3A20525  29.619  23.848   8.012
 1450POPC   C4A20526  29.823  23.469   7.878
 1450POPC   C1B20527  30.122  23.898   8.748
 1450POPC   C2B20528  30.201  23.518   8.474
 1450POPC   C3B20529  30.312  23.470   8.052
 1450POPC   C4B20530  30.159  23.872   7.904
 1451POPC   NC320531  21.751  42.010   9.263
 1451POPC   PO420532  21.896  42.566   9.629
 1451POPC   GL120533  22.050  42.471   9.167
 1451POPC   GL220534  22.433  42.517   9.152
 1451POPC   C1A20535  22.088  42.202   8.750
 1451POPC   D2A20536  22.197  41.858   8.464
 1451POPC   C3A20537  22.164  42.025   8.074
 1451POPC   C4A20538  21.949  42.273   7.795
 1451POPC   C1B20539  22.299  42.658   8.737
 1451POPC   C2B20540  22.175  42.533   8.333
 1451POPC   C3B20541  22.374  42.511   7.943
 1451POPC   C4B20542  22.185  42.798   7.642
 1452POPC   NC320543  37.257  44.384   9.377
 1452POPC   PO420544  37.871  44.478   9.393
 1452POPC   GL120545  37.624  44.530   8.990
 1452POPC   GL220546  37.297  44.716   8.986
 1452POPC   C1A20547  37.702  44.499   8.511
 1452POPC   D2A20548  37.926  44.628   8.140
 1452POPC   C3A20549  37.581  44.569   7.918
 1452POPC   C4A20550  37.415  44.684   7.578
 1452POPC   C1B20551  37.536  44.958   8.650
 1452POPC   C2B20552  37.596   0.037   8.181
 1452POPC   C3B20553  37.606   0.351   7.821
 1452POPC   C4B20554  37.477   0.235   7.392
 1453POPC   NC320555  40.484   4.566   9.545
 1453POPC   PO420556  40.678   3.869   9.567
 1453POPC   GL120557  40.759   4.022   9.149
 1453POPC   GL220558  40.691   4.397   9.119
 1453POPC   C1A20559  40.865   4.119   8.731
 1453POPC   D2A20560  40.798   3.926   8.361
 1453POPC   C3A20561  40.889   4.155   8.023
 1453POPC   C4A20562  40.645   4.197   7.706
 1453POPC   C1B20563  40.909   4.624   8.797
 1453POPC   C2B20564  40.850   4.498   8.396
 1453POPC   C3B20565  40.755   4.639   8.008
 1453POPC   C4B20566  40.743   4.679   7.578
 1454POPC   NC320567  19.140   1.539   9.440
 1454POPC   PO420568  18.623   1.186   9.670
 1454POPC   GL120569  18.657   1.273   9.167
 1454POPC   GL220570  18.850   1.473   9.013
 1454POPC   C1A20571  18.759   1.096   8.721
 1454POPC   D2A20572  19.053   1.137   8.385
 1454POPC   C3A20573  18.852   0.923   8.107
 1454POPC   C4A20574  18.734   0.842   7.724
 1454POPC   C1B20575  19.231   1.435   8.743
 1454POPC   C2B20576  19.559   1.566   8.413
 1454POPC   C3B20577  19.576   1.351   8.022
 1454POPC   C4B20578  19.141   1.306   7.894
 1455POPC   NC320579  31.423   7.046   9.485
 1455POPC   PO420580  31.305   7.758   9.418
 1455POPC   GL120581  31.354   7.414   9.154
 1455POPC   GL220582  31.650   7.360   9.131
 1455POPC   C1A20583  31.387   7.202   8.747
 1455POPC   D2A20584  31.460   7.429   8.377
 1455POPC   C3A20585  31.468   7.228   7.959
 1455POPC   C4A20586  31.502   7.553   7.672
 1455POPC   C1B20587  31.650   7.675   8.804
 1455POPC   C2B20588  31.952   7.555   8.521
 1455POPC   C3B20589  31.916   7.300   8.186
 1455POPC   C4B20590  31.976   7.352   7.760
 1456POPC   NC320591  20.333  19.268   9.674
 1456POPC   PO420592  20.707  19.772   9.378
 1456POPC   GL120593  20.602  19.896   9.002
 1456POPC   GL220594  20.302  19.720   9.016
 1456POPC   C1A20595  20.835  20.065   8.661
 1456POPC   D2A20596  20.912  20.229   8.280
 1456POPC   C3A20597  20.809  19.910   8.044
 1456POPC   C4A20598  20.574  19.877   7.705
 1456POPC   C1B20599  20.401  19.592   8.599
 1456POPC   C2B20600  20.142  19.536   8.224
 1456POPC   C3B20601  20.202  19.530   7.782
 1456POPC   C4B20602  20.447  19.516   7.379
 1457POPC   NC320603  13.009  39.482   9.325
 1457POPC   PO420604  13.007  38.807   9.230
 1457POPC   GL120605  12.924  39.120   8.974
 1457POPC   GL220606  12.624  39.233   9.113
 1457POPC   C1A20607  12.977  39.335   8.615
 1457POPC   D2A20608  12.742  39.229   8.284
 1457POPC   C3A20609  13.006  39.146   7.986
 1457POPC   C4A20610  13.029  38.915   7.608
 1457POPC   C1B20611  12.503  39.507   8.755
 1457POPC   C2B20612  12.548  39.689   8.336
 1457POPC   C3B20613  12.493  39.503   7.908
 1457POPC   C4B20614  12.765  39.353   7.595
 1458POPC   NC320615   2.932  29.573   9.599
 1458POPC   PO420616   2.596  30.190   9.434
 1458POPC   GL120617   2.716  29.862   9.170
 1458POPC   GL220618   3.075  29.888   9.186
 1458POPC   C1A20619   2.636  29.815   8.734
 1458POPC   D2A20620   2.804  29.935   8.356
 1458POPC   C3A20621   2.509  30.010   8.033
 1458POPC   C4A20622   2.342  29.682   7.765
 1458POPC   C1B20623   3.131  29.701   8.791
 1458POPC   C2B20624   3.263  29.713   8.363
 1458POPC   C3B20625   3.129  29.853   7.972
 1458POPC   C4B20626   2.826  29.848   7.661
 1459POPC   NC320627   7.109  23.023   9.486
 1459POPC   PO420628   6.471  22.733   9.511
 1459POPC   GL120629   6.458  22.940   9.100
 1459POPC   GL220630   6.729  23.138   9.156
 1459POPC   C1A20631   6.428  23.211   8.709
 1459POPC   D2A20632   6.438  22.872   8.379
 1459POPC   C3A20633   6.594  22.932   7.983
 1459POPC   C4A20634   6.397  22.935   7.616
 1459POPC   C1B20635   6.861  22.964   8.759
 1459POPC   C2B20636   6.872  23.168   8.346
 1459POPC   C3B20637   7.073  23.111   7.925
 1459POPC   C4B20638   6.901  23.012   7.522
 1460POPC   NC320639  12.732   0.138   9.687
 1460POPC   PO420640  13.084   0.752   9.524
 1460POPC   GL120641  13.090   0.439   9.238
 1460POPC   GL220642  12.749   0.424   9.221
 1460POPC   C1A20643  13.055   0.480   8.794
 1460POPC   D2A20644  12.906   0.433   8.373
 1460POPC   C3A20645  13.211   0.590   8.085
 1460POPC   C4A20646  13.080   0.700   7.693
 1460POPC   C1B20647  12.555   0.408   8.807
 1460POPC   C2B20648  12.419   0.171   8.474
 1460POPC   C3B20649  12.576   0.086   8.087
 1460POPC   C4B20650  12.624   0.362   7.733
 1461POPC   NC320651  34.063  44.208   9.514
 1461POPC   PO420652  33.570  43.751   9.498
 1461POPC   GL120653  33.641  44.047   9.181
 1461POPC   GL220654  33.521  43.789   8.968
 1461POPC   C1A20655  33.849  44.153   8.792
 1461POPC   D2A20656  34.047  44.059   8.399
 1461POPC   C3A20657  33.918  44.135   7.970
 1461POPC   C4A20658  33.500  44.084   7.785
 1461POPC   C1B20659  33.840  43.636   8.707
 1461POPC   C2B20660  33.850  43.501   8.294
 1461POPC   C3B20661  33.766  43.661   7.875
 1461POPC   C4B20662  33.790  43.858   7.408
 1462POPC   NC320663   4.754  44.900   9.480
 1462POPC   PO420664   5.276  44.529   9.463
 1462POPC   GL120665   5.158  44.744   9.128
 1462POPC   GL220666   4.811  44.605   9.067
 1462POPC   C1A20667   5.340  44.799   8.718
 1462POPC   D2A20668   5.111  44.711   8.385
 1462POPC   C3A20669   5.308  44.685   8.031
 1462POPC   C4A20670   5.241  44.740   7.618
 1462POPC   C1B20671   4.862  44.960   8.771
 1462POPC   C2B20672   4.871   0.146   8.350
 1462POPC   C3B20673   4.891  44.955   7.972
 1462POPC   C4B20674   4.797  44.998   7.583
 1463POPC   NC320675   2.839  12.113   9.565
 1463POPC   PO420676   2.316  12.454   9.335
 1463POPC   GL120677   2.581  12.152   9.125
 1463POPC   GL220678   2.939  12.266   9.088
 1463POPC   C1A20679   2.613  11.938   8.729
 1463POPC   D2A20680   2.610  11.684   8.368
 1463POPC   C3A20681   2.621  11.963   8.012
 1463POPC   C4A20682   2.878  11.950   7.648
 1463POPC   C1B20683   3.086  12.137   8.703
 1463POPC   C2B20684   3.058  11.950   8.324
 1463POPC   C3B20685   3.074  12.242   8.002
 1463POPC   C4B20686   3.240  12.299   7.617
 1464POPC   NC320687  38.064   1.998   9.574
 1464POPC   PO420688  38.512   2.416   9.519
 1464POPC   GL120689  38.527   2.140   9.143
 1464POPC   GL220690  38.361   1.828   9.190
 1464POPC   C1A20691  38.736   2.095   8.718
 1464POPC   D2A20692  38.632   1.953   8.299
 1464POPC   C3A20693  38.811   2.067   7.911
 1464POPC   C4A20694  38.666   1.928   7.513
 1464POPC   C1B20695  38.444   1.663   8.748
 1464POPC   C2B20696  38.320   1.573   8.306
 1464POPC   C3B20697  38.306   1.781   7.886
 1464POPC   C4B20698  38.103   1.750   7.455
 1465POPC   NC320699  31.040  24.246   9.378
 1465POPC   PO420700  30.568  24.629   9.583
 1465POPC   GL120701  30.529  24.428   9.189
 1465POPC   GL220702  30.732  24.708   9.083
 1465POPC   C1A20703  30.679  24.182   8.796
 1465POPC   D2A20704  30.969  24.136   8.376
 1465POPC   C3A20705  30.849  24.222   7.900
 1465POPC   C4A20706  30.385  24.305   7.732
 1465POPC   C1B20707  30.847  24.624   8.652
 1465POPC   C2B20708  30.593  24.467   8.313
 1465POPC   C3B20709  30.657  24.663   7.958
 1465POPC   C4B20710  31.028  24.765   7.773
 1466POPC   NC320711  41.362   3.719   9.439
 1466POPC   PO420712  41.819   3.191   9.356
 1466POPC   GL120713  41.708   3.538   9.093
 1466POPC   GL220714  41.334   3.541   8.974
 1466POPC   C1A20715  41.737   3.661   8.681
 1466POPC   D2A20716  41.460   3.535   8.409
 1466POPC   C3A20717  41.671   3.670   8.091
 1466POPC   C4A20718  41.627   3.630   7.692
 1466POPC   C1B20719  41.322   3.921   8.757
 1466POPC   C2B20720  41.307   4.034   8.341
 1466POPC   C3B20721  41.197   3.777   7.989
 1466POPC   C4B20722  41.202   3.866   7.531
 1467POPC   NC320723  35.761  22.221   9.573
 1467POPC   PO420724  36.349  21.962   9.788
 1467POPC   GL120725  36.266  22.091   9.293
 1467POPC   GL220726  35.971  22.235   9.139
 1467POPC   C1A20727  36.338  22.128   8.837
 1467POPC   D2A20728  36.282  21.956   8.424
 1467POPC   C3A20729  36.140  22.180   8.078
 1467POPC   C4A20730  36.191  21.994   7.700
 1467POPC   C1B20731  35.821  22.488   8.833
 1467POPC   C2B20732  35.847  22.486   8.407
 1467POPC   C3B20733  35.659  22.396   8.017
 1467POPC   C4B20734  35.774  22.355   7.601
 1468POPC   NC320735   6.703  30.042   9.607
 1468POPC   PO420736   6.287  29.778   9.211
 1468POPC   GL120737   6.691  29.921   9.087
 1468POPC   GL220738   6.627  30.258   9.162
 1468POPC   C1A20739   6.935  29.951   8.697
 1468POPC   D2A20740   6.972  29.797   8.270
 1468POPC   C3A20741   6.604  29.760   7.964
 1468POPC   C4A20742   6.817  29.807   7.576
 1468POPC   C1B20743   6.548  30.317   8.757
 1468POPC   C2B20744   6.517  30.050   8.414
 1468POPC   C3B20745   6.526  30.238   8.062
 1468POPC   C4B20746   6.510  30.195   7.677
 1469POPC   NC320747  25.167  13.194   9.668
 1469POPC   PO420748  25.611  13.681   9.466
 1469POPC   GL120749  25.337  13.537   9.138
 1469POPC   GL220750  25.053  13.292   9.178
 1469POPC   C1A20751  25.322  13.717   8.734
 1469POPC   D2A20752  25.120  13.828   8.363
 1469POPC   C3A20753  25.391  13.645   8.083
 1469POPC   C4A20754  25.316  13.461   7.688
 1469POPC   C1B20755  24.879  13.475   8.799
 1469POPC   C2B20756  24.683  13.461   8.418
 1469POPC   C3B20757  24.858  13.515   8.001
 1469POPC   C4B20758  25.063  13.894   7.825
 1470POPC   NC320759  10.266  44.913   9.713
 1470POPC   PO420760  10.595  44.329   9.654
 1470POPC   GL120761  10.515  44.678   9.330
 1470POPC   GL220762  10.153  44.753   9.222
 1470POPC   C1A20763  10.712  44.704   8.917
 1470POPC   D2A20764  10.706  44.392   8.560
 1470POPC   C3A20765  10.535  44.329   8.153
 1470POPC   C4A20766  10.747  44.368   7.727
 1470POPC   C1B20767  10.267  44.914   8.824
 1470POPC   C2B20768  10.546  44.912   8.455
 1470POPC   C3B20769  10.418  44.802   8.027
 1470POPC   C4B20770  10.209   0.036   7.735
 1471POPC   NC320771  28.267  15.490   9.594
 1471POPC   PO420772  28.661  15.023   9.487
 1471POPC   GL120773  28.468  15.231   9.128
 1471POPC   GL220774  28.662  15.520   9.226
 1471POPC   C1A20775  28.208  15.066   8.738
 1471POPC   D2A20776  28.269  14.869   8.299
 1471POPC   C3A20777  28.492  14.922   7.918
 1471POPC   C4A20778  28.236  15.253   7.796
 1471POPC   C1B20779  28.563  15.692   8.841
 1471POPC   C2B20780  28.388  15.485   8.519
 1471POPC   C3B20781  28.612  15.326   8.199
 1471POPC   C4B20782  28.720  15.652   7.952
 1472POPC   NC320783   6.128   9.168   9.379
 1472POPC   PO420784   5.714   8.662   9.656
 1472POPC   GL120785   5.922   8.692   9.235
 1472POPC   GL220786   6.278   8.728   9.123
 1472POPC   C1A20787   5.902   8.912   8.816
 1472POPC   D2A20788   5.952   8.694   8.447
 1472POPC   C3A20789   5.910   8.884   8.045
 1472POPC   C4A20790   5.598   9.176   7.858
 1472POPC   C1B20791   6.390   9.058   8.774
 1472POPC   C2B20792   6.279   9.196   8.345
 1472POPC   C3B20793   6.157   9.311   7.916
 1472POPC   C4B20794   6.293   9.203   7.509
 1473POPC   NC320795  16.516  43.171   9.527
 1473POPC   PO420796  16.909  42.633   9.546
 1473POPC   GL120797  16.950  42.854   9.158
 1473POPC   GL220798  16.901  43.202   9.195
 1473POPC   C1A20799  16.836  42.786   8.729
 1473POPC   D2A20800  16.711  42.703   8.297
 1473POPC   C3A20801  16.983  42.869   7.981
 1473POPC   C4A20802  16.902  43.009   7.566
 1473POPC   C1B20803  16.801  43.349   8.797
 1473POPC   C2B20804  16.892  43.198   8.398
 1473POPC   C3B20805  16.713  43.315   8.021
 1473POPC   C4B20806  16.760  43.499   7.614
 1474POPC   NC320807  36.426  14.006   9.322
 1474POPC   PO420808  35.816  14.474   9.502
 1474POPC   GL120809  36.055  14.351   9.198
 1474POPC   GL220810  36.249  14.655   9.193
 1474POPC   C1A20811  36.102  14.325   8.775
 1474POPC   D2A20812  35.864  14.493   8.451
 1474POPC   C3A20813  36.017  14.343   8.102
 1474POPC   C4A20814  36.146  14.377   7.718
 1474POPC   C1B20815  36.467  14.663   8.843
 1474POPC   C2B20816  36.383  14.632   8.405
 1474POPC   C3B20817  36.424  14.769   7.984
 1474POPC   C4B20818  36.561  14.598   7.583
 1475POPC   NC320819  44.928  44.217   9.585
 1475POPC   PO420820  44.646  44.810   9.526
 1475POPC   GL120821  44.606  44.710   9.126
 1475POPC   GL220822  44.695  44.358   9.157
 1475POPC   C1A20823  44.634  44.861   8.685
 1475POPC   D2A20824  44.464  44.500   8.435
 1475POPC   C3A20825  44.613  44.484   8.004
 1475POPC   C4A20826  44.868  44.832   7.845
 1475POPC   C1B20827  44.928  44.476   8.807
 1475POPC   C2B20828  44.994  44.628   8.366
 1475POPC   C3B20829   0.137  44.404   7.987
 1475POPC   C4B20830   0.043  44.416   7.520
 1476POPC   NC320831  17.899  31.641   9.507
 1476POPC   PO420832  17.288  31.309   9.694
 1476POPC   GL120833  17.537  31.332   9.296
 1476POPC   GL220834  17.377  31.601   9.112
 1476POPC   C1A20835  17.800  31.337   8.901
 1476POPC   D2A20836  17.604  31.334   8.503
 1476POPC   C3A20837  17.752  31.205   8.106
 1476POPC   C4A20838  17.537  31.257   7.704
 1476POPC   C1B20839  17.548  31.789   8.727
 1476POPC   C2B20840  17.546  31.772   8.243
 1476POPC   C3B20841  17.385  31.738   7.810
 1476POPC   C4B20842  17.557  31.846   7.385
 1477POPC   NC320843   6.246  23.142   9.506
 1477POPC   PO420844   5.614  22.884   9.520
 1477POPC   GL120845   5.926  22.858   9.195
 1477POPC   GL220846   5.956  23.215   9.105
 1477POPC   C1A20847   6.075  22.864   8.752
 1477POPC   D2A20848   5.934  22.681   8.351
 1477POPC   C3A20849   6.001  22.844   7.935
 1477POPC   C4A20850   5.679  22.818   7.616
 1477POPC   C1B20851   5.904  23.371   8.695
 1477POPC   C2B20852   6.030  23.188   8.339
 1477POPC   C3B20853   6.219  23.291   7.985
 1477POPC   C4B20854   5.828  23.324   7.820
 1478POPC   NC320855  40.951  38.899   9.452
 1478POPC   PO420856  40.609  39.488   9.481
 1478POPC   GL120857  40.682  39.224   9.137
 1478POPC   GL220858  40.374  39.033   9.179
 1478POPC   C1A20859  40.889  39.229   8.711
 1478POPC   D2A20860  40.868  39.227   8.256
 1478POPC   C3A20861  41.087  39.318   7.933
 1478POPC   C4A20862  40.677  39.320   7.749
 1478POPC   C1B20863  40.517  38.874   8.813
 1478POPC   C2B20864  40.620  38.821   8.416
 1478POPC   C3B20865  40.428  38.998   8.071
 1478POPC   C4B20866  40.417  38.846   7.672
 1479POPC   NC320867   9.572  35.904   9.481
 1479POPC   PO420868   9.917  36.380   9.829
 1479POPC   GL120869   9.874  36.317   9.332
 1479POPC   GL220870   9.511  36.283   9.130
 1479POPC   C1A20871   9.950  36.055   8.925
 1479POPC   D2A20872   9.810  36.128   8.500
 1479POPC   C3A20873   9.757  36.029   8.057
 1479POPC   C4A20874   9.898  36.145   7.683
 1479POPC   C1B20875   9.298  36.152   8.707
 1479POPC   C2B20876   9.280  35.976   8.258
 1479POPC   C3B20877   9.314  36.028   7.782
 1479POPC   C4B20878   9.282  35.940   7.324
 1480POPC   NC320879  22.124   6.712   9.573
 1480POPC   PO420880  21.846   7.249   9.465
 1480POPC   GL120881  22.056   6.905   9.127
 1480POPC   GL220882  22.186   6.509   9.125
 1480POPC   C1A20883  21.999   6.764   8.721
 1480POPC   D2A20884  21.900   6.984   8.372
 1480POPC   C3A20885  22.018   6.761   8.013
 1480POPC   C4A20886  22.163   6.613   7.622
 1480POPC   C1B20887  22.270   6.291   8.767
 1480POPC   C2B20888  22.044   6.324   8.391
 1480POPC   C3B20889  22.044   6.243   7.977
 1480POPC   C4B20890  22.422   6.155   7.773
 1481POPC   NC320891   4.926   7.828   9.492
 1481POPC   PO420892   4.304   8.196   9.568
 1481POPC   GL120893   4.364   7.969   9.205
 1481POPC   GL220894   4.225   8.233   9.023
 1481POPC   C1A20895   4.508   7.943   8.740
 1481POPC   D2A20896   4.270   8.162   8.393
 1481POPC   C3A20897   4.193   8.138   7.938
 1481POPC   C4A20898   4.470   8.028   7.602
 1481POPC   C1B20899   4.474   8.510   8.727
 1481POPC   C2B20900   4.381   8.660   8.288
 1481POPC   C3B20901   4.550   8.505   7.898
 1481POPC   C4B20902   4.478   8.540   7.450
 1482POPC   NC320903  44.472  23.747   9.624
 1482POPC   PO420904   0.102  23.788   9.418
 1482POPC   GL120905  44.763  23.650   9.219
 1482POPC   GL220906  44.938  23.460   8.995
 1482POPC   C1A20907  44.423  23.541   8.961
 1482POPC   D2A20908  44.432  23.510   8.531
 1482POPC   C3A20909  44.563  23.844   8.258
 1482POPC   C4A20910  44.564  23.758   7.827
 1482POPC   C1B20911  44.842  23.818   8.731
 1482POPC   C2B20912   0.072  23.937   8.364
 1482POPC   C3B20913   0.010  23.641   8.043
 1482POPC   C4B20914   0.010  23.761   7.629
 1483POPC   NC320915  14.464  39.831   9.454
 1483POPC   PO420916  14.690  40.373   9.699
 1483POPC   GL120917  14.614  40.299   9.232
 1483POPC   GL220918  14.303  40.134   9.053
 1483POPC   C1A20919  14.744  40.148   8.808
 1483POPC   D2A20920  14.512  40.090   8.426
 1483POPC   C3A20921  14.771  40.004   8.055
 1483POPC   C4A20922  14.637  39.899   7.683
 1483POPC   C1B20923  14.339  39.755   8.807
 1483POPC   C2B20924  14.350  39.583   8.401
 1483POPC   C3B20925  14.259  39.803   8.022
 1483POPC   C4B20926  14.177  39.669   7.618
 1484POPC   NC320927  27.188  26.888   9.293
 1484POPC   PO420928  26.593  26.682   9.565
 1484POPC   GL120929  26.717  26.728   9.156
 1484POPC   GL220930  26.677  27.082   9.254
 1484POPC   C1A20931  26.813  26.622   8.704
 1484POPC   D2A20932  27.060  26.429   8.354
 1484POPC   C3A20933  27.020  26.730   8.013
 1484POPC   C4A20934  26.840  26.631   7.601
 1484POPC   C1B20935  26.732  27.117   8.826
 1484POPC   C2B20936  26.891  27.064   8.422
 1484POPC   C3B20937  26.636  27.110   8.079
 1484POPC   C4B20938  26.852  27.124   7.736
 1485POPC   NC320939  44.202  24.791   9.265
 1485POPC   PO420940  43.646  25.209   9.429
 1485POPC   GL120941  43.952  25.334   9.151
 1485POPC   GL220942  43.695  25.563   9.028
 1485POPC   C1A20943  44.026  25.269   8.747
 1485POPC   D2A20944  43.840  25.188   8.377
 1485POPC   C3A20945  44.065  25.171   7.996
 1485POPC   C4A20946  43.964  24.986   7.614
 1485POPC   C1B20947  43.690  25.684   8.629
 1485POPC   C2B20948  43.474  25.628   8.260
 1485POPC   C3B20949  43.583  25.622   7.854
 1485POPC   C4B20950  43.872  25.488   7.546
 1486POPC   NC320951   7.607  27.947   9.517
 1486POPC   PO420952   7.056  27.499   9.520
 1486POPC   GL120953   7.334  27.624   9.147
 1486POPC   GL220954   7.715  27.642   9.119
 1486POPC   C1A20955   7.432  27.405   8.728
 1486POPC   D2A20956   7.140  27.235   8.399
 1486POPC   C3A20957   7.064  27.491   8.040
 1486POPC   C4A20958   7.233  27.414   7.606
 1486POPC   C1B20959   7.602  27.891   8.743
 1486POPC   C2B20960   7.422  27.807   8.354
 1486POPC   C3B20961   7.527  27.677   7.956
 1486POPC   C4B20962   7.546  27.838   7.584
 1487POPC   NC320963  37.451  14.671   9.572
 1487POPC   PO420964  38.030  14.600   9.239
 1487POPC   GL120965  37.723  14.381   9.043
 1487POPC   GL220966  37.357  14.411   9.144
 1487POPC   C1A20967  37.836  14.326   8.618
 1487POPC   D2A20968  37.806  14.039   8.303
 1487POPC   C3A20969  37.824  14.272   7.973
 1487POPC   C4A20970  37.829  14.548   7.676
 1487POPC   C1B20971  37.335  14.250   8.722
 1487POPC   C2B20972  37.420  14.480   8.338
 1487POPC   C3B20973  37.367  14.446   7.909
 1487POPC   C4B20974  37.291  14.444   7.484
 1488POPC   NC320975  27.644  29.663   9.548
 1488POPC   PO420976  27.540  30.275   9.500
 1488POPC   GL120977  27.414  29.993   9.195
 1488POPC   GL220978  27.721  29.837   9.095
 1488POPC   C1A20979  27.378  30.002   8.742
 1488POPC   D2A20980  27.496  29.801   8.345
 1488POPC   C3A20981  27.267  29.893   7.995
 1488POPC   C4A20982  27.266  29.768   7.592
 1488POPC   C1B20983  27.878  29.800   8.730
 1488POPC   C2B20984  27.831  30.163   8.489
 1488POPC   C3B20985  27.855  30.146   8.060
 1488POPC   C4B20986  27.635  30.121   7.685
 1489POPC   NC320987  30.490  12.246   9.185
 1489POPC   PO420988  30.970  12.001   9.381
 1489POPC   GL120989  30.855  11.785   9.020
 1489POPC   GL220990  30.496  11.731   9.093
 1489POPC   C1A20991  30.939  11.984   8.618
 1489POPC   D2A20992  30.761  12.307   8.376
 1489POPC   C3A20993  30.853  12.218   7.974
 1489POPC   C4A20994  30.581  12.119   7.622
 1489POPC   C1B20995  30.435  11.886   8.649
 1489POPC   C2B20996  30.571  11.832   8.237
 1489POPC   C3B20997  30.823  11.733   7.906
 1489POPC   C4B20998  30.704  11.618   7.551
 1490POPC   NC320999  20.028  20.138   9.488
 1490POPC   PO421000  20.015  19.520   9.409
 1490POPC   GL121001  19.789  19.801   9.090
 1490POPC   GL221002  19.951  20.083   8.999
 1490POPC   C1A21003  19.582  19.914   8.695
 1490POPC   D2A21004  19.693  20.078   8.259
 1490POPC   C3A21005  19.650  19.838   7.859
 1490POPC   C4A21006  19.602  19.938   7.372
 1490POPC   C1B21007  20.100  20.003   8.615
 1490POPC   C2B21008  20.334  20.003   8.247
 1490POPC   C3B21009  20.121  20.040   7.858
 1490POPC   C4B21010  20.092  19.901   7.432
 1491POPC   NC321011  42.035  33.129   9.384
 1491POPC   PO421012  42.725  32.929   9.539
 1491POPC   GL121013  42.632  32.771   9.137
 1491POPC   GL221014  42.271  32.745   9.131
 1491POPC   C1A21015  42.559  32.953   8.716
 1491POPC   D2A21016  42.329  32.933   8.337
 1491POPC   C3A21017  42.510  33.050   7.926
 1491POPC   C4A21018  42.535  32.928   7.477
 1491POPC   C1B21019  42.014  32.872   8.762
 1491POPC   C2B21020  41.837  32.712   8.369
 1491POPC   C3B21021  42.046  32.716   7.972
 1491POPC   C4B21022  42.061  32.992   7.651
 1492POPC   NC321023  26.381  23.750   9.317
 1492POPC   PO421024  26.934  24.225   9.326
 1492POPC   GL121025  26.734  23.973   9.031
 1492POPC   GL221026  26.761  23.575   9.035
 1492POPC   C1A21027  26.866  24.017   8.648
 1492POPC   D2A21028  26.810  23.890   8.277
 1492POPC   C3A21029  26.949  24.018   7.897
 1492POPC   C4A21030  26.905  23.807   7.514
 1492POPC   C1B21031  26.630  23.530   8.607
 1492POPC   C2B21032  26.821  23.398   8.192
 1492POPC   C3B21033  26.617  23.415   7.769
 1492POPC   C4B21034  26.273  23.342   7.478
 1493POPC   NC321035   6.552  15.617   9.485
 1493POPC   PO421036   6.826  16.277   9.493
 1493POPC   GL121037   6.639  16.226   9.108
 1493POPC   GL221038   6.428  15.947   9.093
 1493POPC   C1A21039   6.713  16.079   8.676
 1493POPC   D2A21040   6.977  15.930   8.329
 1493POPC   C3A21041   6.812  16.100   7.955
 1493POPC   C4A21042   6.696  15.811   7.649
 1493POPC   C1B21043   6.337  15.707   8.707
 1493POPC   C2B21044   6.432  15.799   8.262
 1493POPC   C3B21045   6.290  15.622   7.868
 1493POPC   C4B21046   6.401  15.482   7.431
 1494POPC   NC321047  24.502  15.155   9.913
 1494POPC   PO421048  24.748  15.132   9.276
 1494POPC   GL121049  24.351  15.182   9.115
 1494POPC   GL221050  24.289  14.857   9.017
 1494POPC   C1A21051  24.252  15.417   8.738
 1494POPC   D2A21052  24.540  15.459   8.394
 1494POPC   C3A21053  24.448  15.468   7.956
 1494POPC   C4A21054  24.742  15.425   7.623
 1494POPC   C1B21055  24.533  14.991   8.678
 1494POPC   C2B21056  24.645  14.846   8.328
 1494POPC   C3B21057  24.681  15.032   7.990
 1494POPC   C4B21058  24.358  15.004   7.708
 1495POPC   NC321059  23.176  12.708   9.096
 1495POPC   PO421060  22.682  12.864   9.561
 1495POPC   GL121061  22.828  13.056   9.152
 1495POPC   GL221062  22.661  12.716   9.042
 1495POPC   C1A21063  22.917  13.192   8.687
 1495POPC   D2A21064  22.670  12.969   8.357
 1495POPC   C3A21065  22.725  13.012   7.917
 1495POPC   C4A21066  23.068  12.749   7.737
 1495POPC   C1B21067  22.744  12.517   8.618
 1495POPC   C2B21068  22.813  12.506   8.157
 1495POPC   C3B21069  22.621  12.530   7.755
 1495POPC   C4B21070  22.830  12.447   7.323
 1496POPC   NC321071   4.896  33.814   9.600
 1496POPC   PO421072   5.611  33.981   9.461
 1496POPC   GL121073   5.290  33.757   9.244
 1496POPC   GL221074   5.040  34.029   9.160
 1496POPC   C1A21075   5.330  33.584   8.848
 1496POPC   D2A21076   5.273  33.476   8.439
 1496POPC   C3A21077   5.274  33.712   8.075
 1496POPC   C4A21078   5.220  33.600   7.672
 1496POPC   C1B21079   5.306  34.088   8.828
 1496POPC   C2B21080   5.147  34.069   8.426
 1496POPC   C3B21081   5.388  34.235   8.110
 1496POPC   C4B21082   5.334  34.089   7.705
 1497POPC   NC321083  44.288   3.056   9.295
 1497POPC   PO421084  43.950   2.658   9.659
 1497POPC   GL121085  43.873   2.767   9.207
 1497POPC   GL221086  44.133   2.561   9.107
 1497POPC   C1A21087  43.706   3.011   8.817
 1497POPC   D2A21088  43.788   3.137   8.353
 1497POPC   C3A21089  43.707   2.865   8.002
 1497POPC   C4A21090  43.629   2.650   7.607
 1497POPC   C1B21091  44.192   2.772   8.703
 1497POPC   C2B21092  44.299   3.043   8.364
 1497POPC   C3B21093  44.243   2.978   7.932
 1497POPC   C4B21094  44.205   2.543   7.796
 1498POPC   NC321095  42.399  22.565   9.471
 1498POPC   PO421096  42.232  21.834   9.451
 1498POPC   GL121097  42.407  22.014   9.115
 1498POPC   GL221098  42.182  22.293   9.103
 1498POPC   C1A21099  42.217  22.002   8.700
 1498POPC   D2A21100  42.361  21.922   8.312
 1498POPC   C3A21101  42.113  22.008   7.999
 1498POPC   C4A21102  42.133  22.021   7.543
 1498POPC   C1B21103  42.447  22.460   8.777
 1498POPC   C2B21104  42.482  22.536   8.327
 1498POPC   C3B21105  42.524  22.314   7.981
 1498POPC   C4B21106  42.624  22.189   7.585
 1499POPC   NC321107  36.065  35.872   9.464
 1499POPC   PO421108  36.540  36.299   9.596
 1499POPC   GL121109  36.347  36.228   9.169
 1499POPC   GL221110  35.988  36.324   9.075
 1499POPC   C1A21111  36.221  35.962   8.808
 1499POPC   D2A21112  36.157  36.112   8.406
 1499POPC   C3A21113  36.094  35.965   7.997
 1499POPC   C4A21114  36.422  36.084   7.718
 1499POPC   C1B21115  35.805  36.362   8.648
 1499POPC   C2B21116  35.792  36.373   8.166
 1499POPC   C3B21117  35.793  36.322   7.714
 1499POPC   C4B21118  35.725  36.531   7.278
 1500POPC   NC321119  35.102  36.070   9.632
 1500POPC   PO421120  35.758  36.304   9.510
 1500POPC   GL121121  35.412  36.248   9.193
 1500POPC   GL221122  35.317  35.894   9.189
 1500POPC   C1A21123  35.335  36.474   8.800
 1500POPC   D2A21124  35.327  36.271   8.372
 1500POPC   C3A21125  35.329  36.461   7.938
 1500POPC   C4A21126  35.245  36.461   7.451
 1500POPC   C1B21127  35.505  35.952   8.781
 1500POPC   C2B21128  35.690  35.897   8.369
 1500POPC   C3B21129  35.495  35.955   7.973
 1500POPC   C4B21130  35.263  35.616   7.738
 1501POPC   NC321131   0.237  14.858   9.401
 1501POPC   PO421132   0.727  15.349   9.457
 1501POPC   GL121133   0.508  15.178   9.132
 1501POPC   GL221134   0.154  15.352   9.179
 1501POPC   C1A21135   0.507  14.990   8.718
 1501POPC   D2A21136   0.675  15.257   8.378
 1501POPC   C3A21137   0.841  15.124   8.006
 1501POPC   C4A21138   0.568  15.068   7.667
 1501POPC   C1B21139   0.015  15.139   8.796
 1501POPC   C2B21140   0.159  15.161   8.369
 1501POPC   C3B21141  44.982  15.266   7.979
 1501POPC   C4B21142   0.069  15.332   7.515
 1502POPC   NC321143  31.279  37.149   9.568
 1502POPC   PO421144  31.215  36.513   9.485
 1502POPC   GL121145  31.410  36.834   9.195
 1502POPC   GL221146  31.160  37.106   9.074
 1502POPC   C1A21147  31.647  36.907   8.837
 1502POPC   D2A21148  31.649  36.752   8.437
 1502POPC   C3A21149  31.599  36.975   8.048
 1502POPC   C4A21150  31.481  36.731   7.698
 1502POPC   C1B21151  31.152  36.978   8.640
 1502POPC   C2B21152  31.128  37.156   8.225
 1502POPC   C3B21153  31.104  37.249   7.792
 1502POPC   C4B21154  31.289  37.123   7.401
 1503POPC   NC321155  30.620  21.607   9.436
 1503POPC   PO421156  30.519  20.972   9.626
 1503POPC   GL121157  30.586  21.154   9.213
 1503POPC   GL221158  30.887  21.059   9.089
 1503POPC   C1A21159  30.530  21.422   8.819
 1503POPC   D2A21160  30.471  21.647   8.421
 1503POPC   C3A21161  30.532  21.454   8.044
 1503POPC   C4A21162  30.279  21.177   7.834
 1503POPC   C1B21163  30.981  21.217   8.688
 1503POPC   C2B21164  30.969  21.486   8.314
 1503POPC   C3B21165  31.079  21.388   7.877
 1503POPC   C4B21166  30.914  21.508   7.411
 1504POPC   NC321167  29.486  43.676   9.465
 1504POPC   PO421168  29.090  44.254   9.535
 1504POPC   GL121169  28.797  44.033   9.191
 1504POPC   GL221170  28.930  43.690   9.088
 1504POPC   C1A21171  28.734  43.969   8.716
 1504POPC   D2A21172  29.024  43.781   8.416
 1504POPC   C3A21173  29.073  43.999   8.009
 1504POPC   C4A21174  28.963  44.349   7.747
 1504POPC   C1B21175  29.307  43.565   8.826
 1504POPC   C2B21176  29.500  43.548   8.430
 1504POPC   C3B21177  29.402  43.474   8.017
 1504POPC   C4B21178  29.280  43.676   7.672
 1505POPC   NC321179   0.873  44.889   9.418
 1505POPC   PO421180   0.295  44.515   9.560
 1505POPC   GL121181   0.337  44.654   9.162
 1505POPC   GL221182   0.642  44.481   9.130
 1505POPC   C1A21183   0.300  44.835   8.769
 1505POPC   D2A21184   0.502  44.706   8.427
 1505POPC   C3A21185   0.360  44.874   8.055
 1505POPC   C4A21186   0.406  44.700   7.673
 1505POPC   C1B21187   0.853  44.313   8.780
 1505POPC   C2B21188   0.959  44.479   8.381
 1505POPC   C3B21189   0.748  44.542   8.006
 1505POPC   C4B21190   0.836  44.433   7.591
 1506POPC   NC321191  17.296  37.934   9.525
 1506POPC   PO421192  17.796  37.494   9.725
 1506POPC   GL121193  17.603  37.598   9.269
 1506POPC   GL221194  17.250  37.429   9.240
 1506POPC   C1A21195  17.643  37.881   8.851
 1506POPC   D2A21196  17.777  38.092   8.403
 1506POPC   C3A21197  17.727  37.857   7.962
 1506POPC   C4A21198  17.695  37.746   7.484
 1506POPC   C1B21199  17.264  37.492   8.781
 1506POPC   C2B21200  17.437  37.710   8.421
 1506POPC   C3B21201  17.241  37.980   8.122
 1506POPC   C4B21202  17.212  37.698   7.791
 1507POPC   NC321203  24.370  25.878   9.625
 1507POPC   PO421204  24.086  26.440   9.417
 1507POPC   GL121205  24.324  26.066   9.148
 1507POPC   GL221206  24.713  26.026   9.193
 1507POPC   C1A21207  24.336  26.062   8.703
 1507POPC   D2A21208  24.487  26.239   8.323
 1507POPC   C3A21209  24.315  26.139   7.933
 1507POPC   C4A21210  24.253  25.753   7.760
 1507POPC   C1B21211  24.827  26.163   8.785
 1507POPC   C2B21212  24.873  25.898   8.427
 1507POPC   C3B21213  24.760  25.895   8.032
 1507POPC   C4B21214  24.808  26.308   7.934
 1508POPC   NC321215  37.139  43.385   9.401
 1508POPC   PO421216  37.728  43.172   9.755
 1508POPC   GL121217  37.731  43.192   9.289
 1508POPC   GL221218  37.890  43.458   9.149
 1508POPC   C1A21219  37.886  43.013   8.877
 1508POPC   D2A21220  37.719  42.992   8.432
 1508POPC   C3A21221  37.885  42.922   7.995
 1508POPC   C4A21222  37.545  42.947   7.671
 1508POPC   C1B21223  37.856  43.499   8.703
 1508POPC   C2B21224  37.787  43.536   8.270
 1508POPC   C3B21225  37.590  43.348   7.961
 1508POPC   C4B21226  37.845  43.346   7.583
 1509POPC   NC321227  31.128  31.896   9.421
 1509POPC   PO421228  31.420  32.480   9.539
 1509POPC   GL121229  31.407  32.249   9.149
 1509POPC   GL221230  31.047  32.339   9.114
 1509POPC   C1A21231  31.670  32.241   8.748
 1509POPC   D2A21232  31.646  32.567   8.352
 1509POPC   C3A21233  31.649  32.544   7.867
 1509POPC   C4A21234  31.595  32.226   7.500
 1509POPC   C1B21235  31.160  32.326   8.669
 1509POPC   C2B21236  31.389  32.095   8.355
 1509POPC   C3B21237  31.408  32.103   7.943
 1509POPC   C4B21238  31.157  32.413   7.710
 1510POPC   NC321239   3.271   5.601   9.430
 1510POPC   PO421240   3.268   6.291   9.400
 1510POPC   GL121241   3.556   6.003   9.249
 1510POPC   GL221242   3.808   6.176   9.133
 1510POPC   C1A21243   3.582   5.840   8.830
 1510POPC   D2A21244   3.301   5.899   8.488
 1510POPC   C3A21245   3.506   5.864   8.100
 1510POPC   C4A21246   3.316   5.680   7.725
 1510POPC   C1B21247   3.884   6.382   8.803
 1510POPC   C2B21248   3.762   6.178   8.436
 1510POPC   C3B21249   3.883   6.273   8.040
 1510POPC   C4B21250   3.787   6.128   7.652
 1511POPC   NC321251   1.696  17.925   9.302
 1511POPC   PO421252   1.214  18.356   9.608
 1511POPC   GL121253   1.307  18.380   9.148
 1511POPC   GL221254   0.969  18.212   9.029
 1511POPC   C1A21255   1.167  18.617   8.765
 1511POPC   D2A21256   1.231  18.803   8.358
 1511POPC   C3A21257   1.296  18.564   8.014
 1511POPC   C4A21258   1.102  18.188   7.862
 1511POPC   C1B21259   1.304  18.113   8.709
 1511POPC   C2B21260   1.438  18.144   8.279
 1511POPC   C3B21261   1.514  17.914   7.891
 1511POPC   C4B21262   1.734  17.855   7.558
 1512POPC   NC321263  33.841  23.474   9.500
 1512POPC   PO421264  33.692  24.005   9.486
 1512POPC   GL121265  33.604  23.732   9.129
 1512POPC   GL221266  33.941  23.629   9.025
 1512POPC   C1A21267  33.512  23.521   8.760
 1512POPC   D2A21268  33.761  23.584   8.400
 1512POPC   C3A21269  33.558  23.632   8.015
 1512POPC   C4A21270  33.694  23.613   7.636
 1512POPC   C1B21271  33.915  23.994   8.756
 1512POPC   C2B21272  34.007  24.045   8.331
 1512POPC   C3B21273  34.061  23.828   7.929
 1512POPC   C4B21274  33.942  24.022   7.508
 1513POPC   NC321275  20.123  26.666   9.403
 1513POPC   PO421276  19.480  26.900   9.395
 1513POPC   GL121277  19.737  26.802   9.092
 1513POPC   GL221278  19.942  27.082   9.153
 1513POPC   C1A21279  19.988  26.813   8.719
 1513POPC   D2A21280  19.965  26.566   8.345
 1513POPC   C3A21281  20.083  26.818   8.038
 1513POPC   C4A21282  19.952  26.871   7.649
 1513POPC   C1B21283  19.615  27.158   8.762
 1513POPC   C2B21284  19.605  26.938   8.384
 1513POPC   C3B21285  19.568  26.727   8.015
 1513POPC   C4B21286  19.469  26.916   7.598
 1514POPC   NC321287   6.907  42.633   9.447
 1514POPC   PO421288   6.336  42.201   9.415
 1514POPC   GL121289   6.409  42.432   9.036
 1514POPC   GL221290   6.755  42.537   8.976
 1514POPC   C1A21291   6.512  42.380   8.573
 1514POPC   D2A21292   6.594  42.638   8.218
 1514POPC   C3A21293   6.410  42.463   7.841
 1514POPC   C4A21294   6.602  42.176   7.550
 1514POPC   C1B21295   7.029  42.504   8.602
 1514POPC   C2B21296   7.223  42.501   8.183
 1514POPC   C3B21297   6.946  42.424   7.844
 1514POPC   C4B21298   7.003  42.498   7.388
 1515POPC   NC321299   6.685  43.187   9.948
 1515POPC   PO421300   6.756  43.848   9.607
 1515POPC   GL121301   6.607  43.907   9.202
 1515POPC   GL221302   6.328  43.734   9.175
 1515POPC   C1A21303   6.755  43.787   8.794
 1515POPC   D2A21304   6.988  43.788   8.429
 1515POPC   C3A21305   6.836  43.905   8.065
 1515POPC   C4A21306   6.880  43.836   7.689
 1515POPC   C1B21307   6.281  43.991   8.803
 1515POPC   C2B21308   6.449  43.950   8.395
 1515POPC   C3B21309   6.358  44.078   7.991
 1515POPC   C4B21310   6.359  43.864   7.609
 1516POPC   NC321311  36.406  30.455   9.592
 1516POPC   PO421312  37.071  30.547   9.439
 1516POPC   GL121313  37.001  30.519   9.015
 1516POPC   GL221314  37.058  30.884   8.973
 1516POPC   C1A21315  36.910  30.505   8.573
 1516POPC   D2A21316  37.094  30.639   8.207
 1516POPC   C3A21317  36.820  30.603   7.893
 1516POPC   C4A21318  36.712  30.675   7.478
 1516POPC   C1B21319  36.984  31.034   8.558
 1516POPC   C2B21320  36.709  30.987   8.216
 1516POPC   C3B21321  36.744  31.093   7.759
 1516POPC   C4B21322  36.630  31.372   7.410
 1517POPC   NC321323  32.086  35.030   9.439
 1517POPC   PO421324  32.615  35.442   9.458
 1517POPC   GL121325  32.363  35.575   9.066
 1517POPC   GL221326  32.061  35.401   9.044
 1517POPC   C1A21327  32.281  35.591   8.612
 1517POPC   D2A21328  32.446  35.693   8.217
 1517POPC   C3A21329  32.284  35.377   7.978
 1517POPC   C4A21330  32.087  35.430   7.607
 1517POPC   C1B21331  31.892  35.097   8.750
 1517POPC   C2B21332  31.913  35.135   8.295
 1517POPC   C3B21333  31.900  35.040   7.871
 1517POPC   C4B21334  32.256  34.967   7.605
 1518POPC   NC321335  22.502  32.562   9.507
 1518POPC   PO421336  21.873  32.452   9.581
 1518POPC   GL121337  22.112  32.285   9.216
 1518POPC   GL221338  22.293  32.495   9.041
 1518POPC   C1A21339  22.044  32.062   8.833
 1518POPC   D2A21340  22.285  32.010   8.469
 1518POPC   C3A21341  22.068  31.911   8.100
 1518POPC   C4A21342  22.133  32.112   7.744
 1518POPC   C1B21343  22.083  32.560   8.656
 1518POPC   C2B21344  22.007  32.447   8.213
 1518POPC   C3B21345  22.236  32.599   7.858
 1518POPC   C4B21346  22.537  32.432   7.606
 1519POPC   NC321347  38.633  38.621   9.473
 1519POPC   PO421348  38.236  38.085   9.438
 1519POPC   GL121349  38.409  38.300   9.117
 1519POPC   GL221350  38.211  38.621   9.107
 1519POPC   C1A21351  38.578  38.220   8.712
 1519POPC   D2A21352  38.459  38.348   8.305
 1519POPC   C3A21353  38.605  38.173   7.935
 1519POPC   C4A21354  38.521  38.291   7.531
 1519POPC   C1B21355  38.508  38.719   8.785
 1519POPC   C2B21356  38.610  38.822   8.353
 1519POPC   C3B21357  38.561  38.683   7.900
 1519POPC   C4B21358  38.630  38.766   7.444
 1520POPC   NC321359   6.985   6.053   9.670
 1520POPC   PO421360   7.559   5.816   9.370
 1520POPC   GL121361   7.377   5.717   9.010
 1520POPC   GL221362   7.136   5.491   9.120
 1520POPC   C1A21363   7.435   5.783   8.574
 1520POPC   D2A21364   7.687   5.732   8.234
 1520POPC   C3A21365   7.618   6.059   7.968
 1520POPC   C4A21366   7.189   6.068   7.872
 1520POPC   C1B21367   6.973   5.583   8.687
 1520POPC   C2B21368   7.029   5.628   8.222
 1520POPC   C3B21369   7.336   5.581   7.894
 1520POPC   C4B21370   7.744   5.615   7.688
 1521POPC   NC321371  25.258  29.479   9.372
 1521POPC   PO421372  25.613  28.921   9.506
 1521POPC   GL121373  25.416  29.053   9.119
 1521POPC   GL221374  25.050  28.992   9.088
 1521POPC   C1A21375  25.289  29.293   8.737
 1521POPC   D2A21376  25.046  29.423   8.379
 1521POPC   C3A21377  25.301  29.307   8.030
 1521POPC   C4A21378  25.224  29.416   7.617
 1521POPC   C1B21379  24.877  28.992   8.655
 1521POPC   C2B21380  25.017  28.913   8.220
 1521POPC   C3B21381  24.932  28.984   7.784
 1521POPC   C4B21382  24.896  28.838   7.333
 1522POPC   NC321383  23.726  21.100   9.523
 1522POPC   PO421384  23.982  21.633   9.564
 1522POPC   GL121385  23.815  21.454   9.178
 1522POPC   GL221386  24.005  21.137   9.103
 1522POPC   C1A21387  23.731  21.588   8.763
 1522POPC   D2A21388  23.446  21.419   8.436
 1522POPC   C3A21389  23.530  21.613   8.041
 1522POPC   C4A21390  23.651  21.475   7.654
 1522POPC   C1B21391  23.664  21.068   8.778
 1522POPC   C2B21392  23.666  20.857   8.363
 1522POPC   C3B21393  23.657  21.061   7.953
 1522POPC   C4B21394  23.779  21.013   7.493
 1523POPC   NC321395  43.805  23.344   9.432
 1523POPC   PO421396  43.656  22.666   9.488
 1523POPC   GL121397  43.907  22.716   9.089
 1523POPC   GL221398  44.314  22.714   9.152
 1523POPC   C1A21399  43.765  22.866   8.672
 1523POPC   D2A21400  43.595  22.955   8.246
 1523POPC   C3A21401  43.811  22.849   7.864
 1523POPC   C4A21402  43.712  22.953   7.442
 1523POPC   C1B21403  44.239  22.565   8.720
 1523POPC   C2B21404  44.077  22.700   8.307
 1523POPC   C3B21405  44.084  23.146   8.149
 1523POPC   C4B21406  44.260  23.128   7.754
 1524POPC   NC321407  28.491  36.881   9.510
 1524POPC   PO421408  28.077  36.540   9.201
 1524POPC   GL121409  28.290  36.829   9.027
 1524POPC   GL221410  28.640  36.871   9.014
 1524POPC   C1A21411  28.370  36.767   8.617
 1524POPC   D2A21412  28.532  36.842   8.287
 1524POPC   C3A21413  28.197  36.763   8.061
 1524POPC   C4A21414  28.169  36.909   7.686
 1524POPC   C1B21415  28.762  37.163   8.702
 1524POPC   C2B21416  28.570  37.371   8.355
 1524POPC   C3B21417  28.635  37.254   7.953
 1524POPC   C4B21418  28.694  36.837   7.801
 1525POPC   NC321419  27.872  43.591   9.452
 1525POPC   PO421420  27.535  44.127   9.396
 1525POPC   GL121421  27.507  44.008   9.032
 1525POPC   GL221422  27.239  44.222   8.969
 1525POPC   C1A21423  27.706  43.985   8.659
 1525POPC   D2A21424  27.700  43.591   8.438
 1525POPC   C3A21425  27.800  43.540   8.020
 1525POPC   C4A21426  27.624  43.757   7.686
 1525POPC   C1B21427  27.296  44.367   8.596
 1525POPC   C2B21428  27.418  44.133   8.250
 1525POPC   C3B21429  27.260  44.024   7.874
 1525POPC   C4B21430  27.328  44.089   7.414
 1526POPC   NC321431  31.581  39.473   9.293
 1526POPC   PO421432  31.153  39.155   9.667
 1526POPC   GL121433  31.345  39.051   9.122
 1526POPC   GL221434  31.375  39.428   8.851
 1526POPC   C1A21435  31.282  38.997   8.660
 1526POPC   D2A21436  31.426  39.269   8.354
 1526POPC   C3A21437  31.576  39.009   8.086
 1526POPC   C4A21438  31.432  39.167   7.738
 1526POPC   C1B21439  31.769  39.210   8.717
 1526POPC   C2B21440  31.989  39.204   8.326
 1526POPC   C3B21441  31.772  39.491   8.046
 1526POPC   C4B21442  31.755  39.553   7.627
 1527POPC   NC321443  37.035  18.582   9.530
 1527POPC   PO421444  36.556  18.146   9.546
 1527POPC   GL121445  36.924  18.115   9.227
 1527POPC   GL221446  37.258  18.090   9.053
 1527POPC   C1A21447  36.901  18.342   8.807
 1527POPC   D2A21448  36.720  18.535   8.451
 1527POPC   C3A21449  36.852  18.331   8.115
 1527POPC   C4A21450  36.933  18.051   7.795
 1527POPC   C1B21451  37.374  18.263   8.641
 1527POPC   C2B21452  37.288  18.557   8.324
 1527POPC   C3B21453  37.264  18.483   7.898
 1527POPC   C4B21454  36.926  18.547   7.650
 1528POPC   NC321455  17.980  40.895   9.416
 1528POPC   PO421456  18.445  40.454   9.425
 1528POPC   GL121457  18.348  40.697   9.085
 1528POPC   GL221458  18.033  40.530   9.022
 1528POPC   C1A21459  18.527  40.979   8.785
 1528POPC   D2A21460  18.583  41.168   8.367
 1528POPC   C3A21461  18.535  40.962   7.969
 1528POPC   C4A21462  18.229  40.930   7.674
 1528POPC   C1B21463  18.155  40.673   8.584
 1528POPC   C2B21464  18.137  40.600   8.120
 1528POPC   C3B21465  17.795  40.706   7.811
 1528POPC   C4B21466  17.814  40.829   7.366
 1529POPC   NC321467   0.145  15.852   9.462
 1529POPC   PO421468   0.761  16.216   9.533
 1529POPC   GL121469   0.641  16.050   9.157
 1529POPC   GL221470   0.547  15.712   9.157
 1529POPC   C1A21471   0.482  15.998   8.743
 1529POPC   D2A21472   0.136  16.088   8.508
 1529POPC   C3A21473   0.279  16.096   8.092
 1529POPC   C4A21474   0.668  15.934   7.899
 1529POPC   C1B21475   0.446  15.502   8.761
 1529POPC   C2B21476   0.346  15.641   8.341
 1529POPC   C3B21477   0.421  15.503   7.919
 1529POPC   C4B21478   0.305  15.777   7.573
 1530POPC   NC321479  42.387  39.000   9.463
 1530POPC   PO421480  42.568  39.616   9.497
 1530POPC   GL121481  42.481  39.426   9.127
 1530POPC   GL221482  42.640  39.117   9.007
 1530POPC   C1A21483  42.270  39.422   8.755
 1530POPC   D2A21484  42.363  39.262   8.368
 1530POPC   C3A21485  42.202  39.462   8.001
 1530POPC   C4A21486  42.493  39.492   7.662
 1530POPC   C1B21487  42.301  38.874   8.801
 1530POPC   C2B21488  42.141  38.802   8.389
 1530POPC   C3B21489  42.262  38.941   7.977
 1530POPC   C4B21490  42.182  38.723   7.628
 1531POPC   NC321491  27.815  21.592   9.376
 1531POPC   PO421492  27.241  21.299   9.473
 1531POPC   GL121493  27.507  21.257   9.126
 1531POPC   GL221494  27.874  21.117   9.162
 1531POPC   C1A21495  27.491  21.514   8.771
 1531POPC   D2A21496  27.204  21.601   8.428
 1531POPC   C3A21497  27.384  21.661   8.004
 1531POPC   C4A21498  27.382  21.312   7.744
 1531POPC   C1B21499  27.762  21.076   8.721
 1531POPC   C2B21500  27.704  21.305   8.359
 1531POPC   C3B21501  27.970  21.483   8.088
 1531POPC   C4B21502  27.859  21.567   7.700
 1532POPC   NC321503  25.024   4.375   9.428
 1532POPC   PO421504  24.318   4.231   9.297
 1532POPC   GL121505  24.646   4.374   9.099
 1532POPC   GL221506  24.781   4.020   9.136
 1532POPC   C1A21507  24.667   4.612   8.741
 1532POPC   D2A21508  24.457   4.572   8.338
 1532POPC   C3A21509  24.583   4.376   7.944
 1532POPC   C4A21510  24.235   4.108   7.783
 1532POPC   C1B21511  24.601   4.008   8.713
 1532POPC   C2B21512  24.766   3.994   8.276
 1532POPC   C3B21513  24.719   3.877   7.808
 1532POPC   C4B21514  24.725   4.161   7.408
 1533POPC   NC321515   8.481  20.739   9.570
 1533POPC   PO421516   9.140  20.832   9.555
 1533POPC   GL121517   9.027  20.566   9.180
 1533POPC   GL221518   9.365  20.587   8.990
 1533POPC   C1A21519   8.916  20.453   8.756
 1533POPC   D2A21520   9.210  20.480   8.409
 1533POPC   C3A21521   9.009  20.443   8.012
 1533POPC   C4A21522   8.663  20.703   7.860
 1533POPC   C1B21523   9.099  20.921   8.787
 1533POPC   C2B21524   8.931  20.964   8.351
 1533POPC   C3B21525   9.133  20.932   7.941
 1533POPC   C4B21526   9.002  20.819   7.495
 1534POPC   NC321527   1.498  12.694   9.412
 1534POPC   PO421528   0.936  13.062   9.636
 1534POPC   GL121529   0.920  12.860   9.237
 1534POPC   GL221530   0.872  13.163   9.068
 1534POPC   C1A21531   1.141  12.678   8.846
 1534POPC   D2A21532   1.409  12.795   8.502
 1534POPC   C3A21533   1.251  12.677   8.087
 1534POPC   C4A21534   1.411  12.696   7.667
 1534POPC   C1B21535   0.717  13.028   8.656
 1534POPC   C2B21536   0.758  13.305   8.308
 1534POPC   C3B21537   1.075  13.168   8.044
 1534POPC   C4B21538   0.957  12.891   7.707
 1535POPC   NC321539  20.008   3.253   9.771
 1535POPC   PO421540  20.118   2.662   9.432
 1535POPC   GL121541  19.806   2.693   9.136
 1535POPC   GL221542  19.566   2.492   9.283
 1535POPC   C1A21543  19.729   2.860   8.726
 1535POPC   D2A21544  19.902   2.778   8.352
 1535POPC   C3A21545  19.903   2.929   7.982
 1535POPC   C4A21546  20.168   2.741   7.678
 1535POPC   C1B21547  19.516   2.395   8.842
 1535POPC   C2B21548  19.436   2.543   8.443
 1535POPC   C3B21549  19.464   2.656   8.027
 1535POPC   C4B21550  19.654   2.704   7.605
 1536POPC   NC321551   8.694  24.951   9.776
 1536POPC   PO421552   8.107  24.745   9.456
 1536POPC   GL121553   8.165  24.480   9.141
 1536POPC   GL221554   8.439  24.325   9.255
 1536POPC   C1A21555   8.203  24.344   8.733
 1536POPC   D2A21556   8.309  24.569   8.383
 1536POPC   C3A21557   8.161  24.423   8.035
 1536POPC   C4A21558   8.063  24.608   7.679
 1536POPC   C1B21559   8.618  24.119   8.911
 1536POPC   C2B21560   8.631  24.182   8.443
 1536POPC   C3B21561   8.601  24.115   7.990
 1536POPC   C4B21562   8.458  24.312   7.583
 1537POPC   NC321563  28.730   9.566   9.255
 1537POPC   PO421564  28.149   9.264   9.436
 1537POPC   GL121565  28.218   9.492   9.067
 1537POPC   GL221566  28.317   9.840   9.146
 1537POPC   C1A21567  28.247   9.439   8.621
 1537POPC   D2A21568  28.288   9.775   8.304
 1537POPC   C3A21569  28.033   9.797   7.938
 1537POPC   C4A21570  28.259   9.597   7.659
 1537POPC   C1B21571  28.520   9.948   8.738
 1537POPC   C2B21572  28.649  10.143   8.315
 1537POPC   C3B21573  28.523  10.024   7.882
 1537POPC   C4B21574  28.714  10.214   7.486
 1538POPC   NC321575   2.133  16.490   9.560
 1538POPC   PO421576   1.810  17.097   9.496
 1538POPC   GL121577   1.893  16.925   9.103
 1538POPC   GL221578   2.116  16.636   9.089
 1538POPC   C1A21579   2.008  16.922   8.679
 1538POPC   D2A21580   2.135  16.945   8.267
 1538POPC   C3A21581   1.860  16.909   7.899
 1538POPC   C4A21582   2.088  16.872   7.510
 1538POPC   C1B21583   2.232  16.425   8.713
 1538POPC   C2B21584   2.186  16.262   8.331
 1538POPC   C3B21585   2.175  16.496   7.970
 1538POPC   C4B21586   2.150  16.279   7.615
 1539POPC   NC321587   9.866   9.321   9.489
 1539POPC   PO421588   9.758  10.023   9.623
 1539POPC   GL121589   9.764   9.754   9.258
 1539POPC   GL221590   9.489   9.744   9.081
 1539POPC   C1A21591   9.912   9.632   8.842
 1539POPC   D2A21592  10.170   9.928   8.604
 1539POPC   C3A21593  10.000   9.908   8.188
 1539POPC   C4A21594  10.004   9.839   7.741
 1539POPC   C1B21595   9.559   9.987   8.732
 1539POPC   C2B21596   9.454  10.021   8.304
 1539POPC   C3B21597   9.502   9.856   7.902
 1539POPC   C4B21598   9.571   9.981   7.478
 1540POPC   NC321599  14.101   3.935   9.711
 1540POPC   PO421600  14.548   3.399   9.692
 1540POPC   GL121601  14.497   3.587   9.270
 1540POPC   GL221602  14.433   3.333   8.987
 1540POPC   C1A21603  14.607   3.797   8.881
 1540POPC   D2A21604  14.470   3.603   8.495
 1540POPC   C3A21605  14.414   3.845   8.111
 1540POPC   C4A21606  14.153   3.709   7.774
 1540POPC   C1B21607  14.103   3.123   8.736
 1540POPC   C2B21608  13.921   3.123   8.318
 1540POPC   C3B21609  14.085   3.218   7.914
 1540POPC   C4B21610  14.002   3.204   7.484
 1541POPC   NC321611  25.389  25.047   9.754
 1541POPC   PO421612  24.933  24.959   9.278
 1541POPC   GL121613  25.025  25.399   9.190
 1541POPC   GL221614  25.334  25.527   9.061
 1541POPC   C1A21615  24.903  25.562   8.799
 1541POPC   D2A21616  24.816  25.390   8.381
 1541POPC   C3A21617  25.118  25.525   8.068
 1541POPC   C4A21618  25.161  25.298   7.703
 1541POPC   C1B21619  25.376  25.379   8.656
 1541POPC   C2B21620  25.425  25.171   8.282
 1541POPC   C3B21621  25.625  25.285   7.905
 1541POPC   C4B21622  25.576  25.447   7.476
 1542POPC   NC321623  12.588  22.777   9.475
 1542POPC   PO421624  12.890  23.380   9.395
 1542POPC   GL121625  12.872  23.027   9.112
 1542POPC   GL221626  12.891  22.630   9.088
 1542POPC   C1A21627  12.636  22.959   8.742
 1542POPC   D2A21628  12.860  23.014   8.368
 1542POPC   C3A21629  12.714  23.120   7.990
 1542POPC   C4A21630  12.681  22.910   7.617
 1542POPC   C1B21631  13.130  22.767   8.745
 1542POPC   C2B21632  13.186  22.617   8.358
 1542POPC   C3B21633  13.027  22.655   7.963
 1542POPC   C4B21634  13.187  23.029   7.825
 1543POPC   NC321635   1.963  23.152   9.470
 1543POPC   PO421636   1.877  22.412   9.501
 1543POPC   GL121637   1.919  22.759   9.135
 1543POPC   GL221638   1.843  23.144   8.995
 1543POPC   C1A21639   2.205  22.846   8.770
 1543POPC   D2A21640   2.463  22.704   8.436
 1543POPC   C3A21641   2.226  22.798   8.071
 1543POPC   C4A21642   2.279  22.691   7.678
 1543POPC   C1B21643   1.668  22.887   8.717
 1543POPC   C2B21644   1.769  22.753   8.321
 1543POPC   C3B21645   1.743  22.899   7.881
 1543POPC   C4B21646   1.959  23.022   7.497
 1544POPC   NC321647  21.857  30.745   9.506
 1544POPC   PO421648  21.195  30.817   9.472
 1544POPC   GL121649  21.495  30.762   9.135
 1544POPC   GL221650  21.748  31.040   9.122
 1544POPC   C1A21651  21.541  30.575   8.711
 1544POPC   D2A21652  21.222  30.412   8.408
 1544POPC   C3A21653  21.243  30.613   8.006
 1544POPC   C4A21654  21.457  30.619   7.587
 1544POPC   C1B21655  21.941  31.116   8.726
 1544POPC   C2B21656  21.805  30.897   8.372
 1544POPC   C3B21657  21.733  30.778   7.977
 1544POPC   C4B21658  21.803  31.056   7.633
 1545POPC   NC321659  23.082  36.274   9.424
 1545POPC   PO421660  23.374  35.802   9.782
 1545POPC   GL121661  23.307  35.820   9.284
 1545POPC   GL221662  22.926  35.809   9.257
 1545POPC   C1A21663  23.203  36.022   8.819
 1545POPC   D2A21664  22.966  36.316   8.479
 1545POPC   C3A21665  23.040  36.398   8.006
 1545POPC   C4A21666  23.102  36.192   7.606
 1545POPC   C1B21667  22.729  35.808   8.833
 1545POPC   C2B21668  22.960  35.779   8.440
 1545POPC   C3B21669  22.901  35.909   8.028
 1545POPC   C4B21670  22.631  36.148   7.773
 1546POPC   NC321671  19.130  15.066   9.424
 1546POPC   PO421672  18.862  15.710   9.356
 1546POPC   GL121673  19.030  15.414   9.069
 1546POPC   GL221674  18.856  15.095   8.995
 1546POPC   C1A21675  19.240  15.375   8.688
 1546POPC   D2A21676  18.961  15.325   8.357
 1546POPC   C3A21677  18.976  15.574   7.981
 1546POPC   C4A21678  19.305  15.578   7.668
 1546POPC   C1B21679  18.626  14.977   8.618
 1546POPC   C2B21680  18.829  14.857   8.214
 1546POPC   C3B21681  19.109  15.092   7.894
 1546POPC   C4B21682  18.907  15.302   7.516
 1547POPC   NC321683  24.061   9.642   9.523
 1547POPC   PO421684  24.477  10.101   9.308
 1547POPC   GL121685  24.376   9.725   9.119
 1547POPC   GL221686  24.718   9.620   9.189
 1547POPC   C1A21687  24.168   9.578   8.732
 1547POPC   D2A21688  24.007   9.564   8.290
 1547POPC   C3A21689  24.273   9.512   7.907
 1547POPC   C4A21690  24.414   9.813   7.558
 1547POPC   C1B21691  24.706   9.834   8.760
 1547POPC   C2B21692  24.512   9.780   8.378
 1547POPC   C3B21693  24.669   9.870   7.988
 1547POPC   C4B21694  24.763   9.501   7.734
 1548POPC   NC321695  44.145  34.064   9.377
 1548POPC   PO421696  44.871  34.023   9.412
 1548POPC   GL121697  44.597  33.971   9.056
 1548POPC   GL221698  44.409  34.229   8.991
 1548POPC   C1A21699  44.500  33.842   8.638
 1548POPC   D2A21700  44.779  33.679   8.314
 1548POPC   C3A21701  44.849  33.697   7.886
 1548POPC   C4A21702  44.869  33.739   7.427
 1548POPC   C1B21703  44.394  34.418   8.648
 1548POPC   C2B21704  44.236  34.221   8.326
 1548POPC   C3B21705  44.431  34.014   8.025
 1548POPC   C4B21706  44.404  33.761   7.680
 1549POPC   NC321707  16.397  18.710   9.489
 1549POPC   PO421708  17.067  18.948   9.670
 1549POPC   GL121709  17.010  19.121   9.245
 1549POPC   GL221710  16.732  18.929   9.153
 1549POPC   C1A21711  16.945  19.200   8.771
 1549POPC   D2A21712  16.712  19.266   8.359
 1549POPC   C3A21713  16.900  19.306   7.940
 1549POPC   C4A21714  16.799  19.151   7.517
 1549POPC   C1B21715  16.499  18.928   8.772
 1549POPC   C2B21716  16.424  18.839   8.340
 1549POPC   C3B21717  16.496  18.973   7.904
 1549POPC   C4B21718  16.369  18.811   7.506
 1550POPC   NC321719  24.228  28.978   9.437
 1550POPC   PO421720  24.899  29.222   9.528
 1550POPC   GL121721  24.690  29.336   9.204
 1550POPC   GL221722  24.527  29.075   9.046
 1550POPC   C1A21723  24.732  29.480   8.799
 1550POPC   D2A21724  24.513  29.320   8.427
 1550POPC   C3A21725  24.657  29.400   8.013
 1550POPC   C4A21726  24.306  29.382   7.712
 1550POPC   C1B21727  24.207  29.024   8.728
 1550POPC   C2B21728  24.311  28.771   8.362
 1550POPC   C3B21729  24.458  28.914   7.973
 1550POPC   C4B21730  24.441  28.920   7.529
 1551POPC   NC321731  27.840   2.598   9.590
 1551POPC   PO421732  27.500   3.174   9.480
 1551POPC   GL121733  27.574   2.820   9.225
 1551POPC   GL221734  27.244   2.765   9.166
 1551POPC   C1A21735  27.748   2.750   8.831
 1551POPC   D2A21736  27.806   2.931   8.405
 1551POPC   C3A21737  27.714   2.703   8.019
 1551POPC   C4A21738  27.731   2.864   7.613
 1551POPC   C1B21739  27.339   2.438   8.881
 1551POPC   C2B21740  27.516   2.464   8.480
 1551POPC   C3B21741  27.436   2.284   8.133
 1551POPC   C4B21742  27.291   2.419   7.760
 1552POPC   NC321743   7.610  19.620   9.591
 1552POPC   PO421744   7.263  20.154   9.669
 1552POPC   GL121745   7.401  20.063   9.228
 1552POPC   GL221746   7.390  19.705   9.138
 1552POPC   C1A21747   7.430  20.092   8.762
 1552POPC   D2A21748   7.455  19.852   8.369
 1552POPC   C3A21749   7.159  19.793   8.026
 1552POPC   C4A21750   7.454  19.883   7.718
 1552POPC   C1B21751   7.616  19.575   8.779
 1552POPC   C2B21752   7.661  19.365   8.370
 1552POPC   C3B21753   7.577  19.418   7.914
 1552POPC   C4B21754   7.462  19.442   7.443
 1553POPC   NC321755  37.029  41.352   9.422
 1553POPC   PO421756  36.959  41.998   9.479
 1553POPC   GL121757  36.954  41.738   9.095
 1553POPC   GL221758  36.649  41.483   9.086
 1553POPC   C1A21759  36.879  41.626   8.654
 1553POPC   D2A21760  36.686  41.413   8.341
 1553POPC   C3A21761  36.836  41.525   7.936
 1553POPC   C4A21762  37.038  41.591   7.554
 1553POPC   C1B21763  36.626  41.125   8.778
 1553POPC   C2B21764  36.790  40.909   8.399
 1553POPC   C3B21765  36.654  41.035   7.997
 1553POPC   C4B21766  36.466  41.191   7.626
 1554POPC   NC321767  13.883   8.269   9.707
 1554POPC   PO421768  14.483   8.154   9.430
 1554POPC   GL121769  14.519   8.002   9.071
 1554POPC   GL221770  14.579   7.659   9.119
 1554POPC   C1A21771  14.459   8.182   8.691
 1554POPC   D2A21772  14.332   8.474   8.410
 1554POPC   C3A21773  14.325   8.253   8.102
 1554POPC   C4A21774  14.597   8.282   7.785
 1554POPC   C1B21775  14.322   7.669   8.756
 1554POPC   C2B21776  14.106   7.891   8.464
 1554POPC   C3B21777  13.935   7.895   8.084
 1554POPC   C4B21778  14.194   7.940   7.737
 1555POPC   NC321779  44.642  26.311   9.481
 1555POPC   PO421780  44.336  25.671   9.469
 1555POPC   GL121781  44.611  25.933   9.131
 1555POPC   GL221782  44.875  26.207   9.042
 1555POPC   C1A21783  44.729  25.871   8.676
 1555POPC   D2A21784  44.567  25.729   8.265
 1555POPC   C3A21785  44.548  26.050   7.937
 1555POPC   C4A21786  44.292  26.400   7.801
 1555POPC   C1B21787  44.499  26.342   8.826
 1555POPC   C2B21788  44.573  26.335   8.402
 1555POPC   C3B21789  44.969  26.246   8.200
 1555POPC   C4B21790  44.997  26.279   7.763
 1556POPC   NC321791  17.371  42.653   9.417
 1556POPC   PO421792  17.599  43.351   9.455
 1556POPC   GL121793  17.398  43.132   9.169
 1556POPC   GL221794  17.644  42.970   9.082
 1556POPC   C1A21795  17.272  43.047   8.739
 1556POPC   D2A21796  17.403  43.065   8.308
 1556POPC   C3A21797  17.219  43.340   8.019
 1556POPC   C4A21798  17.251  43.380   7.584
 1556POPC   C1B21799  17.789  42.842   8.692
 1556POPC   C2B21800  17.915  43.104   8.377
 1556POPC   C3B21801  17.781  43.114   7.980
 1556POPC   C4B21802  17.454  42.936   7.787
 1557POPC   NC321803  15.758   7.537   9.683
 1557POPC   PO421804  15.039   7.392   9.586
 1557POPC   GL121805  15.203   7.348   9.158
 1557POPC   GL221806  15.161   7.710   9.074
 1557POPC   C1A21807  15.290   7.367   8.691
 1557POPC   D2A21808  15.163   7.663   8.346
 1557POPC   C3A21809  15.295   7.587   7.937
 1557POPC   C4A21810  15.196   7.223   7.686
 1557POPC   C1B21811  14.878   7.851   8.747
 1557POPC   C2B21812  14.636   7.798   8.370
 1557POPC   C3B21813  14.782   7.736   7.955
 1557POPC   C4B21814  15.040   7.917   7.654
 1558POPC   NC321815  19.660  40.550   9.354
 1558POPC   PO421816  19.799  41.193   9.536
 1558POPC   GL121817  19.887  40.932   9.114
 1558POPC   GL221818  19.660  41.045   8.909
 1558POPC   C1A21819  20.030  40.717   8.705
 1558POPC   D2A21820  20.057  40.822   8.236
 1558POPC   C3A21821  19.912  40.563   7.908
 1558POPC   C4A21822  19.582  40.351   7.692
 1558POPC   C1B21823  19.538  40.907   8.534
 1558POPC   C2B21824  19.271  40.591   8.360
 1558POPC   C3B21825  19.406  40.702   7.992
 1558POPC   C4B21826  19.693  41.033   7.836
 1559POPC   NC321827  11.053  43.270   9.675
 1559POPC   PO421828  11.636  43.541   9.494
 1559POPC   GL121829  11.462  43.329   9.068
 1559POPC   GL221830  11.105  43.181   8.931
 1559POPC   C1A21831  11.453  43.267   8.594
 1559POPC   D2A21832  11.120  43.032   8.353
 1559POPC   C3A21833  11.279  42.952   7.939
 1559POPC   C4A21834  11.746  42.992   7.919
 1559POPC   C1B21835  10.970  43.483   8.632
 1559POPC   C2B21836  11.095  43.563   8.236
 1559POPC   C3B21837  10.871  43.450   7.887
 1559POPC   C4B21838  11.087  43.361   7.549
 1560POPC   NC321839  21.981  29.953   9.337
 1560POPC   PO421840  22.407  30.407   9.690
 1560POPC   GL121841  22.451  30.155   9.236
 1560POPC   GL221842  22.381  29.753   9.115
 1560POPC   C1A21843  22.381  30.138   8.764
 1560POPC   D2A21844  22.300  29.815   8.442
 1560POPC   C3A21845  22.053  29.926   8.076
 1560POPC   C4A21846  22.178  30.013   7.653
 1560POPC   C1B21847  22.128  29.500   8.808
 1560POPC   C2B21848  22.145  29.324   8.376
 1560POPC   C3B21849  22.271  29.483   7.968
 1560POPC   C4B21850  21.997  29.374   7.652
 1561POPC   NC321851   0.051  12.411   9.454
 1561POPC   PO421852  44.614  11.805   9.475
 1561POPC   GL121853  44.546  11.988   9.080
 1561POPC   GL221854  44.858  12.102   9.100
 1561POPC   C1A21855  44.558  12.068   8.617
 1561POPC   D2A21856  44.488  11.854   8.195
 1561POPC   C3A21857  44.449  12.078   7.794
 1561POPC   C4A21858  44.448  11.978   7.342
 1561POPC   C1B21859   0.017  12.317   8.776
 1561POPC   C2B21860   0.166  12.444   8.373
 1561POPC   C3B21861   0.006  12.312   7.977
 1561POPC   C4B21862  44.892  12.179   7.560
 1562POPC   NC321863  30.899  44.204   9.491
 1562POPC   PO421864  30.617  43.573   9.566
 1562POPC   GL121865  30.534  43.907   9.235
 1562POPC   GL221866  30.341  44.209   9.334
 1562POPC   C1A21867  30.720  43.928   8.814
 1562POPC   D2A21868  30.672  43.639   8.474
 1562POPC   C3A21869  30.658  43.759   8.044
 1562POPC   C4A21870  30.482  43.517   7.681
 1562POPC   C1B21871  30.382  44.295   8.865
 1562POPC   C2B21872  30.427  44.116   8.404
 1562POPC   C3B21873  30.619  44.270   8.005
 1562POPC   C4B21874  30.514  44.363   7.568
 1563POPC   NC321875   2.707  39.724   9.599
 1563POPC   PO421876   3.126  40.214   9.462
 1563POPC   GL121877   3.045  39.878   9.163
 1563POPC   GL221878   2.685  39.734   9.099
 1563POPC   C1A21879   2.976  39.950   8.730
 1563POPC   D2A21880   2.684  40.166   8.511
 1563POPC   C3A21881   2.730  40.180   8.082
 1563POPC   C4A21882   2.522  40.309   7.703
 1563POPC   C1B21883   2.467  39.760   8.719
 1563POPC   C2B21884   2.579  39.696   8.307
 1563POPC   C3B21885   2.427  39.812   7.908
 1563POPC   C4B21886   2.252  39.542   7.648
 1564POPC   NC321887  11.519  37.203   9.334
 1564POPC   PO421888  11.420  37.982   9.556
 1564POPC   GL121889  11.355  37.699   9.212
 1564POPC   GL221890  11.684  37.642   9.142
 1564POPC   C1A21891  11.276  37.543   8.787
 1564POPC   D2A21892  10.987  37.587   8.425
 1564POPC   C3A21893  10.925  37.878   8.043
 1564POPC   C4A21894  11.137  37.784   7.639
 1564POPC   C1B21895  11.793  37.608   8.746
 1564POPC   C2B21896  11.583  37.523   8.377
 1564POPC   C3B21897  11.427  37.513   7.980
 1564POPC   C4B21898  11.641  37.574   7.575
 1565POPC   NC321899  18.426  20.421   9.503
 1565POPC   PO421900  18.155  19.824   9.525
 1565POPC   GL121901  18.326  19.796   9.149
 1565POPC   GL221902  18.688  19.884   9.162
 1565POPC   C1A21903  18.113  19.862   8.754
 1565POPC   D2A21904  18.273  19.778   8.395
 1565POPC   C3A21905  18.073  19.937   8.049
 1565POPC   C4A21906  18.145  19.729   7.690
 1565POPC   C1B21907  18.600  20.007   8.750
 1565POPC   C2B21908  18.752  20.116   8.352
 1565POPC   C3B21909  18.598  19.916   8.018
 1565POPC   C4B21910  18.679  19.835   7.649
 1566POPC   NC321911  42.888  20.204   9.277
 1566POPC   PO421912  43.317  19.691   9.463
 1566POPC   GL121913  43.212  19.553   9.078
 1566POPC   GL221914  43.198  19.913   8.999
 1566POPC   C1A21915  43.194  19.578   8.606
 1566POPC   D2A21916  42.861  19.660   8.323
 1566POPC   C3A21917  42.792  19.416   7.982
 1566POPC   C4A21918  42.970  19.654   7.677
 1566POPC   C1B21919  43.379  20.079   8.645
 1566POPC   C2B21920  43.300  19.959   8.218
 1566POPC   C3B21921  43.101  20.122   7.838
 1566POPC   C4B21922  43.344  20.297   7.485
 1567POPC   NC321923  30.131  27.603   9.277
 1567POPC   PO421924  30.749  27.917   9.485
 1567POPC   GL121925  30.758  27.665   9.139
 1567POPC   GL221926  30.696  27.334   9.286
 1567POPC   C1A21927  30.525  27.604   8.755
 1567POPC   D2A21928  30.322  27.854   8.436
 1567POPC   C3A21929  30.560  27.725   8.087
 1567POPC   C4A21930  30.497  27.833   7.690
 1567POPC   C1B21931  30.837  27.218   8.872
 1567POPC   C2B21932  30.848  27.275   8.431
 1567POPC   C3B21933  30.838  27.100   8.034
 1567POPC   C4B21934  30.722  27.324   7.677
 1568POPC   NC321935  36.436  11.410   9.523
 1568POPC   PO421936  35.842  11.087   9.516
 1568POPC   GL121937  36.029  11.367   9.202
 1568POPC   GL221938  36.323  11.324   9.037
 1568POPC   C1A21939  35.883  11.512   8.814
 1568POPC   D2A21940  36.053  11.363   8.437
 1568POPC   C3A21941  35.845  11.561   8.082
 1568POPC   C4A21942  35.903  11.443   7.664
 1568POPC   C1B21943  36.490  11.023   8.759
 1568POPC   C2B21944  36.616  11.097   8.341
 1568POPC   C3B21945  36.614  11.001   7.918
 1568POPC   C4B21946  36.306  11.092   7.609
 1569POPC   NC321947  25.082  22.442   9.771
 1569POPC   PO421948  25.513  21.963   9.692
 1569POPC   GL121949  25.578  22.165   9.275
 1569POPC   GL221950  25.567  21.861   9.130
 1569POPC   C1A21951  25.523  22.323   8.809
 1569POPC   D2A21952  25.568  22.287   8.357
 1569POPC   C3A21953  25.209  22.470   8.110
 1569POPC   C4A21954  25.289  22.293   7.690
 1569POPC   C1B21955  25.178  21.985   8.947
 1569POPC   C2B21956  25.094  22.108   8.529
 1569POPC   C3B21957  25.193  21.978   8.100
 1569POPC   C4B21958  24.872  21.996   7.790
 1570POPC   NC321959  28.318   0.265   9.805
 1570POPC   PO421960  28.205  44.604   9.537
 1570POPC   GL121961  28.350  44.501   9.168
 1570POPC   GL221962  28.141  44.730   8.999
 1570POPC   C1A21963  28.562  44.501   8.790
 1570POPC   D2A21964  28.457  44.731   8.469
 1570POPC   C3A21965  28.664  44.577   8.124
 1570POPC   C4A21966  28.470  44.541   7.750
 1570POPC   C1B21967  28.019  44.984   8.643
 1570POPC   C2B21968  28.046  44.918   8.211
 1570POPC   C3B21969  28.042   0.023   7.791
 1570POPC   C4B21970  28.125  44.772   7.430
 1571POPC   NC321971  37.737  13.468   9.635
 1571POPC   PO421972  37.287  13.959   9.430
 1571POPC   GL121973  37.727  13.878   9.212
 1571POPC   GL221974  37.830  13.495   9.143
 1571POPC   C1A21975  37.753  13.848   8.768
 1571POPC   D2A21976  37.364  13.798   8.473
 1571POPC   C3A21977  37.380  13.908   8.020
 1571POPC   C4A21978  37.790  13.759   7.876
 1571POPC   C1B21979  37.762  13.308   8.754
 1571POPC   C2B21980  37.812  13.504   8.381
 1571POPC   C3B21981  37.514  13.422   8.136
 1571POPC   C4B21982  37.652  13.261   7.820
 1572POPC   NC321983  18.089  32.867   9.454
 1572POPC   PO421984  18.255  33.544   9.489
 1572POPC   GL121985  18.344  33.229   9.182
 1572POPC   GL221986  17.989  33.212   9.077
 1572POPC   C1A21987  18.329  33.095   8.726
 1572POPC   D2A21988  18.030  33.070   8.374
 1572POPC   C3A21989  18.320  33.085   8.036
 1572POPC   C4A21990  18.523  33.127   7.653
 1572POPC   C1B21991  17.945  32.783   8.821
 1572POPC   C2B21992  18.024  32.520   8.440
 1572POPC   C3B21993  17.980  32.675   8.016
 1572POPC   C4B21994  18.232  32.703   7.702
 1573POPC   NC321995  37.890  11.805   9.461
 1573POPC   PO421996  37.329  12.188   9.462
 1573POPC   GL121997  37.577  12.059   9.131
 1573POPC   GL221998  37.542  11.726   9.070
 1573POPC   C1A21999  37.808  12.086   8.763
 1573POPC   D2A22000  37.878  11.906   8.388
 1573POPC   C3A22001  37.760  12.115   8.022
 1573POPC   C4A22002  37.741  11.914   7.661
 1573POPC   C1B22003  37.354  11.840   8.665
 1573POPC   C2B22004  37.430  11.778   8.224
 1573POPC   C3B22005  37.261  11.786   7.812
 1573POPC   C4B22006  37.352  11.776   7.364
 1574POPC   NC322007   7.424  13.147   9.781
 1574POPC   PO422008   7.628  13.773   9.574
 1574POPC   GL122009   7.693  13.626   9.165
 1574POPC   GL222010   7.927  13.926   9.169
 1574POPC   C1A22011   7.435  13.477   8.783
 1574POPC   D2A22012   7.428  13.692   8.414
 1574POPC   C3A22013   7.408  13.438   8.059
 1574POPC   C4A22014   7.321  13.633   7.665
 1574POPC   C1B22015   7.772  13.899   8.764
 1574POPC   C2B22016   7.890  13.943   8.380
 1574POPC   C3B22017   7.684  13.883   7.999
 1574POPC   C4B22018   7.806  13.774   7.617
 1575POPC   NC322019   6.894  39.632   9.829
 1575POPC   PO422020   6.717  39.077   9.570
 1575POPC   GL122021   6.644  39.041   9.126
 1575POPC   GL222022   6.723  39.391   9.066
 1575POPC   C1A22023   6.577  39.112   8.671
 1575POPC   D2A22024   6.355  39.130   8.266
 1575POPC   C3A22025   6.612  39.164   7.884
 1575POPC   C4A22026   6.903  39.190   7.544
 1575POPC   C1B22027   6.930  39.494   8.664
 1575POPC   C2B22028   6.844  39.384   8.264
 1575POPC   C3B22029   6.892  39.599   7.843
 1575POPC   C4B22030   7.222  39.555   7.479
 1576POPC   NC322031  28.008  33.645   9.581
 1576POPC   PO422032  28.765  33.738   9.474
 1576POPC   GL122033  28.513  33.868   9.130
 1576POPC   GL222034  28.560  34.220   9.007
 1576POPC   C1A22035  28.409  33.554   8.822
 1576POPC   D2A22036  28.516  33.309   8.443
 1576POPC   C3A22037  28.460  33.581   8.102
 1576POPC   C4A22038  28.058  33.681   7.902
 1576POPC   C1B22039  28.480  34.037   8.588
 1576POPC   C2B22040  28.097  34.013   8.319
 1576POPC   C3B22041  27.976  34.247   7.948
 1576POPC   C4B22042  28.138  34.142   7.555
 1577POPC   NC322043  31.254  12.763   9.572
 1577POPC   PO422044  31.861  12.662   9.285
 1577POPC   GL122045  31.767  12.958   9.017
 1577POPC   GL222046  31.406  13.001   9.108
 1577POPC   C1A22047  31.679  13.107   8.639
 1577POPC   D2A22048  31.298  13.029   8.409
 1577POPC   C3A22049  31.392  12.908   8.002
 1577POPC   C4A22050  31.621  12.710   7.705
 1577POPC   C1B22051  31.413  12.676   8.783
 1577POPC   C2B22052  31.265  12.448   8.427
 1577POPC   C3B22053  31.343  12.388   8.027
 1577POPC   C4B22054  31.196  12.427   7.653
 1578POPC   NC322055  11.868  34.200   9.631
 1578POPC   PO422056  12.349  33.609   9.509
 1578POPC   GL122057  12.229  33.700   9.125
 1578POPC   GL222058  11.944  33.758   9.164
 1578POPC   C1A22059  12.246  33.849   8.709
 1578POPC   D2A22060  12.070  33.804   8.308
 1578POPC   C3A22061  12.269  33.957   7.955
 1578POPC   C4A22062  11.942  33.828   7.762
 1578POPC   C1B22063  11.738  33.491   8.856
 1578POPC   C2B22064  11.562  33.619   8.453
 1578POPC   C3B22065  11.525  33.796   8.050
 1578POPC   C4B22066  11.535  33.578   7.615
 1579POPC   NC322067  18.622  44.877   9.512
 1579POPC   PO422068  18.114  44.389   9.450
 1579POPC   GL122069  18.268  44.532   9.095
 1579POPC   GL222070  18.191  44.881   9.135
 1579POPC   C1A22071  18.303  44.687   8.647
 1579POPC   D2A22072  18.521  44.688   8.248
 1579POPC   C3A22073  18.376  44.639   7.855
 1579POPC   C4A22074  18.399  44.916   7.519
 1579POPC   C1B22075  17.974   0.078   8.743
 1579POPC   C2B22076  18.083   0.031   8.289
 1579POPC   C3B22077  17.974  44.941   7.849
 1579POPC   C4B22078  17.913  44.860   7.368
 1580POPC   NC322079  36.131  39.283   9.558
 1580POPC   PO422080  35.898  38.805   9.212
 1580POPC   GL122081  36.054  39.168   9.073
 1580POPC   GL222082  35.820  39.429   9.171
 1580POPC   C1A22083  36.301  39.254   8.736
 1580POPC   D2A22084  36.404  39.414   8.347
 1580POPC   C3A22085  36.415  39.133   7.986
 1580POPC   C4A22086  36.371  39.012   7.572
 1580POPC   C1B22087  35.724  39.344   8.744
 1580POPC   C2B22088  35.857  39.476   8.395
 1580POPC   C3B22089  35.963  39.310   8.064
 1580POPC   C4B22090  36.103  39.436   7.698
 1581POPC   NC322091   3.287   7.468   9.540
 1581POPC   PO422092   3.836   7.910   9.377
 1581POPC   GL122093   3.545   7.685   9.163
 1581POPC   GL222094   3.170   7.666   9.103
 1581POPC   C1A22095   3.577   7.469   8.835
 1581POPC   D2A22096   3.765   7.447   8.451
 1581POPC   C3A22097   3.573   7.205   8.140
 1581POPC   C4A22098   3.595   7.497   7.790
 1581POPC   C1B22099   3.101   7.287   8.854
 1581POPC   C2B22100   3.236   7.408   8.460
 1581POPC   C3B22101   3.136   7.429   8.024
 1581POPC   C4B22102   2.976   7.675   7.723
 1582POPC   NC322103  13.547  33.725   9.609
 1582POPC   PO422104  13.815  34.310   9.553
 1582POPC   GL122105  13.772  33.918   9.207
 1582POPC   GL222106  13.403  33.916   9.143
 1582POPC   C1A22107  13.688  33.674   8.818
 1582POPC   D2A22108  13.461  33.906   8.491
 1582POPC   C3A22109  13.640  33.897   8.094
 1582POPC   C4A22110  13.668  33.889   7.667
 1582POPC   C1B22111  13.178  33.650   8.838
 1582POPC   C2B22112  13.037  33.647   8.407
 1582POPC   C3B22113  13.232  33.521   8.039
 1582POPC   C4B22114  13.216  33.664   7.662
 1583POPC   NC322115  44.267   7.306   9.554
 1583POPC   PO422116  44.874   7.481   9.524
 1583POPC   GL122117  44.603   7.532   9.157
 1583POPC   GL222118  44.360   7.257   9.045
 1583POPC   C1A22119  44.721   7.491   8.713
 1583POPC   D2A22120   0.062   7.540   8.403
 1583POPC   C3A22121   0.018   7.743   7.988
 1583POPC   C4A22122  44.960   7.781   7.542
 1583POPC   C1B22123  44.377   7.089   8.617
 1583POPC   C2B22124  44.619   7.225   8.265
 1583POPC   C3B22125  44.514   7.448   7.877
 1583POPC   C4B22126  44.237   7.212   7.543
 1584POPC   NC322127  27.733   9.138   9.337
 1584POPC   PO422128  27.164   9.009   9.103
 1584POPC   GL122129  27.583   9.006   8.875
 1584POPC   GL222130  27.759   9.333   8.842
 1584POPC   C1A22131  27.745   8.937   8.475
 1584POPC   D2A22132  27.558   8.682   8.164
 1584POPC   C3A22133  27.599   8.843   7.768
 1584POPC   C4A22134  27.377   9.144   7.499
 1584POPC   C1B22135  27.400   9.311   8.522
 1584POPC   C2B22136  27.502   9.213   8.108
 1584POPC   C3B22137  27.746   9.369   7.794
 1584POPC   C4B22138  27.505   9.672   7.519
 1585POPC   NC322139   6.938  32.410   9.468
 1585POPC   PO422140   6.303  32.390   9.271
 1585POPC   GL122141   6.652  32.510   9.048
 1585POPC   GL222142   6.752  32.154   9.057
 1585POPC   C1A22143   6.792  32.399   8.639
 1585POPC   D2A22144   6.587  32.350   8.287
 1585POPC   C3A22145   6.786  32.406   7.955
 1585POPC   C4A22146   6.437  32.383   7.722
 1585POPC   C1B22147   6.767  31.872   8.726
 1585POPC   C2B22148   6.947  31.980   8.382
 1585POPC   C3B22149   6.827  31.912   8.038
 1585POPC   C4B22150   6.790  31.983   7.654
 1586POPC   NC322151  43.012   1.759   9.559
 1586POPC   PO422152  43.252   2.428   9.569
 1586POPC   GL122153  43.167   2.134   9.220
 1586POPC   GL222154  42.861   2.192   9.066
 1586POPC   C1A22155  43.257   1.938   8.788
 1586POPC   D2A22156  43.364   1.744   8.348
 1586POPC   C3A22157  43.283   1.965   7.943
 1586POPC   C4A22158  43.318   1.885   7.464
 1586POPC   C1B22159  42.717   1.966   8.716
 1586POPC   C2B22160  42.613   1.739   8.335
 1586POPC   C3B22161  42.730   1.908   7.939
 1586POPC   C4B22162  42.827   2.074   7.551
 1587POPC   NC322163  28.097  25.229   9.520
 1587POPC   PO422164  28.610  25.532   9.334
 1587POPC   GL122165  28.267  25.456   9.063
 1587POPC   GL222166  28.030  25.161   9.036
 1587POPC   C1A22167  28.332  25.283   8.639
 1587POPC   D2A22168  28.291  24.978   8.315
 1587POPC   C3A22169  28.436  25.179   7.941
 1587POPC   C4A22170  28.615  25.098   7.534
 1587POPC   C1B22171  27.872  25.455   8.744
 1587POPC   C2B22172  27.864  25.289   8.356
 1587POPC   C3B22173  27.906  25.055   7.977
 1587POPC   C4B22174  28.071  25.206   7.579
 1588POPC   NC322175  15.163  14.134   9.383
 1588POPC   PO422176  15.344  14.831   9.432
 1588POPC   GL122177  15.152  14.637   9.112
 1588POPC   GL222178  15.457  14.452   9.012
 1588POPC   C1A22179  15.119  14.721   8.680
 1588POPC   D2A22180  15.304  14.520   8.327
 1588POPC   C3A22181  15.010  14.530   8.014
 1588POPC   C4A22182  14.847  14.841   7.774
 1588POPC   C1B22183  15.154  14.205   8.736
 1588POPC   C2B22184  14.930  14.138   8.368
 1588POPC   C3B22185  15.090  14.052   7.995
 1588POPC   C4B22186  15.461  14.239   7.868
 1589POPC   NC322187  42.502  31.719   9.529
 1589POPC   PO422188  42.184  31.158   9.380
 1589POPC   GL122189  42.211  31.478   9.109
 1589POPC   GL222190  42.557  31.514   9.081
 1589POPC   C1A22191  42.260  31.351   8.689
 1589POPC   D2A22192  42.394  31.183   8.336
 1589POPC   C3A22193  42.092  31.196   8.049
 1589POPC   C4A22194  42.166  31.379   7.712
 1589POPC   C1B22195  42.484  31.806   8.790
 1589POPC   C2B22196  42.653  31.693   8.414
 1589POPC   C3B22197  42.531  31.571   8.024
 1589POPC   C4B22198  42.642  31.585   7.596
 1590POPC   NC322199  29.678   9.326   9.465
 1590POPC   PO422200  29.888   8.634   9.509
 1590POPC   GL122201  30.005   8.840   9.179
 1590POPC   GL222202  30.286   8.634   9.101
 1590POPC   C1A22203  30.156   9.091   8.855
 1590POPC   D2A22204  30.316   9.270   8.486
 1590POPC   C3A22205  29.991   9.199   8.179
 1590POPC   C4A22206  30.021   9.067   7.775
 1590POPC   C1B22207  30.070   8.583   8.738
 1590POPC   C2B22208  30.174   8.763   8.378
 1590POPC   C3B22209  30.145   8.620   7.980
 1590POPC   C4B22210  29.974   8.509   7.594
 1591POPC   NC322211  31.317   3.437   9.499
 1591POPC   PO422212  31.935   3.736   9.436
 1591POPC   GL122213  31.644   3.587   9.107
 1591POPC   GL222214  31.314   3.695   9.033
 1591POPC   C1A22215  31.611   3.547   8.649
 1591POPC   D2A22216  31.447   3.641   8.261
 1591POPC   C3A22217  31.716   3.353   8.048
 1591POPC   C4A22218  31.729   3.432   7.647
 1591POPC   C1B22219  31.190   3.309   8.788
 1591POPC   C2B22220  31.238   3.172   8.366
 1591POPC   C3B22221  31.244   3.287   7.915
 1591POPC   C4B22222  31.286   3.664   7.731
 1592POPC   NC322223  10.473  40.554   9.439
 1592POPC   PO422224  10.826  41.055   9.473
 1592POPC   GL122225  10.905  40.859   9.088
 1592POPC   GL222226  10.579  40.753   8.960
 1592POPC   C1A22227  10.967  40.744   8.635
 1592POPC   D2A22228  10.634  40.900   8.346
 1592POPC   C3A22229  10.505  40.746   7.946
 1592POPC   C4A22230  10.719  40.689   7.585
 1592POPC   C1B22231  10.522  40.453   8.585
 1592POPC   C2B22232  10.326  40.312   8.172
 1592POPC   C3B22233  10.103  40.415   7.757
 1592POPC   C4B22234   9.828  40.552   7.409
 1593POPC   NC322235  35.126  12.317   9.560
 1593POPC   PO422236  35.767  12.072   9.435
 1593POPC   GL122237  35.339  12.031   9.194
 1593POPC   GL222238  35.062  12.309   9.082
 1593POPC   C1A22239  35.356  12.029   8.769
 1593POPC   D2A22240  35.575  11.811   8.471
 1593POPC   C3A22241  35.521  12.011   8.121
 1593POPC   C4A22242  35.518  12.218   7.765
 1593POPC   C1B22243  34.922  12.410   8.715
 1593POPC   C2B22244  35.116  12.271   8.382
 1593POPC   C3B22245  35.081  12.387   8.016
 1593POPC   C4B22246  35.031  12.234   7.625
 1594POPC   NC322247  19.110   2.259   9.382
 1594POPC   PO422248  18.736   1.785   9.390
 1594POPC   GL122249  19.133   1.872   9.070
 1594POPC   GL222250  18.959   2.097   8.931
 1594POPC   C1A22251  19.378   1.941   8.693
 1594POPC   D2A22252  19.563   2.071   8.286
 1594POPC   C3A22253  19.397   1.813   7.934
 1594POPC   C4A22254  19.219   1.966   7.538
 1594POPC   C1B22255  18.894   1.791   8.623
 1594POPC   C2B22256  19.041   1.666   8.260
 1594POPC   C3B22257  18.862   1.798   7.874
 1594POPC   C4B22258  18.751   2.174   7.646
 1595POPC   NC322259  43.993  12.945   9.358
 1595POPC   PO422260  43.741  12.293   9.482
 1595POPC   GL122261  43.806  12.504   9.097
 1595POPC   GL222262  43.628  12.776   9.024
 1595POPC   C1A22263  43.971  12.588   8.677
 1595POPC   D2A22264  44.235  12.865   8.406
 1595POPC   C3A22265  44.095  12.785   8.000
 1595POPC   C4A22266  43.678  12.738   7.820
 1595POPC   C1B22267  43.720  13.051   8.712
 1595POPC   C2B22268  43.629  12.926   8.304
 1595POPC   C3B22269  43.809  13.194   8.024
 1595POPC   C4B22270  44.201  13.261   7.828
 1596POPC   NC322271  26.378  40.701   9.419
 1596POPC   PO422272  26.947  40.464   9.514
 1596POPC   GL122273  26.858  40.711   9.171
 1596POPC   GL222274  26.889  41.056   9.248
 1596POPC   C1A22275  26.768  40.714   8.750
 1596POPC   D2A22276  26.613  41.018   8.504
 1596POPC   C3A22277  26.625  40.854   8.105
 1596POPC   C4A22278  26.786  40.843   7.718
 1596POPC   C1B22279  27.099  41.106   8.845
 1596POPC   C2B22280  27.120  40.964   8.416
 1596POPC   C3B22281  27.136  41.079   7.983
 1596POPC   C4B22282  27.249  40.994   7.528
 1597POPC   NC322283  16.899  27.922   9.537
 1597POPC   PO422284  16.351  27.452   9.566
 1597POPC   GL122285  16.643  27.564   9.242
 1597POPC   GL222286  17.024  27.489   9.292
 1597POPC   C1A22287  16.772  27.653   8.839
 1597POPC   D2A22288  16.664  27.751   8.414
 1597POPC   C3A22289  16.628  27.430   8.113
 1597POPC   C4A22290  16.669  27.665   7.745
 1597POPC   C1B22291  17.236  27.456   8.890
 1597POPC   C2B22292  17.032  27.383   8.482
 1597POPC   C3B22293  17.172  27.477   8.081
 1597POPC   C4B22294  17.172  27.751   7.735
 1598POPC   NC322295  26.400  17.214   9.506
 1598POPC   PO422296  26.263  16.598   9.265
 1598POPC   GL122297  25.918  16.729   9.035
 1598POPC   GL222298  25.963  17.022   9.180
 1598POPC   C1A22299  25.864  16.620   8.612
 1598POPC   D2A22300  26.129  16.477   8.266
 1598POPC   C3A22301  26.017  16.585   7.831
 1598POPC   C4A22302  25.970  16.534   7.366
 1598POPC   C1B22303  25.895  17.151   8.737
 1598POPC   C2B22304  25.743  17.026   8.323
 1598POPC   C3B22305  25.825  17.127   7.909
 1598POPC   C4B22306  26.115  17.023   7.580
 1599POPC   NC322307  10.893  22.770   9.450
 1599POPC   PO422308  10.430  23.252   9.530
 1599POPC   GL122309  10.471  23.154   9.117
 1599POPC   GL222310  10.596  22.805   9.031
 1599POPC   C1A22311  10.352  23.125   8.702
 1599POPC   D2A22312  10.568  22.867   8.405
 1599POPC   C3A22313  10.415  22.922   7.988
 1599POPC   C4A22314  10.342  22.651   7.659
 1599POPC   C1B22315  10.972  22.547   8.846
 1599POPC   C2B22316  10.999  22.403   8.433
 1599POPC   C3B22317  10.746  22.484   8.061
 1599POPC   C4B22318  10.864  22.588   7.665
 1600POPC   NC322319  26.813  28.059   9.591
 1600POPC   PO422320  27.205  28.592   9.249
 1600POPC   GL122321  26.940  28.390   8.916
 1600POPC   GL222322  26.919  28.069   9.031
 1600POPC   C1A22323  26.523  28.552   8.727
 1600POPC   D2A22324  26.512  28.762   8.351
 1600POPC   C3A22325  26.777  28.517   8.069
 1600POPC   C4A22326  26.569  28.466   7.713
 1600POPC   C1B22327  26.590  28.045   8.664
 1600POPC   C2B22328  26.469  28.159   8.265
 1600POPC   C3B22329  26.686  28.032   7.915
 1600POPC   C4B22330  26.975  28.195   7.618
 1601POPC   NC322331  41.154   2.807   9.528
 1601POPC   PO422332  40.588   2.474   9.710
 1601POPC   GL122333  40.721   2.537   9.220
 1601POPC   GL222334  40.969   2.742   9.079
 1601POPC   C1A22335  40.677   2.621   8.710
 1601POPC   D2A22336  40.637   3.023   8.459
 1601POPC   C3A22337  40.808   3.055   8.041
 1601POPC   C4A22338  40.621   3.166   7.651
 1601POPC   C1B22339  41.185   2.606   8.711
 1601POPC   C2B22340  41.059   2.420   8.332
 1601POPC   C3B22341  41.151   2.631   7.970
 1601POPC   C4B22342  41.108   2.900   7.648
 1602POPC   NC322343  12.325  35.647   9.432
 1602POPC   PO422344  13.051  35.598   9.450
 1602POPC   GL122345  12.807  35.376   9.146
 1602POPC   GL222346  12.783  34.986   9.193
 1602POPC   C1A22347  12.800  35.489   8.710
 1602POPC   D2A22348  12.854  35.230   8.354
 1602POPC   C3A22349  12.813  35.424   7.973
 1602POPC   C4A22350  13.131  35.675   7.842
 1602POPC   C1B22351  13.039  35.048   8.807
 1602POPC   C2B22352  13.210  34.881   8.425
 1602POPC   C3B22353  13.241  35.093   8.001
 1602POPC   C4B22354  12.954  35.051   7.643
 1603POPC   NC322355   1.961   3.915   9.468
 1603POPC   PO422356   2.219   3.262   9.511
 1603POPC   GL122357   2.047   3.422   9.154
 1603POPC   GL222358   1.766   3.573   9.103
 1603POPC   C1A22359   2.213   3.566   8.765
 1603POPC   D2A22360   2.356   3.483   8.373
 1603POPC   C3A22361   2.256   3.722   7.994
 1603POPC   C4A22362   1.974   3.495   7.740
 1603POPC   C1B22363   1.718   3.662   8.651
 1603POPC   C2B22364   1.755   3.885   8.227
 1603POPC   C3B22365   1.526   3.741   7.829
 1603POPC   C4B22366   1.670   3.746   7.383
 1604POPC   NC322367   2.893  37.303   9.312
 1604POPC   PO422368   2.543  36.773   9.611
 1604POPC   GL122369   2.588  36.918   9.172
 1604POPC   GL222370   2.943  36.863   9.033
 1604POPC   C1A22371   2.594  37.175   8.752
 1604POPC   D2A22372   2.966  37.101   8.468
 1604POPC   C3A22373   2.841  36.965   8.040
 1604POPC   C4A22374   2.493  37.079   7.773
 1604POPC   C1B22375   2.655  36.669   8.727
 1604POPC   C2B22376   2.462  36.798   8.339
 1604POPC   C3B22377   2.529  36.577   7.927
 1604POPC   C4B22378   2.899  36.586   7.638
 1605POPC   NC322379   0.047   2.740   9.590
 1605POPC   PO422380   0.596   2.390   9.442
 1605POPC   GL122381   0.277   2.568   9.171
 1605POPC   GL222382   0.353   2.914   9.096
 1605POPC   C1A22383   0.073   2.671   8.783
 1605POPC   D2A22384   0.146   2.526   8.384
 1605POPC   C3A22385   0.138   2.699   7.972
 1605POPC   C4A22386   0.261   2.568   7.544
 1605POPC   C1B22387   0.570   2.723   8.712
 1605POPC   C2B22388   0.543   2.869   8.284
 1605POPC   C3B22389   0.589   2.865   7.827
 1605POPC   C4B22390   0.457   3.066   7.483
 1606POPC   NC322391  19.076  17.856   9.476
 1606POPC   PO422392  18.751  17.261   9.463
 1606POPC   GL122393  19.047  17.434   9.119
 1606POPC   GL222394  19.294  17.693   9.072
 1606POPC   C1A22395  19.270  17.371   8.713
 1606POPC   D2A22396  19.020  17.306   8.376
 1606POPC   C3A22397  19.088  17.213   7.995
 1606POPC   C4A22398  18.820  17.479   7.749
 1606POPC   C1B22399  19.138  17.885   8.744
 1606POPC   C2B22400  19.321  17.771   8.348
 1606POPC   C3B22401  19.308  17.658   7.917
 1606POPC   C4B22402  19.541  17.705   7.546
 1607POPC   NC322403  11.388  25.641   9.873
 1607POPC   PO422404  11.444  26.200   9.559
 1607POPC   GL122405  11.118  26.060   9.329
 1607POPC   GL222406  11.352  25.940   9.072
 1607POPC   C1A22407  10.944  26.165   8.926
 1607POPC   D2A22408  11.237  26.111   8.560
 1607POPC   C3A22409  11.191  25.890   8.148
 1607POPC   C4A22410  11.244  26.087   7.724
 1607POPC   C1B22411  11.682  25.965   8.788
 1607POPC   C2B22412  11.661  25.858   8.376
 1607POPC   C3B22413  11.685  26.011   7.982
 1607POPC   C4B22414  11.667  25.804   7.600
 1608POPC   NC322415  34.986   4.853   9.497
 1608POPC   PO422416  35.586   5.056   9.589
 1608POPC   GL122417  35.364   4.993   9.185
 1608POPC   GL222418  35.055   5.233   9.134
 1608POPC   C1A22419  35.244   4.941   8.759
 1608POPC   D2A22420  35.391   5.222   8.432
 1608POPC   C3A22421  35.373   5.073   8.020
 1608POPC   C4A22422  35.284   5.011   7.602
 1608POPC   C1B22423  34.862   5.276   8.676
 1608POPC   C2B22424  34.943   5.349   8.184
 1608POPC   C3B22425  35.171   5.481   7.737
 1608POPC   C4B22426  34.970   5.352   7.294
 1609POPC   NC322427  25.820  41.741   9.618
 1609POPC   PO422428  26.211  41.138   9.574
 1609POPC   GL122429  26.068  41.459   9.262
 1609POPC   GL222430  25.761  41.637   9.145
 1609POPC   C1A22431  26.087  41.421   8.838
 1609POPC   D2A22432  25.948  41.420   8.435
 1609POPC   C3A22433  26.175  41.189   8.145
 1609POPC   C4A22434  26.042  41.324   7.740
 1609POPC   C1B22435  25.936  41.905   8.844
 1609POPC   C2B22436  25.836  41.929   8.430
 1609POPC   C3B22437  26.046  41.761   8.060
 1609POPC   C4B22438  25.759  41.737   7.734
 1610POPC   NC322439   1.160   4.952   9.470
 1610POPC   PO422440   1.426   5.571   9.412
 1610POPC   GL122441   1.235   5.291   9.082
 1610POPC   GL222442   0.892   5.090   9.064
 1610POPC   C1A22443   1.140   5.242   8.660
 1610POPC   D2A22444   0.854   5.042   8.414
 1610POPC   C3A22445   1.032   5.087   8.027
 1610POPC   C4A22446   1.244   5.268   7.700
 1610POPC   C1B22447   1.165   4.765   8.850
 1610POPC   C2B22448   1.388   4.725   8.498
 1610POPC   C3B22449   1.385   4.710   8.099
 1610POPC   C4B22450   1.259   4.743   7.700
 1611POPC   NC322451  36.575   6.607   9.722
 1611POPC   PO422452  36.768   7.186   9.528
 1611POPC   GL122453  36.765   6.767   9.253
 1611POPC   GL222454  36.554   6.433   9.239
 1611POPC   C1A22455  36.884   6.631   8.825
 1611POPC   D2A22456  36.845   6.855   8.422
 1611POPC   C3A22457  36.552   6.822   8.069
 1611POPC   C4A22458  36.575   6.568   7.670
 1611POPC   C1B22459  36.530   6.252   8.840
 1611POPC   C2B22460  36.769   6.259   8.470
 1611POPC   C3B22461  36.819   6.004   8.039
 1611POPC   C4B22462  36.918   5.749   7.732
 1612POPC   NC322463  44.431  13.941   9.415
 1612POPC   PO422464  44.299  13.282   9.448
 1612POPC   GL122465  44.596  13.502   9.149
 1612POPC   GL222466  44.851  13.799   9.183
 1612POPC   C1A22467  44.457  13.558   8.728
 1612POPC   D2A22468  44.314  13.401   8.317
 1612POPC   C3A22469  44.538  13.611   7.967
 1612POPC   C4A22470  44.631  13.481   7.551
 1612POPC   C1B22471  44.964  13.689   8.781
 1612POPC   C2B22472  44.808  13.725   8.386
 1612POPC   C3B22473   0.032  13.758   7.997
 1612POPC   C4B22474  44.934  13.908   7.550
 1613POPC   NC322475   0.748  12.619   9.692
 1613POPC   PO422476   0.152  12.911   9.513
 1613POPC   GL122477   0.421  12.700   9.259
 1613POPC   GL222478   0.414  12.945   9.063
 1613POPC   C1A22479   0.660  12.551   8.911
 1613POPC   D2A22480   0.717  12.501   8.470
 1613POPC   C3A22481   0.697  12.783   8.143
 1613POPC   C4A22482   0.594  12.505   7.798
 1613POPC   C1B22483   0.214  12.797   8.747
 1613POPC   C2B22484   0.233  12.959   8.364
 1613POPC   C3B22485   0.211  12.802   7.962
 1613POPC   C4B22486   0.454  12.948   7.594
 1614POPC   NC322487  13.020  10.491   9.514
 1614POPC   PO422488  12.439  10.809   9.468
 1614POPC   GL122489  12.671  10.490   9.137
 1614POPC   GL222490  13.003  10.283   9.063
 1614POPC   C1A22491  12.877  10.650   8.755
 1614POPC   D2A22492  12.684  10.821   8.410
 1614POPC   C3A22493  12.912  10.798   8.064
 1614POPC   C4A22494  12.922  10.713   7.639
 1614POPC   C1B22495  12.762  10.133   8.739
 1614POPC   C2B22496  12.903  10.279   8.371
 1614POPC   C3B22497  12.794  10.329   7.980
 1614POPC   C4B22498  13.096  10.246   7.725
 1615POPC   NC322499  37.891  18.796   9.778
 1615POPC   PO422500  37.458  18.359   9.484
 1615POPC   GL122501  37.715  18.300   9.145
 1615POPC   GL222502  37.518  18.577   9.024
 1615POPC   C1A22503  37.787  18.016   8.794
 1615POPC   D2A22504  37.862  18.176   8.358
 1615POPC   C3A22505  37.485  18.084   8.149
 1615POPC   C4A22506  37.458  18.035   7.731
 1615POPC   C1B22507  37.819  18.557   8.682
 1615POPC   C2B22508  37.769  18.743   8.281
 1615POPC   C3B22509  37.765  18.542   7.889
 1615POPC   C4B22510  37.840  18.578   7.433
 1616POPC   NC322511  32.043  18.392   9.471
 1616POPC   PO422512  32.570  18.226   9.450
 1616POPC   GL122513  32.403  18.484   9.102
 1616POPC   GL222514  32.058  18.286   8.983
 1616POPC   C1A22515  32.335  18.550   8.654
 1616POPC   D2A22516  32.128  18.181   8.440
 1616POPC   C3A22517  32.086  18.231   8.022
 1616POPC   C4A22518  32.318  18.531   7.848
 1616POPC   C1B22519  32.383  18.004   8.854
 1616POPC   C2B22520  32.416  17.735   8.494
 1616POPC   C3B22521  32.486  17.914   8.090
 1616POPC   C4B22522  32.311  17.905   7.694
 1617POPC   NC322523   0.690  35.717   9.448
 1617POPC   PO422524   0.922  36.478   9.386
 1617POPC   GL122525   0.576  36.197   9.213
 1617POPC   GL222526   0.215  36.351   9.239
 1617POPC   C1A22527   0.461  35.934   8.825
 1617POPC   D2A22528   0.454  36.119   8.387
 1617POPC   C3A22529   0.406  35.926   7.963
 1617POPC   C4A22530   0.673  36.081   7.615
 1617POPC   C1B22531   0.346  36.457   8.808
 1617POPC   C2B22532   0.304  36.615   8.384
 1617POPC   C3B22533   0.386  36.440   7.937
 1617POPC   C4B22534   0.224  36.355   7.494
 1618POPC   NC322535  16.634  23.866   9.407
 1618POPC   PO422536  16.646  23.270   9.681
 1618POPC   GL122537  16.904  23.459   9.223
 1618POPC   GL222538  16.739  23.747   8.954
 1618POPC   C1A22539  16.861  23.325   8.760
 1618POPC   D2A22540  16.479  23.281   8.525
 1618POPC   C3A22541  16.494  23.516   8.143
 1618POPC   C4A22542  16.689  23.401   7.742
 1618POPC   C1B22543  16.596  24.084   8.720
 1618POPC   C2B22544  16.526  24.105   8.300
 1618POPC   C3B22545  16.312  24.267   7.957
 1618POPC   C4B22546  16.324  24.092   7.523
 1619POPC   NC322547   8.114  43.525   9.292
 1619POPC   PO422548   8.558  43.115   9.574
 1619POPC   GL122549   8.307  43.059   9.157
 1619POPC   GL222550   7.914  43.100   9.108
 1619POPC   C1A22551   8.438  42.932   8.728
 1619POPC   D2A22552   8.396  43.125   8.314
 1619POPC   C3A22553   8.369  42.912   7.904
 1619POPC   C4A22554   8.418  43.191   7.539
 1619POPC   C1B22555   8.070  43.297   8.701
 1619POPC   C2B22556   7.915  43.449   8.334
 1619POPC   C3B22557   8.075  43.329   7.942
 1619POPC   C4B22558   7.919  43.037   7.611
 1620POPC   NC322559   9.656  32.208   9.785
 1620POPC   PO422560  10.133  32.591   9.494
 1620POPC   GL122561   9.934  32.438   9.136
 1620POPC   GL222562   9.781  32.136   9.219
 1620POPC   C1A22563   9.547  32.345   8.818
 1620POPC   D2A22564   9.321  32.355   8.394
 1620POPC   C3A22565   9.486  32.141   8.038
 1620POPC   C4A22566   9.567  32.377   7.702
 1620POPC   C1B22567  10.017  32.111   8.774
 1620POPC   C2B22568  10.039  31.889   8.388
 1620POPC   C3B22569   9.948  31.911   7.948
 1620POPC   C4B22570   9.908  31.812   7.519
 1621POPC   NC322571  30.001  36.595   9.428
 1621POPC   PO422572  29.704  37.184   9.385
 1621POPC   GL122573  30.036  37.284   9.136
 1621POPC   GL222574  30.192  36.962   9.127
 1621POPC   C1A22575  30.102  37.222   8.713
 1621POPC   D2A22576  30.021  36.964   8.381
 1621POPC   C3A22577  30.086  37.146   7.990
 1621POPC   C4A22578  29.680  37.184   7.814
 1621POPC   C1B22579  29.809  36.809   8.843
 1621POPC   C2B22580  29.848  36.485   8.524
 1621POPC   C3B22581  30.095  36.527   8.131
 1621POPC   C4B22582  30.031  36.693   7.716
 1622POPC   NC322583  12.505  27.694   9.498
 1622POPC   PO422584  13.063  27.293   9.389
 1622POPC   GL122585  12.793  27.523   9.114
 1622POPC   GL222586  12.993  27.814   9.027
 1622POPC   C1A22587  12.588  27.761   8.733
 1622POPC   D2A22588  12.400  27.931   8.339
 1622POPC   C3A22589  12.580  27.719   7.982
 1622POPC   C4A22590  12.787  27.346   7.970
 1622POPC   C1B22591  13.045  27.495   8.689
 1622POPC   C2B22592  12.942  27.683   8.343
 1622POPC   C3B22593  13.097  27.846   8.004
 1622POPC   C4B22594  13.000  27.654   7.633
 1623POPC   NC322595  11.679  13.058   9.634
 1623POPC   PO422596  11.113  12.695   9.521
 1623POPC   GL122597  11.211  12.824   9.124
 1623POPC   GL222598  11.562  12.908   9.140
 1623POPC   C1A22599  11.231  12.853   8.691
 1623POPC   D2A22600  11.264  13.173   8.379
 1623POPC   C3A22601  11.309  13.058   7.968
 1623POPC   C4A22602  11.058  12.846   7.674
 1623POPC   C1B22603  11.735  12.909   8.706
 1623POPC   C2B22604  11.656  12.750   8.282
 1623POPC   C3B22605  11.709  12.758   7.813
 1623POPC   C4B22606  11.472  12.804   7.378
 1624POPC   NC322607  21.759  42.142   9.755
 1624POPC   PO422608  21.204  41.955   9.343
 1624POPC   GL122609  21.347  42.111   8.984
 1624POPC   GL222610  21.521  42.426   9.050
 1624POPC   C1A22611  21.563  42.121   8.612
 1624POPC   D2A22612  21.685  41.868   8.310
 1624POPC   C3A22613  21.534  42.031   7.925
 1624POPC   C4A22614  21.370  42.399   7.734
 1624POPC   C1B22615  21.740  42.600   8.673
 1624POPC   C2B22616  21.677  42.468   8.226
 1624POPC   C3B22617  21.730  42.728   7.873
 1624POPC   C4B22618  21.454  42.940   7.601
 1625POPC   NC322619  34.684   0.862   9.362
 1625POPC   PO422620  34.823   0.171   9.454
 1625POPC   GL122621  34.794   0.443   9.111
 1625POPC   GL222622  34.419   0.475   9.099
 1625POPC   C1A22623  34.733   0.536   8.677
 1625POPC   D2A22624  34.425   0.316   8.409
 1625POPC   C3A22625  34.674   0.292   8.051
 1625POPC   C4A22626  34.908   0.590   7.821
 1625POPC   C1B22627  34.260   0.729   8.757
 1625POPC   C2B22628  34.070   0.649   8.349
 1625POPC   C3B22629  34.252   0.639   7.954
 1625POPC   C4B22630  34.351   0.373   7.680
 1626POPC   NC322631  33.313  30.436   9.721
 1626POPC   PO422632  32.988  30.911   9.495
 1626POPC   GL122633  33.199  30.771   9.159
 1626POPC   GL222634  33.366  30.401   9.208
 1626POPC   C1A22635  33.066  30.950   8.752
 1626POPC   D2A22636  32.917  30.869   8.351
 1626POPC   C3A22637  33.118  30.984   7.963
 1626POPC   C4A22638  32.774  30.710   7.850
 1626POPC   C1B22639  33.281  30.483   8.760
 1626POPC   C2B22640  33.363  30.635   8.352
 1626POPC   C3B22641  33.295  30.522   7.920
 1626POPC   C4B22642  33.141  30.253   7.656
 1627POPC   NC322643   0.993  15.743   9.481
 1627POPC   PO422644   1.548  16.144   9.653
 1627POPC   GL122645   1.242  16.119   9.239
 1627POPC   GL222646   1.040  16.408   9.161
 1627POPC   C1A22647   1.043  15.958   8.834
 1627POPC   D2A22648   1.240  15.745   8.470
 1627POPC   C3A22649   1.002  15.621   8.116
 1627POPC   C4A22650   1.120  15.718   7.685
 1627POPC   C1B22651   1.203  16.445   8.760
 1627POPC   C2B22652   1.325  16.247   8.405
 1627POPC   C3B22653   1.121  16.133   8.052
 1627POPC   C4B22654   0.962  16.251   7.648
 1628POPC   NC322655  33.010  35.699   9.536
 1628POPC   PO422656  33.371  35.112   9.688
 1628POPC   GL122657  33.230  35.379   9.254
 1628POPC   GL222658  32.950  35.225   9.140
 1628POPC   C1A22659  33.240  35.429   8.775
 1628POPC   D2A22660  33.345  35.577   8.349
 1628POPC   C3A22661  33.321  35.311   8.024
 1628POPC   C4A22662  33.188  35.360   7.633
 1628POPC   C1B22663  32.712  35.326   8.773
 1628POPC   C2B22664  32.645  35.220   8.346
 1628POPC   C3B22665  32.816  35.433   7.996
 1628POPC   C4B22666  32.606  35.516   7.604
 1629POPC   NC322667  24.621  12.826   9.449
 1629POPC   PO422668  23.966  13.179   9.433
 1629POPC   GL122669  24.234  13.039   9.128
 1629POPC   GL222670  24.357  12.729   9.035
 1629POPC   C1A22671  24.492  13.129   8.776
 1629POPC   D2A22672  24.389  13.024   8.374
 1629POPC   C3A22673  24.656  12.955   8.059
 1629POPC   C4A22674  24.549  13.188   7.694
 1629POPC   C1B22675  24.627  12.624   8.672
 1629POPC   C2B22676  24.825  12.469   8.282
 1629POPC   C3B22677  24.724  12.399   7.847
 1629POPC   C4B22678  24.719  12.642   7.476
 1630POPC   NC322679  14.673   8.918   9.499
 1630POPC   PO422680  14.101   8.664   9.631
 1630POPC   GL122681  14.278   8.768   9.200
 1630POPC   GL222682  14.410   9.109   9.088
 1630POPC   C1A22683  14.505   8.710   8.809
 1630POPC   D2A22684  14.475   8.966   8.408
 1630POPC   C3A22685  14.412   8.760   7.988
 1630POPC   C4A22686  14.310   8.914   7.541
 1630POPC   C1B22687  14.701   9.298   8.729
 1630POPC   C2B22688  14.840   9.301   8.276
 1630POPC   C3B22689  14.579   9.222   7.870
 1630POPC   C4B22690  14.518   9.371   7.415
 1631POPC   NC322691   9.539  44.129   9.468
 1631POPC   PO422692  10.024  43.718   9.685
 1631POPC   GL122693   9.875  43.769   9.213
 1631POPC   GL222694   9.915  44.095   9.065
 1631POPC   C1A22695   9.919  43.735   8.722
 1631POPC   D2A22696   9.904  43.553   8.263
 1631POPC   C3A22697   9.933  43.718   7.837
 1631POPC   C4A22698   9.623  43.657   7.494
 1631POPC   C1B22699   9.563  44.148   8.778
 1631POPC   C2B22700   9.641  43.987   8.377
 1631POPC   C3B22701   9.517  44.001   7.972
 1631POPC   C4B22702   9.741  44.160   7.634
 1632POPC   NC322703  32.903  38.849   9.623
 1632POPC   PO422704  33.317  38.445   9.325
 1632POPC   GL122705  32.978  38.585   9.066
 1632POPC   GL222706  32.692  38.835   9.137
 1632POPC   C1A22707  33.090  38.499   8.631
 1632POPC   D2A22708  33.068  38.181   8.316
 1632POPC   C3A22709  33.310  38.230   7.934
 1632POPC   C4A22710  33.301  38.321   7.480
 1632POPC   C1B22711  32.624  38.682   8.698
 1632POPC   C2B22712  32.683  38.542   8.246
 1632POPC   C3B22713  32.861  38.534   7.819
 1632POPC   C4B22714  32.716  38.869   7.534
 1633POPC   NC322715   5.579  18.566   9.260
 1633POPC   PO422716   5.850  18.160   9.704
 1633POPC   GL122717   5.918  18.140   9.229
 1633POPC   GL222718   5.951  17.777   9.199
 1633POPC   C1A22719   5.810  18.245   8.754
 1633POPC   D2A22720   5.972  18.322   8.332
 1633POPC   C3A22721   5.653  18.299   8.005
 1633POPC   C4A22722   5.590  18.460   7.590
 1633POPC   C1B22723   6.135  17.875   8.815
 1633POPC   C2B22724   6.227  17.786   8.397
 1633POPC   C3B22725   6.075  17.955   7.999
 1633POPC   C4B22726   6.098  18.322   7.720
 1634POPC   NC322727  31.944  29.979   9.684
 1634POPC   PO422728  31.343  30.001   9.400
 1634POPC   GL122729  31.497  30.039   9.042
 1634POPC   GL222730  31.855  30.018   9.152
 1634POPC   C1A22731  31.404  29.919   8.617
 1634POPC   D2A22732  31.355  29.616   8.268
 1634POPC   C3A22733  31.479  29.799   7.861
 1634POPC   C4A22734  31.279  29.838   7.426
 1634POPC   C1B22735  31.839  30.228   8.740
 1634POPC   C2B22736  31.754  30.124   8.295
 1634POPC   C3B22737  31.940  30.053   7.887
 1634POPC   C4B22738  31.749  30.039   7.459
 1635POPC   NC322739  18.339  32.077   9.702
 1635POPC   PO422740  18.510  32.685   9.489
 1635POPC   GL122741  18.474  32.276   9.236
 1635POPC   GL222742  18.211  31.994   9.225
 1635POPC   C1A22743  18.274  32.293   8.827
 1635POPC   D2A22744  18.448  32.190   8.445
 1635POPC   C3A22745  18.419  32.413   8.083
 1635POPC   C4A22746  18.493  32.212   7.702
 1635POPC   C1B22747  18.060  31.816   8.856
 1635POPC   C2B22748  17.969  31.996   8.459
 1635POPC   C3B22749  18.100  32.009   8.051
 1635POPC   C4B22750  17.974  32.254   7.719
 1636POPC   NC322751  17.020  13.581   9.376
 1636POPC   PO422752  16.427  13.926   9.308
 1636POPC   GL122753  16.721  13.854   9.042
 1636POPC   GL222754  16.630  13.503   9.055
 1636POPC   C1A22755  16.913  13.679   8.679
 1636POPC   D2A22756  16.827  13.401   8.344
 1636POPC   C3A22757  16.978  13.516   7.928
 1636POPC   C4A22758  16.788  13.825   7.666
 1636POPC   C1B22759  16.441  13.317   8.727
 1636POPC   C2B22760  16.279  13.463   8.353
 1636POPC   C3B22761  16.470  13.493   7.961
 1636POPC   C4B22762  16.491  13.171   7.663
 1637POPC   NC322763   0.348  34.106   9.413
 1637POPC   PO422764   0.166  33.517   9.525
 1637POPC   GL122765   0.247  33.672   9.145
 1637POPC   GL222766   0.629  33.709   9.186
 1637POPC   C1A22767   0.038  33.747   8.757
 1637POPC   D2A22768   0.223  33.946   8.408
 1637POPC   C3A22769   0.330  33.740   8.058
 1637POPC   C4A22770   0.251  33.952   7.695
 1637POPC   C1B22771   0.541  33.917   8.801
 1637POPC   C2B22772   0.737  33.976   8.401
 1637POPC   C3B22773   0.643  34.148   7.994
 1637POPC   C4B22774   0.746  33.846   7.629
 1638POPC   NC322775  11.244  37.553   9.701
 1638POPC   PO422776  10.534  37.689   9.552
 1638POPC   GL122777  10.528  37.678   9.128
 1638POPC   GL222778  10.843  37.531   9.051
 1638POPC   C1A22779  10.398  37.808   8.733
 1638POPC   D2A22780  10.493  37.632   8.317
 1638POPC   C3A22781  10.373  37.862   7.979
 1638POPC   C4A22782  10.175  37.669   7.688
 1638POPC   C1B22783  10.595  37.317   8.727
 1638POPC   C2B22784  10.692  37.158   8.326
 1638POPC   C3B22785  10.898  37.328   7.971
 1638POPC   C4B22786  10.681  37.573   7.698
 1639POPC   NC322787  19.959  22.497   9.658
 1639POPC   PO422788  19.949  21.918   9.348
 1639POPC   GL122789  20.135  22.132   9.062
 1639POPC   GL222790  20.326  22.375   9.253
 1639POPC   C1A22791  19.961  22.176   8.649
 1639POPC   D2A22792  19.756  21.898   8.348
 1639POPC   C3A22793  19.852  22.136   8.026
 1639POPC   C4A22794  19.625  22.478   7.837
 1639POPC   C1B22795  20.410  22.433   8.775
 1639POPC   C2B22796  20.273  22.423   8.322
 1639POPC   C3B22797  20.265  22.424   7.870
 1639POPC   C4B22798  19.981  22.255   7.552
 1640POPC   NC322799  18.532  16.148   9.517
 1640POPC   PO422800  17.897  15.834   9.557
 1640POPC   GL122801  18.222  15.845   9.219
 1640POPC   GL222802  18.125  16.147   9.072
 1640POPC   C1A22803  18.338  15.852   8.756
 1640POPC   D2A22804  18.199  16.056   8.371
 1640POPC   C3A22805  18.218  15.731   8.063
 1640POPC   C4A22806  18.512  15.616   7.733
 1640POPC   C1B22807  17.810  16.274   8.787
 1640POPC   C2B22808  17.717  16.371   8.368
 1640POPC   C3B22809  17.919  16.328   7.971
 1640POPC   C4B22810  18.226  16.110   7.721
 1641POPC   NC322811  43.448   7.879   9.500
 1641POPC   PO422812  43.084   7.228   9.508
 1641POPC   GL122813  43.075   7.354   9.117
 1641POPC   GL222814  43.123   7.665   9.153
 1641POPC   C1A22815  43.294   7.227   8.743
 1641POPC   D2A22816  43.485   7.105   8.348
 1641POPC   C3A22817  43.287   7.314   8.001
 1641POPC   C4A22818  43.273   7.144   7.613
 1641POPC   C1B22819  43.059   7.791   8.779
 1641POPC   C2B22820  43.126   7.613   8.393
 1641POPC   C3B22821  42.990   7.756   7.980
 1641POPC   C4B22822  43.133   7.642   7.589
 1642POPC   NC322823  14.500   5.551   9.558
 1642POPC   PO422824  14.095   6.062   9.448
 1642POPC   GL122825  14.097   5.806   9.094
 1642POPC   GL222826  14.458   5.738   9.066
 1642POPC   C1A22827  14.178   5.880   8.680
 1642POPC   D2A22828  14.503   5.838   8.437
 1642POPC   C3A22829  14.467   6.088   8.093
 1642POPC   C4A22830  14.165   6.034   7.763
 1642POPC   C1B22831  14.743   5.517   8.781
 1642POPC   C2B22832  14.879   5.524   8.350
 1642POPC   C3B22833  14.671   5.589   7.996
 1642POPC   C4B22834  14.645   5.879   7.676
 1643POPC   NC322835  31.954  34.280   9.549
 1643POPC   PO422836  32.600  34.510   9.480
 1643POPC   GL122837  32.335  34.322   9.187
 1643POPC   GL222838  32.602  34.166   9.050
 1643POPC   C1A22839  32.084  34.569   8.877
 1643POPC   D2A22840  32.292  34.828   8.525
 1643POPC   C3A22841  32.203  34.701   8.093
 1643POPC   C4A22842  31.978  34.548   7.693
 1643POPC   C1B22843  32.472  34.333   8.660
 1643POPC   C2B22844  32.558  34.162   8.277
 1643POPC   C3B22845  32.712  34.402   7.977
 1643POPC   C4B22846  32.525  34.580   7.721
 1644POPC   NC322847  42.126  30.787   9.642
 1644POPC   PO422848  42.535  30.330   9.789
 1644POPC   GL122849  42.495  30.679   9.335
 1644POPC   GL222850  42.123  30.678   9.151
 1644POPC   C1A22851  42.512  30.823   8.865
 1644POPC   D2A22852  42.303  30.681   8.473
 1644POPC   C3A22853  42.456  30.753   8.056
 1644POPC   C4A22854  42.600  31.105   7.820
 1644POPC   C1B22855  41.896  30.392   8.879
 1644POPC   C2B22856  41.820  30.392   8.448
 1644POPC   C3B22857  41.943  30.604   8.077
 1644POPC   C4B22858  41.873  30.368   7.734
 1645POPC   NC322859  33.744  12.573   9.812
 1645POPC   PO422860  33.850  11.949   9.499
 1645POPC   GL122861  33.868  11.987   9.078
 1645POPC   GL222862  33.710  12.288   9.106
 1645POPC   C1A22863  33.592  12.000   8.705
 1645POPC   D2A22864  33.654  12.264   8.318
 1645POPC   C3A22865  33.945  12.022   8.070
 1645POPC   C4A22866  33.870  11.752   7.698
 1645POPC   C1B22867  33.971  12.373   8.735
 1645POPC   C2B22868  34.144  12.457   8.340
 1645POPC   C3B22869  33.910  12.626   8.026
 1645POPC   C4B22870  33.926  12.376   7.691
 1646POPC   NC322871  22.549  29.323   9.458
 1646POPC   PO422872  23.156  29.226   9.454
 1646POPC   GL122873  22.928  29.168   9.107
 1646POPC   GL222874  23.060  29.464   8.970
 1646POPC   C1A22875  22.740  28.901   8.750
 1646POPC   D2A22876  22.844  28.663   8.371
 1646POPC   C3A22877  22.942  28.921   8.005
 1646POPC   C4A22878  22.817  28.821   7.557
 1646POPC   C1B22879  22.633  29.422   8.796
 1646POPC   C2B22880  22.633  29.266   8.410
 1646POPC   C3B22881  22.779  29.471   8.085
 1646POPC   C4B22882  22.790  29.304   7.707
 1647POPC   NC322883  24.572   7.369   9.476
 1647POPC   PO422884  24.010   7.709   9.404
 1647POPC   GL122885  24.172   7.349   9.167
 1647POPC   GL222886  24.455   7.569   9.027
 1647POPC   C1A22887  24.369   7.126   8.822
 1647POPC   D2A22888  24.403   7.332   8.449
 1647POPC   C3A22889  24.479   7.203   8.033
 1647POPC   C4A22890  24.633   7.364   7.656
 1647POPC   C1B22891  24.180   7.772   8.715
 1647POPC   C2B22892  24.034   7.794   8.271
 1647POPC   C3B22893  24.217   7.636   7.869
 1647POPC   C4B22894  24.347   7.719   7.425
 1648POPC   NC322895  34.274  28.194   9.455
 1648POPC   PO422896  34.858  28.571   9.515
 1648POPC   GL122897  34.756  28.333   9.173
 1648POPC   GL222898  34.821  27.968   9.188
 1648POPC   C1A22899  34.754  28.503   8.774
 1648POPC   D2A22900  34.523  28.443   8.412
 1648POPC   C3A22901  34.839  28.553   8.149
 1648POPC   C4A22902  34.816  28.499   7.736
 1648POPC   C1B22903  34.563  28.019   8.790
 1648POPC   C2B22904  34.421  27.925   8.359
 1648POPC   C3B22905  34.308  28.176   8.005
 1648POPC   C4B22906  34.478  28.133   7.610
 1649POPC   NC322907  31.390   9.053   9.936
 1649POPC   PO422908  31.952   9.033   9.513
 1649POPC   GL122909  31.710   8.899   9.197
 1649POPC   GL222910  31.371   9.021   9.133
 1649POPC   C1A22911  31.781   8.783   8.796
 1649POPC   D2A22912  31.503   8.853   8.461
 1649POPC   C3A22913  31.574   8.588   8.135
 1649POPC   C4A22914  31.480   8.677   7.740
 1649POPC   C1B22915  31.612   9.260   8.818
 1649POPC   C2B22916  31.732   9.332   8.378
 1649POPC   C3B22917  31.607   9.128   7.977
 1649POPC   C4B22918  31.717   9.050   7.522
 1650POPC   NC322919  17.784  19.725   9.281
 1650POPC   PO422920  17.164  19.961   9.515
 1650POPC   GL122921  17.331  19.860   9.150
 1650POPC   GL222922  17.168  19.602   9.023
 1650POPC   C1A22923  17.487  19.833   8.705
 1650POPC   D2A22924  17.231  19.712   8.374
 1650POPC   C3A22925  17.538  19.646   8.087
 1650POPC   C4A22926  17.646  19.852   7.739
 1650POPC   C1B22927  17.068  20.092   8.817
 1650POPC   C2B22928  17.273  20.247   8.445
 1650POPC   C3B22929  17.213  20.093   8.027
 1650POPC   C4B22930  17.137  19.725   7.759
 1651POPC   NC322931  25.353  33.173   9.401
 1651POPC   PO422932  25.366  32.570   9.677
 1651POPC   GL122933  25.470  32.684   9.187
 1651POPC   GL222934  25.612  32.965   9.052
 1651POPC   C1A22935  25.322  32.808   8.683
 1651POPC   D2A22936  25.103  33.114   8.362
 1651POPC   C3A22937  25.108  32.969   7.912
 1651POPC   C4A22938  25.095  33.125   7.467
 1651POPC   C1B22939  25.728  33.146   8.691
 1651POPC   C2B22940  25.602  33.032   8.294
 1651POPC   C3B22941  25.557  33.201   7.930
 1651POPC   C4B22942  25.608  33.037   7.533
 1652POPC   NC322943  40.375   3.599   9.334
 1652POPC   PO422944  40.046   3.108   9.572
 1652POPC   GL122945  39.907   3.382   9.227
 1652POPC   GL222946  40.156   3.249   9.044
 1652POPC   C1A22947  39.950   3.619   8.802
 1652POPC   D2A22948  39.856   3.405   8.437
 1652POPC   C3A22949  39.773   3.655   8.095
 1652POPC   C4A22950  39.773   3.419   7.727
 1652POPC   C1B22951  40.401   3.417   8.698
 1652POPC   C2B22952  40.326   3.613   8.334
 1652POPC   C3B22953  40.214   3.368   8.004
 1652POPC   C4B22954  40.269   3.538   7.624
 1653POPC   NC322955  23.499   6.495   9.406
 1653POPC   PO422956  24.033   6.882   9.487
 1653POPC   GL122957  23.852   6.879   9.078
 1653POPC   GL222958  23.890   6.517   9.084
 1653POPC   C1A22959  23.583   6.984   8.694
 1653POPC   D2A22960  23.509   6.794   8.277
 1653POPC   C3A22961  23.836   6.713   8.063
 1653POPC   C4A22962  24.026   6.849   7.699
 1653POPC   C1B22963  23.658   6.496   8.708
 1653POPC   C2B22964  23.663   6.289   8.319
 1653POPC   C3B22965  23.432   6.377   7.941
 1653POPC   C4B22966  23.519   6.743   7.678
 1654POPC   NC322967  21.115   4.471   9.562
 1654POPC   PO422968  20.985   3.856   9.233
 1654POPC   GL122969  21.323   4.131   9.098
 1654POPC   GL222970  21.319   4.493   9.099
 1654POPC   C1A22971  21.293   4.216   8.657
 1654POPC   D2A22972  20.990   4.187   8.337
 1654POPC   C3A22973  21.201   3.957   8.057
 1654POPC   C4A22974  21.466   4.028   7.699
 1654POPC   C1B22975  21.549   4.647   8.735
 1654POPC   C2B22976  21.565   4.544   8.327
 1654POPC   C3B22977  21.391   4.459   7.974
 1654POPC   C4B22978  21.638   4.516   7.614
 1655POPC   NC322979  15.146  30.207   9.823
 1655POPC   PO422980  15.370  29.629   9.574
 1655POPC   GL122981  15.102  29.855   9.299
 1655POPC   GL222982  14.844  29.654   9.122
 1655POPC   C1A22983  15.130  30.062   8.900
 1655POPC   D2A22984  15.151  30.179   8.447
 1655POPC   C3A22985  14.980  30.058   8.081
 1655POPC   C4A22986  15.199  29.894   7.773
 1655POPC   C1B22987  14.845  29.494   8.744
 1655POPC   C2B22988  14.783  29.668   8.359
 1655POPC   C3B22989  14.907  29.538   8.003
 1655POPC   C4B22990  14.937  29.348   7.639
 1656POPC   NC322991  41.966   4.500   9.433
 1656POPC   PO422992  42.626   4.523   9.304
 1656POPC   GL122993  42.293   4.371   9.044
 1656POPC   GL222994  42.133   4.062   9.191
 1656POPC   C1A22995  42.018   4.582   8.757
 1656POPC   D2A22996  42.053   4.797   8.365
 1656POPC   C3A22997  42.131   4.510   7.996
 1656POPC   C4A22998  42.349   4.391   7.622
 1656POPC   C1B22999  42.181   3.910   8.768
 1656POPC   C2B23000  42.370   3.910   8.373
 1656POPC   C3B23001  42.044   4.018   8.124
 1656POPC   C4B23002  41.995   4.029   7.702
 1657POPC   NC323003  24.288  42.748   9.820
 1657POPC   PO423004  24.362  43.276   9.402
 1657POPC   GL123005  24.401  43.191   8.972
 1657POPC   GL223006  24.575  43.473   8.955
 1657POPC   C1A23007  24.286  42.890   8.632
 1657POPC   D2A23008  24.459  42.682   8.262
 1657POPC   C3A23009  24.508  42.984   7.930
 1657POPC   C4A23010  24.464  42.806   7.540
 1657POPC   C1B23011  24.799  43.446   8.619
 1657POPC   C2B23012  24.774  43.564   8.204
 1657POPC   C3B23013  24.887  43.345   7.829
 1657POPC   C4B23014  24.604  43.296   7.448
 1658POPC   NC323015  30.126  20.843   9.824
 1658POPC   PO423016  29.653  20.506   9.444
 1658POPC   GL123017  29.785  20.371   9.082
 1658POPC   GL223018  30.091  20.209   9.153
 1658POPC   C1A23019  29.685  20.478   8.675
 1658POPC   D2A23020  29.576  20.257   8.335
 1658POPC   C3A23021  29.843  20.461   8.087
 1658POPC   C4A23022  29.786  20.641   7.690
 1658POPC   C1B23023  30.201  20.475   8.802
 1658POPC   C2B23024  30.112  20.770   8.478
 1658POPC   C3B23025  30.307  20.717   8.101
 1658POPC   C4B23026  30.267  20.387   7.791
 1659POPC   NC323027  36.188  28.852   9.464
 1659POPC   PO423028  36.272  28.149   9.399
 1659POPC   GL123029  36.108  28.445   9.110
 1659POPC   GL223030  35.967  28.783   9.010
 1659POPC   C1A23031  36.195  28.375   8.708
 1659POPC   D2A23032  36.238  28.158   8.342
 1659POPC   C3A23033  36.187  28.419   8.013
 1659POPC   C4A23034  35.948  28.119   7.789
 1659POPC   C1B23035  36.008  28.824   8.600
 1659POPC   C2B23036  35.759  28.637   8.303
 1659POPC   C3B23037  35.694  28.582   7.891
 1659POPC   C4B23038  35.957  28.575   7.561
 1660POPC   NC323039  12.348  13.272   9.350
 1660POPC   PO423040  12.001  12.719   9.593
 1660POPC   GL123041  12.031  12.699   9.151
 1660POPC   GL223042  12.356  12.815   9.117
 1660POPC   C1A23043  12.091  12.528   8.725
 1660POPC   D2A23044  12.081  12.372   8.319
 1660POPC   C3A23045  12.296  12.504   7.984
 1660POPC   C4A23046  12.212  12.650   7.581
 1660POPC   C1B23047  12.242  13.022   8.738
 1660POPC   C2B23048  12.144  12.881   8.329
 1660POPC   C3B23049  12.129  13.042   7.931
 1660POPC   C4B23050  12.454  13.338   7.951
 1661POPC   NC323051  39.763  43.321   9.573
 1661POPC   PO423052  40.135  42.730   9.445
 1661POPC   GL123053  40.134  43.009   9.143
 1661POPC   GL223054  39.824  43.056   9.009
 1661POPC   C1A23055  40.224  42.930   8.722
 1661POPC   D2A23056  40.465  42.985   8.380
 1661POPC   C3A23057  40.227  43.087   8.061
 1661POPC   C4A23058  40.370  43.035   7.679
 1661POPC   C1B23059  39.806  43.143   8.521
 1661POPC   C2B23060  39.647  43.042   8.137
 1661POPC   C3B23061  39.847  43.003   7.735
 1661POPC   C4B23062  39.777  43.106   7.305
 1662POPC   NC323063  18.473   6.277   9.451
 1662POPC   PO423064  17.977   5.776   9.387
 1662POPC   GL123065  18.278   5.910   9.122
 1662POPC   GL223066  18.118   6.208   9.076
 1662POPC   C1A23067  18.358   5.681   8.746
 1662POPC   D2A23068  18.119   5.734   8.375
 1662POPC   C3A23069  18.365   5.827   8.028
 1662POPC   C4A23070  18.301   5.733   7.593
 1662POPC   C1B23071  18.272   6.162   8.664
 1662POPC   C2B23072  18.268   6.272   8.253
 1662POPC   C3B23073  18.157   6.291   7.795
 1662POPC   C4B23074  18.105   6.155   7.348
 1663POPC   NC323075   8.986  10.754   9.498
 1663POPC   PO423076   9.229  11.398   9.438
 1663POPC   GL123077   8.989  11.151   9.152
 1663POPC   GL223078   9.285  10.961   9.113
 1663POPC   C1A23079   8.735  11.212   8.757
 1663POPC   D2A23080   8.909  11.355   8.359
 1663POPC   C3A23081   8.809  11.324   7.929
 1663POPC   C4A23082   8.966  11.655   7.705
 1663POPC   C1B23083   9.273  11.235   8.734
 1663POPC   C2B23084   9.326  11.040   8.362
 1663POPC   C3B23085   9.152  10.953   7.995
 1663POPC   C4B23086   9.272  11.128   7.623
 1664POPC   NC323087  29.530  34.882   9.219
 1664POPC   PO423088  28.871  35.082   9.449
 1664POPC   GL123089  29.061  34.906   9.055
 1664POPC   GL223090  29.148  34.545   9.062
 1664POPC   C1A23091  29.234  34.823   8.624
 1664POPC   D2A23092  29.224  34.917   8.175
 1664POPC   C3A23093  28.969  34.636   7.946
 1664POPC   C4A23094  29.129  34.276   7.774
 1664POPC   C1B23095  29.456  34.368   8.741
 1664POPC   C2B23096  29.488  34.441   8.294
 1664POPC   C3B23097  29.579  34.146   7.945
 1664POPC   C4B23098  29.676  34.180   7.504
 1665POPC   NC323099  30.852  14.280   9.915
 1665POPC   PO423100  30.525  14.789   9.485
 1665POPC   GL123101  30.665  14.497   9.217
 1665POPC   GL223102  30.360  14.304   9.234
 1665POPC   C1A23103  30.787  14.269   8.859
 1665POPC   D2A23104  30.823  14.447   8.455
 1665POPC   C3A23105  30.713  14.245   8.097
 1665POPC   C4A23106  30.709  14.081   7.728
 1665POPC   C1B23107  30.318  14.503   8.811
 1665POPC   C2B23108  30.302  14.530   8.365
 1665POPC   C3B23109  30.558  14.736   8.088
 1665POPC   C4B23110  30.742  14.600   7.711
 1666POPC   NC323111  39.483  32.097   9.463
 1666POPC   PO423112  38.883  32.395   9.514
 1666POPC   GL123113  39.088  32.284   9.144
 1666POPC   GL223114  39.380  32.485   9.095
 1666POPC   C1A23115  39.213  32.175   8.724
 1666POPC   D2A23116  39.379  32.206   8.329
 1666POPC   C3A23117  39.156  32.105   7.965
 1666POPC   C4A23118  39.151  32.246   7.568
 1666POPC   C1B23119  39.631  32.455   8.727
 1666POPC   C2B23120  39.730  32.581   8.295
 1666POPC   C3B23121  39.558  32.450   7.897
 1666POPC   C4B23122  39.577  32.504   7.454
 1667POPC   NC323123  10.266  24.643   9.214
 1667POPC   PO423124  10.870  24.731   9.417
 1667POPC   GL123125  10.734  24.447   9.050
 1667POPC   GL223126  10.462  24.391   8.834
 1667POPC   C1A23127  10.888  24.134   8.724
 1667POPC   D2A23128  10.933  24.239   8.265
 1667POPC   C3A23129  10.553  24.290   7.972
 1667POPC   C4A23130  10.336  24.465   7.569
 1667POPC   C1B23131  10.692  24.790   8.703
 1667POPC   C2B23132  10.594  24.913   8.319
 1667POPC   C3B23133  10.608  24.798   7.908
 1667POPC   C4B23134  10.828  24.599   7.621
 1668POPC   NC323135  24.191  34.800   9.474
 1668POPC   PO423136  24.792  34.504   9.470
 1668POPC   GL123137  24.507  34.581   9.152
 1668POPC   GL223138  24.713  34.781   8.960
 1668POPC   C1A23139  24.313  34.550   8.763
 1668POPC   D2A23140  24.577  34.618   8.399
 1668POPC   C3A23141  24.340  34.584   8.038
 1668POPC   C4A23142  24.117  34.646   7.649
 1668POPC   C1B23143  24.749  34.302   8.787
 1668POPC   C2B23144  24.874  34.197   8.378
 1668POPC   C3B23145  24.839  34.387   7.962
 1668POPC   C4B23146  24.618  34.556   7.611
 1669POPC   NC323147  44.820  22.640   9.631
 1669POPC   PO423148  44.584  23.307   9.719
 1669POPC   GL123149  44.621  23.146   9.277
 1669POPC   GL223150  44.830  22.865   9.190
 1669POPC   C1A23151  44.621  23.099   8.812
 1669POPC   D2A23152  44.463  22.999   8.441
 1669POPC   C3A23153  44.608  23.272   8.115
 1669POPC   C4A23154  44.798  23.255   7.744
 1669POPC   C1B23155  44.846  22.638   8.788
 1669POPC   C2B23156  44.661  22.537   8.411
 1669POPC   C3B23157  44.760  22.739   8.057
 1669POPC   C4B23158  44.636  22.760   7.687
 1670POPC   NC323159   1.304  41.827   9.545
 1670POPC   PO423160   1.374  41.191   9.450
 1670POPC   GL123161   1.259  41.501   9.143
 1670POPC   GL223162   1.475  41.787   9.076
 1670POPC   C1A23163   1.112  41.598   8.735
 1670POPC   D2A23164   1.281  41.439   8.380
 1670POPC   C3A23165   1.082  41.535   8.010
 1670POPC   C4A23166   1.379  41.458   7.770
 1670POPC   C1B23167   1.393  42.043   8.709
 1670POPC   C2B23168   1.296  41.953   8.311
 1670POPC   C3B23169   1.372  41.964   7.894
 1670POPC   C4B23170   1.051  41.863   7.592
 1671POPC   NC323171  23.846  27.335   9.365
 1671POPC   PO423172  23.421  27.812   9.509
 1671POPC   GL123173  23.604  27.701   9.113
 1671POPC   GL223174  23.927  27.820   9.055
 1671POPC   C1A23175  23.676  27.450   8.730
 1671POPC   D2A23176  23.877  27.316   8.332
 1671POPC   C3A23177  23.478  27.239   8.144
 1671POPC   C4A23178  23.314  27.343   7.729
 1671POPC   C1B23179  24.019  27.811   8.618
 1671POPC   C2B23180  23.658  27.802   8.342
 1671POPC   C3B23181  23.684  27.664   7.945
 1671POPC   C4B23182  23.953  27.913   7.691
 1672POPC   NC323183  26.139  12.926  10.079
 1672POPC   PO423184  26.199  12.878   9.373
 1672POPC   GL123185  26.016  12.829   9.031
 1672POPC   GL223186  25.760  12.599   9.094
 1672POPC   C1A23187  26.174  12.803   8.609
 1672POPC   D2A23188  25.963  13.020   8.327
 1672POPC   C3A23189  26.003  12.913   7.907
 1672POPC   C4A23190  26.339  13.110   7.662
 1672POPC   C1B23191  25.665  12.774   8.676
 1672POPC   C2B23192  25.809  12.542   8.270
 1672POPC   C3B23193  25.802  12.407   7.823
 1672POPC   C4B23194  25.660  12.429   7.382
 1673POPC   NC323195  44.406  32.489   9.524
 1673POPC   PO423196   0.047  32.233   9.479
 1673POPC   GL123197  44.793  32.435   9.163
 1673POPC   GL223198  44.526  32.213   9.092
 1673POPC   C1A23199  44.736  32.414   8.709
 1673POPC   D2A23200  44.557  32.204   8.402
 1673POPC   C3A23201  44.545  32.466   8.080
 1673POPC   C4A23202  44.688  32.464   7.671
 1673POPC   C1B23203  44.226  32.012   8.794
 1673POPC   C2B23204  44.141  31.884   8.411
 1673POPC   C3B23205  44.361  31.895   8.046
 1673POPC   C4B23206  44.307  32.158   7.727
 1674POPC   NC323207  41.228  29.337   9.305
 1674POPC   PO423208  41.647  29.795   9.541
 1674POPC   GL123209  41.707  29.965   9.140
 1674POPC   GL223210  41.393  29.851   9.053
 1674POPC   C1A23211  41.785  29.906   8.707
 1674POPC   D2A23212  41.526  29.897   8.397
 1674POPC   C3A23213  41.662  30.048   8.066
 1674POPC   C4A23214  41.557  29.903   7.692
 1674POPC   C1B23215  41.375  29.540   8.726
 1674POPC   C2B23216  41.155  29.540   8.348
 1674POPC   C3B23217  41.160  29.864   8.041
 1674POPC   C4B23218  41.066  29.926   7.630
 1675POPC   NC323219  25.111  44.588   9.389
 1675POPC   PO423220  25.693  44.252   9.512
 1675POPC   GL123221  25.535  44.358   9.109
 1675POPC   GL223222  25.715  44.680   9.092
 1675POPC   C1A23223  25.190  44.380   8.781
 1675POPC   D2A23224  25.106  44.644   8.416
 1675POPC   C3A23225  25.240  44.474   8.037
 1675POPC   C4A23226  25.367  44.330   7.662
 1675POPC   C1B23227  25.528  44.802   8.693
 1675POPC   C2B23228  25.641  44.718   8.264
 1675POPC   C3B23229  25.520  44.875   7.865
 1675POPC   C4B23230  25.171  44.829   7.658
 1676POPC   NC323231  22.698  41.959   9.463
 1676POPC   PO423232  23.069  41.409   9.525
 1676POPC   GL123233  22.867  41.434   9.128
 1676POPC   GL223234  22.938  41.775   9.048
 1676POPC   C1A23235  22.948  41.394   8.662
 1676POPC   D2A23236  23.304  41.608   8.443
 1676POPC   C3A23237  23.178  41.755   8.025
 1676POPC   C4A23238  22.903  41.473   7.767
 1676POPC   C1B23239  22.919  41.906   8.642
 1676POPC   C2B23240  22.737  41.735   8.289
 1676POPC   C3B23241  22.642  41.897   7.877
 1676POPC   C4B23242  22.536  41.991   7.441
 1677POPC   NC323243  33.522  33.721   9.539
 1677POPC   PO423244  34.246  33.527   9.375
 1677POPC   GL123245  33.996  33.750   9.037
 1677POPC   GL223246  33.626  33.884   9.069
 1677POPC   C1A23247  33.812  33.692   8.604
 1677POPC   D2A23248  33.509  33.610   8.278
 1677POPC   C3A23249  33.831  33.660   7.988
 1677POPC   C4A23250  33.968  33.991   7.738
 1677POPC   C1B23251  33.403  33.955   8.678
 1677POPC   C2B23252  33.572  34.110   8.274
 1677POPC   C3B23253  33.457  34.003   7.849
 1677POPC   C4B23254  33.447  33.609   7.639
 1678POPC   NC323255  30.123  24.653   9.515
 1678POPC   PO423256  29.663  24.240   9.412
 1678POPC   GL123257  29.981  24.370   9.094
 1678POPC   GL223258  30.092  24.743   9.031
 1678POPC   C1A23259  29.905  24.360   8.660
 1678POPC   D2A23260  30.118  24.223   8.300
 1678POPC   C3A23261  29.895  24.316   7.952
 1678POPC   C4A23262  29.723  24.698   7.854
 1678POPC   C1B23263  30.344  24.588   8.749
 1678POPC   C2B23264  30.177  24.753   8.417
 1678POPC   C3B23265  30.177  24.840   8.023
 1678POPC   C4B23266  30.308  24.855   7.641
 1679POPC   NC323267  38.785  16.604   9.429
 1679POPC   PO423268  38.069  16.848   9.463
 1679POPC   GL123269  38.190  16.833   9.068
 1679POPC   GL223270  38.539  16.838   9.048
 1679POPC   C1A23271  38.223  17.058   8.706
 1679POPC   D2A23272  38.077  16.984   8.352
 1679POPC   C3A23273  38.364  17.025   8.038
 1679POPC   C4A23274  38.499  16.774   7.719
 1679POPC   C1B23275  38.743  17.004   8.684
 1679POPC   C2B23276  38.836  16.937   8.242
 1679POPC   C3B23277  38.899  17.157   7.865
 1679POPC   C4B23278  38.951  17.265   7.446
 1680POPC   NC323279  28.485   3.439   9.704
 1680POPC   PO423280  29.123   3.527   9.537
 1680POPC   GL123281  29.222   3.510   9.125
 1680POPC   GL223282  29.532   3.354   9.133
 1680POPC   C1A23283  29.146   3.637   8.711
 1680POPC   D2A23284  29.186   3.766   8.305
 1680POPC   C3A23285  28.950   3.685   7.935
 1680POPC   C4A23286  29.081   3.746   7.516
 1680POPC   C1B23287  29.572   3.289   8.709
 1680POPC   C2B23288  29.348   3.280   8.315
 1680POPC   C3B23289  29.415   3.462   7.894
 1680POPC   C4B23290  29.193   3.236   7.572
 1681POPC   NC323291  16.785  44.313   9.382
 1681POPC   PO423292  16.790  43.623   9.460
 1681POPC   GL123293  16.533  43.832   9.160
 1681POPC   GL223294  16.715  44.089   8.947
 1681POPC   C1A23295  16.390  43.781   8.740
 1681POPC   D2A23296  16.602  43.903   8.342
 1681POPC   C3A23297  16.484  43.808   7.897
 1681POPC   C4A23298  16.676  43.984   7.475
 1681POPC   C1B23299  16.968  43.859   8.743
 1681POPC   C2B23300  17.155  44.017   8.390
 1681POPC   C3B23301  16.960  44.144   8.009
 1681POPC   C4B23302  17.117  43.861   7.707
 1682POPC   NC323303  39.464  40.857   9.527
 1682POPC   PO423304  38.788  40.738   9.684
 1682POPC   GL123305  39.030  40.692   9.281
 1682POPC   GL223306  39.130  40.980   9.091
 1682POPC   C1A23307  39.041  40.553   8.847
 1682POPC   D2A23308  39.086  40.797   8.483
 1682POPC   C3A23309  39.183  40.572   8.111
 1682POPC   C4A23310  39.121  40.809   7.742
 1682POPC   C1B23311  39.496  40.991   8.793
 1682POPC   C2B23312  39.623  40.744   8.425
 1682POPC   C3B23313  39.576  40.859   8.011
 1682POPC   C4B23314  39.604  40.956   7.603
 1683POPC   NC323315  13.293   3.476   9.342
 1683POPC   PO423316  13.659   3.855   9.639
 1683POPC   GL123317  13.712   3.752   9.195
 1683POPC   GL223318  13.972   3.547   9.016
 1683POPC   C1A23319  13.685   3.882   8.772
 1683POPC   D2A23320  13.959   3.727   8.434
 1683POPC   C3A23321  13.736   3.588   8.078
 1683POPC   C4A23322  13.646   3.556   7.654
 1683POPC   C1B23323  13.637   3.355   8.699
 1683POPC   C2B23324  13.424   3.231   8.284
 1683POPC   C3B23325  13.595   3.072   7.860
 1683POPC   C4B23326  13.501   3.151   7.388
 1684POPC   NC323327   4.148  43.166   9.527
 1684POPC   PO423328   4.775  42.718   9.548
 1684POPC   GL123329   4.508  42.966   9.212
 1684POPC   GL223330   4.347  43.280   9.055
 1684POPC   C1A23331   4.360  42.833   8.800
 1684POPC   D2A23332   4.470  42.763   8.360
 1684POPC   C3A23333   4.306  43.012   7.985
 1684POPC   C4A23334   4.509  43.121   7.598
 1684POPC   C1B23335   4.007  43.292   8.696
 1684POPC   C2B23336   3.948  43.461   8.240
 1684POPC   C3B23337   4.020  43.496   7.763
 1684POPC   C4B23338   3.846  43.508   7.276
 1685POPC   NC323339  36.704  21.899   9.491
 1685POPC   PO423340  37.180  22.406   9.487
 1685POPC   GL123341  37.115  22.120   9.170
 1685POPC   GL223342  36.785  22.160   9.060
 1685POPC   C1A23343  37.179  22.123   8.724
 1685POPC   D2A23344  36.894  22.357   8.481
 1685POPC   C3A23345  36.982  22.466   8.064
 1685POPC   C4A23346  36.844  22.504   7.631
 1685POPC   C1B23347  36.746  21.859   8.698
 1685POPC   C2B23348  36.757  21.915   8.261
 1685POPC   C3B23349  36.624  22.145   7.909
 1685POPC   C4B23350  36.613  22.112   7.421
 1686POPC   NC323351  15.784  29.418   9.591
 1686POPC   PO423352  16.195  29.010   9.430
 1686POPC   GL123353  15.923  29.192   9.146
 1686POPC   GL223354  16.170  29.389   9.012
 1686POPC   C1A23355  15.695  29.036   8.787
 1686POPC   D2A23356  15.846  28.933   8.347
 1686POPC   C3A23357  15.743  29.162   7.984
 1686POPC   C4A23358  15.931  29.522   7.784
 1686POPC   C1B23359  16.203  29.074   8.720
 1686POPC   C2B23360  16.347  29.116   8.333
 1686POPC   C3B23361  16.255  29.171   7.929
 1686POPC   C4B23362  16.191  28.874   7.618
 1687POPC   NC323363  35.599  29.275   9.384
 1687POPC   PO423364  34.936  29.447   9.567
 1687POPC   GL123365  35.089  29.262   9.164
 1687POPC   GL223366  35.244  28.917   9.154
 1687POPC   C1A23367  35.334  29.293   8.768
 1687POPC   D2A23368  35.296  29.478   8.353
 1687POPC   C3A23369  35.331  29.282   7.961
 1687POPC   C4A23370  35.578  29.247   7.604
 1687POPC   C1B23371  35.419  28.796   8.715
 1687POPC   C2B23372  35.282  28.867   8.258
 1687POPC   C3B23373  35.245  28.814   7.787
 1687POPC   C4B23374  35.542  28.783   7.410
 1688POPC   NC323375   9.226  10.072   9.327
 1688POPC   PO423376   9.320   9.433   9.483
 1688POPC   GL123377   9.008   9.612   9.116
 1688POPC   GL223378   8.772   9.920   9.068
 1688POPC   C1A23379   9.093   9.779   8.692
 1688POPC   D2A23380   8.888   9.960   8.342
 1688POPC   C3A23381   8.956   9.759   7.952
 1688POPC   C4A23382   9.144   9.672   7.567
 1688POPC   C1B23383   8.590   9.696   8.740
 1688POPC   C2B23384   8.621   9.536   8.325
 1688POPC   C3B23385   8.468   9.582   7.923
 1688POPC   C4B23386   8.659   9.427   7.584
 1689POPC   NC323387  18.399   9.235   9.430
 1689POPC   PO423388  18.342   8.677   9.179
 1689POPC   GL123389  18.231   9.003   8.903
 1689POPC   GL223390  18.348   9.363   8.932
 1689POPC   C1A23391  18.216   9.059   8.470
 1689POPC   D2A23392  18.303   8.687   8.199
 1689POPC   C3A23393  18.131   8.833   7.861
 1689POPC   C4A23394  17.899   9.189   7.886
 1689POPC   C1B23395  18.682   9.156   8.702
 1689POPC   C2B23396  18.690   9.037   8.264
 1689POPC   C3B23397  18.602   9.005   7.829
 1689POPC   C4B23398  18.330   9.232   7.577
 1690POPC   NC323399  29.842  41.171   9.493
 1690POPC   PO423400  30.167  40.569   9.448
 1690POPC   GL123401  29.958  40.676   9.079
 1690POPC   GL223402  29.750  40.953   9.059
 1690POPC   C1A23403  29.733  40.577   8.697
 1690POPC   D2A23404  29.727  40.807   8.327
 1690POPC   C3A23405  30.070  40.719   8.054
 1690POPC   C4A23406  29.942  40.485   7.731
 1690POPC   C1B23407  30.032  41.056   8.729
 1690POPC   C2B23408  29.932  41.265   8.355
 1690POPC   C3B23409  30.007  41.218   7.956
 1690POPC   C4B23410  29.748  40.993   7.709
 1691POPC   NC323411   1.821  40.188   9.597
 1691POPC   PO423412   2.273  39.693   9.448
 1691POPC   GL123413   2.167  39.898   9.095
 1691POPC   GL223414   1.866  40.069   9.111
 1691POPC   C1A23415   1.954  39.727   8.698
 1691POPC   D2A23416   1.738  39.611   8.336
 1691POPC   C3A23417   1.874  39.807   7.961
 1691POPC   C4A23418   1.996  39.956   7.559
 1691POPC   C1B23419   2.089  40.224   8.728
 1691POPC   C2B23420   2.197  40.042   8.348
 1691POPC   C3B23421   2.122  40.246   7.999
 1691POPC   C4B23422   1.997  40.472   7.673
 1692POPC   NC323423  21.457  27.247   9.665
 1692POPC   PO423424  21.681  27.892   9.714
 1692POPC   GL123425  21.594  27.649   9.282
 1692POPC   GL223426  21.307  27.434   9.198
 1692POPC   C1A23427  21.624  27.418   8.823
 1692POPC   D2A23428  21.381  27.304   8.441
 1692POPC   C3A23429  21.585  27.371   8.043
 1692POPC   C4A23430  21.555  27.628   7.685
 1692POPC   C1B23431  21.053  27.451   8.812
 1692POPC   C2B23432  21.008  27.711   8.467
 1692POPC   C3B23433  21.209  27.745   8.092
 1692POPC   C4B23434  21.048  27.641   7.733
 1693POPC   NC323435  14.079  32.399   9.427
 1693POPC   PO423436  13.403  32.315   9.435
 1693POPC   GL123437  13.664  32.308   9.091
 1693POPC   GL223438  13.855  31.978   9.080
 1693POPC   C1A23439  13.767  32.465   8.671
 1693POPC   D2A23440  13.804  32.435   8.235
 1693POPC   C3A23441  13.646  32.714   7.921
 1693POPC   C4A23442  13.414  32.590   7.560
 1693POPC   C1B23443  13.533  31.977   8.729
 1693POPC   C2B23444  13.416  32.074   8.277
 1693POPC   C3B23445  13.602  32.187   7.861
 1693POPC   C4B23446  13.965  32.053   7.583
 1694POPC   NC323447   1.017  32.802   9.363
 1694POPC   PO423448   1.370  33.357   9.411
 1694POPC   GL123449   1.283  33.175   9.046
 1694POPC   GL223450   0.929  33.261   9.079
 1694POPC   C1A23451   1.182  32.888   8.698
 1694POPC   D2A23452   0.899  32.824   8.339
 1694POPC   C3A23453   1.101  32.721   7.954
 1694POPC   C4A23454   1.515  32.669   7.812
 1694POPC   C1B23455   1.025  33.403   8.667
 1694POPC   C2B23456   1.296  33.261   8.350
 1694POPC   C3B23457   1.160  33.237   7.943
 1694POPC   C4B23458   1.321  33.070   7.576
 1695POPC   NC323459  36.269  18.518   9.476
 1695POPC   PO423460  36.143  17.862   9.290
 1695POPC   GL123461  36.169  18.241   9.053
 1695POPC   GL223462  36.484  18.303   9.065
 1695POPC   C1A23463  36.238  18.502   8.636
 1695POPC   D2A23464  35.946  18.504   8.280
 1695POPC   C3A23465  35.989  18.264   7.884
 1695POPC   C4A23466  36.058  18.632   7.614
 1695POPC   C1B23467  36.470  18.051   8.702
 1695POPC   C2B23468  36.347  18.147   8.287
 1695POPC   C3B23469  36.402  18.490   8.013
 1695POPC   C4B23470  36.466  18.332   7.614
 1696POPC   NC323471  17.091   9.310   9.522
 1696POPC   PO423472  16.672   8.733   9.643
 1696POPC   GL123473  16.707   8.655   9.211
 1696POPC   GL223474  17.037   8.681   9.152
 1696POPC   C1A23475  16.736   8.581   8.755
 1696POPC   D2A23476  16.732   8.813   8.404
 1696POPC   C3A23477  16.795   8.692   7.999
 1696POPC   C4A23478  16.636   8.717   7.554
 1696POPC   C1B23479  16.828   9.071   8.932
 1696POPC   C2B23480  16.949   9.270   8.538
 1696POPC   C3B23481  16.904   9.245   8.119
 1696POPC   C4B23482  16.974   9.058   7.712
 1697POPC   NC323483  13.859   4.875   9.954
 1697POPC   PO423484  14.411   5.173   9.779
 1697POPC   GL123485  14.254   5.292   9.214
 1697POPC   GL223486  14.194   4.964   8.998
 1697POPC   C1A23487  14.261   5.375   8.733
 1697POPC   D2A23488  14.469   5.238   8.348
 1697POPC   C3A23489  14.322   5.197   7.944
 1697POPC   C4A23490  14.286   5.518   7.649
 1697POPC   C1B23491  14.322   4.801   8.600
 1697POPC   C2B23492  14.613   4.735   8.262
 1697POPC   C3B23493  14.522   4.685   7.837
 1697POPC   C4B23494  14.090   4.749   7.769
 1698POPC   NC323495  31.912   2.845   9.387
 1698POPC   PO423496  31.292   2.970   9.435
 1698POPC   GL123497  31.521   3.057   9.109
 1698POPC   GL223498  31.545   2.683   9.078
 1698POPC   C1A23499  31.608   3.008   8.693
 1698POPC   D2A23500  31.693   2.714   8.396
 1698POPC   C3A23501  31.494   2.866   8.058
 1698POPC   C4A23502  31.584   2.959   7.670
 1698POPC   C1B23503  31.338   2.533   8.752
 1698POPC   C2B23504  31.182   2.601   8.372
 1698POPC   C3B23505  31.226   2.455   7.969
 1698POPC   C4B23506  31.180   2.650   7.610
 1699POPC   NC323507  12.029   2.594   9.655
 1699POPC   PO423508  12.125   3.254   9.548
 1699POPC   GL123509  12.004   2.913   9.264
 1699POPC   GL223510  12.305   2.740   9.197
 1699POPC   C1A23511  11.919   2.853   8.831
 1699POPC   D2A23512  11.992   3.107   8.484
 1699POPC   C3A23513  11.895   2.995   8.075
 1699POPC   C4A23514  12.172   3.055   7.721
 1699POPC   C1B23515  12.320   2.496   8.818
 1699POPC   C2B23516  12.141   2.613   8.451
 1699POPC   C3B23517  12.200   2.590   8.071
 1699POPC   C4B23518  11.843   2.542   7.822
 1700POPC   NC323519  20.472  13.437   9.490
 1700POPC   PO423520  20.850  14.019   9.502
 1700POPC   GL123521  20.624  13.810   9.182
 1700POPC   GL223522  20.848  13.509   9.110
 1700POPC   C1A23523  20.528  13.713   8.754
 1700POPC   D2A23524  20.712  13.607   8.379
 1700POPC   C3A23525  20.506  13.677   7.987
 1700POPC   C4A23526  20.720  13.867   7.602
 1700POPC   C1B23527  20.672  13.231   8.770
 1700POPC   C2B23528  20.443  13.181   8.390
 1700POPC   C3B23529  20.619  13.169   8.004
 1700POPC   C4B23530  20.767  13.384   7.666
 1701POPC   NC323531   7.261  13.539   9.394
 1701POPC   PO423532   6.635  13.766   9.566
 1701POPC   GL123533   6.723  13.651   9.156
 1701POPC   GL223534   6.956  13.374   9.021
 1701POPC   C1A23535   6.525  13.810   8.785
 1701POPC   D2A23536   6.278  13.552   8.509
 1701POPC   C3A23537   6.434  13.665   8.145
 1701POPC   C4A23538   6.488  13.310   7.895
 1701POPC   C1B23539   7.060  13.813   8.823
 1701POPC   C2B23540   6.964  13.922   8.417
 1701POPC   C3B23541   6.950  13.675   8.044
 1701POPC   C4B23542   6.697  13.763   7.720
 1702POPC   NC323543  28.799  35.536   9.414
 1702POPC   PO423544  29.509  35.390   9.359
 1702POPC   GL123545  29.370  35.317   8.967
 1702POPC   GL223546  29.060  35.418   9.022
 1702POPC   C1A23547  29.177  35.324   8.557
 1702POPC   D2A23548  29.229  35.586   8.272
 1702POPC   C3A23549  29.219  35.375   7.936
 1702POPC   C4A23550  29.580  35.374   7.724
 1702POPC   C1B23551  28.765  35.660   8.777
 1702POPC   C2B23552  28.689  35.531   8.391
 1702POPC   C3B23553  28.785  35.663   8.042
 1702POPC   C4B23554  28.778  35.497   7.684
 1703POPC   NC323555   4.134  31.479   9.511
 1703POPC   PO423556   4.216  32.103   9.552
 1703POPC   GL123557   4.537  31.950   9.210
 1703POPC   GL223558   4.405  31.598   9.092
 1703POPC   C1A23559   4.565  31.912   8.733
 1703POPC   D2A23560   4.364  31.551   8.541
 1703POPC   C3A23561   4.257  31.534   8.141
 1703POPC   C4A23562   4.520  31.722   7.859
 1703POPC   C1B23563   4.306  31.184   8.867
 1703POPC   C2B23564   4.546  30.974   8.550
 1703POPC   C3B23565   4.524  31.075   8.115
 1703POPC   C4B23566   4.275  31.223   7.745
 1704POPC   NC323567  28.580   5.554   9.615
 1704POPC   PO423568  28.168   6.021   9.358
 1704POPC   GL123569  28.567   5.824   9.143
 1704POPC   GL223570  28.615   5.466   9.119
 1704POPC   C1A23571  28.735   6.006   8.763
 1704POPC   D2A23572  28.872   6.054   8.325
 1704POPC   C3A23573  28.515   6.069   8.047
 1704POPC   C4A23574  28.170   5.756   7.953
 1704POPC   C1B23575  28.806   5.488   8.740
 1704POPC   C2B23576  28.603   5.635   8.390
 1704POPC   C3B23577  28.835   5.614   8.039
 1704POPC   C4B23578  28.604   5.729   7.672
 1705POPC   NC323579  24.295   8.081   9.391
 1705POPC   PO423580  24.802   8.515   9.343
 1705POPC   GL123581  24.501   8.395   9.058
 1705POPC   GL223582  24.528   8.078   8.954
 1705POPC   C1A23583  24.269   8.483   8.710
 1705POPC   D2A23584  24.149   8.452   8.272
 1705POPC   C3A23585  24.324   8.137   7.967
 1705POPC   C4A23586  24.461   8.217   7.542
 1705POPC   C1B23587  24.729   7.835   8.670
 1705POPC   C2B23588  24.546   7.782   8.302
 1705POPC   C3B23589  24.738   7.729   7.984
 1705POPC   C4B23590  24.799   7.846   7.616
 1706POPC   NC323591   5.280  40.679   9.439
 1706POPC   PO423592   4.682  40.378   9.578
 1706POPC   GL123593   4.829  40.474   9.152
 1706POPC   GL223594   4.987  40.822   9.075
 1706POPC   C1A23595   5.006  40.445   8.739
 1706POPC   D2A23596   5.042  40.641   8.392
 1706POPC   C3A23597   4.999  40.415   8.023
 1706POPC   C4A23598   5.068  40.487   7.624
 1706POPC   C1B23599   4.911  41.164   8.804
 1706POPC   C2B23600   5.056  41.144   8.404
 1706POPC   C3B23601   5.168  40.955   8.007
 1706POPC   C4B23602   4.924  41.136   7.709
 1707POPC   NC323603  24.183   4.688   9.409
 1707POPC   PO423604  24.825   4.802   9.502
 1707POPC   GL123605  24.566   4.935   9.182
 1707POPC   GL223606  24.789   5.137   9.063
 1707POPC   C1A23607  24.368   5.018   8.780
 1707POPC   D2A23608  24.587   5.055   8.392
 1707POPC   C3A23609  24.444   5.338   8.049
 1707POPC   C4A23610  24.502   4.964   7.805
 1707POPC   C1B23611  24.714   5.418   8.739
 1707POPC   C2B23612  24.884   5.443   8.349
 1707POPC   C3B23613  24.937   5.254   7.972
 1707POPC   C4B23614  24.761   5.327   7.568
 1708POPC   NC323615  12.009  42.561   9.292
 1708POPC   PO423616  12.174  41.883   9.524
 1708POPC   GL123617  12.075  42.062   9.144
 1708POPC   GL223618  12.374  42.207   9.170
 1708POPC   C1A23619  12.028  42.140   8.713
 1708POPC   D2A23620  12.119  42.533   8.491
 1708POPC   C3A23621  11.835  42.560   8.153
 1708POPC   C4A23622  11.872  42.535   7.691
 1708POPC   C1B23623  12.508  42.302   8.795
 1708POPC   C2B23624  12.466  42.150   8.398
 1708POPC   C3B23625  12.251  42.280   8.054
 1708POPC   C4B23626  12.391  42.283   7.685
 1709POPC   NC323627  42.900   4.853   9.491
 1709POPC   PO423628  43.439   5.227   9.514
 1709POPC   GL123629  43.184   5.167   9.171
 1709POPC   GL223630  43.289   4.849   9.137
 1709POPC   C1A23631  42.960   5.022   8.782
 1709POPC   D2A23632  42.797   4.781   8.405
 1709POPC   C3A23633  42.804   5.023   8.028
 1709POPC   C4A23634  42.921   5.024   7.624
 1709POPC   C1B23635  43.424   4.800   8.754
 1709POPC   C2B23636  43.279   4.928   8.372
 1709POPC   C3B23637  43.453   4.936   7.998
 1709POPC   C4B23638  43.641   5.095   7.691
 1710POPC   NC323639  30.863  36.263   9.362
 1710POPC   PO423640  30.291  36.436   9.111
 1710POPC   GL123641  30.581  36.218   8.937
 1710POPC   GL223642  30.939  36.162   8.866
 1710POPC   C1A23643  30.557  36.166   8.515
 1710POPC   D2A23644  30.721  35.853   8.315
 1710POPC   C3A23645  30.743  35.978   7.890
 1710POPC   C4A23646  30.533  35.754   7.548
 1710POPC   C1B23647  31.242  36.467   8.656
 1710POPC   C2B23648  31.274  36.496   8.208
 1710POPC   C3B23649  31.203  36.289   7.815
 1710POPC   C4B23650  30.842  36.395   7.579
 1711POPC   NC323651  29.503  30.299   9.368
 1711POPC   PO423652  28.978  29.922   9.562
 1711POPC   GL123653  29.074  29.821   9.176
 1711POPC   GL223654  29.410  29.875   9.112
 1711POPC   C1A23655  28.928  29.917   8.757
 1711POPC   D2A23656  28.724  30.001   8.379
 1711POPC   C3A23657  28.957  30.013   7.995
 1711POPC   C4A23658  28.864  29.819   7.603
 1711POPC   C1B23659  29.388  30.131   8.748
 1711POPC   C2B23660  29.551  30.235   8.371
 1711POPC   C3B23661  29.413  30.266   7.947
 1711POPC   C4B23662  29.344  29.974   7.608
 1712POPC   NC323663   3.729  10.136   9.661
 1712POPC   PO423664   3.559  10.843   9.611
 1712POPC   GL123665   3.630  10.620   9.202
 1712POPC   GL223666   3.689  10.261   9.169
 1712POPC   C1A23667   3.467  10.611   8.760
 1712POPC   D2A23668   3.387  10.411   8.343
 1712POPC   C3A23669   3.404  10.669   7.951
 1712POPC   C4A23670   3.741  10.896   7.721
 1712POPC   C1B23671   3.964  10.423   8.850
 1712POPC   C2B23672   3.896  10.632   8.466
 1712POPC   C3B23673   3.883  10.524   8.041
 1712POPC   C4B23674   3.782  10.287   7.693
 1713POPC   NC323675  26.001  29.179   9.594
 1713POPC   PO423676  26.302  28.582   9.501
 1713POPC   GL123677  26.343  28.967   9.175
 1713POPC   GL223678  26.002  29.110   9.088
 1713POPC   C1A23679  26.393  29.186   8.734
 1713POPC   D2A23680  26.163  29.174   8.319
 1713POPC   C3A23681  26.204  29.330   7.905
 1713POPC   C4A23682  26.169  29.129   7.560
 1713POPC   C1B23683  25.818  29.244   8.707
 1713POPC   C2B23684  25.618  29.041   8.382
 1713POPC   C3B23685  25.773  29.048   7.969
 1713POPC   C4B23686  25.725  29.391   7.709
 1714POPC   NC323687  19.779  23.085   9.704
 1714POPC   PO423688  19.954  23.645   9.353
 1714POPC   GL123689  19.902  23.932   9.019
 1714POPC   GL223690  19.564  23.879   8.852
 1714POPC   C1A23691  20.016  23.953   8.589
 1714POPC   D2A23692  19.766  23.827   8.233
 1714POPC   C3A23693  19.866  24.066   7.849
 1714POPC   C4A23694  20.215  23.982   7.576
 1714POPC   C1B23695  19.751  23.494   8.697
 1714POPC   C2B23696  19.772  23.185   8.354
 1714POPC   C3B23697  19.953  23.279   7.952
 1714POPC   C4B23698  19.807  23.611   7.679
 1715POPC   NC323699  16.201  39.842   9.456
 1715POPC   PO423700  15.653  40.342   9.502
 1715POPC   GL123701  15.670  40.090   9.079
 1715POPC   GL223702  15.936  39.834   9.015
 1715POPC   C1A23703  15.752  40.083   8.600
 1715POPC   D2A23704  16.011  39.837   8.310
 1715POPC   C3A23705  15.776  39.804   7.905
 1715POPC   C4A23706  15.626  40.002   7.518
 1715POPC   C1B23707  16.171  40.215   8.852
 1715POPC   C2B23708  16.235  40.338   8.403
 1715POPC   C3B23709  16.131  40.197   7.959
 1715POPC   C4B23710  16.089  40.211   7.507
 1716POPC   NC323711  13.759  36.723   9.539
 1716POPC   PO423712  13.432  37.294   9.426
 1716POPC   GL123713  13.593  37.057   9.145
 1716POPC   GL223714  13.389  36.791   9.178
 1716POPC   C1A23715  13.539  37.031   8.728
 1716POPC   D2A23716  13.602  36.820   8.385
 1716POPC   C3A23717  13.450  37.042   8.063
 1716POPC   C4A23718  13.686  36.945   7.750
 1716POPC   C1B23719  13.253  36.599   8.817
 1716POPC   C2B23720  13.172  36.540   8.398
 1716POPC   C3B23721  13.344  36.559   8.005
 1716POPC   C4B23722  13.264  36.659   7.594
 1717POPC   NC323723  33.171   5.377   9.658
 1717POPC   PO423724  33.030   4.727   9.504
 1717POPC   GL123725  32.964   5.081   9.279
 1717POPC   GL223726  32.641   4.980   9.214
 1717POPC   C1A23727  32.898   5.328   8.922
 1717POPC   D2A23728  33.159   5.363   8.571
 1717POPC   C3A23729  32.917   5.471   8.223
 1717POPC   C4A23730  33.024   5.258   7.863
 1717POPC   C1B23731  32.831   4.785   8.847
 1717POPC   C2B23732  32.861   4.953   8.431
 1717POPC   C3B23733  32.923   4.781   8.037
 1717POPC   C4B23734  32.755   4.860   7.645
 1718POPC   NC323735  17.170  18.660  10.017
 1718POPC   PO423736  17.565  18.335   9.510
 1718POPC   GL123737  17.560  18.333   9.085
 1718POPC   GL223738  17.455  17.989   9.014
 1718POPC   C1A23739  17.700  18.249   8.659
 1718POPC   D2A23740  17.465  18.390   8.295
 1718POPC   C3A23741  17.672  18.246   7.941
 1718POPC   C4A23742  17.836  18.412   7.570
 1718POPC   C1B23743  17.182  18.247   8.727
 1718POPC   C2B23744  16.979  18.177   8.319
 1718POPC   C3B23745  17.162  18.167   7.897
 1718POPC   C4B23746  17.457  17.953   7.591
 1719POPC   NC323747  44.331  14.578   9.458
 1719POPC   PO423748  44.807  14.132   9.582
 1719POPC   GL123749  44.714  14.316   9.175
 1719POPC   GL223750  44.366  14.280   9.054
 1719POPC   C1A23751  44.681  14.583   8.785
 1719POPC   D2A23752  44.417  14.622   8.422
 1719POPC   C3A23753  44.677  14.625   8.077
 1719POPC   C4A23754  44.473  14.567   7.673
 1719POPC   C1B23755  44.607  14.060   8.756
 1719POPC   C2B23756  44.732  14.222   8.389
 1719POPC   C3B23757  44.717  14.140   7.965
 1719POPC   C4B23758  44.971  14.394   7.715
 1720POPC   NC323759   7.811  25.138   9.485
 1720POPC   PO423760   8.488  25.286   9.509
 1720POPC   GL123761   8.184  25.366   9.189
 1720POPC   GL223762   8.101  25.061   9.066
 1720POPC   C1A23763   8.095  25.449   8.750
 1720POPC   D2A23764   8.010  25.263   8.375
 1720POPC   C3A23765   7.980  25.476   7.977
 1720POPC   C4A23766   8.194  25.645   7.604
 1720POPC   C1B23767   8.053  24.837   8.722
 1720POPC   C2B23768   7.856  24.789   8.314
 1720POPC   C3B23769   7.799  24.993   7.927
 1720POPC   C4B23770   8.123  25.117   7.650
 1721POPC   NC323771  20.107  37.545   9.455
 1721POPC   PO423772  19.547  37.848   9.506
 1721POPC   GL123773  19.805  37.859   9.133
 1721POPC   GL223774  19.593  38.143   9.044
 1721POPC   C1A23775  19.939  37.591   8.741
 1721POPC   D2A23776  19.889  37.373   8.300
 1721POPC   C3A23777  19.807  37.618   7.896
 1721POPC   C4A23778  19.828  37.735   7.422
 1721POPC   C1B23779  19.525  37.946   8.672
 1721POPC   C2B23780  19.701  37.935   8.279
 1721POPC   C3B23781  19.581  38.095   7.852
 1721POPC   C4B23782  19.460  38.080   7.399
 1722POPC   NC323783  28.376  32.522   9.790
 1722POPC   PO423784  28.228  33.191   9.590
 1722POPC   GL123785  28.117  33.273   9.170
 1722POPC   GL223786  28.373  33.039   9.079
 1722POPC   C1A23787  28.053  33.211   8.697
 1722POPC   D2A23788  28.124  32.946   8.337
 1722POPC   C3A23789  28.294  33.100   8.023
 1722POPC   C4A23790  28.138  33.183   7.703
 1722POPC   C1B23791  28.433  32.830   8.698
 1722POPC   C2B23792  28.612  32.790   8.277
 1722POPC   C3B23793  28.729  32.889   7.853
 1722POPC   C4B23794  28.635  33.300   7.639
 1723POPC   NC323795  26.722  22.635   9.565
 1723POPC   PO423796  26.935  21.960   9.625
 1723POPC   GL123797  26.890  22.254   9.263
 1723POPC   GL223798  26.563  22.394   9.159
 1723POPC   C1A23799  26.874  22.164   8.826
 1723POPC   D2A23800  27.149  22.108   8.491
 1723POPC   C3A23801  26.943  21.935   8.125
 1723POPC   C4A23802  26.660  22.112   7.860
 1723POPC   C1B23803  26.597  22.594   8.748
 1723POPC   C2B23804  26.713  22.396   8.357
 1723POPC   C3B23805  26.480  22.584   8.016
 1723POPC   C4B23806  26.426  22.480   7.618
 1724POPC   NC323807  14.577  36.339   9.590
 1724POPC   PO423808  14.261  35.719   9.600
 1724POPC   GL123809  14.300  36.014   9.262
 1724POPC   GL223810  14.646  36.060   9.130
 1724POPC   C1A23811  14.207  36.289   8.915
 1724POPC   D2A23812  14.108  36.163   8.499
 1724POPC   C3A23813  14.317  36.266   8.116
 1724POPC   C4A23814  14.136  36.170   7.714
 1724POPC   C1B23815  14.611  36.043   8.655
 1724POPC   C2B23816  14.712  35.912   8.225
 1724POPC   C3B23817  14.747  36.096   7.825
 1724POPC   C4B23818  14.792  36.555   7.798
 1725POPC   NC323819  40.820  35.078   9.572
 1725POPC   PO423820  41.029  35.733   9.509
 1725POPC   GL123821  41.074  35.423   9.192
 1725POPC   GL223822  40.736  35.371   9.114
 1725POPC   C1A23823  41.045  35.488   8.747
 1725POPC   D2A23824  40.846  35.343   8.399
 1725POPC   C3A23825  41.141  35.357   8.089
 1725POPC   C4A23826  40.936  35.377   7.719
 1725POPC   C1B23827  40.507  35.571   8.749
 1725POPC   C2B23828  40.435  35.715   8.313
 1725POPC   C3B23829  40.513  35.692   7.869
 1725POPC   C4B23830  40.298  35.808   7.487
 1726POPC   NC323831  22.184  10.110   9.480
 1726POPC   PO423832  22.320  10.799   9.486
 1726POPC   GL123833  22.408  10.652   9.080
 1726POPC   GL223834  22.132  10.410   9.090
 1726POPC   C1A23835  22.392  10.428   8.675
 1726POPC   D2A23836  22.616  10.187   8.415
 1726POPC   C3A23837  22.565  10.356   8.050
 1726POPC   C4A23838  22.301  10.378   7.744
 1726POPC   C1B23839  21.900  10.324   8.713
 1726POPC   C2B23840  21.909  10.585   8.338
 1726POPC   C3B23841  21.838  10.444   7.912
 1726POPC   C4B23842  21.898  10.019   7.751
 1727POPC   NC323843  12.864  33.460   9.541
 1727POPC   PO423844  12.904  32.777   9.502
 1727POPC   GL123845  12.835  33.048   9.172
 1727POPC   GL223846  13.132  33.186   9.043
 1727POPC   C1A23847  12.580  32.904   8.824
 1727POPC   D2A23848  12.438  33.010   8.400
 1727POPC   C3A23849  12.756  33.187   8.148
 1727POPC   C4A23850  12.837  33.323   7.744
 1727POPC   C1B23851  13.076  32.852   8.764
 1727POPC   C2B23852  12.849  32.680   8.408
 1727POPC   C3B23853  12.724  32.700   7.981
 1727POPC   C4B23854  12.909  32.611   7.551
 1728POPC   NC323855  42.790  40.854   9.485
 1728POPC   PO423856  43.293  40.531   9.459
 1728POPC   GL123857  43.161  40.547   9.076
 1728POPC   GL223858  42.820  40.466   9.119
 1728POPC   C1A23859  43.265  40.784   8.733
 1728POPC   D2A23860  43.128  40.894   8.331
 1728POPC   C3A23861  43.317  40.711   7.976
 1728POPC   C4A23862  43.507  40.911   7.652
 1728POPC   C1B23863  42.745  40.730   8.728
 1728POPC   C2B23864  42.617  40.807   8.283
 1728POPC   C3B23865  42.842  40.873   7.868
 1728POPC   C4B23866  43.025  40.885   7.419
 1729POPC   NC323867  18.664   4.664   9.855
 1729POPC   PO423868  18.131   4.249   9.612
 1729POPC   GL123869  18.286   4.399   9.230
 1729POPC   GL223870  18.315   4.050   9.078
 1729POPC   C1A23871  18.199   4.455   8.798
 1729POPC   D2A23872  18.366   4.223   8.461
 1729POPC   C3A23873  18.297   4.491   8.161
 1729POPC   C4A23874  17.870   4.573   7.989
 1729POPC   C1B23875  18.569   3.839   8.729
 1729POPC   C2B23876  18.707   3.905   8.266
 1729POPC   C3B23877  18.441   4.069   7.904
 1729POPC   C4B23878  18.439   3.965   7.450
 1730POPC   NC323879  28.948  15.779   9.562
 1730POPC   PO423880  29.179  16.393   9.563
 1730POPC   GL123881  29.141  16.078   9.192
 1730POPC   GL223882  28.771  16.055   9.157
 1730POPC   C1A23883  29.288  15.822   8.801
 1730POPC   D2A23884  29.066  15.691   8.364
 1730POPC   C3A23885  29.312  15.790   7.957
 1730POPC   C4A23886  29.042  15.717   7.579
 1730POPC   C1B23887  28.895  16.125   8.734
 1730POPC   C2B23888  29.180  16.162   8.363
 1730POPC   C3B23889  28.954  16.121   7.999
 1730POPC   C4B23890  29.116  16.223   7.611
 1731POPC   NC323891  37.006  17.042   9.509
 1731POPC   PO423892  36.720  16.587   9.818
 1731POPC   GL123893  36.824  16.632   9.308
 1731POPC   GL223894  36.580  16.767   9.096
 1731POPC   C1A23895  37.101  16.609   8.933
 1731POPC   D2A23896  37.129  16.400   8.516
 1731POPC   C3A23897  37.044  16.648   8.131
 1731POPC   C4A23898  36.980  16.569   7.687
 1731POPC   C1B23899  36.736  16.847   8.671
 1731POPC   C2B23900  36.565  16.946   8.280
 1731POPC   C3B23901  36.551  16.754   7.881
 1731POPC   C4B23902  36.580  16.837   7.407
 1732POPC   NC323903   9.591  34.443   9.453
 1732POPC   PO423904  10.162  34.908   9.403
 1732POPC   GL123905   9.904  34.691   9.112
 1732POPC   GL223906   9.992  34.372   9.105
 1732POPC   C1A23907   9.606  34.629   8.806
 1732POPC   D2A23908   9.585  34.325   8.486
 1732POPC   C3A23909   9.548  34.510   8.103
 1732POPC   C4A23910   9.572  34.298   7.736
 1732POPC   C1B23911  10.058  34.418   8.685
 1732POPC   C2B23912  10.000  34.610   8.306
 1732POPC   C3B23913  10.069  34.422   7.906
 1732POPC   C4B23914   9.993  34.301   7.480
 1733POPC   NC323915  33.079   0.829   9.469
 1733POPC   PO423916  33.138   1.463   9.403
 1733POPC   GL123917  33.025   1.182   9.087
 1733POPC   GL223918  32.809   0.881   9.047
 1733POPC   C1A23919  33.024   1.315   8.684
 1733POPC   D2A23920  32.910   1.638   8.405
 1733POPC   C3A23921  33.051   1.451   8.037
 1733POPC   C4A23922  32.802   1.201   7.745
 1733POPC   C1B23923  33.084   0.796   8.713
 1733POPC   C2B23924  33.124   0.982   8.280
 1733POPC   C3B23925  33.196   0.890   7.834
 1733POPC   C4B23926  32.977   0.849   7.402
 1734POPC   NC323927  11.742  44.013   9.486
 1734POPC   PO423928  12.347  43.804   9.423
 1734POPC   GL123929  12.385  44.004   9.064
 1734POPC   GL223930  12.027  43.930   9.031
 1734POPC   C1A23931  12.370  43.911   8.642
 1734POPC   D2A23932  12.140  43.821   8.288
 1734POPC   C3A23933  12.143  44.105   7.952
 1734POPC   C4A23934  12.306  43.783   7.679
 1734POPC   C1B23935  11.882  44.114   8.652
 1734POPC   C2B23936  11.708  44.092   8.234
 1734POPC   C3B23937  11.744  43.802   7.873
 1734POPC   C4B23938  11.865  43.992   7.478
 1735POPC   NC323939  25.460  43.848   9.601
 1735POPC   PO423940  24.822  44.161   9.458
 1735POPC   GL123941  25.012  43.985   9.111
 1735POPC   GL223942  25.349  43.870   9.106
 1735POPC   C1A23943  24.867  43.959   8.709
 1735POPC   D2A23944  24.974  44.149   8.325
 1735POPC   C3A23945  25.177  43.875   8.028
 1735POPC   C4A23946  25.114  43.760   7.584
 1735POPC   C1B23947  25.366  43.886   8.671
 1735POPC   C2B23948  25.508  44.217   8.421
 1735POPC   C3B23949  25.657  44.152   8.053
 1735POPC   C4B23950  25.586  43.880   7.708
 1736POPC   NC323951  36.418  21.494   9.772
 1736POPC   PO423952  37.050  21.381   9.586
 1736POPC   GL123953  37.146  21.314   9.170
 1736POPC   GL223954  36.929  21.618   9.117
 1736POPC   C1A23955  37.221  21.075   8.766
 1736POPC   D2A23956  36.950  21.013   8.372
 1736POPC   C3A23957  36.925  21.259   7.975
 1736POPC   C4A23958  37.184  21.396   7.611
 1736POPC   C1B23959  36.781  21.346   8.775
 1736POPC   C2B23960  36.574  21.384   8.365
 1736POPC   C3B23961  36.400  21.632   8.030
 1736POPC   C4B23962  36.664  21.680   7.731
 1737POPC   NC323963  18.899  21.074   9.385
 1737POPC   PO423964  18.928  20.406   9.532
 1737POPC   GL123965  19.018  20.576   9.134
 1737POPC   GL223966  18.696  20.409   9.058
 1737POPC   C1A23967  19.129  20.878   8.784
 1737POPC   D2A23968  19.011  21.003   8.361
 1737POPC   C3A23969  19.183  20.978   7.973
 1737POPC   C4A23970  18.922  20.815   7.631
 1737POPC   C1B23971  18.803  20.511   8.668
 1737POPC   C2B23972  19.162  20.490   8.416
 1737POPC   C3B23973  19.065  20.488   8.010
 1737POPC   C4B23974  18.895  20.313   7.626
 1738POPC   NC323975  38.578  39.469   9.482
 1738POPC   PO423976  38.244  38.856   9.545
 1738POPC   GL123977  38.510  39.048   9.212
 1738POPC   GL223978  38.210  39.261   9.161
 1738POPC   C1A23979  38.588  39.227   8.804
 1738POPC   D2A23980  38.218  39.098   8.554
 1738POPC   C3A23981  38.319  39.165   8.118
 1738POPC   C4A23982  38.580  39.168   7.768
 1738POPC   C1B23983  38.183  39.562   8.831
 1738POPC   C2B23984  38.179  39.575   8.410
 1738POPC   C3B23985  38.237  39.702   8.046
 1738POPC   C4B23986  38.640  39.634   7.978
 1739POPC   NC323987  20.252  35.234   9.524
 1739POPC   PO423988  20.922  35.529   9.527
 1739POPC   GL123989  20.613  35.411   9.199
 1739POPC   GL223990  20.324  35.652   9.223
 1739POPC   C1A23991  20.700  35.189   8.800
 1739POPC   D2A23992  20.928  35.287   8.430
 1739POPC   C3A23993  20.767  35.108   8.061
 1739POPC   C4A23994  20.758  35.292   7.680
 1739POPC   C1B23995  20.284  35.492   8.815
 1739POPC   C2B23996  20.375  35.664   8.417
 1739POPC   C3B23997  20.410  35.507   8.030
 1739POPC   C4B23998  20.453  35.692   7.640
 1740POPC   NC323999  13.280  41.148   9.588
 1740POPC   PO424000  12.923  41.654   9.395
 1740POPC   GL124001  12.828  41.377   9.085
 1740POPC   GL224002  13.134  41.182   9.098
 1740POPC   C1A24003  12.981  41.465   8.680
 1740POPC   D2A24004  13.152  41.767   8.412
 1740POPC   C3A24005  13.025  41.544   8.059
 1740POPC   C4A24006  12.841  41.610   7.720
 1740POPC   C1B24007  13.385  41.132   8.724
 1740POPC   C2B24008  13.411  41.321   8.312
 1740POPC   C3B24009  13.427  41.273   7.853
 1740POPC   C4B24010  13.132  41.241   7.508
 1741POPC   NC324011  44.966  21.897   9.393
 1741POPC   PO424012  44.488  22.327   9.545
 1741POPC   GL124013  44.709  22.342   9.171
 1741POPC   GL224014   0.078  22.372   9.172
 1741POPC   C1A24015  44.592  22.162   8.769
 1741POPC   D2A24016  44.678  21.829   8.457
 1741POPC   C3A24017  44.416  21.829   8.102
 1741POPC   C4A24018  44.465  21.955   7.679
 1741POPC   C1B24019   0.098  22.184   8.732
 1741POPC   C2B24020  45.000  22.204   8.255
 1741POPC   C3B24021  44.906  22.302   7.806
 1741POPC   C4B24022   0.050  22.430   7.369
 1742POPC   NC324023  10.221   9.948   9.698
 1742POPC   PO424024  10.709  10.199   9.366
 1742POPC   GL124025  10.546   9.989   9.002
 1742POPC   GL224026  10.275   9.814   9.146
 1742POPC   C1A24027  10.702   9.800   8.593
 1742POPC   D2A24028  10.506   9.790   8.215
 1742POPC   C3A24029  10.460   9.597   7.828
 1742POPC   C4A24030  10.480   9.912   7.531
 1742POPC   C1B24031  10.393   9.498   8.823
 1742POPC   C2B24032  10.198   9.450   8.424
 1742POPC   C3B24033   9.928   9.392   8.106
 1742POPC   C4B24034  10.052   9.318   7.720
 1743POPC   NC324035  17.625  29.279   9.536
 1743POPC   PO424036  17.724  28.633   9.498
 1743POPC   GL124037  17.650  28.933   9.139
 1743POPC   GL224038  17.300  28.994   9.028
 1743POPC   C1A24039  17.636  29.078   8.681
 1743POPC   D2A24040  17.492  28.964   8.302
 1743POPC   C3A24041  17.237  29.078   7.997
 1743POPC   C4A24042  17.449  28.915   7.654
 1743POPC   C1B24043  17.184  29.353   8.693
 1743POPC   C2B24044  17.069  29.551   8.249
 1743POPC   C3B24045  17.105  29.557   7.787
 1743POPC   C4B24046  17.183  29.291   7.451
 1744POPC   NC324047  30.158   2.903   9.458
 1744POPC   PO424048  29.510   2.723   9.400
 1744POPC   GL124049  29.793   2.925   9.121
 1744POPC   GL224050  29.917   2.598   9.103
 1744POPC   C1A24051  30.087   2.913   8.759
 1744POPC   D2A24052  30.095   2.606   8.388
 1744POPC   C3A24053  30.077   2.810   7.963
 1744POPC   C4A24054  30.117   3.009   7.559
 1744POPC   C1B24055  29.767   2.308   8.814
 1744POPC   C2B24056  29.596   2.356   8.414
 1744POPC   C3B24057  29.743   2.442   8.028
 1744POPC   C4B24058  29.617   2.411   7.612
 1745POPC   NC324059  17.374  24.928   9.557
 1745POPC   PO424060  17.740  24.383   9.515
 1745POPC   GL124061  17.543  24.567   9.178
 1745POPC   GL224062  17.151  24.616   9.226
 1745POPC   C1A24063  17.759  24.672   8.787
 1745POPC   D2A24064  17.543  24.769   8.369
 1745POPC   C3A24065  17.785  24.692   8.003
 1745POPC   C4A24066  17.701  24.864   7.640
 1745POPC   C1B24067  17.242  24.631   8.780
 1745POPC   C2B24068  17.504  24.299   8.578
 1745POPC   C3B24069  17.494  24.306   8.150
 1745POPC   C4B24070  17.280  24.586   7.846
 1746POPC   NC324071   5.295  44.071   9.492
 1746POPC   PO424072   5.277  43.428   9.493
 1746POPC   GL124073   4.950  43.581   9.193
 1746POPC   GL224074   4.950  43.928   9.147
 1746POPC   C1A24075   4.957  43.608   8.746
 1746POPC   D2A24076   5.150  43.325   8.456
 1746POPC   C3A24077   5.202  43.463   8.044
 1746POPC   C4A24078   5.074  43.745   7.725
 1746POPC   C1B24079   5.058  44.230   8.818
 1746POPC   C2B24080   4.844  44.296   8.430
 1746POPC   C3B24081   4.870  44.421   7.998
 1746POPC   C4B24082   5.196  44.245   7.765
 1747POPC   NC324083   5.664   5.027   9.374
 1747POPC   PO424084   6.228   5.323   9.413
 1747POPC   GL124085   6.048   5.140   9.026
 1747POPC   GL224086   5.842   4.827   8.967
 1747POPC   C1A24087   5.934   5.326   8.622
 1747POPC   D2A24088   6.051   5.542   8.274
 1747POPC   C3A24089   6.066   5.259   7.925
 1747POPC   C4A24090   6.103   4.862   7.721
 1747POPC   C1B24091   5.523   5.076   8.741
 1747POPC   C2B24092   5.452   5.108   8.308
 1747POPC   C3B24093   5.597   4.992   7.899
 1747POPC   C4B24094   5.696   5.293   7.588
 1748POPC   NC324095  28.486  36.001   9.786
 1748POPC   PO424096  28.125  36.499   9.704
 1748POPC   GL124097  28.450  36.221   9.317
 1748POPC   GL224098  28.652  36.442   9.286
 1748POPC   C1A24099  28.319  35.958   8.869
 1748POPC   D2A24100  28.260  35.863   8.371
 1748POPC   C3A24101  28.170  36.233   8.106
 1748POPC   C4A24102  28.357  36.416   7.703
 1748POPC   C1B24103  28.762  36.190   8.894
 1748POPC   C2B24104  28.556  36.270   8.484
 1748POPC   C3B24105  28.663  36.177   8.063
 1748POPC   C4B24106  28.754  36.032   7.667
 1749POPC   NC324107  17.740  16.284   9.484
 1749POPC   PO424108  17.187  15.858   9.408
 1749POPC   GL124109  17.383  16.101   9.125
 1749POPC   GL224110  17.668  15.895   9.105
 1749POPC   C1A24111  17.367  15.993   8.685
 1749POPC   D2A24112  17.210  16.228   8.348
 1749POPC   C3A24113  17.411  16.125   8.018
 1749POPC   C4A24114  17.346  15.999   7.632
 1749POPC   C1B24115  17.828  15.739   8.705
 1749POPC   C2B24116  17.745  15.827   8.260
 1749POPC   C3B24117  17.800  15.823   7.785
 1749POPC   C4B24118  18.042  15.759   7.371
 1750POPC   NC324119  36.652  29.524   9.587
 1750POPC   PO424120  36.058  29.329   9.438
 1750POPC   GL124121  36.284  29.187   9.066
 1750POPC   GL224122  36.479  28.836   9.057
 1750POPC   C1A24123  36.035  29.333   8.705
 1750POPC   D2A24124  35.694  29.165   8.407
 1750POPC   C3A24125  35.853  29.065   8.010
 1750POPC   C4A24126  36.030  29.376   7.767
 1750POPC   C1B24127  36.521  28.967   8.655
 1750POPC   C2B24128  36.310  29.155   8.317
 1750POPC   C3B24129  36.450  29.168   7.936
 1750POPC   C4B24130  36.401  28.807   7.672
 1751POPC   NC324131  17.144  11.218   9.581
 1751POPC   PO424132  17.804  11.006   9.439
 1751POPC   GL124133  17.489  11.199   9.168
 1751POPC   GL224134  17.270  10.901   9.214
 1751POPC   C1A24135  17.601  11.463   8.790
 1751POPC   D2A24136  17.847  11.474   8.387
 1751POPC   C3A24137  17.610  11.504   8.003
 1751POPC   C4A24138  17.550  11.263   7.625
 1751POPC   C1B24139  17.315  10.823   8.811
 1751POPC   C2B24140  17.522  11.037   8.503
 1751POPC   C3B24141  17.560  10.993   8.073
 1751POPC   C4B24142  17.292  10.839   7.712
 1752POPC   NC324143  23.681  11.118   9.586
 1752POPC   PO424144  23.977  11.611   9.410
 1752POPC   GL124145  23.809  11.421   9.082
 1752POPC   GL224146  23.514  11.214   9.115
 1752POPC   C1A24147  23.863  11.337   8.661
 1752POPC   D2A24148  24.009  11.537   8.287
 1752POPC   C3A24149  23.846  11.287   7.975
 1752POPC   C4A24150  23.833  11.394   7.572
 1752POPC   C1B24151  23.383  11.538   8.826
 1752POPC   C2B24152  23.481  11.747   8.409
 1752POPC   C3B24153  23.445  11.601   7.966
 1752POPC   C4B24154  23.209  11.606   7.575
 1753POPC   NC324155   6.174   4.208   9.636
 1753POPC   PO424156   5.590   4.554   9.442
 1753POPC   GL124157   5.709   4.333   9.084
 1753POPC   GL224158   5.986   4.182   9.131
 1753POPC   C1A24159   5.784   4.407   8.677
 1753POPC   D2A24160   5.901   4.792   8.479
 1753POPC   C3A24161   5.933   4.624   8.120
 1753POPC   C4A24162   5.913   4.388   7.771
 1753POPC   C1B24163   6.153   4.036   8.728
 1753POPC   C2B24164   6.052   4.146   8.322
 1753POPC   C3B24165   5.974   3.944   7.980
 1753POPC   C4B24166   6.330   3.993   7.798
 1754POPC   NC324167  26.492   3.853   9.343
 1754POPC   PO424168  26.172   4.288   9.701
 1754POPC   GL124169  26.117   4.322   9.217
 1754POPC   GL224170  26.185   4.089   8.984
 1754POPC   C1A24171  25.977   4.554   8.829
 1754POPC   D2A24172  26.092   4.684   8.408
 1754POPC   C3A24173  25.990   4.363   8.105
 1754POPC   C4A24174  26.040   4.384   7.680
 1754POPC   C1B24175  26.515   4.002   8.689
 1754POPC   C2B24176  26.409   4.082   8.271
 1754POPC   C3B24177  26.344   3.991   7.847
 1754POPC   C4B24178  26.117   3.892   7.478
 1755POPC   NC324179  31.047  43.416   9.573
 1755POPC   PO424180  30.542  43.060   9.327
 1755POPC   GL124181  30.741  43.139   9.012
 1755POPC   GL224182  30.805  43.483   9.090
 1755POPC   C1A24183  30.608  42.945   8.653
 1755POPC   D2A24184  30.669  43.153   8.296
 1755POPC   C3A24185  30.956  42.927   8.114
 1755POPC   C4A24186  30.733  42.793   7.770
 1755POPC   C1B24187  31.114  43.595   8.774
 1755POPC   C2B24188  31.158  43.478   8.328
 1755POPC   C3B24189  30.968  43.388   7.935
 1755POPC   C4B24190  30.906  43.218   7.541
 1756POPC   NC324191  29.566  41.623   9.859
 1756POPC   PO424192  30.175  41.482   9.499
 1756POPC   GL124193  30.003  41.434   9.097
 1756POPC   GL224194  29.792  41.705   9.130
 1756POPC   C1A24195  30.068  41.597   8.707
 1756POPC   D2A24196  30.295  41.611   8.315
 1756POPC   C3A24197  30.101  41.710   7.915
 1756POPC   C4A24198  30.292  41.834   7.538
 1756POPC   C1B24199  29.611  41.855   8.734
 1756POPC   C2B24200  29.726  41.747   8.319
 1756POPC   C3B24201  29.556  41.820   7.930
 1756POPC   C4B24202  29.654  41.531   7.616
 1757POPC   NC324203  36.290   8.911   9.418
 1757POPC   PO424204  35.891   9.301   9.615
 1757POPC   GL124205  36.019   9.214   9.105
 1757POPC   GL224206  36.349   9.071   8.957
 1757POPC   C1A24207  36.094   9.233   8.581
 1757POPC   D2A24208  35.870   9.136   8.204
 1757POPC   C3A24209  36.195   9.103   7.894
 1757POPC   C4A24210  36.381   9.165   7.495
 1757POPC   C1B24211  35.964   8.803   8.797
 1757POPC   C2B24212  35.959   8.543   8.461
 1757POPC   C3B24213  36.089   8.624   8.052
 1757POPC   C4B24214  36.332   8.650   7.682
 1758POPC   NC324215  30.954  42.814   9.361
 1758POPC   PO424216  30.950  42.114   9.496
 1758POPC   GL124217  30.743  42.274   9.171
 1758POPC   GL224218  30.518  42.577   9.190
 1758POPC   C1A24219  30.924  42.297   8.774
 1758POPC   D2A24220  30.838  42.544   8.423
 1758POPC   C3A24221  30.831  42.342   8.050
 1758POPC   C4A24222  30.974  42.382   7.651
 1758POPC   C1B24223  30.413  42.398   8.813
 1758POPC   C2B24224  30.340  42.491   8.433
 1758POPC   C3B24225  30.349  42.525   8.049
 1758POPC   C4B24226  30.414  42.267   7.746
 1759POPC   NC324227  29.238  24.193   9.582
 1759POPC   PO424228  28.738  24.621   9.434
 1759POPC   GL124229  28.783  24.349   9.095
 1759POPC   GL224230  29.121  24.231   9.089
 1759POPC   C1A24231  28.954  24.545   8.723
 1759POPC   D2A24232  29.027  24.498   8.301
 1759POPC   C3A24233  29.246  24.794   8.075
 1759POPC   C4A24234  29.047  24.714   7.680
 1759POPC   C1B24235  29.389  24.241   8.726
 1759POPC   C2B24236  29.530  24.405   8.312
 1759POPC   C3B24237  29.365  24.321   7.914
 1759POPC   C4B24238  29.441  24.075   7.566
 1760POPC   NC324239   4.441  24.156   9.532
 1760POPC   PO424240   4.077  24.706   9.535
 1760POPC   GL124241   4.288  24.550   9.204
 1760POPC   GL224242   4.076  24.280   9.196
 1760POPC   C1A24243   4.354  24.472   8.768
 1760POPC   D2A24244   4.495  24.293   8.378
 1760POPC   C3A24245   4.355  24.437   7.989
 1760POPC   C4A24246   4.532  24.284   7.598
 1760POPC   C1B24247   3.986  24.101   8.831
 1760POPC   C2B24248   3.970  24.247   8.422
 1760POPC   C3B24249   3.955  24.056   8.025
 1760POPC   C4B24250   4.002  24.291   7.647
 1761POPC   NC324251  31.363  38.745   9.562
 1761POPC   PO424252  31.696  38.122   9.510
 1761POPC   GL124253  31.601  38.434   9.221
 1761POPC   GL224254  31.302  38.262   9.146
 1761POPC   C1A24255  31.481  38.564   8.790
 1761POPC   D2A24256  31.307  38.438   8.389
 1761POPC   C3A24257  31.524  38.497   8.010
 1761POPC   C4A24258  31.693  38.713   7.684
 1761POPC   C1B24259  31.162  38.125   8.773
 1761POPC   C2B24260  31.024  37.988   8.360
 1761POPC   C3B24261  31.146  38.150   7.951
 1761POPC   C4B24262  31.120  38.157   7.477
 1762POPC   NC324263  42.913  16.861   9.511
 1762POPC   PO424264  43.602  17.047   9.438
 1762POPC   GL124265  43.269  16.837   9.166
 1762POPC   GL224266  43.246  16.435   9.152
 1762POPC   C1A24267  43.037  17.053   8.826
 1762POPC   D2A24268  42.945  17.300   8.452
 1762POPC   C3A24269  42.966  17.110   8.063
 1762POPC   C4A24270  42.877  16.750   7.765
 1762POPC   C1B24271  43.263  16.584   8.742
 1762POPC   C2B24272  43.228  16.819   8.399
 1762POPC   C3B24273  43.275  16.602   8.067
 1762POPC   C4B24274  43.358  16.470   7.698
 1763POPC   NC324275  24.719  35.640   9.598
 1763POPC   PO424276  24.149  35.270   9.441
 1763POPC   GL124277  24.469  35.208   9.127
 1763POPC   GL224278  24.773  35.382   9.144
 1763POPC   C1A24279  24.549  35.172   8.672
 1763POPC   D2A24280  24.336  35.403   8.338
 1763POPC   C3A24281  24.542  35.429   7.918
 1763POPC   C4A24282  24.663  35.021   7.785
 1763POPC   C1B24283  24.830  35.586   8.745
 1763POPC   C2B24284  24.860  35.416   8.324
 1763POPC   C3B24285  25.041  35.342   7.914
 1763POPC   C4B24286  24.977  35.716   7.697
 1764POPC   NC324287   3.096   0.310   9.528
 1764POPC   PO424288   3.753   0.485   9.465
 1764POPC   GL124289   3.485   0.324   9.168
 1764POPC   GL224290   3.783   0.227   9.018
 1764POPC   C1A24291   3.355   0.173   8.757
 1764POPC   D2A24292   3.637   0.073   8.404
 1764POPC   C3A24293   3.478   0.052   7.981
 1764POPC   C4A24294   3.192   0.273   7.773
 1764POPC   C1B24295   3.749   0.521   8.691
 1764POPC   C2B24296   3.663   0.646   8.282
 1764POPC   C3B24297   3.766   0.468   7.894
 1764POPC   C4B24298   3.649   0.253   7.498
 1765POPC   NC324299  18.499  39.173   9.625
 1765POPC   PO424300  17.832  38.988   9.511
 1765POPC   GL124301  18.177  39.103   9.191
 1765POPC   GL224302  18.118  39.457   9.185
 1765POPC   C1A24303  18.369  39.207   8.745
 1765POPC   D2A24304  18.245  39.121   8.298
 1765POPC   C3A24305  18.440  39.107   7.876
 1765POPC   C4A24306  18.574  38.917   7.480
 1765POPC   C1B24307  17.897  39.565   8.835
 1765POPC   C2B24308  18.084  39.570   8.458
 1765POPC   C3B24309  17.966  39.630   8.049
 1765POPC   C4B24310  18.070  39.453   7.722
 1766POPC   NC324311   6.144  11.427   9.483
 1766POPC   PO424312   6.775  11.153   9.442
 1766POPC   GL124313   6.515  11.313   9.128
 1766POPC   GL224314   6.680  11.624   9.159
 1766POPC   C1A24315   6.570  11.191   8.694
 1766POPC   D2A24316   6.829  11.236   8.315
 1766POPC   C3A24317   6.631  11.227   7.926
 1766POPC   C4A24318   6.662  11.428   7.523
 1766POPC   C1B24319   6.409  11.696   8.785
 1766POPC   C2B24320   6.360  11.839   8.365
 1766POPC   C3B24321   6.360  11.660   7.941
 1766POPC   C4B24322   6.257  11.754   7.498
 1767POPC   NC324323   2.687  40.358   9.361
 1767POPC   PO424324   3.051  40.926   9.490
 1767POPC   GL124325   2.963  40.736   9.144
 1767POPC   GL224326   2.633  40.913   9.095
 1767POPC   C1A24327   2.837  40.593   8.764
 1767POPC   D2A24328   2.770  40.863   8.452
 1767POPC   C3A24329   2.830  40.685   8.083
 1767POPC   C4A24330   2.765  40.764   7.708
 1767POPC   C1B24331   2.351  40.690   8.764
 1767POPC   C2B24332   2.409  40.540   8.331
 1767POPC   C3B24333   2.324  40.740   7.941
 1767POPC   C4B24334   2.370  40.754   7.429
 1768POPC   NC324335  11.121  40.121   9.515
 1768POPC   PO424336  11.692  39.873   9.677
 1768POPC   GL124337  11.548  39.927   9.219
 1768POPC   GL224338  11.249  39.685   9.268
 1768POPC   C1A24339  11.425  40.231   8.800
 1768POPC   D2A24340  11.178  40.351   8.355
 1768POPC   C3A24341  11.293  40.149   7.990
 1768POPC   C4A24342  11.603  39.860   7.919
 1768POPC   C1B24343  11.215  39.767   8.860
 1768POPC   C2B24344  11.299  39.854   8.449
 1768POPC   C3B24345  11.150  39.659   8.111
 1768POPC   C4B24346  10.798  39.701   7.879
 1769POPC   NC324347  22.083  33.903   9.518
 1769POPC   PO424348  21.613  33.453   9.592
 1769POPC   GL124349  21.896  33.443   9.202
 1769POPC   GL224350  22.279  33.447   9.120
 1769POPC   C1A24351  21.882  33.727   8.838
 1769POPC   D2A24352  22.009  34.024   8.517
 1769POPC   C3A24353  22.049  33.801   8.141
 1769POPC   C4A24354  22.044  33.702   7.705
 1769POPC   C1B24355  22.383  33.805   8.810
 1769POPC   C2B24356  22.516  33.824   8.397
 1769POPC   C3B24357  22.515  34.014   7.987
 1769POPC   C4B24358  22.502  34.269   7.648
 1770POPC   NC324359  31.002   5.089   9.432
 1770POPC   PO424360  30.522   4.689   9.517
 1770POPC   GL124361  30.589   4.978   9.126
 1770POPC   GL224362  30.850   5.258   8.988
 1770POPC   C1A24363  30.686   4.887   8.691
 1770POPC   D2A24364  30.540   4.834   8.302
 1770POPC   C3A24365  30.482   5.134   7.989
 1770POPC   C4A24366  30.559   4.989   7.604
 1770POPC   C1B24367  31.180   4.983   8.795
 1770POPC   C2B24368  31.124   4.761   8.401
 1770POPC   C3B24369  30.951   4.830   7.987
 1770POPC   C4B24370  31.002   5.197   7.744
 1771POPC   NC324371  37.238   1.997   9.308
 1771POPC   PO424372  36.561   2.192   9.450
 1771POPC   GL124373  36.831   2.227   9.109
 1771POPC   GL224374  36.809   1.849   9.038
 1771POPC   C1A24375  37.059   2.138   8.702
 1771POPC   D2A24376  36.933   1.925   8.330
 1771POPC   C3A24377  37.090   2.162   8.002
 1771POPC   C4A24378  37.291   2.149   7.615
 1771POPC   C1B24379  36.561   2.012   8.737
 1771POPC   C2B24380  36.428   1.945   8.367
 1771POPC   C3B24381  36.569   2.078   7.967
 1771POPC   C4B24382  36.802   1.880   7.627
 1772POPC   NC324383  11.564   1.271   9.648
 1772POPC   PO424384  12.106   0.921   9.646
 1772POPC   GL124385  12.102   1.177   9.258
 1772POPC   GL224386  12.448   1.182   9.166
 1772POPC   C1A24387  11.995   1.264   8.808
 1772POPC   D2A24388  12.193   1.206   8.411
 1772POPC   C3A24389  11.975   1.148   8.028
 1772POPC   C4A24390  11.622   1.080   7.768
 1772POPC   C1B24391  12.551   1.365   8.758
 1772POPC   C2B24392  12.674   1.417   8.315
 1772POPC   C3B24393  12.467   1.233   7.972
 1772POPC   C4B24394  12.246   1.190   7.567
 1773POPC   NC324395   0.519  32.292   9.422
 1773POPC   PO424396   0.905  31.702   9.548
 1773POPC   GL124397   0.685  31.863   9.148
 1773POPC   GL224398   0.308  31.920   9.143
 1773POPC   C1A24399   0.665  32.039   8.711
 1773POPC   D2A24400   0.586  32.393   8.422
 1773POPC   C3A24401   0.553  32.271   8.005
 1773POPC   C4A24402   0.715  31.913   7.830
 1773POPC   C1B24403   0.220  32.279   8.830
 1773POPC   C2B24404   0.094  32.257   8.389
 1773POPC   C3B24405   0.080  32.508   8.054
 1773POPC   C4B24406   0.186  32.500   7.653
 1774POPC   NC324407  28.787  17.406   9.353
 1774POPC   PO424408  29.462  17.684   9.414
 1774POPC   GL124409  29.255  17.419   9.124
 1774POPC   GL224410  29.080  17.713   9.031
 1774POPC   C1A24411  29.131  17.345   8.690
 1774POPC   D2A24412  29.053  17.076   8.339
 1774POPC   C3A24413  29.018  17.238   7.953
 1774POPC   C4A24414  29.241  17.225   7.546
 1774POPC   C1B24415  29.420  17.770   8.738
 1774POPC   C2B24416  29.368  17.617   8.308
 1774POPC   C3B24417  29.373  17.581   7.866
 1774POPC   C4B24418  28.940  17.629   7.620
 1775POPC   NC324419  14.227   3.155   9.432
 1775POPC   PO424420  13.879   2.506   9.542
 1775POPC   GL124421  14.144   2.672   9.196
 1775POPC   GL224422  14.493   2.827   9.148
 1775POPC   C1A24423  14.247   2.628   8.783
 1775POPC   D2A24424  14.146   2.677   8.393
 1775POPC   C3A24425  14.473   2.583   8.146
 1775POPC   C4A24426  14.531   2.863   7.830
 1775POPC   C1B24427  14.589   2.967   8.654
 1775POPC   C2B24428  14.453   3.132   8.270
 1775POPC   C3B24429  14.580   3.370   7.890
 1775POPC   C4B24430  14.551   3.202   7.467
 1776POPC   NC324431  31.046  10.885   9.633
 1776POPC   PO424432  30.888  11.525   9.654
 1776POPC   GL124433  30.805  11.288   9.228
 1776POPC   GL224434  30.426  11.220   9.134
 1776POPC   C1A24435  30.940  11.295   8.794
 1776POPC   D2A24436  30.968  11.518   8.397
 1776POPC   C3A24437  30.939  11.271   8.024
 1776POPC   C4A24438  30.755  11.117   7.690
 1776POPC   C1B24439  30.446  11.374   8.726
 1776POPC   C2B24440  30.502  11.299   8.298
 1776POPC   C3B24441  30.369  11.435   7.902
 1776POPC   C4B24442  30.328  11.293   7.485
 1777POPC   NC324443  13.564   2.170   9.502
 1777POPC   PO424444  13.672   1.535   9.428
 1777POPC   GL124445  13.512   1.817   9.132
 1777POPC   GL224446  13.792   2.046   9.062
 1777POPC   C1A24447  13.367   2.008   8.755
 1777POPC   D2A24448  13.601   2.239   8.490
 1777POPC   C3A24449  13.568   2.042   8.092
 1777POPC   C4A24450  13.475   1.979   7.648
 1777POPC   C1B24451  13.825   1.739   8.705
 1777POPC   C2B24452  13.943   1.694   8.270
 1777POPC   C3B24453  13.886   1.708   7.817
 1777POPC   C4B24454  13.856   1.856   7.349
 1778POPC   NC324455  42.090  11.079   9.503
 1778POPC   PO424456  42.738  10.804   9.458
 1778POPC   GL124457  42.424  11.104   9.113
 1778POPC   GL224458  42.068  11.330   9.071
 1778POPC   C1A24459  42.419  11.348   8.733
 1778POPC   D2A24460  42.428  11.029   8.460
 1778POPC   C3A24461  42.561  11.191   8.102
 1778POPC   C4A24462  42.780  11.106   7.782
 1778POPC   C1B24463  41.875  11.262   8.681
 1778POPC   C2B24464  42.067  11.332   8.296
 1778POPC   C3B24465  42.107  11.208   7.885
 1778POPC   C4B24466  41.925  11.333   7.513
 1779POPC   NC324467  12.293  41.242   9.395
 1779POPC   PO424468  11.657  41.376   9.334
 1779POPC   GL124469  12.007  41.551   9.078
 1779POPC   GL224470  12.384  41.658   9.127
 1779POPC   C1A24471  12.121  41.619   8.650
 1779POPC   D2A24472  12.052  41.854   8.273
 1779POPC   C3A24473  11.937  41.675   7.870
 1779POPC   C4A24474  11.613  41.768   7.569
 1779POPC   C1B24475  12.583  41.784   8.776
 1779POPC   C2B24476  12.622  41.686   8.344
 1779POPC   C3B24477  12.444  41.807   7.950
 1779POPC   C4B24478  12.354  41.443   7.725
 1780POPC   NC324479  30.541  20.168   9.404
 1780POPC   PO424480  30.772  19.491   9.416
 1780POPC   GL124481  30.691  19.774   9.051
 1780POPC   GL224482  30.935  20.032   9.092
 1780POPC   C1A24483  30.472  19.735   8.634
 1780POPC   D2A24484  30.279  19.605   8.240
 1780POPC   C3A24485  30.513  19.785   7.889
 1780POPC   C4A24486  30.662  19.617   7.481
 1780POPC   C1B24487  30.667  20.197   8.736
 1780POPC   C2B24488  30.735  20.038   8.306
 1780POPC   C3B24489  31.001  19.919   7.965
 1780POPC   C4B24490  30.917  20.046   7.495
 1781POPC   NC324491  18.066  37.837   9.557
 1781POPC   PO424492  18.073  37.231   9.278
 1781POPC   GL124493  18.086  37.588   9.091
 1781POPC   GL224494  18.384  37.681   9.148
 1781POPC   C1A24495  18.109  37.759   8.707
 1781POPC   D2A24496  17.957  37.617   8.362
 1781POPC   C3A24497  18.217  37.708   8.054
 1781POPC   C4A24498  18.158  37.762   7.654
 1781POPC   C1B24499  18.578  37.888   8.845
 1781POPC   C2B24500  18.560  37.671   8.459
 1781POPC   C3B24501  18.719  37.815   8.112
 1781POPC   C4B24502  18.635  37.894   7.730
 1782POPC   NC324503  11.689  25.797   9.424
 1782POPC   PO424504  12.232  26.304   9.488
 1782POPC   GL124505  11.967  26.220   9.159
 1782POPC   GL224506  12.124  25.916   9.136
 1782POPC   C1A24507  12.053  26.315   8.713
 1782POPC   D2A24508  12.115  26.102   8.301
 1782POPC   C3A24509  12.171  26.407   7.962
 1782POPC   C4A24510  11.750  26.507   7.803
 1782POPC   C1B24511  12.203  25.816   8.729
 1782POPC   C2B24512  12.519  25.661   8.446
 1782POPC   C3B24513  12.387  25.620   8.008
 1782POPC   C4B24514  12.145  25.930   7.769
 1783POPC   NC324515  23.537  26.385   9.397
 1783POPC   PO424516  23.947  25.936   9.500
 1783POPC   GL124517  23.827  26.121   9.087
 1783POPC   GL224518  23.518  25.985   9.026
 1783POPC   C1A24519  23.845  25.978   8.660
 1783POPC   D2A24520  23.875  25.678   8.393
 1783POPC   C3A24521  23.838  25.902   8.038
 1783POPC   C4A24522  23.891  26.100   7.646
 1783POPC   C1B24523  23.488  26.335   8.731
 1783POPC   C2B24524  23.440  26.231   8.340
 1783POPC   C3B24525  23.512  26.318   7.960
 1783POPC   C4B24526  23.404  26.169   7.601
 1784POPC   NC324527   7.038   4.360   9.403
 1784POPC   PO424528   6.515   4.475   9.813
 1784POPC   GL124529   6.484   4.383   9.292
 1784POPC   GL224530   6.198   4.630   9.285
 1784POPC   C1A24531   6.634   4.153   8.849
 1784POPC   D2A24532   7.008   4.229   8.541
 1784POPC   C3A24533   6.969   4.246   8.089
 1784POPC   C4A24534   6.788   4.187   7.700
 1784POPC   C1B24535   6.243   4.544   8.850
 1784POPC   C2B24536   6.431   4.485   8.473
 1784POPC   C3B24537   6.434   4.446   8.029
 1784POPC   C4B24538   6.384   4.455   7.577
 1785POPC   NC324539  14.387  30.611   9.672
 1785POPC   PO424540  13.903  30.345   9.304
 1785POPC   GL124541  14.292  30.424   9.199
 1785POPC   GL224542  14.601  30.666   9.186
 1785POPC   C1A24543  14.348  30.380   8.789
 1785POPC   D2A24544  14.301  30.668   8.487
 1785POPC   C3A24545  14.247  30.438   8.123
 1785POPC   C4A24546  14.223  30.705   7.795
 1785POPC   C1B24547  14.841  30.494   8.807
 1785POPC   C2B24548  14.708  30.398   8.375
 1785POPC   C3B24549  14.682  30.704   8.076
 1785POPC   C4B24550  14.765  30.709   7.658
 1786POPC   NC324551  38.116  14.181   9.401
 1786POPC   PO424552  38.656  14.621   9.546
 1786POPC   GL124553  38.563  14.505   9.127
 1786POPC   GL224554  38.567  14.180   9.158
 1786POPC   C1A24555  38.730  14.334   8.708
 1786POPC   D2A24556  38.677  14.556   8.353
 1786POPC   C3A24557  38.294  14.468   8.177
 1786POPC   C4A24558  38.343  14.455   7.749
 1786POPC   C1B24559  38.285  14.097   8.774
 1786POPC   C2B24560  38.311  13.912   8.368
 1786POPC   C3B24561  38.238  14.009   7.955
 1786POPC   C4B24562  38.069  14.078   7.549
 1787POPC   NC324563  31.672   5.174   9.523
 1787POPC   PO424564  31.093   5.508   9.583
 1787POPC   GL124565  31.330   5.380   9.155
 1787POPC   GL224566  31.716   5.384   9.061
 1787POPC   C1A24567  31.368   5.466   8.708
 1787POPC   D2A24568  31.191   5.276   8.355
 1787POPC   C3A24569  31.416   5.067   8.059
 1787POPC   C4A24570  31.641   5.210   7.726
 1787POPC   C1B24571  31.700   4.974   8.863
 1787POPC   C2B24572  31.689   4.832   8.429
 1787POPC   C3B24573  31.893   4.811   8.022
 1787POPC   C4B24574  31.800   4.735   7.582
 1788POPC   NC324575  19.278   6.211   9.605
 1788POPC   PO424576  18.731   5.798   9.453
 1788POPC   GL124577  18.974   6.060   9.188
 1788POPC   GL224578  18.704   6.174   8.976
 1788POPC   C1A24579  19.176   6.112   8.752
 1788POPC   D2A24580  19.286   5.776   8.412
 1788POPC   C3A24581  19.234   5.980   7.992
 1788POPC   C4A24582  19.053   6.271   7.692
 1788POPC   C1B24583  18.857   5.725   8.811
 1788POPC   C2B24584  18.813   5.459   8.445
 1788POPC   C3B24585  18.675   5.412   8.006
 1788POPC   C4B24586  18.804   5.788   7.793
 1789POPC   NC324587  40.935   2.188   9.604
 1789POPC   PO424588  41.112   1.574   9.395
 1789POPC   GL124589  40.966   1.831   8.994
 1789POPC   GL224590  40.981   2.193   8.932
 1789POPC   C1A24591  40.799   1.912   8.555
 1789POPC   D2A24592  40.619   2.157   8.205
 1789POPC   C3A24593  40.598   1.859   7.870
 1789POPC   C4A24594  40.954   1.572   7.851
 1789POPC   C1B24595  41.295   2.058   8.617
 1789POPC   C2B24596  41.183   1.907   8.193
 1789POPC   C3B24597  41.007   2.160   7.848
 1789POPC   C4B24598  41.095   2.381   7.441
 1790POPC   NC324599  44.359   2.332   9.522
 1790POPC   PO424600  44.626   2.946   9.598
 1790POPC   GL124601  44.784   2.916   9.187
 1790POPC   GL224602  44.643   2.617   9.147
 1790POPC   C1A24603  44.684   2.996   8.760
 1790POPC   D2A24604  44.985   3.057   8.440
 1790POPC   C3A24605  44.752   3.011   8.079
 1790POPC   C4A24606  44.682   2.740   7.734
 1790POPC   C1B24607  44.644   2.440   8.763
 1790POPC   C2B24608  44.634   2.624   8.398
 1790POPC   C3B24609  44.748   2.384   8.079
 1790POPC   C4B24610  44.803   2.244   7.681
 1791POPC   NC324611  35.167  20.826   9.503
 1791POPC   PO424612  35.620  20.274   9.533
 1791POPC   GL124613  35.403  20.489   9.170
 1791POPC   GL224614  35.509  20.837   9.122
 1791POPC   C1A24615  35.081  20.722   8.873
 1791POPC   D2A24616  35.028  20.846   8.454
 1791POPC   C3A24617  35.285  20.621   8.134
 1791POPC   C4A24618  35.219  20.594   7.677
 1791POPC   C1B24619  35.559  20.723   8.671
 1791POPC   C2B24620  35.558  21.005   8.307
 1791POPC   C3B24621  35.651  20.956   7.906
 1791POPC   C4B24622  35.702  20.530   7.783
 1792POPC   NC324623  13.855  22.649   9.391
 1792POPC   PO424624  13.160  22.776   9.484
 1792POPC   GL124625  13.427  22.842   9.143
 1792POPC   GL224626  13.422  22.482   9.114
 1792POPC   C1A24627  13.498  23.139   8.770
 1792POPC   D2A24628  13.366  23.115   8.314
 1792POPC   C3A24629  13.674  23.085   7.966
 1792POPC   C4A24630  14.014  22.811   7.858
 1792POPC   C1B24631  13.698  22.423   8.778
 1792POPC   C2B24632  13.902  22.516   8.416
 1792POPC   C3B24633  13.633  22.627   8.149
 1792POPC   C4B24634  13.510  22.637   7.758
 1793POPC   NC324635  10.135  31.341   9.445
 1793POPC   PO424636   9.720  31.792   9.620
 1793POPC   GL124637   9.742  31.618   9.203
 1793POPC   GL224638   9.744  31.271   9.091
 1793POPC   C1A24639   9.579  31.834   8.867
 1793POPC   D2A24640   9.509  31.886   8.473
 1793POPC   C3A24641   9.657  31.567   8.213
 1793POPC   C4A24642   9.676  31.450   7.798
 1793POPC   C1B24643   9.887  31.467   8.696
 1793POPC   C2B24644  10.169  31.309   8.397
 1793POPC   C3B24645  10.144  30.900   8.213
 1793POPC   C4B24646   9.956  31.041   7.884
 1794POPC   NC324647  37.430  15.171   9.960
 1794POPC   PO424648  37.108  14.951   9.404
 1794POPC   GL124649  36.839  14.998   9.079
 1794POPC   GL224650  36.817  15.339   9.128
 1794POPC   C1A24651  36.733  15.052   8.673
 1794POPC   D2A24652  37.015  14.988   8.367
 1794POPC   C3A24653  36.813  15.197   8.045
 1794POPC   C4A24654  36.601  15.134   7.662
 1794POPC   C1B24655  37.144  15.333   8.778
 1794POPC   C2B24656  37.122  15.518   8.354
 1794POPC   C3B24657  37.338  15.452   7.952
 1794POPC   C4B24658  37.108  15.263   7.620
 1795POPC   NC324659  14.047  34.592   9.886
 1795POPC   PO424660  13.529  34.819   9.460
 1795POPC   GL124661  13.731  34.665   9.120
 1795POPC   GL224662  13.618  34.377   9.100
 1795POPC   C1A24663  13.568  34.636   8.689
 1795POPC   D2A24664  13.553  34.384   8.325
 1795POPC   C3A24665  13.323  34.576   8.018
 1795POPC   C4A24666  13.314  34.706   7.583
 1795POPC   C1B24667  13.829  34.178   8.751
 1795POPC   C2B24668  14.056  34.204   8.362
 1795POPC   C3B24669  13.967  34.522   8.056
 1795POPC   C4B24670  13.714  34.391   7.742
 1796POPC   NC324671  28.215  29.372   9.601
 1796POPC   PO424672  28.123  28.763   9.396
 1796POPC   GL124673  28.278  29.125   9.167
 1796POPC   GL224674  28.017  29.416   9.133
 1796POPC   C1A24675  28.420  29.146   8.763
 1796POPC   D2A24676  28.612  29.004   8.414
 1796POPC   C3A24677  28.454  29.133   8.055
 1796POPC   C4A24678  28.679  29.065   7.667
 1796POPC   C1B24679  27.912  29.226   8.773
 1796POPC   C2B24680  28.048  29.281   8.373
 1796POPC   C3B24681  27.933  29.160   7.958
 1796POPC   C4B24682  27.996  29.127   7.513
 1797POPC   NC324683  28.259  20.708   9.518
 1797POPC   PO424684  28.802  21.028   9.399
 1797POPC   GL124685  28.604  20.741   9.115
 1797POPC   GL224686  28.288  20.473   9.082
 1797POPC   C1A24687  28.640  20.552   8.735
 1797POPC   D2A24688  28.681  20.678   8.324
 1797POPC   C3A24689  28.421  20.436   8.063
 1797POPC   C4A24690  28.531  20.404   7.643
 1797POPC   C1B24691  28.205  20.830   8.842
 1797POPC   C2B24692  28.165  20.675   8.458
 1797POPC   C3B24693  28.028  20.833   8.102
 1797POPC   C4B24694  28.104  20.655   7.717
 1798POPC   NC324695   6.229  30.520   9.460
 1798POPC   PO424696   6.825  30.568   9.521
 1798POPC   GL124697   6.777  30.748   9.123
 1798POPC   GL224698   6.463  30.739   9.051
 1798POPC   C1A24699   6.915  30.900   8.739
 1798POPC   D2A24700   6.813  31.066   8.360
 1798POPC   C3A24701   6.972  30.903   7.999
 1798POPC   C4A24702   6.793  30.592   7.776
 1798POPC   C1B24703   6.196  30.728   8.718
 1798POPC   C2B24704   6.239  30.531   8.386
 1798POPC   C3B24705   6.479  30.723   8.153
 1798POPC   C4B24706   6.293  30.632   7.780
 1799POPC   NC324707  32.311  33.347   9.498
 1799POPC   PO424708  32.268  33.951   9.564
 1799POPC   GL124709  32.309  33.755   9.184
 1799POPC   GL224710  32.651  33.635   9.151
 1799POPC   C1A24711  32.027  33.614   8.853
 1799POPC   D2A24712  32.138  33.454   8.433
 1799POPC   C3A24713  32.287  33.697   8.108
 1799POPC   C4A24714  31.964  33.799   7.799
 1799POPC   C1B24715  32.474  33.823   8.708
 1799POPC   C2B24716  32.104  34.011   8.490
 1799POPC   C3B24717  32.084  34.201   8.082
 1799POPC   C4B24718  32.389  34.081   7.746
 1800POPC   NC324719  14.422  21.233   9.767
 1800POPC   PO424720  13.824  21.203   9.422
 1800POPC   GL124721  14.185  21.323   9.135
 1800POPC   GL224722  14.549  21.400   9.220
 1800POPC   C1A24723  14.392  21.307   8.722
 1800POPC   D2A24724  14.628  21.369   8.377
 1800POPC   C3A24725  14.399  21.446   8.009
 1800POPC   C4A24726  14.281  21.344   7.591
 1800POPC   C1B24727  14.818  21.562   8.847
 1800POPC   C2B24728  14.751  21.846   8.504
 1800POPC   C3B24729  14.830  21.780   8.052
 1800POPC   C4B24730  14.696  21.636   7.644
 1801POPC   NC324731  20.071   3.105   9.269
 1801POPC   PO424732  19.550   3.473   9.573
 1801POPC   GL124733  19.740   3.569   9.166
 1801POPC   GL224734  19.694   3.280   8.993
 1801POPC   C1A24735  20.007   3.784   8.861
 1801POPC   D2A24736  20.258   3.737   8.503
 1801POPC   C3A24737  19.992   3.674   8.151
 1801POPC   C4A24738  20.014   3.657   7.707
 1801POPC   C1B24739  19.990   3.311   8.646
 1801POPC   C2B24740  20.260   3.254   8.307
 1801POPC   C3B24741  20.254   3.257   7.891
 1801POPC   C4B24742  20.136   3.201   7.485
 1802POPC   NC324743  42.833   6.814   9.481
 1802POPC   PO424744  43.419   6.604   9.443
 1802POPC   GL124745  43.129   6.504   9.173
 1802POPC   GL224746  43.141   6.850   9.077
 1802POPC   C1A24747  43.017   6.451   8.768
 1802POPC   D2A24748  43.148   6.645   8.433
 1802POPC   C3A24749  43.084   6.369   8.103
 1802POPC   C4A24750  43.011   6.431   7.672
 1802POPC   C1B24751  42.857   6.935   8.770
 1802POPC   C2B24752  42.955   7.115   8.369
 1802POPC   C3B24753  43.017   6.878   7.984
 1802POPC   C4B24754  42.762   6.919   7.635
 1803POPC   NC324755   3.699   8.376   9.468
 1803POPC   PO424756   3.108   8.557   9.150
 1803POPC   GL124757   3.347   8.166   9.088
 1803POPC   GL224758   3.708   8.194   8.976
 1803POPC   C1A24759   3.385   7.913   8.703
 1803POPC   D2A24760   3.814   7.954   8.526
 1803POPC   C3A24761   3.766   7.891   8.094
 1803POPC   C4A24762   3.342   7.946   7.923
 1803POPC   C1B24763   3.479   8.411   8.635
 1803POPC   C2B24764   3.200   8.382   8.292
 1803POPC   C3B24765   3.312   8.465   7.881
 1803POPC   C4B24766   3.690   8.284   7.749
 1804POPC   NC324767  23.551  21.845   9.533
 1804POPC   PO424768  23.922  22.421   9.416
 1804POPC   GL124769  23.624  22.231   9.178
 1804POPC   GL224770  23.865  21.963   9.136
 1804POPC   C1A24771  23.439  22.058   8.828
 1804POPC   D2A24772  23.651  21.992   8.443
 1804POPC   C3A24773  23.505  22.165   8.062
 1804POPC   C4A24774  23.569  21.991   7.644
 1804POPC   C1B24775  24.104  22.060   8.775
 1804POPC   C2B24776  24.144  21.803   8.410
 1804POPC   C3B24777  23.948  21.941   8.014
 1804POPC   C4B24778  24.048  21.805   7.600
 1805POPC   NC324779  43.868  28.728   9.828
 1805POPC   PO424780  43.757  29.222   9.467
 1805POPC   GL124781  44.105  29.131   9.196
 1805POPC   GL224782  43.844  29.025   8.990
 1805POPC   C1A24783  44.225  29.295   8.797
 1805POPC   D2A24784  43.949  29.076   8.480
 1805POPC   C3A24785  43.915  29.190   8.061
 1805POPC   C4A24786  44.227  28.991   7.838
 1805POPC   C1B24787  43.626  29.361   8.751
 1805POPC   C2B24788  43.602  29.524   8.316
 1805POPC   C3B24789  43.525  29.511   7.867
 1805POPC   C4B24790  43.646  29.540   7.448
 1806POPC   NC324791  10.761   5.561   9.666
 1806POPC   PO424792  10.274   6.017   9.487
 1806POPC   GL124793  10.558   5.936   9.138
 1806POPC   GL224794  10.419   5.616   9.175
 1806POPC   C1A24795  10.842   5.908   8.720
 1806POPC   D2A24796  10.802   5.602   8.398
 1806POPC   C3A24797  10.771   5.708   7.983
 1806POPC   C4A24798  10.936   5.734   7.557
 1806POPC   C1B24799  10.382   5.679   8.736
 1806POPC   C2B24800  10.246   5.627   8.322
 1806POPC   C3B24801  10.271   5.517   7.920
 1806POPC   C4B24802  10.422   5.785   7.597
 1807POPC   NC324803   2.482  12.864   9.466
 1807POPC   PO424804   3.013  12.550   9.519
 1807POPC   GL124805   2.921  12.794   9.151
 1807POPC   GL224806   2.646  12.696   9.035
 1807POPC   C1A24807   2.983  12.877   8.701
 1807POPC   D2A24808   2.765  12.920   8.301
 1807POPC   C3A24809   2.964  12.924   7.887
 1807POPC   C4A24810   2.864  12.936   7.457
 1807POPC   C1B24811   2.591  12.457   8.715
 1807POPC   C2B24812   2.743  12.388   8.347
 1807POPC   C3B24813   2.641  12.517   7.939
 1807POPC   C4B24814   2.744  12.424   7.501
 1808POPC   NC324815   6.767  20.158   9.607
 1808POPC   PO424816   6.509  19.546   9.532
 1808POPC   GL124817   6.714  19.740   9.223
 1808POPC   GL224818   6.540  20.006   9.134
 1808POPC   C1A24819   6.972  19.883   8.887
 1808POPC   D2A24820   6.957  19.986   8.465
 1808POPC   C3A24821   6.611  19.886   8.187
 1808POPC   C4A24822   6.622  19.760   7.752
 1808POPC   C1B24823   6.286  19.915   8.750
 1808POPC   C2B24824   6.165  20.119   8.358
 1808POPC   C3B24825   6.162  19.979   7.921
 1808POPC   C4B24826   6.167  20.011   7.453
 1809POPC   NC324827  42.550  24.168   9.625
 1809POPC   PO424828  42.080  24.697   9.595
 1809POPC   GL124829  42.145  24.699   9.143
 1809POPC   GL224830  42.446  24.482   9.171
 1809POPC   C1A24831  42.198  24.569   8.691
 1809POPC   D2A24832  42.456  24.338   8.379
 1809POPC   C3A24833  42.443  24.515   7.954
 1809POPC   C4A24834  42.115  24.673   7.664
 1809POPC   C1B24835  42.214  24.145   8.974
 1809POPC   C2B24836  42.102  23.957   8.569
 1809POPC   C3B24837  42.125  24.014   8.112
 1809POPC   C4B24838  42.141  24.176   7.685
 1810POPC   NC324839   5.294  34.683   9.309
 1810POPC   PO424840   4.762  34.276   9.524
 1810POPC   GL124841   4.794  34.509   9.136
 1810POPC   GL224842   4.854  34.866   9.094
 1810POPC   C1A24843   4.940  34.438   8.728
 1810POPC   D2A24844   5.036  34.563   8.301
 1810POPC   C3A24845   4.900  34.232   7.956
 1810POPC   C4A24846   4.819  34.414   7.508
 1810POPC   C1B24847   5.179  34.892   8.733
 1810POPC   C2B24848   5.194  35.107   8.378
 1810POPC   C3B24849   5.413  34.860   8.105
 1810POPC   C4B24850   5.180  34.622   7.804
 1811POPC   NC324851  11.867  33.385   9.527
 1811POPC   PO424852  11.781  32.784   9.429
 1811POPC   GL124853  11.993  33.062   9.141
 1811POPC   GL224854  12.332  33.190   9.214
 1811POPC   C1A24855  12.087  32.869   8.766
 1811POPC   D2A24856  11.944  32.792   8.385
 1811POPC   C3A24857  12.115  32.937   7.988
 1811POPC   C4A24858  11.907  32.665   7.682
 1811POPC   C1B24859  12.261  33.336   8.799
 1811POPC   C2B24860  12.015  33.309   8.441
 1811POPC   C3B24861  11.816  33.373   8.056
 1811POPC   C4B24862  11.972  33.328   7.675
 1812POPC   NC324863  39.772  22.794   9.536
 1812POPC   PO424864  40.056  23.466   9.618
 1812POPC   GL124865  40.071  23.076   9.233
 1812POPC   GL224866  39.806  22.958   9.056
 1812POPC   C1A24867  40.254  22.873   8.822
 1812POPC   D2A24868  40.259  23.064   8.374
 1812POPC   C3A24869  40.216  22.823   7.978
 1812POPC   C4A24870  40.020  22.621   7.642
 1812POPC   C1B24871  39.808  23.068   8.619
 1812POPC   C2B24872  39.797  22.852   8.247
 1812POPC   C3B24873  39.737  23.010   7.851
 1812POPC   C4B24874  39.648  23.322   7.570
 1813POPC   NC324875  13.045   6.525   9.376
 1813POPC   PO424876  12.509   6.700   9.699
 1813POPC   GL124877  12.521   6.826   9.236
 1813POPC   GL224878  12.851   6.976   9.149
 1813POPC   C1A24879  12.558   6.718   8.778
 1813POPC   D2A24880  12.641   6.432   8.435
 1813POPC   C3A24881  12.547   6.495   7.990
 1813POPC   C4A24882  12.689   6.693   7.618
 1813POPC   C1B24883  13.079   6.823   8.757
 1813POPC   C2B24884  13.110   6.609   8.344
 1813POPC   C3B24885  13.068   6.465   7.920
 1813POPC   C4B24886  13.189   6.821   7.673
 1814POPC   NC324887   3.276  28.175   9.523
 1814POPC   PO424888   3.836  27.866   9.460
 1814POPC   GL124889   3.613  28.160   9.116
 1814POPC   GL224890   3.291  28.417   9.091
 1814POPC   C1A24891   3.471  28.199   8.701
 1814POPC   D2A24892   3.570  28.418   8.373
 1814POPC   C3A24893   3.274  28.381   8.110
 1814POPC   C4A24894   3.309  28.358   7.720
 1814POPC   C1B24895   3.380  28.717   8.766
 1814POPC   C2B24896   3.217  28.836   8.348
 1814POPC   C3B24897   3.246  28.838   7.878
 1814POPC   C4B24898   3.266  28.756   7.391
 1815POPC   NC324899  32.824  10.828   9.353
 1815POPC   PO424900  32.241  10.922   9.638
 1815POPC   GL124901  32.375  10.595   9.334
 1815POPC   GL224902  32.079  10.489   9.187
 1815POPC   C1A24903  32.501  10.519   8.889
 1815POPC   D2A24904  32.467  10.565   8.435
 1815POPC   C3A24905  32.605  10.604   8.021
 1815POPC   C4A24906  32.449  10.568   7.602
 1815POPC   C1B24907  32.032  10.467   8.732
 1815POPC   C2B24908  31.943  10.715   8.390
 1815POPC   C3B24909  32.099  10.650   7.989
 1815POPC   C4B24910  32.004  10.324   7.746
 1816POPC   NC324911  24.290   0.080   9.918
 1816POPC   PO424912  24.326   0.662   9.539
 1816POPC   GL124913  24.469   0.473   9.148
 1816POPC   GL224914  24.244   0.715   8.996
 1816POPC   C1A24915  24.634   0.132   8.834
 1816POPC   D2A24916  24.498   0.079   8.380
 1816POPC   C3A24917  24.635   0.210   7.937
 1816POPC   C4A24918  24.441   0.265   7.494
 1816POPC   C1B24919  24.577   0.598   8.676
 1816POPC   C2B24920  24.759   0.597   8.316
 1816POPC   C3B24921  24.530   0.743   8.015
 1816POPC   C4B24922  24.667   0.671   7.636
 1817POPC   NC324923   0.996  14.960   9.438
 1817POPC   PO424924   1.443  15.486   9.485
 1817POPC   GL124925   1.172  15.380   9.173
 1817POPC   GL224926   1.340  15.098   9.104
 1817POPC   C1A24927   0.990  15.414   8.779
 1817POPC   D2A24928   1.175  15.228   8.409
 1817POPC   C3A24929   1.378  15.301   7.984
 1817POPC   C4A24930   1.165  15.191   7.596
 1817POPC   C1B24931   1.505  14.994   8.758
 1817POPC   C2B24932   1.564  14.938   8.369
 1817POPC   C3B24933   1.286  14.817   8.087
 1817POPC   C4B24934   1.482  14.801   7.718
 1818POPC   NC324935  36.849   0.061   9.809
 1818POPC   PO424936  36.765   0.602   9.391
 1818POPC   GL124937  36.934   0.538   9.009
 1818POPC   GL224938  37.099   0.227   9.096
 1818POPC   C1A24939  36.750   0.446   8.602
 1818POPC   D2A24940  36.594   0.481   8.186
 1818POPC   C3A24941  36.949   0.537   7.925
 1818POPC   C4A24942  37.012   0.405   7.515
 1818POPC   C1B24943  37.035   0.037   8.692
 1818POPC   C2B24944  37.077   0.159   8.267
 1818POPC   C3B24945  37.192   0.064   7.837
 1818POPC   C4B24946  37.019  44.909   7.426
 1819POPC   NC324947  30.442   3.578   9.390
 1819POPC   PO424948  31.165   3.924   9.482
 1819POPC   GL124949  30.842   3.799   9.167
 1819POPC   GL224950  30.846   3.395   9.135
 1819POPC   C1A24951  30.830   3.675   8.722
 1819POPC   D2A24952  30.698   3.441   8.363
 1819POPC   C3A24953  30.811   3.545   7.968
 1819POPC   C4A24954  30.732   3.902   7.769
 1819POPC   C1B24955  30.522   3.212   8.789
 1819POPC   C2B24956  30.311   3.094   8.347
 1819POPC   C3B24957  30.444   3.188   7.929
 1819POPC   C4B24958  30.351   3.546   7.649
 1820POPC   NC324959  32.893  18.550   9.497
 1820POPC   PO424960  33.117  17.901   9.486
 1820POPC   GL124961  32.998  18.162   9.177
 1820POPC   GL224962  33.258  18.415   9.176
 1820POPC   C1A24963  32.845  18.386   8.820
 1820POPC   D2A24964  32.658  18.208   8.469
 1820POPC   C3A24965  32.773  18.354   8.105
 1820POPC   C4A24966  32.773  18.347   7.698
 1820POPC   C1B24967  33.345  18.159   8.822
 1820POPC   C2B24968  33.173  18.206   8.444
 1820POPC   C3B24969  33.319  18.310   8.073
 1820POPC   C4B24970  33.373  18.388   7.670
 1821POPC   NC324971  14.004  10.706   9.493
 1821POPC   PO424972  13.389  10.776   9.525
 1821POPC   GL124973  13.472  10.548   9.159
 1821POPC   GL224974  13.831  10.478   9.073
 1821POPC   C1A24975  13.417  10.361   8.767
 1821POPC   D2A24976  13.572  10.239   8.383
 1821POPC   C3A24977  13.343  10.473   8.104
 1821POPC   C4A24978  13.429  10.659   7.726
 1821POPC   C1B24979  13.865  10.713   8.681
 1821POPC   C2B24980  13.858  10.702   8.214
 1821POPC   C3B24981  13.834  10.352   7.916
 1821POPC   C4B24982  13.740  10.357   7.481
 1822POPC   NC324983   1.306  31.965   9.476
 1822POPC   PO424984   0.912  32.403   9.171
 1822POPC   GL124985   1.257  32.167   9.030
 1822POPC   GL224986   1.558  32.319   9.174
 1822POPC   C1A24987   1.289  31.970   8.679
 1822POPC   D2A24988   1.087  32.304   8.487
 1822POPC   C3A24989   1.094  32.233   8.100
 1822POPC   C4A24990   1.098  32.248   7.730
 1822POPC   C1B24991   1.686  32.281   8.758
 1822POPC   C2B24992   1.574  32.429   8.375
 1822POPC   C3B24993   1.610  32.221   8.025
 1822POPC   C4B24994   1.540  31.931   7.759
 1823POPC   NC324995   9.708  35.077   9.358
 1823POPC   PO424996   9.978  35.666   9.462
 1823POPC   GL124997   9.845  35.498   9.101
 1823POPC   GL224998  10.058  35.204   9.021
 1823POPC   C1A24999   9.932  35.554   8.698
 1823POPC   D2A25000   9.939  35.652   8.331
 1823POPC   C3A25001   9.925  35.380   8.013
 1823POPC   C4A25002   9.620  35.586   7.764
 1823POPC   C1B25003   9.963  34.987   8.672
 1823POPC   C2B25004   9.626  34.963   8.388
 1823POPC   C3B25005   9.521  35.063   7.980
 1823POPC   C4B25006   9.573  35.073   7.553
 1824POPC   NC325007   1.545  20.226   9.409
 1824POPC   PO425008   1.551  20.952   9.493
 1824POPC   GL125009   1.417  20.649   9.145
 1824POPC   GL225010   1.140  20.379   9.101
 1824POPC   C1A25011   1.429  20.511   8.711
 1824POPC   D2A25012   1.237  20.715   8.380
 1824POPC   C3A25013   1.307  20.711   7.962
 1824POPC   C4A25014   0.966  20.852   7.765
 1824POPC   C1B25015   0.897  20.485   8.709
 1824POPC   C2B25016   0.718  20.328   8.373
 1824POPC   C3B25017   1.009  20.322   8.067
 1824POPC   C4B25018   0.998  20.353   7.658
 1825POPC   NC325019   5.703  44.601   9.576
 1825POPC   PO425020   6.123   0.062   9.493
 1825POPC   GL125021   6.034  44.726   9.207
 1825POPC   GL225022   5.689  44.767   9.095
 1825POPC   C1A25023   6.049  44.466   8.844
 1825POPC   D2A25024   5.861  44.592   8.460
 1825POPC   C3A25025   6.127  44.569   8.076
 1825POPC   C4A25026   6.194  44.489   7.660
 1825POPC   C1B25027   5.550  44.376   8.887
 1825POPC   C2B25028   5.425  44.309   8.441
 1825POPC   C3B25029   5.661  44.351   8.049
 1825POPC   C4B25030   5.668  44.451   7.582
 1826POPC   NC325031  22.148  23.891   9.491
 1826POPC   PO425032  22.233  23.218   9.477
 1826POPC   GL125033  22.129  23.501   9.105
 1826POPC   GL225034  21.944  23.851   9.050
 1826POPC   C1A25035  22.264  23.665   8.689
 1826POPC   D2A25036  22.434  23.980   8.396
 1826POPC   C3A25037  22.278  23.968   7.950
 1826POPC   C4A25038  22.140  23.561   7.786
 1826POPC   C1B25039  21.837  23.942   8.659
 1826POPC   C2B25040  21.941  23.742   8.290
 1826POPC   C3B25041  21.747  23.842   7.933
 1826POPC   C4B25042  21.871  23.973   7.587
 1827POPC   NC325043  16.968  25.540   9.460
 1827POPC   PO425044  17.660  25.319   9.559
 1827POPC   GL125045  17.649  25.113   9.154
 1827POPC   GL225046  17.275  25.087   9.077
 1827POPC   C1A25047  17.636  25.142   8.709
 1827POPC   D2A25048  17.565  25.400   8.396
 1827POPC   C3A25049  17.549  25.181   8.025
 1827POPC   C4A25050  17.664  25.361   7.657
 1827POPC   C1B25051  17.309  25.494   8.890
 1827POPC   C2B25052  17.147  25.668   8.506
 1827POPC   C3B25053  17.136  25.502   8.107
 1827POPC   C4B25054  17.302  25.685   7.771
 1828POPC   NC325055  23.755  24.742   9.463
 1828POPC   PO425056  23.468  24.031   9.511
 1828POPC   GL125057  23.477  24.352   9.189
 1828POPC   GL225058  23.826  24.393   9.063
 1828POPC   C1A25059  23.421  24.424   8.727
 1828POPC   D2A25060  23.598  24.647   8.341
 1828POPC   C3A25061  23.477  24.626   7.890
 1828POPC   C4A25062  23.680  24.432   7.499
 1828POPC   C1B25063  23.926  24.730   8.752
 1828POPC   C2B25064  24.071  24.870   8.325
 1828POPC   C3B25065  23.912  24.953   7.916
 1828POPC   C4B25066  23.806  24.921   7.453
 1829POPC   NC325067  39.948  12.891   9.633
 1829POPC   PO425068  40.496  12.633   9.419
 1829POPC   GL125069  40.101  12.728   9.156
 1829POPC   GL225070  39.794  12.950   9.154
 1829POPC   C1A25071  40.041  12.808   8.725
 1829POPC   D2A25072  40.223  12.643   8.367
 1829POPC   C3A25073  39.896  12.533   8.133
 1829POPC   C4A25074  39.935  12.549   7.698
 1829POPC   C1B25075  39.637  13.136   8.766
 1829POPC   C2B25076  39.634  12.921   8.371
 1829POPC   C3B25077  39.714  12.975   7.936
 1829POPC   C4B25078  39.857  13.043   7.529
 1830POPC   NC325079  12.495   5.057   9.560
 1830POPC   PO425080  11.973   5.488   9.491
 1830POPC   GL125081  12.075   5.215   9.128
 1830POPC   GL225082  12.381   5.053   9.037
 1830POPC   C1A25083  11.906   5.031   8.766
 1830POPC   D2A25084  12.125   4.996   8.382
 1830POPC   C3A25085  11.908   5.022   8.028
 1830POPC   C4A25086  11.751   4.786   7.723
 1830POPC   C1B25087  12.293   5.409   8.717
 1830POPC   C2B25088  12.360   5.542   8.291
 1830POPC   C3B25089  12.260   5.373   7.881
 1830POPC   C4B25090  12.272   4.987   7.669
 1831POPC   NC325091  20.333  14.194   9.474
 1831POPC   PO425092  19.733  14.606   9.514
 1831POPC   GL125093  19.823  14.293   9.215
 1831POPC   GL225094  19.516  14.290   8.988
 1831POPC   C1A25095  19.998  14.352   8.842
 1831POPC   D2A25096  19.907  14.285   8.433
 1831POPC   C3A25097  20.117  14.462   8.106
 1831POPC   C4A25098  20.004  14.371   7.702
 1831POPC   C1B25099  19.612  14.656   8.699
 1831POPC   C2B25100  19.846  14.819   8.325
 1831POPC   C3B25101  19.728  14.750   7.895
 1831POPC   C4B25102  19.661  14.675   7.451
 1832POPC   NC325103  25.185   5.105   9.519
 1832POPC   PO425104  25.479   4.499   9.437
 1832POPC   GL125105  25.197   4.786   9.122
 1832POPC   GL225106  25.320   5.198   9.060
 1832POPC   C1A25107  25.075   4.920   8.716
 1832POPC   D2A25108  25.200   5.012   8.340
 1832POPC   C3A25109  25.097   4.764   7.967
 1832POPC   C4A25110  25.132   4.977   7.594
 1832POPC   C1B25111  25.252   5.461   8.701
 1832POPC   C2B25112  25.380   5.483   8.249
 1832POPC   C3B25113  25.311   5.554   7.807
 1832POPC   C4B25114  25.228   5.431   7.362
 1833POPC   NC325115  28.793  34.253   9.464
 1833POPC   PO425116  28.247  34.550   9.555
 1833POPC   GL125117  28.268  34.638   9.148
 1833POPC   GL225118  28.606  34.719   9.174
 1833POPC   C1A25119  28.287  34.760   8.704
 1833POPC   D2A25120  28.205  34.535   8.340
 1833POPC   C3A25121  28.438  34.673   7.992
 1833POPC   C4A25122  28.279  34.627   7.590
 1833POPC   C1B25123  28.760  34.630   8.764
 1833POPC   C2B25124  28.716  34.453   8.369
 1833POPC   C3B25125  28.517  34.176   8.057
 1833POPC   C4B25126  28.629  34.269   7.646
 1834POPC   NC325127  28.002  30.376   9.506
 1834POPC   PO425128  28.739  30.567   9.434
 1834POPC   GL125129  28.380  30.516   9.131
 1834POPC   GL225130  28.184  30.163   9.078
 1834POPC   C1A25131  28.439  30.772   8.763
 1834POPC   D2A25132  28.333  30.990   8.399
 1834POPC   C3A25133  28.585  30.949   8.066
 1834POPC   C4A25134  28.269  30.818   7.815
 1834POPC   C1B25135  28.348  30.271   8.682
 1834POPC   C2B25136  28.514  30.482   8.329
 1834POPC   C3B25137  28.480  30.348   7.921
 1834POPC   C4B25138  28.561  30.262   7.501
 1835POPC   NC325139  35.769  42.677   9.422
 1835POPC   PO425140  36.367  42.428   9.508
 1835POPC   GL125141  36.260  42.346   9.095
 1835POPC   GL225142  35.932  42.258   9.137
 1835POPC   C1A25143  36.347  42.368   8.635
 1835POPC   D2A25144  36.485  42.417   8.207
 1835POPC   C3A25145  36.224  42.389   7.854
 1835POPC   C4A25146  35.988  42.049   7.899
 1835POPC   C1B25147  35.818  42.373   8.730
 1835POPC   C2B25148  35.954  42.499   8.337
 1835POPC   C3B25149  35.737  42.593   8.020
 1835POPC   C4B25150  35.698  42.425   7.684
 1836POPC   NC325151  20.884  36.954   9.575
 1836POPC   PO425152  21.082  36.366   9.410
 1836POPC   GL125153  20.834  36.651   9.121
 1836POPC   GL225154  20.506  36.776   9.120
 1836POPC   C1A25155  20.788  36.963   8.749
 1836POPC   D2A25156  21.033  37.100   8.388
 1836POPC   C3A25157  20.838  37.095   7.976
 1836POPC   C4A25158  20.594  37.283   7.642
 1836POPC   C1B25159  20.462  36.525   8.768
 1836POPC   C2B25160  20.549  36.591   8.345
 1836POPC   C3B25161  20.270  36.518   8.007
 1836POPC   C4B25162  20.360  36.810   7.727
 1837POPC   NC325163  31.433  29.543   9.232
 1837POPC   PO425164  31.852  29.145   9.491
 1837POPC   GL125165  31.647  29.074   9.069
 1837POPC   GL225166  31.410  28.795   8.982
 1837POPC   C1A25167  31.835  29.150   8.713
 1837POPC   D2A25168  31.758  29.317   8.353
 1837POPC   C3A25169  31.670  29.015   8.099
 1837POPC   C4A25170  31.813  29.047   7.701
 1837POPC   C1B25171  31.312  29.111   8.644
 1837POPC   C2B25172  31.143  29.125   8.225
 1837POPC   C3B25173  31.313  29.254   7.825
 1837POPC   C4B25174  31.055  29.374   7.464
 1838POPC   NC325175  13.257  13.683   9.420
 1838POPC   PO425176  12.654  13.430   9.678
 1838POPC   GL125177  12.727  13.708   9.254
 1838POPC   GL225178  12.546  14.035   9.189
 1838POPC   C1A25179  12.944  13.794   8.820
 1838POPC   D2A25180  12.951  13.918   8.343
 1838POPC   C3A25181  12.924  13.583   8.009
 1838POPC   C4A25182  13.250  13.332   7.829
 1838POPC   C1B25183  12.424  13.749   8.818
 1838POPC   C2B25184  12.444  13.860   8.367
 1838POPC   C3B25185  12.443  13.834   7.923
 1838POPC   C4B25186  12.580  13.671   7.568
 1839POPC   NC325187   0.988  14.198   9.421
 1839POPC   PO425188   1.478  14.691   9.402
 1839POPC   GL125189   1.358  14.442   9.069
 1839POPC   GL225190   1.050  14.574   9.069
 1839POPC   C1A25191   1.328  14.518   8.616
 1839POPC   D2A25192   1.552  14.417   8.247
 1839POPC   C3A25193   1.288  14.346   7.851
 1839POPC   C4A25194   0.901  14.160   7.700
 1839POPC   C1B25195   1.001  14.889   8.781
 1839POPC   C2B25196   0.871  14.775   8.408
 1839POPC   C3B25197   0.841  14.531   8.073
 1839POPC   C4B25198   0.956  14.723   7.700
 1840POPC   NC325199  29.166   3.032   9.442
 1840POPC   PO425200  28.922   2.386   9.513
 1840POPC   GL125201  29.071   2.605   9.126
 1840POPC   GL225202  29.278   2.915   8.973
 1840POPC   C1A25203  29.119   2.532   8.694
 1840POPC   D2A25204  29.239   2.756   8.328
 1840POPC   C3A25205  29.248   2.554   7.957
 1840POPC   C4A25206  29.145   2.729   7.551
 1840POPC   C1B25207  29.598   2.781   8.689
 1840POPC   C2B25208  29.765   2.986   8.330
 1840POPC   C3B25209  29.570   2.961   7.929
 1840POPC   C4B25210  29.609   2.922   7.499
 1841POPC   NC325211  11.187  43.761   9.482
 1841POPC   PO425212  11.484  44.258   9.202
 1841POPC   GL125213  11.519  43.850   9.015
 1841POPC   GL225214  11.191  43.745   8.994
 1841POPC   C1A25215  11.439  43.796   8.564
 1841POPC   D2A25216  11.209  44.112   8.315
 1841POPC   C3A25217  11.320  44.117   7.869
 1841POPC   C4A25218  11.395  44.186   7.430
 1841POPC   C1B25219  10.969  43.998   8.768
 1841POPC   C2B25220  10.755  43.915   8.400
 1841POPC   C3B25221  10.847  43.947   7.976
 1841POPC   C4B25222  10.976  43.876   7.535
 1842POPC   NC325223   9.607  38.839   9.857
 1842POPC   PO425224  10.126  39.128   9.506
 1842POPC   GL125225   9.987  39.172   9.070
 1842POPC   GL225226   9.606  39.076   9.014
 1842POPC   C1A25227   9.960  38.997   8.650
 1842POPC   D2A25228   9.834  39.003   8.225
 1842POPC   C3A25229   9.753  39.377   7.947
 1842POPC   C4A25230   9.970  39.396   7.505
 1842POPC   C1B25231   9.450  38.904   8.586
 1842POPC   C2B25232   9.338  39.144   8.190
 1842POPC   C3B25233   9.305  39.238   7.740
 1842POPC   C4B25234   9.023  39.353   7.391
 1843POPC   NC325235  37.308  40.611   9.464
 1843POPC   PO425236  36.710  41.031   9.424
 1843POPC   GL125237  36.918  40.823   9.098
 1843POPC   GL225238  37.244  40.922   9.060
 1843POPC   C1A25239  37.030  40.578   8.721
 1843POPC   D2A25240  36.801  40.356   8.390
 1843POPC   C3A25241  36.768  40.542   7.993
 1843POPC   C4A25242  37.127  40.621   7.740
 1843POPC   C1B25243  37.122  41.162   8.744
 1843POPC   C2B25244  37.183  41.274   8.342
 1843POPC   C3B25245  37.194  41.119   7.944
 1843POPC   C4B25246  36.963  41.094   7.606
 1844POPC   NC325247  12.356  29.070   9.670
 1844POPC   PO425248  13.024  28.972   9.643
 1844POPC   GL125249  13.051  29.024   9.140
 1844POPC   GL225250  12.974  29.353   9.076
 1844POPC   C1A25251  13.216  29.123   8.698
 1844POPC   D2A25252  13.336  29.352   8.348
 1844POPC   C3A25253  13.115  29.117   8.054
 1844POPC   C4A25254  13.205  29.080   7.613
 1844POPC   C1B25255  12.732  29.253   8.750
 1844POPC   C2B25256  12.724  29.109   8.412
 1844POPC   C3B25257  12.593  29.164   8.058
 1844POPC   C4B25258  12.729  29.211   7.687
 1845POPC   NC325259   9.380  37.401   9.350
 1845POPC   PO425260   8.803  37.766   9.592
 1845POPC   GL125261   8.737  37.776   9.142
 1845POPC   GL225262   9.053  37.634   9.037
 1845POPC   C1A25263   8.708  37.753   8.677
 1845POPC   D2A25264   8.807  37.449   8.423
 1845POPC   C3A25265   8.922  37.521   8.036
 1845POPC   C4A25266   8.637  37.536   7.719
 1845POPC   C1B25267   9.227  37.731   8.630
 1845POPC   C2B25268   9.040  37.970   8.298
 1845POPC   C3B25269   9.207  38.070   7.911
 1845POPC   C4B25270   9.310  37.680   7.755
 1846POPC   NC325271  37.402  27.261   9.444
 1846POPC   PO425272  37.565  26.611   9.480
 1846POPC   GL125273  37.636  26.634   9.099
 1846POPC   GL225274  37.705  26.990   9.106
 1846POPC   C1A25275  37.822  26.429   8.771
 1846POPC   D2A25276  38.093  26.499   8.428
 1846POPC   C3A25277  37.862  26.595   8.100
 1846POPC   C4A25278  37.922  26.965   7.907
 1846POPC   C1B25279  37.811  26.923   8.691
 1846POPC   C2B25280  37.559  26.926   8.338
 1846POPC   C3B25281  37.498  27.220   8.005
 1846POPC   C4B25282  37.301  27.366   7.660
 1847POPC   NC325283  26.457  43.908   9.643
 1847POPC   PO425284  25.906  43.624   9.531
 1847POPC   GL125285  25.882  43.904   9.186
 1847POPC   GL225286  26.220  43.942   9.182
 1847POPC   C1A25287  25.896  43.872   8.735
 1847POPC   D2A25288  26.013  43.551   8.413
 1847POPC   C3A25289  25.992  43.690   7.993
 1847POPC   C4A25290  26.054  44.066   7.757
 1847POPC   C1B25291  26.389  43.768   8.850
 1847POPC   C2B25292  26.472  43.775   8.453
 1847POPC   C3B25293  26.447  43.915   8.059
 1847POPC   C4B25294  26.421  43.731   7.671
 1848POPC   NC325295  42.034  36.754   9.561
 1848POPC   PO425296  41.450  36.878   9.573
 1848POPC   GL125297  41.713  36.984   9.199
 1848POPC   GL225298  41.442  37.015   8.996
 1848POPC   C1A25299  41.893  37.041   8.780
 1848POPC   D2A25300  41.678  36.937   8.431
 1848POPC   C3A25301  41.890  36.895   8.063
 1848POPC   C4A25302  41.719  36.928   7.690
 1848POPC   C1B25303  41.223  36.794   8.672
 1848POPC   C2B25304  41.049  36.870   8.267
 1848POPC   C3B25305  41.244  36.983   7.879
 1848POPC   C4B25306  41.276  37.366   7.637
 1849POPC   NC325307  29.941  15.664   9.564
 1849POPC   PO425308  29.660  14.986   9.466
 1849POPC   GL125309  29.916  15.252   9.212
 1849POPC   GL225310  29.671  15.506   9.112
 1849POPC   C1A25311  30.042  15.275   8.784
 1849POPC   D2A25312  30.109  15.043   8.397
 1849POPC   C3A25313  29.915  15.244   8.023
 1849POPC   C4A25314  30.136  15.353   7.618
 1849POPC   C1B25315  29.486  15.184   8.832
 1849POPC   C2B25316  29.565  15.038   8.402
 1849POPC   C3B25317  29.529  14.892   7.971
 1849POPC   C4B25318  29.767  14.993   7.587
 1850POPC   NC325319  29.150  30.645   9.686
 1850POPC   PO425320  29.249  31.104   9.246
 1850POPC   GL125321  29.255  30.676   9.141
 1850POPC   GL225322  29.067  30.341   9.122
 1850POPC   C1A25323  29.285  30.641   8.705
 1850POPC   D2A25324  29.199  30.888   8.315
 1850POPC   C3A25325  29.411  30.788   7.917
 1850POPC   C4A25326  29.244  30.818   7.495
 1850POPC   C1B25327  28.837  30.417   8.753
 1850POPC   C2B25328  29.041  30.382   8.359
 1850POPC   C3B25329  28.957  30.543   7.998
 1850POPC   C4B25330  29.039  30.375   7.618
 1851POPC   NC325331  19.233   6.926   9.437
 1851POPC   PO425332  18.859   6.418   9.702
 1851POPC   GL125333  18.913   6.557   9.279
 1851POPC   GL225334  18.734   6.836   9.151
 1851POPC   C1A25335  19.094   6.618   8.859
 1851POPC   D2A25336  18.890   6.644   8.475
 1851POPC   C3A25337  19.101   6.506   8.139
 1851POPC   C4A25338  19.219   6.753   7.784
 1851POPC   C1B25339  18.660   7.070   8.755
 1851POPC   C2B25340  18.967   7.160   8.463
 1851POPC   C3B25341  18.871   7.003   8.065
 1851POPC   C4B25342  18.891   7.155   7.641
 1852POPC   NC325343  17.226   0.195   9.216
 1852POPC   PO425344  16.608   0.397   9.587
 1852POPC   GL125345  16.798   0.477   9.225
 1852POPC   GL225346  16.738   0.147   9.122
 1852POPC   C1A25347  16.838   0.546   8.783
 1852POPC   D2A25348  16.645   0.545   8.407
 1852POPC   C3A25349  16.768   0.779   8.047
 1852POPC   C4A25350  16.872   0.593   7.689
 1852POPC   C1B25351  16.830   0.009   8.706
 1852POPC   C2B25352  16.610   0.043   8.353
 1852POPC   C3B25353  16.723   0.229   8.014
 1852POPC   C4B25354  16.522   0.154   7.691
 1853POPC   NC325355  10.642  14.968   9.328
 1853POPC   PO425356  10.193  15.543   9.450
 1853POPC   GL125357  10.363  15.345   9.080
 1853POPC   GL225358  10.737  15.325   8.981
 1853POPC   C1A25359  10.357  15.145   8.670
 1853POPC   D2A25360  10.544  15.378   8.362
 1853POPC   C3A25361  10.716  15.282   7.947
 1853POPC   C4A25362  10.388  15.355   7.691
 1853POPC   C1B25363  10.842  14.969   8.682
 1853POPC   C2B25364  10.684  14.896   8.279
 1853POPC   C3B25365  10.286  15.008   8.117
 1853POPC   C4B25366  10.297  14.867   7.729
 1854POPC   NC325367  23.412  32.969   9.428
 1854POPC   PO425368  24.104  33.014   9.405
 1854POPC   GL125369  23.802  33.294   9.154
 1854POPC   GL225370  23.449  33.206   8.992
 1854POPC   C1A25371  23.927  33.448   8.753
 1854POPC   D2A25372  24.067  33.234   8.368
 1854POPC   C3A25373  23.738  33.028   8.108
 1854POPC   C4A25374  23.769  32.998   7.685
 1854POPC   C1B25375  23.571  33.122   8.597
 1854POPC   C2B25376  23.596  33.469   8.323
 1854POPC   C3B25377  23.437  33.468   7.932
 1854POPC   C4B25378  23.338  33.215   7.566
 1855POPC   NC325379  12.465   3.484   9.782
 1855POPC   PO425380  12.945   3.812   9.421
 1855POPC   GL125381  12.863   3.580   9.080
 1855POPC   GL225382  12.563   3.855   9.076
 1855POPC   C1A25383  12.778   3.286   8.726
 1855POPC   D2A25384  12.927   3.395   8.348
 1855POPC   C3A25385  12.781   3.257   7.962
 1855POPC   C4A25386  12.968   3.441   7.609
 1855POPC   C1B25387  12.694   3.790   8.668
 1855POPC   C2B25388  12.643   3.857   8.300
 1855POPC   C3B25389  12.860   3.768   8.003
 1855POPC   C4B25390  12.718   3.889   7.653
 1856POPC   NC325391  40.412  31.667   9.484
 1856POPC   PO425392  40.059  31.056   9.549
 1856POPC   GL125393  39.990  31.407   9.180
 1856POPC   GL225394  39.632  31.593   9.128
 1856POPC   C1A25395  40.004  31.618   8.792
 1856POPC   D2A25396  40.010  31.393   8.413
 1856POPC   C3A25397  39.932  31.610   8.064
 1856POPC   C4A25398  39.955  31.478   7.709
 1856POPC   C1B25399  39.586  31.885   8.853
 1856POPC   C2B25400  39.627  31.766   8.472
 1856POPC   C3B25401  39.431  31.727   8.122
 1856POPC   C4B25402  39.541  31.845   7.727
 1857POPC   NC325403  44.308  37.127   9.425
 1857POPC   PO425404   0.015  36.866   9.554
 1857POPC   GL125405  44.718  36.889   9.218
 1857POPC   GL225406  44.763  37.230   9.150
 1857POPC   C1A25407  44.576  36.939   8.769
 1857POPC   D2A25408  44.407  36.918   8.319
 1857POPC   C3A25409  44.638  36.924   7.939
 1857POPC   C4A25410  44.490  36.925   7.482
 1857POPC   C1B25411  44.777  37.414   8.738
 1857POPC   C2B25412  44.599  37.392   8.338
 1857POPC   C3B25413  44.839  37.397   7.980
 1857POPC   C4B25414  44.881  37.221   7.571
 1858POPC   NC325415  37.745  17.207   9.509
 1858POPC   PO425416  37.365  16.619   9.526
 1858POPC   GL125417  37.611  16.806   9.179
 1858POPC   GL225418  37.386  17.052   9.166
 1858POPC   C1A25419  37.764  16.781   8.743
 1858POPC   D2A25420  37.598  16.744   8.295
 1858POPC   C3A25421  37.852  16.885   7.926
 1858POPC   C4A25422  38.012  16.808   7.534
 1858POPC   C1B25423  37.308  17.099   8.771
 1858POPC   C2B25424  37.234  17.113   8.355
 1858POPC   C3B25425  37.428  17.181   7.983
 1858POPC   C4B25426  37.388  16.863   7.702
 1859POPC   NC325427  28.616  44.333   9.602
 1859POPC   PO425428  28.321  43.615   9.546
 1859POPC   GL125429  28.300  43.805   9.177
 1859POPC   GL225430  28.025  44.099   9.187
 1859POPC   C1A25431  28.375  43.584   8.786
 1859POPC   D2A25432  28.543  43.547   8.372
 1859POPC   C3A25433  28.587  43.957   8.166
 1859POPC   C4A25434  28.553  44.031   7.723
 1859POPC   C1B25435  28.230  44.088   8.774
 1859POPC   C2B25436  28.131  43.871   8.388
 1859POPC   C3B25437  27.886  44.025   8.052
 1859POPC   C4B25438  28.043  44.041   7.649
 1860POPC   NC325439  29.916  38.418   9.610
 1860POPC   PO425440  30.356  38.732   9.308
 1860POPC   GL125441  29.903  38.706   9.164
 1860POPC   GL225442  29.728  38.346   9.160
 1860POPC   C1A25443  29.869  38.570   8.739
 1860POPC   D2A25444  30.096  38.455   8.399
 1860POPC   C3A25445  29.971  38.612   8.014
 1860POPC   C4A25446  30.230  38.456   7.686
 1860POPC   C1B25447  29.541  38.139   8.824
 1860POPC   C2B25448  29.579  38.287   8.414
 1860POPC   C3B25449  29.589  38.081   8.029
 1860POPC   C4B25450  29.736  38.274   7.708
 1861POPC   NC325451  25.460  26.765   9.316
 1861POPC   PO425452  25.031  27.198   9.610
 1861POPC   GL125453  25.067  27.119   9.204
 1861POPC   GL225454  24.856  27.397   9.150
 1861POPC   C1A25455  25.048  26.861   8.820
 1861POPC   D2A25456  25.337  26.669   8.541
 1861POPC   C3A25457  25.217  26.669   8.084
 1861POPC   C4A25458  25.395  26.876   7.709
 1861POPC   C1B25459  24.925  27.344   8.730
 1861POPC   C2B25460  24.942  27.099   8.341
 1861POPC   C3B25461  24.983  27.115   7.890
 1861POPC   C4B25462  25.060  27.112   7.403
 1862POPC   NC325463   5.525  16.992   9.402
 1862POPC   PO425464   5.024  16.486   9.428
 1862POPC   GL125465   5.065  16.661   9.067
 1862POPC   GL225466   5.421  16.595   8.994
 1862POPC   C1A25467   5.106  16.959   8.765
 1862POPC   D2A25468   5.270  16.964   8.358
 1862POPC   C3A25469   4.954  16.896   8.048
 1862POPC   C4A25470   4.830  16.676   7.701
 1862POPC   C1B25471   5.258  16.445   8.609
 1862POPC   C2B25472   5.290  16.496   8.179
 1862POPC   C3B25473   5.558  16.438   7.877
 1862POPC   C4B25474   5.440  16.394   7.466
 1863POPC   NC325475   2.535  36.378   9.358
 1863POPC   PO425476   1.906  36.334   9.484
 1863POPC   GL125477   2.107  36.289   9.091
 1863POPC   GL225478   2.328  36.000   9.069
 1863POPC   C1A25479   1.960  36.242   8.687
 1863POPC   D2A25480   1.897  36.033   8.287
 1863POPC   C3A25481   1.855  36.336   7.909
 1863POPC   C4A25482   1.596  36.219   7.512
 1863POPC   C1B25483   2.494  36.163   8.706
 1863POPC   C2B25484   2.334  36.302   8.329
 1863POPC   C3B25485   2.278  36.088   7.948
 1863POPC   C4B25486   2.186  36.224   7.527
 1864POPC   NC325487  28.731  19.930   9.546
 1864POPC   PO425488  29.350  19.690   9.570
 1864POPC   GL125489  29.193  19.559   9.209
 1864POPC   GL225490  29.150  19.935   9.133
 1864POPC   C1A25491  29.043  19.574   8.799
 1864POPC   D2A25492  29.158  19.898   8.515
 1864POPC   C3A25493  28.933  19.803   8.151
 1864POPC   C4A25494  29.055  19.730   7.765
 1864POPC   C1B25495  28.788  20.058   8.855
 1864POPC   C2B25496  28.745  20.182   8.411
 1864POPC   C3B25497  28.907  20.280   7.989
 1864POPC   C4B25498  28.955  20.148   7.523
 1865POPC   NC325499  24.719  21.081   9.834
 1865POPC   PO425500  24.684  21.530   9.339
 1865POPC   GL125501  24.507  21.392   9.005
 1865POPC   GL225502  24.252  21.617   8.969
 1865POPC   C1A25503  24.642  21.349   8.594
 1865POPC   D2A25504  24.510  21.434   8.213
 1865POPC   C3A25505  24.610  21.129   7.878
 1865POPC   C4A25506  24.598  21.201   7.425
 1865POPC   C1B25507  24.146  21.302   8.663
 1865POPC   C2B25508  23.939  21.294   8.333
 1865POPC   C3B25509  24.051  21.450   7.984
 1865POPC   C4B25510  24.151  21.305   7.624
 1866POPC   NC325511  22.602  22.156   9.499
 1866POPC   PO425512  23.276  22.214   9.595
 1866POPC   GL125513  23.109  22.387   9.216
 1866POPC   GL225514  22.940  22.094   9.095
 1866POPC   C1A25515  23.244  22.542   8.813
 1866POPC   D2A25516  23.126  22.290   8.445
 1866POPC   C3A25517  23.081  22.414   8.012
 1866POPC   C4A25518  23.077  22.085   7.761
 1866POPC   C1B25519  22.756  22.389   8.811
 1866POPC   C2B25520  22.610  22.444   8.395
 1866POPC   C3B25521  22.639  22.182   8.016
 1866POPC   C4B25522  22.666  22.385   7.593
 1867POPC   NC325523  43.282  25.480   9.315
 1867POPC   PO425524  42.889  25.029   9.485
 1867POPC   GL125525  43.046  24.943   9.070
 1867POPC   GL225526  43.396  24.950   9.059
 1867POPC   C1A25527  42.938  25.197   8.696
 1867POPC   D2A25528  42.966  25.499   8.363
 1867POPC   C3A25529  43.058  25.392   7.943
 1867POPC   C4A25530  42.664  25.458   7.723
 1867POPC   C1B25531  43.454  25.213   8.720
 1867POPC   C2B25532  43.325  25.152   8.321
 1867POPC   C3B25533  43.537  25.091   7.985
 1867POPC   C4B25534  43.492  25.144   7.610
 1868POPC   NC325535  31.219  19.824   9.488
 1868POPC   PO425536  31.718  19.529   9.096
 1868POPC   GL125537  31.409  19.791   9.020
 1868POPC   GL225538  31.145  19.537   9.057
 1868POPC   C1A25539  31.406  20.097   8.699
 1868POPC   D2A25540  31.406  20.187   8.254
 1868POPC   C3A25541  31.661  19.880   8.004
 1868POPC   C4A25542  31.776  19.487   7.742
 1868POPC   C1B25543  31.024  19.787   8.666
 1868POPC   C2B25544  31.289  19.670   8.348
 1868POPC   C3B25545  31.294  19.482   7.962
 1868POPC   C4B25546  31.311  19.741   7.616
 1869POPC   NC325547  25.616   3.570   9.459
 1869POPC   PO425548  24.994   3.194   9.451
 1869POPC   GL125549  25.018   3.366   9.068
 1869POPC   GL225550  25.291   3.502   9.104
 1869POPC   C1A25551  25.041   3.758   8.783
 1869POPC   D2A25552  25.290   3.917   8.466
 1869POPC   C3A25553  25.171   3.764   8.065
 1869POPC   C4A25554  25.216   3.747   7.656
 1869POPC   C1B25555  25.442   3.129   8.890
 1869POPC   C2B25556  25.482   3.070   8.471
 1869POPC   C3B25557  25.417   3.320   8.125
 1869POPC   C4B25558  25.505   3.265   7.706
 1870POPC   NC325559  19.584  36.943   9.120
 1870POPC   PO425560  19.015  37.053   9.480
 1870POPC   GL125561  18.899  36.952   9.098
 1870POPC   GL225562  19.143  37.087   8.927
 1870POPC   C1A25563  18.737  36.925   8.654
 1870POPC   D2A25564  18.811  37.201   8.344
 1870POPC   C3A25565  18.990  36.966   8.034
 1870POPC   C4A25566  18.835  36.867   7.676
 1870POPC   C1B25567  19.148  36.634   8.782
 1870POPC   C2B25568  19.131  36.552   8.390
 1870POPC   C3B25569  19.363  36.616   8.044
 1870POPC   C4B25570  19.186  36.454   7.704
 1871POPC   NC325571   8.109  22.669   9.529
 1871POPC   PO425572   7.576  23.062   9.424
 1871POPC   GL125573   7.923  23.046   9.145
 1871POPC   GL225574   8.306  22.936   9.145
 1871POPC   C1A25575   8.110  23.124   8.730
 1871POPC   D2A25576   8.400  22.852   8.509
 1871POPC   C3A25577   8.562  22.978   8.096
 1871POPC   C4A25578   8.323  22.967   7.731
 1871POPC   C1B25579   8.020  22.640   8.869
 1871POPC   C2B25580   8.039  22.488   8.464
 1871POPC   C3B25581   8.074  22.693   8.093
 1871POPC   C4B25582   8.078  22.537   7.683
 1872POPC   NC325583  30.472  41.100   9.436
 1872POPC   PO425584  31.040  40.685   9.407
 1872POPC   GL125585  30.805  40.886   9.128
 1872POPC   GL225586  30.485  40.716   9.085
 1872POPC   C1A25587  30.657  41.064   8.761
 1872POPC   D2A25588  30.426  40.872   8.414
 1872POPC   C3A25589  30.494  41.022   7.993
 1872POPC   C4A25590  30.724  41.006   7.595
 1872POPC   C1B25591  30.718  40.517   8.781
 1872POPC   C2B25592  30.599  40.375   8.416
 1872POPC   C3B25593  30.708  40.552   8.035
 1872POPC   C4B25594  30.528  40.520   7.660
 1873POPC   NC325595  38.936  11.194   9.420
 1873POPC   PO425596  39.458  11.580   9.570
 1873POPC   GL125597  39.484  11.581   9.147
 1873POPC   GL225598  39.549  11.221   9.110
 1873POPC   C1A25599  39.218  11.494   8.789
 1873POPC   D2A25600  39.114  11.245   8.426
 1873POPC   C3A25601  39.243  11.498   8.088
 1873POPC   C4A25602  39.069  11.339   7.742
 1873POPC   C1B25603  39.389  10.965   8.775
 1873POPC   C2B25604  39.501  10.801   8.373
 1873POPC   C3B25605  39.372  10.992   7.965
 1873POPC   C4B25606  39.404  11.028   7.510
 1874POPC   NC325607  19.547  19.547   9.453
 1874POPC   PO425608  20.018  18.970   9.450
 1874POPC   GL125609  19.663  19.002   9.206
 1874POPC   GL225610  19.721  19.290   9.044
 1874POPC   C1A25611  19.699  18.815   8.802
 1874POPC   D2A25612  19.860  19.032   8.434
 1874POPC   C3A25613  19.696  18.833   8.084
 1874POPC   C4A25614  19.883  18.790   7.705
 1874POPC   C1B25615  19.876  19.497   8.683
 1874POPC   C2B25616  19.638  19.525   8.307
 1874POPC   C3B25617  19.741  19.320   7.929
 1874POPC   C4B25618  19.767  19.476   7.524
 1875POPC   NC325619  34.167   5.306   9.618
 1875POPC   PO425620  33.547   5.147   9.527
 1875POPC   GL125621  33.753   5.190   9.116
 1875POPC   GL225622  34.025   5.416   9.131
 1875POPC   C1A25623  33.662   5.046   8.682
 1875POPC   D2A25624  33.596   5.258   8.304
 1875POPC   C3A25625  33.719   5.029   7.958
 1875POPC   C4A25626  33.379   4.902   7.719
 1875POPC   C1B25627  33.941   5.473   8.694
 1875POPC   C2B25628  34.086   5.367   8.293
 1875POPC   C3B25629  33.957   5.509   7.898
 1875POPC   C4B25630  33.950   5.252   7.534
 1876POPC   NC325631   6.216   6.633   9.403
 1876POPC   PO425632   5.547   6.879   9.331
 1876POPC   GL125633   5.828   6.584   9.044
 1876POPC   GL225634   6.183   6.431   8.950
 1876POPC   C1A25635   5.753   6.429   8.637
 1876POPC   D2A25636   5.448   6.705   8.425
 1876POPC   C3A25637   5.579   7.081   8.180
 1876POPC   C4A25638   5.867   7.000   7.821
 1876POPC   C1B25639   6.173   6.808   8.711
 1876POPC   C2B25640   5.967   6.776   8.313
 1876POPC   C3B25641   5.947   6.479   7.994
 1876POPC   C4B25642   6.197   6.589   7.637
 1877POPC   NC325643   6.027  12.274   9.452
 1877POPC   PO425644   5.487  11.876   9.682
 1877POPC   GL125645   5.676  11.960   9.241
 1877POPC   GL225646   5.632  12.297   9.123
 1877POPC   C1A25647   5.938  12.012   8.812
 1877POPC   D2A25648   5.880  11.704   8.467
 1877POPC   C3A25649   5.946  11.943   8.057
 1877POPC   C4A25650   5.830  11.992   7.616
 1877POPC   C1B25651   5.739  12.519   8.764
 1877POPC   C2B25652   5.977  12.433   8.419
 1877POPC   C3B25653   5.834  12.495   8.018
 1877POPC   C4B25654   6.052  12.484   7.652
 1878POPC   NC325655  11.108  26.550   9.563
 1878POPC   PO425656  11.560  27.029   9.654
 1878POPC   GL125657  11.245  26.811   9.177
 1878POPC   GL225658  11.314  26.479   9.073
 1878POPC   C1A25659  11.044  27.054   8.803
 1878POPC   D2A25660  10.923  26.991   8.362
 1878POPC   C3A25661  11.302  27.026   8.107
 1878POPC   C4A25662  11.580  27.116   7.771
 1878POPC   C1B25663  11.027  26.578   8.681
 1878POPC   C2B25664  11.137  26.523   8.256
 1878POPC   C3B25665  11.249  26.606   7.818
 1878POPC   C4B25666  11.071  26.496   7.440
 1879POPC   NC325667  39.049  24.365   9.550
 1879POPC   PO425668  39.521  24.839   9.571
 1879POPC   GL125669  39.291  24.637   9.221
 1879POPC   GL225670  39.160  24.864   9.050
 1879POPC   C1A25671  39.120  24.409   8.813
 1879POPC   D2A25672  38.968  24.112   8.467
 1879POPC   C3A25673  38.870  24.263   8.028
 1879POPC   C4A25674  39.243  24.386   7.767
 1879POPC   C1B25675  39.530  24.734   8.801
 1879POPC   C2B25676  39.690  24.745   8.433
 1879POPC   C3B25677  39.419  24.772   8.094
 1879POPC   C4B25678  39.380  24.880   7.692
 1880POPC   NC325679  37.582  30.136   9.868
 1880POPC   PO425680  37.427  29.613   9.449
 1880POPC   GL125681  37.610  29.840   9.126
 1880POPC   GL225682  37.727  30.201   9.174
 1880POPC   C1A25683  37.810  29.723   8.770
 1880POPC   D2A25684  37.948  29.931   8.431
 1880POPC   C3A25685  37.679  29.862   8.072
 1880POPC   C4A25686  37.808  29.729   7.658
 1880POPC   C1B25687  37.594  30.206   8.761
 1880POPC   C2B25688  37.345  30.220   8.409
 1880POPC   C3B25689  37.444  30.326   7.990
 1880POPC   C4B25690  37.394  30.065   7.661
 1881POPC   NC325691  10.377   0.749   9.389
 1881POPC   PO425692  10.683   0.149   9.602
 1881POPC   GL125693  10.612   0.172   9.173
 1881POPC   GL225694  10.274   0.260   9.218
 1881POPC   C1A25695  10.708   0.366   8.776
 1881POPC   D2A25696  10.936   0.250   8.381
 1881POPC   C3A25697  10.692   0.228   8.012
 1881POPC   C4A25698  10.840   0.337   7.593
 1881POPC   C1B25699  10.206   0.433   8.800
 1881POPC   C2B25700  10.397   0.501   8.386
 1881POPC   C3B25701  10.185   0.447   8.020
 1881POPC   C4B25702  10.199   0.545   7.588
 1882POPC   NC325703  21.002  17.757   9.466
 1882POPC   PO425704  21.045  17.050   9.524
 1882POPC   GL125705  20.812  17.299   9.144
 1882POPC   GL225706  20.821  17.608   9.013
 1882POPC   C1A25707  20.365  17.306   8.895
 1882POPC   D2A25708  20.247  17.239   8.442
 1882POPC   C3A25709  20.497  17.404   8.069
 1882POPC   C4A25710  20.700  17.402   7.652
 1882POPC   C1B25711  20.688  17.535   8.591
 1882POPC   C2B25712  20.743  17.805   8.247
 1882POPC   C3B25713  20.827  17.855   7.807
 1882POPC   C4B25714  20.735  17.870   7.345
 1883POPC   NC325715   3.175  17.691   9.400
 1883POPC   PO425716   2.693  17.226   9.482
 1883POPC   GL125717   2.663  17.383   9.097
 1883POPC   GL225718   2.728  17.721   9.164
 1883POPC   C1A25719   2.900  17.250   8.757
 1883POPC   D2A25720   2.793  17.103   8.347
 1883POPC   C3A25721   2.656  17.415   8.037
 1883POPC   C4A25722   2.858  17.416   7.613
 1883POPC   C1B25723   2.857  17.799   8.758
 1883POPC   C2B25724   2.960  17.619   8.406
 1883POPC   C3B25725   3.016  17.823   8.082
 1883POPC   C4B25726   2.769  17.887   7.763
 1884POPC   NC325727  29.040  40.672   9.757
 1884POPC   PO425728  29.406  41.265   9.617
 1884POPC   GL125729  29.278  40.945   9.298
 1884POPC   GL225730  28.914  40.883   9.216
 1884POPC   C1A25731  29.304  40.893   8.827
 1884POPC   D2A25732  29.079  40.789   8.440
 1884POPC   C3A25733  29.300  40.816   8.056
 1884POPC   C4A25734  29.373  40.680   7.654
 1884POPC   C1B25735  28.820  41.093   8.792
 1884POPC   C2B25736  28.844  41.220   8.337
 1884POPC   C3B25737  28.804  40.938   7.979
 1884POPC   C4B25738  28.495  40.933   7.668
 1885POPC   NC325739  16.528  42.343   9.450
 1885POPC   PO425740  17.216  42.208   9.344
 1885POPC   GL125741  16.940  42.350   9.036
 1885POPC   GL225742  16.597  42.206   8.981
 1885POPC   C1A25743  16.898  42.290   8.592
 1885POPC   D2A25744  16.659  42.180   8.258
 1885POPC   C3A25745  16.798  42.401   7.871
 1885POPC   C4A25746  16.835  42.241   7.445
 1885POPC   C1B25747  16.409  42.465   8.651
 1885POPC   C2B25748  16.191  42.387   8.234
 1885POPC   C3B25749  16.302  42.480   7.814
 1885POPC   C4B25750  16.523  42.679   7.443
 1886POPC   NC325751  35.281  19.885   9.647
 1886POPC   PO425752  35.696  19.515   9.342
 1886POPC   GL125753  35.302  19.623   9.110
 1886POPC   GL225754  35.188  19.985   9.137
 1886POPC   C1A25755  35.267  19.718   8.665
 1886POPC   D2A25756  35.201  19.477   8.277
 1886POPC   C3A25757  35.171  19.663   7.869
 1886POPC   C4A25758  35.170  19.715   7.406
 1886POPC   C1B25759  35.225  20.237   8.764
 1886POPC   C2B25760  35.358  20.142   8.366
 1886POPC   C3B25761  35.193  20.155   7.979
 1886POPC   C4B25762  35.420  20.106   7.632
 1887POPC   NC325763  44.396  40.537   9.493
 1887POPC   PO425764  44.925  40.849   9.249
 1887POPC   GL125765  44.719  40.786   8.918
 1887POPC   GL225766  44.501  40.563   8.998
 1887POPC   C1A25767  44.603  40.766   8.504
 1887POPC   D2A25768  44.912  40.678   8.217
 1887POPC   C3A25769  44.812  40.776   7.856
 1887POPC   C4A25770  44.782  40.490   7.555
 1887POPC   C1B25771  44.187  40.473   8.728
 1887POPC   C2B25772  44.135  40.596   8.329
 1887POPC   C3B25773  44.350  40.593   7.931
 1887POPC   C4B25774  44.405  40.821   7.492
 1888POPC   NC325775  13.098  16.550   9.423
 1888POPC   PO425776  12.453  16.615   9.617
 1888POPC   GL125777  12.677  16.623   9.151
 1888POPC   GL225778  12.962  16.871   9.035
 1888POPC   C1A25779  12.845  16.478   8.721
 1888POPC   D2A25780  13.154  16.516   8.361
 1888POPC   C3A25781  13.036  16.559   7.901
 1888POPC   C4A25782  13.028  16.761   7.466
 1888POPC   C1B25783  12.960  16.968   8.574
 1888POPC   C2B25784  12.719  16.835   8.201
 1888POPC   C3B25785  12.638  16.923   7.752
 1888POPC   C4B25786  12.751  17.253   7.467
 1889POPC   NC325787  32.997  11.130   9.718
 1889POPC   PO425788  32.953  10.397   9.492
 1889POPC   GL125789  32.953  10.424   9.083
 1889POPC   GL225790  33.178  10.654   9.003
 1889POPC   C1A25791  32.925  10.351   8.672
 1889POPC   D2A25792  33.029  10.571   8.346
 1889POPC   C3A25793  32.986  10.285   8.072
 1889POPC   C4A25794  32.908  10.329   7.668
 1889POPC   C1B25795  33.417  10.498   8.698
 1889POPC   C2B25796  33.431  10.256   8.377
 1889POPC   C3B25797  33.501  10.365   7.999
 1889POPC   C4B25798  33.288  10.652   7.821
 1890POPC   NC325799  26.921  31.611   9.512
 1890POPC   PO425800  27.058  30.902   9.428
 1890POPC   GL125801  26.890  31.220   9.166
 1890POPC   GL225802  27.110  31.489   9.055
 1890POPC   C1A25803  26.785  31.216   8.745
 1890POPC   D2A25804  26.634  31.374   8.363
 1890POPC   C3A25805  26.898  31.217   8.077
 1890POPC   C4A25806  26.670  31.226   7.765
 1890POPC   C1B25807  26.854  31.718   8.810
 1890POPC   C2B25808  26.824  31.832   8.412
 1890POPC   C3B25809  26.898  31.715   7.988
 1890POPC   C4B25810  27.012  31.923   7.637
 1891POPC   NC325811   8.616  16.676   9.465
 1891POPC   PO425812   9.236  16.384   9.393
 1891POPC   GL125813   8.890  16.387   9.120
 1891POPC   GL225814   9.001  16.676   8.949
 1891POPC   C1A25815   8.765  16.296   8.710
 1891POPC   D2A25816   9.016  16.550   8.446
 1891POPC   C3A25817   8.878  16.515   8.057
 1891POPC   C4A25818   8.975  16.614   7.655
 1891POPC   C1B25819   8.990  17.066   8.699
 1891POPC   C2B25820   9.055  17.186   8.323
 1891POPC   C3B25821   9.005  17.022   7.933
 1891POPC   C4B25822   8.753  17.079   7.544
 1892POPC   NC325823   7.318   0.154   9.687
 1892POPC   PO425824   7.625  44.522   9.543
 1892POPC   GL125825   7.618  44.372   9.112
 1892POPC   GL225826   7.386  44.623   8.990
 1892POPC   C1A25827   7.534  44.271   8.650
 1892POPC   D2A25828   7.409  44.617   8.415
 1892POPC   C3A25829   7.478  44.598   7.983
 1892POPC   C4A25830   7.085  44.780   7.784
 1892POPC   C1B25831   7.745  44.812   8.747
 1892POPC   C2B25832   7.707   0.036   8.387
 1892POPC   C3B25833   7.378   0.068   8.136
 1892POPC   C4B25834   7.543   0.025   7.724
 1893POPC   NC325835  23.485  22.625   9.474
 1893POPC   PO425836  23.941  23.159   9.639
 1893POPC   GL125837  23.660  23.017   9.226
 1893POPC   GL225838  23.816  22.745   9.060
 1893POPC   C1A25839  23.510  23.014   8.759
 1893POPC   D2A25840  23.381  23.135   8.337
 1893POPC   C3A25841  23.759  23.144   8.126
 1893POPC   C4A25842  23.847  23.016   7.726
 1893POPC   C1B25843  23.749  22.481   8.703
 1893POPC   C2B25844  23.490  22.632   8.359
 1893POPC   C3B25845  23.480  22.721   7.937
 1893POPC   C4B25846  23.804  22.462   7.754
 1894POPC   NC325847  34.194  40.094   9.547
 1894POPC   PO425848  33.549  39.844   9.583
 1894POPC   GL125849  33.595  39.756   9.159
 1894POPC   GL225850  33.903  39.877   9.115
 1894POPC   C1A25851  33.451  39.895   8.755
 1894POPC   D2A25852  33.687  40.022   8.399
 1894POPC   C3A25853  33.499  40.176   8.020
 1894POPC   C4A25854  33.649  39.946   7.659
 1894POPC   C1B25855  33.882  39.636   8.722
 1894POPC   C2B25856  34.039  39.497   8.315
 1894POPC   C3B25857  34.033  39.638   7.896
 1894POPC   C4B25858  34.147  39.529   7.465
 1895POPC   NC325859  44.242  18.057   9.796
 1895POPC   PO425860  44.135  18.390   9.212
 1895POPC   GL125861  43.834  18.239   9.008
 1895POPC   GL225862  43.733  17.978   9.171
 1895POPC   C1A25863  43.769  18.346   8.622
 1895POPC   D2A25864  44.035  18.307   8.337
 1895POPC   C3A25865  43.862  18.317   8.019
 1895POPC   C4A25866  43.867  18.251   7.641
 1895POPC   C1B25867  43.562  17.899   8.765
 1895POPC   C2B25868  43.601  17.960   8.307
 1895POPC   C3B25869  43.727  17.795   7.895
 1895POPC   C4B25870  43.692  17.842   7.428
 1896POPC   NC325871  30.328   5.828   9.423
 1896POPC   PO425872  29.683   5.983   9.485
 1896POPC   GL125873  29.860   5.918   9.139
 1896POPC   GL225874  29.734   5.582   9.061
 1896POPC   C1A25875  29.711   6.000   8.743
 1896POPC   D2A25876  29.964   5.990   8.393
 1896POPC   C3A25877  29.784   5.909   8.046
 1896POPC   C4A25878  29.689   6.250   7.759
 1896POPC   C1B25879  30.079   5.655   8.766
 1896POPC   C2B25880  30.281   5.592   8.388
 1896POPC   C3B25881  30.330   5.817   8.042
 1896POPC   C4B25882  30.086   5.824   7.651
 1897POPC   NC325883   7.284   9.809   9.430
 1897POPC   PO425884   7.910   9.979   9.457
 1897POPC   GL125885   7.705   9.708   9.130
 1897POPC   GL225886   7.420   9.429   9.072
 1897POPC   C1A25887   7.551   9.769   8.743
 1897POPC   D2A25888   7.694   9.811   8.366
 1897POPC   C3A25889   7.482   9.725   8.008
 1897POPC   C4A25890   7.315   9.937   7.669
 1897POPC   C1B25891   7.361   9.311   8.628
 1897POPC   C2B25892   7.133   9.369   8.245
 1897POPC   C3B25893   7.178   9.369   7.813
 1897POPC   C4B25894   7.479   9.487   7.510
 1898POPC   NC325895  23.126  32.261   9.406
 1898POPC   PO425896  22.428  32.015   9.515
 1898POPC   GL125897  22.665  32.127   9.171
 1898POPC   GL225898  22.789  32.459   9.099
 1898POPC   C1A25899  22.696  32.159   8.732
 1898POPC   D2A25900  22.841  32.103   8.356
 1898POPC   C3A25901  22.570  32.226   8.067
 1898POPC   C4A25902  22.795  32.019   7.763
 1898POPC   C1B25903  23.080  32.538   8.765
 1898POPC   C2B25904  23.042  32.593   8.308
 1898POPC   C3B25905  23.054  32.442   7.866
 1898POPC   C4B25906  22.995  32.358   7.402
 1899POPC   NC325907  11.217  14.858   9.566
 1899POPC   PO425908  11.458  14.188   9.508
 1899POPC   GL125909  11.275  14.318   9.154
 1899POPC   GL225910  11.575  14.450   9.006
 1899POPC   C1A25911  11.122  14.452   8.766
 1899POPC   D2A25912  11.114  14.629   8.403
 1899POPC   C3A25913  11.357  14.463   8.066
 1899POPC   C4A25914  11.241  14.453   7.632
 1899POPC   C1B25915  11.509  14.136   8.690
 1899POPC   C2B25916  11.529  14.038   8.255
 1899POPC   C3B25917  11.563  14.058   7.819
 1899POPC   C4B25918  11.588  14.167   7.366
 1900POPC   NC325919  40.678   5.480   9.272
 1900POPC   PO425920  40.875   4.822   9.420
 1900POPC   GL125921  41.024   5.065   9.123
 1900POPC   GL225922  40.728   5.079   8.963
 1900POPC   C1A25923  41.157   5.069   8.697
 1900POPC   D2A25924  40.828   5.008   8.398
 1900POPC   C3A25925  40.964   5.103   8.003
 1900POPC   C4A25926  40.927   5.136   7.581
 1900POPC   C1B25927  40.442   4.769   8.800
 1900POPC   C2B25928  40.361   4.705   8.362
 1900POPC   C3B25929  40.426   5.018   8.057
 1900POPC   C4B25930  40.332   5.016   7.642
 1901POPC   NC325931  30.360  36.200   9.493
 1901POPC   PO425932  29.650  36.204   9.558
 1901POPC   GL125933  29.889  36.106   9.183
 1901POPC   GL225934  30.171  35.932   9.061
 1901POPC   C1A25935  29.759  36.001   8.760
 1901POPC   D2A25936  29.710  35.673   8.446
 1901POPC   C3A25937  29.640  35.796   7.991
 1901POPC   C4A25938  29.671  35.961   7.523
 1901POPC   C1B25939  30.230  35.794   8.646
 1901POPC   C2B25940  30.042  36.029   8.299
 1901POPC   C3B25941  30.029  36.108   7.865
 1901POPC   C4B25942  30.351  36.235   7.664
 1902POPC   NC325943  35.874  27.903   9.468
 1902POPC   PO425944  36.462  27.612   9.610
 1902POPC   GL125945  36.280  27.652   9.199
 1902POPC   GL225946  35.919  27.541   9.102
 1902POPC   C1A25947  36.336  27.402   8.837
 1902POPC   D2A25948  36.133  27.401   8.438
 1902POPC   C3A25949  36.336  27.661   8.161
 1902POPC   C4A25950  36.419  27.463   7.803
 1902POPC   C1B25951  36.019  27.841   8.738
 1902POPC   C2B25952  35.859  27.816   8.288
 1902POPC   C3B25953  35.879  27.562   7.906
 1902POPC   C4B25954  35.766  27.758   7.496
 1903POPC   NC325955  20.905  22.723   9.506
 1903POPC   PO425956  20.165  22.880   9.514
 1903POPC   GL125957  20.394  22.877   9.118
 1903POPC   GL225958  20.726  22.707   9.044
 1903POPC   C1A25959  20.429  23.132   8.764
 1903POPC   D2A25960  20.655  23.415   8.503
 1903POPC   C3A25961  20.517  23.301   8.073
 1903POPC   C4A25962  20.389  22.960   7.820
 1903POPC   C1B25963  20.906  23.010   8.773
 1903POPC   C2B25964  20.736  22.942   8.357
 1903POPC   C3B25965  20.839  22.754   7.981
 1903POPC   C4B25966  20.765  22.738   7.544
 1904POPC   NC325967   3.053  30.368   9.408
 1904POPC   PO425968   2.710  30.924   9.632
 1904POPC   GL125969   2.744  30.748   9.229
 1904POPC   GL225970   3.074  30.836   9.179
 1904POPC   C1A25971   2.582  30.556   8.854
 1904POPC   D2A25972   2.732  30.425   8.463
 1904POPC   C3A25973   2.547  30.535   8.084
 1904POPC   C4A25974   2.527  30.787   7.754
 1904POPC   C1B25975   3.092  30.684   8.767
 1904POPC   C2B25976   3.072  30.823   8.349
 1904POPC   C3B25977   3.003  30.741   7.934
 1904POPC   C4B25978   2.948  30.804   7.502
 1905POPC   NC325979  23.503  15.093   9.657
 1905POPC   PO425980  24.178  15.057   9.605
 1905POPC   GL125981  23.866  15.049   9.211
 1905POPC   GL225982  23.514  15.088   9.152
 1905POPC   C1A25983  23.918  15.021   8.721
 1905POPC   D2A25984  24.164  15.100   8.302
 1905POPC   C3A25985  23.951  15.257   7.910
 1905POPC   C4A25986  23.890  15.019   7.511
 1905POPC   C1B25987  23.413  15.157   8.737
 1905POPC   C2B25988  23.552  15.068   8.331
 1905POPC   C3B25989  23.324  15.138   7.972
 1905POPC   C4B25990  23.379  15.475   7.744
 1906POPC   NC325991  18.257   7.252   9.499
 1906POPC   PO425992  18.520   7.850   9.383
 1906POPC   GL125993  18.237   7.562   9.070
 1906POPC   GL225994  18.228   7.168   9.022
 1906POPC   C1A25995  18.261   7.426   8.611
 1906POPC   D2A25996  18.491   7.288   8.299
 1906POPC   C3A25997  18.398   7.520   7.946
 1906POPC   C4A25998  18.455   7.368   7.553
 1906POPC   C1B25999  18.096   6.959   8.677
 1906POPC   C2B26000  17.970   7.117   8.292
 1906POPC   C3B26001  18.181   7.047   7.919
 1906POPC   C4B26002  18.120   7.014   7.461
 1907POPC   NC326003  25.403   1.540   9.206
 1907POPC   PO426004  25.085   0.943   9.476
 1907POPC   GL126005  25.337   1.005   9.127
 1907POPC   GL226006  25.048   1.227   9.042
 1907POPC   C1A26007  25.499   1.126   8.715
 1907POPC   D2A26008  25.394   1.483   8.444
 1907POPC   C3A26009  25.259   1.338   8.028
 1907POPC   C4A26010  25.470   1.044   7.717
 1907POPC   C1B26011  24.906   1.395   8.655
 1907POPC   C2B26012  24.743   1.149   8.309
 1907POPC   C3B26013  24.756   1.277   7.898
 1907POPC   C4B26014  25.018   1.246   7.561
 1908POPC   NC326015   1.578  21.970   9.385
 1908POPC   PO426016   1.155  22.455   9.664
 1908POPC   GL126017   1.231  22.307   9.232
 1908POPC   GL226018   1.578  22.366   9.070
 1908POPC   C1A26019   1.051  22.079   8.881
 1908POPC   D2A26020   1.012  22.108   8.405
 1908POPC   C3A26021   1.145  22.055   7.929
 1908POPC   C4A26022   1.292  21.673   7.743
 1908POPC   C1B26023   1.410  22.458   8.665
 1908POPC   C2B26024   1.453  22.335   8.247
 1908POPC   C3B26025   1.502  22.448   7.821
 1908POPC   C4B26026   1.334  22.529   7.393
 1909POPC   NC326027  27.858  22.792   9.499
 1909POPC   PO426028  27.206  22.685   9.501
 1909POPC   GL126029  27.456  22.840   9.114
 1909POPC   GL226030  27.700  23.130   9.087
 1909POPC   C1A26031  27.428  23.011   8.682
 1909POPC   D2A26032  27.614  23.364   8.452
 1909POPC   C3A26033  27.550  23.258   8.031
 1909POPC   C4A26034  27.322  22.919   7.840
 1909POPC   C1B26035  27.953  22.984   8.730
 1909POPC   C2B26036  28.022  22.602   8.433
 1909POPC   C3B26037  27.863  22.517   8.006
 1909POPC   C4B26038  27.852  22.904   7.758
 1910POPC   NC326039  38.717  10.289   9.440
 1910POPC   PO426040  37.958  10.549   9.480
 1910POPC   GL126041  38.297  10.546   9.207
 1910POPC   GL226042  38.500  10.856   9.192
 1910POPC   C1A26043  38.439  10.505   8.795
 1910POPC   D2A26044  38.372  10.346   8.381
 1910POPC   C3A26045  38.711  10.260   8.168
 1910POPC   C4A26046  38.730  10.428   7.766
 1910POPC   C1B26047  38.746  10.938   8.803
 1910POPC   C2B26048  38.643  10.765   8.410
 1910POPC   C3B26049  38.438  10.737   8.033
 1910POPC   C4B26050  38.805  10.929   7.875
 1911POPC   NC326051  24.932  10.100   9.346
 1911POPC   PO426052  25.192   9.506   9.358
 1911POPC   GL126053  25.195   9.662   8.966
 1911POPC   GL226054  25.233  10.004   8.918
 1911POPC   C1A26055  25.115   9.606   8.567
 1911POPC   D2A26056  25.016   9.562   8.167
 1911POPC   C3A26057  25.257   9.386   7.821
 1911POPC   C4A26058  25.333   9.563   7.377
 1911POPC   C1B26059  25.487   9.943   8.532
 1911POPC   C2B26060  25.422   9.900   8.103
 1911POPC   C3B26061  25.616   9.759   7.743
 1911POPC   C4B26062  25.841  10.000   7.466
 1912POPC   NC326063   6.101  27.073   9.412
 1912POPC   PO426064   5.441  26.827   9.518
 1912POPC   GL126065   5.756  26.720   9.209
 1912POPC   GL226066   6.100  26.561   9.126
 1912POPC   C1A26067   5.718  26.844   8.807
 1912POPC   D2A26068   5.866  27.126   8.487
 1912POPC   C3A26069   5.714  26.961   8.103
 1912POPC   C4A26070   5.771  26.894   7.650
 1912POPC   C1B26071   6.193  26.795   8.748
 1912POPC   C2B26072   6.020  26.628   8.388
 1912POPC   C3B26073   6.146  26.718   7.990
 1912POPC   C4B26074   6.167  26.556   7.585
 1913POPC   NC326075  27.052  36.423   9.581
 1913POPC   PO426076  26.584  37.035   9.440
 1913POPC   GL126077  26.844  36.949   9.112
 1913POPC   GL226078  26.934  36.610   9.123
 1913POPC   C1A26079  26.837  36.917   8.686
 1913POPC   D2A26080  26.986  37.106   8.351
 1913POPC   C3A26081  26.901  36.983   7.920
 1913POPC   C4A26082  27.253  37.136   7.678
 1913POPC   C1B26083  27.106  36.506   8.743
 1913POPC   C2B26084  27.320  36.729   8.410
 1913POPC   C3B26085  27.309  36.689   7.973
 1913POPC   C4B26086  27.028  36.473   7.723
 1914POPC   NC326087  38.373  17.214   9.413
 1914POPC   PO426088  38.794  17.573   9.724
 1914POPC   GL126089  38.662  17.627   9.216
 1914POPC   GL226090  38.502  17.370   8.976
 1914POPC   C1A26091  38.592  17.810   8.792
 1914POPC   D2A26092  38.563  17.441   8.474
 1914POPC   C3A26093  38.598  17.511   8.039
 1914POPC   C4A26094  38.452  17.321   7.620
 1914POPC   C1B26095  38.145  17.614   8.741
 1914POPC   C2B26096  38.240  17.822   8.347
 1914POPC   C3B26097  38.183  17.743   7.890
 1914POPC   C4B26098  38.158  17.731   7.424
 1915POPC   NC326099  33.396  25.665   9.355
 1915POPC   PO426100  32.889  25.364   9.696
 1915POPC   GL126101  32.849  25.169   9.257
 1915POPC   GL226102  33.166  25.233   9.144
 1915POPC   C1A26103  32.772  25.183   8.826
 1915POPC   D2A26104  32.773  25.321   8.404
 1915POPC   C3A26105  32.867  25.121   8.032
 1915POPC   C4A26106  32.762  25.354   7.646
 1915POPC   C1B26107  33.317  25.097   8.763
 1915POPC   C2B26108  33.286  25.236   8.348
 1915POPC   C3B26109  33.365  25.051   7.951
 1915POPC   C4B26110  33.093  24.941   7.614
 1916POPC   NC326111  34.142  12.310   9.389
 1916POPC   PO426112  34.771  12.029   9.461
 1916POPC   GL126113  34.553  12.185   9.102
 1916POPC   GL226114  34.460  11.836   9.050
 1916POPC   C1A26115  34.443  12.169   8.660
 1916POPC   D2A26116  34.668  12.076   8.301
 1916POPC   C3A26117  34.587  12.247   7.912
 1916POPC   C4A26118  34.297  12.041   7.696
 1916POPC   C1B26119  34.866  11.912   8.798
 1916POPC   C2B26120  35.055  11.748   8.422
 1916POPC   C3B26121  35.035  11.868   8.006
 1916POPC   C4B26122  34.764  11.785   7.693
 1917POPC   NC326123   3.674  16.100   9.543
 1917POPC   PO426124   3.057  15.687   9.501
 1917POPC   GL126125   3.342  15.888   9.193
 1917POPC   GL226126   3.415  16.243   9.131
 1917POPC   C1A26127   3.622  15.878   8.807
 1917POPC   D2A26128   3.897  15.852   8.426
 1917POPC   C3A26129   3.596  15.849   8.062
 1917POPC   C4A26130   3.644  16.026   7.630
 1917POPC   C1B26131   3.370  16.330   8.740
 1917POPC   C2B26132   3.577  16.240   8.387
 1917POPC   C3B26133   3.553  16.364   7.997
 1917POPC   C4B26134   3.320  16.453   7.642
 1918POPC   NC326135  23.800  26.718   9.644
 1918POPC   PO426136  23.417  27.160   9.270
 1918POPC   GL126137  23.737  26.995   9.018
 1918POPC   GL226138  23.768  26.670   9.067
 1918POPC   C1A26139  23.675  26.923   8.608
 1918POPC   D2A26140  23.723  26.747   8.235
 1918POPC   C3A26141  23.460  26.809   7.884
 1918POPC   C4A26142  23.738  27.053   7.750
 1918POPC   C1B26143  23.981  26.487   8.716
 1918POPC   C2B26144  23.985  26.328   8.288
 1918POPC   C3B26145  23.961  26.530   7.856
 1918POPC   C4B26146  23.704  26.578   7.492
 1919POPC   NC326147   9.760  21.011   9.931
 1919POPC   PO426148   9.878  20.386   9.574
 1919POPC   GL126149   9.858  20.741   9.268
 1919POPC   GL226150   9.592  20.975   9.294
 1919POPC   C1A26151   9.971  20.757   8.833
 1919POPC   D2A26152   9.768  20.697   8.430
 1919POPC   C3A26153   9.951  20.585   8.020
 1919POPC   C4A26154   9.758  20.232   7.834
 1919POPC   C1B26155   9.586  21.070   8.829
 1919POPC   C2B26156   9.436  21.082   8.372
 1919POPC   C3B26157   9.654  20.987   7.949
 1919POPC   C4B26158   9.800  20.783   7.529
 1920POPC   NC326159  39.049  20.273   9.519
 1920POPC   PO426160  39.614  19.759   9.485
 1920POPC   GL126161  39.406  19.769   9.124
 1920POPC   GL226162  39.206  20.038   9.103
 1920POPC   C1A26163  39.536  19.948   8.737
 1920POPC   D2A26164  39.455  19.784   8.333
 1920POPC   C3A26165  39.479  20.015   7.957
 1920POPC   C4A26166  39.366  19.654   7.742
 1920POPC   C1B26167  39.027  19.916   8.676
 1920POPC   C2B26168  39.030  20.068   8.239
 1920POPC   C3B26169  38.985  19.986   7.785
 1920POPC   C4B26170  38.899  20.230   7.397
 1921POPC   NC326171   7.409  31.791   9.508
 1921POPC   PO426172   7.412  32.491   9.481
 1921POPC   GL126173   7.302  32.169   9.190
 1921POPC   GL226174   7.625  31.984   9.072
 1921POPC   C1A26175   7.210  32.135   8.789
 1921POPC   D2A26176   7.357  32.356   8.436
 1921POPC   C3A26177   7.291  32.189   8.069
 1921POPC   C4A26178   7.198  32.275   7.696
 1921POPC   C1B26179   7.639  32.402   8.877
 1921POPC   C2B26180   7.754  32.665   8.564
 1921POPC   C3B26181   7.716  32.668   8.133
 1921POPC   C4B26182   7.694  32.395   7.808
 1922POPC   NC326183  24.520  33.274   9.431
 1922POPC   PO426184  24.981  32.836   9.241
 1922POPC   GL126185  24.751  33.185   8.981
 1922POPC   GL226186  24.356  33.272   8.965
 1922POPC   C1A26187  24.599  33.174   8.532
 1922POPC   D2A26188  24.663  32.896   8.173
 1922POPC   C3A26189  24.635  33.142   7.767
 1922POPC   C4A26190  24.618  33.212   7.301
 1922POPC   C1B26191  24.165  32.898   8.752
 1922POPC   C2B26192  24.098  32.699   8.337
 1922POPC   C3B26193  24.214  32.903   7.960
 1922POPC   C4B26194  24.343  32.802   7.555
 1923POPC   NC326195  15.321  36.646   9.469
 1923POPC   PO426196  15.038  37.258   9.659
 1923POPC   GL126197  15.235  37.146   9.205
 1923POPC   GL226198  15.441  36.880   9.036
 1923POPC   C1A26199  15.207  37.147   8.699
 1923POPC   D2A26200  14.943  37.225   8.348
 1923POPC   C3A26201  15.157  37.149   7.972
 1923POPC   C4A26202  15.046  37.357   7.618
 1923POPC   C1B26203  15.331  36.630   8.680
 1923POPC   C2B26204  15.180  36.704   8.260
 1923POPC   C3B26205  15.469  36.753   7.924
 1923POPC   C4B26206  15.436  36.667   7.500
 1924POPC   NC326207  34.780  15.360   9.260
 1924POPC   PO426208  34.839  15.924   9.524
 1924POPC   GL126209  34.423  15.949   9.246
 1924POPC   GL226210  34.313  15.616   9.084
 1924POPC   C1A26211  34.365  16.129   8.809
 1924POPC   D2A26212  34.704  16.082   8.465
 1924POPC   C3A26213  34.621  16.072   8.015
 1924POPC   C4A26214  34.311  16.223   7.706
 1924POPC   C1B26215  34.438  15.648   8.652
 1924POPC   C2B26216  34.470  15.616   8.202
 1924POPC   C3B26217  34.399  15.689   7.773
 1924POPC   C4B26218  34.601  15.822   7.433
 1925POPC   NC326219  19.126  26.592   9.432
 1925POPC   PO426220  18.968  27.310   9.329
 1925POPC   GL126221  19.079  26.953   9.068
 1925POPC   GL226222  18.879  26.627   8.989
 1925POPC   C1A26223  19.233  26.777   8.683
 1925POPC   D2A26224  19.066  26.952   8.308
 1925POPC   C3A26225  19.074  26.782   7.892
 1925POPC   C4A26226  19.012  27.098   7.593
 1925POPC   C1B26227  18.685  26.937   8.727
 1925POPC   C2B26228  18.487  26.906   8.336
 1925POPC   C3B26229  18.617  26.968   7.927
 1925POPC   C4B26230  18.654  26.770   7.527
 1926POPC   NC326231  15.552  30.085   9.428
 1926POPC   PO426232  16.124  29.701   9.438
 1926POPC   GL126233  15.789  29.703   9.149
 1926POPC   GL226234  15.974  29.956   8.983
 1926POPC   C1A26235  15.783  29.533   8.706
 1926POPC   D2A26236  15.969  29.478   8.313
 1926POPC   C3A26237  16.077  29.883   8.116
 1926POPC   C4A26238  16.209  29.963   7.683
 1926POPC   C1B26239  15.611  30.011   8.777
 1926POPC   C2B26240  15.657  30.072   8.393
 1926POPC   C3B26241  15.529  30.167   8.039
 1926POPC   C4B26242  15.700  29.956   7.717
 1927POPC   NC326243  39.205  28.796   9.532
 1927POPC   PO426244  39.137  28.117   9.531
 1927POPC   GL126245  39.313  28.323   9.169
 1927POPC   GL226246  39.063  28.562   9.083
 1927POPC   C1A26247  39.282  28.244   8.721
 1927POPC   D2A26248  38.942  28.099   8.445
 1927POPC   C3A26249  39.073  28.089   8.011
 1927POPC   C4A26250  39.450  28.285   7.906
 1927POPC   C1B26251  38.957  28.751   8.661
 1927POPC   C2B26252  39.103  28.822   8.216
 1927POPC   C3B26253  39.153  28.678   7.762
 1927POPC   C4B26254  38.940  28.709   7.357
 1928POPC   NC326255  27.877  16.016   9.457
 1928POPC   PO426256  28.491  15.895   9.575
 1928POPC   GL126257  28.232  15.785   9.196
 1928POPC   GL226258  28.247  16.120   9.124
 1928POPC   C1A26259  28.023  15.765   8.795
 1928POPC   D2A26260  28.083  15.948   8.395
 1928POPC   C3A26261  28.212  15.683   8.081
 1928POPC   C4A26262  28.176  15.799   7.657
 1928POPC   C1B26263  28.394  16.154   8.738
 1928POPC   C2B26264  28.588  15.961   8.370
 1928POPC   C3B26265  28.447  16.116   7.995
 1928POPC   C4B26266  28.631  16.030   7.612
 1929POPC   NC326267   4.389   8.602   9.381
 1929POPC   PO426268   3.992   9.116   9.485
 1929POPC   GL126269   4.090   8.974   9.094
 1929POPC   GL226270   3.940   8.658   9.083
 1929POPC   C1A26271   4.183   8.992   8.662
 1929POPC   D2A26272   3.938   8.962   8.286
 1929POPC   C3A26273   4.196   9.118   7.957
 1929POPC   C4A26274   4.546   9.000   7.701
 1929POPC   C1B26275   3.970   8.519   8.647
 1929POPC   C2B26276   3.862   8.450   8.214
 1929POPC   C3B26277   4.068   8.624   7.836
 1929POPC   C4B26278   4.065   8.882   7.476
 1930POPC   NC326279  14.152   4.908   9.486
 1930POPC   PO426280  14.297   4.363   9.788
 1930POPC   GL126281  14.352   4.241   9.352
 1930POPC   GL226282  14.418   4.506   9.103
 1930POPC   C1A26283  14.143   4.053   8.992
 1930POPC   D2A26284  14.308   4.096   8.570
 1930POPC   C3A26285  14.260   4.367   8.212
 1930POPC   C4A26286  14.226   4.245   7.792
 1930POPC   C1B26287  14.685   4.449   8.711
 1930POPC   C2B26288  14.757   4.219   8.309
 1930POPC   C3B26289  14.746   4.215   7.869
 1930POPC   C4B26290  14.853   4.465   7.482
 1931POPC   NC326291  21.253  41.371   9.892
 1931POPC   PO426292  21.722  41.696   9.605
 1931POPC   GL126293  21.505  41.526   9.238
 1931POPC   GL226294  21.310  41.187   9.227
 1931POPC   C1A26295  21.439  41.651   8.804
 1931POPC   D2A26296  21.160  41.786   8.504
 1931POPC   C3A26297  21.259  41.638   8.087
 1931POPC   C4A26298  21.215  41.751   7.625
 1931POPC   C1B26299  21.586  41.162   8.883
 1931POPC   C2B26300  21.443  41.260   8.479
 1931POPC   C3B26301  21.508  41.157   8.096
 1931POPC   C4B26302  21.413  41.293   7.714
 1932POPC   NC326303  37.071  37.396   9.630
 1932POPC   PO426304  36.667  37.891   9.452
 1932POPC   GL126305  36.774  37.521   9.236
 1932POPC   GL226306  37.089  37.636   9.191
 1932POPC   C1A26307  36.785  37.540   8.808
 1932POPC   D2A26308  36.798  37.821   8.455
 1932POPC   C3A26309  36.826  37.547   8.119
 1932POPC   C4A26310  37.147  37.461   7.778
 1932POPC   C1B26311  37.185  37.870   8.813
 1932POPC   C2B26312  37.318  37.756   8.394
 1932POPC   C3B26313  37.135  37.957   8.041
 1932POPC   C4B26314  37.052  38.077   7.629
 1933POPC   NC326315  18.495   3.045   9.319
 1933POPC   PO426316  17.954   2.600   9.427
 1933POPC   GL126317  18.205   2.714   9.062
 1933POPC   GL226318  18.527   2.614   8.990
 1933POPC   C1A26319  18.073   2.953   8.707
 1933POPC   D2A26320  18.073   3.173   8.329
 1933POPC   C3A26321  18.405   2.996   8.090
 1933POPC   C4A26322  18.425   3.043   7.668
 1933POPC   C1B26323  18.511   2.697   8.558
 1933POPC   C2B26324  18.601   2.435   8.218
 1933POPC   C3B26325  18.374   2.287   7.934
 1933POPC   C4B26326  18.374   2.550   7.570
 1934POPC   NC326327  10.954  24.251   9.441
 1934POPC   PO426328  11.159  23.596   9.524
 1934POPC   GL126329  11.347  23.551   9.115
 1934POPC   GL226330  11.667  23.713   9.080
 1934POPC   C1A26331  11.232  23.475   8.681
 1934POPC   D2A26332  11.196  23.409   8.241
 1934POPC   C3A26333  11.006  23.748   8.041
 1934POPC   C4A26334  10.869  23.634   7.632
 1934POPC   C1B26335  11.431  23.996   8.808
 1934POPC   C2B26336  11.382  23.947   8.374
 1934POPC   C3B26337  11.541  23.730   8.038
 1934POPC   C4B26338  11.364  23.765   7.680
 1935POPC   NC326339  20.158   8.628   9.254
 1935POPC   PO426340  19.744   8.237   9.672
 1935POPC   GL126341  19.888   8.168   9.259
 1935POPC   GL226342  20.140   7.905   9.264
 1935POPC   C1A26343  19.670   8.028   8.885
 1935POPC   D2A26344  19.548   7.858   8.476
 1935POPC   C3A26345  19.652   8.107   8.129
 1935POPC   C4A26346  19.845   8.042   7.754
 1935POPC   C1B26347  20.198   8.048   8.836
 1935POPC   C2B26348  20.089   8.202   8.425
 1935POPC   C3B26349  20.198   8.303   7.999
 1935POPC   C4B26350  20.353   7.935   7.756
 1936POPC   NC326351  30.133  28.554   9.579
 1936POPC   PO426352  29.806  28.045   9.793
 1936POPC   GL126353  29.709  28.368   9.398
 1936POPC   GL226354  29.471  28.317   9.188
 1936POPC   C1A26355  29.842  28.461   8.904
 1936POPC   D2A26356  29.928  28.215   8.507
 1936POPC   C3A26357  29.926  28.473   8.149
 1936POPC   C4A26358  29.934  28.335   7.715
 1936POPC   C1B26359  29.405  28.113   8.775
 1936POPC   C2B26360  29.427  28.247   8.395
 1936POPC   C3B26361  29.335  28.054   8.050
 1936POPC   C4B26362  29.527  28.003   7.693
 1937POPC   NC326363  31.500  28.850   9.492
 1937POPC   PO426364  31.536  28.197   9.481
 1937POPC   GL126365  31.524  28.095   9.073
 1937POPC   GL226366  31.192  27.970   9.093
 1937POPC   C1A26367  31.634  28.210   8.655
 1937POPC   D2A26368  31.487  28.650   8.469
 1937POPC   C3A26369  31.305  28.658   8.048
 1937POPC   C4A26370  31.508  28.647   7.676
 1937POPC   C1B26371  31.168  28.340   8.784
 1937POPC   C2B26372  31.227  28.228   8.332
 1937POPC   C3B26373  31.338  28.016   7.956
 1937POPC   C4B26374  31.472  28.099   7.532
 1938POPC   NC326375  28.876  27.288   9.484
 1938POPC   PO426376  29.571  27.386   9.546
 1938POPC   GL126377  29.307  27.327   9.180
 1938POPC   GL226378  29.156  27.588   9.140
 1938POPC   C1A26379  29.360  27.355   8.712
 1938POPC   D2A26380  29.527  27.249   8.279
 1938POPC   C3A26381  29.444  27.544   7.929
 1938POPC   C4A26382  29.277  27.357   7.483
 1938POPC   C1B26383  28.978  27.696   8.788
 1938POPC   C2B26384  29.151  27.753   8.429
 1938POPC   C3B26385  28.971  27.697   8.076
 1938POPC   C4B26386  29.048  27.763   7.690
 1939POPC   NC326387  43.276  10.807   9.547
 1939POPC   PO426388  43.329  10.050   9.465
 1939POPC   GL126389  43.062  10.358   9.280
 1939POPC   GL226390  43.336  10.527   9.132
 1939POPC   C1A26391  42.925  10.353   8.842
 1939POPC   D2A26392  43.158  10.293   8.434
 1939POPC   C3A26393  42.957  10.446   8.055
 1939POPC   C4A26394  43.074  10.559   7.631
 1939POPC   C1B26395  43.256  10.732   8.742
 1939POPC   C2B26396  43.446  10.797   8.383
 1939POPC   C3B26397  43.451  10.611   8.010
 1939POPC   C4B26398  43.571  10.742   7.641
 1940POPC   NC326399  12.141   5.954   9.504
 1940POPC   PO426400  12.681   6.218   9.332
 1940POPC   GL126401  12.352   5.953   9.026
 1940POPC   GL226402  12.069   5.732   9.070
 1940POPC   C1A26403  12.048   5.874   8.607
 1940POPC   D2A26404  11.668   5.966   8.333
 1940POPC   C3A26405  11.859   6.004   7.918
 1940POPC   C4A26406  12.275   6.103   7.811
 1940POPC   C1B26407  11.763   5.517   8.822
 1940POPC   C2B26408  11.815   5.420   8.380
 1940POPC   C3B26409  11.747   5.500   7.927
 1940POPC   C4B26410  11.953   5.590   7.511
 1941POPC   NC326411  13.300  17.527   9.487
 1941POPC   PO426412  13.904  17.664   9.653
 1941POPC   GL126413  13.674  17.419   9.184
 1941POPC   GL226414  13.734  17.620   8.892
 1941POPC   C1A26415  13.345  17.315   8.800
 1941POPC   D2A26416  13.344  17.232   8.297
 1941POPC   C3A26417  13.526  17.523   7.912
 1941POPC   C4A26418  13.467  17.736   7.497
 1941POPC   C1B26419  13.829  17.247   8.679
 1941POPC   C2B26420  13.833  17.389   8.283
 1941POPC   C3B26421  14.041  17.318   7.920
 1941POPC   C4B26422  13.777  17.281   7.532
 1942POPC   NC326423  21.021  41.542   9.420
 1942POPC   PO426424  20.309  41.512   9.391
 1942POPC   GL126425  20.620  41.502   9.059
 1942POPC   GL226426  20.896  41.780   8.985
 1942POPC   C1A26427  20.599  41.594   8.628
 1942POPC   D2A26428  20.722  41.806   8.241
 1942POPC   C3A26429  20.513  41.627   7.922
 1942POPC   C4A26430  20.498  41.336   7.583
 1942POPC   C1B26431  21.029  41.369   8.772
 1942POPC   C2B26432  20.904  41.330   8.308
 1942POPC   C3B26433  20.926  41.329   7.848
 1942POPC   C4B26434  20.970  41.321   7.375
 1943POPC   NC326435  42.723  21.679   9.553
 1943POPC   PO426436  42.784  22.390   9.657
 1943POPC   GL126437  42.843  22.333   9.202
 1943POPC   GL226438  43.007  21.992   9.151
 1943POPC   C1A26439  42.965  22.386   8.749
 1943POPC   D2A26440  42.816  22.124   8.396
 1943POPC   C3A26441  42.969  22.067   7.970
 1943POPC   C4A26442  43.227  22.409   7.942
 1943POPC   C1B26443  43.321  21.987   8.789
 1943POPC   C2B26444  43.348  22.042   8.324
 1943POPC   C3B26445  43.482  21.968   7.896
 1943POPC   C4B26446  43.323  21.683   7.626
 1944POPC   NC326447   4.513  26.633   9.534
 1944POPC   PO426448   4.066  27.139   9.484
 1944POPC   GL126449   4.355  27.016   9.116
 1944POPC   GL226450   4.358  26.662   9.065
 1944POPC   C1A26451   4.319  26.871   8.636
 1944POPC   D2A26452   4.540  27.007   8.324
 1944POPC   C3A26453   4.297  26.934   7.998
 1944POPC   C4A26454   4.418  26.931   7.601
 1944POPC   C1B26455   4.396  26.329   8.709
 1944POPC   C2B26456   4.453  26.476   8.269
 1944POPC   C3B26457   4.458  26.467   7.807
 1944POPC   C4B26458   4.469  26.477   7.379
 1945POPC   NC326459  12.308   8.824   9.301
 1945POPC   PO426460  11.654   8.652   9.462
 1945POPC   GL126461  11.776   8.805   9.038
 1945POPC   GL226462  12.060   9.020   8.925
 1945POPC   C1A26463  11.809   8.798   8.554
 1945POPC   D2A26464  12.198   8.827   8.329
 1945POPC   C3A26465  12.141   8.854   7.888
 1945POPC   C4A26466  11.825   8.907   7.561
 1945POPC   C1B26467  11.968   9.375   8.687
 1945POPC   C2B26468  12.085   9.523   8.303
 1945POPC   C3B26469  12.358   9.327   8.001
 1945POPC   C4B26470  12.238   9.241   7.574
 1946POPC   NC326471   7.211  35.956   9.584
 1946POPC   PO426472   7.468  36.611   9.445
 1946POPC   GL126473   7.442  36.316   9.122
 1946POPC   GL226474   7.166  36.121   9.121
 1946POPC   C1A26475   7.621  36.157   8.727
 1946POPC   D2A26476   7.648  35.926   8.333
 1946POPC   C3A26477   7.497  36.146   7.989
 1946POPC   C4A26478   7.594  36.364   7.606
 1946POPC   C1B26479   7.096  36.181   8.726
 1946POPC   C2B26480   7.118  36.012   8.351
 1946POPC   C3B26481   6.988  36.297   8.069
 1946POPC   C4B26482   7.106  36.232   7.654
 1947POPC   NC326483   0.512  30.371   9.465
 1947POPC   PO426484   0.317  29.668   9.457
 1947POPC   GL126485   0.539  29.779   9.086
 1947POPC   GL226486   0.683  30.137   9.037
 1947POPC   C1A26487   0.424  29.665   8.677
 1947POPC   D2A26488   0.611  29.630   8.275
 1947POPC   C3A26489   0.329  29.681   7.919
 1947POPC   C4A26490   0.615  29.678   7.613
 1947POPC   C1B26491   0.305  30.170   8.755
 1947POPC   C2B26492   0.234  30.023   8.309
 1947POPC   C3B26493   0.608  30.089   7.997
 1947POPC   C4B26494   0.884  30.410   7.880
 1948POPC   NC326495  10.855   3.821   9.596
 1948POPC   PO426496  11.380   4.309   9.653
 1948POPC   GL126497  11.337   4.289   9.216
 1948POPC   GL226498  11.675   4.422   9.224
 1948POPC   C1A26499  11.010   4.179   8.916
 1948POPC   D2A26500  10.894   4.242   8.493
 1948POPC   C3A26501  11.055   4.018   8.158
 1948POPC   C4A26502  11.043   4.290   7.818
 1948POPC   C1B26503  11.613   4.441   8.782
 1948POPC   C2B26504  11.431   4.292   8.403
 1948POPC   C3B26505  11.522   4.409   7.980
 1948POPC   C4B26506  11.860   4.280   7.681
 1949POPC   NC326507  21.703  18.054   9.571
 1949POPC   PO426508  21.059  18.325   9.568
 1949POPC   GL126509  21.033  18.180   9.154
 1949POPC   GL226510  21.412  18.149   9.143
 1949POPC   C1A26511  21.131  17.951   8.782
 1949POPC   D2A26512  21.414  18.008   8.457
 1949POPC   C3A26513  21.180  18.046   8.102
 1949POPC   C4A26514  20.982  18.386   7.896
 1949POPC   C1B26515  21.754  18.212   8.793
 1949POPC   C2B26516  21.746  18.369   8.336
 1949POPC   C3B26517  21.897  18.626   7.980
 1949POPC   C4B26518  21.754  18.707   7.546
 1950POPC   NC326519  15.122  19.160   9.757
 1950POPC   PO426520  15.069  18.674   9.360
 1950POPC   GL126521  14.976  19.017   9.106
 1950POPC   GL226522  15.108  19.295   9.095
 1950POPC   C1A26523  14.905  19.181   8.653
 1950POPC   D2A26524  14.990  18.834   8.405
 1950POPC   C3A26525  15.113  18.810   7.984
 1950POPC   C4A26526  15.032  19.009   7.587
 1950POPC   C1B26527  15.391  19.099   8.723
 1950POPC   C2B26528  15.325  19.199   8.290
 1950POPC   C3B26529  15.474  19.158   7.876
 1950POPC   C4B26530  15.508  19.070   7.426
 1951POPC   NC326531  42.118   9.521   9.475
 1951POPC   PO426532  41.452   9.560   9.414
 1951POPC   GL126533  41.540   9.753   9.048
 1951POPC   GL226534  41.846   9.862   9.111
 1951POPC   C1A26535  41.451   9.691   8.616
 1951POPC   D2A26536  41.605   9.412   8.313
 1951POPC   C3A26537  41.624   9.567   7.924
 1951POPC   C4A26538  41.252   9.573   7.681
 1951POPC   C1B26539  41.970   9.830   8.696
 1951POPC   C2B26540  41.801   9.892   8.304
 1951POPC   C3B26541  41.789  10.080   7.926
 1951POPC   C4B26542  41.556   9.980   7.601
 1952POPC   NC326543  26.967   5.119   9.444
 1952POPC   PO426544  26.428   4.727   9.434
 1952POPC   GL126545  26.730   4.827   9.074
 1952POPC   GL226546  26.993   5.095   8.941
 1952POPC   C1A26547  26.591   4.977   8.662
 1952POPC   D2A26548  26.836   5.082   8.339
 1952POPC   C3A26549  26.921   4.810   8.006
 1952POPC   C4A26550  26.752   4.859   7.594
 1952POPC   C1B26551  27.218   5.339   8.626
 1952POPC   C2B26552  27.237   5.344   8.172
 1952POPC   C3B26553  26.915   5.331   7.877
 1952POPC   C4B26554  26.915   5.307   7.419
 1953POPC   NC326555  37.970  18.742   9.270
 1953POPC   PO426556  37.473  19.067   9.590
 1953POPC   GL126557  37.546  19.101   9.152
 1953POPC   GL226558  37.897  19.202   9.051
 1953POPC   C1A26559  37.539  18.977   8.728
 1953POPC   D2A26560  37.365  19.081   8.360
 1953POPC   C3A26561  37.397  18.965   7.992
 1953POPC   C4A26562  37.395  18.868   7.608
 1953POPC   C1B26563  38.018  19.073   8.639
 1953POPC   C2B26564  37.736  19.383   8.481
 1953POPC   C3B26565  37.692  19.407   8.044
 1953POPC   C4B26566  37.859  19.030   7.798
 1954POPC   NC326567   9.074  15.299   9.301
 1954POPC   PO426568   8.853  14.743   9.498
 1954POPC   GL126569   8.828  14.955   9.035
 1954POPC   GL226570   8.554  15.194   8.937
 1954POPC   C1A26571   9.002  15.241   8.664
 1954POPC   D2A26572   8.860  15.433   8.255
 1954POPC   C3A26573   9.161  15.328   7.945
 1954POPC   C4A26574   9.449  15.450   7.657
 1954POPC   C1B26575   8.527  15.141   8.532
 1954POPC   C2B26576   8.819  14.903   8.284
 1954POPC   C3B26577   8.810  14.948   7.872
 1954POPC   C4B26578   8.689  15.324   7.731
 1955POPC   NC326579  37.134   0.878   9.423
 1955POPC   PO426580  37.028   1.590   9.424
 1955POPC   GL126581  36.874   1.327   9.129
 1955POPC   GL226582  36.644   1.114   9.293
 1955POPC   C1A26583  37.033   1.232   8.715
 1955POPC   D2A26584  36.957   1.396   8.308
 1955POPC   C3A26585  37.054   1.192   7.965
 1955POPC   C4A26586  37.032   1.413   7.611
 1955POPC   C1B26587  36.598   0.985   8.865
 1955POPC   C2B26588  36.647   0.960   8.419
 1955POPC   C3B26589  36.612   0.948   7.971
 1955POPC   C4B26590  36.871   0.931   7.569
 1956POPC   NC326591  20.431  11.925   9.485
 1956POPC   PO426592  20.781  12.452   9.377
 1956POPC   GL126593  20.602  12.205   9.085
 1956POPC   GL226594  20.815  11.876   9.151
 1956POPC   C1A26595  20.509  12.296   8.659
 1956POPC   D2A26596  20.280  12.209   8.301
 1956POPC   C3A26597  20.468  12.374   7.966
 1956POPC   C4A26598  20.684  12.300   7.585
 1956POPC   C1B26599  20.611  11.791   8.769
 1956POPC   C2B26600  20.689  11.906   8.340
 1956POPC   C3B26601  20.604  11.864   7.899
 1956POPC   C4B26602  20.881  11.842   7.515
 1957POPC   NC326603  24.632  36.305   9.451
 1957POPC   PO426604  24.271  35.812   9.686
 1957POPC   GL126605  24.379  35.727   9.222
 1957POPC   GL226606  24.691  35.907   9.110
 1957POPC   C1A26607  24.313  35.712   8.769
 1957POPC   D2A26608  24.550  35.853   8.407
 1957POPC   C3A26609  24.382  36.086   8.068
 1957POPC   C4A26610  24.511  35.936   7.689
 1957POPC   C1B26611  24.901  36.111   8.730
 1957POPC   C2B26612  24.834  36.260   8.312
 1957POPC   C3B26613  24.898  36.213   7.895
 1957POPC   C4B26614  24.748  36.338   7.482
 1958POPC   NC326615  25.396  15.515   9.649
 1958POPC   PO426616  25.425  16.160   9.488
 1958POPC   GL126617  25.464  15.887   9.185
 1958POPC   GL226618  25.160  15.987   9.049
 1958POPC   C1A26619  25.519  15.746   8.766
 1958POPC   D2A26620  25.260  15.916   8.446
 1958POPC   C3A26621  25.375  15.781   8.010
 1958POPC   C4A26622  25.147  15.722   7.605
 1958POPC   C1B26623  24.968  16.299   8.812
 1958POPC   C2B26624  24.939  16.332   8.395
 1958POPC   C3B26625  25.170  16.258   8.026
 1958POPC   C4B26626  24.952  16.188   7.655
 1959POPC   NC326627  38.469  17.897   9.577
 1959POPC   PO426628  38.251  18.543   9.582
 1959POPC   GL126629  38.240  18.295   9.206
 1959POPC   GL226630  38.568  18.221   9.134
 1959POPC   C1A26631  38.245  18.202   8.754
 1959POPC   D2A26632  38.545  18.240   8.460
 1959POPC   C3A26633  38.348  18.233   8.054
 1959POPC   C4A26634  38.525  18.080   7.666
 1959POPC   C1B26635  38.822  18.511   8.908
 1959POPC   C2B26636  38.801  18.683   8.515
 1959POPC   C3B26637  38.696  18.607   8.112
 1959POPC   C4B26638  38.804  18.556   7.714
 1960POPC   NC326639  22.649   9.661   9.369
 1960POPC   PO426640  23.070  10.183   9.532
 1960POPC   GL126641  23.056   9.928   9.119
 1960POPC   GL226642  23.051   9.531   9.078
 1960POPC   C1A26643  23.232   9.961   8.713
 1960POPC   D2A26644  23.025   9.908   8.335
 1960POPC   C3A26645  23.199   9.980   7.990
 1960POPC   C4A26646  23.083   9.809   7.625
 1960POPC   C1B26647  22.790   9.684   8.733
 1960POPC   C2B26648  22.586   9.620   8.365
 1960POPC   C3B26649  22.755   9.370   8.055
 1960POPC   C4B26650  22.838   9.303   7.654
 1961POPC   NC326651   6.468   7.582   9.587
 1961POPC   PO426652   7.077   7.300   9.633
 1961POPC   GL126653   6.871   7.489   9.230
 1961POPC   GL226654   6.501   7.572   9.088
 1961POPC   C1A26655   6.884   7.566   8.782
 1961POPC   D2A26656   6.626   7.489   8.438
 1961POPC   C3A26657   6.749   7.530   8.047
 1961POPC   C4A26658   6.588   7.570   7.623
 1961POPC   C1B26659   6.269   7.333   8.788
 1961POPC   C2B26660   6.174   7.232   8.382
 1961POPC   C3B26661   6.294   7.279   7.966
 1961POPC   C4B26662   6.288   7.141   7.548
 1962POPC   NC326663   4.760  13.170   9.374
 1962POPC   PO426664   4.313  13.589   9.734
 1962POPC   GL126665   4.395  13.544   9.268
 1962POPC   GL226666   4.085  13.642   9.069
 1962POPC   C1A26667   4.480  13.410   8.823
 1962POPC   D2A26668   4.140  13.381   8.491
 1962POPC   C3A26669   4.236  13.461   8.045
 1962POPC   C4A26670   4.589  13.306   7.770
 1962POPC   C1B26671   4.216  13.837   8.708
 1962POPC   C2B26672   3.996  13.866   8.313
 1962POPC   C3B26673   4.136  13.998   7.930
 1962POPC   C4B26674   4.359  13.971   7.537
 1963POPC   NC326675  13.196  35.157   9.436
 1963POPC   PO426676  13.696  35.546   9.319
 1963POPC   GL126677  13.656  35.422   8.954
 1963POPC   GL226678  13.501  35.099   9.008
 1963POPC   C1A26679  13.402  35.354   8.596
 1963POPC   D2A26680  13.389  35.556   8.260
 1963POPC   C3A26681  13.682  35.404   7.985
 1963POPC   C4A26682  13.566  35.553   7.616
 1963POPC   C1B26683  13.850  35.056   8.672
 1963POPC   C2B26684  13.694  34.922   8.266
 1963POPC   C3B26685  13.700  34.905   7.843
 1963POPC   C4B26686  13.977  35.111   7.637
 1964POPC   NC326687   5.649  35.848   9.456
 1964POPC   PO426688   5.849  36.452   9.559
 1964POPC   GL126689   5.742  36.291   9.175
 1964POPC   GL226690   5.832  35.977   9.013
 1964POPC   C1A26691   5.507  36.364   8.828
 1964POPC   D2A26692   5.584  36.474   8.424
 1964POPC   C3A26693   5.719  36.258   8.093
 1964POPC   C4A26694   5.674  36.293   7.641
 1964POPC   C1B26695   5.663  35.938   8.594
 1964POPC   C2B26696   5.599  35.745   8.226
 1964POPC   C3B26697   5.733  35.817   7.849
 1964POPC   C4B26698   6.099  36.067   7.704
 1965POPC   NC326699   0.133  28.572   9.478
 1965POPC   PO426700   0.575  28.023   9.547
 1965POPC   GL126701   0.430  28.135   9.204
 1965POPC   GL226702   0.515  28.463   9.120
 1965POPC   C1A26703   0.205  28.182   8.853
 1965POPC   D2A26704   0.385  28.086   8.475
 1965POPC   C3A26705   0.312  28.324   8.118
 1965POPC   C4A26706   0.452  28.299   7.722
 1965POPC   C1B26707   0.529  28.635   8.740
 1965POPC   C2B26708   0.589  28.749   8.325
 1965POPC   C3B26709   0.671  28.740   7.901
 1965POPC   C4B26710   0.689  28.689   7.454
 1966POPC   NC326711  22.663  23.126   9.263
 1966POPC   PO426712  22.342  22.583   9.586
 1966POPC   GL126713  22.252  22.782   9.173
 1966POPC   GL226714  22.492  22.797   8.907
 1966POPC   C1A26715  22.025  22.950   8.805
 1966POPC   D2A26716  22.235  22.846   8.388
 1966POPC   C3A26717  22.048  22.937   8.000
 1966POPC   C4A26718  21.701  22.865   7.732
 1966POPC   C1B26719  22.475  23.204   8.658
 1966POPC   C2B26720  22.336  23.355   8.251
 1966POPC   C3B26721  22.479  23.191   7.850
 1966POPC   C4B26722  22.549  22.909   7.477
 1967POPC   NC326723  19.811  32.828   9.293
 1967POPC   PO426724  19.945  33.448   9.420
 1967POPC   GL126725  19.849  33.317   9.031
 1967POPC   GL226726  19.496  33.286   9.143
 1967POPC   C1A26727  19.995  33.069   8.668
 1967POPC   D2A26728  20.123  32.897   8.277
 1967POPC   C3A26729  19.912  33.085   7.954
 1967POPC   C4A26730  19.957  33.474   7.781
 1967POPC   C1B26731  19.494  33.049   8.743
 1967POPC   C2B26732  19.592  32.936   8.342
 1967POPC   C3B26733  19.378  33.206   8.074
 1967POPC   C4B26734  19.511  33.295   7.700
 1968POPC   NC326735  41.428  41.223   9.465
 1968POPC   PO426736  41.193  41.774   9.429
 1968POPC   GL126737  41.528  41.592   9.119
 1968POPC   GL226738  41.757  41.270   9.105
 1968POPC   C1A26739  41.686  41.608   8.697
 1968POPC   D2A26740  41.819  41.773   8.301
 1968POPC   C3A26741  41.616  41.732   7.888
 1968POPC   C4A26742  41.500  41.703   7.422
 1968POPC   C1B26743  41.844  41.094   8.752
 1968POPC   C2B26744  41.914  41.265   8.368
 1968POPC   C3B26745  41.788  41.252   7.976
 1968POPC   C4B26746  41.675  41.261   7.573
 1969POPC   NC326747  11.653  22.581   9.485
 1969POPC   PO426748  11.051  22.250   9.557
 1969POPC   GL126749  11.307  22.141   9.155
 1969POPC   GL226750  11.428  22.424   9.078
 1969POPC   C1A26751  11.302  22.037   8.706
 1969POPC   D2A26752  11.535  21.918   8.328
 1969POPC   C3A26753  11.292  21.904   7.932
 1969POPC   C4A26754  10.955  22.089   7.652
 1969POPC   C1B26755  11.703  22.387   8.758
 1969POPC   C2B26756  11.525  22.421   8.375
 1969POPC   C3B26757  11.572  22.347   7.958
 1969POPC   C4B26758  11.388  22.569   7.610
 1970POPC   NC326759  39.710  33.293   9.472
 1970POPC   PO426760  39.662  32.550   9.506
 1970POPC   GL126761  39.911  32.657   9.138
 1970POPC   GL226762  40.158  32.963   9.168
 1970POPC   C1A26763  39.921  32.868   8.737
 1970POPC   D2A26764  40.003  33.108   8.401
 1970POPC   C3A26765  39.837  32.994   7.999
 1970POPC   C4A26766  40.005  32.662   7.768
 1970POPC   C1B26767  40.152  33.363   8.876
 1970POPC   C2B26768  40.247  33.569   8.466
 1970POPC   C3B26769  40.212  33.387   8.035
 1970POPC   C4B26770  40.199  33.151   7.670
 1971POPC   NC326771  10.169  13.534   9.500
 1971POPC   PO426772   9.532  13.507   9.516
 1971POPC   GL126773   9.786  13.591   9.146
 1971POPC   GL226774  10.002  13.286   9.076
 1971POPC   C1A26775   9.632  13.831   8.781
 1971POPC   D2A26776   9.325  13.782   8.426
 1971POPC   C3A26777   9.578  13.733   8.039
 1971POPC   C4A26778   9.737  13.439   7.733
 1971POPC   C1B26779   9.852  13.391   8.666
 1971POPC   C2B26780   9.856  13.360   8.248
 1971POPC   C3B26781  10.189  13.341   7.988
 1971POPC   C4B26782  10.141  13.126   7.628
 1972POPC   NC326783  20.764  38.448   9.646
 1972POPC   PO426784  20.324  38.002   9.454
 1972POPC   GL126785  20.598  38.234   9.139
 1972POPC   GL226786  20.842  38.534   9.146
 1972POPC   C1A26787  20.523  38.420   8.707
 1972POPC   D2A26788  20.317  38.635   8.325
 1972POPC   C3A26789  20.322  38.500   7.885
 1972POPC   C4A26790  20.480  38.124   7.650
 1972POPC   C1B26791  21.055  38.765   8.814
 1972POPC   C2B26792  21.107  38.654   8.371
 1972POPC   C3B26793  20.798  38.578   8.056
 1972POPC   C4B26794  20.745  38.532   7.597
 1973POPC   NC326795  39.786  27.522   9.453
 1973POPC   PO426796  40.430  27.505   9.371
 1973POPC   GL126797  40.099  27.454   9.060
 1973POPC   GL226798  39.831  27.176   9.084
 1973POPC   C1A26799  39.974  27.498   8.632
 1973POPC   D2A26800  39.937  27.575   8.205
 1973POPC   C3A26801  40.282  27.551   7.969
 1973POPC   C4A26802  40.449  27.756   7.655
 1973POPC   C1B26803  39.545  27.247   8.785
 1973POPC   C2B26804  39.493  27.393   8.364
 1973POPC   C3B26805  39.652  27.228   7.975
 1973POPC   C4B26806  39.882  27.469   7.661
 1974POPC   NC326807  16.904  31.553   9.544
 1974POPC   PO426808  16.423  31.016   9.391
 1974POPC   GL126809  16.664  31.312   9.140
 1974POPC   GL226810  16.590  31.666   9.144
 1974POPC   C1A26811  16.857  31.443   8.758
 1974POPC   D2A26812  17.100  31.361   8.418
 1974POPC   C3A26813  16.978  31.560   8.072
 1974POPC   C4A26814  17.009  31.342   7.695
 1974POPC   C1B26815  16.491  31.823   8.760
 1974POPC   C2B26816  16.594  31.780   8.357
 1974POPC   C3B26817  16.394  31.793   7.995
 1974POPC   C4B26818  16.662  31.708   7.701
 1975POPC   NC326819  25.886  25.890   9.549
 1975POPC   PO426820  26.500  25.687   9.529
 1975POPC   GL126821  26.370  26.056   9.205
 1975POPC   GL226822  26.052  26.057   9.100
 1975POPC   C1A26823  26.215  26.355   8.773
 1975POPC   D2A26824  26.013  26.097   8.480
 1975POPC   C3A26825  26.103  26.208   8.081
 1975POPC   C4A26826  25.972  26.057   7.698
 1975POPC   C1B26827  26.288  25.779   8.771
 1975POPC   C2B26828  26.316  25.741   8.301
 1975POPC   C3B26829  26.453  25.842   7.876
 1975POPC   C4B26830  26.381  25.862   7.392
 1976POPC   NC326831   1.897  27.269   9.453
 1976POPC   PO426832   2.158  27.905   9.495
 1976POPC   GL126833   2.025  27.701   9.150
 1976POPC   GL226834   1.699  27.691   9.123
 1976POPC   C1A26835   2.214  27.586   8.750
 1976POPC   D2A26836   2.389  27.424   8.362
 1976POPC   C3A26837   2.210  27.595   7.991
 1976POPC   C4A26838   2.024  27.473   7.638
 1976POPC   C1B26839   1.729  27.771   8.731
 1976POPC   C2B26840   1.888  27.672   8.367
 1976POPC   C3B26841   1.675  27.575   8.016
 1976POPC   C4B26842   1.622  27.796   7.640
 1977POPC   NC326843  33.626  19.172   9.493
 1977POPC   PO426844  34.077  18.721   9.670
 1977POPC   GL126845  33.983  18.883   9.237
 1977POPC   GL226846  34.280  19.073   9.136
 1977POPC   C1A26847  33.882  19.092   8.812
 1977POPC   D2A26848  33.934  19.016   8.360
 1977POPC   C3A26849  33.579  19.103   8.085
 1977POPC   C4A26850  33.497  18.956   7.672
 1977POPC   C1B26851  34.284  19.422   8.811
 1977POPC   C2B26852  34.062  19.625   8.476
 1977POPC   C3B26853  34.100  19.432   8.065
 1977POPC   C4B26854  33.831  19.374   7.725
 1978POPC   NC326855  13.116  31.192   9.517
 1978POPC   PO426856  12.458  31.094   9.418
 1978POPC   GL126857  12.729  31.379   9.105
 1978POPC   GL226858  13.086  31.367   9.058
 1978POPC   C1A26859  12.842  31.651   8.724
 1978POPC   D2A26860  12.649  31.646   8.306
 1978POPC   C3A26861  12.866  31.731   7.930
 1978POPC   C4A26862  12.846  31.745   7.461
 1978POPC   C1B26863  13.070  31.095   8.743
 1978POPC   C2B26864  12.845  31.019   8.403
 1978POPC   C3B26865  12.940  31.045   8.018
 1978POPC   C4B26866  12.935  31.297   7.682
 1979POPC   NC326867   1.251  19.514   9.541
 1979POPC   PO426868   1.098  20.160   9.563
 1979POPC   GL126869   1.049  19.869   9.233
 1979POPC   GL226870   1.316  19.663   9.065
 1979POPC   C1A26871   0.937  19.943   8.829
 1979POPC   D2A26872   1.145  20.082   8.498
 1979POPC   C3A26873   1.125  19.814   8.160
 1979POPC   C4A26874   1.049  19.832   7.705
 1979POPC   C1B26875   1.314  19.608   8.629
 1979POPC   C2B26876   1.612  19.712   8.325
 1979POPC   C3B26877   1.605  19.570   7.925
 1979POPC   C4B26878   1.471  19.629   7.512
 1980POPC   NC326879  40.825  38.011   9.355
 1980POPC   PO426880  40.534  38.665   9.490
 1980POPC   GL126881  40.654  38.476   9.142
 1980POPC   GL226882  40.995  38.454   9.117
 1980POPC   C1A26883  40.619  38.388   8.725
 1980POPC   D2A26884  40.883  38.363   8.407
 1980POPC   C3A26885  40.636  38.458   8.037
 1980POPC   C4A26886  40.712  38.431   7.597
 1980POPC   C1B26887  41.011  38.743   8.768
 1980POPC   C2B26888  41.119  38.808   8.313
 1980POPC   C3B26889  40.913  38.844   7.867
 1980POPC   C4B26890  41.143  38.696   7.468
 1981POPC   NC326891  40.464  27.961   9.376
 1981POPC   PO426892  40.599  28.640   9.443
 1981POPC   GL126893  40.730  28.452   9.077
 1981POPC   GL226894  40.954  28.185   9.089
 1981POPC   C1A26895  40.884  28.526   8.689
 1981POPC   D2A26896  40.779  28.344   8.323
 1981POPC   C3A26897  41.024  28.561   8.098
 1981POPC   C4A26898  40.926  28.616   7.709
 1981POPC   C1B26899  40.859  28.000   8.690
 1981POPC   C2B26900  41.132  27.893   8.349
 1981POPC   C3B26901  41.169  27.989   7.953
 1981POPC   C4B26902  40.845  28.117   7.702
 1982POPC   NC326903  40.741  37.427   9.464
 1982POPC   PO426904  40.405  37.972   9.173
 1982POPC   GL126905  40.685  37.660   9.018
 1982POPC   GL226906  40.555  37.500   8.776
 1982POPC   C1A26907  41.055  37.735   8.775
 1982POPC   D2A26908  41.217  37.944   8.414
 1982POPC   C3A26909  41.198  37.718   8.041
 1982POPC   C4A26910  40.916  37.706   7.732
 1982POPC   C1B26911  40.616  37.900   8.556
 1982POPC   C2B26912  40.742  37.951   8.154
 1982POPC   C3B26913  40.516  37.986   7.814
 1982POPC   C4B26914  40.218  37.879   7.507
 1983POPC   NC326915  15.742   1.353   9.522
 1983POPC   PO426916  16.002   0.763   9.436
 1983POPC   GL126917  16.037   1.132   9.169
 1983POPC   GL226918  16.346   1.289   9.039
 1983POPC   C1A26919  15.866   1.311   8.820
 1983POPC   D2A26920  15.927   1.113   8.459
 1983POPC   C3A26921  16.067   1.351   8.131
 1983POPC   C4A26922  15.911   1.360   7.712
 1983POPC   C1B26923  16.316   1.436   8.599
 1983POPC   C2B26924  16.452   1.707   8.267
 1983POPC   C3B26925  16.363   1.617   7.791
 1983POPC   C4B26926  16.296   1.691   7.313
 1984POPC   NC326927  19.861  16.545   9.589
 1984POPC   PO426928  20.055  17.139   9.495
 1984POPC   GL126929  19.973  16.844   9.147
 1984POPC   GL226930  19.693  16.582   9.125
 1984POPC   C1A26931  20.024  16.606   8.753
 1984POPC   D2A26932  19.758  16.580   8.398
 1984POPC   C3A26933  19.936  16.633   7.967
 1984POPC   C4A26934  19.649  16.517   7.636
 1984POPC   C1B26935  19.531  16.885   8.858
 1984POPC   C2B26936  19.410  16.964   8.447
 1984POPC   C3B26937  19.585  16.986   8.079
 1984POPC   C4B26938  19.566  17.239   7.743
 1985POPC   NC326939  33.369   4.402   9.593
 1985POPC   PO426940  32.926   3.858   9.486
 1985POPC   GL126941  32.832   4.266   9.256
 1985POPC   GL226942  33.149   4.412   9.089
 1985POPC   C1A26943  32.732   4.278   8.807
 1985POPC   D2A26944  33.016   4.317   8.427
 1985POPC   C3A26945  32.828   4.258   7.996
 1985POPC   C4A26946  32.908   4.054   7.568
 1985POPC   C1B26947  33.414   4.536   8.696
 1985POPC   C2B26948  33.400   4.741   8.314
 1985POPC   C3B26949  33.306   4.447   8.017
 1985POPC   C4B26950  33.134   4.485   7.616
 1986POPC   NC326951  12.478  31.606   9.503
 1986POPC   PO426952  11.763  31.429   9.554
 1986POPC   GL126953  12.036  31.585   9.236
 1986POPC   GL226954  12.217  31.364   9.056
 1986POPC   C1A26955  12.101  31.793   8.816
 1986POPC   D2A26956  12.322  32.001   8.468
 1986POPC   C3A26957  12.232  31.818   8.059
 1986POPC   C4A26958  12.333  31.765   7.617
 1986POPC   C1B26959  12.411  31.374   8.682
 1986POPC   C2B26960  12.372  31.195   8.296
 1986POPC   C3B26961  12.464  31.366   7.894
 1986POPC   C4B26962  12.510  31.343   7.413
 1987POPC   NC326963  28.374  24.272   9.432
 1987POPC   PO426964  27.943  24.802   9.476
 1987POPC   GL126965  28.279  24.723   9.172
 1987POPC   GL226966  28.279  24.405   8.966
 1987POPC   C1A26967  28.506  24.816   8.781
 1987POPC   D2A26968  28.533  24.531   8.433
 1987POPC   C3A26969  28.601  24.676   7.991
 1987POPC   C4A26970  28.251  24.735   7.734
 1987POPC   C1B26971  28.089  24.115   8.700
 1987POPC   C2B26972  28.293  24.088   8.313
 1987POPC   C3B26973  28.673  24.174   8.088
 1987POPC   C4B26974  28.467  24.223   7.737
 1988POPC   NC326975  11.322  32.680   9.466
 1988POPC   PO426976  11.382  33.357   9.532
 1988POPC   GL126977  11.487  33.150   9.195
 1988POPC   GL226978  11.165  33.049   9.152
 1988POPC   C1A26979  11.602  32.982   8.804
 1988POPC   D2A26980  11.542  33.117   8.409
 1988POPC   C3A26981  11.583  32.890   8.036
 1988POPC   C4A26982  11.560  33.038   7.638
 1988POPC   C1B26983  11.139  32.796   8.781
 1988POPC   C2B26984  11.138  32.820   8.332
 1988POPC   C3B26985  11.093  32.885   7.885
 1988POPC   C4B26986  11.174  32.804   7.415
 1989POPC   NC326987  17.526  30.966   9.962
 1989POPC   PO426988  17.184  30.516   9.629
 1989POPC   GL126989  17.298  30.739   9.230
 1989POPC   GL226990  17.096  31.056   9.266
 1989POPC   C1A26991  17.568  30.617   8.834
 1989POPC   D2A26992  17.575  30.359   8.432
 1989POPC   C3A26993  17.563  30.607   8.049
 1989POPC   C4A26994  17.627  30.551   7.640
 1989POPC   C1B26995  17.288  31.109   8.851
 1989POPC   C2B26996  17.360  30.898   8.438
 1989POPC   C3B26997  17.232  31.013   8.024
 1989POPC   C4B26998  17.208  30.870   7.571
 1990POPC   NC326999   4.582  13.980   9.512
 1990POPC   PO427000   4.752  14.738   9.519
 1990POPC   GL127001   4.591  14.569   9.119
 1990POPC   GL227002   4.231  14.432   9.052
 1990POPC   C1A27003   4.579  14.429   8.680
 1990POPC   D2A27004   4.426  14.173   8.341
 1990POPC   C3A27005   4.590  14.299   7.946
 1990POPC   C4A27006   4.589  14.421   7.506
 1990POPC   C1B27007   3.984  14.275   8.670
 1990POPC   C2B27008   3.926  14.393   8.270
 1990POPC   C3B27009   4.183  14.574   8.006
 1990POPC   C4B27010   4.116  14.400   7.609
 1991POPC   NC327011   2.713   2.149   9.555
 1991POPC   PO427012   2.421   1.625   9.123
 1991POPC   GL127013   2.736   1.943   9.085
 1991POPC   GL227014   3.034   1.775   9.002
 1991POPC   C1A27015   2.803   2.178   8.746
 1991POPC   D2A27016   2.651   2.026   8.346
 1991POPC   C3A27017   2.736   2.321   8.041
 1991POPC   C4A27018   3.008   2.247   7.733
 1991POPC   C1B27019   2.853   1.659   8.639
 1991POPC   C2B27020   2.886   1.480   8.259
 1991POPC   C3B27021   2.964   1.801   7.994
 1991POPC   C4B27022   2.647   1.875   7.719
 1992POPC   NC327023  36.680  20.029   9.382
 1992POPC   PO427024  37.302  19.735   9.440
 1992POPC   GL127025  37.032  19.691   9.116
 1992POPC   GL227026  36.668  19.610   9.109
 1992POPC   C1A27027  36.994  19.886   8.747
 1992POPC   D2A27028  36.727  20.113   8.508
 1992POPC   C3A27029  36.731  19.880   8.132
 1992POPC   C4A27030  36.808  20.017   7.729
 1992POPC   C1B27031  36.527  19.656   8.694
 1992POPC   C2B27032  36.535  19.422   8.323
 1992POPC   C3B27033  36.314  19.436   7.964
 1992POPC   C4B27034  36.324  19.817   7.756
 1993POPC   NC327035  38.860  34.007   9.903
 1993POPC   PO427036  38.391  33.826   9.469
 1993POPC   GL127037  38.481  34.012   9.116
 1993POPC   GL227038  38.819  34.020   9.168
 1993POPC   C1A27039  38.520  34.025   8.685
 1993POPC   D2A27040  38.288  33.799   8.372
 1993POPC   C3A27041  38.461  33.709   7.968
 1993POPC   C4A27042  38.474  33.862   7.556
 1993POPC   C1B27043  38.905  33.719   8.824
 1993POPC   C2B27044  38.801  33.631   8.443
 1993POPC   C3B27045  38.942  33.616   8.086
 1993POPC   C4B27046  38.916  33.605   7.687
 1994POPC   NC327047   6.213   1.102   9.853
 1994POPC   PO427048   6.906   1.248   9.547
 1994POPC   GL127049   6.681   1.232   9.129
 1994POPC   GL227050   6.659   1.464   9.031
 1994POPC   C1A27051   6.473   1.155   8.685
 1994POPC   D2A27052   6.439   0.795   8.392
 1994POPC   C3A27053   6.451   0.913   7.976
 1994POPC   C4A27054   6.261   1.263   7.775
 1994POPC   C1B27055   6.966   1.241   8.713
 1994POPC   C2B27056   6.814   1.193   8.282
 1994POPC   C3B27057   6.761   1.313   7.873
 1994POPC   C4B27058   6.952   1.175   7.549
 1995POPC   NC327059  44.097  33.163   9.590
 1995POPC   PO427060  43.941  32.587   9.540
 1995POPC   GL127061  43.891  32.882   9.182
 1995POPC   GL227062  43.717  33.199   9.252
 1995POPC   C1A27063  44.003  32.937   8.746
 1995POPC   D2A27064  44.178  32.897   8.305
 1995POPC   C3A27065  43.922  33.029   7.991
 1995POPC   C4A27066  43.890  32.912   7.556
 1995POPC   C1B27067  43.667  33.316   8.842
 1995POPC   C2B27068  43.679  33.531   8.455
 1995POPC   C3B27069  43.492  33.424   8.078
 1995POPC   C4B27070  43.611  33.311   7.691
 1996POPC   NC327071  39.740  28.519   9.399
 1996POPC   PO427072  39.947  27.952   9.431
 1996POPC   GL127073  40.079  28.235   9.118
 1996POPC   GL227074  40.215  28.567   9.099
 1996POPC   C1A27075  39.861  28.345   8.751
 1996POPC   D2A27076  39.901  28.011   8.484
 1996POPC   C3A27077  39.900  28.057   8.027
 1996POPC   C4A27078  39.929  28.469   7.826
 1996POPC   C1B27079  40.385  28.322   8.708
 1996POPC   C2B27080  40.256  28.344   8.254
 1996POPC   C3B27081  40.369  28.224   7.824
 1996POPC   C4B27082  40.486  28.140   7.343
 1997POPC   NC327083  34.070  13.899   9.478
 1997POPC   PO427084  33.699  14.480   9.377
 1997POPC   GL127085  33.772  14.444   8.988
 1997POPC   GL227086  34.097  14.336   9.066
 1997POPC   C1A27087  33.903  14.649   8.622
 1997POPC   D2A27088  34.100  14.526   8.257
 1997POPC   C3A27089  33.837  14.408   7.964
 1997POPC   C4A27090  33.493  14.559   7.774
 1997POPC   C1B27091  34.063  14.125   8.691
 1997POPC   C2B27092  33.987  13.981   8.280
 1997POPC   C3B27093  34.198  14.049   7.893
 1997POPC   C4B27094  34.198  14.059   7.399
 1998POPC   NC327095  34.801  37.458   9.676
 1998POPC   PO427096  34.343  37.832   9.369
 1998POPC   GL127097  34.646  37.762   9.086
 1998POPC   GL227098  34.893  37.517   9.148
 1998POPC   C1A27099  34.621  37.907   8.685
 1998POPC   D2A27100  34.387  37.999   8.331
 1998POPC   C3A27101  34.515  37.732   7.988
 1998POPC   C4A27102  34.184  37.519   7.768
 1998POPC   C1B27103  34.931  37.472   8.689
 1998POPC   C2B27104  34.918  37.317   8.279
 1998POPC   C3B27105  34.840  37.299   7.830
 1998POPC   C4B27106  34.650  37.280   7.425
 1999POPC   NC327107  12.258  34.825   9.533
 1999POPC   PO427108  11.870  34.423   9.235
 1999POPC   GL127109  12.064  34.743   9.040
 1999POPC   GL227110  12.402  34.672   9.057
 1999POPC   C1A27111  12.110  34.757   8.618
 1999POPC   D2A27112  11.801  34.615   8.325
 1999POPC   C3A27113  11.920  34.403   7.932
 1999POPC   C4A27114  12.059  34.632   7.571
 1999POPC   C1B27115  12.384  34.337   8.773
 1999POPC   C2B27116  12.216  34.311   8.364
 1999POPC   C3B27117  12.436  34.429   8.001
 1999POPC   C4B27118  12.468  34.338   7.579
 2000POPC   NC327119  11.803  21.145   9.475
 2000POPC   PO427120  12.315  21.558   9.485
 2000POPC   GL127121  12.078  21.459   9.142
 2000POPC   GL227122  11.772  21.603   9.222
 2000POPC   C1A27123  11.966  21.272   8.749
 2000POPC   D2A27124  12.146  21.162   8.354
 2000POPC   C3A27125  11.885  21.210   8.015
 2000POPC   C4A27126  11.959  21.378   7.595
 2000POPC   C1B27127  11.756  21.744   8.782
 2000POPC   C2B27128  12.001  21.665   8.396
 2000POPC   C3B27129  11.852  21.718   7.985
 2000POPC   C4B27130  11.803  21.845   7.583
 2001POPC   NC327131  41.928   7.738   9.433
 2001POPC   PO427132  41.238   7.691   9.406
 2001POPC   GL127133  41.548   7.359   9.169
 2001POPC   GL227134  41.895   7.376   9.048
 2001POPC   C1A27135  41.561   7.214   8.723
 2001POPC   D2A27136  41.557   7.499   8.365
 2001POPC   C3A27137  41.455   7.309   7.985
 2001POPC   C4A27138  41.621   6.992   7.739
 2001POPC   C1B27139  41.770   7.727   8.783
 2001POPC   C2B27140  41.836   7.950   8.374
 2001POPC   C3B27141  41.796   7.738   7.964
 2001POPC   C4B27142  41.671   7.524   7.577
 2002POPC   NC327143  16.177  19.556   9.283
 2002POPC   PO427144  15.545  19.549   9.263
 2002POPC   GL127145  15.695  19.903   8.991
 2002POPC   GL227146  16.053  19.997   9.068
 2002POPC   C1A27147  15.903  19.848   8.561
 2002POPC   D2A27148  15.834  19.490   8.223
 2002POPC   C3A27149  15.630  19.671   7.856
 2002POPC   C4A27150  15.774  20.087   7.835
 2002POPC   C1B27151  16.382  19.960   8.741
 2002POPC   C2B27152  16.321  20.162   8.318
 2002POPC   C3B27153  16.296  20.070   7.886
 2002POPC   C4B27154  16.118  19.748   7.644
 2003POPC   NC327155   3.667   6.535   9.480
 2003POPC   PO427156   3.682   7.197   9.480
 2003POPC   GL127157   3.458   7.035   9.114
 2003POPC   GL227158   3.494   6.663   9.034
 2003POPC   C1A27159   3.528   7.004   8.659
 2003POPC   D2A27160   3.684   6.690   8.441
 2003POPC   C3A27161   3.604   6.714   8.040
 2003POPC   C4A27162   3.761   6.647   7.670
 2003POPC   C1B27163   3.380   6.356   8.744
 2003POPC   C2B27164   3.270   6.411   8.316
 2003POPC   C3B27165   3.356   6.294   7.890
 2003POPC   C4B27166   3.276   6.147   7.476
 2004POPC   NC327167   9.936  15.971   9.423
 2004POPC   PO427168   9.425  15.560   9.429
 2004POPC   GL127169   9.706  15.716   9.061
 2004POPC   GL227170   9.878  16.081   8.934
 2004POPC   C1A27171   9.603  15.754   8.642
 2004POPC   D2A27172   9.370  15.539   8.369
 2004POPC   C3A27173   9.431  15.790   8.027
 2004POPC   C4A27174   9.577  15.929   7.602
 2004POPC   C1B27175  10.112  15.740   8.717
 2004POPC   C2B27176  10.079  15.618   8.306
 2004POPC   C3B27177   9.953  15.875   7.987
 2004POPC   C4B27178  10.038  16.091   7.634
 2005POPC   NC327179   9.270  31.846   9.445
 2005POPC   PO427180   8.780  31.460   9.707
 2005POPC   GL127181   8.837  31.298   9.216
 2005POPC   GL227182   9.214  31.283   9.168
 2005POPC   C1A27183   8.808  31.354   8.748
 2005POPC   D2A27184   8.572  31.641   8.491
 2005POPC   C3A27185   8.715  31.701   8.061
 2005POPC   C4A27186   8.612  31.394   7.770
 2005POPC   C1B27187   9.346  31.397   8.744
 2005POPC   C2B27188   9.157  31.507   8.357
 2005POPC   C3B27189   9.181  31.556   7.921
 2005POPC   C4B27190   9.187  31.245   7.611
 2006POPC   NC327191  14.859  12.385   9.491
 2006POPC   PO427192  15.342  11.904   9.698
 2006POPC   GL127193  15.270  11.954   9.252
 2006POPC   GL227194  15.558  11.835   9.101
 2006POPC   C1A27195  15.081  12.153   8.902
 2006POPC   D2A27196  15.033  12.123   8.460
 2006POPC   C3A27197  15.123  12.366   8.077
 2006POPC   C4A27198  15.259  12.067   7.773
 2006POPC   C1B27199  15.415  11.735   8.649
 2006POPC   C2B27200  15.399  11.856   8.216
 2006POPC   C3B27201  15.521  11.648   7.838
 2006POPC   C4B27202  15.437  11.684   7.415
 2007POPC   NC327203  40.535  35.737   9.449
 2007POPC   PO427204  40.841  36.370   9.345
 2007POPC   GL127205  40.770  36.001   9.076
 2007POPC   GL227206  40.396  36.053   9.081
 2007POPC   C1A27207  40.819  35.949   8.608
 2007POPC   D2A27208  40.895  36.145   8.185
 2007POPC   C3A27209  41.018  35.868   7.827
 2007POPC   C4A27210  40.788  35.745   7.418
 2007POPC   C1B27211  40.511  36.335   8.769
 2007POPC   C2B27212  40.406  36.251   8.376
 2007POPC   C3B27213  40.404  36.182   7.973
 2007POPC   C4B27214  40.638  36.175   7.644
 2008POPC   NC327215  37.569  39.888   9.541
 2008POPC   PO427216  38.307  39.853   9.511
 2008POPC   GL127217  37.948  39.720   9.248
 2008POPC   GL227218  37.828  40.044   9.131
 2008POPC   C1A27219  37.675  39.676   8.854
 2008POPC   D2A27220  37.812  39.889   8.483
 2008POPC   C3A27221  37.690  39.845   8.058
 2008POPC   C4A27222  37.919  39.871   7.693
 2008POPC   C1B27223  37.530  40.177   8.800
 2008POPC   C2B27224  37.599  40.315   8.341
 2008POPC   C3B27225  37.462  40.278   7.930
 2008POPC   C4B27226  37.344  39.968   7.611
 2009POPC   NC327227   1.920  12.306   9.498
 2009POPC   PO427228   1.835  13.035   9.482
 2009POPC   GL127229   1.961  12.770   9.176
 2009POPC   GL227230   2.201  12.994   9.075
 2009POPC   C1A27231   1.946  12.703   8.743
 2009POPC   D2A27232   1.905  13.020   8.435
 2009POPC   C3A27233   1.751  12.803   8.097
 2009POPC   C4A27234   1.772  13.013   7.764
 2009POPC   C1B27235   2.400  12.964   8.698
 2009POPC   C2B27236   2.306  12.701   8.359
 2009POPC   C3B27237   2.236  12.842   7.968
 2009POPC   C4B27238   2.385  12.825   7.593
 2010POPC   NC327239   2.863  27.000   9.483
 2010POPC   PO427240   2.588  26.428   9.680
 2010POPC   GL127241   2.655  26.567   9.222
 2010POPC   GL227242   2.571  26.881   9.062
 2010POPC   C1A27243   2.869  26.555   8.771
 2010POPC   D2A27244   2.891  26.620   8.324
 2010POPC   C3A27245   2.541  26.742   8.069
 2010POPC   C4A27246   2.604  26.621   7.655
 2010POPC   C1B27247   2.951  27.045   8.806
 2010POPC   C2B27248   2.889  27.170   8.367
 2010POPC   C3B27249   3.156  27.205   8.005
 2010POPC   C4B27250   2.926  26.975   7.767
 2011POPC   NC327251  17.099  40.441   9.550
 2011POPC   PO427252  17.437  39.829   9.548
 2011POPC   GL127253  17.597  39.854   9.169
 2011POPC   GL227254  17.612  40.220   9.116
 2011POPC   C1A27255  17.486  39.892   8.760
 2011POPC   D2A27256  17.617  39.753   8.395
 2011POPC   C3A27257  17.435  39.909   8.069
 2011POPC   C4A27258  17.159  39.788   7.753
 2011POPC   C1B27259  17.591  40.420   8.684
 2011POPC   C2B27260  17.648  40.352   8.207
 2011POPC   C3B27261  17.557  40.266   7.745
 2011POPC   C4B27262  17.803  40.282   7.328
 2012POPC   NC327263  10.033   5.609   9.530
 2012POPC   PO427264   9.711   6.260   9.513
 2012POPC   GL127265   9.725   6.108   9.061
 2012POPC   GL227266  10.028   5.940   9.050
 2012POPC   C1A27267   9.427   5.862   8.773
 2012POPC   D2A27268   9.314   5.992   8.374
 2012POPC   C3A27269   9.690   6.130   8.199
 2012POPC   C4A27270   9.718   6.239   7.790
 2012POPC   C1B27271   9.908   5.904   8.617
 2012POPC   C2B27272   9.672   5.632   8.306
 2012POPC   C3B27273   9.811   5.730   7.899
 2012POPC   C4B27274  10.130   6.008   7.965
 2013POPC   NC327275  29.905  27.603   9.787
 2013POPC   PO427276  29.784  27.897   9.224
 2013POPC   GL127277  29.719  27.553   8.993
 2013POPC   GL227278  29.829  27.232   9.073
 2013POPC   C1A27279  29.862  27.483   8.594
 2013POPC   D2A27280  29.664  27.774   8.343
 2013POPC   C3A27281  29.921  27.932   8.041
 2013POPC   C4A27282  29.996  27.835   7.616
 2013POPC   C1B27283  30.223  27.166   8.794
 2013POPC   C2B27284  30.324  27.340   8.369
 2013POPC   C3B27285  30.153  27.436   7.957
 2013POPC   C4B27286  30.241  27.419   7.510
 2014POPC   NC327287   3.215  31.100   9.619
 2014POPC   PO427288   3.545  30.505   9.440
 2014POPC   GL127289   3.764  30.674   9.119
 2014POPC   GL227290   3.964  31.004   9.226
 2014POPC   C1A27291   3.609  30.555   8.735
 2014POPC   D2A27292   3.588  30.785   8.378
 2014POPC   C3A27293   3.615  30.583   7.997
 2014POPC   C4A27294   3.432  30.777   7.641
 2014POPC   C1B27295   3.823  31.053   8.785
 2014POPC   C2B27296   4.049  31.039   8.406
 2014POPC   C3B27297   3.842  31.113   8.024
 2014POPC   C4B27298   3.802  31.097   7.589
 2015POPC   NC327299   4.183   4.899   9.552
 2015POPC   PO427300   3.718   5.415   9.485
 2015POPC   GL127301   4.068   5.273   9.184
 2015POPC   GL227302   4.320   4.991   9.055
 2015POPC   C1A27303   4.174   5.394   8.761
 2015POPC   D2A27304   3.924   5.593   8.439
 2015POPC   C3A27305   4.011   5.327   8.143
 2015POPC   C4A27306   4.193   5.291   7.783
 2015POPC   C1B27307   4.513   4.987   8.593
 2015POPC   C2B27308   4.576   5.071   8.125
 2015POPC   C3B27309   4.529   4.912   7.698
 2015POPC   C4B27310   4.508   4.777   7.232
 2016POPC   NC327311  12.085   6.778   9.515
 2016POPC   PO427312  11.702   6.146   9.495
 2016POPC   GL127313  12.013   6.353   9.170
 2016POPC   GL227314  11.987   6.733   9.025
 2016POPC   C1A27315  12.201   6.351   8.744
 2016POPC   D2A27316  12.175   6.254   8.304
 2016POPC   C3A27317  11.917   6.504   8.071
 2016POPC   C4A27318  12.056   6.598   7.673
 2016POPC   C1B27319  12.052   6.869   8.593
 2016POPC   C2B27320  12.279   6.871   8.203
 2016POPC   C3B27321  12.329   7.015   7.759
 2016POPC   C4B27322  12.295   6.885   7.313
 2017POPC   NC327323   4.299  21.559   9.567
 2017POPC   PO427324   3.931  20.992   9.631
 2017POPC   GL127325   4.153  21.171   9.237
 2017POPC   GL227326   4.515  21.249   9.219
 2017POPC   C1A27327   4.194  21.303   8.799
 2017POPC   D2A27328   4.501  21.136   8.487
 2017POPC   C3A27329   4.506  21.307   8.079
 2017POPC   C4A27330   4.152  21.332   7.774
 2017POPC   C1B27331   4.662  21.488   8.827
 2017POPC   C2B27332   4.386  21.654   8.476
 2017POPC   C3B27333   4.225  21.741   8.060
 2017POPC   C4B27334   4.515  21.704   7.722
 2018POPC   NC327335  20.500  20.937   9.611
 2018POPC   PO427336  20.878  21.555   9.422
 2018POPC   GL127337  20.666  21.457   9.067
 2018POPC   GL227338  20.619  21.148   9.111
 2018POPC   C1A27339  20.448  21.420   8.703
 2018POPC   D2A27340  20.448  21.234   8.355
 2018POPC   C3A27341  20.531  21.471   8.018
 2018POPC   C4A27342  20.320  21.242   7.739
 2018POPC   C1B27343  20.889  21.162   8.719
 2018POPC   C2B27344  20.965  21.280   8.299
 2018POPC   C3B27345  20.926  21.149   7.889
 2018POPC   C4B27346  20.777  21.333   7.532
 2019POPC   NC327347  42.755  41.774   9.390
 2019POPC   PO427348  42.031  41.606   9.385
 2019POPC   GL127349  42.237  41.451   9.031
 2019POPC   GL227350  42.601  41.444   8.987
 2019POPC   C1A27351  42.216  41.626   8.634
 2019POPC   D2A27352  42.340  41.880   8.264
 2019POPC   C3A27353  42.154  41.660   7.948
 2019POPC   C4A27354  42.166  41.395   7.644
 2019POPC   C1B27355  42.843  41.249   8.620
 2019POPC   C2B27356  42.882  41.299   8.163
 2019POPC   C3B27357  42.662  41.579   7.890
 2019POPC   C4B27358  42.873  41.863   7.628
 2020POPC   NC327359  37.598   4.018   9.514
 2020POPC   PO427360  37.690   3.387   9.699
 2020POPC   GL127361  37.608   3.531   9.260
 2020POPC   GL227362  37.810   3.781   9.110
 2020POPC   C1A27363  37.469   3.515   8.819
 2020POPC   D2A27364  37.629   3.637   8.410
 2020POPC   C3A27365  37.495   3.500   8.000
 2020POPC   C4A27366  37.435   3.742   7.697
 2020POPC   C1B27367  37.991   3.554   8.752
 2020POPC   C2B27368  38.135   3.531   8.314
 2020POPC   C3B27369  38.005   3.410   7.910
 2020POPC   C4B27370  37.923   3.598   7.557
 2021POPC   NC327371  22.245  42.851   9.489
 2021POPC   PO427372  21.917  43.381   9.281
 2021POPC   GL127373  22.038  43.034   9.005
 2021POPC   GL227374  22.392  43.047   9.025
 2021POPC   C1A27375  22.012  43.038   8.544
 2021POPC   D2A27376  22.102  43.003   8.109
 2021POPC   C3A27377  21.852  43.238   7.775
 2021POPC   C4A27378  21.520  43.431   7.445
 2021POPC   C1B27379  22.498  43.170   8.559
 2021POPC   C2B27380  22.452  43.414   8.178
 2021POPC   C3B27381  22.357  43.279   7.752
 2021POPC   C4B27382  22.440  43.120   7.339
 2022POPC   NC327383  29.597   1.379   9.519
 2022POPC   PO427384  30.272   1.405   9.614
 2022POPC   GL127385  29.998   1.300   9.224
 2022POPC   GL227386  29.932   0.928   9.145
 2022POPC   C1A27387  29.876   1.274   8.794
 2022POPC   D2A27388  30.086   1.056   8.470
 2022POPC   C3A27389  30.022   1.173   8.059
 2022POPC   C4A27390  30.095   1.122   7.627
 2022POPC   C1B27391  29.727   0.765   8.729
 2022POPC   C2B27392  29.634   0.814   8.285
 2022POPC   C3B27393  29.794   0.785   7.843
 2022POPC   C4B27394  29.661   1.052   7.410
 2023POPC   NC327395  12.709  44.164   9.461
 2023POPC   PO427396  13.330  43.854   9.562
 2023POPC   GL127397  13.132  43.962   9.199
 2023POPC   GL227398  12.854  43.722   9.229
 2023POPC   C1A27399  12.890  44.027   8.818
 2023POPC   D2A27400  12.821  43.844   8.421
 2023POPC   C3A27401  12.611  44.002   8.099
 2023POPC   C4A27402  12.886  44.121   7.796
 2023POPC   C1B27403  12.702  43.551   8.848
 2023POPC   C2B27404  12.474  43.452   8.482
 2023POPC   C3B27405  12.528  43.497   8.075
 2023POPC   C4B27406  12.803  43.606   7.766
 2024POPC   NC327407  20.807   6.335   9.581
 2024POPC   PO427408  20.576   6.993   9.421
 2024POPC   GL127409  20.585   6.587   9.141
 2024POPC   GL227410  20.876   6.347   9.099
 2024POPC   C1A27411  20.555   6.397   8.703
 2024POPC   D2A27412  20.425   6.632   8.341
 2024POPC   C3A27413  20.611   6.754   7.920
 2024POPC   C4A27414  20.530   6.778   7.422
 2024POPC   C1B27415  21.007   6.638   8.819
 2024POPC   C2B27416  21.094   6.493   8.424
 2024POPC   C3B27417  20.793   6.291   8.159
 2024POPC   C4B27418  20.851   6.360   7.734
 2025POPC   NC327419  40.628  42.847   9.407
 2025POPC   PO427420  41.220  43.224   9.457
 2025POPC   GL127421  40.932  43.281   9.149
 2025POPC   GL227422  41.198  43.364   8.910
 2025POPC   C1A27423  40.747  43.175   8.753
 2025POPC   D2A27424  41.043  43.113   8.382
 2025POPC   C3A27425  40.790  43.093   7.988
 2025POPC   C4A27426  40.757  43.393   7.662
 2025POPC   C1B27427  41.121  42.867   8.874
 2025POPC   C2B27428  40.932  42.645   8.514
 2025POPC   C3B27429  41.090  42.682   8.074
 2025POPC   C4B27430  41.021  42.802   7.622
 2026POPC   NC327431  11.372  11.407   9.405
 2026POPC   PO427432  10.963  10.956   9.749
 2026POPC   GL127433  11.272  10.847   9.211
 2026POPC   GL227434  11.500  11.134   9.005
 2026POPC   C1A27435  11.142  10.986   8.711
 2026POPC   D2A27436  11.318  11.305   8.386
 2026POPC   C3A27437  11.472  11.238   7.988
 2026POPC   C4A27438  11.581  11.128   7.592
 2026POPC   C1B27439  11.183  11.511   8.809
 2026POPC   C2B27440  10.888  11.653   8.462
 2026POPC   C3B27441  11.049  11.568   8.029
 2026POPC   C4B27442  11.099  11.306   7.638
 2027POPC   NC327443  44.064  38.572   9.509
 2027POPC   PO427444  43.430  38.701   9.362
 2027POPC   GL127445  43.750  38.486   9.103
 2027POPC   GL227446  43.917  38.156   9.072
 2027POPC   C1A27447  43.976  38.586   8.718
 2027POPC   D2A27448  43.764  38.660   8.339
 2027POPC   C3A27449  43.953  38.700   7.943
 2027POPC   C4A27450  43.592  38.860   7.770
 2027POPC   C1B27451  43.667  38.193   8.675
 2027POPC   C2B27452  43.900  38.178   8.281
 2027POPC   C3B27453  44.055  38.141   7.849
 2027POPC   C4B27454  43.839  38.182   7.462
 2028POPC   NC327455  25.875  35.130   9.598
 2028POPC   PO427456  25.922  35.746   9.537
 2028POPC   GL127457  25.843  35.437   9.192
 2028POPC   GL227458  26.119  35.162   9.153
 2028POPC   C1A27459  25.667  35.264   8.816
 2028POPC   D2A27460  25.823  35.171   8.424
 2028POPC   C3A27461  25.851  35.405   8.048
 2028POPC   C4A27462  25.945  35.450   7.623
 2028POPC   C1B27463  26.194  35.313   8.753
 2028POPC   C2B27464  26.322  35.213   8.346
 2028POPC   C3B27465  26.322  35.283   7.922
 2028POPC   C4B27466  26.575  35.239   7.591
 2029POPC   NC327467  21.692  32.992   9.646
 2029POPC   PO427468  22.362  33.013   9.521
 2029POPC   GL127469  22.099  32.956   9.173
 2029POPC   GL227470  21.833  32.729   9.161
 2029POPC   C1A27471  22.207  33.073   8.761
 2029POPC   D2A27472  22.194  33.355   8.429
 2029POPC   C3A27473  22.259  33.072   8.068
 2029POPC   C4A27474  22.127  33.209   7.682
 2029POPC   C1B27475  21.716  32.937   8.776
 2029POPC   C2B27476  21.869  32.936   8.351
 2029POPC   C3B27477  21.807  32.870   7.893
 2029POPC   C4B27478  21.807  32.513   7.613
 2030POPC   NC327479   0.896   7.738   9.485
 2030POPC   PO427480   1.500   7.824   9.457
 2030POPC   GL127481   1.387   7.553   9.090
 2030POPC   GL227482   1.019   7.474   9.064
 2030POPC   C1A27483   1.322   7.603   8.635
 2030POPC   D2A27484   1.016   7.606   8.273
 2030POPC   C3A27485   1.224   7.533   7.919
 2030POPC   C4A27486   1.456   7.802   7.781
 2030POPC   C1B27487   0.906   7.290   8.658
 2030POPC   C2B27488   0.738   7.171   8.280
 2030POPC   C3B27489   0.959   7.099   7.907
 2030POPC   C4B27490   1.075   7.324   7.455
 2031POPC   NC327491  37.646  23.513   9.552
 2031POPC   PO427492  38.125  23.880   9.437
 2031POPC   GL127493  37.743  23.879   9.138
 2031POPC   GL227494  37.541  23.580   9.062
 2031POPC   C1A27495  37.618  23.953   8.690
 2031POPC   D2A27496  37.628  23.771   8.282
 2031POPC   C3A27497  37.845  23.959   7.946
 2031POPC   C4A27498  37.954  23.611   7.703
 2031POPC   C1B27499  37.241  23.624   8.746
 2031POPC   C2B27500  37.128  23.799   8.412
 2031POPC   C3B27501  37.202  23.631   8.039
 2031POPC   C4B27502  37.470  23.723   7.712
 2032POPC   NC327503  16.253   8.548   9.420
 2032POPC   PO427504  15.940   7.941   9.571
 2032POPC   GL127505  15.933   8.191   9.148
 2032POPC   GL227506  16.159   7.952   8.928
 2032POPC   C1A27507  15.800   8.200   8.698
 2032POPC   D2A27508  16.103   7.959   8.422
 2032POPC   C3A27509  16.101   8.126   8.020
 2032POPC   C4A27510  15.867   8.408   7.746
 2032POPC   C1B27511  16.258   8.401   8.728
 2032POPC   C2B27512  16.231   8.662   8.330
 2032POPC   C3B27513  16.315   8.571   7.904
 2032POPC   C4B27514  16.318   8.277   7.530
 2033POPC   NC327515  29.997  29.596   9.532
 2033POPC   PO427516  29.859  28.930   9.430
 2033POPC   GL127517  29.992  29.281   9.126
 2033POPC   GL227518  29.659  29.417   9.128
 2033POPC   C1A27519  30.195  29.454   8.715
 2033POPC   D2A27520  30.195  29.411   8.233
 2033POPC   C3A27521  30.142  28.984   8.035
 2033POPC   C4A27522  29.876  28.842   7.702
 2033POPC   C1B27523  29.517  29.077   8.790
 2033POPC   C2B27524  29.486  28.865   8.356
 2033POPC   C3B27525  29.509  29.084   7.970
 2033POPC   C4B27526  29.845  29.365   7.831
 2034POPC   NC327527  22.494  34.681   9.456
 2034POPC   PO427528  23.180  34.402   9.356
 2034POPC   GL127529  23.086  34.589   9.009
 2034POPC   GL227530  22.927  34.856   9.200
 2034POPC   C1A27531  22.812  34.335   8.740
 2034POPC   D2A27532  22.901  34.158   8.317
 2034POPC   C3A27533  22.872  34.442   7.973
 2034POPC   C4A27534  23.230  34.655   7.775
 2034POPC   C1B27535  22.686  34.848   8.811
 2034POPC   C2B27536  22.864  34.721   8.420
 2034POPC   C3B27537  22.943  34.945   8.080
 2034POPC   C4B27538  22.845  34.980   7.671
 2035POPC   NC327539  34.208  36.053   9.421
 2035POPC   PO427540  33.501  35.905   9.479
 2035POPC   GL127541  33.656  36.134   9.112
 2035POPC   GL227542  33.974  36.006   8.984
 2035POPC   C1A27543  33.573  36.255   8.692
 2035POPC   D2A27544  33.442  36.139   8.263
 2035POPC   C3A27545  33.807  36.188   7.997
 2035POPC   C4A27546  34.072  35.881   7.780
 2035POPC   C1B27547  34.022  36.425   8.831
 2035POPC   C2B27548  33.963  36.534   8.401
 2035POPC   C3B27549  34.128  36.634   7.998
 2035POPC   C4B27550  34.105  36.377   7.619
 2036POPC   NC327551  39.172  17.791   9.580
 2036POPC   PO427552  38.837  17.139   9.365
 2036POPC   GL127553  39.133  17.469   9.192
 2036POPC   GL227554  39.487  17.623   9.226
 2036POPC   C1A27555  39.046  17.578   8.789
 2036POPC   D2A27556  39.079  17.349   8.425
 2036POPC   C3A27557  39.167  17.558   8.056
 2036POPC   C4A27558  38.951  17.720   7.721
 2036POPC   C1B27559  39.476  17.857   8.842
 2036POPC   C2B27560  39.339  17.874   8.419
 2036POPC   C3B27561  39.429  18.031   8.018
 2036POPC   C4B27562  39.450  17.773   7.639
 2037POPC   NC327563  37.800  16.435   9.479
 2037POPC   PO427564  37.745  15.714   9.508
 2037POPC   GL127565  37.516  15.880   9.177
 2037POPC   GL227566  37.371  16.221   9.193
 2037POPC   C1A27567  37.365  15.811   8.766
 2037POPC   D2A27568  37.609  15.658   8.412
 2037POPC   C3A27569  37.606  15.902   8.034
 2037POPC   C4A27570  37.994  15.942   7.867
 2037POPC   C1B27571  37.695  16.241   8.848
 2037POPC   C2B27572  37.997  16.112   8.517
 2037POPC   C3B27573  37.990  16.372   8.145
 2037POPC   C4B27574  37.644  16.432   7.865
 2038POPC   NC327575  19.728   7.784   9.572
 2038POPC   PO427576  19.339   7.369   9.385
 2038POPC   GL127577  19.712   7.496   9.124
 2038POPC   GL227578  19.829   7.171   8.994
 2038POPC   C1A27579  19.923   7.610   8.734
 2038POPC   D2A27580  19.907   7.507   8.288
 2038POPC   C3A27581  19.693   7.586   7.900
 2038POPC   C4A27582  19.839   7.623   7.441
 2038POPC   C1B27583  19.482   6.971   8.750
 2038POPC   C2B27584  19.418   6.873   8.307
 2038POPC   C3B27585  19.724   7.065   8.026
 2038POPC   C4B27586  19.711   7.156   7.605
 2039POPC   NC327587  10.907   5.484   9.166
 2039POPC   PO427588  10.379   5.246   9.542
 2039POPC   GL127589  10.417   5.114   9.117
 2039POPC   GL227590  10.103   5.054   9.032
 2039POPC   C1A27591  10.623   5.197   8.690
 2039POPC   D2A27592  10.952   5.108   8.369
 2039POPC   C3A27593  10.790   4.958   7.972
 2039POPC   C4A27594  10.669   5.280   7.726
 2039POPC   C1B27595  10.212   4.908   8.632
 2039POPC   C2B27596  10.403   5.118   8.249
 2039POPC   C3B27597  10.263   5.003   7.851
 2039POPC   C4B27598  10.108   4.666   7.635
 2040POPC   NC327599  39.795  35.523   9.410
 2040POPC   PO427600  40.399  35.227   9.453
 2040POPC   GL127601  40.209  35.422   9.118
 2040POPC   GL227602  40.328  35.111   8.927
 2040POPC   C1A27603  39.975  35.416   8.718
 2040POPC   D2A27604  40.016  35.174   8.328
 2040POPC   C3A27605  40.074  35.388   7.923
 2040POPC   C4A27606  39.875  35.553   7.540
 2040POPC   C1B27607  39.961  34.862   8.759
 2040POPC   C2B27608  39.640  34.825   8.392
 2040POPC   C3B27609  39.785  34.849   7.941
 2040POPC   C4B27610  39.992  35.038   7.559
 2041POPC   NC327611  35.275  24.898   9.378
 2041POPC   PO427612  35.260  25.575   9.405
 2041POPC   GL127613  35.260  25.326   9.061
 2041POPC   GL227614  35.596  25.183   9.126
 2041POPC   C1A27615  35.091  25.195   8.648
 2041POPC   D2A27616  35.175  24.965   8.261
 2041POPC   C3A27617  35.159  25.192   7.882
 2041POPC   C4A27618  35.447  25.082   7.500
 2041POPC   C1B27619  35.636  25.355   8.724
 2041POPC   C2B27620  35.480  25.364   8.335
 2041POPC   C3B27621  35.635  25.318   7.954
 2041POPC   C4B27622  35.448  25.560   7.657
 2042POPC   NC327623  11.925  26.663   9.529
 2042POPC   PO427624  11.639  27.087   9.136
 2042POPC   GL127625  12.098  27.004   9.023
 2042POPC   GL227626  12.208  26.672   9.076
 2042POPC   C1A27627  12.097  26.935   8.619
 2042POPC   D2A27628  11.925  26.652   8.343
 2042POPC   C3A27629  11.973  26.907   8.025
 2042POPC   C4A27630  12.045  26.924   7.605
 2042POPC   C1B27631  12.534  26.722   8.728
 2042POPC   C2B27632  12.447  26.756   8.300
 2042POPC   C3B27633  12.490  26.891   7.913
 2042POPC   C4B27634  12.462  26.628   7.579
 2043POPC   NC327635   8.938  16.019   9.464
 2043POPC   PO427636   8.636  15.436   9.358
 2043POPC   GL127637   8.862  15.705   9.041
 2043POPC   GL227638   9.210  15.883   9.060
 2043POPC   C1A27639   8.986  15.786   8.615
 2043POPC   D2A27640   8.982  16.022   8.248
 2043POPC   C3A27641   8.945  15.785   7.857
 2043POPC   C4A27642   8.903  15.697   7.411
 2043POPC   C1B27643   9.293  16.184   8.707
 2043POPC   C2B27644   9.416  16.282   8.246
 2043POPC   C3B27645   9.227  16.214   7.820
 2043POPC   C4B27646   9.232  16.238   7.345
 2044POPC   NC327647  43.094  41.706   9.911
 2044POPC   PO427648  42.663  41.306   9.492
 2044POPC   GL127649  43.063  41.357   9.219
 2044POPC   GL227650  43.247  41.693   9.154
 2044POPC   C1A27651  43.321  41.291   8.838
 2044POPC   D2A27652  43.299  41.484   8.442
 2044POPC   C3A27653  43.387  41.301   8.038
 2044POPC   C4A27654  43.109  41.299   7.695
 2044POPC   C1B27655  42.999  41.725   8.793
 2044POPC   C2B27656  42.837  41.762   8.385
 2044POPC   C3B27657  43.130  41.758   8.044
 2044POPC   C4B27658  43.311  42.087   7.838
 2045POPC   NC327659   0.840  11.796   9.442
 2045POPC   PO427660   1.452  12.221   9.471
 2045POPC   GL127661   1.188  12.076   9.177
 2045POPC   GL227662   1.274  11.776   9.044
 2045POPC   C1A27663   0.998  12.160   8.804
 2045POPC   D2A27664   1.190  12.302   8.439
 2045POPC   C3A27665   0.974  12.244   8.056
 2045POPC   C4A27666   1.037  12.352   7.628
 2045POPC   C1B27667   1.433  11.883   8.635
 2045POPC   C2B27668   1.307  11.841   8.189
 2045POPC   C3B27669   1.311  11.883   7.739
 2045POPC   C4B27670   1.571  11.776   7.341
 2046POPC   NC327671  44.108  17.117   9.484
 2046POPC   PO427672  43.935  17.743   9.590
 2046POPC   GL127673  43.877  17.460   9.200
 2046POPC   GL227674  44.004  17.651   8.946
 2046POPC   C1A27675  44.027  17.211   8.776
 2046POPC   D2A27676  43.947  17.501   8.412
 2046POPC   C3A27677  43.981  17.336   8.007
 2046POPC   C4A27678  44.014  17.462   7.604
 2046POPC   C1B27679  44.083  17.925   8.653
 2046POPC   C2B27680  44.386  17.917   8.310
 2046POPC   C3B27681  44.207  17.960   7.924
 2046POPC   C4B27682  44.248  17.893   7.493
 2047POPC   NC327683  39.445  39.494   9.792
 2047POPC   PO427684  38.961  39.069   9.514
 2047POPC   GL127685  38.989  39.330   9.152
 2047POPC   GL227686  39.340  39.210   9.125
 2047POPC   C1A27687  39.144  39.471   8.727
 2047POPC   D2A27688  39.397  39.413   8.348
 2047POPC   C3A27689  39.074  39.336   8.044
 2047POPC   C4A27690  38.976  39.475   7.648
 2047POPC   C1B27691  39.515  39.069   8.736
 2047POPC   C2B27692  39.562  38.909   8.303
 2047POPC   C3B27693  39.487  38.967   7.854
 2047POPC   C4B27694  39.561  38.795   7.396
 2048POPC   NC327695  30.289  34.648   9.451
 2048POPC   PO427696  30.961  34.924   9.485
 2048POPC   GL127697  30.716  34.668   9.170
 2048POPC   GL227698  30.831  34.339   9.021
 2048POPC   C1A27699  30.578  34.744   8.761
 2048POPC   D2A27700  30.733  34.677   8.384
 2048POPC   C3A27701  30.499  34.491   8.050
 2048POPC   C4A27702  30.548  34.760   7.693
 2048POPC   C1B27703  31.075  34.627   8.797
 2048POPC   C2B27704  31.233  34.561   8.400
 2048POPC   C3B27705  31.058  34.618   7.973
 2048POPC   C4B27706  30.840  34.335   7.702
 2049POPC   NC327707  28.644  30.122   9.327
 2049POPC   PO427708  28.077  29.819   9.481
 2049POPC   GL127709  28.405  29.705   9.209
 2049POPC   GL227710  28.661  29.534   9.352
 2049POPC   C1A27711  28.393  29.762   8.777
 2049POPC   D2A27712  28.240  29.883   8.380
 2049POPC   C3A27713  28.162  29.672   8.062
 2049POPC   C4A27714  28.197  29.942   7.715
 2049POPC   C1B27715  28.769  29.469   8.938
 2049POPC   C2B27716  28.710  29.499   8.483
 2049POPC   C3B27717  28.767  29.533   8.038
 2049POPC   C4B27718  28.454  29.509   7.691
 2050POPC   NC327719   5.324   8.566   9.431
 2050POPC   PO427720   5.275   8.023   9.734
 2050POPC   GL127721   5.146   8.154   9.203
 2050POPC   GL227722   4.791   8.226   9.104
 2050POPC   C1A27723   5.061   7.950   8.782
 2050POPC   D2A27724   5.230   8.038   8.392
 2050POPC   C3A27725   5.039   8.038   7.982
 2050POPC   C4A27726   5.263   7.792   7.708
 2050POPC   C1B27727   5.012   8.448   8.734
 2050POPC   C2B27728   4.973   8.477   8.276
 2050POPC   C3B27729   5.038   8.534   7.839
 2050POPC   C4B27730   4.902   8.281   7.496
 2051POPC   NC327731  35.700   5.554   9.516
 2051POPC   PO427732  35.141   5.949   9.657
 2051POPC   GL127733  35.284   5.756   9.247
 2051POPC   GL227734  35.215   6.012   8.965
 2051POPC   C1A27735  35.333   5.544   8.834
 2051POPC   D2A27736  35.033   5.746   8.538
 2051POPC   C3A27737  35.117   5.835   8.105
 2051POPC   C4A27738  34.972   5.963   7.689
 2051POPC   C1B27739  35.614   5.982   8.728
 2051POPC   C2B27740  35.729   5.745   8.385
 2051POPC   C3B27741  35.626   5.739   7.952
 2051POPC   C4B27742  35.458   6.056   7.702
 2052POPC   NC327743  24.335  41.378   9.873
 2052POPC   PO427744  24.706  41.761   9.450
 2052POPC   GL127745  24.481  41.591   9.128
 2052POPC   GL227746  24.336  41.305   9.298
 2052POPC   C1A27747  24.649  41.604   8.710
 2052POPC   D2A27748  24.943  41.663   8.357
 2052POPC   C3A27749  24.683  41.580   8.003
 2052POPC   C4A27750  24.744  41.340   7.654
 2052POPC   C1B27751  24.326  41.208   8.828
 2052POPC   C2B27752  24.313  41.332   8.370
 2052POPC   C3B27753  24.327  41.167   7.934
 2052POPC   C4B27754  24.305  41.171   7.461
 2053POPC   NC327755  20.485  24.716   9.458
 2053POPC   PO427756  21.115  24.869   9.381
 2053POPC   GL127757  20.878  24.607   9.097
 2053POPC   GL227758  20.638  24.319   9.174
 2053POPC   C1A27759  20.935  24.393   8.727
 2053POPC   D2A27760  21.028  24.074   8.400
 2053POPC   C3A27761  20.870  24.247   8.018
 2053POPC   C4A27762  20.777  24.690   8.020
 2053POPC   C1B27763  20.402  24.437   8.808
 2053POPC   C2B27764  20.533  24.386   8.392
 2053POPC   C3B27765  20.350  24.222   8.028
 2053POPC   C4B27766  20.517  24.367   7.657
 2054POPC   NC327767  40.456   8.978   9.423
 2054POPC   PO427768  41.061   8.674   9.353
 2054POPC   GL127769  41.079   9.071   9.111
 2054POPC   GL227770  40.732   9.159   9.023
 2054POPC   C1A27771  41.273   9.219   8.724
 2054POPC   D2A27772  41.302   9.009   8.338
 2054POPC   C3A27773  41.172   9.135   7.957
 2054POPC   C4A27774  40.832   9.311   7.786
 2054POPC   C1B27775  40.865   8.913   8.658
 2054POPC   C2B27776  40.927   8.688   8.256
 2054POPC   C3B27777  40.825   8.763   7.824
 2054POPC   C4B27778  40.449   8.731   7.554
 2055POPC   NC327779  10.112   6.423   9.695
 2055POPC   PO427780  10.637   6.807   9.411
 2055POPC   GL127781  10.813   6.712   9.061
 2055POPC   GL227782  10.869   6.344   9.008
 2055POPC   C1A27783  10.616   6.760   8.680
 2055POPC   D2A27784  10.376   6.612   8.332
 2055POPC   C3A27785  10.572   6.736   7.981
 2055POPC   C4A27786  10.433   7.023   7.722
 2055POPC   C1B27787  10.509   6.255   8.667
 2055POPC   C2B27788  10.552   6.114   8.231
 2055POPC   C3B27789  10.497   6.278   7.781
 2055POPC   C4B27790  10.767   6.530   7.549
 2056POPC   NC327791   2.535   4.597   9.478
 2056POPC   PO427792   2.359   3.979   9.239
 2056POPC   GL127793   2.792   3.979   9.123
 2056POPC   GL227794   2.951   4.295   9.211
 2056POPC   C1A27795   2.781   4.111   8.711
 2056POPC   D2A27796   2.522   3.986   8.387
 2056POPC   C3A27797   2.719   4.152   8.038
 2056POPC   C4A27798   2.569   4.131   7.620
 2056POPC   C1B27799   3.119   4.473   8.827
 2056POPC   C2B27800   2.908   4.492   8.392
 2056POPC   C3B27801   2.888   4.701   8.011
 2056POPC   C4B27802   2.975   4.431   7.682
 2057POPC   NC327803  22.446  36.570   9.421
 2057POPC   PO427804  21.910  36.926   9.423
 2057POPC   GL127805  22.105  37.015   9.060
 2057POPC   GL227806  22.330  36.820   9.012
 2057POPC   C1A27807  21.978  36.950   8.641
 2057POPC   D2A27808  22.034  37.196   8.290
 2057POPC   C3A27809  22.136  36.971   7.915
 2057POPC   C4A27810  22.304  37.098   7.533
 2057POPC   C1B27811  22.310  36.541   8.693
 2057POPC   C2B27812  22.233  36.634   8.296
 2057POPC   C3B27813  22.501  36.602   7.970
 2057POPC   C4B27814  22.333  36.583   7.571
 2058POPC   NC327815   8.053  35.669   9.426
 2058POPC   PO427816   8.540  35.235   9.351
 2058POPC   GL127817   8.229  35.346   9.052
 2058POPC   GL227818   7.907  35.151   9.141
 2058POPC   C1A27819   8.294  35.671   8.731
 2058POPC   D2A27820   8.471  35.705   8.326
 2058POPC   C3A27821   8.257  35.603   7.954
 2058POPC   C4A27822   8.212  35.178   7.844
 2058POPC   C1B27823   8.004  35.038   8.701
 2058POPC   C2B27824   8.050  35.347   8.366
 2058POPC   C3B27825   7.776  35.448   8.034
 2058POPC   C4B27826   7.713  35.094   7.788
 2059POPC   NC327827  16.497  29.400   9.404
 2059POPC   PO427828  17.150  29.174   9.481
 2059POPC   GL127829  16.867  29.246   9.107
 2059POPC   GL227830  16.589  28.995   9.082
 2059POPC   C1A27831  16.666  29.311   8.705
 2059POPC   D2A27832  16.858  29.099   8.375
 2059POPC   C3A27833  16.757  29.217   8.005
 2059POPC   C4A27834  16.673  29.132   7.627
 2059POPC   C1B27835  16.895  28.774   8.770
 2059POPC   C2B27836  17.094  28.653   8.328
 2059POPC   C3B27837  17.040  28.632   7.872
 2059POPC   C4B27838  17.001  28.801   7.443
 2060POPC   NC327839  35.365   6.256   9.394
 2060POPC   PO427840  35.294   6.925   9.504
 2060POPC   GL127841  35.286   6.803   9.135
 2060POPC   GL227842  35.591   6.668   9.114
 2060POPC   C1A27843  35.065   6.878   8.776
 2060POPC   D2A27844  35.027   6.672   8.399
 2060POPC   C3A27845  35.297   6.806   8.086
 2060POPC   C4A27846  35.364   6.983   7.681
 2060POPC   C1B27847  35.398   6.465   8.754
 2060POPC   C2B27848  35.308   6.220   8.401
 2060POPC   C3B27849  35.117   6.334   8.014
 2060POPC   C4B27850  35.249   6.500   7.671
 2061POPC   NC327851  14.993  18.223   9.460
 2061POPC   PO427852  15.582  18.684   9.550
 2061POPC   GL127853  15.418  18.423   9.124
 2061POPC   GL227854  15.196  18.626   8.872
 2061POPC   C1A27855  15.392  18.153   8.738
 2061POPC   D2A27856  15.527  18.112   8.304
 2061POPC   C3A27857  15.284  18.280   7.936
 2061POPC   C4A27858  15.314  18.578   7.574
 2061POPC   C1B27859  14.922  18.384   8.628
 2061POPC   C2B27860  14.997  18.104   8.342
 2061POPC   C3B27861  14.838  18.001   7.957
 2061POPC   C4B27862  14.956  18.124   7.556
 2062POPC   NC327863   5.645  11.623  10.037
 2062POPC   PO427864   5.797  11.152   9.650
 2062POPC   GL127865   5.680  11.426   9.255
 2062POPC   GL227866   5.963  11.582   9.054
 2062POPC   C1A27867   5.566  11.395   8.796
 2062POPC   D2A27868   5.711  11.195   8.396
 2062POPC   C3A27869   5.792  11.431   8.024
 2062POPC   C4A27870   5.716  11.154   7.699
 2062POPC   C1B27871   6.072  11.287   8.763
 2062POPC   C2B27872   6.224  11.316   8.334
 2062POPC   C3B27873   6.146  11.042   7.994
 2062POPC   C4B27874   6.198  11.271   7.647
 2063POPC   NC327875   3.786  33.247   9.388
 2063POPC   PO427876   3.158  32.913   9.535
 2063POPC   GL127877   3.291  33.142   9.188
 2063POPC   GL227878   3.390  32.818   9.077
 2063POPC   C1A27879   3.228  33.145   8.730
 2063POPC   D2A27880   3.090  33.003   8.310
 2063POPC   C3A27881   3.340  33.216   8.000
 2063POPC   C4A27882   3.821  33.195   8.017
 2063POPC   C1B27883   3.554  32.747   8.633
 2063POPC   C2B27884   3.555  32.786   8.177
 2063POPC   C3B27885   3.359  32.749   7.767
 2063POPC   C4B27886   3.310  32.837   7.309
 2064POPC   NC327887  19.290  37.451   9.568
 2064POPC   PO427888  18.644  37.765   9.557
 2064POPC   GL127889  18.898  37.517   9.205
 2064POPC   GL227890  19.296  37.609   9.098
 2064POPC   C1A27891  18.937  37.502   8.755
 2064POPC   D2A27892  19.273  37.535   8.429
 2064POPC   C3A27893  19.098  37.473   8.019
 2064POPC   C4A27894  18.697  37.370   7.816
 2064POPC   C1B27895  19.089  37.979   8.965
 2064POPC   C2B27896  18.999  37.973   8.545
 2064POPC   C3B27897  19.191  37.979   8.158
 2064POPC   C4B27898  19.089  38.092   7.758
 2065POPC   NC327899  15.427  17.532   9.744
 2065POPC   PO427900  15.702  17.017   9.462
 2065POPC   GL127901  15.918  17.374   9.192
 2065POPC   GL227902  16.251  17.545   9.300
 2065POPC   C1A27903  15.821  17.495   8.742
 2065POPC   D2A27904  15.711  17.379   8.299
 2065POPC   C3A27905  15.663  17.719   8.017
 2065POPC   C4A27906  15.707  17.800   7.570
 2065POPC   C1B27907  16.348  17.490   8.869
 2065POPC   C2B27908  16.223  17.632   8.460
 2065POPC   C3B27909  16.147  17.514   8.057
 2065POPC   C4B27910  16.461  17.311   7.871
 2066POPC   NC327911  36.293   0.729   9.415
 2066POPC   PO427912  36.367   0.136   9.750
 2066POPC   GL127913  36.186   0.254   9.247
 2066POPC   GL227914  36.431   0.426   9.028
 2066POPC   C1A27915  36.024   0.221   8.803
 2066POPC   D2A27916  36.258   0.180   8.409
 2066POPC   C3A27917  36.094   0.186   7.988
 2066POPC   C4A27918  36.084   0.247   7.543
 2066POPC   C1B27919  36.291   0.644   8.644
 2066POPC   C2B27920  36.135   0.814   8.259
 2066POPC   C3B27921  36.196   0.668   7.867
 2066POPC   C4B27922  36.530   0.541   7.640
 2067POPC   NC327923   3.695  11.217   9.871
 2067POPC   PO427924   3.737  11.659   9.322
 2067POPC   GL127925   3.728  11.453   8.959
 2067POPC   GL227926   3.704  11.102   9.030
 2067POPC   C1A27927   3.814  11.307   8.554
 2067POPC   D2A27928   3.659  11.026   8.260
 2067POPC   C3A27929   3.448  11.251   7.981
 2067POPC   C4A27930   3.628  11.392   7.628
 2067POPC   C1B27931   3.357  11.127   8.698
 2067POPC   C2B27932   3.154  10.902   8.355
 2067POPC   C3B27933   3.008  11.003   7.932
 2067POPC   C4B27934   3.252  11.023   7.542
 2068POPC   NC327935  26.219  27.745   9.434
 2068POPC   PO427936  25.759  27.129   9.450
 2068POPC   GL127937  25.983  27.311   9.071
 2068POPC   GL227938  26.339  27.415   9.059
 2068POPC   C1A27939  26.091  27.274   8.619
 2068POPC   D2A27940  25.953  27.267   8.196
 2068POPC   C3A27941  25.933  27.576   7.873
 2068POPC   C4A27942  25.997  27.473   7.430
 2068POPC   C1B27943  26.170  27.753   8.779
 2068POPC   C2B27944  26.164  27.758   8.349
 2068POPC   C3B27945  26.410  27.630   8.012
 2068POPC   C4B27946  26.386  27.798   7.560
 2069POPC   NC327947  18.131  11.366   9.509
 2069POPC   PO427948  18.305  10.669   9.407
 2069POPC   GL127949  18.293  11.058   9.135
 2069POPC   GL227950  18.378  11.444   9.080
 2069POPC   C1A27951  18.077  11.186   8.755
 2069POPC   D2A27952  18.003  10.977   8.376
 2069POPC   C3A27953  18.051  11.188   7.992
 2069POPC   C4A27954  18.366  11.033   7.730
 2069POPC   C1B27955  18.395  11.639   8.642
 2069POPC   C2B27956  18.321  11.582   8.177
 2069POPC   C3B27957  18.405  11.555   7.688
 2069POPC   C4B27958  18.591  11.766   7.271
 2070POPC   NC327959  10.449  42.420   9.630
 2070POPC   PO427960  10.883  42.883   9.481
 2070POPC   GL127961  10.603  42.650   9.176
 2070POPC   GL227962  10.587  42.282   9.144
 2070POPC   C1A27963  10.361  42.600   8.798
 2070POPC   D2A27964  10.436  42.692   8.375
 2070POPC   C3A27965  10.207  42.470   8.076
 2070POPC   C4A27966  10.432  42.590   7.769
 2070POPC   C1B27967  10.732  42.158   8.724
 2070POPC   C2B27968  10.807  42.292   8.292
 2070POPC   C3B27969  10.635  42.132   7.885
 2070POPC   C4B27970  10.618  42.060   7.416
 2071POPC   NC327971  43.590   5.503   9.853
 2071POPC   PO427972  44.026   5.883   9.461
 2071POPC   GL127973  43.879   6.047   9.066
 2071POPC   GL227974  43.723   5.792   8.852
 2071POPC   C1A27975  43.971   6.217   8.662
 2071POPC   D2A27976  44.016   5.884   8.375
 2071POPC   C3A27977  43.867   5.918   7.974
 2071POPC   C4A27978  44.010   6.192   7.669
 2071POPC   C1B27979  43.948   5.453   8.656
 2071POPC   C2B27980  44.153   5.374   8.267
 2071POPC   C3B27981  44.111   5.364   7.816
 2071POPC   C4B27982  44.115   5.705   7.522
 2072POPC   NC327983   9.977  24.172   9.590
 2072POPC   PO427984   9.873  24.807   9.404
 2072POPC   GL127985   9.818  24.406   9.150
 2072POPC   GL227986   9.485  24.343   8.986
 2072POPC   C1A27987   9.929  24.302   8.738
 2072POPC   D2A27988   9.747  24.523   8.385
 2072POPC   C3A27989   9.861  24.353   7.998
 2072POPC   C4A27990  10.123  24.686   7.975
 2072POPC   C1B27991   9.361  24.701   8.705
 2072POPC   C2B27992   9.273  24.816   8.281
 2072POPC   C3B27993   9.479  24.688   7.932
 2072POPC   C4B27994   9.454  24.299   7.666
 2073POPC   NC327995  16.799  37.109   9.446
 2073POPC   PO427996  16.847  37.734   9.521
 2073POPC   GL127997  16.841  37.851   9.115
 2073POPC   GL227998  17.170  37.911   9.042
 2073POPC   C1A27999  16.749  37.632   8.742
 2073POPC   D2A28000  16.951  37.589   8.337
 2073POPC   C3A28001  16.733  37.703   7.983
 2073POPC   C4A28002  16.409  37.945   7.816
 2073POPC   C1B28003  17.072  38.016   8.635
 2073POPC   C2B28004  16.722  38.064   8.389
 2073POPC   C3B28005  16.771  38.227   8.003
 2073POPC   C4B28006  16.954  38.113   7.626
 2074POPC   NC328007  11.013  35.714   9.371
 2074POPC   PO428008  11.651  35.491   9.490
 2074POPC   GL128009  11.367  35.267   9.177
 2074POPC   GL228010  11.274  35.563   8.973
 2074POPC   C1A28011  11.173  35.118   8.775
 2074POPC   D2A28012  11.365  35.398   8.482
 2074POPC   C3A28013  11.512  35.301   8.083
 2074POPC   C4A28014  11.676  35.648   7.827
 2074POPC   C1B28015  10.872  35.529   8.726
 2074POPC   C2B28016  10.878  35.381   8.335
 2074POPC   C3B28017  11.084  35.557   8.009
 2074POPC   C4B28018  11.006  35.610   7.601
 2075POPC   NC328019  43.539  24.082   9.504
 2075POPC   PO428020  44.042  23.598   9.744
 2075POPC   GL128021  44.007  23.818   9.306
 2075POPC   GL228022  44.331  23.975   9.180
 2075POPC   C1A28023  43.928  23.714   8.847
 2075POPC   D2A28024  43.801  23.378   8.514
 2075POPC   C3A28025  43.644  23.455   8.060
 2075POPC   C4A28026  43.658  23.812   7.714
 2075POPC   C1B28027  44.328  24.001   8.712
 2075POPC   C2B28028  44.050  23.807   8.359
 2075POPC   C3B28029  44.102  23.640   7.951
 2075POPC   C4B28030  44.159  23.861   7.548
 2076POPC   NC328031   2.088  29.132   9.580
 2076POPC   PO428032   2.403  28.729   9.177
 2076POPC   GL128033   2.271  29.137   9.053
 2076POPC   GL228034   1.916  29.153   9.100
 2076POPC   C1A28035   2.295  29.229   8.610
 2076POPC   D2A28036   2.144  28.949   8.263
 2076POPC   C3A28037   2.320  28.986   7.852
 2076POPC   C4A28038   2.215  29.260   7.531
 2076POPC   C1B28039   1.851  29.426   8.770
 2076POPC   C2B28040   1.814  29.375   8.342
 2076POPC   C3B28041   1.913  29.381   7.913
 2076POPC   C4B28042   1.756  29.448   7.457
 2077POPC   NC328043   8.925   2.037   9.323
 2077POPC   PO428044   9.308   1.520   9.518
 2077POPC   GL128045   9.168   1.618   9.041
 2077POPC   GL228046   9.220   1.966   8.924
 2077POPC   C1A28047   8.880   1.685   8.636
 2077POPC   D2A28048   8.841   1.553   8.184
 2077POPC   C3A28049   9.208   1.612   7.923
 2077POPC   C4A28050   9.006   1.690   7.522
 2077POPC   C1B28051   8.968   2.195   8.640
 2077POPC   C2B28052   8.783   2.053   8.269
 2077POPC   C3B28053   9.043   2.086   7.901
 2077POPC   C4B28054   9.096   2.392   7.634
 2078POPC   NC328055  29.372   7.840   9.644
 2078POPC   PO428056  28.945   8.323   9.630
 2078POPC   GL128057  29.103   8.300   9.204
 2078POPC   GL228058  29.394   8.099   9.160
 2078POPC   C1A28059  29.295   8.486   8.819
 2078POPC   D2A28060  29.119   8.367   8.427
 2078POPC   C3A28061  29.229   8.477   8.009
 2078POPC   C4A28062  29.027   8.349   7.613
 2078POPC   C1B28063  29.263   7.939   8.734
 2078POPC   C2B28064  29.387   7.957   8.278
 2078POPC   C3B28065  29.339   8.008   7.828
 2078POPC   C4B28066  29.390   8.092   7.375
 2079POPC   NC328067  19.890  41.643   9.554
 2079POPC   PO428068  19.353  41.850   9.237
 2079POPC   GL128069  19.751  41.726   9.043
 2079POPC   GL228070  19.910  41.443   9.086
 2079POPC   C1A28071  20.132  41.812   8.770
 2079POPC   D2A28072  20.190  41.745   8.327
 2079POPC   C3A28073  19.810  41.761   8.086
 2079POPC   C4A28074  19.831  41.993   7.734
 2079POPC   C1B28075  19.816  41.433   8.631
 2079POPC   C2B28076  19.877  41.287   8.240
 2079POPC   C3B28077  20.072  41.374   7.866
 2079POPC   C4B28078  20.011  41.257   7.414
 2080POPC   NC328079  39.662  42.702   9.351
 2080POPC   PO428080  39.699  42.080   9.407
 2080POPC   GL128081  39.874  42.347   9.061
 2080POPC   GL228082  40.201  42.494   9.000
 2080POPC   C1A28083  39.868  42.427   8.627
 2080POPC   D2A28084  40.047  42.152   8.327
 2080POPC   C3A28085  39.853  42.147   7.967
 2080POPC   C4A28086  39.844  42.235   7.529
 2080POPC   C1B28087  40.385  42.491   8.553
 2080POPC   C2B28088  40.087  42.638   8.215
 2080POPC   C3B28089  40.139  42.567   7.787
 2080POPC   C4B28090  40.053  42.675   7.362
 2081POPC   NC328091  18.373   2.429   9.468
 2081POPC   PO428092  17.948   1.862   9.418
 2081POPC   GL128093  18.111   2.133   9.088
 2081POPC   GL228094  18.469   2.107   9.086
 2081POPC   C1A28095  18.089   1.978   8.646
 2081POPC   D2A28096  17.969   1.770   8.253
 2081POPC   C3A28097  17.921   2.067   7.905
 2081POPC   C4A28098  18.186   2.095   7.498
 2081POPC   C1B28099  18.549   2.179   8.655
 2081POPC   C2B28100  18.508   1.911   8.276
 2081POPC   C3B28101  18.339   1.751   7.872
 2081POPC   C4B28102  18.505   1.718   7.446
 2082POPC   NC328103  22.857  25.109   9.488
 2082POPC   PO428104  23.113  25.739   9.628
 2082POPC   GL128105  23.119  25.524   9.215
 2082POPC   GL228106  23.175  25.164   9.082
 2082POPC   C1A28107  23.009  25.544   8.780
 2082POPC   D2A28108  22.913  25.256   8.452
 2082POPC   C3A28109  23.102  25.379   8.077
 2082POPC   C4A28110  23.126  25.499   7.636
 2082POPC   C1B28111  23.074  24.837   8.746
 2082POPC   C2B28112  23.097  24.794   8.278
 2082POPC   C3B28113  23.043  24.938   7.843
 2082POPC   C4B28114  22.885  25.101   7.454
 2083POPC   NC328115  22.452  38.026   9.485
 2083POPC   PO428116  21.924  37.641   9.482
 2083POPC   GL128117  22.151  37.763   9.119
 2083POPC   GL228118  22.354  37.478   9.169
 2083POPC   C1A28119  22.184  37.926   8.673
 2083POPC   D2A28120  22.031  37.932   8.255
 2083POPC   C3A28121  22.318  37.941   7.928
 2083POPC   C4A28122  22.165  37.701   7.589
 2083POPC   C1B28123  22.268  37.396   8.745
 2083POPC   C2B28124  22.403  37.560   8.368
 2083POPC   C3B28125  22.373  37.427   7.961
 2083POPC   C4B28126  22.629  37.531   7.610
 2084POPC   NC328127   9.540  14.319   9.403
 2084POPC   PO428128  10.091  13.996   9.568
 2084POPC   GL128129   9.920  14.128   9.134
 2084POPC   GL228130   9.934  14.494   9.113
 2084POPC   C1A28131   9.700  14.326   8.722
 2084POPC   D2A28132   9.665  14.137   8.343
 2084POPC   C3A28133   9.836  14.253   7.983
 2084POPC   C4A28134   9.533  14.435   7.766
 2084POPC   C1B28135  10.008  14.746   8.730
 2084POPC   C2B28136   9.779  14.675   8.333
 2084POPC   C3B28137   9.841  14.788   7.933
 2084POPC   C4B28138   9.897  14.704   7.470
 2085POPC   NC328139   8.496  34.092   9.770
 2085POPC   PO428140   8.653  33.528   9.428
 2085POPC   GL128141   8.882  33.583   9.081
 2085POPC   GL228142   9.033  33.909   9.009
 2085POPC   C1A28143   9.059  33.414   8.746
 2085POPC   D2A28144   8.833  33.476   8.424
 2085POPC   C3A28145   9.018  33.663   8.110
 2085POPC   C4A28146   8.891  33.570   7.674
 2085POPC   C1B28147   8.738  34.044   8.666
 2085POPC   C2B28148   8.499  34.004   8.294
 2085POPC   C3B28149   8.749  34.030   7.922
 2085POPC   C4B28150   8.743  34.060   7.503
 2086POPC   NC328151  27.703   6.077   9.392
 2086POPC   PO428152  27.306   5.476   9.433
 2086POPC   GL128153  27.413   5.752   9.097
 2086POPC   GL228154  27.271   6.090   9.080
 2086POPC   C1A28155  27.626   5.647   8.726
 2086POPC   D2A28156  27.704   5.442   8.345
 2086POPC   C3A28157  27.607   5.664   7.976
 2086POPC   C4A28158  27.773   5.918   7.672
 2086POPC   C1B28159  27.536   6.146   8.739
 2086POPC   C2B28160  27.750   6.034   8.372
 2086POPC   C3B28161  27.530   6.191   8.057
 2086POPC   C4B28162  27.587   6.410   7.695
 2087POPC   NC328163  20.892   9.160   9.596
 2087POPC   PO428164  20.360   8.735   9.658
 2087POPC   GL128165  20.603   8.886   9.253
 2087POPC   GL228166  20.730   9.219   9.127
 2087POPC   C1A28167  20.548   8.889   8.793
 2087POPC   D2A28168  20.474   9.216   8.524
 2087POPC   C3A28169  20.470   9.018   8.169
 2087POPC   C4A28170  20.551   8.927   7.778
 2087POPC   C1B28171  20.992   9.345   8.788
 2087POPC   C2B28172  20.884   9.471   8.382
 2087POPC   C3B28173  20.914   9.273   8.028
 2087POPC   C4B28174  20.979   9.185   7.624
 2088POPC   NC328175  21.605  39.764   9.437
 2088POPC   PO428176  21.103  40.239   9.319
 2088POPC   GL128177  21.456  40.103   9.079
 2088POPC   GL228178  21.237  39.784   9.067
 2088POPC   C1A28179  21.620  39.798   8.753
 2088POPC   D2A28180  21.470  39.653   8.358
 2088POPC   C3A28181  21.520  40.037   8.124
 2088POPC   C4A28182  21.625  40.213   7.742
 2088POPC   C1B28183  21.164  40.015   8.669
 2088POPC   C2B28184  21.023  39.919   8.273
 2088POPC   C3B28185  21.160  39.733   7.901
 2088POPC   C4B28186  20.850  39.743   7.619
 2089POPC   NC328187   7.930  32.537   9.472
 2089POPC   PO428188   8.098  31.849   9.512
 2089POPC   GL128189   8.110  32.136   9.156
 2089POPC   GL228190   8.417  32.188   9.066
 2089POPC   C1A28191   8.053  32.191   8.686
 2089POPC   D2A28192   7.826  32.201   8.315
 2089POPC   C3A28193   8.005  32.038   7.976
 2089POPC   C4A28194   8.060  32.104   7.542
 2089POPC   C1B28195   8.550  32.111   8.670
 2089POPC   C2B28196   8.450  32.102   8.247
 2089POPC   C3B28197   8.487  32.125   7.816
 2089POPC   C4B28198   8.489  31.840   7.437
 2090POPC   NC328199   1.034  40.866   9.388
 2090POPC   PO428200   1.563  40.566   9.637
 2090POPC   GL128201   1.462  40.668   9.194
 2090POPC   GL228202   1.579  40.960   9.057
 2090POPC   C1A28203   1.341  40.568   8.751
 2090POPC   D2A28204   1.426  40.598   8.317
 2090POPC   C3A28205   1.101  40.570   8.010
 2090POPC   C4A28206   1.147  40.438   7.589
 2090POPC   C1B28207   1.213  41.075   8.793
 2090POPC   C2B28208   1.078  40.959   8.402
 2090POPC   C3B28209   1.301  41.032   8.036
 2090POPC   C4B28210   1.153  40.978   7.640
 2091POPC   NC328211  42.226  34.068   9.357
 2091POPC   PO428212  42.663  34.700   9.474
 2091POPC   GL128213  42.563  34.609   9.112
 2091POPC   GL228214  42.607  34.257   9.085
 2091POPC   C1A28215  42.518  34.840   8.761
 2091POPC   D2A28216  42.714  34.793   8.378
 2091POPC   C3A28217  42.442  34.803   8.074
 2091POPC   C4A28218  42.145  34.644   7.814
 2091POPC   C1B28219  42.401  34.350   8.689
 2091POPC   C2B28220  42.198  34.429   8.323
 2091POPC   C3B28221  42.021  34.175   8.022
 2091POPC   C4B28222  41.966  34.217   7.604
 2092POPC   NC328223  41.934   2.192   9.655
 2092POPC   PO428224  42.607   1.981   9.478
 2092POPC   GL128225  42.389   1.978   9.118
 2092POPC   GL228226  42.253   2.272   9.232
 2092POPC   C1A28227  42.230   1.794   8.729
 2092POPC   D2A28228  42.070   1.654   8.324
 2092POPC   C3A28229  42.183   1.812   7.927
 2092POPC   C4A28230  42.358   2.153   7.700
 2092POPC   C1B28231  42.310   2.328   8.775
 2092POPC   C2B28232  42.260   2.147   8.352
 2092POPC   C3B28233  42.004   2.305   8.015
 2092POPC   C4B28234  41.897   2.310   7.592
 2093POPC   NC328235  40.699  27.160   9.536
 2093POPC   PO428236  40.940  27.838   9.465
 2093POPC   GL128237  40.806  27.679   9.083
 2093POPC   GL228238  40.952  27.364   9.146
 2093POPC   C1A28239  40.445  27.711   8.760
 2093POPC   D2A28240  40.358  27.861   8.376
 2093POPC   C3A28241  40.668  27.880   8.121
 2093POPC   C4A28242  40.874  27.586   7.890
 2093POPC   C1B28243  40.750  27.294   8.752
 2093POPC   C2B28244  40.465  27.307   8.408
 2093POPC   C3B28245  40.610  27.174   8.010
 2093POPC   C4B28246  40.614  27.299   7.562
 2094POPC   NC328247  32.621  32.693   9.450
 2094POPC   PO428248  31.958  33.025   9.418
 2094POPC   GL128249  32.097  33.132   9.067
 2094POPC   GL228250  32.418  33.038   9.110
 2094POPC   C1A28251  32.147  32.934   8.695
 2094POPC   D2A28252  32.368  32.793   8.406
 2094POPC   C3A28253  32.108  32.679   8.092
 2094POPC   C4A28254  32.166  32.820   7.727
 2094POPC   C1B28255  32.465  33.332   8.792
 2094POPC   C2B28256  32.602  33.249   8.370
 2094POPC   C3B28257  32.479  33.138   7.962
 2094POPC   C4B28258  32.646  32.976   7.547
 2095POPC   NC328259  32.144  38.217   9.464
 2095POPC   PO428260  32.461  38.749   9.587
 2095POPC   GL128261  32.216  38.667   9.228
 2095POPC   GL228262  32.436  38.398   9.090
 2095POPC   C1A28263  31.989  38.590   8.852
 2095POPC   D2A28264  32.186  38.600   8.444
 2095POPC   C3A28265  32.046  38.646   8.051
 2095POPC   C4A28266  32.363  38.516   7.705
 2095POPC   C1B28267  32.254  38.154   8.772
 2095POPC   C2B28268  32.376  38.128   8.383
 2095POPC   C3B28269  32.165  38.143   8.050
 2095POPC   C4B28270  31.920  38.271   7.736
 2096POPC   NC328271  10.073  37.811   9.576
 2096POPC   PO428272   9.488  37.846   9.253
 2096POPC   GL128273   9.711  37.613   8.993
 2096POPC   GL228274  10.027  37.574   9.110
 2096POPC   C1A28275   9.829  37.863   8.654
 2096POPC   D2A28276   9.574  38.041   8.347
 2096POPC   C3A28277   9.710  37.945   7.951
 2096POPC   C4A28278   9.744  37.841   7.527
 2096POPC   C1B28279  10.085  37.421   8.654
 2096POPC   C2B28280   9.988  37.609   8.233
 2096POPC   C3B28281   9.769  37.433   7.887
 2096POPC   C4B28282   9.956  37.130   7.640
 2097POPC   NC328283  33.559  24.439   9.521
 2097POPC   PO428284  34.196  24.587   9.481
 2097POPC   GL128285  33.926  24.388   9.156
 2097POPC   GL228286  33.553  24.250   9.060
 2097POPC   C1A28287  33.760  24.655   8.857
 2097POPC   D2A28288  33.717  24.434   8.526
 2097POPC   C3A28289  33.873  24.601   8.190
 2097POPC   C4A28290  33.828  24.726   7.810
 2097POPC   C1B28291  33.414  24.027   8.709
 2097POPC   C2B28292  33.482  24.067   8.288
 2097POPC   C3B28293  33.694  24.182   7.956
 2097POPC   C4B28294  33.469  24.069   7.668
 2098POPC   NC328295  36.858   3.403   9.786
 2098POPC   PO428296  37.185   3.822   9.420
 2098POPC   GL128297  36.853   3.580   9.218
 2098POPC   GL228298  36.708   3.230   9.299
 2098POPC   C1A28299  36.931   3.571   8.784
 2098POPC   D2A28300  37.136   3.500   8.390
 2098POPC   C3A28301  36.987   3.619   7.979
 2098POPC   C4A28302  37.018   3.384   7.581
 2098POPC   C1B28303  36.662   3.138   8.828
 2098POPC   C2B28304  36.624   3.367   8.410
 2098POPC   C3B28305  36.655   3.209   7.992
 2098POPC   C4B28306  36.745   2.927   7.632
 2099POPC   NC328307  37.315  22.794  10.163
 2099POPC   PO428308  37.685  22.736   9.544
 2099POPC   GL128309  37.534  22.752   9.141
 2099POPC   GL228310  37.440  23.089   9.152
 2099POPC   C1A28311  37.758  22.790   8.739
 2099POPC   D2A28312  37.740  22.860   8.283
 2099POPC   C3A28313  37.981  22.609   7.958
 2099POPC   C4A28314  37.808  22.730   7.557
 2099POPC   C1B28315  37.379  23.137   8.747
 2099POPC   C2B28316  37.424  23.310   8.362
 2099POPC   C3B28317  37.552  23.263   7.929
 2099POPC   C4B28318  37.461  23.141   7.488
 2100POPC   NC328319  30.219  42.845   9.563
 2100POPC   PO428320  29.790  43.311   9.483
 2100POPC   GL128321  29.756  43.101   9.135
 2100POPC   GL228322  30.078  43.025   9.116
 2100POPC   C1A28323  29.797  43.216   8.730
 2100POPC   D2A28324  29.989  43.394   8.416
 2100POPC   C3A28325  29.874  43.265   7.987
 2100POPC   C4A28326  30.009  43.312   7.526
 2100POPC   C1B28327  30.116  42.818   8.756
 2100POPC   C2B28328  30.176  42.949   8.309
 2100POPC   C3B28329  30.271  42.988   7.870
 2100POPC   C4B28330  30.143  42.661   7.584
 2101POPC   NC328331  37.144   7.464   9.490
 2101POPC   PO428332  36.640   7.877   9.479
 2101POPC   GL128333  36.670   7.576   9.125
 2101POPC   GL228334  36.551   7.222   9.070
 2101POPC   C1A28335  36.766   7.515   8.672
 2101POPC   D2A28336  37.018   7.327   8.366
 2101POPC   C3A28337  36.853   7.211   7.980
 2101POPC   C4A28338  36.882   7.461   7.556
 2101POPC   C1B28339  36.452   7.127   8.632
 2101POPC   C2B28340  36.457   7.343   8.286
 2101POPC   C3B28341  36.340   7.256   7.916
 2101POPC   C4B28342  36.609   7.054   7.590
 2102POPC   NC328343  10.349  22.097   9.480
 2102POPC   PO428344   9.712  22.319   9.473
 2102POPC   GL128345   9.961  22.061   9.139
 2102POPC   GL228346   9.689  21.928   8.935
 2102POPC   C1A28347  10.131  22.041   8.700
 2102POPC   D2A28348   9.860  22.135   8.343
 2102POPC   C3A28349   9.874  21.946   7.929
 2102POPC   C4A28350   9.635  22.096   7.598
 2102POPC   C1B28351   9.630  22.359   8.802
 2102POPC   C2B28352   9.575  22.583   8.425
 2102POPC   C3B28353   9.507  22.428   8.034
 2102POPC   C4B28354   9.282  22.450   7.695
 2103POPC   NC328355  12.744  21.559   9.640
 2103POPC   PO428356  12.647  22.292   9.504
 2103POPC   GL128357  12.630  22.190   9.088
 2103POPC   GL228358  12.943  22.099   9.036
 2103POPC   C1A28359  12.647  22.040   8.635
 2103POPC   D2A28360  12.865  22.245   8.301
 2103POPC   C3A28361  12.647  22.287   7.949
 2103POPC   C4A28362  12.687  21.832   7.863
 2103POPC   C1B28363  13.181  22.254   8.729
 2103POPC   C2B28364  13.449  22.169   8.394
 2103POPC   C3B28365  13.331  22.208   7.991
 2103POPC   C4B28366  13.046  22.151   7.682
 2104POPC   NC328367   5.088  21.002   9.579
 2104POPC   PO428368   4.759  21.552   9.658
 2104POPC   GL128369   4.974  21.500   9.235
 2104POPC   GL228370   5.236  21.703   9.150
 2104POPC   C1A28371   5.144  21.338   8.801
 2104POPC   D2A28372   5.002  21.217   8.393
 2104POPC   C3A28373   5.274  21.199   8.030
 2104POPC   C4A28374   5.061  21.209   7.641
 2104POPC   C1B28375   5.110  21.868   8.769
 2104POPC   C2B28376   4.889  21.738   8.428
 2104POPC   C3B28377   4.940  21.603   8.010
 2104POPC   C4B28378   5.153  21.699   7.635
 2105POPC   NC328379   1.444  36.333   9.513
 2105POPC   PO428380   1.133  35.745   9.582
 2105POPC   GL128381   1.139  36.029   9.217
 2105POPC   GL228382   0.937  35.868   9.032
 2105POPC   C1A28383   1.400  36.238   8.855
 2105POPC   D2A28384   1.510  36.398   8.419
 2105POPC   C3A28385   1.441  36.119   8.075
 2105POPC   C4A28386   1.168  36.123   7.770
 2105POPC   C1B28387   0.918  36.132   8.694
 2105POPC   C2B28388   1.019  35.986   8.308
 2105POPC   C3B28389   0.891  35.745   7.967
 2105POPC   C4B28390   1.003  35.691   7.577
 2106POPC   NC328391  37.070  39.032   9.527
 2106POPC   PO428392  36.541  39.465   9.475
 2106POPC   GL128393  36.772  39.242   9.156
 2106POPC   GL228394  37.127  39.344   9.134
 2106POPC   C1A28395  36.809  39.173   8.725
 2106POPC   D2A28396  36.714  38.998   8.362
 2106POPC   C3A28397  36.910  39.138   7.973
 2106POPC   C4A28398  36.867  38.876   7.620
 2106POPC   C1B28399  37.192  39.508   8.755
 2106POPC   C2B28400  37.009  39.501   8.356
 2106POPC   C3B28401  37.196  39.581   7.942
 2106POPC   C4B28402  37.098  39.506   7.488
 2107POPC   NC328403  26.838  21.511   9.566
 2107POPC   PO428404  26.646  20.876   9.539
 2107POPC   GL128405  26.814  21.111   9.211
 2107POPC   GL228406  26.494  21.274   9.236
 2107POPC   C1A28407  27.028  21.268   8.834
 2107POPC   D2A28408  27.197  21.076   8.465
 2107POPC   C3A28409  27.005  21.256   8.092
 2107POPC   C4A28410  26.882  21.325   7.671
 2107POPC   C1B28411  26.492  21.239   8.795
 2107POPC   C2B28412  26.632  21.517   8.450
 2107POPC   C3B28413  26.410  21.711   8.101
 2107POPC   C4B28414  26.514  21.674   7.671
 2108POPC   NC328415   3.501  29.148   9.614
 2108POPC   PO428416   3.578  28.520   9.482
 2108POPC   GL128417   3.676  28.908   9.183
 2108POPC   GL228418   3.399  29.160   9.114
 2108POPC   C1A28419   3.772  29.075   8.746
 2108POPC   D2A28420   3.865  28.843   8.370
 2108POPC   C3A28421   3.750  28.957   7.947
 2108POPC   C4A28422   3.537  29.136   7.600
 2108POPC   C1B28423   3.295  29.235   8.688
 2108POPC   C2B28424   3.522  29.261   8.302
 2108POPC   C3B28425   3.537  29.524   7.932
 2108POPC   C4B28426   3.206  29.513   7.604
 2109POPC   NC328427  20.677   7.508   9.421
 2109POPC   PO428428  20.031   7.442   9.529
 2109POPC   GL128429  20.258   7.430   9.127
 2109POPC   GL228430  20.372   7.130   8.988
 2109POPC   C1A28431  20.453   7.606   8.759
 2109POPC   D2A28432  20.381   7.701   8.328
 2109POPC   C3A28433  20.711   7.553   8.052
 2109POPC   C4A28434  20.773   7.668   7.634
 2109POPC   C1B28435  20.182   7.187   8.606
 2109POPC   C2B28436  20.221   7.127   8.185
 2109POPC   C3B28437  20.161   7.371   7.831
 2109POPC   C4B28438  20.526   7.210   7.704
 2110POPC   NC328439  11.097   1.335   9.265
 2110POPC   PO428440  11.416   0.829   9.598
 2110POPC   GL128441  11.495   0.954   9.177
 2110POPC   GL228442  11.602   1.304   9.145
 2110POPC   C1A28443  11.348   1.040   8.744
 2110POPC   D2A28444  11.099   1.338   8.509
 2110POPC   C3A28445  11.229   1.315   8.072
 2110POPC   C4A28446  11.125   1.297   7.654
 2110POPC   C1B28447  11.530   1.520   8.772
 2110POPC   C2B28448  11.627   1.312   8.392
 2110POPC   C3B28449  11.689   1.558   8.040
 2110POPC   C4B28450  11.539   1.575   7.667
 2111POPC   NC328451   1.943  37.460   9.534
 2111POPC   PO428452   2.007  38.079   9.548
 2111POPC   GL128453   1.992  37.855   9.196
 2111POPC   GL228454   1.657  37.694   9.192
 2111POPC   C1A28455   2.187  37.873   8.808
 2111POPC   D2A28456   2.149  37.605   8.462
 2111POPC   C3A28457   2.262  37.758   8.062
 2111POPC   C4A28458   2.174  37.475   7.699
 2111POPC   C1B28459   1.743  37.644   8.794
 2111POPC   C2B28460   1.713  37.884   8.439
 2111POPC   C3B28461   1.761  37.694   8.052
 2111POPC   C4B28462   1.875  37.881   7.667
 2112POPC   NC328463  23.010   4.017   9.609
 2112POPC   PO428464  23.081   4.657   9.680
 2112POPC   GL128465  23.011   4.462   9.261
 2112POPC   GL228466  23.274   4.229   9.222
 2112POPC   C1A28467  22.785   4.445   8.825
 2112POPC   D2A28468  22.575   4.348   8.419
 2112POPC   C3A28469  22.796   4.189   8.051
 2112POPC   C4A28470  22.883   4.388   7.663
 2112POPC   C1B28471  23.288   4.493   8.810
 2112POPC   C2B28472  23.158   4.553   8.365
 2112POPC   C3B28473  23.292   4.366   7.960
 2112POPC   C4B28474  23.346   4.241   7.501
 2113POPC   NC328475  35.449  36.661   9.468
 2113POPC   PO428476  34.967  37.099   9.438
 2113POPC   GL128477  35.279  37.144   9.127
 2113POPC   GL228478  35.613  37.009   9.120
 2113POPC   C1A28479  35.274  36.989   8.721
 2113POPC   D2A28480  35.094  36.734   8.425
 2113POPC   C3A28481  35.160  36.920   8.068
 2113POPC   C4A28482  34.989  36.823   7.709
 2113POPC   C1B28483  35.833  36.878   8.771
 2113POPC   C2B28484  35.630  36.784   8.412
 2113POPC   C3B28485  35.682  36.892   8.023
 2113POPC   C4B28486  35.489  36.860   7.641
 2114POPC   NC328487  19.637  10.422   9.735
 2114POPC   PO428488  20.113  10.901   9.504
 2114POPC   GL128489  19.754  10.771   9.202
 2114POPC   GL228490  19.712  10.444   9.010
 2114POPC   C1A28491  19.773  10.869   8.747
 2114POPC   D2A28492  19.943  10.680   8.365
 2114POPC   C3A28493  19.804  10.842   7.954
 2114POPC   C4A28494  19.550  10.812   7.612
 2114POPC   C1B28495  19.949  10.209   8.691
 2114POPC   C2B28496  20.199  10.246   8.335
 2114POPC   C3B28497  20.040  10.372   7.941
 2114POPC   C4B28498  19.731  10.189   7.743
 2115POPC   NC328499  31.655  20.824   9.382
 2115POPC   PO428500  31.193  20.304   9.448
 2115POPC   GL128501  31.419  20.454   9.087
 2115POPC   GL228502  31.345  20.820   8.967
 2115POPC   C1A28503  31.699  20.496   8.728
 2115POPC   D2A28504  31.500  20.716   8.380
 2115POPC   C3A28505  31.274  20.617   7.993
 2115POPC   C4A28506  31.350  20.254   7.729
 2115POPC   C1B28507  31.740  20.992   8.764
 2115POPC   C2B28508  31.927  21.004   8.354
 2115POPC   C3B28509  31.757  20.906   7.938
 2115POPC   C4B28510  31.922  21.040   7.503
 2116POPC   NC328511  33.663  38.802   9.379
 2116POPC   PO428512  34.061  38.263   9.601
 2116POPC   GL128513  33.959  38.372   9.158
 2116POPC   GL228514  33.928  38.710   8.949
 2116POPC   C1A28515  33.856  38.244   8.717
 2116POPC   D2A28516  33.608  38.430   8.382
 2116POPC   C3A28517  33.787  38.725   8.091
 2116POPC   C4A28518  33.738  38.457   7.723
 2116POPC   C1B28519  33.513  38.841   8.728
 2116POPC   C2B28520  33.307  38.835   8.314
 2116POPC   C3B28521  33.324  38.740   7.879
 2116POPC   C4B28522  33.607  38.927   7.635
 2117POPC   NC328523  19.443  10.080   9.266
 2117POPC   PO428524  19.197  10.541   9.657
 2117POPC   GL128525  19.222  10.559   9.220
 2117POPC   GL228526  18.965  10.303   9.134
 2117POPC   C1A28527  19.302  10.650   8.789
 2117POPC   D2A28528  19.437  10.757   8.377
 2117POPC   C3A28529  19.406  10.509   8.027
 2117POPC   C4A28530  19.110  10.584   7.719
 2117POPC   C1B28531  18.841  10.471   8.707
 2117POPC   C2B28532  18.921  10.677   8.299
 2117POPC   C3B28533  18.666  10.666   7.937
 2117POPC   C4B28534  18.697  10.312   7.654
 2118POPC   NC328535   3.086  25.156   9.312
 2118POPC   PO428536   3.618  25.553   9.389
 2118POPC   GL128537   3.568  25.216   9.108
 2118POPC   GL228538   3.319  25.359   8.927
 2118POPC   C1A28539   3.686  25.102   8.720
 2118POPC   D2A28540   3.363  25.157   8.411
 2118POPC   C3A28541   3.509  25.035   8.013
 2118POPC   C4A28542   3.310  25.101   7.643
 2118POPC   C1B28543   3.539  25.632   8.715
 2118POPC   C2B28544   3.322  25.767   8.376
 2118POPC   C3B28545   3.245  25.556   8.000
 2118POPC   C4B28546   3.563  25.556   7.712
 2119POPC   NC328547  39.805  41.401   9.307
 2119POPC   PO428548  40.328  41.739   9.583
 2119POPC   GL128549  40.263  41.737   9.131
 2119POPC   GL228550  40.016  41.853   9.103
 2119POPC   C1A28551  40.199  41.552   8.659
 2119POPC   D2A28552  39.919  41.213   8.414
 2119POPC   C3A28553  39.784  41.305   7.976
 2119POPC   C4A28554  40.079  41.236   7.626
 2119POPC   C1B28555  39.832  41.926   8.732
 2119POPC   C2B28556  39.795  41.705   8.345
 2119POPC   C3B28557  40.115  41.653   8.060
 2119POPC   C4B28558  39.971  41.756   7.669
 2120POPC   NC328559   0.515  36.700   9.490
 2120POPC   PO428560   0.938  37.246   9.519
 2120POPC   GL128561   0.673  37.093   9.176
 2120POPC   GL228562   0.297  37.072   9.181
 2120POPC   C1A28563   0.599  36.904   8.787
 2120POPC   D2A28564   0.540  37.096   8.411
 2120POPC   C3A28565   0.659  36.852   8.112
 2120POPC   C4A28566   0.637  36.830   7.724
 2120POPC   C1B28567   0.086  36.939   8.814
 2120POPC   C2B28568  44.986  37.062   8.408
 2120POPC   C3B28569   0.154  36.974   8.036
 2120POPC   C4B28570   0.130  36.806   7.667
 2121POPC   NC328571  32.897  22.191   9.169
 2121POPC   PO428572  33.358  21.767   9.475
 2121POPC   GL128573  33.374  21.989   9.104
 2121POPC   GL228574  33.376  22.366   9.125
 2121POPC   C1A28575  33.182  22.003   8.661
 2121POPC   D2A28576  33.193  22.176   8.292
 2121POPC   C3A28577  32.830  22.171   8.003
 2121POPC   C4A28578  33.182  22.138   7.724
 2121POPC   C1B28579  33.233  22.521   8.705
 2121POPC   C2B28580  32.909  22.583   8.399
 2121POPC   C3B28581  33.102  22.601   8.005
 2121POPC   C4B28582  32.941  22.562   7.617
 2122POPC   NC328583  35.983   4.821   9.560
 2122POPC   PO428584  36.256   5.443   9.602
 2122POPC   GL128585  36.201   5.193   9.248
 2122POPC   GL228586  35.875   5.170   9.191
 2122POPC   C1A28587  36.258   5.130   8.817
 2122POPC   D2A28588  36.500   5.063   8.456
 2122POPC   C3A28589  36.357   5.030   8.070
 2122POPC   C4A28590  36.258   5.167   7.677
 2122POPC   C1B28591  35.742   5.043   8.800
 2122POPC   C2B28592  35.910   5.058   8.395
 2122POPC   C3B28593  35.861   4.963   7.968
 2122POPC   C4B28594  35.735   5.260   7.669
 2123POPC   NC328595  17.854  13.048   9.229
 2123POPC   PO428596  17.582  13.381   9.730
 2123POPC   GL128597  17.536  13.654   9.337
 2123POPC   GL228598  17.828  13.553   9.227
 2123POPC   C1A28599  17.417  13.690   8.861
 2123POPC   D2A28600  17.354  13.453   8.467
 2123POPC   C3A28601  17.489  13.607   8.052
 2123POPC   C4A28602  17.409  13.305   7.715
 2123POPC   C1B28603  17.916  13.773   8.875
 2123POPC   C2B28604  17.813  13.716   8.467
 2123POPC   C3B28605  18.044  13.717   8.097
 2123POPC   C4B28606  17.854  13.805   7.734
 2124POPC   NC328607  43.113  13.263   9.365
 2124POPC   PO428608  43.278  13.848   9.630
 2124POPC   GL128609  43.342  13.670   9.176
 2124POPC   GL228610  43.060  13.777   9.050
 2124POPC   C1A28611  43.300  13.373   8.771
 2124POPC   D2A28612  43.544  13.431   8.394
 2124POPC   C3A28613  43.402  13.491   7.977
 2124POPC   C4A28614  43.269  13.280   7.632
 2124POPC   C1B28615  43.236  13.851   8.642
 2124POPC   C2B28616  43.052  13.642   8.308
 2124POPC   C3B28617  42.903  13.532   7.902
 2124POPC   C4B28618  43.073  13.766   7.599
 2125POPC   NC328619   5.066  10.733   9.498
 2125POPC   PO428620   5.490  10.331   9.760
 2125POPC   GL128621   5.113  10.252   9.356
 2125POPC   GL228622   5.202  10.556   9.050
 2125POPC   C1A28623   4.954  10.149   8.909
 2125POPC   D2A28624   5.236  10.245   8.535
 2125POPC   C3A28625   5.132  10.531   8.193
 2125POPC   C4A28626   5.129  10.512   7.739
 2125POPC   C1B28627   4.821  10.654   8.785
 2125POPC   C2B28628   4.728  10.841   8.365
 2125POPC   C3B28629   4.864  10.908   7.935
 2125POPC   C4B28630   4.753  10.780   7.510
 2126POPC   NC328631  11.815   0.545   9.632
 2126POPC   PO428632  12.462   0.472   9.884
 2126POPC   GL128633  12.243   0.493   9.343
 2126POPC   GL228634  11.960   0.698   9.184
 2126POPC   C1A28635  12.069   0.297   8.865
 2126POPC   D2A28636  11.921   0.187   8.376
 2126POPC   C3A28637  12.112   0.220   7.927
 2126POPC   C4A28638  11.932   0.356   7.515
 2126POPC   C1B28639  12.227   0.807   8.859
 2126POPC   C2B28640  12.151   0.649   8.457
 2126POPC   C3B28641  11.870   0.647   8.108
 2126POPC   C4B28642  12.134   0.728   7.788
 2127POPC   NC328643  32.409  36.468   9.420
 2127POPC   PO428644  32.525  37.135   9.426
 2127POPC   GL128645  32.127  37.022   9.182
 2127POPC   GL228646  31.884  37.289   9.071
 2127POPC   C1A28647  32.184  36.766   8.835
 2127POPC   D2A28648  32.562  36.643   8.622
 2127POPC   C3A28649  32.586  36.718   8.182
 2127POPC   C4A28650  32.344  36.757   7.800
 2127POPC   C1B28651  32.128  37.233   8.646
 2127POPC   C2B28652  32.150  37.033   8.224
 2127POPC   C3B28653  32.048  37.189   7.802
 2127POPC   C4B28654  31.780  37.053   7.450
 2128POPC   NC328655  35.449  30.469   9.384
 2128POPC   PO428656  35.567  29.769   9.357
 2128POPC   GL128657  35.276  29.754   9.088
 2128POPC   GL228658  35.260  30.093   9.090
 2128POPC   C1A28659  35.439  29.801   8.693
 2128POPC   D2A28660  35.774  29.681   8.403
 2128POPC   C3A28661  35.605  29.709   8.016
 2128POPC   C4A28662  35.694  29.756   7.625
 2128POPC   C1B28663  34.943  30.112   8.786
 2128POPC   C2B28664  34.720  30.247   8.416
 2128POPC   C3B28665  34.961  30.177   8.068
 2128POPC   C4B28666  35.305  30.055   7.776
 2129POPC   NC328667  12.273  15.365   9.581
 2129POPC   PO428668  11.687  15.005   9.466
 2129POPC   GL128669  11.944  15.130   9.100
 2129POPC   GL228670  12.288  15.296   9.093
 2129POPC   C1A28671  11.844  15.151   8.658
 2129POPC   D2A28672  12.011  14.885   8.340
 2129POPC   C3A28673  11.948  15.048   7.936
 2129POPC   C4A28674  12.319  15.234   7.754
 2129POPC   C1B28675  12.339  15.155   8.702
 2129POPC   C2B28676  12.267  15.315   8.258
 2129POPC   C3B28677  11.990  15.562   7.954
 2129POPC   C4B28678  11.914  15.379   7.509
 2130POPC   NC328679  38.267  28.845   9.423
 2130POPC   PO428680  38.417  29.516   9.345
 2130POPC   GL128681  38.406  29.170   9.047
 2130POPC   GL228682  38.112  28.945   8.964
 2130POPC   C1A28683  38.606  29.152   8.652
 2130POPC   D2A28684  38.781  29.425   8.319
 2130POPC   C3A28685  38.568  29.268   7.969
 2130POPC   C4A28686  38.690  28.858   7.817
 2130POPC   C1B28687  38.058  29.272   8.686
 2130POPC   C2B28688  38.092  29.462   8.292
 2130POPC   C3B28689  37.964  29.313   7.915
 2130POPC   C4B28690  38.158  28.984   7.706
 2131POPC   NC328691  44.167  31.301   9.661
 2131POPC   PO428692  43.621  31.708   9.596
 2131POPC   GL128693  43.956  31.544   9.277
 2131POPC   GL228694  43.722  31.424   9.108
 2131POPC   C1A28695  44.109  31.501   8.795
 2131POPC   D2A28696  43.877  31.456   8.382
 2131POPC   C3A28697  44.103  31.455   7.982
 2131POPC   C4A28698  44.121  31.721   7.619
 2131POPC   C1B28699  43.385  31.326   8.823
 2131POPC   C2B28700  43.378  31.163   8.420
 2131POPC   C3B28701  43.479  31.358   8.070
 2131POPC   C4B28702  43.650  31.553   7.751
 2132POPC   NC328703  17.425  38.742   9.644
 2132POPC   PO428704  17.731  38.156   9.440
 2132POPC   GL128705  17.456  38.324   9.132
 2132POPC   GL228706  17.359  38.691   9.143
 2132POPC   C1A28707  17.438  38.376   8.690
 2132POPC   D2A28708  17.617  38.633   8.330
 2132POPC   C3A28709  17.718  38.385   7.980
 2132POPC   C4A28710  17.461  38.161   7.639
 2132POPC   C1B28711  17.392  38.880   8.745
 2132POPC   C2B28712  17.222  38.969   8.346
 2132POPC   C3B28713  17.353  38.944   7.936
 2132POPC   C4B28714  17.596  38.725   7.625
 2133POPC   NC328715  33.365   1.699   9.761
 2133POPC   PO428716  33.899   1.995   9.385
 2133POPC   GL128717  33.873   1.887   9.003
 2133POPC   GL228718  33.961   1.515   9.116
 2133POPC   C1A28719  33.773   2.003   8.592
 2133POPC   D2A28720  33.895   2.268   8.259
 2133POPC   C3A28721  33.714   2.065   7.925
 2133POPC   C4A28722  33.548   1.691   7.763
 2133POPC   C1B28723  34.070   1.551   8.704
 2133POPC   C2B28724  33.846   1.586   8.296
 2133POPC   C3B28725  34.039   1.679   7.911
 2133POPC   C4B28726  34.011   1.687   7.484
 2134POPC   NC328727   1.105  10.290   9.820
 2134POPC   PO428728   1.743  10.521   9.548
 2134POPC   GL128729   1.517  10.394   9.180
 2134POPC   GL228730   1.167  10.439   9.187
 2134POPC   C1A28731   1.509  10.587   8.764
 2134POPC   D2A28732   1.342  10.455   8.372
 2134POPC   C3A28733   1.512  10.548   7.982
 2134POPC   C4A28734   1.317  10.477   7.603
 2134POPC   C1B28735   0.998  10.396   8.747
 2134POPC   C2B28736   0.834  10.533   8.322
 2134POPC   C3B28737   0.900  10.391   7.919
 2134POPC   C4B28738   1.049  10.053   7.706
 2135POPC   NC328739  44.183  44.660   9.484
 2135POPC   PO428740  43.471  44.481   9.487
 2135POPC   GL128741  43.819  44.379   9.179
 2135POPC   GL228742  44.193  44.384   9.054
 2135POPC   C1A28743  43.818  44.458   8.740
 2135POPC   D2A28744  43.760  44.791   8.491
 2135POPC   C3A28745  43.751  44.596   8.129
 2135POPC   C4A28746  43.844  44.695   7.740
 2135POPC   C1B28747  44.154  44.835   8.858
 2135POPC   C2B28748  44.204   0.087   8.488
 2135POPC   C3B28749  44.201  44.841   8.142
 2135POPC   C4B28750  44.331  44.900   7.760
 2136POPC   NC328751  13.411  20.978   9.389
 2136POPC   PO428752  13.328  20.260   9.403
 2136POPC   GL128753  13.464  20.572   9.079
 2136POPC   GL228754  13.761  20.818   9.064
 2136POPC   C1A28755  13.450  20.678   8.647
 2136POPC   D2A28756  13.352  20.438   8.260
 2136POPC   C3A28757  13.562  20.647   7.900
 2136POPC   C4A28758  13.391  20.829   7.538
 2136POPC   C1B28759  13.995  20.429   8.961
 2136POPC   C2B28760  14.176  20.434   8.558
 2136POPC   C3B28761  13.989  20.564   8.181
 2136POPC   C4B28762  14.058  20.500   7.744
 2137POPC   NC328763  38.003  31.555   9.537
 2137POPC   PO428764  37.345  31.439   9.504
 2137POPC   GL128765  37.488  31.178   9.067
 2137POPC   GL228766  37.811  31.092   8.917
 2137POPC   C1A28767  37.477  31.189   8.571
 2137POPC   D2A28768  37.748  31.278   8.193
 2137POPC   C3A28769  37.565  31.341   7.786
 2137POPC   C4A28770  37.516  31.707   7.525
 2137POPC   C1B28771  38.120  31.224   8.575
 2137POPC   C2B28772  38.262  31.342   8.151
 2137POPC   C3B28773  38.059  31.462   7.750
 2137POPC   C4B28774  37.856  31.368   7.358
 2138POPC   NC328775  24.566  27.143   9.554
 2138POPC   PO428776  24.203  27.744   9.472
 2138POPC   GL128777  24.414  27.663   9.112
 2138POPC   GL228778  24.324  27.331   9.148
 2138POPC   C1A28779  24.715  27.816   8.817
 2138POPC   D2A28780  24.730  27.993   8.412
 2138POPC   C3A28781  24.431  27.863   8.108
 2138POPC   C4A28782  24.535  27.635   7.741
 2138POPC   C1B28783  24.171  27.342   8.775
 2138POPC   C2B28784  24.459  27.505   8.496
 2138POPC   C3B28785  24.459  27.332   8.141
 2138POPC   C4B28786  24.102  27.412   7.820
 2139POPC   NC328787  43.100  21.038   9.487
 2139POPC   PO428788  43.209  21.632   9.527
 2139POPC   GL128789  42.989  21.447   9.178
 2139POPC   GL228790  42.849  21.113   9.053
 2139POPC   C1A28791  42.999  21.555   8.778
 2139POPC   D2A28792  42.955  21.322   8.423
 2139POPC   C3A28793  43.070  21.566   8.071
 2139POPC   C4A28794  42.903  21.400   7.712
 2139POPC   C1B28795  43.243  21.080   8.817
 2139POPC   C2B28796  43.453  21.026   8.425
 2139POPC   C3B28797  43.261  21.071   8.028
 2139POPC   C4B28798  43.379  21.180   7.637
 2140POPC   NC328799  18.410  35.420   9.615
 2140POPC   PO428800  17.905  35.703   9.693
 2140POPC   GL128801  18.046  35.429   9.266
 2140POPC   GL228802  18.444  35.461   9.109
 2140POPC   C1A28803  17.892  35.351   8.832
 2140POPC   D2A28804  18.107  35.542   8.486
 2140POPC   C3A28805  18.018  35.507   8.073
 2140POPC   C4A28806  17.835  35.232   7.818
 2140POPC   C1B28807  18.393  35.201   8.762
 2140POPC   C2B28808  18.421  35.189   8.328
 2140POPC   C3B28809  18.542  35.515   8.076
 2140POPC   C4B28810  18.653  35.264   7.774
 2141POPC   NC328811   3.305  38.528   9.582
 2141POPC   PO428812   3.711  38.102   9.401
 2141POPC   GL128813   3.595  38.409   9.122
 2141POPC   GL228814   3.883  38.561   8.960
 2141POPC   C1A28815   3.491  38.328   8.705
 2141POPC   D2A28816   3.495  38.544   8.327
 2141POPC   C3A28817   3.786  38.377   8.059
 2141POPC   C4A28818   3.519  38.276   7.732
 2141POPC   C1B28819   3.681  38.826   8.701
 2141POPC   C2B28820   3.745  39.036   8.344
 2141POPC   C3B28821   3.582  38.885   7.955
 2141POPC   C4B28822   3.800  38.687   7.646
 2142POPC   NC328823  27.410  39.313   9.372
 2142POPC   PO428824  27.912  38.993   9.490
 2142POPC   GL128825  27.816  39.122   9.094
 2142POPC   GL228826  27.859  39.466   9.121
 2142POPC   C1A28827  27.672  39.080   8.678
 2142POPC   D2A28828  27.377  39.133   8.352
 2142POPC   C3A28829  27.563  39.261   7.956
 2142POPC   C4A28830  27.883  39.119   7.663
 2142POPC   C1B28831  27.662  39.591   8.723
 2142POPC   C2B28832  27.761  39.643   8.278
 2142POPC   C3B28833  28.032  39.505   7.933
 2142POPC   C4B28834  28.150  39.537   7.505
 2143POPC   NC328835  14.101  13.154   9.336
 2143POPC   PO428836  14.618  12.757   9.256
 2143POPC   GL128837  14.435  12.980   9.000
 2143POPC   GL228838  14.167  12.728   9.001
 2143POPC   C1A28839  14.489  12.923   8.613
 2143POPC   D2A28840  14.298  12.707   8.373
 2143POPC   C3A28841  14.497  12.893   8.061
 2143POPC   C4A28842  14.357  13.012   7.662
 2143POPC   C1B28843  14.171  12.342   8.752
 2143POPC   C2B28844  13.961  12.307   8.374
 2143POPC   C3B28845  14.109  12.389   8.009
 2143POPC   C4B28846  14.420  12.512   7.752
 2144POPC   NC328847   3.999  28.298   9.442
 2144POPC   PO428848   4.585  28.528   9.445
 2144POPC   GL128849   4.364  28.424   9.084
 2144POPC   GL228850   4.262  28.078   9.081
 2144POPC   C1A28851   4.488  28.374   8.661
 2144POPC   D2A28852   4.571  28.542   8.260
 2144POPC   C3A28853   4.394  28.408   7.879
 2144POPC   C4A28854   4.238  28.620   7.521
 2144POPC   C1B28855   3.985  28.269   8.752
 2144POPC   C2B28856   4.077  28.385   8.328
 2144POPC   C3B28857   3.904  28.467   7.940
 2144POPC   C4B28858   4.004  28.149   7.602
 2145POPC   NC328859  14.999  25.004   9.743
 2145POPC   PO428860  14.385  25.009   9.420
 2145POPC   GL128861  14.479  25.370   9.210
 2145POPC   GL228862  14.148  25.480   9.128
 2145POPC   C1A28863  14.518  25.446   8.788
 2145POPC   D2A28864  14.349  25.391   8.405
 2145POPC   C3A28865  14.626  25.574   8.129
 2145POPC   C4A28866  14.732  25.251   7.899
 2145POPC   C1B28867  14.084  25.157   8.838
 2145POPC   C2B28868  14.003  24.987   8.454
 2145POPC   C3B28869  14.046  25.117   8.044
 2145POPC   C4B28870  14.169  25.397   7.732
 2146POPC   NC328871   1.802  40.960   9.541
 2146POPC   PO428872   2.233  40.352   9.436
 2146POPC   GL128873   1.966  40.589   9.184
 2146POPC   GL228874   2.110  40.916   9.160
 2146POPC   C1A28875   1.834  40.666   8.759
 2146POPC   D2A28876   1.927  40.578   8.358
 2146POPC   C3A28877   1.794  40.800   8.029
 2146POPC   C4A28878   1.952  40.987   7.685
 2146POPC   C1B28879   2.067  41.130   8.802
 2146POPC   C2B28880   2.309  41.118   8.439
 2146POPC   C3B28881   2.235  41.250   8.041
 2146POPC   C4B28882   2.419  41.177   7.674
 2147POPC   NC328883  23.367  41.657   9.300
 2147POPC   PO428884  24.003  41.561   9.596
 2147POPC   GL128885  23.928  41.570   9.133
 2147POPC   GL228886  23.633  41.689   8.883
 2147POPC   C1A28887  24.116  41.657   8.730
 2147POPC   D2A28888  23.828  41.598   8.390
 2147POPC   C3A28889  23.884  41.484   7.980
 2147POPC   C4A28890  23.496  41.465   7.715
 2147POPC   C1B28891  23.787  42.041   8.627
 2147POPC   C2B28892  23.808  42.061   8.156
 2147POPC   C3B28893  23.789  41.912   7.717
 2147POPC   C4B28894  23.959  42.050   7.306
 2148POPC   NC328895  39.684  29.656   9.708
 2148POPC   PO428896  39.646  28.974   9.451
 2148POPC   GL128897  39.818  28.991   9.052
 2148POPC   GL228898  40.160  29.089   9.081
 2148POPC   C1A28899  39.707  29.179   8.644
 2148POPC   D2A28900  39.878  29.188   8.231
 2148POPC   C3A28901  39.731  29.403   7.870
 2148POPC   C4A28902  39.896  29.290   7.471
 2148POPC   C1B28903  40.268  29.274   8.666
 2148POPC   C2B28904  40.371  29.258   8.226
 2148POPC   C3B28905  40.250  29.365   7.844
 2148POPC   C4B28906  40.081  28.953   7.794
 2149POPC   NC328907  16.284  23.019   9.451
 2149POPC   PO428908  15.670  23.366   9.527
 2149POPC   GL128909  15.874  23.172   9.141
 2149POPC   GL228910  15.874  22.810   9.126
 2149POPC   C1A28911  16.006  23.020   8.699
 2149POPC   D2A28912  15.867  22.718   8.399
 2149POPC   C3A28913  15.926  22.935   8.040
 2149POPC   C4A28914  16.220  23.161   7.860
 2149POPC   C1B28915  15.580  22.602   8.824
 2149POPC   C2B28916  15.441  22.411   8.398
 2149POPC   C3B28917  15.602  22.524   7.972
 2149POPC   C4B28918  16.078  22.521   7.799
 2150POPC   NC328919  22.431  20.436   9.523
 2150POPC   PO428920  21.882  20.861   9.620
 2150POPC   GL128921  22.004  20.641   9.240
 2150POPC   GL228922  22.340  20.680   9.067
 2150POPC   C1A28923  21.960  20.503   8.805
 2150POPC   D2A28924  22.244  20.586   8.488
 2150POPC   C3A28925  22.054  20.601   8.117
 2150POPC   C4A28926  22.134  20.490   7.719
 2150POPC   C1B28927  22.416  21.005   8.762
 2150POPC   C2B28928  22.272  21.085   8.347
 2150POPC   C3B28929  22.374  20.954   7.908
 2150POPC   C4B28930  22.493  20.956   7.431
 2151POPC   NC328931   9.366   8.570   9.337
 2151POPC   PO428932  10.001   8.874   9.362
 2151POPC   GL128933   9.895   9.150   9.018
 2151POPC   GL228934   9.597   9.254   9.084
 2151POPC   C1A28935   9.840   9.157   8.608
 2151POPC   D2A28936   9.876   8.802   8.424
 2151POPC   C3A28937  10.029   8.856   8.042
 2151POPC   C4A28938   9.791   8.898   7.700
 2151POPC   C1B28939   9.403   9.366   8.749
 2151POPC   C2B28940   9.356   9.014   8.480
 2151POPC   C3B28941   9.531   9.064   8.100
 2151POPC   C4B28942   9.509   9.345   7.744
 2152POPC   NC328943  23.243  42.797   9.500
 2152POPC   PO428944  23.196  42.065   9.475
 2152POPC   GL128945  22.952  42.281   9.162
 2152POPC   GL228946  22.998  42.589   9.139
 2152POPC   C1A28947  22.728  42.356   8.781
 2152POPC   D2A28948  22.554  42.209   8.426
 2152POPC   C3A28949  22.873  42.243   8.173
 2152POPC   C4A28950  22.849  42.352   7.768
 2152POPC   C1B28951  23.317  42.683   8.826
 2152POPC   C2B28952  23.163  42.587   8.445
 2152POPC   C3B28953  23.082  42.730   8.038
 2152POPC   C4B28954  23.254  42.636   7.628
 2153POPC   NC328955  31.861  19.888   9.355
 2153POPC   PO428956  32.493  19.600   9.447
 2153POPC   GL128957  32.338  19.910   9.131
 2153POPC   GL228958  32.197  19.640   9.013
 2153POPC   C1A28959  32.042  20.068   8.753
 2153POPC   D2A28960  31.978  20.295   8.340
 2153POPC   C3A28961  32.232  20.107   8.013
 2153POPC   C4A28962  32.251  19.733   7.782
 2153POPC   C1B28963  32.355  19.655   8.628
 2153POPC   C2B28964  32.227  19.422   8.269
 2153POPC   C3B28965  32.502  19.331   7.980
 2153POPC   C4B28966  32.753  19.558   7.743
 2154POPC   NC328967   7.165  30.870   9.423
 2154POPC   PO428968   7.726  30.546   9.390
 2154POPC   GL128969   7.437  30.545   9.100
 2154POPC   GL228970   7.162  30.345   9.220
 2154POPC   C1A28971   7.509  30.532   8.668
 2154POPC   D2A28972   7.770  30.764   8.435
 2154POPC   C3A28973   7.591  30.874   8.072
 2154POPC   C4A28974   7.652  30.898   7.631
 2154POPC   C1B28975   7.033  30.421   8.824
 2154POPC   C2B28976   6.902  30.406   8.398
 2154POPC   C3B28977   7.064  30.252   8.033
 2154POPC   C4B28978   7.301  30.554   7.807
 2155POPC   NC328979  16.791  30.625   9.404
 2155POPC   PO428980  16.096  30.563   9.466
 2155POPC   GL128981  16.242  30.618   9.056
 2155POPC   GL228982  16.537  30.393   9.027
 2155POPC   C1A28983  16.454  30.816   8.701
 2155POPC   D2A28984  16.841  30.900   8.460
 2155POPC   C3A28985  16.794  30.761   8.028
 2155POPC   C4A28986  16.978  30.464   7.748
 2155POPC   C1B28987  16.356  30.230   8.684
 2155POPC   C2B28988  16.360  30.461   8.303
 2155POPC   C3B28989  16.511  30.294   7.913
 2155POPC   C4B28990  16.460  30.385   7.478
 2156POPC   NC328991   7.644  43.282   9.639
 2156POPC   PO428992   6.985  43.101   9.582
 2156POPC   GL128993   7.267  43.024   9.254
 2156POPC   GL228994   7.437  43.352   9.173
 2156POPC   C1A28995   7.213  42.962   8.825
 2156POPC   D2A28996   7.470  42.850   8.496
 2156POPC   C3A28997   7.438  43.046   8.104
 2156POPC   C4A28998   7.235  42.861   7.769
 2156POPC   C1B28999   7.565  43.317   8.749
 2156POPC   C2B29000   7.229  43.353   8.461
 2156POPC   C3B29001   7.188  43.490   8.020
 2156POPC   C4B29002   7.595  43.425   7.782
 2157POPC   NC329003  38.328  19.969   9.394
 2157POPC   PO429004  38.888  19.849   9.533
 2157POPC   GL129005  38.721  19.931   9.102
 2157POPC   GL229006  38.602  19.598   9.108
 2157POPC   C1A29007  38.503  19.886   8.709
 2157POPC   D2A29008  38.667  19.629   8.438
 2157POPC   C3A29009  38.569  19.846   8.078
 2157POPC   C4A29010  38.518  19.806   7.647
 2157POPC   C1B29011  38.303  19.440   8.825
 2157POPC   C2B29012  38.197  19.506   8.378
 2157POPC   C3B29013  38.342  19.388   8.000
 2157POPC   C4B29014  38.142  19.433   7.639
 2158POPC   NC329015  40.660  20.090   9.456
 2158POPC   PO429016  40.818  19.418   9.390
 2158POPC   GL129017  40.678  19.708   9.063
 2158POPC   GL229018  40.871  19.979   8.975
 2158POPC   C1A29019  40.521  19.858   8.648
 2158POPC   D2A29020  40.685  19.866   8.245
 2158POPC   C3A29021  40.449  19.713   7.930
 2158POPC   C4A29022  40.541  19.569   7.547
 2158POPC   C1B29023  41.097  19.770   8.666
 2158POPC   C2B29024  41.072  19.503   8.314
 2158POPC   C3B29025  40.961  19.567   7.890
 2158POPC   C4B29026  40.861  19.947   7.734
 2159POPC   NC329027  32.938  31.965   9.647
 2159POPC   PO429028  33.072  32.592   9.490
 2159POPC   GL129029  32.882  32.297   9.215
 2159POPC   GL229030  33.226  32.252   9.101
 2159POPC   C1A29031  32.875  32.102   8.779
 2159POPC   D2A29032  33.113  32.185   8.395
 2159POPC   C3A29033  32.889  32.136   7.965
 2159POPC   C4A29034  32.938  32.136   7.510
 2159POPC   C1B29035  33.060  32.590   8.835
 2159POPC   C2B29036  32.936  32.709   8.434
 2159POPC   C3B29037  33.100  32.575   8.081
 2159POPC   C4B29038  33.040  32.659   7.686
 2160POPC   NC329039   9.085  24.163   9.597
 2160POPC   PO429040   8.837  23.545   9.479
 2160POPC   GL129041   8.964  23.699   9.080
 2160POPC   GL229042   9.180  23.950   9.108
 2160POPC   C1A29043   8.833  23.751   8.648
 2160POPC   D2A29044   9.015  23.901   8.263
 2160POPC   C3A29045   8.955  23.725   7.873
 2160POPC   C4A29046   9.026  23.653   7.415
 2160POPC   C1B29047   9.345  23.851   8.660
 2160POPC   C2B29048   9.429  23.574   8.279
 2160POPC   C3B29049   9.423  23.524   7.813
 2160POPC   C4B29050   9.534  23.830   7.458
 2161POPC   NC329051  40.163  42.233   9.508
 2161POPC   PO429052  40.860  42.444   9.478
 2161POPC   GL129053  40.708  42.441   9.104
 2161POPC   GL229054  40.525  42.159   9.167
 2161POPC   C1A29055  40.830  42.227   8.784
 2161POPC   D2A29056  40.895  42.114   8.444
 2161POPC   C3A29057  40.702  42.343   8.151
 2161POPC   C4A29058  40.841  42.343   7.747
 2161POPC   C1B29059  40.356  42.035   8.750
 2161POPC   C2B29060  40.470  41.890   8.328
 2161POPC   C3B29061  40.380  42.047   7.887
 2161POPC   C4B29062  40.374  42.161   7.459
 2162POPC   NC329063  11.343  36.096   9.816
 2162POPC   PO429064  11.032  36.187   9.283
 2162POPC   GL129065  11.257  36.082   8.996
 2162POPC   GL229066  11.173  36.407   8.824
 2162POPC   C1A29067  11.214  35.907   8.590
 2162POPC   D2A29068  11.196  36.194   8.266
 2162POPC   C3A29069  11.166  36.036   7.842
 2162POPC   C4A29070  11.272  36.247   7.469
 2162POPC   C1B29071  11.562  36.289   8.661
 2162POPC   C2B29072  11.676  36.013   8.342
 2162POPC   C3B29073  11.648  36.177   7.949
 2162POPC   C4B29074  11.786  36.062   7.568
 2163POPC   NC329075  35.527   2.882   9.440
 2163POPC   PO429076  35.022   2.613   9.719
 2163POPC   GL129077  35.104   2.662   9.255
 2163POPC   GL229078  35.119   2.990   9.134
 2163POPC   C1A29079  35.228   2.539   8.815
 2163POPC   D2A29080  35.106   2.766   8.440
 2163POPC   C3A29081  35.318   2.718   8.058
 2163POPC   C4A29082  35.447   2.659   7.642
 2163POPC   C1B29083  35.411   3.009   8.793
 2163POPC   C2B29084  35.515   3.120   8.367
 2163POPC   C3B29085  35.282   3.221   7.995
 2163POPC   C4B29086  35.345   3.187   7.563
 2164POPC   NC329087  11.996  31.072   9.394
 2164POPC   PO429088  11.852  30.435   9.492
 2164POPC   GL129089  11.815  30.668   9.123
 2164POPC   GL229090  12.198  30.714   9.097
 2164POPC   C1A29091  11.859  30.508   8.711
 2164POPC   D2A29092  11.925  30.252   8.347
 2164POPC   C3A29093  11.907  30.485   7.953
 2164POPC   C4A29094  12.239  30.482   7.643
 2164POPC   C1B29095  12.086  30.968   8.742
 2164POPC   C2B29096  11.943  30.893   8.335
 2164POPC   C3B29097  12.079  30.994   7.932
 2164POPC   C4B29098  11.927  30.886   7.574
 2165POPC   NC329099  41.846  23.654   9.239
 2165POPC   PO429100  42.439  23.678   9.548
 2165POPC   GL129101  42.444  23.721   9.139
 2165POPC   GL229102  42.690  23.981   9.168
 2165POPC   C1A29103  42.399  23.550   8.748
 2165POPC   D2A29104  42.125  23.424   8.433
 2165POPC   C3A29105  42.258  23.512   8.051
 2165POPC   C4A29106  42.178  23.683   7.700
 2165POPC   C1B29107  42.653  24.008   8.730
 2165POPC   C2B29108  42.564  23.839   8.329
 2165POPC   C3B29109  42.600  23.972   7.883
 2165POPC   C4B29110  42.626  23.923   7.422
 2166POPC   NC329111   7.738  14.418   9.417
 2166POPC   PO429112   7.130  14.563   9.552
 2166POPC   GL129113   7.251  14.417   9.155
 2166POPC   GL229114   7.404  14.069   9.137
 2166POPC   C1A29115   7.244  14.694   8.802
 2166POPC   D2A29116   7.555  14.779   8.507
 2166POPC   C3A29117   7.403  14.808   8.107
 2166POPC   C4A29118   7.211  14.514   7.829
 2166POPC   C1B29119   7.390  14.215   8.680
 2166POPC   C2B29120   7.512  14.308   8.254
 2166POPC   C3B29121   7.708  14.375   7.837
 2166POPC   C4B29122   7.437  14.145   7.574
 2167POPC   NC329123   5.289  32.010   9.588
 2167POPC   PO429124   5.279  31.346   9.436
 2167POPC   GL129125   4.913  31.502   9.211
 2167POPC   GL229126   5.037  31.817   9.117
 2167POPC   C1A29127   4.782  31.369   8.811
 2167POPC   D2A29128   5.089  31.213   8.526
 2167POPC   C3A29129   5.056  31.215   8.091
 2167POPC   C4A29130   4.790  31.312   7.744
 2167POPC   C1B29131   5.067  31.759   8.677
 2167POPC   C2B29132   4.834  31.616   8.319
 2167POPC   C3B29133   5.018  31.742   7.936
 2167POPC   C4B29134   4.887  32.131   7.767
 2168POPC   NC329135  19.351  16.108   9.769
 2168POPC   PO429136  18.793  15.935   9.834
 2168POPC   GL129137  18.998  16.182   9.344
 2168POPC   GL229138  18.707  16.105   9.049
 2168POPC   C1A29139  19.152  16.159   8.849
 2168POPC   D2A29140  18.947  16.202   8.420
 2168POPC   C3A29141  19.160  16.075   8.026
 2168POPC   C4A29142  19.124  16.352   7.647
 2168POPC   C1B29143  18.835  15.760   8.718
 2168POPC   C2B29144  18.651  15.765   8.328
 2168POPC   C3B29145  18.662  16.036   7.976
 2168POPC   C4B29146  18.906  15.911   7.596
 2169POPC   NC329147   0.032  24.234   9.262
 2169POPC   PO429148  44.407  24.412   9.453
 2169POPC   GL129149  44.536  24.431   9.042
 2169POPC   GL229150  44.787  24.679   9.096
 2169POPC   C1A29151  44.744  24.324   8.635
 2169POPC   D2A29152   0.003  24.451   8.279
 2169POPC   C3A29153  44.849  24.175   7.935
 2169POPC   C4A29154  44.459  24.255   7.683
 2169POPC   C1B29155  44.590  24.803   8.697
 2169POPC   C2B29156  44.206  24.808   8.425
 2169POPC   C3B29157  44.291  24.695   7.970
 2169POPC   C4B29158  44.727  24.678   7.815
 2170POPC   NC329159   6.500  20.890   9.436
 2170POPC   PO429160   6.320  20.353   9.696
 2170POPC   GL129161   6.342  20.470   9.186
 2170POPC   GL229162   6.591  20.754   8.977
 2170POPC   C1A29163   6.555  20.333   8.749
 2170POPC   D2A29164   6.654  20.397   8.342
 2170POPC   C3A29165   6.374  20.463   8.034
 2170POPC   C4A29166   6.504  20.294   7.695
 2170POPC   C1B29167   6.430  20.919   8.629
 2170POPC   C2B29168   6.565  20.888   8.218
 2170POPC   C3B29169   6.767  20.801   7.808
 2170POPC   C4B29170   6.726  20.957   7.365
 2171POPC   NC329171  31.778  32.260   9.740
 2171POPC   PO429172  32.444  32.122   9.543
 2171POPC   GL129173  32.361  32.232   9.143
 2171POPC   GL229174  32.209  32.571   9.098
 2171POPC   C1A29175  32.248  32.067   8.741
 2171POPC   D2A29176  32.089  32.321   8.452
 2171POPC   C3A29177  31.934  32.168   8.074
 2171POPC   C4A29178  32.077  32.325   7.705
 2171POPC   C1B29179  32.555  32.509   8.783
 2171POPC   C2B29180  32.608  32.328   8.372
 2171POPC   C3B29181  32.611  32.608   8.011
 2171POPC   C4B29182  32.571  32.458   7.664
 2172POPC   NC329183  24.532  26.477   9.347
 2172POPC   PO429184  24.132  26.999   9.488
 2172POPC   GL129185  24.261  26.822   9.071
 2172POPC   GL229186  24.617  26.909   9.092
 2172POPC   C1A29187  24.485  26.546   8.731
 2172POPC   D2A29188  24.827  26.593   8.438
 2172POPC   C3A29189  24.646  26.768   8.079
 2172POPC   C4A29190  24.440  26.603   7.712
 2172POPC   C1B29191  24.546  27.025   8.669
 2172POPC   C2B29192  24.203  26.895   8.422
 2172POPC   C3B29193  24.173  26.949   7.994
 2172POPC   C4B29194  24.508  27.110   7.693
 2173POPC   NC329195   3.990   5.805   9.488
 2173POPC   PO429196   4.512   5.328   9.508
 2173POPC   GL129197   4.439   5.651   9.160
 2173POPC   GL229198   4.359   6.030   9.179
 2173POPC   C1A29199   4.568   5.705   8.717
 2173POPC   D2A29200   4.495   5.558   8.285
 2173POPC   C3A29201   4.632   5.892   8.000
 2173POPC   C4A29202   4.563   6.113   7.617
 2173POPC   C1B29203   4.116   5.927   8.800
 2173POPC   C2B29204   4.242   5.997   8.372
 2173POPC   C3B29205   4.131   5.822   7.977
 2173POPC   C4B29206   3.818   5.637   7.759
 2174POPC   NC329207  28.325  35.014   9.533
 2174POPC   PO429208  28.341  35.672   9.504
 2174POPC   GL129209  28.388  35.487   9.103
 2174POPC   GL229210  28.316  35.137   9.049
 2174POPC   C1A29211  28.273  35.461   8.680
 2174POPC   D2A29212  28.310  35.162   8.361
 2174POPC   C3A29213  28.219  35.416   8.035
 2174POPC   C4A29214  28.347  35.785   7.830
 2174POPC   C1B29215  28.675  35.145   8.793
 2174POPC   C2B29216  28.788  34.995   8.410
 2174POPC   C3B29217  28.749  35.114   8.011
 2174POPC   C4B29218  28.429  35.093   7.708
 2175POPC   NC329219  44.261  28.016   9.396
 2175POPC   PO429220  44.682  28.473   9.528
 2175POPC   GL129221  44.645  28.344   9.142
 2175POPC   GL229222  44.331  28.415   9.095
 2175POPC   C1A29223  44.742  28.526   8.762
 2175POPC   D2A29224  44.938  28.353   8.465
 2175POPC   C3A29225  44.809  28.413   8.128
 2175POPC   C4A29226  44.955  28.464   7.742
 2175POPC   C1B29227  44.316  28.238   8.687
 2175POPC   C2B29228  44.445  28.032   8.314
 2175POPC   C3B29229  44.522  28.070   7.887
 2175POPC   C4B29230  44.436  28.513   7.815
 2176POPC   NC329231  20.874  15.034   9.433
 2176POPC   PO429232  20.353  15.391   9.552
 2176POPC   GL129233  20.521  15.275   9.188
 2176POPC   GL229234  20.394  15.006   9.107
 2176POPC   C1A29235  20.726  15.175   8.755
 2176POPC   D2A29236  20.861  14.989   8.338
 2176POPC   C3A29237  20.694  15.186   7.949
 2176POPC   C4A29238  20.680  15.025   7.497
 2176POPC   C1B29239  20.221  15.313   8.809
 2176POPC   C2B29240  20.277  15.560   8.449
 2176POPC   C3B29241  20.187  15.458   8.029
 2176POPC   C4B29242  20.386  15.428   7.611
 2177POPC   NC329243  28.958  41.382   9.459
 2177POPC   PO429244  29.302  41.937   9.677
 2177POPC   GL129245  29.254  41.758   9.233
 2177POPC   GL229246  29.372  41.426   9.137
 2177POPC   C1A29247  29.095  41.770   8.794
 2177POPC   D2A29248  29.225  41.814   8.353
 2177POPC   C3A29249  29.076  41.569   8.020
 2177POPC   C4A29250  28.986  41.622   7.593
 2177POPC   C1B29251  29.590  41.347   8.776
 2177POPC   C2B29252  29.400  41.236   8.420
 2177POPC   C3B29253  29.500  41.296   8.035
 2177POPC   C4B29254  29.258  41.184   7.670
 2178POPC   NC329255   0.999  20.890   9.469
 2178POPC   PO429256   1.319  21.582   9.508
 2178POPC   GL129257   1.085  21.410   9.199
 2178POPC   GL229258   1.300  21.156   9.083
 2178POPC   C1A29259   1.051  21.556   8.775
 2178POPC   D2A29260   1.041  21.327   8.406
 2178POPC   C3A29261   0.890  21.579   8.064
 2178POPC   C4A29262   0.874  21.347   7.698
 2178POPC   C1B29263   1.523  21.008   8.710
 2178POPC   C2B29264   1.522  21.175   8.315
 2178POPC   C3B29265   1.300  21.218   7.957
 2178POPC   C4B29266   1.427  21.178   7.528
 2179POPC   NC329267  36.131   2.350   9.598
 2179POPC   PO429268  35.615   1.873   9.503
 2179POPC   GL129269  35.985   1.747   9.212
 2179POPC   GL229270  36.232   1.989   9.112
 2179POPC   C1A29271  35.998   1.679   8.735
 2179POPC   D2A29272  35.908   1.907   8.339
 2179POPC   C3A29273  36.144   1.720   8.029
 2179POPC   C4A29274  36.263   1.731   7.651
 2179POPC   C1B29275  36.093   2.216   8.709
 2179POPC   C2B29276  36.192   2.386   8.279
 2179POPC   C3B29277  36.079   2.187   7.860
 2179POPC   C4B29278  36.372   2.187   7.491
 2180POPC   NC329279  27.791  34.513   9.585
 2180POPC   PO429280  27.103  34.356   9.522
 2180POPC   GL129281  27.416  34.522   9.183
 2180POPC   GL229282  27.772  34.384   9.094
 2180POPC   C1A29283  27.436  34.577   8.710
 2180POPC   D2A29284  27.670  34.494   8.309
 2180POPC   C3A29285  27.394  34.626   7.983
 2180POPC   C4A29286  27.270  34.931   7.681
 2180POPC   C1B29287  27.834  34.817   8.922
 2180POPC   C2B29288  27.854  34.953   8.475
 2180POPC   C3B29289  27.977  34.899   8.043
 2180POPC   C4B29290  27.796  34.707   7.694
 2181POPC   NC329291  24.575  14.712   9.404
 2181POPC   PO429292  24.242  14.124   9.253
 2181POPC   GL129293  24.451  14.370   9.016
 2181POPC   GL229294  24.775  14.331   9.062
 2181POPC   C1A29295  24.368  14.505   8.636
 2181POPC   D2A29296  24.292  14.294   8.289
 2181POPC   C3A29297  24.362  14.560   7.976
 2181POPC   C4A29298  24.430  14.322   7.609
 2181POPC   C1B29299  24.885  14.588   8.733
 2181POPC   C2B29300  24.813  14.370   8.369
 2181POPC   C3B29301  24.829  14.334   7.957
 2181POPC   C4B29302  24.785  14.663   7.679
 2182POPC   NC329303  32.461  25.351   9.524
 2182POPC   PO429304  31.839  25.370   9.494
 2182POPC   GL129305  32.133  25.364   9.134
 2182POPC   GL229306  32.425  25.617   9.104
 2182POPC   C1A29307  32.278  25.292   8.722
 2182POPC   D2A29308  32.148  25.125   8.348
 2182POPC   C3A29309  32.381  25.206   7.995
 2182POPC   C4A29310  32.174  25.135   7.617
 2182POPC   C1B29311  32.130  25.789   8.835
 2182POPC   C2B29312  31.951  25.640   8.454
 2182POPC   C3B29313  32.023  25.553   8.035
 2182POPC   C4B29314  32.278  25.618   7.700
 2183POPC   NC329315  17.744  17.867   9.495
 2183POPC   PO429316  17.139  17.608   9.532
 2183POPC   GL129317  17.284  17.498   9.178
 2183POPC   GL229318  17.632  17.522   9.136
 2183POPC   C1A29319  17.334  17.281   8.826
 2183POPC   D2A29320  17.384  17.501   8.446
 2183POPC   C3A29321  17.376  17.252   8.078
 2183POPC   C4A29322  17.375  17.465   7.681
 2183POPC   C1B29323  17.787  17.696   8.755
 2183POPC   C2B29324  17.888  17.588   8.354
 2183POPC   C3B29325  17.721  17.669   7.983
 2183POPC   C4B29326  17.857  17.447   7.623
 2184POPC   NC329327   8.679  14.043   9.237
 2184POPC   PO429328   8.179  14.280   9.510
 2184POPC   GL129329   8.260  14.325   9.079
 2184POPC   GL229330   8.502  14.550   9.189
 2184POPC   C1A29331   7.999  14.417   8.700
 2184POPC   D2A29332   7.948  14.555   8.265
 2184POPC   C3A29333   8.156  14.251   8.075
 2184POPC   C4A29334   8.262  14.213   7.696
 2184POPC   C1B29335   8.489  14.692   8.779
 2184POPC   C2B29336   8.430  14.577   8.410
 2184POPC   C3B29337   8.611  14.477   8.061
 2184POPC   C4B29338   8.700  14.504   7.660
 2185POPC   NC329339   7.416  12.634   9.997
 2185POPC   PO429340   7.242  13.089   9.369
 2185POPC   GL129341   7.254  12.929   8.999
 2185POPC   GL229342   7.588  13.031   8.982
 2185POPC   C1A29343   7.247  12.991   8.586
 2185POPC   D2A29344   7.607  13.019   8.363
 2185POPC   C3A29345   7.481  12.895   7.986
 2185POPC   C4A29346   7.361  13.118   7.648
 2185POPC   C1B29347   7.617  12.647   8.732
 2185POPC   C2B29348   7.777  12.519   8.332
 2185POPC   C3B29349   7.754  12.472   7.905
 2185POPC   C4B29350   7.574  12.663   7.536
 2186POPC   NC329351  19.793  38.254   9.505
 2186POPC   PO429352  19.808  38.934   9.459
 2186POPC   GL129353  19.781  38.613   9.143
 2186POPC   GL229354  20.084  38.367   9.111
 2186POPC   C1A29355  19.769  38.516   8.721
 2186POPC   D2A29356  19.805  38.736   8.354
 2186POPC   C3A29357  19.806  38.534   7.981
 2186POPC   C4A29358  19.939  38.709   7.608
 2186POPC   C1B29359  20.079  38.101   8.757
 2186POPC   C2B29360  20.258  38.096   8.351
 2186POPC   C3B29361  20.081  38.060   7.959
 2186POPC   C4B29362  19.977  38.198   7.561
 2187POPC   NC329363  14.762  16.591   9.424
 2187POPC   PO429364  14.350  16.945   9.688
 2187POPC   GL129365  14.409  17.007   9.212
 2187POPC   GL229366  14.704  16.895   9.025
 2187POPC   C1A29367  14.300  17.013   8.734
 2187POPC   D2A29368  14.092  16.970   8.335
 2187POPC   C3A29369  14.285  16.851   7.948
 2187POPC   C4A29370  14.111  16.884   7.554
 2187POPC   C1B29371  14.518  16.551   8.770
 2187POPC   C2B29372  14.562  16.619   8.343
 2187POPC   C3B29373  14.685  16.527   7.947
 2187POPC   C4B29374  14.500  16.540   7.546
 2188POPC   NC329375  43.717   3.869   9.403
 2188POPC   PO429376  43.896   3.178   9.526
 2188POPC   GL129377  43.904   3.409   9.135
 2188POPC   GL229378  44.168   3.662   9.209
 2188POPC   C1A29379  43.760   3.513   8.696
 2188POPC   D2A29380  43.660   3.670   8.264
 2188POPC   C3A29381  43.713   3.415   7.887
 2188POPC   C4A29382  43.695   3.555   7.431
 2188POPC   C1B29383  44.120   3.866   8.798
 2188POPC   C2B29384  44.156   3.669   8.382
 2188POPC   C3B29385  44.078   3.751   7.963
 2188POPC   C4B29386  44.161   3.499   7.632
 2189POPC   NC329387  28.173   8.768   9.487
 2189POPC   PO429388  28.694   9.138   9.473
 2189POPC   GL129389  28.461   9.036   9.082
 2189POPC   GL229390  28.088   8.972   9.025
 2189POPC   C1A29391  28.390   8.934   8.636
 2189POPC   D2A29392  28.197   8.997   8.243
 2189POPC   C3A29393  28.538   8.914   7.978
 2189POPC   C4A29394  28.690   9.271   7.806
 2189POPC   C1B29395  27.985   8.619   8.777
 2189POPC   C2B29396  28.030   8.510   8.310
 2189POPC   C3B29397  28.073   8.655   7.869
 2189POPC   C4B29398  28.171   9.069   7.659
 2190POPC   NC329399  10.234  32.112   9.457
 2190POPC   PO429400  10.812  32.539   9.454
 2190POPC   GL129401  10.488  32.440   9.167
 2190POPC   GL229402  10.499  32.131   9.010
 2190POPC   C1A29403  10.372  32.559   8.765
 2190POPC   D2A29404  10.347  32.339   8.371
 2190POPC   C3A29405  10.554  32.556   8.017
 2190POPC   C4A29406  10.832  32.517   7.651
 2190POPC   C1B29407  10.507  31.859   8.667
 2190POPC   C2B29408  10.503  31.679   8.294
 2190POPC   C3B29409  10.583  32.008   8.045
 2190POPC   C4B29410  10.395  32.127   7.690
 2191POPC   NC329411  12.274  22.027   9.442
 2191POPC   PO429412  11.665  22.104   9.515
 2191POPC   GL129413  11.860  22.102   9.143
 2191POPC   GL229414  12.039  22.387   9.154
 2191POPC   C1A29415  12.143  22.060   8.788
 2191POPC   D2A29416  12.006  22.174   8.406
 2191POPC   C3A29417  12.288  22.010   8.165
 2191POPC   C4A29418  12.218  22.049   7.771
 2191POPC   C1B29419  12.349  22.531   8.856
 2191POPC   C2B29420  12.420  22.504   8.417
 2191POPC   C3B29421  12.166  22.509   8.039
 2191POPC   C4B29422  12.317  22.552   7.631
 2192POPC   NC329423  20.174  28.202   9.436
 2192POPC   PO429424  20.872  28.411   9.436
 2192POPC   GL129425  20.627  28.382   9.085
 2192POPC   GL229426  20.347  28.640   9.194
 2192POPC   C1A29427  20.909  28.306   8.698
 2192POPC   D2A29428  21.194  28.215   8.336
 2192POPC   C3A29429  21.012  28.512   8.056
 2192POPC   C4A29430  20.648  28.325   7.895
 2192POPC   C1B29431  20.367  28.637   8.746
 2192POPC   C2B29432  20.571  28.559   8.376
 2192POPC   C3B29433  20.586  28.822   8.052
 2192POPC   C4B29434  20.447  28.733   7.678
 2193POPC   NC329435  18.968  32.791   9.520
 2193POPC   PO429436  19.038  33.508   9.504
 2193POPC   GL129437  18.924  33.174   9.168
 2193POPC   GL229438  19.196  32.873   9.090
 2193POPC   C1A29439  18.816  32.928   8.781
 2193POPC   D2A29440  19.080  32.963   8.427
 2193POPC   C3A29441  18.864  32.955   8.067
 2193POPC   C4A29442  19.035  33.086   7.707
 2193POPC   C1B29443  19.239  32.578   8.731
 2193POPC   C2B29444  19.341  32.497   8.296
 2193POPC   C3B29445  19.327  32.726   7.908
 2193POPC   C4B29446  19.235  32.681   7.453
 2194POPC   NC329447  41.739  37.377   9.517
 2194POPC   PO429448  41.153  37.319   9.288
 2194POPC   GL129449  41.435  37.621   9.160
 2194POPC   GL229450  41.755  37.478   9.018
 2194POPC   C1A29451  41.530  37.914   8.844
 2194POPC   D2A29452  41.740  37.891   8.496
 2194POPC   C3A29453  41.629  37.999   8.085
 2194POPC   C4A29454  41.546  37.844   7.698
 2194POPC   C1B29455  41.458  37.415   8.684
 2194POPC   C2B29456  41.339  37.297   8.301
 2194POPC   C3B29457  41.614  37.351   8.002
 2194POPC   C4B29458  41.828  37.437   7.639
 2195POPC   NC329459  16.466   5.829   9.437
 2195POPC   PO429460  17.036   5.546   9.320
 2195POPC   GL129461  16.813   5.817   9.031
 2195POPC   GL229462  16.505   6.048   9.007
 2195POPC   C1A29463  16.831   5.881   8.605
 2195POPC   D2A29464  16.753   6.115   8.261
 2195POPC   C3A29465  16.901   5.938   7.913
 2195POPC   C4A29466  16.787   5.779   7.539
 2195POPC   C1B29467  16.350   5.803   8.691
 2195POPC   C2B29468  16.397   5.729   8.233
 2195POPC   C3B29469  16.397   6.028   7.879
 2195POPC   C4B29470  16.498   6.179   7.470
 2196POPC   NC329471   4.308  40.470   9.335
 2196POPC   PO429472   4.254  39.837   9.581
 2196POPC   GL129473   4.195  39.823   9.175
 2196POPC   GL229474   4.510  40.023   9.151
 2196POPC   C1A29475   4.323  39.730   8.753
 2196POPC   D2A29476   4.586  39.862   8.412
 2196POPC   C3A29477   4.443  39.760   7.992
 2196POPC   C4A29478   4.045  39.696   7.740
 2196POPC   C1B29479   4.472  40.266   8.755
 2196POPC   C2B29480   4.610  40.364   8.353
 2196POPC   C3B29481   4.485  40.285   7.925
 2196POPC   C4B29482   4.600  40.421   7.479
 2197POPC   NC329483   2.206  28.340   9.335
 2197POPC   PO429484   2.820  28.171   9.604
 2197POPC   GL129485   2.779  28.264   9.179
 2197POPC   GL229486   2.989  27.988   9.121
 2197POPC   C1A29487   2.915  28.381   8.750
 2197POPC   D2A29488   2.846  28.203   8.342
 2197POPC   C3A29489   2.777  28.458   7.989
 2197POPC   C4A29490   2.481  28.493   7.663
 2197POPC   C1B29491   3.113  27.828   8.741
 2197POPC   C2B29492   3.274  27.920   8.324
 2197POPC   C3B29493   3.092  27.903   7.912
 2197POPC   C4B29494   2.862  28.133   7.587
 2198POPC   NC329495  32.508   4.631   9.595
 2198POPC   PO429496  32.137   5.244   9.526
 2198POPC   GL129497  32.167   5.129   9.117
 2198POPC   GL229498  32.234   5.460   9.040
 2198POPC   C1A29499  32.445   5.109   8.749
 2198POPC   D2A29500  32.295   5.003   8.365
 2198POPC   C3A29501  32.501   5.114   8.018
 2198POPC   C4A29502  32.259   4.938   7.690
 2198POPC   C1B29503  31.998   5.350   8.634
 2198POPC   C2B29504  31.894   5.315   8.185
 2198POPC   C3B29505  32.105   5.407   7.777
 2198POPC   C4B29506  32.361   5.318   7.392
 2199POPC   NC329507  33.993  15.681   9.505
 2199POPC   PO429508  33.429  15.741   9.841
 2199POPC   GL129509  33.557  15.840   9.281
 2199POPC   GL229510  33.898  15.920   9.078
 2199POPC   C1A29511  33.472  15.992   8.835
 2199POPC   D2A29512  33.566  15.867   8.389
 2199POPC   C3A29513  33.494  16.064   7.993
 2199POPC   C4A29514  33.769  16.208   7.656
 2199POPC   C1B29515  33.830  15.618   8.771
 2199POPC   C2B29516  33.996  15.582   8.386
 2199POPC   C3B29517  33.993  15.841   8.037
 2199POPC   C4B29518  33.740  15.697   7.749
 2200POPC   NC329519  26.982  14.922   9.497
 2200POPC   PO429520  26.974  15.527   9.675
 2200POPC   GL129521  27.000  15.417   9.254
 2200POPC   GL229522  26.772  15.206   9.080
 2200POPC   C1A29523  27.175  15.434   8.848
 2200POPC   D2A29524  27.207  15.486   8.420
 2200POPC   C3A29525  26.914  15.278   8.178
 2200POPC   C4A29526  26.799  15.440   7.785
 2200POPC   C1B29527  26.919  15.022   8.666
 2200POPC   C2B29528  26.897  14.769   8.268
 2200POPC   C3B29529  27.154  14.873   7.923
 2200POPC   C4B29530  27.296  15.320   7.855
 2201POPC   NC329531  28.581  28.628   9.466
 2201POPC   PO429532  28.016  28.116   9.448
 2201POPC   GL129533  28.252  28.369   9.118
 2201POPC   GL229534  28.563  28.280   9.100
 2201POPC   C1A29535  28.298  28.223   8.663
 2201POPC   D2A29536  28.196  28.031   8.237
 2201POPC   C3A29537  28.293  28.325   7.899
 2201POPC   C4A29538  28.267  28.774   7.750
 2201POPC   C1B29539  28.599  28.619   8.778
 2201POPC   C2B29540  28.542  28.511   8.332
 2201POPC   C3B29541  28.687  28.668   7.982
 2201POPC   C4B29542  28.680  28.555   7.553
 2202POPC   NC329543  34.905   3.734   9.582
 2202POPC   PO429544  35.409   3.323   9.533
 2202POPC   GL129545  35.395   3.476   9.158
 2202POPC   GL229546  35.072   3.500   9.173
 2202POPC   C1A29547  35.423   3.501   8.735
 2202POPC   D2A29548  35.717   3.670   8.472
 2202POPC   C3A29549  35.706   3.522   8.073
 2202POPC   C4A29550  35.505   3.634   7.725
 2202POPC   C1B29551  34.966   3.708   8.853
 2202POPC   C2B29552  35.139   3.832   8.487
 2202POPC   C3B29553  35.113   3.702   8.101
 2202POPC   C4B29554  35.079   3.948   7.746
 2203POPC   NC329555  29.186  13.486   9.353
 2203POPC   PO429556  28.806  14.039   9.384
 2203POPC   GL129557  29.081  13.872   9.041
 2203POPC   GL229558  29.454  13.840   9.081
 2203POPC   C1A29559  29.091  13.586   8.696
 2203POPC   D2A29560  28.912  13.707   8.314
 2203POPC   C3A29561  28.846  13.488   7.958
 2203POPC   C4A29562  29.101  13.571   7.572
 2203POPC   C1B29563  29.604  13.525   8.794
 2203POPC   C2B29564  29.507  13.615   8.390
 2203POPC   C3B29565  29.360  13.489   8.046
 2203POPC   C4B29566  29.571  13.272   7.770
 2204POPC   NC329567   1.618  18.584   9.548
 2204POPC   PO429568   2.112  18.050   9.518
 2204POPC   GL129569   2.137  18.200   9.101
 2204POPC   GL229570   1.835  18.375   9.069
 2204POPC   C1A29571   1.969  18.107   8.667
 2204POPC   D2A29572   2.140  18.298   8.314
 2204POPC   C3A29573   1.868  18.273   7.993
 2204POPC   C4A29574   1.993  18.283   7.603
 2204POPC   C1B29575   2.150  18.579   8.751
 2204POPC   C2B29576   2.232  18.865   8.425
 2204POPC   C3B29577   2.332  18.824   8.019
 2204POPC   C4B29578   2.313  18.683   7.612
 2205POPC   NC329579  19.424  11.957   9.449
 2205POPC   PO429580  20.047  12.135   9.668
 2205POPC   GL129581  20.003  12.253   9.215
 2205POPC   GL229582  19.641  12.276   9.095
 2205POPC   C1A29583  20.010  12.317   8.757
 2205POPC   D2A29584  19.733  12.350   8.396
 2205POPC   C3A29585  19.928  12.392   7.988
 2205POPC   C4A29586  20.112  12.029   7.827
 2205POPC   C1B29587  19.689  11.884   8.808
 2205POPC   C2B29588  19.680  11.737   8.352
 2205POPC   C3B29589  19.612  11.894   7.943
 2205POPC   C4B29590  19.389  11.771   7.572
 2206POPC   NC329591  42.476  20.704   9.507
 2206POPC   PO429592  41.817  20.929   9.360
 2206POPC   GL129593  42.211  20.675   9.082
 2206POPC   GL229594  42.620  20.627   9.042
 2206POPC   C1A29595  42.230  20.481   8.672
 2206POPC   D2A29596  42.128  20.251   8.274
 2206POPC   C3A29597  42.423  20.421   7.975
 2206POPC   C4A29598  42.294  20.789   7.770
 2206POPC   C1B29599  42.561  20.893   8.700
 2206POPC   C2B29600  42.435  20.864   8.275
 2206POPC   C3B29601  42.728  20.983   7.938
 2206POPC   C4B29602  42.729  20.973   7.458
 2207POPC   NC329603   4.487   9.918   9.485
 2207POPC   PO429604   3.898   9.704   9.746
 2207POPC   GL129605   4.088   9.641   9.287
 2207POPC   GL229606   4.105   9.970   9.137
 2207POPC   C1A29607   4.362   9.617   8.863
 2207POPC   D2A29608   4.382   9.846   8.443
 2207POPC   C3A29609   4.372   9.615   8.047
 2207POPC   C4A29610   4.608   9.806   7.733
 2207POPC   C1B29611   3.941   9.916   8.723
 2207POPC   C2B29612   3.922  10.122   8.357
 2207POPC   C3B29613   4.175  10.099   7.997
 2207POPC   C4B29614   4.096   9.849   7.667
 2208POPC   NC329615   9.577  42.707   9.387
 2208POPC   PO429616  10.166  42.764   9.737
 2208POPC   GL129617  10.058  42.430   9.307
 2208POPC   GL229618   9.762  42.205   9.318
 2208POPC   C1A29619   9.855  42.442   8.830
 2208POPC   D2A29620   9.815  42.628   8.388
 2208POPC   C3A29621   9.681  42.455   7.974
 2208POPC   C4A29622   9.820  42.083   7.719
 2208POPC   C1B29623   9.577  42.032   8.906
 2208POPC   C2B29624   9.664  42.124   8.443
 2208POPC   C3B29625   9.405  42.040   8.086
 2208POPC   C4B29626   9.310  41.963   7.682
 2209POPC   NC329627  31.274  37.905   9.511
 2209POPC   PO429628  31.697  37.386   9.554
 2209POPC   GL129629  31.432  37.513   9.230
 2209POPC   GL229630  31.611  37.801   9.124
 2209POPC   C1A29631  31.237  37.608   8.842
 2209POPC   D2A29632  31.475  37.796   8.504
 2209POPC   C3A29633  31.341  37.625   8.090
 2209POPC   C4A29634  31.571  37.416   7.749
 2209POPC   C1B29635  31.727  38.128   8.834
 2209POPC   C2B29636  31.802  38.253   8.422
 2209POPC   C3B29637  31.662  38.011   8.073
 2209POPC   C4B29638  31.536  37.919   7.651
 2210POPC   NC329639  38.111   4.568   9.450
 2210POPC   PO429640  37.429   4.463   9.491
 2210POPC   GL129641  37.444   4.288   9.103
 2210POPC   GL229642  37.779   4.289   9.117
 2210POPC   C1A29643  37.556   4.026   8.748
 2210POPC   D2A29644  37.708   4.137   8.362
 2210POPC   C3A29645  37.829   3.901   8.028
 2210POPC   C4A29646  37.818   4.100   7.660
 2210POPC   C1B29647  37.784   4.501   8.767
 2210POPC   C2B29648  37.916   4.569   8.421
 2210POPC   C3B29649  37.698   4.612   8.065
 2210POPC   C4B29650  37.794   4.599   7.653
 2211POPC   NC329651  15.192   2.902   9.362
 2211POPC   PO429652  14.705   2.432   9.415
 2211POPC   GL129653  15.020   2.495   9.101
 2211POPC   GL229654  14.943   2.777   8.938
 2211POPC   C1A29655  15.359   2.596   8.762
 2211POPC   D2A29656  15.504   2.539   8.352
 2211POPC   C3A29657  15.330   2.650   7.964
 2211POPC   C4A29658  14.921   2.515   7.825
 2211POPC   C1B29659  14.750   2.458   8.679
 2211POPC   C2B29660  14.970   2.551   8.335
 2211POPC   C3B29661  14.931   2.947   8.117
 2211POPC   C4B29662  15.017   3.073   7.703
 2212POPC   NC329663  16.335  25.470   9.466
 2212POPC   PO429664  16.923  25.052   9.492
 2212POPC   GL129665  16.705  25.185   9.136
 2212POPC   GL229666  16.639  25.535   9.055
 2212POPC   C1A29667  16.868  25.220   8.709
 2212POPC   D2A29668  16.699  25.062   8.322
 2212POPC   C3A29669  17.007  25.013   7.983
 2212POPC   C4A29670  17.214  25.050   7.596
 2212POPC   C1B29671  16.460  25.543   8.662
 2212POPC   C2B29672  16.672  25.587   8.310
 2212POPC   C3B29673  16.627  25.401   7.923
 2212POPC   C4B29674  16.456  25.687   7.663
 2213POPC   NC329675  27.067  44.184   9.430
 2213POPC   PO429676  26.742  43.551   9.595
 2213POPC   GL129677  26.754  43.826   9.205
 2213POPC   GL229678  27.082  43.745   9.113
 2213POPC   C1A29679  26.776  44.086   8.793
 2213POPC   D2A29680  26.637  44.266   8.392
 2213POPC   C3A29681  26.830  44.249   7.989
 2213POPC   C4A29682  26.806  44.090   7.548
 2213POPC   C1B29683  27.197  43.852   8.650
 2213POPC   C2B29684  26.953  43.851   8.304
 2213POPC   C3B29685  26.878  43.725   7.900
 2213POPC   C4B29686  27.118  43.646   7.551
 2214POPC   NC329687  19.872  39.839   9.487
 2214POPC   PO429688  20.147  40.525   9.383
 2214POPC   GL129689  19.973  40.170   9.116
 2214POPC   GL229690  19.699  39.918   9.027
 2214POPC   C1A29691  20.075  40.062   8.692
 2214POPC   D2A29692  19.998  40.289   8.326
 2214POPC   C3A29693  19.929  40.051   7.944
 2214POPC   C4A29694  20.017  39.777   7.614
 2214POPC   C1B29695  19.784  39.640   8.712
 2214POPC   C2B29696  19.845  39.735   8.329
 2214POPC   C3B29697  19.703  39.557   7.961
 2214POPC   C4B29698  19.466  39.864   7.733
 2215POPC   NC329699   6.253  36.645   9.500
 2215POPC   PO429700   5.702  37.075   9.471
 2215POPC   GL129701   5.708  36.811   9.150
 2215POPC   GL229702   6.046  36.782   9.070
 2215POPC   C1A29703   5.657  36.847   8.737
 2215POPC   D2A29704   5.924  36.913   8.400
 2215POPC   C3A29705   5.717  36.802   8.065
 2215POPC   C4A29706   5.750  36.779   7.669
 2215POPC   C1B29707   6.015  36.476   8.762
 2215POPC   C2B29708   6.152  36.416   8.357
 2215POPC   C3B29709   6.125  36.540   7.941
 2215POPC   C4B29710   6.206  36.568   7.522
 2216POPC   NC329711  26.579  24.529   9.443
 2216POPC   PO429712  27.111  24.984   9.626
 2216POPC   GL129713  27.120  24.862   9.167
 2216POPC   GL229714  26.828  24.652   9.034
 2216POPC   C1A29715  27.186  24.743   8.717
 2216POPC   D2A29716  26.931  24.496   8.450
 2216POPC   C3A29717  26.951  24.520   8.008
 2216POPC   C4A29718  26.923  24.740   7.633
 2216POPC   C1B29719  26.540  24.407   8.765
 2216POPC   C2B29720  26.475  24.266   8.311
 2216POPC   C3B29721  26.462  24.281   7.863
 2216POPC   C4B29722  26.273  24.327   7.432
 2217POPC   NC329723  13.102  36.063   9.404
 2217POPC   PO429724  12.432  36.085   9.298
 2217POPC   GL129725  12.783  35.893   9.037
 2217POPC   GL229726  13.172  35.769   8.982
 2217POPC   C1A29727  12.800  36.012   8.611
 2217POPC   D2A29728  12.740  36.295   8.284
 2217POPC   C3A29729  12.714  36.032   7.951
 2217POPC   C4A29730  12.515  36.184   7.626
 2217POPC   C1B29731  13.291  36.091   8.676
 2217POPC   C2B29732  13.208  36.060   8.210
 2217POPC   C3B29733  13.178  36.162   7.769
 2217POPC   C4B29734  13.267  35.943   7.401
 2218POPC   NC329735  18.102  25.123   9.500
 2218POPC   PO429736  18.667  25.524   9.394
 2218POPC   GL129737  18.304  25.413   9.141
 2218POPC   GL229738  17.983  25.588   9.268
 2218POPC   C1A29739  18.146  25.099   8.830
 2218POPC   D2A29740  18.035  24.900   8.418
 2218POPC   C3A29741  18.092  25.090   8.018
 2218POPC   C4A29742  18.324  24.958   7.701
 2218POPC   C1B29743  17.882  25.554   8.847
 2218POPC   C2B29744  18.070  25.442   8.456
 2218POPC   C3B29745  17.937  25.561   8.060
 2218POPC   C4B29746  18.168  25.542   7.666
 2219POPC   NC329747  36.424  27.129   9.536
 2219POPC   PO429748  35.721  27.045   9.493
 2219POPC   GL129749  36.065  26.977   9.183
 2219POPC   GL229750  36.340  26.690   9.280
 2219POPC   C1A29751  36.011  26.991   8.734
 2219POPC   D2A29752  35.931  26.608   8.496
 2219POPC   C3A29753  35.998  26.658   8.060
 2219POPC   C4A29754  36.137  27.047   7.890
 2219POPC   C1B29755  36.335  26.619   8.842
 2219POPC   C2B29756  36.454  26.578   8.409
 2219POPC   C3B29757  36.400  26.340   8.047
 2219POPC   C4B29758  36.298  26.519   7.654
 2220POPC   NC329759  22.767   7.431   9.311
 2220POPC   PO429760  23.334   6.972   9.398
 2220POPC   GL129761  23.186   7.238   9.097
 2220POPC   GL229762  22.869   7.138   8.909
 2220POPC   C1A29763  23.267   7.398   8.707
 2220POPC   D2A29764  23.229   7.195   8.346
 2220POPC   C3A29765  22.931   7.270   8.074
 2220POPC   C4A29766  22.693   7.101   7.732
 2220POPC   C1B29767  22.792   7.541   8.631
 2220POPC   C2B29768  22.711   7.749   8.216
 2220POPC   C3B29769  22.721   7.616   7.782
 2220POPC   C4B29770  22.453   7.457   7.448
 2221POPC   NC329771  29.299   6.089   9.727
 2221POPC   PO429772  29.234   6.712   9.429
 2221POPC   GL129773  29.141   6.565   9.068
 2221POPC   GL229774  28.802   6.492   9.000
 2221POPC   C1A29775  29.354   6.618   8.693
 2221POPC   D2A29776  29.183   6.446   8.355
 2221POPC   C3A29777  29.325   6.590   7.973
 2221POPC   C4A29778  29.308   6.674   7.563
 2221POPC   C1B29779  28.893   6.849   8.672
 2221POPC   C2B29780  29.043   6.936   8.257
 2221POPC   C3B29781  28.890   6.904   7.822
 2221POPC   C4B29782  28.934   6.937   7.329
 2222POPC   NC329783  16.329   7.709   9.482
 2222POPC   PO429784  17.023   7.780   9.578
 2222POPC   GL129785  16.868   7.572   9.204
 2222POPC   GL229786  16.906   7.192   9.187
 2222POPC   C1A29787  16.597   7.608   8.828
 2222POPC   D2A29788  16.429   7.537   8.395
 2222POPC   C3A29789  16.490   7.769   8.064
 2222POPC   C4A29790  16.861   7.714   7.832
 2222POPC   C1B29791  16.968   7.252   8.751
 2222POPC   C2B29792  16.748   7.111   8.420
 2222POPC   C3B29793  16.652   7.267   8.026
 2222POPC   C4B29794  16.893   7.163   7.659
 2223POPC   NC329795  41.200  25.881   9.634
 2223POPC   PO429796  41.749  26.340   9.505
 2223POPC   GL129797  41.444  26.226   9.175
 2223POPC   GL229798  41.232  25.906   9.124
 2223POPC   C1A29799  41.471  26.205   8.715
 2223POPC   D2A29800  41.610  26.393   8.329
 2223POPC   C3A29801  41.308  26.350   7.990
 2223POPC   C4A29802  41.421  26.009   7.724
 2223POPC   C1B29803  41.061  25.884   8.697
 2223POPC   C2B29804  41.168  25.914   8.246
 2223POPC   C3B29805  41.189  25.590   7.902
 2223POPC   C4B29806  41.118  25.664   7.470
 2224POPC   NC329807  27.950  23.637   9.416
 2224POPC   PO429808  28.604  23.815   9.445
 2224POPC   GL129809  28.338  23.831   9.104
 2224POPC   GL229810  28.350  23.460   9.096
 2224POPC   C1A29811  28.450  23.739   8.677
 2224POPC   D2A29812  28.667  23.728   8.308
 2224POPC   C3A29813  28.403  23.734   7.946
 2224POPC   C4A29814  28.535  23.657   7.547
 2224POPC   C1B29815  28.005  23.521   8.783
 2224POPC   C2B29816  28.056  23.618   8.347
 2224POPC   C3B29817  28.046  23.362   7.980
 2224POPC   C4B29818  28.063  23.389   7.533
 2225POPC   NC329819  30.887  32.654   9.515
 2225POPC   PO429820  30.275  32.873   9.564
 2225POPC   GL129821  30.611  33.042   9.287
 2225POPC   GL229822  30.360  33.212   9.137
 2225POPC   C1A29823  30.839  32.952   8.895
 2225POPC   D2A29824  30.941  32.761   8.459
 2225POPC   C3A29825  30.903  33.076   8.139
 2225POPC   C4A29826  31.021  33.148   7.727
 2225POPC   C1B29827  30.326  32.900   8.809
 2225POPC   C2B29828  30.454  32.910   8.372
 2225POPC   C3B29829  30.484  32.844   7.900
 2225POPC   C4B29830  30.784  32.740   7.522
 2226POPC   NC329831  31.300  26.636   9.551
 2226POPC   PO429832  31.618  26.104   9.655
 2226POPC   GL129833  31.752  25.938   9.250
 2226POPC   GL229834  31.678  26.270   9.163
 2226POPC   C1A29835  31.655  25.948   8.786
 2226POPC   D2A29836  31.455  25.766   8.449
 2226POPC   C3A29837  31.691  25.937   8.115
 2226POPC   C4A29838  31.790  25.876   7.706
 2226POPC   C1B29839  31.261  26.207   8.941
 2226POPC   C2B29840  31.217  26.223   8.482
 2226POPC   C3B29841  31.336  26.285   8.053
 2226POPC   C4B29842  31.468  26.284   7.639
 2227POPC   NC329843   5.791  38.322   9.474
 2227POPC   PO429844   5.815  38.991   9.268
 2227POPC   GL129845   5.983  38.655   9.100
 2227POPC   GL229846   5.647  38.487   9.008
 2227POPC   C1A29847   6.212  38.720   8.723
 2227POPC   D2A29848   6.121  38.550   8.319
 2227POPC   C3A29849   5.941  38.731   7.956
 2227POPC   C4A29850   5.548  38.679   7.726
 2227POPC   C1B29851   5.978  38.219   8.802
 2227POPC   C2B29852   6.043  38.056   8.362
 2227POPC   C3B29853   6.121  38.172   7.958
 2227POPC   C4B29854   6.039  38.374   7.606
 2228POPC   NC329855  40.879  12.386   9.511
 2228POPC   PO429856  40.413  11.863   9.491
 2228POPC   GL129857  40.651  11.966   9.119
 2228POPC   GL229858  40.690  12.313   9.046
 2228POPC   C1A29859  40.698  11.842   8.686
 2228POPC   D2A29860  40.649  11.577   8.321
 2228POPC   C3A29861  40.872  11.803   7.984
 2228POPC   C4A29862  40.812  12.180   7.716
 2228POPC   C1B29863  40.487  12.318   8.671
 2228POPC   C2B29864  40.676  12.349   8.266
 2228POPC   C3B29865  40.380  12.376   7.927
 2228POPC   C4B29866  40.352  12.332   7.490
 2229POPC   NC329867  33.144  24.990   9.620
 2229POPC   PO429868  33.100  24.327   9.525
 2229POPC   GL129869  33.034  24.646   9.232
 2229POPC   GL229870  33.371  24.770   9.177
 2229POPC   C1A29871  32.755  24.655   8.872
 2229POPC   D2A29872  32.843  24.822   8.465
 2229POPC   C3A29873  32.883  24.594   8.093
 2229POPC   C4A29874  32.770  24.528   7.680
 2229POPC   C1B29875  33.259  24.576   8.759
 2229POPC   C2B29876  33.330  24.691   8.325
 2229POPC   C3B29877  33.341  24.536   7.900
 2229POPC   C4B29878  33.404  24.553   7.474
 2230POPC   NC329879  41.215  36.180   9.527
 2230POPC   PO429880  41.829  35.957   9.481
 2230POPC   GL129881  41.617  36.157   9.201
 2230POPC   GL229882  41.667  36.487   9.269
 2230POPC   C1A29883  41.469  36.042   8.826
 2230POPC   D2A29884  41.680  35.901   8.473
 2230POPC   C3A29885  41.455  36.051   8.094
 2230POPC   C4A29886  41.550  35.970   7.654
 2230POPC   C1B29887  41.679  36.559   8.809
 2230POPC   C2B29888  41.790  36.422   8.350
 2230POPC   C3B29889  41.741  36.412   7.860
 2230POPC   C4B29890  41.876  36.302   7.403
 2231POPC   NC329891  17.695  25.867   9.679
 2231POPC   PO429892  17.021  26.040   9.612
 2231POPC   GL129893  17.314  25.913   9.282
 2231POPC   GL229894  17.662  26.080   9.228
 2231POPC   C1A29895  17.320  26.005   8.852
 2231POPC   D2A29896  17.235  26.257   8.521
 2231POPC   C3A29897  17.337  26.036   8.152
 2231POPC   C4A29898  17.236  26.192   7.760
 2231POPC   C1B29899  17.878  26.064   8.838
 2231POPC   C2B29900  17.730  25.898   8.471
 2231POPC   C3B29901  17.871  26.065   8.096
 2231POPC   C4B29902  17.766  25.893   7.712
 2232POPC   NC329903   0.444  34.969   9.289
 2232POPC   PO429904   0.168  35.576   9.379
 2232POPC   GL129905   0.326  35.419   8.996
 2232POPC   GL229906   0.640  35.432   9.027
 2232POPC   C1A29907   0.461  35.190   8.608
 2232POPC   D2A29908   0.164  35.014   8.343
 2232POPC   C3A29909   0.108  35.137   7.933
 2232POPC   C4A29910   0.248  35.053   7.577
 2232POPC   C1B29911   0.892  35.497   8.690
 2232POPC   C2B29912   0.650  35.638   8.401
 2232POPC   C3B29913   0.504  35.412   8.084
 2232POPC   C4B29914   0.493  35.505   7.665
 2233POPC   NC329915  19.377  14.273   9.482
 2233POPC   PO429916  18.836  14.711   9.376
 2233POPC   GL129917  18.980  14.329   9.172
 2233POPC   GL229918  19.083  14.571   8.935
 2233POPC   C1A29919  19.008  14.085   8.805
 2233POPC   D2A29920  19.096  14.332   8.434
 2233POPC   C3A29921  19.017  14.136   8.052
 2233POPC   C4A29922  18.811  14.171   7.672
 2233POPC   C1B29923  19.143  14.868   8.631
 2233POPC   C2B29924  19.345  14.782   8.273
 2233POPC   C3B29925  19.243  14.582   7.946
 2233POPC   C4B29926  18.895  14.661   7.748
 2234POPC   NC329927  42.949  35.101   9.514
 2234POPC   PO429928  43.461  35.552   9.636
 2234POPC   GL129929  43.337  35.379   9.208
 2234POPC   GL229930  42.984  35.471   9.143
 2234POPC   C1A29931  43.376  35.422   8.749
 2234POPC   D2A29932  43.443  35.683   8.368
 2234POPC   C3A29933  43.265  35.508   8.000
 2234POPC   C4A29934  42.945  35.419   7.700
 2234POPC   C1B29935  42.933  35.156   8.819
 2234POPC   C2B29936  42.974  35.257   8.401
 2234POPC   C3B29937  43.052  35.047   8.036
 2234POPC   C4B29938  42.781  34.928   7.727
 2235POPC   NC329939  22.680  25.887   9.594
 2235POPC   PO429940  23.151  26.196   9.268
 2235POPC   GL129941  22.859  26.042   9.051
 2235POPC   GL229942  22.686  25.756   9.106
 2235POPC   C1A29943  22.996  26.065   8.648
 2235POPC   D2A29944  22.891  26.357   8.372
 2235POPC   C3A29945  22.985  26.222   7.987
 2235POPC   C4A29946  22.991  26.428   7.622
 2235POPC   C1B29947  22.542  25.754   8.685
 2235POPC   C2B29948  22.791  25.757   8.308
 2235POPC   C3B29949  22.789  25.763   7.892
 2235POPC   C4B29950  22.882  25.927   7.501
 2236POPC   NC329951  42.934  30.368   9.533
 2236POPC   PO429952  43.363  30.809   9.496
 2236POPC   GL129953  43.091  30.867   9.168
 2236POPC   GL229954  42.922  30.571   9.064
 2236POPC   C1A29955  43.231  30.792   8.734
 2236POPC   D2A29956  43.175  30.554   8.340
 2236POPC   C3A29957  43.015  30.789   7.978
 2236POPC   C4A29958  43.384  30.824   7.727
 2236POPC   C1B29959  42.781  30.430   8.660
 2236POPC   C2B29960  42.714  30.346   8.247
 2236POPC   C3B29961  42.981  30.286   7.885
 2236POPC   C4B29962  43.090  30.474   7.461
 2237POPC   NC329963  37.700  24.643   9.694
 2237POPC   PO429964  38.308  24.626   9.692
 2237POPC   GL129965  38.032  24.552   9.293
 2237POPC   GL229966  37.702  24.688   9.178
 2237POPC   C1A29967  37.921  24.332   8.881
 2237POPC   D2A29968  37.651  24.427   8.489
 2237POPC   C3A29969  37.808  24.451   8.085
 2237POPC   C4A29970  37.911  24.416   7.674
 2237POPC   C1B29971  37.418  24.915   8.905
 2237POPC   C2B29972  37.248  24.865   8.488
 2237POPC   C3B29973  37.340  24.676   8.083
 2237POPC   C4B29974  37.549  24.778   7.712
 2238POPC   NC329975   8.296  12.911   9.354
 2238POPC   PO429976   7.698  12.780   9.669
 2238POPC   GL129977   7.886  12.624   9.175
 2238POPC   GL229978   8.067  12.899   8.915
 2238POPC   C1A29979   8.100  12.451   8.730
 2238POPC   D2A29980   8.322  12.729   8.447
 2238POPC   C3A29981   8.066  12.912   8.129
 2238POPC   C4A29982   8.035  12.858   7.707
 2238POPC   C1B29983   8.378  13.192   8.713
 2238POPC   C2B29984   8.460  13.220   8.289
 2238POPC   C3B29985   8.349  13.269   7.850
 2238POPC   C4B29986   8.219  13.249   7.412
 2239POPC   NC329987  29.565  16.130   9.489
 2239POPC   PO429988  30.111  16.057   9.750
 2239POPC   GL129989  30.136  16.047   9.257
 2239POPC   GL229990  30.121  15.734   9.093
 2239POPC   C1A29991  29.911  16.089   8.823
 2239POPC   D2A29992  29.706  16.288   8.480
 2239POPC   C3A29993  29.775  16.039   8.130
 2239POPC   C4A29994  29.823  16.177   7.711
 2239POPC   C1B29995  30.305  15.740   8.730
 2239POPC   C2B29996  30.088  15.635   8.393
 2239POPC   C3B29997  30.161  15.685   8.000
 2239POPC   C4B29998  29.797  15.684   7.752
 2240POPC   NC329999  26.389  33.500   9.264
 2240POPC   PO430000  25.929  33.701   9.694
 2240POPC   GL130001  25.984  33.818   9.179
 2240POPC   GL230002  26.243  33.995   9.091
 2240POPC   C1A30003  26.086  33.638   8.733
 2240POPC   D2A30004  26.424  33.681   8.431
 2240POPC   C3A30005  26.254  33.709   7.999
 2240POPC   C4A30006  25.929  33.477   7.724
 2240POPC   C1B30007  25.839  34.074   8.763
 2240POPC   C2B30008  25.817  34.302   8.366
 2240POPC   C3B30009  25.906  34.131   7.952
 2240POPC   C4B30010  26.195  34.039   7.606
 2241POPC   NC330011   0.178   6.262   9.558
 2241POPC   PO430012   0.635   5.719   9.472
 2241POPC   GL130013   0.504   5.803   9.124
 2241POPC   GL230014   0.155   5.844   9.220
 2241POPC   C1A30015   0.554   5.626   8.735
 2241POPC   D2A30016   0.619   5.777   8.331
 2241POPC   C3A30017   0.388   5.700   7.969
 2241POPC   C4A30018   0.499   5.829   7.570
 2241POPC   C1B30019   0.191   6.024   8.800
 2241POPC   C2B30020   0.330   6.190   8.410
 2241POPC   C3B30021   0.212   6.372   8.038
 2241POPC   C4B30022   0.168   6.236   7.645
 2242POPC   NC330023  42.324  42.656   9.579
 2242POPC   PO430024  42.905  43.075   9.574
 2242POPC   GL130025  42.567  43.028   9.277
 2242POPC   GL230026  42.660  42.702   9.180
 2242POPC   C1A30027  42.243  42.959   8.928
 2242POPC   D2A30028  42.274  42.887   8.454
 2242POPC   C3A30029  42.242  43.143   8.094
 2242POPC   C4A30030  42.389  43.049   7.707
 2242POPC   C1B30031  42.638  42.679   8.774
 2242POPC   C2B30032  42.772  42.818   8.376
 2242POPC   C3B30033  42.683  42.707   7.967
 2242POPC   C4B30034  42.466  42.553   7.586
 2243POPC   NC330035  32.596  20.564   9.302
 2243POPC   PO430036  33.184  20.235   9.409
 2243POPC   GL130037  33.074  20.534   9.078
 2243POPC   GL230038  33.113  20.856   9.183
 2243POPC   C1A30039  32.826  20.619   8.690
 2243POPC   D2A30040  32.945  20.830   8.320
 2243POPC   C3A30041  32.831  20.792   7.911
 2243POPC   C4A30042  33.018  20.480   7.727
 2243POPC   C1B30043  33.274  20.920   8.760
 2243POPC   C2B30044  33.450  20.917   8.329
 2243POPC   C3B30045  33.364  20.811   7.883
 2243POPC   C4B30046  33.225  20.921   7.458
 2244POPC   NC330047  18.889  43.188   9.480
 2244POPC   PO430048  19.452  42.731   9.413
 2244POPC   GL130049  19.019  42.752   9.245
 2244POPC   GL230050  19.087  43.101   9.024
 2244POPC   C1A30051  18.782  42.757   8.890
 2244POPC   D2A30052  19.058  42.823   8.555
 2244POPC   C3A30053  18.841  42.992   8.193
 2244POPC   C4A30054  19.075  43.154   7.823
 2244POPC   C1B30055  18.802  43.255   8.663
 2244POPC   C2B30056  18.845  43.523   8.241
 2244POPC   C3B30057  19.246  43.599   7.970
 2244POPC   C4B30058  19.546  43.354   7.670
 2245POPC   NC330059   5.871  29.613   9.255
 2245POPC   PO430060   6.046  29.120   9.604
 2245POPC   GL130061   6.071  29.119   9.165
 2245POPC   GL230062   5.704  29.117   9.208
 2245POPC   C1A30063   5.944  29.230   8.730
 2245POPC   D2A30064   6.111  29.147   8.323
 2245POPC   C3A30065   6.103  29.435   8.005
 2245POPC   C4A30066   6.007  29.203   7.649
 2245POPC   C1B30067   5.534  28.953   8.863
 2245POPC   C2B30068   5.650  28.858   8.450
 2245POPC   C3B30069   5.740  28.945   8.032
 2245POPC   C4B30070   5.541  28.808   7.680
 2246POPC   NC330071  16.253  39.045   9.508
 2246POPC   PO430072  15.855  39.530   9.436
 2246POPC   GL130073  16.018  39.300   9.102
 2246POPC   GL230074  15.929  38.923   9.157
 2246POPC   C1A30075  16.116  39.406   8.659
 2246POPC   D2A30076  15.953  39.326   8.233
 2246POPC   C3A30077  16.195  39.511   7.877
 2246POPC   C4A30078  16.067  39.701   7.457
 2246POPC   C1B30079  16.223  38.893   8.838
 2246POPC   C2B30080  16.137  38.872   8.435
 2246POPC   C3B30081  16.319  39.003   8.071
 2246POPC   C4B30082  16.252  39.009   7.673
 2247POPC   NC330083  30.557  16.100   9.603
 2247POPC   PO430084  31.076  16.452   9.317
 2247POPC   GL130085  30.970  16.035   9.089
 2247POPC   GL230086  30.635  15.896   9.116
 2247POPC   C1A30087  30.842  15.866   8.654
 2247POPC   D2A30088  30.704  16.110   8.278
 2247POPC   C3A30089  30.732  15.926   7.856
 2247POPC   C4A30090  31.002  16.021   7.499
 2247POPC   C1B30091  30.483  16.204   8.829
 2247POPC   C2B30092  30.225  16.199   8.428
 2247POPC   C3B30093  30.259  16.171   7.991
 2247POPC   C4B30094  30.269  15.959   7.586
 2248POPC   NC330095  29.173  15.024   9.573
 2248POPC   PO430096  29.411  15.684   9.528
 2248POPC   GL130097  29.161  15.450   9.185
 2248POPC   GL230098  28.993  15.101   9.115
 2248POPC   C1A30099  28.971  15.412   8.760
 2248POPC   D2A30100  29.059  15.130   8.444
 2248POPC   C3A30101  29.240  15.303   8.096
 2248POPC   C4A30102  29.409  15.347   7.720
 2248POPC   C1B30103  28.712  14.927   8.767
 2248POPC   C2B30104  28.764  14.726   8.352
 2248POPC   C3B30105  28.999  14.871   7.997
 2248POPC   C4B30106  28.892  15.204   7.724
 2249POPC   NC330107  35.018  44.828   9.689
 2249POPC   PO430108  34.493  44.423   9.547
 2249POPC   GL130109  34.411  44.557   9.160
 2249POPC   GL230110  34.680  44.779   9.141
 2249POPC   C1A30111  34.316  44.380   8.775
 2249POPC   D2A30112  34.541  44.188   8.462
 2249POPC   C3A30113  34.386  44.363   8.120
 2249POPC   C4A30114  34.556  44.514   7.760
 2249POPC   C1B30115  34.662   0.052   8.827
 2249POPC   C2B30116  34.843   0.057   8.473
 2249POPC   C3B30117  34.833  44.777   8.141
 2249POPC   C4B30118  34.884  44.920   7.754
 2250POPC   NC330119  35.545   8.972   9.533
 2250POPC   PO430120  34.900   8.877   9.282
 2250POPC   GL130121  35.282   9.059   9.107
 2250POPC   GL230122  35.495   8.757   9.059
 2250POPC   C1A30123  35.511   9.094   8.695
 2250POPC   D2A30124  35.229   8.943   8.385
 2250POPC   C3A30125  35.293   9.070   7.944
 2250POPC   C4A30126  35.052   9.333   7.673
 2250POPC   C1B30127  35.479   8.560   8.623
 2250POPC   C2B30128  35.588   8.695   8.161
 2250POPC   C3B30129  35.738   8.865   7.736
 2250POPC   C4B30130  35.591   8.682   7.303
 2251POPC   NC330131   2.237  17.317   9.487
 2251POPC   PO430132   1.751  17.533   9.052
 2251POPC   GL130133   2.152  17.368   8.998
 2251POPC   GL230134   2.230  17.695   9.157
 2251POPC   C1A30135   2.391  17.285   8.637
 2251POPC   D2A30136   2.093  17.460   8.396
 2251POPC   C3A30137   2.060  17.409   7.980
 2251POPC   C4A30138   1.892  17.344   7.570
 2251POPC   C1B30139   2.349  17.779   8.755
 2251POPC   C2B30140   2.457  17.821   8.321
 2251POPC   C3B30141   2.232  17.898   7.939
 2251POPC   C4B30142   2.218  17.738   7.546
 2252POPC   NC330143  19.459  28.728   9.386
 2252POPC   PO430144  18.713  28.713   9.370
 2252POPC   GL130145  19.097  28.938   9.105
 2252POPC   GL230146  19.140  29.324   9.087
 2252POPC   C1A30147  19.215  28.996   8.700
 2252POPC   D2A30148  18.900  29.158   8.439
 2252POPC   C3A30149  18.899  28.963   8.077
 2252POPC   C4A30150  19.288  28.807   7.931
 2252POPC   C1B30151  19.122  29.522   8.745
 2252POPC   C2B30152  19.302  29.455   8.374
 2252POPC   C3B30153  19.334  29.313   7.992
 2252POPC   C4B30154  19.061  29.244   7.691
 2253POPC   NC330155  33.887  16.822   9.850
 2253POPC   PO430156  33.694  17.182   9.307
 2253POPC   GL130157  33.757  17.551   9.083
 2253POPC   GL230158  34.093  17.753   9.115
 2253POPC   C1A30159  33.522  17.645   8.714
 2253POPC   D2A30160  33.661  17.499   8.286
 2253POPC   C3A30161  33.494  17.706   7.897
 2253POPC   C4A30162  33.582  17.559   7.428
 2253POPC   C1B30163  34.064  17.575   8.678
 2253POPC   C2B30164  34.133  17.679   8.255
 2253POPC   C3B30165  33.998  17.637   7.844
 2253POPC   C4B30166  34.078  17.660   7.425
 2254POPC   NC330167  11.001  10.547   9.517
 2254POPC   PO430168  11.645  10.305   9.483
 2254POPC   GL130169  11.464  10.309   9.074
 2254POPC   GL230170  11.119  10.278   9.078
 2254POPC   C1A30171  11.329  10.503   8.675
 2254POPC   D2A30172  11.554  10.836   8.424
 2254POPC   C3A30173  11.522  10.741   7.996
 2254POPC   C4A30174  11.127  10.700   7.757
 2254POPC   C1B30175  10.840  10.271   8.718
 2254POPC   C2B30176  10.806  10.221   8.284
 2254POPC   C3B30177  11.195  10.250   8.080
 2254POPC   C4B30178  11.465  10.310   7.751
 2255POPC   NC330179  10.641  30.478   9.455
 2255POPC   PO430180  10.321  30.919   9.836
 2255POPC   GL130181  10.538  30.875   9.195
 2255POPC   GL230182  10.812  31.069   9.059
 2255POPC   C1A30183  10.689  30.610   8.808
 2255POPC   D2A30184  10.477  30.458   8.400
 2255POPC   C3A30185  10.612  30.641   7.984
 2255POPC   C4A30186  10.532  30.616   7.480
 2255POPC   C1B30187  11.051  30.961   8.715
 2255POPC   C2B30188  11.040  30.692   8.379
 2255POPC   C3B30189  11.051  30.923   8.025
 2255POPC   C4B30190  10.894  30.924   7.661
 2256POPC   NC330191  40.484  33.393   9.569
 2256POPC   PO430192  40.528  32.760   9.464
 2256POPC   GL130193  40.709  32.791   9.058
 2256POPC   GL230194  41.100  32.818   9.036
 2256POPC   C1A30195  40.467  32.978   8.739
 2256POPC   D2A30196  40.508  33.161   8.384
 2256POPC   C3A30197  40.416  32.878   8.056
 2256POPC   C4A30198  40.639  32.809   7.681
 2256POPC   C1B30199  40.987  33.033   8.636
 2256POPC   C2B30200  40.921  33.018   8.183
 2256POPC   C3B30201  41.100  32.980   7.851
 2256POPC   C4B30202  41.138  32.599   7.727
 2257POPC   NC330203   4.226  29.557   9.596
 2257POPC   PO430204   4.166  30.169   9.531
 2257POPC   GL130205   4.165  29.894   9.167
 2257POPC   GL230206   4.405  29.655   9.116
 2257POPC   C1A30207   4.058  29.966   8.747
 2257POPC   D2A30208   4.121  29.824   8.331
 2257POPC   C3A30209   4.123  30.160   8.052
 2257POPC   C4A30210   4.292  30.200   7.657
 2257POPC   C1B30211   4.567  29.979   8.829
 2257POPC   C2B30212   4.625  29.993   8.386
 2257POPC   C3B30213   4.540  29.867   7.961
 2257POPC   C4B30214   4.778  29.877   7.571
 2258POPC   NC330215  31.158   8.206   9.368
 2258POPC   PO430216  30.562   8.339   9.497
 2258POPC   GL130217  30.673   8.286   9.089
 2258POPC   GL230218  30.796   7.973   9.016
 2258POPC   C1A30219  30.557   8.411   8.680
 2258POPC   D2A30220  30.479   8.353   8.272
 2258POPC   C3A30221  30.681   8.490   7.897
 2258POPC   C4A30222  30.830   8.578   7.465
 2258POPC   C1B30223  30.682   7.926   8.588
 2258POPC   C2B30224  30.837   8.000   8.167
 2258POPC   C3B30225  30.698   7.793   7.792
 2258POPC   C4B30226  30.511   7.678   7.382
 2259POPC   NC330227  21.157  33.440   9.512
 2259POPC   PO430228  21.188  32.755   9.680
 2259POPC   GL130229  21.334  32.808   9.280
 2259POPC   GL230230  21.472  33.119   9.209
 2259POPC   C1A30231  21.232  32.780   8.864
 2259POPC   D2A30232  21.192  33.104   8.559
 2259POPC   C3A30233  21.395  33.060   8.180
 2259POPC   C4A30234  21.315  32.976   7.776
 2259POPC   C1B30235  21.479  33.400   8.872
 2259POPC   C2B30236  21.685  33.404   8.479
 2259POPC   C3B30237  21.801  33.361   8.049
 2259POPC   C4B30238  21.643  33.358   7.616
 2260POPC   NC330239   9.969   8.027   9.578
 2260POPC   PO430240   9.324   8.222   9.633
 2260POPC   GL130241   9.643   8.194   9.211
 2260POPC   GL230242   9.887   7.977   9.089
 2260POPC   C1A30243   9.803   8.422   8.833
 2260POPC   D2A30244   9.782   8.292   8.414
 2260POPC   C3A30245   9.639   8.509   8.067
 2260POPC   C4A30246   9.909   8.415   7.741
 2260POPC   C1B30247  10.053   7.967   8.701
 2260POPC   C2B30248   9.917   7.800   8.310
 2260POPC   C3B30249   9.702   7.978   7.984
 2260POPC   C4B30250   9.935   7.894   7.645
 2261POPC   NC330251  30.424  18.414   9.419
 2261POPC   PO430252  31.041  18.030   9.489
 2261POPC   GL130253  30.784  18.210   9.133
 2261POPC   GL230254  30.434  18.041   9.055
 2261POPC   C1A30255  30.879  18.356   8.713
 2261POPC   D2A30256  30.725  18.207   8.297
 2261POPC   C3A30257  30.946  18.317   7.897
 2261POPC   C4A30258  30.879  18.382   7.442
 2261POPC   C1B30259  30.322  18.314   8.690
 2261POPC   C2B30260  30.303  18.574   8.310
 2261POPC   C3B30261  30.408  18.439   7.938
 2261POPC   C4B30262  30.506  18.007   7.850
 2262POPC   NC330263   3.747  30.086   9.372
 2262POPC   PO430264   3.371  29.566   9.470
 2262POPC   GL130265   3.560  29.675   9.070
 2262POPC   GL230266   3.518  30.031   8.926
 2262POPC   C1A30267   3.683  29.641   8.636
 2262POPC   D2A30268   3.652  30.070   8.414
 2262POPC   C3A30269   3.611  30.049   7.983
 2262POPC   C4A30270   3.898  29.870   7.704
 2262POPC   C1B30271   3.193  30.189   8.643
 2262POPC   C2B30272   3.179  30.321   8.213
 2262POPC   C3B30273   3.217  30.313   7.766
 2262POPC   C4B30274   3.568  30.304   7.518
 2263POPC   NC330275   3.265  23.618   9.641
 2263POPC   PO430276   3.969  23.924   9.603
 2263POPC   GL130277   3.755  23.864   9.242
 2263POPC   GL230278   3.413  23.856   9.214
 2263POPC   C1A30279   3.804  23.601   8.899
 2263POPC   D2A30280   3.793  23.765   8.493
 2263POPC   C3A30281   3.802  23.518   8.150
 2263POPC   C4A30282   3.804  23.634   7.756
 2263POPC   C1B30283   3.347  23.778   8.773
 2263POPC   C2B30284   3.324  23.606   8.358
 2263POPC   C3B30285   3.304  23.693   7.899
 2263POPC   C4B30286   3.342  23.689   7.442
 2264POPC   NC330287   7.976  18.134   9.427
 2264POPC   PO430288   8.372  18.682   9.447
 2264POPC   GL130289   8.088  18.550   9.089
 2264POPC   GL230290   8.118  18.166   8.949
 2264POPC   C1A30291   8.126  18.567   8.642
 2264POPC   D2A30292   8.333  18.230   8.444
 2264POPC   C3A30293   8.442  18.350   8.050
 2264POPC   C4A30294   8.189  18.535   7.773
 2264POPC   C1B30295   7.858  18.132   8.587
 2264POPC   C2B30296   7.677  18.414   8.318
 2264POPC   C3B30297   7.765  18.319   7.913
 2264POPC   C4B30298   8.140  18.036   7.763
 2265POPC   NC330299  25.021   2.738   9.517
 2265POPC   PO430300  25.594   2.394   9.417
 2265POPC   GL130301  25.383   2.673   9.115
 2265POPC   GL230302  25.024   2.821   9.038
 2265POPC   C1A30303  25.345   2.627   8.683
 2265POPC   D2A30304  25.581   2.571   8.349
 2265POPC   C3A30305  25.466   2.808   8.005
 2265POPC   C4A30306  25.509   2.548   7.630
 2265POPC   C1B30307  24.960   3.034   8.686
 2265POPC   C2B30308  25.025   2.831   8.337
 2265POPC   C3B30309  24.858   2.740   7.996
 2265POPC   C4B30310  25.119   2.902   7.655
 2266POPC   NC330311   0.815  28.426   9.522
 2266POPC   PO430312   1.470  28.442   9.395
 2266POPC   GL130313   1.108  28.455   9.088
 2266POPC   GL230314   0.952  28.760   9.143
 2266POPC   C1A30315   0.811  28.184   8.824
 2266POPC   D2A30316   0.880  27.956   8.433
 2266POPC   C3A30317   0.819  28.256   8.102
 2266POPC   C4A30318   0.993  28.388   7.717
 2266POPC   C1B30319   1.031  28.836   8.694
 2266POPC   C2B30320   1.103  28.714   8.236
 2266POPC   C3B30321   1.396  28.614   7.899
 2266POPC   C4B30322   1.315  28.659   7.422
 2267POPC   NC330323   7.971  11.991   9.468
 2267POPC   PO430324   8.414  12.467   9.306
 2267POPC   GL130325   8.242  12.095   9.062
 2267POPC   GL230326   7.848  12.096   8.989
 2267POPC   C1A30327   8.199  11.948   8.643
 2267POPC   D2A30328   8.344  12.095   8.267
 2267POPC   C3A30329   8.266  12.423   7.994
 2267POPC   C4A30330   8.525  12.327   7.615
 2267POPC   C1B30331   7.752  11.723   8.725
 2267POPC   C2B30332   7.826  11.466   8.375
 2267POPC   C3B30333   7.845  11.590   7.974
 2267POPC   C4B30334   8.066  11.976   7.824
 2268POPC   NC330335  44.963  41.289   9.365
 2268POPC   PO430336  44.501  41.718   9.479
 2268POPC   GL130337  44.545  41.504   9.087
 2268POPC   GL230338  44.509  41.171   9.167
 2268POPC   C1A30339  44.784  41.290   8.738
 2268POPC   D2A30340  44.838  41.200   8.316
 2268POPC   C3A30341  44.710  41.538   8.089
 2268POPC   C4A30342   0.013  41.695   7.835
 2268POPC   C1B30343  44.279  41.039   8.819
 2268POPC   C2B30344  44.161  41.105   8.404
 2268POPC   C3B30345  44.431  41.086   8.039
 2268POPC   C4B30346  44.682  41.241   7.690
 2269POPC   NC330347  20.072  30.412   9.368
 2269POPC   PO430348  19.696  30.875   9.742
 2269POPC   GL130349  19.695  30.876   9.218
 2269POPC   GL230350  19.550  30.677   9.020
 2269POPC   C1A30351  19.993  30.836   8.822
 2269POPC   D2A30352  20.142  30.601   8.464
 2269POPC   C3A30353  19.930  30.728   8.102
 2269POPC   C4A30354  20.091  30.524   7.744
 2269POPC   C1B30355  19.609  30.629   8.585
 2269POPC   C2B30356  19.367  30.794   8.301
 2269POPC   C3B30357  19.298  30.535   8.027
 2269POPC   C4B30358  19.585  30.561   7.743
 2270POPC   NC330359  31.691  14.595   9.471
 2270POPC   PO430360  31.233  14.161   9.645
 2270POPC   GL130361  31.216  14.401   9.235
 2270POPC   GL230362  31.528  14.328   9.078
 2270POPC   C1A30363  31.210  14.557   8.785
 2270POPC   D2A30364  31.356  14.376   8.413
 2270POPC   C3A30365  31.141  14.545   8.061
 2270POPC   C4A30366  31.206  14.433   7.653
 2270POPC   C1B30367  31.763  14.177   8.708
 2270POPC   C2B30368  31.888  14.319   8.313
 2270POPC   C3B30369  31.639  14.445   7.967
 2270POPC   C4B30370  31.672  14.590   7.572
 2271POPC   NC330371  18.820  21.684   9.427
 2271POPC   PO430372  19.347  21.122   9.409
 2271POPC   GL130373  19.178  21.339   9.035
 2271POPC   GL230374  18.817  21.383   8.994
 2271POPC   C1A30375  19.159  21.680   8.728
 2271POPC   D2A30376  19.040  21.820   8.341
 2271POPC   C3A30377  19.027  21.471   8.069
 2271POPC   C4A30378  18.944  21.315   7.684
 2271POPC   C1B30379  18.641  21.046   8.700
 2271POPC   C2B30380  18.556  21.229   8.253
 2271POPC   C3B30381  18.440  21.343   7.804
 2271POPC   C4B30382  18.564  21.131   7.394
 2272POPC   NC330383  43.816  26.544   9.482
 2272POPC   PO430384  44.408  26.728   9.582
 2272POPC   GL130385  44.177  26.742   9.165
 2272POPC   GL230386  43.874  26.981   9.234
 2272POPC   C1A30387  44.077  26.615   8.709
 2272POPC   D2A30388  44.225  26.704   8.263
 2272POPC   C3A30389  43.862  26.654   7.985
 2272POPC   C4A30390  43.488  26.593   7.719
 2272POPC   C1B30391  43.943  27.138   8.830
 2272POPC   C2B30392  43.842  27.014   8.443
 2272POPC   C3B30393  43.951  27.156   8.080
 2272POPC   C4B30394  43.786  27.100   7.695
 2273POPC   NC330395  44.349  15.307   9.502
 2273POPC   PO430396  44.776  14.758   9.422
 2273POPC   GL130397  44.491  14.967   9.143
 2273POPC   GL230398  44.617  15.324   9.072
 2273POPC   C1A30399  44.365  15.022   8.733
 2273POPC   D2A30400  44.658  15.082   8.401
 2273POPC   C3A30401  44.503  15.073   7.983
 2273POPC   C4A30402  44.820  14.919   7.671
 2273POPC   C1B30403  44.468  15.542   8.723
 2273POPC   C2B30404  44.330  15.454   8.306
 2273POPC   C3B30405  44.441  15.587   7.918
 2273POPC   C4B30406  44.493  15.378   7.584
 2274POPC   NC330407  23.900  35.678   9.383
 2274POPC   PO430408  23.464  35.240   9.543
 2274POPC   GL130409  23.659  35.229   9.103
 2274POPC   GL230410  23.980  35.387   8.979
 2274POPC   C1A30411  23.679  35.112   8.638
 2274POPC   D2A30412  23.814  35.283   8.266
 2274POPC   C3A30413  23.602  35.572   8.020
 2274POPC   C4A30414  23.779  35.384   7.658
 2274POPC   C1B30415  24.102  34.989   8.846
 2274POPC   C2B30416  24.168  34.923   8.412
 2274POPC   C3B30417  24.173  35.071   7.973
 2274POPC   C4B30418  24.241  35.149   7.537
 2275POPC   NC330419  33.189  41.012   9.487
 2275POPC   PO430420  32.566  41.034   9.602
 2275POPC   GL130421  32.765  40.880   9.224
 2275POPC   GL230422  33.094  40.676   9.097
 2275POPC   C1A30423  32.743  40.938   8.827
 2275POPC   D2A30424  32.965  40.783   8.528
 2275POPC   C3A30425  32.914  40.900   8.143
 2275POPC   C4A30426  32.752  40.865   7.723
 2275POPC   C1B30427  33.411  40.821   8.739
 2275POPC   C2B30428  33.413  40.757   8.249
 2275POPC   C3B30429  33.312  40.950   7.822
 2275POPC   C4B30430  33.287  40.975   7.369
 2276POPC   NC330431   1.758  14.202   9.340
 2276POPC   PO430432   2.416  14.187   9.624
 2276POPC   GL130433   2.278  14.448   9.198
 2276POPC   GL230434   1.999  14.682   9.231
 2276POPC   C1A30435   2.252  14.355   8.745
 2276POPC   D2A30436   1.926  14.150   8.507
 2276POPC   C3A30437   2.037  14.227   8.096
 2276POPC   C4A30438   2.419  14.192   7.830
 2276POPC   C1B30439   1.823  14.612   8.824
 2276POPC   C2B30440   1.983  14.689   8.447
 2276POPC   C3B30441   1.883  14.721   8.044
 2276POPC   C4B30442   2.101  14.592   7.750
 2277POPC   NC330443  18.260   3.805   9.541
 2277POPC   PO430444  18.116   3.207   9.515
 2277POPC   GL130445  18.062   3.261   9.098
 2277POPC   GL230446  18.309   3.523   9.097
 2277POPC   C1A30447  17.974   3.521   8.708
 2277POPC   D2A30448  18.139   3.753   8.351
 2277POPC   C3A30449  17.912   3.554   8.008
 2277POPC   C4A30450  17.962   3.164   7.795
 2277POPC   C1B30451  18.451   3.318   8.721
 2277POPC   C2B30452  18.556   3.419   8.322
 2277POPC   C3B30453  18.413   3.536   7.919
 2277POPC   C4B30454  18.580   3.469   7.482
 2278POPC   NC330455  32.153  40.262   9.492
 2278POPC   PO430456  32.016  39.615   9.377
 2278POPC   GL130457  32.068  39.968   9.059
 2278POPC   GL230458  31.894  40.312   9.041
 2278POPC   C1A30459  32.346  40.071   8.713
 2278POPC   D2A30460  32.628  40.114   8.366
 2278POPC   C3A30461  32.450  39.963   8.005
 2278POPC   C4A30462  32.027  39.906   7.910
 2278POPC   C1B30463  32.024  40.486   8.641
 2278POPC   C2B30464  32.108  40.334   8.213
 2278POPC   C3B30465  32.120  40.385   7.750
 2278POPC   C4B30466  31.923  40.450   7.318
 2279POPC   NC330467  35.762  40.429   9.441
 2279POPC   PO430468  35.979  39.724   9.597
 2279POPC   GL130469  36.102  39.844   9.212
 2279POPC   GL230470  35.813  40.008   9.152
 2279POPC   C1A30471  36.121  39.728   8.795
 2279POPC   D2A30472  36.062  39.947   8.422
 2279POPC   C3A30473  36.201  39.795   8.068
 2279POPC   C4A30474  36.471  40.115   7.905
 2279POPC   C1B30475  35.941  40.266   8.809
 2279POPC   C2B30476  35.762  40.398   8.437
 2279POPC   C3B30477  35.805  40.243   8.028
 2279POPC   C4B30478  35.992  40.046   7.689
 2280POPC   NC330479   3.158  44.350   9.803
 2280POPC   PO430480   3.385  44.943   9.515
 2280POPC   GL130481   3.499  44.808   9.107
 2280POPC   GL230482   3.729  44.542   9.106
 2280POPC   C1A30483   3.472  44.672   8.699
 2280POPC   D2A30484   3.772  44.495   8.454
 2280POPC   C3A30485   3.637  44.580   8.078
 2280POPC   C4A30486   3.600  44.345   7.729
 2280POPC   C1B30487   3.952  44.818   8.803
 2280POPC   C2B30488   4.120  44.918   8.404
 2280POPC   C3B30489   3.995   0.009   8.018
 2280POPC   C4B30490   3.944  44.739   7.705
 2281POPC   NC330491  38.808  33.541   9.415
 2281POPC   PO430492  38.306  33.032   9.533
 2281POPC   GL130493  38.402  32.928   9.131
 2281POPC   GL230494  38.603  33.211   9.091
 2281POPC   C1A30495  38.558  32.814   8.722
 2281POPC   D2A30496  38.750  32.837   8.307
 2281POPC   C3A30497  38.436  32.757   7.990
 2281POPC   C4A30498  38.147  32.987   7.715
 2281POPC   C1B30499  38.453  33.427   8.745
 2281POPC   C2B30500  38.465  33.276   8.310
 2281POPC   C3B30501  38.653  33.217   7.913
 2281POPC   C4B30502  38.463  33.352   7.553
 2282POPC   NC330503  28.401  21.995   9.384
 2282POPC   PO430504  28.156  22.535   9.773
 2282POPC   GL130505  28.173  22.436   9.280
 2282POPC   GL230506  28.535  22.444   9.193
 2282POPC   C1A30507  28.181  22.238   8.824
 2282POPC   D2A30508  28.189  22.026   8.403
 2282POPC   C3A30509  28.260  22.141   7.925
 2282POPC   C4A30510  28.134  21.991   7.491
 2282POPC   C1B30511  28.713  22.239   8.808
 2282POPC   C2B30512  28.704  21.992   8.466
 2282POPC   C3B30513  28.751  22.048   8.041
 2282POPC   C4B30514  28.713  22.283   7.642
 2283POPC   NC330515  21.133  34.921   9.227
 2283POPC   PO430516  21.579  34.447   9.488
 2283POPC   GL130517  21.503  34.561   9.097
 2283POPC   GL230518  21.670  34.805   8.878
 2283POPC   C1A30519  21.660  34.305   8.787
 2283POPC   D2A30520  21.768  34.491   8.418
 2283POPC   C3A30521  21.440  34.443   8.113
 2283POPC   C4A30522  21.507  34.543   7.694
 2283POPC   C1B30523  21.326  34.690   8.593
 2283POPC   C2B30524  21.264  34.930   8.190
 2283POPC   C3B30525  21.125  34.896   7.753
 2283POPC   C4B30526  21.050  34.538   7.461
 2284POPC   NC330527  26.327  30.226   9.528
 2284POPC   PO430528  26.217  29.579   9.521
 2284POPC   GL130529  26.187  29.813   9.179
 2284POPC   GL230530  26.010  30.152   9.092
 2284POPC   C1A30531  26.146  29.676   8.779
 2284POPC   D2A30532  25.967  29.907   8.492
 2284POPC   C3A30533  25.974  29.671   8.172
 2284POPC   C4A30534  26.014  29.802   7.780
 2284POPC   C1B30535  26.384  30.131   8.852
 2284POPC   C2B30536  26.443  30.134   8.442
 2284POPC   C3B30537  26.289  30.117   8.065
 2284POPC   C4B30538  26.007  30.321   7.827
 2285POPC   NC330539  38.010  41.036   9.498
 2285POPC   PO430540  37.765  40.361   9.509
 2285POPC   GL130541  37.750  40.561   9.100
 2285POPC   GL230542  37.747  40.906   9.101
 2285POPC   C1A30543  37.546  40.674   8.687
 2285POPC   D2A30544  37.296  40.729   8.271
 2285POPC   C3A30545  37.590  40.786   7.886
 2285POPC   C4A30546  38.025  40.836   7.771
 2285POPC   C1B30547  37.635  41.159   8.751
 2285POPC   C2B30548  37.674  41.402   8.424
 2285POPC   C3B30549  37.795  41.228   8.085
 2285POPC   C4B30550  37.773  41.288   7.693
 2286POPC   NC330551  32.097   6.790   9.529
 2286POPC   PO430552  32.670   6.998   9.299
 2286POPC   GL130553  32.302   6.768   9.068
 2286POPC   GL230554  32.029   6.479   9.120
 2286POPC   C1A30555  31.949   6.850   8.787
 2286POPC   D2A30556  31.961   6.608   8.421
 2286POPC   C3A30557  32.082   6.834   8.041
 2286POPC   C4A30558  32.251   6.955   7.705
 2286POPC   C1B30559  32.215   6.306   8.763
 2286POPC   C2B30560  32.104   6.119   8.380
 2286POPC   C3B30561  32.022   6.332   7.996
 2286POPC   C4B30562  32.409   6.489   7.790
 2287POPC   NC330563  37.778  42.746   9.555
 2287POPC   PO430564  37.933  42.144   9.372
 2287POPC   GL130565  37.626  42.369   9.152
 2287POPC   GL230566  37.379  42.084   9.184
 2287POPC   C1A30567  37.698  42.553   8.734
 2287POPC   D2A30568  37.951  42.519   8.346
 2287POPC   C3A30569  37.806  42.264   7.991
 2287POPC   C4A30570  37.752  42.487   7.594
 2287POPC   C1B30571  37.447  42.103   8.745
 2287POPC   C2B30572  37.419  42.313   8.364
 2287POPC   C3B30573  37.470  42.630   8.078
 2287POPC   C4B30574  37.249  42.538   7.710
 2288POPC   NC330575   1.341  34.146   9.304
 2288POPC   PO430576   1.390  34.812   9.471
 2288POPC   GL130577   1.272  34.624   9.121
 2288POPC   GL230578   1.611  34.523   9.068
 2288POPC   C1A30579   1.136  34.548   8.725
 2288POPC   D2A30580   1.034  34.375   8.320
 2288POPC   C3A30581   1.024  34.663   7.995
 2288POPC   C4A30582   0.969  34.377   7.658
 2288POPC   C1B30583   1.599  34.772   8.704
 2288POPC   C2B30584   1.442  34.662   8.318
 2288POPC   C3B30585   1.443  34.377   7.965
 2288POPC   C4B30586   1.531  34.778   7.805
 2289POPC   NC330587  30.939  20.783   9.523
 2289POPC   PO430588  30.256  20.517   9.512
 2289POPC   GL130589  30.534  20.644   9.167
 2289POPC   GL230590  30.888  20.536   9.090
 2289POPC   C1A30591  30.612  20.794   8.740
 2289POPC   D2A30592  30.555  21.094   8.416
 2289POPC   C3A30593  30.788  21.003   8.055
 2289POPC   C4A30594  30.624  20.799   7.720
 2289POPC   C1B30595  31.074  20.502   8.675
 2289POPC   C2B30596  30.831  20.545   8.299
 2289POPC   C3B30597  30.816  20.377   7.877
 2289POPC   C4B30598  31.018  20.536   7.472
 2290POPC   NC330599  17.208  12.836   9.459
 2290POPC   PO430600  16.639  13.193   9.457
 2290POPC   GL130601  16.729  12.947   9.088
 2290POPC   GL230602  16.666  12.596   9.227
 2290POPC   C1A30603  16.769  12.938   8.604
 2290POPC   D2A30604  16.633  12.976   8.143
 2290POPC   C3A30605  16.957  12.960   7.824
 2290POPC   C4A30606  17.138  12.765   7.456
 2290POPC   C1B30607  16.436  12.603   8.820
 2290POPC   C2B30608  16.561  12.495   8.383
 2290POPC   C3B30609  16.683  12.483   7.956
 2290POPC   C4B30610  16.338  12.676   7.825
 2291POPC   NC330611  27.921   3.391   9.476
 2291POPC   PO430612  28.573   3.071   9.438
 2291POPC   GL130613  28.403   3.407   9.199
 2291POPC   GL230614  28.689   3.636   9.224
 2291POPC   C1A30615  28.164   3.599   8.873
 2291POPC   D2A30616  28.139   3.686   8.432
 2291POPC   C3A30617  28.116   3.325   8.154
 2291POPC   C4A30618  28.461   3.120   7.915
 2291POPC   C1B30619  28.655   3.805   8.813
 2291POPC   C2B30620  28.661   3.687   8.379
 2291POPC   C3B30621  28.431   3.734   7.986
 2291POPC   C4B30622  28.593   3.873   7.597
 2292POPC   NC330623  29.289  44.656   9.451
 2292POPC   PO430624  28.662  44.859   9.660
 2292POPC   GL130625  28.785  44.859   9.230
 2292POPC   GL230626  28.863  44.546   9.187
 2292POPC   C1A30627  29.015  44.916   8.845
 2292POPC   D2A30628  29.291  44.761   8.526
 2292POPC   C3A30629  29.244  44.951   8.140
 2292POPC   C4A30630  28.949  44.868   7.808
 2292POPC   C1B30631  29.070  44.354   8.838
 2292POPC   C2B30632  29.007  44.329   8.402
 2292POPC   C3B30633  29.326  44.454   8.087
 2292POPC   C4B30634  29.567  44.392   7.725
 2293POPC   NC330635  17.092  34.034   9.531
 2293POPC   PO430636  16.813  34.615   9.484
 2293POPC   GL130637  17.004  34.539   9.144
 2293POPC   GL230638  17.040  34.874   9.051
 2293POPC   C1A30639  16.794  34.444   8.775
 2293POPC   D2A30640  16.940  34.385   8.379
 2293POPC   C3A30641  16.736  34.600   8.094
 2293POPC   C4A30642  16.548  34.558   7.704
 2293POPC   C1B30643  16.894  34.943   8.661
 2293POPC   C2B30644  16.913  35.070   8.252
 2293POPC   C3B30645  16.889  35.014   7.837
 2293POPC   C4B30646  16.931  34.951   7.435
 2294POPC   NC330647  34.800  44.042   9.499
 2294POPC   PO430648  34.603  43.508   9.410
 2294POPC   GL130649  34.724  43.789   9.059
 2294POPC   GL230650  34.450  44.055   9.149
 2294POPC   C1A30651  34.870  43.825   8.609
 2294POPC   D2A30652  34.789  43.734   8.129
 2294POPC   C3A30653  34.572  44.010   7.800
 2294POPC   C4A30654  34.663  44.192   7.377
 2294POPC   C1B30655  34.281  43.861   8.828
 2294POPC   C2B30656  34.379  43.690   8.471
 2294POPC   C3B30657  34.249  43.724   8.058
 2294POPC   C4B30658  34.206  43.703   7.627
 2295POPC   NC330659  25.234   8.421   9.441
 2295POPC   PO430660  25.745   8.046   9.281
 2295POPC   GL130661  25.425   8.231   9.006
 2295POPC   GL230662  25.049   8.164   9.026
 2295POPC   C1A30663  25.337   8.303   8.584
 2295POPC   D2A30664  25.110   8.064   8.300
 2295POPC   C3A30665  25.316   8.083   7.899
 2295POPC   C4A30666  25.547   7.777   7.654
 2295POPC   C1B30667  24.834   8.360   8.678
 2295POPC   C2B30668  24.641   8.270   8.335
 2295POPC   C3B30669  24.823   8.248   7.923
 2295POPC   C4B30670  24.987   8.283   7.525
 2296POPC   NC330671   4.014  30.604   9.554
 2296POPC   PO430672   4.437  31.130   9.483
 2296POPC   GL130673   4.417  30.780   9.170
 2296POPC   GL230674   4.396  30.405   9.162
 2296POPC   C1A30675   4.171  30.672   8.794
 2296POPC   D2A30676   4.010  30.475   8.431
 2296POPC   C3A30677   4.149  30.678   8.062
 2296POPC   C4A30678   4.426  30.742   7.734
 2296POPC   C1B30679   4.726  30.497   8.869
 2296POPC   C2B30680   4.771  30.509   8.424
 2296POPC   C3B30681   4.620  30.376   8.024
 2296POPC   C4B30682   4.797  30.374   7.595
 2297POPC   NC330683  21.147  14.415   9.562
 2297POPC   PO430684  20.451  14.669   9.481
 2297POPC   GL130685  20.741  14.629   9.173
 2297POPC   GL230686  20.667  14.329   9.128
 2297POPC   C1A30687  20.814  14.617   8.724
 2297POPC   D2A30688  20.554  14.539   8.373
 2297POPC   C3A30689  20.651  14.659   7.973
 2297POPC   C4A30690  20.474  14.567   7.580
 2297POPC   C1B30691  20.464  14.214   8.762
 2297POPC   C2B30692  20.378  14.048   8.341
 2297POPC   C3B30693  20.440  14.163   7.882
 2297POPC   C4B30694  20.293  14.075   7.412
 2298POPC   NC330695  31.236   1.019   9.471
 2298POPC   PO430696  31.407   1.651   9.609
 2298POPC   GL130697  31.410   1.423   9.164
 2298POPC   GL230698  31.153   1.140   8.970
 2298POPC   C1A30699  31.556   1.357   8.736
 2298POPC   D2A30700  31.357   1.319   8.346
 2298POPC   C3A30701  31.644   1.356   7.987
 2298POPC   C4A30702  31.726   1.193   7.609
 2298POPC   C1B30703  31.339   0.896   8.662
 2298POPC   C2B30704  31.241   0.821   8.279
 2298POPC   C3B30705  31.248   1.031   7.935
 2298POPC   C4B30706  31.252   0.860   7.566
 2299POPC   NC330707  24.256   2.986   9.538
 2299POPC   PO430708  24.658   2.435   9.549
 2299POPC   GL130709  24.607   2.486   9.115
 2299POPC   GL230710  24.491   2.809   9.112
 2299POPC   C1A30711  24.637   2.624   8.651
 2299POPC   D2A30712  24.281   2.652   8.390
 2299POPC   C3A30713  24.146   2.420   8.019
 2299POPC   C4A30714  24.314   2.443   7.605
 2299POPC   C1B30715  24.341   3.043   8.758
 2299POPC   C2B30716  24.513   3.115   8.356
 2299POPC   C3B30717  24.368   2.940   7.968
 2299POPC   C4B30718  24.598   2.926   7.607
 2300POPC   NC330719  17.115  36.407   9.153
 2300POPC   PO430720  16.585  36.139   9.508
 2300POPC   GL130721  16.653  36.202   9.075
 2300POPC   GL230722  16.869  35.890   9.009
 2300POPC   C1A30723  16.738  36.222   8.630
 2300POPC   D2A30724  16.762  35.925   8.315
 2300POPC   C3A30725  16.858  36.087   7.912
 2300POPC   C4A30726  17.131  36.417   7.717
 2300POPC   C1B30727  16.494  35.770   8.739
 2300POPC   C2B30728  16.245  35.809   8.360
 2300POPC   C3B30729  16.402  35.805   7.936
 2300POPC   C4B30730  16.507  35.895   7.513
 2301POPC   NC330731  14.043  15.535   9.457
 2301POPC   PO430732  13.982  14.765   9.360
 2301POPC   GL130733  13.643  14.984   9.121
 2301POPC   GL230734  13.622  15.325   9.192
 2301POPC   C1A30735  13.456  15.107   8.706
 2301POPC   D2A30736  13.568  15.222   8.275
 2301POPC   C3A30737  13.943  15.269   8.027
 2301POPC   C4A30738  13.959  15.153   7.572
 2301POPC   C1B30739  13.755  15.522   8.834
 2301POPC   C2B30740  13.597  15.721   8.488
 2301POPC   C3B30741  13.557  15.681   8.058
 2301POPC   C4B30742  13.606  15.498   7.667
 2302POPC   NC330743  12.610  38.571   9.229
 2302POPC   PO430744  12.977  38.173   9.567
 2302POPC   GL130745  13.031  38.288   9.109
 2302POPC   GL230746  13.194  38.010   9.087
 2302POPC   C1A30747  12.899  38.438   8.685
 2302POPC   D2A30748  12.628  38.394   8.370
 2302POPC   C3A30749  12.796  38.610   8.060
 2302POPC   C4A30750  12.710  38.549   7.644
 2302POPC   C1B30751  13.287  38.126   8.685
 2302POPC   C2B30752  13.181  38.294   8.268
 2302POPC   C3B30753  13.074  38.225   7.826
 2302POPC   C4B30754  13.320  38.034   7.498
 2303POPC   NC330755  12.492   9.620   9.487
 2303POPC   PO430756  13.043  10.012   9.478
 2303POPC   GL130757  12.837   9.779   9.114
 2303POPC   GL230758  12.798   9.404   9.134
 2303POPC   C1A30759  12.816   9.620   8.677
 2303POPC   D2A30760  12.580   9.654   8.345
 2303POPC   C3A30761  12.805   9.822   8.051
 2303POPC   C4A30762  12.685   9.957   7.676
 2303POPC   C1B30763  13.057   9.198   8.803
 2303POPC   C2B30764  13.199   9.247   8.389
 2303POPC   C3B30765  12.976   9.322   8.013
 2303POPC   C4B30766  13.152   9.642   7.725
 2304POPC   NC330767   4.536   4.126   9.335
 2304POPC   PO430768   3.994   4.479   9.401
 2304POPC   GL130769   4.162   4.362   9.062
 2304POPC   GL230770   4.156   4.029   9.009
 2304POPC   C1A30771   4.191   4.606   8.739
 2304POPC   D2A30772   3.999   4.938   8.527
 2304POPC   C3A30773   4.118   4.835   8.116
 2304POPC   C4A30774   4.213   4.534   7.840
 2304POPC   C1B30775   4.513   4.208   8.699
 2304POPC   C2B30776   4.430   4.397   8.316
 2304POPC   C3B30777   4.168   4.117   8.115
 2304POPC   C4B30778   4.070   4.062   7.668
 2305POPC   NC330779  36.690  23.753   9.469
 2305POPC   PO430780  37.220  23.360   9.555
 2305POPC   GL130781  37.016  23.489   9.171
 2305POPC   GL230782  37.117  23.855   9.182
 2305POPC   C1A30783  36.748  23.506   8.771
 2305POPC   D2A30784  36.876  23.351   8.342
 2305POPC   C3A30785  36.733  23.425   7.929
 2305POPC   C4A30786  37.049  23.434   7.600
 2305POPC   C1B30787  36.908  24.051   8.831
 2305POPC   C2B30788  36.688  24.089   8.451
 2305POPC   C3B30789  36.781  23.922   8.059
 2305POPC   C4B30790  37.031  23.963   7.709
 2306POPC   NC330791   3.917  13.711   9.534
 2306POPC   PO430792   3.631  13.174   9.385
 2306POPC   GL130793   3.523  13.460   9.092
 2306POPC   GL230794   3.150  13.340   9.094
 2306POPC   C1A30795   3.694  13.640   8.692
 2306POPC   D2A30796   3.684  13.432   8.273
 2306POPC   C3A30797   3.761  13.610   7.870
 2306POPC   C4A30798   3.509  13.596   7.492
 2306POPC   C1B30799   3.165  13.679   8.779
 2306POPC   C2B30800   3.317  13.803   8.360
 2306POPC   C3B30801   3.238  13.689   7.942
 2306POPC   C4B30802   3.063  13.388   7.670
 2307POPC   NC330803  43.702  32.183   9.579
 2307POPC   PO430804  44.394  32.020   9.529
 2307POPC   GL130805  44.051  32.120   9.242
 2307POPC   GL230806  43.730  31.965   9.128
 2307POPC   C1A30807  43.899  32.398   8.908
 2307POPC   D2A30808  44.184  32.480   8.593
 2307POPC   C3A30809  44.066  32.352   8.196
 2307POPC   C4A30810  43.914  32.473   7.808
 2307POPC   C1B30811  43.660  31.770   8.740
 2307POPC   C2B30812  43.623  31.916   8.337
 2307POPC   C3B30813  43.832  31.963   7.971
 2307POPC   C4B30814  43.625  32.086   7.608
 2308POPC   NC330815   3.243  36.478   9.241
 2308POPC   PO430816   2.747  35.969   9.463
 2308POPC   GL130817   2.850  35.998   9.058
 2308POPC   GL230818   3.203  36.021   8.995
 2308POPC   C1A30819   2.900  35.776   8.670
 2308POPC   D2A30820   3.050  35.938   8.286
 2308POPC   C3A30821   2.763  36.159   8.089
 2308POPC   C4A30822   2.672  36.125   7.651
 2308POPC   C1B30823   3.001  36.292   8.667
 2308POPC   C2B30824   2.971  36.567   8.329
 2308POPC   C3B30825   3.220  36.440   7.997
 2308POPC   C4B30826   3.158  36.071   7.798
 2309POPC   NC330827  42.704   0.147   9.384
 2309POPC   PO430828  43.337   0.474   9.461
 2309POPC   GL130829  43.063   0.488   9.148
 2309POPC   GL230830  43.105   0.139   9.070
 2309POPC   C1A30831  43.056   0.489   8.711
 2309POPC   D2A30832  43.336   0.533   8.384
 2309POPC   C3A30833  43.244   0.466   7.968
 2309POPC   C4A30834  42.873   0.614   7.771
 2309POPC   C1B30835  43.416   0.126   8.739
 2309POPC   C2B30836  43.311   0.007   8.318
 2309POPC   C3B30837  43.504   0.030   7.917
 2309POPC   C4B30838  43.361   0.205   7.515
 2310POPC   NC330839  25.560  36.568   9.376
 2310POPC   PO430840  25.040  36.004   9.480
 2310POPC   GL130841  25.219  36.037   9.106
 2310POPC   GL230842  25.134  36.371   9.134
 2310POPC   C1A30843  25.475  36.162   8.760
 2310POPC   D2A30844  25.736  36.262   8.416
 2310POPC   C3A30845  25.508  36.206   8.044
 2310POPC   C4A30846  25.709  36.297   7.647
 2310POPC   C1B30847  25.231  36.618   8.805
 2310POPC   C2B30848  25.272  36.496   8.436
 2310POPC   C3B30849  25.133  36.626   8.120
 2310POPC   C4B30850  25.286  36.554   7.754
 2311POPC   NC330851  37.000  16.279   9.622
 2311POPC   PO430852  36.987  15.614   9.638
 2311POPC   GL130853  37.008  15.812   9.211
 2311POPC   GL230854  36.858  16.140   9.137
 2311POPC   C1A30855  36.839  15.762   8.781
 2311POPC   D2A30856  36.784  15.987   8.397
 2311POPC   C3A30857  37.060  15.962   8.049
 2311POPC   C4A30858  36.858  15.653   7.837
 2311POPC   C1B30859  36.664  16.339   8.774
 2311POPC   C2B30860  36.606  16.451   8.349
 2311POPC   C3B30861  36.624  16.257   7.953
 2311POPC   C4B30862  36.445  16.355   7.545
 2312POPC   NC330863  18.155  24.189   9.524
 2312POPC   PO430864  18.519  24.812   9.490
 2312POPC   GL130865  18.400  24.521   9.165
 2312POPC   GL230866  18.055  24.413   9.099
 2312POPC   C1A30867  18.348  24.636   8.735
 2312POPC   D2A30868  18.551  24.607   8.349
 2312POPC   C3A30869  18.308  24.573   8.023
 2312POPC   C4A30870  18.467  24.374   7.683
 2312POPC   C1B30871  18.025  24.213   8.729
 2312POPC   C2B30872  17.973  24.375   8.359
 2312POPC   C3B30873  18.007  24.164   7.974
 2312POPC   C4B30874  18.079  24.078   7.539
 2313POPC   NC330875   8.740  11.713   9.360
 2313POPC   PO430876   9.095  12.196   9.561
 2313POPC   GL130877   8.893  12.230   9.147
 2313POPC   GL230878   9.194  12.396   9.070
 2313POPC   C1A30879   8.673  12.145   8.746
 2313POPC   D2A30880   8.809  11.892   8.393
 2313POPC   C3A30881   8.816  12.069   7.978
 2313POPC   C4A30882   9.041  12.180   7.584
 2313POPC   C1B30883   9.195  12.126   8.732
 2313POPC   C2B30884   9.218  12.270   8.347
 2313POPC   C3B30885   9.352  12.104   8.005
 2313POPC   C4B30886   9.430  11.865   7.690
 2314POPC   NC330887   4.157   3.123   9.257
 2314POPC   PO430888   4.297   3.750   9.426
 2314POPC   GL130889   4.418   3.531   9.067
 2314POPC   GL230890   4.625   3.777   8.971
 2314POPC   C1A30891   4.522   3.275   8.688
 2314POPC   D2A30892   4.429   2.998   8.316
 2314POPC   C3A30893   4.053   3.095   8.070
 2314POPC   C4A30894   4.041   3.324   7.684
 2314POPC   C1B30895   4.308   3.749   8.625
 2314POPC   C2B30896   4.104   3.584   8.293
 2314POPC   C3B30897   4.297   3.677   7.925
 2314POPC   C4B30898   4.582   3.499   7.740
 2315POPC   NC330899  26.270  33.332   9.774
 2315POPC   PO430900  25.826  33.369   9.290
 2315POPC   GL130901  26.106  33.104   9.127
 2315POPC   GL230902  26.023  32.798   9.324
 2315POPC   C1A30903  26.295  33.141   8.714
 2315POPC   D2A30904  26.067  33.312   8.338
 2315POPC   C3A30905  26.238  33.191   7.996
 2315POPC   C4A30906  26.486  33.052   7.734
 2315POPC   C1B30907  25.967  32.692   8.865
 2315POPC   C2B30908  26.021  32.811   8.445
 2315POPC   C3B30909  25.984  32.761   8.007
 2315POPC   C4B30910  26.081  32.610   7.601
 2316POPC   NC330911   9.247   0.341   9.589
 2316POPC   PO430912   8.583   0.462   9.587
 2316POPC   GL130913   8.924   0.414   9.208
 2316POPC   GL230914   9.263   0.296   9.084
 2316POPC   C1A30915   8.932   0.610   8.816
 2316POPC   D2A30916   9.064   0.832   8.471
 2316POPC   C3A30917   8.876   0.691   8.080
 2316POPC   C4A30918   8.902   0.389   7.719
 2316POPC   C1B30919   9.360   0.365   8.635
 2316POPC   C2B30920   9.353   0.512   8.203
 2316POPC   C3B30921   9.297   0.695   7.779
 2316POPC   C4B30922   9.332   0.452   7.409
 2317POPC   NC330923  43.682   2.297   9.673
 2317POPC   PO430924  44.114   1.910   9.421
 2317POPC   GL130925  43.897   2.088   9.075
 2317POPC   GL230926  43.654   2.291   9.165
 2317POPC   C1A30927  43.747   2.004   8.635
 2317POPC   D2A30928  43.863   1.625   8.383
 2317POPC   C3A30929  43.772   1.652   7.957
 2317POPC   C4A30930  44.089   1.725   7.702
 2317POPC   C1B30931  43.726   2.508   8.790
 2317POPC   C2B30932  43.786   2.509   8.381
 2317POPC   C3B30933  43.774   2.145   8.119
 2317POPC   C4B30934  43.736   2.122   7.683
 2318POPC   NC330935  32.887  16.828   9.467
 2318POPC   PO430936  33.505  16.712   9.612
 2318POPC   GL130937  33.180  16.467   9.273
 2318POPC   GL230938  32.829  16.498   9.068
 2318POPC   C1A30939  33.216  16.413   8.795
 2318POPC   D2A30940  32.900  16.414   8.491
 2318POPC   C3A30941  33.151  16.415   8.116
 2318POPC   C4A30942  33.342  16.723   7.844
 2318POPC   C1B30943  32.932  16.852   8.784
 2318POPC   C2B30944  32.994  16.887   8.321
 2318POPC   C3B30945  32.802  16.723   7.940
 2318POPC   C4B30946  32.615  16.923   7.609
 2319POPC   NC330947  33.285  14.703   9.387
 2319POPC   PO430948  32.871  14.255   9.622
 2319POPC   GL130949  32.998  14.402   9.131
 2319POPC   GL230950  33.001  14.696   8.964
 2319POPC   C1A30951  33.173  14.225   8.722
 2319POPC   D2A30952  33.077  14.417   8.317
 2319POPC   C3A30953  33.029  14.237   7.901
 2319POPC   C4A30954  33.294  14.171   7.549
 2319POPC   C1B30955  33.388  14.688   8.711
 2319POPC   C2B30956  33.429  14.823   8.266
 2319POPC   C3B30957  33.084  14.776   7.951
 2319POPC   C4B30958  32.989  14.602   7.531
 2320POPC   NC330959  15.784  14.730   9.588
 2320POPC   PO430960  16.057  14.184   9.667
 2320POPC   GL130961  15.994  14.367   9.254
 2320POPC   GL230962  16.007  14.073   9.059
 2320POPC   C1A30963  15.975  14.516   8.821
 2320POPC   D2A30964  16.029  14.722   8.431
 2320POPC   C3A30965  15.836  14.570   8.075
 2320POPC   C4A30966  16.214  14.537   7.824
 2320POPC   C1B30967  15.637  13.999   8.820
 2320POPC   C2B30968  15.585  14.097   8.385
 2320POPC   C3B30969  15.892  14.064   8.075
 2320POPC   C4B30970  15.936  14.168   7.663
 2321POPC   NC330971  44.568  10.464   9.375
 2321POPC   PO430972   0.180  10.627   9.245
 2321POPC   GL130973  44.813  10.665   8.987
 2321POPC   GL230974  44.496  10.863   9.071
 2321POPC   C1A30975  44.656  10.484   8.636
 2321POPC   D2A30976  44.836  10.505   8.244
 2321POPC   C3A30977  44.713  10.344   7.861
 2321POPC   C4A30978  44.755  10.300   7.392
 2321POPC   C1B30979  44.179  10.832   8.768
 2321POPC   C2B30980  44.301  10.719   8.352
 2321POPC   C3B30981  44.476  10.840   7.956
 2321POPC   C4B30982  44.421  10.658   7.565
 2322POPC   NC330983   6.240  19.930   9.536
 2322POPC   PO430984   5.636  19.695   9.800
 2322POPC   GL130985   5.841  19.619   9.360
 2322POPC   GL230986   6.155  19.633   9.153
 2322POPC   C1A30987   5.668  19.603   8.924
 2322POPC   D2A30988   5.635  19.560   8.456
 2322POPC   C3A30989   5.669  19.950   8.197
 2322POPC   C4A30990   5.651  20.010   7.757
 2322POPC   C1B30991   6.125  19.426   8.750
 2322POPC   C2B30992   6.169  19.588   8.342
 2322POPC   C3B30993   5.914  19.546   7.990
 2322POPC   C4B30994   5.583  19.466   7.718
 2323POPC   NC330995  27.726  13.199   9.542
 2323POPC   PO430996  27.171  13.029   9.551
 2323POPC   GL130997  27.418  13.145   9.103
 2323POPC   GL230998  27.794  13.127   9.039
 2323POPC   C1A30999  27.493  13.046   8.619
 2323POPC   D2A31000  27.667  13.066   8.165
 2323POPC   C3A31001  27.471  12.723   7.866
 2323POPC   C4A31002  27.297  12.394   7.580
 2323POPC   C1B31003  27.909  12.753   8.791
 2323POPC   C2B31004  28.086  12.776   8.367
 2323POPC   C3B31005  27.941  12.639   7.981
 2323POPC   C4B31006  27.897  12.764   7.498
 2324POPC   NC331007   4.147  20.576   9.666
 2324POPC   PO431008   4.695  20.793   9.473
 2324POPC   GL131009   4.394  20.591   9.183
 2324POPC   GL231010   4.025  20.658   9.189
 2324POPC   C1A31011   4.389  20.349   8.783
 2324POPC   D2A31012   4.666  20.259   8.419
 2324POPC   C3A31013   4.624  20.399   7.983
 2324POPC   C4A31014   4.282  20.399   7.655
 2324POPC   C1B31015   4.162  20.802   8.771
 2324POPC   C2B31016   4.339  20.677   8.353
 2324POPC   C3B31017   4.315  20.847   7.928
 2324POPC   C4B31018   4.114  20.856   7.511
 2325POPC   NC331019  29.414  34.799   9.692
 2325POPC   PO431020  29.883  34.536   9.230
 2325POPC   GL131021  30.139  34.640   8.967
 2325POPC   GL231022  30.333  34.333   8.949
 2325POPC   C1A31023  30.100  34.768   8.564
 2325POPC   D2A31024  30.274  34.914   8.208
 2325POPC   C3A31025  30.005  34.727   7.901
 2325POPC   C4A31026  29.539  34.683   7.828
 2325POPC   C1B31027  30.001  34.259   8.651
 2325POPC   C2B31028  29.985  34.331   8.234
 2325POPC   C3B31029  30.090  34.127   7.877
 2325POPC   C4B31030  30.234  34.378   7.598
 2326POPC   NC331031  41.973  21.410   9.391
 2326POPC   PO431032  42.636  21.194   9.527
 2326POPC   GL131033  42.462  21.432   9.205
 2326POPC   GL231034  42.310  21.166   9.067
 2326POPC   C1A31035  42.487  21.569   8.801
 2326POPC   D2A31036  42.398  21.340   8.454
 2326POPC   C3A31037  42.582  21.506   8.113
 2326POPC   C4A31038  42.511  21.745   7.752
 2326POPC   C1B31039  42.057  21.007   8.713
 2326POPC   C2B31040  41.898  21.187   8.331
 2326POPC   C3B31041  42.092  21.412   8.031
 2326POPC   C4B31042  42.369  21.274   7.720
 2327POPC   NC331043  23.816  43.571   9.528
 2327POPC   PO431044  23.389  44.074   9.530
 2327POPC   GL131045  23.467  43.987   9.102
 2327POPC   GL231046  23.756  43.816   9.115
 2327POPC   C1A31047  23.726  44.037   8.692
 2327POPC   D2A31048  23.957  43.853   8.412
 2327POPC   C3A31049  23.906  44.057   8.067
 2327POPC   C4A31050  23.703  44.091   7.711
 2327POPC   C1B31051  23.582  43.544   8.805
 2327POPC   C2B31052  23.736  43.395   8.415
 2327POPC   C3B31053  23.896  43.499   8.034
 2327POPC   C4B31054  23.626  43.575   7.721
 2328POPC   NC331055   2.767   1.553   9.411
 2328POPC   PO431056   2.989   0.857   9.420
 2328POPC   GL131057   2.648   1.061   9.193
 2328POPC   GL231058   2.808   1.297   8.984
 2328POPC   C1A31059   2.501   0.933   8.785
 2328POPC   D2A31060   2.343   1.130   8.431
 2328POPC   C3A31061   2.620   1.066   8.099
 2328POPC   C4A31062   2.651   1.363   7.805
 2328POPC   C1B31063   3.107   1.203   8.670
 2328POPC   C2B31064   3.202   1.011   8.274
 2328POPC   C3B31065   3.130   1.193   7.897
 2328POPC   C4B31066   3.086   1.517   7.598
 2329POPC   NC331067  18.602  23.479   9.476
 2329POPC   PO431068  17.951  23.770   9.478
 2329POPC   GL131069  18.109  23.873   9.091
 2329POPC   GL231070  18.435  24.004   9.116
 2329POPC   C1A31071  18.272  23.740   8.687
 2329POPC   D2A31072  18.486  23.581   8.323
 2329POPC   C3A31073  18.190  23.453   8.005
 2329POPC   C4A31074  18.078  23.608   7.672
 2329POPC   C1B31075  18.559  24.182   8.708
 2329POPC   C2B31076  18.421  24.104   8.299
 2329POPC   C3B31077  18.444  23.902   7.901
 2329POPC   C4B31078  18.545  23.922   7.457
 2330POPC   NC331079  38.179  35.329   9.789
 2330POPC   PO431080  38.402  35.646   9.230
 2330POPC   GL131081  38.569  35.588   8.865
 2330POPC   GL231082  38.571  35.250   8.983
 2330POPC   C1A31083  38.300  35.680   8.505
 2330POPC   D2A31084  37.979  35.375   8.315
 2330POPC   C3A31085  38.210  35.289   7.954
 2330POPC   C4A31086  38.630  35.542   7.864
 2330POPC   C1B31087  38.321  35.188   8.644
 2330POPC   C2B31088  38.605  35.281   8.331
 2330POPC   C3B31089  38.643  35.038   7.988
 2330POPC   C4B31090  38.293  34.789   7.825
 2331POPC   NC331091  12.869  44.887   9.279
 2331POPC   PO431092  12.387  44.492   9.564
 2331POPC   GL131093  12.583  44.521   9.109
 2331POPC   GL231094  12.528  44.838   8.884
 2331POPC   C1A31095  12.903  44.512   8.715
 2331POPC   D2A31096  12.944  44.359   8.258
 2331POPC   C3A31097  12.975  44.625   7.868
 2331POPC   C4A31098  12.713  44.882   7.641
 2331POPC   C1B31099  12.867   0.012   8.663
 2331POPC   C2B31100  12.988  44.880   8.315
 2331POPC   C3B31101  13.083   0.108   7.978
 2331POPC   C4B31102  13.117   0.215   7.609
 2332POPC   NC331103  27.135  30.506   9.696
 2332POPC   PO431104  27.768  30.792   9.509
 2332POPC   GL131105  27.691  30.706   9.115
 2332POPC   GL231106  27.713  30.363   9.008
 2332POPC   C1A31107  27.496  30.861   8.729
 2332POPC   D2A31108  27.502  30.743   8.297
 2332POPC   C3A31109  27.307  30.934   7.925
 2332POPC   C4A31110  27.454  31.005   7.504
 2332POPC   C1B31111  27.958  30.606   8.703
 2332POPC   C2B31112  28.009  30.614   8.262
 2332POPC   C3B31113  27.784  30.643   7.879
 2332POPC   C4B31114  28.039  30.415   7.637
 2333POPC   NC331115  37.433  20.219   9.418
 2333POPC   PO431116  37.529  20.876   9.426
 2333POPC   GL131117  37.692  20.765   9.051
 2333POPC   GL231118  37.705  20.415   9.023
 2333POPC   C1A31119  37.667  20.827   8.623
 2333POPC   D2A31120  37.863  20.717   8.244
 2333POPC   C3A31121  37.641  20.399   8.008
 2333POPC   C4A31122  37.672  20.608   7.618
 2333POPC   C1B31123  37.829  20.329   8.589
 2333POPC   C2B31124  38.111  20.268   8.224
 2333POPC   C3B31125  38.077  20.304   7.758
 2333POPC   C4B31126  37.909  20.245   7.303
 2334POPC   NC331127   4.559  16.538   9.387
 2334POPC   PO431128   4.285  17.140   9.475
 2334POPC   GL131129   4.229  16.810   9.140
 2334POPC   GL231130   4.585  16.914   9.022
 2334POPC   C1A31131   4.359  16.616   8.701
 2334POPC   D2A31132   4.472  16.889   8.350
 2334POPC   C3A31133   4.422  16.628   8.034
 2334POPC   C4A31134   4.292  16.522   7.674
 2334POPC   C1B31135   4.211  17.103   8.748
 2334POPC   C2B31136   3.945  17.096   8.366
 2334POPC   C3B31137   4.134  17.198   7.972
 2334POPC   C4B31138   4.454  17.021   7.748
 2335POPC   NC331139  19.973  32.219   9.745
 2335POPC   PO431140  19.432  32.590   9.457
 2335POPC   GL131141  19.543  32.425   9.096
 2335POPC   GL231142  19.832  32.275   9.224
 2335POPC   C1A31143  19.754  32.571   8.696
 2335POPC   D2A31144  19.998  32.415   8.371
 2335POPC   C3A31145  19.815  32.574   7.981
 2335POPC   C4A31146  19.573  32.356   7.660
 2335POPC   C1B31147  19.773  32.073   8.818
 2335POPC   C2B31148  19.608  32.078   8.418
 2335POPC   C3B31149  19.817  32.065   8.025
 2335POPC   C4B31150  19.691  31.855   7.696
 2336POPC   NC331151   8.853   8.227   9.605
 2336POPC   PO431152   8.661   7.579   9.384
 2336POPC   GL131153   8.772   7.955   9.154
 2336POPC   GL231154   9.124   8.063   9.184
 2336POPC   C1A31155   8.797   8.248   8.800
 2336POPC   D2A31156   8.974   8.390   8.415
 2336POPC   C3A31157   8.702   8.391   8.059
 2336POPC   C4A31158   8.680   8.027   7.794
 2336POPC   C1B31159   9.342   8.135   8.793
 2336POPC   C2B31160   9.347   8.036   8.361
 2336POPC   C3B31161   9.213   8.211   7.968
 2336POPC   C4B31162   9.437   8.347   7.616
 2337POPC   NC331163  10.830  25.590   9.569
 2337POPC   PO431164  10.448  26.115   9.558
 2337POPC   GL131165  10.568  25.918   9.144
 2337POPC   GL231166  10.874  25.692   9.075
 2337POPC   C1A31167  10.461  26.140   8.729
 2337POPC   D2A31168  10.179  26.231   8.368
 2337POPC   C3A31169  10.303  26.316   7.942
 2337POPC   C4A31170  10.321  25.983   7.605
 2337POPC   C1B31171  10.840  25.790   8.617
 2337POPC   C2B31172  10.761  26.128   8.304
 2337POPC   C3B31173  10.759  26.055   7.868
 2337POPC   C4B31174  10.964  25.662   7.708
 2338POPC   NC331175  32.528  30.924   9.487
 2338POPC   PO431176  32.113  30.380   9.462
 2338POPC   GL131177  32.135  30.698   9.157
 2338POPC   GL231178  31.884  30.982   9.224
 2338POPC   C1A31179  32.331  30.671   8.745
 2338POPC   D2A31180  32.495  30.613   8.328
 2338POPC   C3A31181  32.250  30.658   7.977
 2338POPC   C4A31182  32.357  30.995   7.728
 2338POPC   C1B31183  31.881  30.921   8.768
 2338POPC   C2B31184  32.115  30.991   8.385
 2338POPC   C3B31185  31.998  31.196   8.014
 2338POPC   C4B31186  31.792  30.854   7.782
 2339POPC   NC331187  17.207   0.838   9.686
 2339POPC   PO431188  17.592   0.274   9.467
 2339POPC   GL131189  17.653   0.396   9.042
 2339POPC   GL231190  17.686   0.697   9.139
 2339POPC   C1A31191  17.576   0.380   8.598
 2339POPC   D2A31192  17.526   0.494   8.175
 2339POPC   C3A31193  17.314   0.233   7.876
 2339POPC   C4A31194  17.690   0.265   7.618
 2339POPC   C1B31195  17.316   0.758   8.834
 2339POPC   C2B31196  17.165   0.791   8.401
 2339POPC   C3B31197  17.276   0.868   7.953
 2339POPC   C4B31198  17.101   1.052   7.555
 2340POPC   NC331199  41.807  32.303   9.389
 2340POPC   PO431200  41.220  32.129   9.485
 2340POPC   GL131201  41.353  32.361   9.100
 2340POPC   GL231202  41.643  32.626   9.036
 2340POPC   C1A31203  41.326  32.523   8.666
 2340POPC   D2A31204  41.216  32.597   8.256
 2340POPC   C3A31205  41.190  32.182   8.062
 2340POPC   C4A31206  41.368  32.031   7.683
 2340POPC   C1B31207  41.883  32.342   8.726
 2340POPC   C2B31208  41.883  32.178   8.278
 2340POPC   C3B31209  41.855  32.235   7.812
 2340POPC   C4B31210  41.843  32.549   7.473
 2341POPC   NC331211  43.764  11.175   9.658
 2341POPC   PO431212  44.245  10.876   9.498
 2341POPC   GL131213  44.043  11.158   9.184
 2341POPC   GL231214  43.685  11.200   9.173
 2341POPC   C1A31215  44.023  11.424   8.814
 2341POPC   D2A31216  44.082  11.610   8.406
 2341POPC   C3A31217  44.064  11.382   8.009
 2341POPC   C4A31218  44.303  11.586   7.683
 2341POPC   C1B31219  43.679  11.036   8.788
 2341POPC   C2B31220  43.898  11.060   8.397
 2341POPC   C3B31221  43.934  10.843   8.002
 2341POPC   C4B31222  44.034  10.993   7.599
 2342POPC   NC331223  17.300  14.572   9.381
 2342POPC   PO431224  17.920  14.308   9.569
 2342POPC   GL131225  17.714  14.150   9.180
 2342POPC   GL231226  17.684  14.501   9.023
 2342POPC   C1A31227  17.593  14.131   8.709
 2342POPC   D2A31228  17.702  14.434   8.406
 2342POPC   C3A31229  17.523  14.333   8.031
 2342POPC   C4A31230  17.445  14.513   7.683
 2342POPC   C1B31231  17.285  14.532   8.735
 2342POPC   C2B31232  17.116  14.519   8.307
 2342POPC   C3B31233  17.076  14.760   7.902
 2342POPC   C4B31234  17.096  14.796   7.399
 2343POPC   NC331235  39.207  19.529   9.573
 2343POPC   PO431236  39.154  18.887   9.587
 2343POPC   GL131237  39.001  18.904   9.184
 2343POPC   GL231238  38.921  19.233   9.258
 2343POPC   C1A31239  39.180  18.943   8.749
 2343POPC   D2A31240  39.187  18.907   8.284
 2343POPC   C3A31241  39.297  19.140   7.912
 2343POPC   C4A31242  39.513  18.942   7.565
 2343POPC   C1B31243  39.064  19.449   8.898
 2343POPC   C2B31244  39.111  19.385   8.466
 2343POPC   C3B31245  39.022  19.563   8.089
 2343POPC   C4B31246  38.881  19.429   7.706
 2344POPC   NC331247  34.829   6.779   9.407
 2344POPC   PO431248  34.196   6.564   9.608
 2344POPC   GL131249  34.435   6.483   9.236
 2344POPC   GL231250  34.180   6.669   9.096
 2344POPC   C1A31251  34.583   6.611   8.774
 2344POPC   D2A31252  34.564   6.913   8.474
 2344POPC   C3A31253  34.594   6.673   8.102
 2344POPC   C4A31254  34.819   6.724   7.760
 2344POPC   C1B31255  34.190   6.307   8.838
 2344POPC   C2B31256  34.283   6.333   8.398
 2344POPC   C3B31257  34.167   6.345   7.958
 2344POPC   C4B31258  34.196   6.426   7.496
 2345POPC   NC331259  27.742  14.818   9.358
 2345POPC   PO431260  27.788  15.510   9.486
 2345POPC   GL131261  27.582  15.288   9.122
 2345POPC   GL231262  27.308  15.024   9.128
 2345POPC   C1A31263  27.674  15.386   8.670
 2345POPC   D2A31264  27.936  15.289   8.295
 2345POPC   C3A31265  27.779  15.476   7.905
 2345POPC   C4A31266  27.635  15.390   7.483
 2345POPC   C1B31267  27.443  14.929   8.717
 2345POPC   C2B31268  27.460  15.054   8.295
 2345POPC   C3B31269  27.675  14.962   7.917
 2345POPC   C4B31270  27.581  14.630   7.635
 2346POPC   NC331271  11.816  29.985   9.588
 2346POPC   PO431272  12.262  29.524   9.551
 2346POPC   GL131273  12.104  29.766   9.186
 2346POPC   GL231274  11.783  29.640   9.143
 2346POPC   C1A31275  12.105  29.960   8.756
 2346POPC   D2A31276  12.384  29.913   8.374
 2346POPC   C3A31277  12.247  30.072   7.969
 2346POPC   C4A31278  12.269  29.970   7.513
 2346POPC   C1B31279  11.741  29.573   8.689
 2346POPC   C2B31280  11.893  29.741   8.289
 2346POPC   C3B31281  11.903  29.729   7.827
 2346POPC   C4B31282  11.851  29.640   7.374
 2347POPC   NC331283  19.301  42.277   9.471
 2347POPC   PO431284  18.659  42.160   9.627
 2347POPC   GL131285  18.879  42.156   9.222
 2347POPC   GL231286  18.794  41.823   9.166
 2347POPC   C1A31287  19.115  42.371   8.853
 2347POPC   D2A31288  19.244  42.277   8.434
 2347POPC   C3A31289  19.106  42.557   8.116
 2347POPC   C4A31290  19.233  42.676   7.718
 2347POPC   C1B31291  18.928  41.904   8.754
 2347POPC   C2B31292  18.797  42.017   8.368
 2347POPC   C3B31293  19.021  42.040   8.007
 2347POPC   C4B31294  18.865  42.310   7.711
 2348POPC   NC331295  10.378  39.556   9.491
 2348POPC   PO431296  10.642  40.145   9.542
 2348POPC   GL131297  10.784  39.962   9.170
 2348POPC   GL231298  10.887  40.339   9.110
 2348POPC   C1A31299  10.712  39.709   8.788
 2348POPC   D2A31300  10.694  39.529   8.365
 2348POPC   C3A31301  10.367  39.747   8.129
 2348POPC   C4A31302  10.426  40.013   7.763
 2348POPC   C1B31303  10.917  40.164   8.726
 2348POPC   C2B31304  10.775  40.043   8.314
 2348POPC   C3B31305  10.801  40.306   7.955
 2348POPC   C4B31306  10.912  40.235   7.528
 2349POPC   NC331307  20.781  32.634   9.437
 2349POPC   PO431308  20.806  33.236   9.745
 2349POPC   GL131309  20.653  33.173   9.297
 2349POPC   GL231310  20.302  33.039   9.154
 2349POPC   C1A31311  20.754  33.020   8.878
 2349POPC   D2A31312  20.597  33.040   8.466
 2349POPC   C3A31313  20.868  33.207   8.163
 2349POPC   C4A31314  20.842  33.140   7.747
 2349POPC   C1B31315  20.328  32.692   8.796
 2349POPC   C2B31316  20.497  32.550   8.370
 2349POPC   C3B31317  20.568  32.790   8.016
 2349POPC   C4B31318  20.420  32.793   7.617
 2350POPC   NC331319  29.840  40.243   9.338
 2350POPC   PO431320  29.890  39.610   9.517
 2350POPC   GL131321  30.097  39.824   9.132
 2350POPC   GL231322  30.322  40.157   9.188
 2350POPC   C1A31323  29.872  39.963   8.724
 2350POPC   D2A31324  29.631  39.926   8.318
 2350POPC   C3A31325  29.909  39.911   7.961
 2350POPC   C4A31326  29.902  39.699   7.537
 2350POPC   C1B31327  30.218  40.359   8.781
 2350POPC   C2B31328  30.056  40.309   8.364
 2350POPC   C3B31329  30.313  40.217   8.014
 2350POPC   C4B31330  30.233  40.086   7.612
 2351POPC   NC331331  19.547  35.065   9.414
 2351POPC   PO431332  19.922  35.557   9.523
 2351POPC   GL131333  19.888  35.334   9.142
 2351POPC   GL231334  19.533  35.473   9.102
 2351POPC   C1A31335  19.748  35.182   8.741
 2351POPC   D2A31336  19.989  35.304   8.404
 2351POPC   C3A31337  19.849  35.220   8.017
 2351POPC   C4A31338  19.986  35.512   7.709
 2351POPC   C1B31339  19.350  35.629   8.722
 2351POPC   C2B31340  19.485  35.452   8.350
 2351POPC   C3B31341  19.544  35.618   7.959
 2351POPC   C4B31342  19.490  35.361   7.604
 2352POPC   NC331343  26.539  18.201   9.419
 2352POPC   PO431344  26.997  17.747   9.628
 2352POPC   GL131345  26.926  17.914   9.191
 2352POPC   GL231346  27.075  18.209   9.205
 2352POPC   C1A31347  26.756  18.180   8.803
 2352POPC   D2A31348  26.935  18.445   8.477
 2352POPC   C3A31349  26.613  18.499   8.168
 2352POPC   C4A31350  26.561  18.291   7.761
 2352POPC   C1B31351  27.241  18.068   8.802
 2352POPC   C2B31352  27.051  17.953   8.375
 2352POPC   C3B31353  26.993  18.180   8.014
 2352POPC   C4B31354  27.201  18.365   7.682
 2353POPC   NC331355  33.337  41.979   9.318
 2353POPC   PO431356  32.723  42.203   9.551
 2353POPC   GL131357  32.892  42.228   9.189
 2353POPC   GL231358  32.856  41.871   9.160
 2353POPC   C1A31359  32.963  42.388   8.777
 2353POPC   D2A31360  32.920  42.194   8.384
 2353POPC   C3A31361  33.140  42.409   8.059
 2353POPC   C4A31362  33.062  42.339   7.646
 2353POPC   C1B31363  32.638  42.010   8.807
 2353POPC   C2B31364  32.454  41.874   8.474
 2353POPC   C3B31365  32.531  42.009   8.087
 2353POPC   C4B31366  32.615  42.130   7.695
 2354POPC   NC331367   3.983  35.200   9.487
 2354POPC   PO431368   4.420  35.775   9.511
 2354POPC   GL131369   4.238  35.522   9.183
 2354POPC   GL231370   4.508  35.311   9.076
 2354POPC   C1A31371   4.091  35.476   8.765
 2354POPC   D2A31372   4.265  35.181   8.464
 2354POPC   C3A31373   4.251  35.266   7.993
 2354POPC   C4A31374   4.160  35.150   7.530
 2354POPC   C1B31375   4.589  35.581   8.709
 2354POPC   C2B31376   4.696  35.457   8.273
 2354POPC   C3B31377   4.697  35.473   7.823
 2354POPC   C4B31378   4.450  35.539   7.471
 2355POPC   NC331379  29.758   0.450   9.286
 2355POPC   PO431380  30.160  44.995   9.510
 2355POPC   GL131381  30.216   0.215   9.140
 2355POPC   GL231382  30.293   0.554   9.254
 2355POPC   C1A31383  30.033   0.276   8.722
 2355POPC   D2A31384  30.054   0.548   8.370
 2355POPC   C3A31385  30.038   0.323   8.018
 2355POPC   C4A31386  29.881   0.301   7.624
 2355POPC   C1B31387  30.297   0.706   8.828
 2355POPC   C2B31388  30.512   0.751   8.436
 2355POPC   C3B31389  30.482   0.948   8.075
 2355POPC   C4B31390  30.317   0.697   7.766
 2356POPC   NC331391  21.960  28.732   9.474
 2356POPC   PO431392  22.076  29.470   9.484
 2356POPC   GL131393  22.096  29.147   9.174
 2356POPC   GL231394  21.791  28.986   9.066
 2356POPC   C1A31395  22.230  28.985   8.764
 2356POPC   D2A31396  22.289  28.781   8.354
 2356POPC   C3A31397  22.443  29.011   7.997
 2356POPC   C4A31398  22.374  29.060   7.552
 2356POPC   C1B31399  21.730  29.167   8.660
 2356POPC   C2B31400  21.749  29.017   8.238
 2356POPC   C3B31401  21.962  28.907   7.864
 2356POPC   C4B31402  21.863  28.909   7.428
 2357POPC   NC331403  19.348  29.687   9.443
 2357POPC   PO431404  19.669  30.233   9.217
 2357POPC   GL131405  19.932  29.979   9.006
 2357POPC   GL231406  19.790  29.623   9.104
 2357POPC   C1A31407  19.957  30.101   8.561
 2357POPC   D2A31408  19.716  30.280   8.205
 2357POPC   C3A31409  19.844  30.075   7.822
 2357POPC   C4A31410  19.991  29.651   7.728
 2357POPC   C1B31411  19.593  29.739   8.702
 2357POPC   C2B31412  19.673  29.771   8.243
 2357POPC   C3B31413  19.420  29.799   7.863
 2357POPC   C4B31414  19.488  29.496   7.534
 2358POPC   NC331415   1.742  15.087   9.438
 2358POPC   PO431416   2.388  15.003   9.400
 2358POPC   GL131417   2.119  15.223   9.121
 2358POPC   GL231418   1.880  15.507   9.164
 2358POPC   C1A31419   1.988  15.162   8.715
 2358POPC   D2A31420   2.276  15.256   8.408
 2358POPC   C3A31421   2.291  15.017   8.055
 2358POPC   C4A31422   2.369  15.034   7.637
 2358POPC   C1B31423   1.562  15.490   8.832
 2358POPC   C2B31424   1.659  15.450   8.412
 2358POPC   C3B31425   1.904  15.399   8.060
 2358POPC   C4B31426   1.863  15.119   7.745
 2359POPC   NC331427  16.886  41.418   9.574
 2359POPC   PO431428  16.362  41.805   9.673
 2359POPC   GL131429  16.530  41.702   9.217
 2359POPC   GL231430  16.619  41.355   9.129
 2359POPC   C1A31431  16.704  41.766   8.766
 2359POPC   D2A31432  16.981  41.694   8.384
 2359POPC   C3A31433  16.985  41.904   7.994
 2359POPC   C4A31434  16.599  41.952   7.781
 2359POPC   C1B31435  16.946  41.315   8.798
 2359POPC   C2B31436  17.022  41.183   8.358
 2359POPC   C3B31437  16.857  41.375   7.959
 2359POPC   C4B31438  16.914  41.252   7.519
 2360POPC   NC331439   2.631   5.315   9.456
 2360POPC   PO431440   3.024   4.695   9.512
 2360POPC   GL131441   2.770   4.867   9.111
 2360POPC   GL231442   2.593   5.223   8.942
 2360POPC   C1A31443   2.863   4.900   8.670
 2360POPC   D2A31444   2.543   5.060   8.376
 2360POPC   C3A31445   2.625   5.172   7.954
 2360POPC   C4A31446   2.622   4.908   7.586
 2360POPC   C1B31447   2.895   5.392   8.571
 2360POPC   C2B31448   3.079   5.134   8.243
 2360POPC   C3B31449   3.112   5.185   7.802
 2360POPC   C4B31450   2.852   5.360   7.489
 2361POPC   NC331451  38.691  41.117   9.439
 2361POPC   PO431452  38.136  41.498   9.530
 2361POPC   GL131453  38.361  41.451   9.200
 2361POPC   GL231454  38.287  41.160   9.083
 2361POPC   C1A31455  38.638  41.502   8.874
 2361POPC   D2A31456  38.569  41.806   8.577
 2361POPC   C3A31457  38.632  41.640   8.187
 2361POPC   C4A31458  38.411  41.814   7.871
 2361POPC   C1B31459  38.150  41.309   8.709
 2361POPC   C2B31460  38.168  41.522   8.330
 2361POPC   C3B31461  38.285  41.323   7.926
 2361POPC   C4B31462  38.227  41.230   7.488
 2362POPC   NC331463  25.755   1.065   9.636
 2362POPC   PO431464  26.450   1.215   9.483
 2362POPC   GL131465  26.104   1.032   9.228
 2362POPC   GL231466  25.815   1.218   9.152
 2362POPC   C1A31467  26.078   1.006   8.767
 2362POPC   D2A31468  26.272   1.312   8.451
 2362POPC   C3A31469  26.340   1.104   8.041
 2362POPC   C4A31470  25.969   0.989   7.795
 2362POPC   C1B31471  26.015   1.523   8.882
 2362POPC   C2B31472  25.863   1.737   8.529
 2362POPC   C3B31473  25.852   1.505   8.156
 2362POPC   C4B31474  25.880   1.670   7.762
 2363POPC   NC331475   2.310  30.687   9.512
 2363POPC   PO431476   1.700  30.294   9.454
 2363POPC   GL131477   1.827  30.645   9.183
 2363POPC   GL231478   1.627  30.955   9.267
 2363POPC   C1A31479   2.081  30.691   8.776
 2363POPC   D2A31480   2.285  30.883   8.400
 2363POPC   C3A31481   2.085  30.789   7.983
 2363POPC   C4A31482   2.155  30.618   7.496
 2363POPC   C1B31483   1.640  30.969   8.811
 2363POPC   C2B31484   1.653  31.080   8.356
 2363POPC   C3B31485   1.636  31.013   7.916
 2363POPC   C4B31486   1.692  30.644   7.675
 2364POPC   NC331487  11.023   0.555   9.585
 2364POPC   PO431488  11.546   0.160   9.630
 2364POPC   GL131489  11.514   0.414   9.213
 2364POPC   GL231490  11.172   0.525   9.115
 2364POPC   C1A31491  11.570   0.288   8.750
 2364POPC   D2A31492  11.435   0.045   8.354
 2364POPC   C3A31493  11.591   0.238   7.945
 2364POPC   C4A31494  11.518   0.590   7.659
 2364POPC   C1B31495  11.169   0.574   8.706
 2364POPC   C2B31496  11.381   0.556   8.322
 2364POPC   C3B31497  11.120   0.541   7.972
 2364POPC   C4B31498  11.042   0.793   7.610
 2365POPC   NC331499  27.173  20.808   9.468
 2365POPC   PO431500  27.838  20.499   9.465
 2365POPC   GL131501  27.490  20.416   9.176
 2365POPC   GL231502  27.514  20.746   9.097
 2365POPC   C1A31503  27.219  20.483   8.773
 2365POPC   D2A31504  27.182  20.255   8.358
 2365POPC   C3A31505  27.473  20.434   8.034
 2365POPC   C4A31506  27.400  20.658   7.692
 2365POPC   C1B31507  27.782  20.561   8.797
 2365POPC   C2B31508  27.618  20.682   8.432
 2365POPC   C3B31509  27.512  20.944   8.081
 2365POPC   C4B31510  27.772  21.026   7.709
 2366POPC   NC331511   7.352  37.594   9.686
 2366POPC   PO431512   7.008  38.126   9.469
 2366POPC   GL131513   7.199  37.843   9.137
 2366POPC   GL231514   7.271  37.504   9.190
 2366POPC   C1A31515   7.469  37.829   8.784
 2366POPC   D2A31516   7.512  37.993   8.379
 2366POPC   C3A31517   7.667  37.713   8.054
 2366POPC   C4A31518   7.519  37.851   7.668
 2366POPC   C1B31519   7.068  37.501   8.777
 2366POPC   C2B31520   7.255  37.495   8.357
 2366POPC   C3B31521   7.183  37.532   7.915
 2366POPC   C4B31522   6.811  37.489   7.633
 2367POPC   NC331523   2.785  24.335   9.351
 2367POPC   PO431524   2.690  24.935   9.328
 2367POPC   GL131525   2.858  24.763   9.026
 2367POPC   GL231526   3.134  24.652   9.157
 2367POPC   C1A31527   2.797  24.499   8.682
 2367POPC   D2A31528   2.568  24.278   8.374
 2367POPC   C3A31529   2.805  24.406   8.046
 2367POPC   C4A31530   2.666  24.434   7.682
 2367POPC   C1B31531   3.310  24.745   8.774
 2367POPC   C2B31532   3.182  24.645   8.350
 2367POPC   C3B31533   3.014  24.885   8.018
 2367POPC   C4B31534   3.127  24.635   7.685
 2368POPC   NC331535  13.905  13.470   9.771
 2368POPC   PO431536  13.492  13.276   9.394
 2368POPC   GL131537  13.598  13.543   9.096
 2368POPC   GL231538  13.903  13.577   9.162
 2368POPC   C1A31539  13.473  13.728   8.741
 2368POPC   D2A31540  13.719  13.857   8.394
 2368POPC   C3A31541  13.439  13.755   8.097
 2368POPC   C4A31542  13.550  13.798   7.707
 2368POPC   C1B31543  13.947  13.531   8.731
 2368POPC   C2B31544  13.688  13.360   8.430
 2368POPC   C3B31545  13.706  13.308   8.038
 2368POPC   C4B31546  13.940  13.279   7.686
 2369POPC   NC331547  19.396   9.184   9.278
 2369POPC   PO431548  18.873   9.041   9.597
 2369POPC   GL131549  18.925   9.003   9.144
 2369POPC   GL231550  19.129   8.699   9.194
 2369POPC   C1A31551  19.170   9.004   8.718
 2369POPC   D2A31552  19.201   9.173   8.311
 2369POPC   C3A31553  19.089   8.923   7.976
 2369POPC   C4A31554  19.053   9.078   7.605
 2369POPC   C1B31555  18.898   8.597   8.823
 2369POPC   C2B31556  18.958   8.644   8.395
 2369POPC   C3B31557  18.782   8.521   7.995
 2369POPC   C4B31558  18.806   8.631   7.546
 2370POPC   NC331559   5.473   9.836   9.339
 2370POPC   PO431560   4.848   9.634   9.441
 2370POPC   GL131561   5.076   9.673   9.071
 2370POPC   GL231562   5.313   9.408   8.977
 2370POPC   C1A31563   5.079   9.710   8.622
 2370POPC   D2A31564   5.342   9.803   8.279
 2370POPC   C3A31565   5.084  10.042   8.008
 2370POPC   C4A31566   5.016  10.049   7.568
 2370POPC   C1B31567   4.850   9.287   8.834
 2370POPC   C2B31568   4.623   9.367   8.436
 2370POPC   C3B31569   4.874   9.500   8.058
 2370POPC   C4B31570   5.257   9.581   7.810
 2371POPC   NC331571  21.710  14.600   9.266
 2371POPC   PO431572  21.509  14.069   9.600
 2371POPC   GL131573  21.328  14.161   9.159
 2371POPC   GL231574  21.165  14.388   9.052
 2371POPC   C1A31575  21.378  14.185   8.654
 2371POPC   D2A31576  21.181  14.471   8.325
 2371POPC   C3A31577  21.398  14.388   7.941
 2371POPC   C4A31578  21.521  14.660   7.604
 2371POPC   C1B31579  20.947  14.032   8.856
 2371POPC   C2B31580  20.866  14.084   8.469
 2371POPC   C3B31581  20.915  14.026   8.062
 2371POPC   C4B31582  20.947  14.317   7.729
 2372POPC   NC331583  25.824  31.088   9.468
 2372POPC   PO431584  26.478  31.328   9.468
 2372POPC   GL131585  26.427  31.444   9.077
 2372POPC   GL231586  26.070  31.391   9.116
 2372POPC   C1A31587  26.352  31.624   8.695
 2372POPC   D2A31588  26.190  31.824   8.351
 2372POPC   C3A31589  26.210  31.530   8.025
 2372POPC   C4A31590  26.437  31.669   7.719
 2372POPC   C1B31591  25.840  31.247   8.770
 2372POPC   C2B31592  25.845  31.430   8.385
 2372POPC   C3B31593  25.774  31.237   8.020
 2372POPC   C4B31594  25.569  31.307   7.670
 2373POPC   NC331595  35.015  42.508   9.343
 2373POPC   PO431596  35.659  42.245   9.577
 2373POPC   GL131597  35.392  42.143   9.236
 2373POPC   GL231598  35.447  42.445   9.070
 2373POPC   C1A31599  35.386  42.026   8.797
 2373POPC   D2A31600  35.279  42.210   8.412
 2373POPC   C3A31601  35.506  42.093   8.061
 2373POPC   C4A31602  35.323  42.101   7.656
 2373POPC   C1B31603  35.245  42.602   8.718
 2373POPC   C2B31604  35.334  42.720   8.320
 2373POPC   C3B31605  35.218  42.506   7.980
 2373POPC   C4B31606  35.203  42.609   7.586
 2374POPC   NC331607  24.721  29.722   9.558
 2374POPC   PO431608  24.225  30.275   9.586
 2374POPC   GL131609  24.452  30.084   9.231
 2374POPC   GL231610  24.389  29.732   9.165
 2374POPC   C1A31611  24.690  30.034   8.835
 2374POPC   D2A31612  24.657  29.826   8.428
 2374POPC   C3A31613  24.705  30.074   8.053
 2374POPC   C4A31614  24.664  29.802   7.687
 2374POPC   C1B31615  24.272  29.738   8.771
 2374POPC   C2B31616  24.161  29.950   8.435
 2374POPC   C3B31617  24.292  29.788   8.055
 2374POPC   C4B31618  24.145  29.865   7.689
 2375POPC   NC331619  39.951  20.120   9.492
 2375POPC   PO431620  40.324  19.621   9.500
 2375POPC   GL131621  40.179  19.789   9.132
 2375POPC   GL231622  40.326  20.104   9.093
 2375POPC   C1A31623  40.019  19.754   8.728
 2375POPC   D2A31624  39.910  20.026   8.397
 2375POPC   C3A31625  39.958  19.822   8.042
 2375POPC   C4A31626  39.748  19.415   7.972
 2375POPC   C1B31627  40.208  20.259   8.736
 2375POPC   C2B31628  40.348  20.273   8.316
 2375POPC   C3B31629  40.466  20.237   7.915
 2375POPC   C4B31630  40.251  20.063   7.559
 2376POPC   NC331631  22.234   3.509   9.609
 2376POPC   PO431632  21.761   3.970   9.460
 2376POPC   GL131633  21.977   3.627   9.152
 2376POPC   GL231634  22.250   3.342   9.139
 2376POPC   C1A31635  22.185   3.620   8.735
 2376POPC   D2A31636  22.018   3.595   8.348
 2376POPC   C3A31637  22.090   3.513   7.918
 2376POPC   C4A31638  22.004   3.833   7.656
 2376POPC   C1B31639  22.065   3.088   8.827
 2376POPC   C2B31640  22.213   3.096   8.425
 2376POPC   C3B31641  22.475   3.342   8.235
 2376POPC   C4B31642  22.555   3.366   7.808
 2377POPC   NC331643   4.250  14.910   9.455
 2377POPC   PO431644   3.818  15.600   9.489
 2377POPC   GL131645   4.000  15.292   9.160
 2377POPC   GL231646   4.372  15.257   9.099
 2377POPC   C1A31647   4.022  15.273   8.720
 2377POPC   D2A31648   4.320  15.261   8.378
 2377POPC   C3A31649   4.189  15.198   7.962
 2377POPC   C4A31650   4.373  15.394   7.597
 2377POPC   C1B31651   4.475  14.951   8.777
 2377POPC   C2B31652   4.677  14.876   8.358
 2377POPC   C3B31653   4.633  14.828   7.912
 2377POPC   C4B31654   4.342  14.876   7.592
 2378POPC   NC331655  20.644  40.375   9.377
 2378POPC   PO431656  20.307  39.753   9.308
 2378POPC   GL131657  20.505  40.021   9.018
 2378POPC   GL231658  20.395  40.372   8.928
 2378POPC   C1A31659  20.637  40.044   8.608
 2378POPC   D2A31660  20.512  40.220   8.239
 2378POPC   C3A31661  20.434  39.941   7.889
 2378POPC   C4A31662  20.440  40.006   7.438
 2378POPC   C1B31663  20.793  40.521   8.792
 2378POPC   C2B31664  20.979  40.435   8.457
 2378POPC   C3B31665  21.130  40.380   8.089
 2378POPC   C4B31666  20.871  40.193   7.845
 2379POPC   NC331667  14.183   9.789   9.467
 2379POPC   PO431668  14.748   9.393   9.409
 2379POPC   GL131669  14.496   9.612   9.090
 2379POPC   GL231670  14.127   9.538   9.038
 2379POPC   C1A31671  14.476   9.797   8.685
 2379POPC   D2A31672  14.653  10.066   8.373
 2379POPC   C3A31673  14.465  10.014   7.964
 2379POPC   C4A31674  14.699   9.696   7.766
 2379POPC   C1B31675  14.192   9.354   8.671
 2379POPC   C2B31676  14.347   9.465   8.271
 2379POPC   C3B31677  14.205   9.580   7.869
 2379POPC   C4B31678  14.015   9.405   7.496
 2380POPC   NC331679   8.688  14.363   9.718
 2380POPC   PO431680   9.133  14.080   9.287
 2380POPC   GL131681   9.030  14.472   9.095
 2380POPC   GL231682   8.827  14.338   8.867
 2380POPC   C1A31683   9.089  14.700   8.674
 2380POPC   D2A31684   9.291  14.491   8.314
 2380POPC   C3A31685   9.078  14.287   7.958
 2380POPC   C4A31686   9.136  14.243   7.515
 2380POPC   C1B31687   8.565  14.141   8.618
 2380POPC   C2B31688   8.809  14.018   8.313
 2380POPC   C3B31689   8.624  13.966   7.962
 2380POPC   C4B31690   8.715  14.006   7.573
 2381POPC   NC331691  10.024   4.904   9.505
 2381POPC   PO431692   9.587   5.423   9.526
 2381POPC   GL131693   9.624   5.167   9.170
 2381POPC   GL231694   9.766   5.491   9.044
 2381POPC   C1A31695   9.682   4.961   8.750
 2381POPC   D2A31696   9.471   4.937   8.337
 2381POPC   C3A31697   9.688   4.738   7.981
 2381POPC   C4A31698   9.634   4.876   7.546
 2381POPC   C1B31699   9.966   5.388   8.681
 2381POPC   C2B31700   9.913   5.181   8.308
 2381POPC   C3B31701   9.703   5.234   7.960
 2381POPC   C4B31702   9.933   5.282   7.617
 2382POPC   NC331703  37.904  44.027   9.436
 2382POPC   PO431704  37.199  43.917   9.410
 2382POPC   GL131705  37.398  43.678   9.068
 2382POPC   GL231706  37.669  43.925   9.000
 2382POPC   C1A31707  37.409  43.699   8.614
 2382POPC   D2A31708  37.752  43.977   8.507
 2382POPC   C3A31709  37.689  44.112   8.136
 2382POPC   C4A31710  37.665  43.819   7.789
 2382POPC   C1B31711  37.346  44.182   8.755
 2382POPC   C2B31712  37.211  44.153   8.325
 2382POPC   C3B31713  37.271  44.150   7.857
 2382POPC   C4B31714  37.545  44.210   7.469
 2383POPC   NC331715   6.306  43.935   9.651
 2383POPC   PO431716   5.743  44.143   9.556
 2383POPC   GL131717   5.867  44.009   9.134
 2383POPC   GL231718   5.726  43.671   9.145
 2383POPC   C1A31719   5.760  43.960   8.669
 2383POPC   D2A31720   5.415  43.789   8.404
 2383POPC   C3A31721   5.517  43.874   7.970
 2383POPC   C4A31722   5.912  44.058   7.744
 2383POPC   C1B31723   6.019  43.563   8.838
 2383POPC   C2B31724   6.151  43.536   8.454
 2383POPC   C3B31725   6.000  43.726   8.130
 2383POPC   C4B31726   5.859  43.567   7.764
 2384POPC   NC331727  15.711  10.271   9.426
 2384POPC   PO431728  15.106  10.831   9.397
 2384POPC   GL131729  15.267  10.692   9.001
 2384POPC   GL231730  15.611  10.534   8.980
 2384POPC   C1A31731  15.004  10.682   8.629
 2384POPC   D2A31732  14.698  10.587   8.319
 2384POPC   C3A31733  14.845  10.353   7.989
 2384POPC   C4A31734  15.095  10.520   7.689
 2384POPC   C1B31735  15.369  10.303   8.659
 2384POPC   C2B31736  15.269  10.429   8.249
 2384POPC   C3B31737  15.535  10.580   7.946
 2384POPC   C4B31738  15.678  10.327   7.604
 2385POPC   NC331739  34.755  29.018   9.505
 2385POPC   PO431740  34.366  29.388   9.217
 2385POPC   GL131741  34.541  29.019   9.046
 2385POPC   GL231742  34.386  28.710   9.236
 2385POPC   C1A31743  34.874  29.018   8.739
 2385POPC   D2A31744  34.888  29.203   8.318
 2385POPC   C3A31745  34.589  29.426   8.059
 2385POPC   C4A31746  34.777  29.371   7.663
 2385POPC   C1B31747  34.270  28.681   8.792
 2385POPC   C2B31748  34.453  28.949   8.427
 2385POPC   C3B31749  34.556  28.924   7.976
 2385POPC   C4B31750  34.323  28.659   7.696
 2386POPC   NC331751  34.190   9.921   9.388
 2386POPC   PO431752  33.612   9.648   9.558
 2386POPC   GL131753  33.678   9.956   9.262
 2386POPC   GL231754  33.811   9.684   9.076
 2386POPC   C1A31755  33.543  10.038   8.848
 2386POPC   D2A31756  33.550   9.792   8.520
 2386POPC   C3A31757  33.729   9.919   8.135
 2386POPC   C4A31758  33.677   9.773   7.724
 2386POPC   C1B31759  34.041   9.831   8.725
 2386POPC   C2B31760  34.254   9.828   8.327
 2386POPC   C3B31761  34.158   9.820   7.880
 2386POPC   C4B31762  34.137   9.904   7.406
 2387POPC   NC331763  27.495  24.735   9.551
 2387POPC   PO431764  27.864  24.133   9.384
 2387POPC   GL131765  27.773  24.355   9.029
 2387POPC   GL231766  27.659  24.672   9.068
 2387POPC   C1A31767  27.557  24.379   8.641
 2387POPC   D2A31768  27.282  24.143   8.350
 2387POPC   C3A31769  27.428  24.257   7.953
 2387POPC   C4A31770  27.277  24.392   7.573
 2387POPC   C1B31771  27.976  24.745   8.744
 2387POPC   C2B31772  28.014  24.546   8.388
 2387POPC   C3B31773  27.864  24.534   8.007
 2387POPC   C4B31774  27.983  24.196   7.841
 2388POPC   NC331775  20.390  27.423   9.579
 2388POPC   PO431776  21.017  27.436   9.602
 2388POPC   GL131777  20.769  27.564   9.226
 2388POPC   GL231778  20.512  27.363   9.060
 2388POPC   C1A31779  20.681  27.870   8.884
 2388POPC   D2A31780  20.539  28.025   8.457
 2388POPC   C3A31781  20.694  27.842   8.073
 2388POPC   C4A31782  20.547  27.643   7.708
 2388POPC   C1B31783  20.559  27.469   8.595
 2388POPC   C2B31784  20.524  27.356   8.164
 2388POPC   C3B31785  20.281  27.230   7.791
 2388POPC   C4B31786  20.323  27.108   7.327
 2389POPC   NC331787  21.079  30.323   9.367
 2389POPC   PO431788  21.563  29.890   9.543
 2389POPC   GL131789  21.347  29.904   9.166
 2389POPC   GL231790  21.523  30.223   9.098
 2389POPC   C1A31791  21.152  30.020   8.763
 2389POPC   D2A31792  21.304  29.879   8.379
 2389POPC   C3A31793  21.579  30.093   8.165
 2389POPC   C4A31794  21.367  30.141   7.807
 2389POPC   C1B31795  21.681  30.031   8.719
 2389POPC   C2B31796  21.774  29.672   8.480
 2389POPC   C3B31797  21.750  29.510   8.099
 2389POPC   C4B31798  21.683  29.746   7.747
 2390POPC   NC331799  20.805  37.776   9.376
 2390POPC   PO431800  20.444  37.147   9.469
 2390POPC   GL131801  20.483  37.408   9.103
 2390POPC   GL231802  20.370  37.757   9.018
 2390POPC   C1A31803  20.599  37.446   8.684
 2390POPC   D2A31804  20.644  37.443   8.283
 2390POPC   C3A31805  20.319  37.618   8.076
 2390POPC   C4A31806  20.268  37.682   7.662
 2390POPC   C1B31807  20.740  37.931   8.749
 2390POPC   C2B31808  20.905  38.192   8.441
 2390POPC   C3B31809  20.717  38.062   8.087
 2390POPC   C4B31810  20.792  37.704   7.863
 2391POPC   NC331811   5.073   1.579   9.576
 2391POPC   PO431812   5.263   0.952   9.335
 2391POPC   GL131813   5.213   1.366   9.138
 2391POPC   GL231814   4.836   1.438   9.150
 2391POPC   C1A31815   5.423   1.433   8.761
 2391POPC   D2A31816   5.340   1.161   8.440
 2391POPC   C3A31817   5.377   1.302   8.044
 2391POPC   C4A31818   5.105   1.115   7.780
 2391POPC   C1B31819   4.902   1.485   8.716
 2391POPC   C2B31820   5.087   1.627   8.339
 2391POPC   C3B31821   4.922   1.558   7.928
 2391POPC   C4B31822   4.976   1.516   7.439
 2392POPC   NC331823  30.531  41.896   9.513
 2392POPC   PO431824  30.885  41.260   9.537
 2392POPC   GL131825  30.886  41.413   9.140
 2392POPC   GL231826  30.526  41.488   9.088
 2392POPC   C1A31827  30.889  41.569   8.718
 2392POPC   D2A31828  30.730  41.344   8.352
 2392POPC   C3A31829  30.907  41.334   7.968
 2392POPC   C4A31830  30.573  41.466   7.730
 2392POPC   C1B31831  30.486  41.885   8.839
 2392POPC   C2B31832  30.606  42.043   8.435
 2392POPC   C3B31833  30.607  41.883   8.021
 2392POPC   C4B31834  30.979  41.852   7.799
 2393POPC   NC331835   2.073  36.760   9.606
 2393POPC   PO431836   1.656  37.205   9.826
 2393POPC   GL131837   2.114  37.099   9.275
 2393POPC   GL231838   2.141  37.380   9.043
 2393POPC   C1A31839   2.175  36.791   8.882
 2393POPC   D2A31840   1.960  36.689   8.441
 2393POPC   C3A31841   2.057  36.811   7.983
 2393POPC   C4A31842   1.794  36.872   7.594
 2393POPC   C1B31843   1.909  37.180   8.710
 2393POPC   C2B31844   1.894  37.191   8.297
 2393POPC   C3B31845   1.609  37.129   8.009
 2393POPC   C4B31846   1.638  37.381   7.653
 2394POPC   NC331847  32.267  35.724   9.533
 2394POPC   PO431848  31.988  36.295   9.503
 2394POPC   GL131849  32.104  36.067   9.167
 2394POPC   GL231850  31.826  35.836   9.183
 2394POPC   C1A31851  32.303  36.194   8.773
 2394POPC   D2A31852  32.522  36.195   8.381
 2394POPC   C3A31853  32.368  36.279   7.998
 2394POPC   C4A31854  32.560  36.025   7.697
 2394POPC   C1B31855  31.901  35.903   8.736
 2394POPC   C2B31856  32.053  35.981   8.301
 2394POPC   C3B31857  32.075  35.897   7.842
 2394POPC   C4B31858  31.774  35.817   7.501
 2395POPC   NC331859  25.878  28.381   9.442
 2395POPC   PO431860  26.479  28.100   9.283
 2395POPC   GL131861  26.144  28.221   9.026
 2395POPC   GL231862  26.046  28.576   9.019
 2395POPC   C1A31863  26.094  28.277   8.593
 2395POPC   D2A31864  25.854  28.167   8.241
 2395POPC   C3A31865  26.102  28.064   7.913
 2395POPC   C4A31866  26.152  28.260   7.542
 2395POPC   C1B31867  26.046  28.790   8.656
 2395POPC   C2B31868  26.005  28.671   8.253
 2395POPC   C3B31869  26.110  28.658   7.864
 2395POPC   C4B31870  25.855  28.702   7.536
 2396POPC   NC331871   7.973  16.258   9.576
 2396POPC   PO431872   8.257  16.873   9.741
 2396POPC   GL131873   8.132  16.716   9.257
 2396POPC   GL231874   8.382  16.479   9.056
 2396POPC   C1A31875   8.036  16.676   8.769
 2396POPC   D2A31876   8.325  16.485   8.441
 2396POPC   C3A31877   8.125  16.405   8.075
 2396POPC   C4A31878   7.982  16.715   7.820
 2396POPC   C1B31879   8.544  16.801   8.780
 2396POPC   C2B31880   8.649  16.891   8.348
 2396POPC   C3B31881   8.484  16.901   7.973
 2396POPC   C4B31882   8.470  16.571   7.747
 2397POPC   NC331883  31.602  33.344   9.534
 2397POPC   PO431884  31.269  33.975   9.554
 2397POPC   GL131885  31.339  33.692   9.213
 2397POPC   GL231886  31.109  33.913   9.082
 2397POPC   C1A31887  31.389  33.622   8.773
 2397POPC   D2A31888  31.687  33.709   8.462
 2397POPC   C3A31889  31.541  33.764   8.065
 2397POPC   C4A31890  31.429  33.487   7.772
 2397POPC   C1B31891  31.206  34.125   8.733
 2397POPC   C2B31892  31.178  33.908   8.397
 2397POPC   C3B31893  31.147  34.133   8.094
 2397POPC   C4B31894  31.180  33.974   7.759
 2398POPC   NC331895   4.539  22.500   9.327
 2398POPC   PO431896   4.126  23.023   9.566
 2398POPC   GL131897   4.244  22.968   9.165
 2398POPC   GL231898   4.093  22.656   9.134
 2398POPC   C1A31899   4.514  22.955   8.785
 2398POPC   D2A31900   4.715  22.880   8.391
 2398POPC   C3A31901   4.531  23.027   8.009
 2398POPC   C4A31902   4.416  22.861   7.598
 2398POPC   C1B31903   3.988  22.834   8.737
 2398POPC   C2B31904   3.923  22.606   8.386
 2398POPC   C3B31905   4.099  22.746   8.021
 2398POPC   C4B31906   4.010  22.568   7.626
 2399POPC   NC331907  21.938   5.574   9.583
 2399POPC   PO431908  22.072   6.248   9.563
 2399POPC   GL131909  22.227   5.981   9.207
 2399POPC   GL231910  22.005   5.713   9.100
 2399POPC   C1A31911  22.438   5.779   8.830
 2399POPC   D2A31912  22.417   5.932   8.417
 2399POPC   C3A31913  22.712   5.788   8.114
 2399POPC   C4A31914  22.669   5.669   7.696
 2399POPC   C1B31915  21.945   5.867   8.678
 2399POPC   C2B31916  21.965   5.794   8.238
 2399POPC   C3B31917  22.132   5.748   7.834
 2399POPC   C4B31918  21.962   5.666   7.439
 2400POPC   NC331919  14.679  34.173   9.598
 2400POPC   PO431920  14.153  33.788   9.520
 2400POPC   GL131921  14.377  33.763   9.123
 2400POPC   GL231922  14.643  34.016   9.102
 2400POPC   C1A31923  14.172  33.774   8.712
 2400POPC   D2A31924  13.992  33.443   8.451
 2400POPC   C3A31925  14.030  33.551   8.032
 2400POPC   C4A31926  14.388  33.620   7.801
 2400POPC   C1B31927  14.663  33.805   8.686
 2400POPC   C2B31928  14.475  33.867   8.256
 2400POPC   C3B31929  14.737  33.967   7.863
 2400POPC   C4B31930  14.649  34.244   7.509
 2401POPC   NC331931  30.051  10.785   9.618
 2401POPC   PO431932  29.537  10.404   9.494
 2401POPC   GL131933  29.815  10.573   9.205
 2401POPC   GL231934  30.043  10.302   9.196
 2401POPC   C1A31935  29.986  10.699   8.820
 2401POPC   D2A31936  30.269  10.882   8.536
 2401POPC   C3A31937  30.155  10.625   8.181
 2401POPC   C4A31938  29.897  10.699   7.803
 2401POPC   C1B31939  29.954  10.197   8.773
 2401POPC   C2B31940  29.762  10.206   8.382
 2401POPC   C3B31941  29.924  10.206   7.989
 2401POPC   C4B31942  30.158  10.271   7.671
 2402POPC   NC331943   6.341  19.126   9.585
 2402POPC   PO431944   6.752  18.591   9.699
 2402POPC   GL131945   6.709  18.931   9.267
 2402POPC   GL231946   6.512  19.253   9.123
 2402POPC   C1A31947   6.694  18.962   8.775
 2402POPC   D2A31948   6.947  18.955   8.434
 2402POPC   C3A31949   6.748  18.927   8.029
 2402POPC   C4A31950   6.929  18.786   7.640
 2402POPC   C1B31951   6.634  19.501   8.754
 2402POPC   C2B31952   6.658  19.388   8.325
 2402POPC   C3B31953   6.417  19.336   7.964
 2402POPC   C4B31954   6.477  19.108   7.600
 2403POPC   NC331955  17.677  44.552   9.502
 2403POPC   PO431956  17.063  44.784   9.304
 2403POPC   GL131957  17.375  44.665   9.070
 2403POPC   GL231958  17.658  44.893   9.131
 2403POPC   C1A31959  17.434  44.868   8.666
 2403POPC   D2A31960  17.579  44.983   8.253
 2403POPC   C3A31961  17.498  44.732   7.914
 2403POPC   C4A31962  17.226  44.458   7.706
 2403POPC   C1B31963  17.834  44.612   8.866
 2403POPC   C2B31964  17.817  44.577   8.464
 2403POPC   C3B31965  17.932  44.513   8.111
 2403POPC   C4B31966  17.873  44.474   7.708
 2404POPC   NC331967  29.273  33.653   9.505
 2404POPC   PO431968  29.234  34.391   9.530
 2404POPC   GL131969  29.341  34.071   9.171
 2404POPC   GL231970  29.024  33.980   9.110
 2404POPC   C1A31971  29.295  33.787   8.745
 2404POPC   D2A31972  29.305  33.611   8.300
 2404POPC   C3A31973  29.330  33.642   7.829
 2404POPC   C4A31974  29.098  33.414   7.428
 2404POPC   C1B31975  28.984  34.182   8.723
 2404POPC   C2B31976  29.106  34.104   8.309
 2404POPC   C3B31977  28.907  33.853   8.016
 2404POPC   C4B31978  28.939  33.843   7.593
 2405POPC   NC331979   1.729   3.053   9.540
 2405POPC   PO431980   2.173   2.545   9.428
 2405POPC   GL131981   2.060   2.891   9.160
 2405POPC   GL231982   1.718   2.832   9.069
 2405POPC   C1A31983   2.104   3.037   8.747
 2405POPC   D2A31984   2.037   2.789   8.371
 2405POPC   C3A31985   1.892   2.955   7.990
 2405POPC   C4A31986   2.038   3.007   7.582
 2405POPC   C1B31987   1.931   2.513   8.808
 2405POPC   C2B31988   1.783   2.296   8.438
 2405POPC   C3B31989   1.874   2.404   8.018
 2405POPC   C4B31990   1.585   2.406   7.697
 2406POPC   NC331991  20.808   3.521   9.507
 2406POPC   PO431992  20.074   3.655   9.538
 2406POPC   GL131993  20.351   3.532   9.184
 2406POPC   GL231994  20.501   3.830   9.057
 2406POPC   C1A31995  20.526   3.366   8.764
 2406POPC   D2A31996  20.769   3.192   8.381
 2406POPC   C3A31997  20.721   3.369   7.969
 2406POPC   C4A31998  20.562   3.511   7.550
 2406POPC   C1B31999  20.717   3.885   8.671
 2406POPC   C2B32000  20.798   3.711   8.321
 2406POPC   C3B32001  20.706   3.876   7.922
 2406POPC   C4B32002  20.963   4.055   7.618
 2407POPC   NC332003  19.627  22.237   9.220
 2407POPC   PO432004  19.273  21.731   9.357
 2407POPC   GL132005  19.126  22.094   9.082
 2407POPC   GL232006  19.167  22.498   9.114
 2407POPC   C1A32007  19.229  22.204   8.650
 2407POPC   D2A32008  19.347  22.255   8.220
 2407POPC   C3A32009  19.386  21.896   7.960
 2407POPC   C4A32010  19.103  21.791   7.652
 2407POPC   C1B32011  18.863  22.548   8.747
 2407POPC   C2B32012  18.780  22.267   8.373
 2407POPC   C3B32013  18.906  22.153   7.960
 2407POPC   C4B32014  19.149  22.415   7.712
 2408POPC   NC332015  18.568  27.658   9.470
 2408POPC   PO432016  18.137  27.141   9.548
 2408POPC   GL132017  18.204  27.449   9.181
 2408POPC   GL232018  18.553  27.360   9.038
 2408POPC   C1A32019  18.180  27.697   8.778
 2408POPC   D2A32020  17.880  27.725   8.456
 2408POPC   C3A32021  18.080  27.742   8.035
 2408POPC   C4A32022  18.017  27.528   7.649
 2408POPC   C1B32023  18.676  27.699   8.759
 2408POPC   C2B32024  18.505  27.847   8.364
 2408POPC   C3B32025  18.605  27.746   7.964
 2408POPC   C4B32026  18.532  27.408   7.677
 2409POPC   NC332027   6.233  38.972   9.472
 2409POPC   PO432028   5.823  39.518   9.658
 2409POPC   GL132029   5.855  39.485   9.173
 2409POPC   GL232030   6.193  39.338   9.109
 2409POPC   C1A32031   5.610  39.446   8.778
 2409POPC   D2A32032   5.597  39.064   8.520
 2409POPC   C3A32033   5.663  39.123   8.091
 2409POPC   C4A32034   5.702  39.153   7.660
 2409POPC   C1B32035   6.076  39.253   8.694
 2409POPC   C2B32036   5.955  39.456   8.320
 2409POPC   C3B32037   6.112  39.343   7.876
 2409POPC   C4B32038   6.223  38.970   7.600
 2410POPC   NC332039  16.997   8.315   9.552
 2410POPC   PO432040  16.411   8.129   9.310
 2410POPC   GL132041  16.752   8.160   9.066
 2410POPC   GL232042  17.068   8.071   9.132
 2410POPC   C1A32043  16.741   8.067   8.649
 2410POPC   D2A32044  16.531   8.254   8.315
 2410POPC   C3A32045  16.720   8.200   7.955
 2410POPC   C4A32046  16.813   8.166   7.564
 2410POPC   C1B32047  17.190   8.320   8.780
 2410POPC   C2B32048  17.043   8.363   8.361
 2410POPC   C3B32049  17.203   8.389   7.952
 2410POPC   C4B32050  17.124   8.571   7.582
 2411POPC   NC332051  44.911  31.081   9.394
 2411POPC   PO432052   0.031  30.413   9.394
 2411POPC   GL132053   0.320  30.658   9.101
 2411POPC   GL232054   0.374  31.007   9.069
 2411POPC   C1A32055   0.430  30.676   8.689
 2411POPC   D2A32056   0.490  30.468   8.340
 2411POPC   C3A32057   0.210  30.612   8.060
 2411POPC   C4A32058   0.407  30.592   7.675
 2411POPC   C1B32059   0.806  31.002   8.796
 2411POPC   C2B32060   0.810  30.881   8.391
 2411POPC   C3B32061   0.541  30.963   8.121
 2411POPC   C4B32062   0.748  30.913   7.813
 2412POPC   NC332063  12.747  14.532   9.282
 2412POPC   PO432064  12.707  15.156   9.610
 2412POPC   GL132065  12.794  15.080   9.159
 2412POPC   GL232066  13.111  15.271   9.111
 2412POPC   C1A32067  12.917  15.024   8.709
 2412POPC   D2A32068  13.089  14.983   8.304
 2412POPC   C3A32069  12.785  15.148   8.034
 2412POPC   C4A32070  12.791  15.253   7.626
 2412POPC   C1B32071  13.213  15.567   8.803
 2412POPC   C2B32072  13.157  15.501   8.372
 2412POPC   C3B32073  13.110  15.512   7.932
 2412POPC   C4B32074  13.258  15.104   7.780
 2413POPC   NC332075  42.699  37.453   9.462
 2413POPC   PO432076  42.089  37.640   9.678
 2413POPC   GL132077  42.227  37.631   9.199
 2413POPC   GL232078  42.547  37.726   9.065
 2413POPC   C1A32079  42.204  37.454   8.763
 2413POPC   D2A32080  41.907  37.415   8.423
 2413POPC   C3A32081  42.121  37.393   8.039
 2413POPC   C4A32082  42.290  37.658   7.733
 2413POPC   C1B32083  42.718  37.502   8.711
 2413POPC   C2B32084  42.590  37.480   8.257
 2413POPC   C3B32085  42.779  37.692   7.874
 2413POPC   C4B32086  42.662  37.848   7.444
 2414POPC   NC332087   1.368  37.457   9.536
 2414POPC   PO432088   1.160  38.021   9.529
 2414POPC   GL132089   1.181  37.886   9.141
 2414POPC   GL232090   0.874  37.954   9.062
 2414POPC   C1A32091   1.251  37.712   8.721
 2414POPC   D2A32092   1.439  37.426   8.432
 2414POPC   C3A32093   1.287  37.532   8.024
 2414POPC   C4A32094   1.369  37.823   7.702
 2414POPC   C1B32095   0.746  37.659   8.760
 2414POPC   C2B32096   0.837  37.568   8.338
 2414POPC   C3B32097   0.924  37.891   8.049
 2414POPC   C4B32098   0.836  37.734   7.674
 2415POPC   NC332099  28.770  40.272   9.353
 2415POPC   PO432100  28.324  39.827   9.482
 2415POPC   GL132101  28.313  39.995   9.091
 2415POPC   GL232102  27.948  39.956   9.031
 2415POPC   C1A32103  28.453  40.248   8.744
 2415POPC   D2A32104  28.743  40.390   8.430
 2415POPC   C3A32105  28.584  40.196   8.103
 2415POPC   C4A32106  28.588  39.910   7.794
 2415POPC   C1B32107  28.099  39.863   8.640
 2415POPC   C2B32108  28.251  39.844   8.250
 2415POPC   C3B32109  28.101  39.996   7.862
 2415POPC   C4B32110  28.224  40.036   7.425
 2416POPC   NC332111  27.161  33.768   9.369
 2416POPC   PO432112  27.715  34.023   9.629
 2416POPC   GL132113  27.663  33.849   9.195
 2416POPC   GL232114  27.394  34.031   9.028
 2416POPC   C1A32115  27.688  33.628   8.780
 2416POPC   D2A32116  27.410  33.604   8.402
 2416POPC   C3A32117  27.565  33.655   7.971
 2416POPC   C4A32118  27.675  33.942   7.639
 2416POPC   C1B32119  27.476  34.076   8.632
 2416POPC   C2B32120  27.230  34.223   8.344
 2416POPC   C3B32121  27.334  34.116   7.983
 2416POPC   C4B32122  27.164  33.834   7.725
 2417POPC   NC332123  25.990  34.138   9.568
 2417POPC   PO432124  26.105  34.747   9.532
 2417POPC   GL132125  25.834  34.741   9.177
 2417POPC   GL232126  25.935  34.417   9.098
 2417POPC   C1A32127  25.969  34.792   8.739
 2417POPC   D2A32128  26.192  34.670   8.362
 2417POPC   C3A32129  26.024  34.887   8.073
 2417POPC   C4A32130  25.891  34.964   7.718
 2417POPC   C1B32131  26.265  34.341   8.734
 2417POPC   C2B32132  26.286  34.141   8.324
 2417POPC   C3B32133  26.425  34.322   7.966
 2417POPC   C4B32134  26.155  34.530   7.746
 2418POPC   NC332135  33.034  25.823   9.747
 2418POPC   PO432136  33.349  26.139   9.263
 2418POPC   GL132137  33.032  25.999   9.050
 2418POPC   GL232138  32.927  25.678   9.154
 2418POPC   C1A32139  33.061  26.189   8.652
 2418POPC   D2A32140  33.314  26.268   8.293
 2418POPC   C3A32141  33.003  26.185   8.015
 2418POPC   C4A32142  32.921  26.357   7.632
 2418POPC   C1B32143  33.098  25.592   8.748
 2418POPC   C2B32144  33.051  25.752   8.356
 2418POPC   C3B32145  33.136  25.558   7.975
 2418POPC   C4B32146  33.068  25.826   7.668
 2419POPC   NC332147  34.550  30.687   9.508
 2419POPC   PO432148  35.135  30.347   9.709
 2419POPC   GL132149  34.875  30.385   9.207
 2419POPC   GL232150  34.552  30.495   9.051
 2419POPC   C1A32151  34.869  30.638   8.713
 2419POPC   D2A32152  34.495  30.738   8.433
 2419POPC   C3A32153  34.497  30.827   7.991
 2419POPC   C4A32154  34.674  30.470   7.750
 2419POPC   C1B32155  34.280  30.364   8.742
 2419POPC   C2B32156  34.216  30.287   8.309
 2419POPC   C3B32157  34.177  30.435   7.867
 2419POPC   C4B32158  34.284  30.752   7.521
 2420POPC   NC332159  30.213  43.486   9.372
 2420POPC   PO432160  29.783  44.109   9.440
 2420POPC   GL132161  29.996  43.889   9.149
 2420POPC   GL232162  29.799  43.612   9.051
 2420POPC   C1A32163  30.152  43.841   8.752
 2420POPC   D2A32164  29.929  43.890   8.388
 2420POPC   C3A32165  30.162  43.736   8.096
 2420POPC   C4A32166  30.250  43.985   7.806
 2420POPC   C1B32167  29.623  43.970   8.808
 2420POPC   C2B32168  29.455  44.083   8.421
 2420POPC   C3B32169  29.579  43.971   8.013
 2420POPC   C4B32170  29.791  43.707   7.762
 2421POPC   NC332171   0.133   3.568   9.443
 2421POPC   PO432172   0.581   3.182   9.477
 2421POPC   GL132173   0.450   3.405   9.064
 2421POPC   GL232174   0.419   3.755   9.061
 2421POPC   C1A32175   0.462   3.315   8.611
 2421POPC   D2A32176   0.766   3.494   8.295
 2421POPC   C3A32177   0.712   3.409   7.833
 2421POPC   C4A32178   0.661   3.530   7.379
 2421POPC   C1B32179   0.623   3.897   8.711
 2421POPC   C2B32180   0.410   3.916   8.322
 2421POPC   C3B32181   0.306   3.687   7.968
 2421POPC   C4B32182   0.309   3.850   7.583
 2422POPC   NC332183  16.289  27.143   9.236
 2422POPC   PO432184  16.573  26.565   9.521
 2422POPC   GL132185  16.734  26.853   9.178
 2422POPC   GL232186  16.542  26.879   8.873
 2422POPC   C1A32187  17.018  26.969   8.809
 2422POPC   D2A32188  16.857  26.915   8.374
 2422POPC   C3A32189  17.028  26.575   8.139
 2422POPC   C4A32190  17.057  26.668   7.728
 2422POPC   C1B32191  16.493  27.216   8.599
 2422POPC   C2B32192  16.329  27.001   8.257
 2422POPC   C3B32193  16.608  26.905   7.909
 2422POPC   C4B32194  16.927  27.169   7.753
 2423POPC   NC332195  14.768  19.753   9.573
 2423POPC   PO432196  14.210  20.141   9.563
 2423POPC   GL132197  14.487  20.050   9.219
 2423POPC   GL232198  14.426  19.702   9.204
 2423POPC   C1A32199  14.360  20.018   8.784
 2423POPC   D2A32200  14.472  20.015   8.351
 2423POPC   C3A32201  14.248  20.043   7.958
 2423POPC   C4A32202  14.493  19.983   7.587
 2423POPC   C1B32203  14.709  19.618   8.882
 2423POPC   C2B32204  14.771  19.609   8.421
 2423POPC   C3B32205  14.661  19.659   7.968
 2423POPC   C4B32206  14.645  19.368   7.594
 2424POPC   NC332207  24.195  22.794   9.486
 2424POPC   PO432208  24.810  23.128   9.350
 2424POPC   GL132209  24.538  23.257   9.030
 2424POPC   GL232210  24.206  23.091   9.047
 2424POPC   C1A32211  24.590  23.122   8.621
 2424POPC   D2A32212  24.683  22.761   8.371
 2424POPC   C3A32213  24.614  22.966   8.005
 2424POPC   C4A32214  24.313  23.211   7.792
 2424POPC   C1B32215  24.219  22.771   8.708
 2424POPC   C2B32216  24.171  22.835   8.236
 2424POPC   C3B32217  24.237  22.719   7.781
 2424POPC   C4B32218  24.258  22.547   7.339
 2425POPC   NC332219   1.148   1.510   9.526
 2425POPC   PO432220   1.655   1.088   9.591
 2425POPC   GL132221   1.317   1.130   9.204
 2425POPC   GL232222   1.097   0.813   9.132
 2425POPC   C1A32223   1.146   1.188   8.774
 2425POPC   D2A32224   1.323   1.336   8.380
 2425POPC   C3A32225   1.447   1.182   7.956
 2425POPC   C4A32226   1.317   1.259   7.510
 2425POPC   C1B32227   0.830   0.784   8.758
 2425POPC   C2B32228   0.871   0.700   8.304
 2425POPC   C3B32229   0.980   0.931   7.901
 2425POPC   C4B32230   0.889   0.972   7.444
 2426POPC   NC332231  17.262   7.352   9.529
 2426POPC   PO432232  17.897   7.565   9.488
 2426POPC   GL132233  17.734   7.317   9.167
 2426POPC   GL232234  17.371   7.390   9.035
 2426POPC   C1A32235  17.771   7.327   8.744
 2426POPC   D2A32236  17.452   7.448   8.495
 2426POPC   C3A32237  17.639   7.486   8.119
 2426POPC   C4A32238  17.756   7.261   7.747
 2426POPC   C1B32239  17.122   7.724   8.792
 2426POPC   C2B32240  16.948   7.652   8.383
 2426POPC   C3B32241  17.131   7.354   8.110
 2426POPC   C4B32242  17.284   7.453   7.744
 2427POPC   NC332243  38.822  30.983   9.508
 2427POPC   PO432244  39.440  30.690   9.460
 2427POPC   GL132245  39.130  30.801   9.148
 2427POPC   GL232246  38.834  30.663   9.054
 2427POPC   C1A32247  39.225  30.905   8.734
 2427POPC   D2A32248  39.327  30.631   8.404
 2427POPC   C3A32249  39.294  30.834   8.012
 2427POPC   C4A32250  39.435  30.688   7.615
 2427POPC   C1B32251  38.852  30.550   8.619
 2427POPC   C2B32252  38.820  30.611   8.167
 2427POPC   C3B32253  38.976  30.512   7.777
 2427POPC   C4B32254  39.027  30.557   7.343
 2428POPC   NC332255  20.547  10.829   9.659
 2428POPC   PO432256  20.756  11.463   9.455
 2428POPC   GL132257  20.518  11.338   9.099
 2428POPC   GL232258  20.449  10.973   9.099
 2428POPC   C1A32259  20.686  11.290   8.685
 2428POPC   D2A32260  20.497  11.435   8.395
 2428POPC   C3A32261  20.613  11.248   8.056
 2428POPC   C4A32262  20.760  11.408   7.741
 2428POPC   C1B32263  20.238  11.058   8.672
 2428POPC   C2B32264  20.151  11.114   8.210
 2428POPC   C3B32265  20.259  11.015   7.753
 2428POPC   C4B32266  20.261  11.121   7.291
 2429POPC   NC332267   1.441  44.143   9.556
 2429POPC   PO432268   0.953  43.765   9.492
 2429POPC   GL132269   1.084  44.022   9.161
 2429POPC   GL232270   1.443  43.923   9.095
 2429POPC   C1A32271   1.104  43.858   8.752
 2429POPC   D2A32272   1.014  43.972   8.386
 2429POPC   C3A32273   0.895  43.632   8.200
 2429POPC   C4A32274   0.901  43.595   7.756
 2429POPC   C1B32275   1.608  43.809   8.668
 2429POPC   C2B32276   1.410  43.635   8.310
 2429POPC   C3B32277   1.292  43.870   7.932
 2429POPC   C4B32278   1.609  44.146   7.766
 2430POPC   NC332279  37.338  15.417   9.410
 2430POPC   PO432280  37.774  15.000   9.690
 2430POPC   GL132281  37.626  14.989   9.220
 2430POPC   GL232282  37.647  15.316   9.016
 2430POPC   C1A32283  37.434  14.871   8.802
 2430POPC   D2A32284  37.510  15.142   8.419
 2430POPC   C3A32285  37.676  14.949   8.031
 2430POPC   C4A32286  37.448  14.901   7.661
 2430POPC   C1B32287  38.080  15.409   8.840
 2430POPC   C2B32288  38.189  15.551   8.407
 2430POPC   C3B32289  37.933  15.455   8.045
 2430POPC   C4B32290  37.836  15.330   7.644
 2431POPC   NC332291  10.914  14.006   9.408
 2431POPC   PO432292  10.498  13.420   9.210
 2431POPC   GL132293  10.645  13.748   9.026
 2431POPC   GL232294  10.418  13.983   9.156
 2431POPC   C1A32295  10.642  13.758   8.570
 2431POPC   D2A32296  10.537  14.004   8.220
 2431POPC   C3A32297  10.640  13.737   7.893
 2431POPC   C4A32298  10.618  13.320   7.703
 2431POPC   C1B32299  10.161  13.800   8.783
 2431POPC   C2B32300  10.061  13.814   8.320
 2431POPC   C3B32301  10.102  13.829   7.850
 2431POPC   C4B32302  10.398  13.838   7.477
 2432POPC   NC332303  33.261  33.052   9.601
 2432POPC   PO432304  32.644  33.094   9.663
 2432POPC   GL132305  32.890  33.080   9.237
 2432POPC   GL232306  33.217  33.057   9.117
 2432POPC   C1A32307  32.872  33.066   8.777
 2432POPC   D2A32308  33.114  33.213   8.404
 2432POPC   C3A32309  32.979  33.061   8.026
 2432POPC   C4A32310  33.247  33.154   7.713
 2432POPC   C1B32311  33.380  32.975   8.754
 2432POPC   C2B32312  33.458  32.766   8.387
 2432POPC   C3B32313  33.525  32.804   7.971
 2432POPC   C4B32314  33.533  32.770   7.542
 2433POPC   NC332315  34.635  34.918   9.547
 2433POPC   PO432316  34.230  34.337   9.514
 2433POPC   GL132317  34.349  34.619   9.176
 2433POPC   GL232318  34.711  34.675   9.109
 2433POPC   C1A32319  34.317  34.441   8.752
 2433POPC   D2A32320  34.617  34.191   8.497
 2433POPC   C3A32321  34.684  34.255   8.069
 2433POPC   C4A32322  34.801  34.332   7.639
 2433POPC   C1B32323  34.638  34.835   8.709
 2433POPC   C2B32324  34.484  34.668   8.317
 2433POPC   C3B32325  34.619  34.754   7.910
 2433POPC   C4B32326  34.729  35.042   7.608
 2434POPC   NC332327  29.234  36.430   9.519
 2434POPC   PO432328  28.922  37.055   9.377
 2434POPC   GL132329  29.167  36.815   9.042
 2434POPC   GL232330  29.071  36.543   9.048
 2434POPC   C1A32331  29.311  36.875   8.595
 2434POPC   D2A32332  29.003  37.032   8.261
 2434POPC   C3A32333  29.141  37.206   7.874
 2434POPC   C4A32334  29.319  36.864   7.674
 2434POPC   C1B32335  28.881  36.626   8.641
 2434POPC   C2B32336  29.039  36.494   8.249
 2434POPC   C3B32337  29.041  36.450   7.803
 2434POPC   C4B32338  28.956  36.587   7.421
 2435POPC   NC332339  14.629  44.692   9.485
 2435POPC   PO432340  13.979  44.428   9.509
 2435POPC   GL132341  14.236  44.557   9.134
 2435POPC   GL232342  14.575  44.388   9.066
 2435POPC   C1A32343  14.277  44.689   8.692
 2435POPC   D2A32344  14.238  44.520   8.283
 2435POPC   C3A32345  14.423  44.662   7.911
 2435POPC   C4A32346  14.311  44.684   7.478
 2435POPC   C1B32347  14.741  44.785   8.861
 2435POPC   C2B32348  14.729  44.755   8.418
 2435POPC   C3B32349  14.876  44.981   8.069
 2435POPC   C4B32350  14.808  44.874   7.642
 2436POPC   NC332351  36.093  19.327   9.474
 2436POPC   PO432352  35.808  18.697   9.605
 2436POPC   GL132353  36.062  18.918   9.218
 2436POPC   GL232354  36.333  18.786   9.061
 2436POPC   C1A32355  36.026  19.090   8.775
 2436POPC   D2A32356  36.030  19.283   8.365
 2436POPC   C3A32357  35.954  18.990   8.031
 2436POPC   C4A32358  35.955  19.209   7.661
 2436POPC   C1B32359  36.516  18.938   8.722
 2436POPC   C2B32360  36.398  18.920   8.288
 2436POPC   C3B32361  36.432  18.955   7.830
 2436POPC   C4B32362  36.546  18.810   7.410
 2437POPC   NC332363  10.273  44.046   9.432
 2437POPC   PO432364  10.808  43.698   9.772
 2437POPC   GL132365  10.724  43.903   9.280
 2437POPC   GL232366  10.671  44.232   9.137
 2437POPC   C1A32367  10.483  43.842   8.846
 2437POPC   D2A32368  10.364  43.618   8.472
 2437POPC   C3A32369  10.352  43.824   8.101
 2437POPC   C4A32370  10.482  43.739   7.694
 2437POPC   C1B32371  10.305  44.367   8.865
 2437POPC   C2B32372  10.146  44.138   8.507
 2437POPC   C3B32373  10.003  44.215   8.088
 2437POPC   C4B32374  10.259  44.188   7.734
 2438POPC   NC332375  10.967  29.584   9.319
 2438POPC   PO432376  11.360  30.006   9.721
 2438POPC   GL132377  11.410  29.994   9.261
 2438POPC   GL232378  11.095  30.038   9.085
 2438POPC   C1A32379  11.580  30.054   8.829
 2438POPC   D2A32380  11.373  30.086   8.408
 2438POPC   C3A32381  11.550  30.046   7.990
 2438POPC   C4A32382  11.413  29.682   7.683
 2438POPC   C1B32383  10.935  30.184   8.680
 2438POPC   C2B32384  10.889  30.208   8.238
 2438POPC   C3B32385  11.046  29.961   7.941
 2438POPC   C4B32386  10.896  29.824   7.588
 2439POPC   NC332387  18.537  12.416   9.471
 2439POPC   PO432388  18.354  11.781   9.608
 2439POPC   GL132389  18.392  11.968   9.191
 2439POPC   GL232390  18.679  11.854   9.042
 2439POPC   C1A32391  18.246  12.149   8.774
 2439POPC   D2A32392  18.024  12.250   8.365
 2439POPC   C3A32393  18.015  11.963   7.965
 2439POPC   C4A32394  18.177  12.003   7.514
 2439POPC   C1B32395  18.794  12.034   8.671
 2439POPC   C2B32396  18.522  12.056   8.332
 2439POPC   C3B32397  18.537  11.964   7.930
 2439POPC   C4B32398  18.694  12.154   7.597
 2440POPC   NC332399  13.222  27.713   9.460
 2440POPC   PO432400  13.739  27.326   9.513
 2440POPC   GL132401  13.831  27.329   9.115
 2440POPC   GL232402  13.497  27.518   9.090
 2440POPC   C1A32403  13.874  27.555   8.725
 2440POPC   D2A32404  13.895  27.884   8.397
 2440POPC   C3A32405  13.952  27.685   7.984
 2440POPC   C4A32406  13.925  27.569   7.537
 2440POPC   C1B32407  13.439  27.805   8.770
 2440POPC   C2B32408  13.460  27.611   8.377
 2440POPC   C3B32409  13.328  27.359   8.071
 2440POPC   C4B32410  13.483  27.592   7.747
 2441POPC   NC332411  41.071   9.823   9.433
 2441POPC   PO432412  40.456   9.469   9.432
 2441POPC   GL132413  40.675   9.662   9.041
 2441POPC   GL232414  41.053   9.584   9.003
 2441POPC   C1A32415  40.786   9.491   8.606
 2441POPC   D2A32416  41.057   9.535   8.263
 2441POPC   C3A32417  40.788   9.781   7.985
 2441POPC   C4A32418  40.492   9.676   7.657
 2441POPC   C1B32419  41.114  10.007   8.816
 2441POPC   C2B32420  41.214  10.154   8.429
 2441POPC   C3B32421  41.289   9.956   8.050
 2441POPC   C4B32422  41.061  10.073   7.673
 2442POPC   NC332423  39.711   9.027  10.080
 2442POPC   PO432424  40.098   8.730   9.584
 2442POPC   GL132425  39.992   9.016   9.201
 2442POPC   GL232426  40.246   8.923   8.956
 2442POPC   C1A32427  39.901   9.275   8.794
 2442POPC   D2A32428  39.948   9.322   8.326
 2442POPC   C3A32429  39.854   9.035   7.963
 2442POPC   C4A32430  39.996   9.034   7.535
 2442POPC   C1B32431  40.397   9.166   8.615
 2442POPC   C2B32432  40.644   9.139   8.238
 2442POPC   C3B32433  40.389   9.113   7.871
 2442POPC   C4B32434  40.443   9.229   7.411
 2443POPC   NC332435  32.402  44.144   9.532
 2443POPC   PO432436  32.129  43.588   9.766
 2443POPC   GL132437  32.223  43.723   9.283
 2443POPC   GL232438  32.594  43.782   9.230
 2443POPC   C1A32439  32.226  44.018   8.881
 2443POPC   D2A32440  32.120  44.161   8.436
 2443POPC   C3A32441  32.036  43.906   8.047
 2443POPC   C4A32442  32.027  43.904   7.554
 2443POPC   C1B32443  32.548  43.648   8.821
 2443POPC   C2B32444  32.348  43.694   8.458
 2443POPC   C3B32445  32.359  43.455   8.109
 2443POPC   C4B32446  32.165  43.475   7.731
 2444POPC   NC332447  24.058  32.558   9.352
 2444POPC   PO432448  24.470  32.107   9.615
 2444POPC   GL132449  24.406  32.193   9.163
 2444POPC   GL232450  24.593  32.502   9.095
 2444POPC   C1A32451  24.223  32.344   8.736
 2444POPC   D2A32452  24.270  32.178   8.307
 2444POPC   C3A32453  24.423  32.431   7.981
 2444POPC   C4A32454  24.818  32.547   7.803
 2444POPC   C1B32455  24.712  32.216   8.749
 2444POPC   C2B32456  24.745  31.985   8.396
 2444POPC   C3B32457  24.785  32.053   7.999
 2444POPC   C4B32458  24.777  31.791   7.657
 2445POPC   NC332459  17.493  35.561   9.529
 2445POPC   PO432460  17.768  34.911   9.459
 2445POPC   GL132461  17.512  35.187   9.146
 2445POPC   GL232462  17.375  35.528   9.051
 2445POPC   C1A32463  17.383  35.136   8.722
 2445POPC   D2A32464  17.624  35.270   8.351
 2445POPC   C3A32465  17.363  35.200   8.029
 2445POPC   C4A32466  17.386  35.075   7.616
 2445POPC   C1B32467  17.471  35.651   8.658
 2445POPC   C2B32468  17.301  35.689   8.239
 2445POPC   C3B32469  17.530  35.666   7.835
 2445POPC   C4B32470  17.429  35.667   7.384
 2446POPC   NC332471  38.720  13.470   9.450
 2446POPC   PO432472  38.099  13.728   9.532
 2446POPC   GL132473  38.270  13.753   9.137
 2446POPC   GL232474  38.603  13.698   9.013
 2446POPC   C1A32475  38.193  13.572   8.743
 2446POPC   D2A32476  38.313  13.344   8.385
 2446POPC   C3A32477  38.237  13.517   8.018
 2446POPC   C4A32478  38.570  13.705   7.759
 2446POPC   C1B32479  38.649  13.324   8.784
 2446POPC   C2B32480  38.829  13.285   8.401
 2446POPC   C3B32481  38.697  13.269   8.030
 2446POPC   C4B32482  38.875  13.303   7.671
 2447POPC   NC332483  36.556   2.987  10.252
 2447POPC   PO432484  36.878   2.806   9.663
 2447POPC   GL132485  37.058   2.855   9.214
 2447POPC   GL232486  37.218   3.193   9.192
 2447POPC   C1A32487  36.936   2.650   8.780
 2447POPC   D2A32488  36.709   2.419   8.434
 2447POPC   C3A32489  36.807   2.613   8.049
 2447POPC   C4A32490  36.837   2.413   7.635
 2447POPC   C1B32491  37.181   3.100   8.760
 2447POPC   C2B32492  36.985   2.997   8.377
 2447POPC   C3B32493  37.143   3.072   7.971
 2447POPC   C4B32494  37.263   2.932   7.560
 2448POPC   NC332495  15.390  13.033   9.310
 2448POPC   PO432496  15.248  13.645   9.432
 2448POPC   GL132497  15.190  13.423   9.046
 2448POPC   GL232498  14.827  13.396   9.010
 2448POPC   C1A32499  15.133  13.391   8.602
 2448POPC   D2A32500  15.238  13.726   8.369
 2448POPC   C3A32501  15.482  13.732   7.999
 2448POPC   C4A32502  15.305  13.818   7.585
 2448POPC   C1B32503  14.801  13.771   8.742
 2448POPC   C2B32504  14.717  13.666   8.309
 2448POPC   C3B32505  14.881  13.609   7.905
 2448POPC   C4B32506  14.793  13.911   7.605
 2449POPC   NC332507  39.735  26.668   9.558
 2449POPC   PO432508  40.358  26.870   9.726
 2449POPC   GL132509  40.261  26.987   9.284
 2449POPC   GL232510  40.060  26.711   9.157
 2449POPC   C1A32511  40.226  27.032   8.798
 2449POPC   D2A32512  39.890  27.008   8.462
 2449POPC   C3A32513  40.119  27.061   8.093
 2449POPC   C4A32514  40.159  27.014   7.658
 2449POPC   C1B32515  39.865  26.567   8.779
 2449POPC   C2B32516  39.710  26.518   8.358
 2449POPC   C3B32517  39.819  26.669   7.941
 2449POPC   C4B32518  39.755  26.549   7.505
 2450POPC   NC332519  12.631  41.964   9.557
 2450POPC   PO432520  13.168  42.343   9.530
 2450POPC   GL132521  12.908  42.245   9.197
 2450POPC   GL232522  12.739  42.565   9.183
 2450POPC   C1A32523  12.977  42.096   8.779
 2450POPC   D2A32524  13.027  42.294   8.385
 2450POPC   C3A32525  12.883  42.049   8.060
 2450POPC   C4A32526  12.857  42.120   7.635
 2450POPC   C1B32527  12.918  42.607   8.788
 2450POPC   C2B32528  12.637  42.616   8.405
 2450POPC   C3B32529  12.735  42.544   7.975
 2450POPC   C4B32530  12.669  42.680   7.537
 2451POPC   NC332531   3.197  31.806   9.380
 2451POPC   PO432532   3.552  31.417   9.850
 2451POPC   GL132533   3.602  31.412   9.356
 2451POPC   GL232534   3.486  31.123   9.155
 2451POPC   C1A32535   3.615  31.556   8.886
 2451POPC   D2A32536   3.852  31.488   8.507
 2451POPC   C3A32537   3.755  31.622   8.089
 2451POPC   C4A32538   3.548  31.512   7.747
 2451POPC   C1B32539   3.314  31.147   8.723
 2451POPC   C2B32540   3.417  31.263   8.319
 2451POPC   C3B32541   3.175  31.225   7.964
 2451POPC   C4B32542   3.206  31.235   7.511
 2452POPC   NC332543  20.501   2.372   9.381
 2452POPC   PO432544  20.463   3.066   9.555
 2452POPC   GL132545  20.568   2.932   9.164
 2452POPC   GL232546  20.377   2.687   9.003
 2452POPC   C1A32547  20.813   2.910   8.800
 2452POPC   D2A32548  20.887   2.678   8.375
 2452POPC   C3A32549  20.919   2.912   7.958
 2452POPC   C4A32550  20.606   3.005   7.625
 2452POPC   C1B32551  20.348   2.846   8.595
 2452POPC   C2B32552  20.417   2.783   8.144
 2452POPC   C3B32553  20.624   2.531   7.824
 2452POPC   C4B32554  20.445   2.383   7.443
 2453POPC   NC332555  11.530  38.438   9.693
 2453POPC   PO432556  10.985  38.666   9.445
 2453POPC   GL132557  11.277  38.525   9.150
 2453POPC   GL232558  11.462  38.216   9.121
 2453POPC   C1A32559  11.172  38.399   8.720
 2453POPC   D2A32560  11.002  38.374   8.304
 2453POPC   C3A32561  11.277  38.448   8.009
 2453POPC   C4A32562  11.168  38.294   7.652
 2453POPC   C1B32563  11.481  38.006   8.736
 2453POPC   C2B32564  11.338  37.980   8.321
 2453POPC   C3B32565  11.500  38.010   7.909
 2453POPC   C4B32566  11.564  38.050   7.437
 2454POPC   NC332567  20.267  19.227   9.154
 2454POPC   PO432568  20.781  19.084   9.588
 2454POPC   GL132569  20.753  18.954   9.167
 2454POPC   GL232570  20.755  18.616   9.228
 2454POPC   C1A32571  20.685  19.070   8.717
 2454POPC   D2A32572  20.543  19.204   8.292
 2454POPC   C3A32573  20.198  19.061   8.029
 2454POPC   C4A32574  20.510  19.121   7.741
 2454POPC   C1B32575  20.838  18.576   8.788
 2454POPC   C2B32576  20.871  18.782   8.363
 2454POPC   C3B32577  20.941  18.974   7.984
 2454POPC   C4B32578  20.851  18.782   7.609
 2455POPC   NC332579  44.117  37.838   9.492
 2455POPC   PO432580  43.807  37.307   9.453
 2455POPC   GL132581  43.838  37.588   9.144
 2455POPC   GL232582  44.153  37.465   9.067
 2455POPC   C1A32583  43.876  37.744   8.743
 2455POPC   D2A32584  43.591  37.749   8.419
 2455POPC   C3A32585  43.804  37.728   8.069
 2455POPC   C4A32586  43.957  37.631   7.707
 2455POPC   C1B32587  44.199  37.264   8.680
 2455POPC   C2B32588  44.101  37.356   8.257
 2455POPC   C3B32589  44.305  37.290   7.841
 2455POPC   C4B32590  44.235  37.351   7.381
 2456POPC   NC332591  34.664  13.117   9.442
 2456POPC   PO432592  34.079  12.746   9.553
 2456POPC   GL132593  34.438  12.688   9.198
 2456POPC   GL232594  34.764  12.749   9.081
 2456POPC   C1A32595  34.452  12.662   8.713
 2456POPC   D2A32596  34.659  12.588   8.308
 2456POPC   C3A32597  34.417  12.755   7.972
 2456POPC   C4A32598  34.559  13.160   7.795
 2456POPC   C1B32599  35.014  12.925   8.764
 2456POPC   C2B32600  35.155  12.793   8.388
 2456POPC   C3B32601  35.004  12.916   8.002
 2456POPC   C4B32602  34.820  12.689   7.690
 2457POPC   NC332603  43.769  19.513   9.477
 2457POPC   PO432604  44.055  20.196   9.553
 2457POPC   GL132605  44.016  19.874   9.223
 2457POPC   GL232606  43.672  19.961   9.221
 2457POPC   C1A32607  44.138  19.680   8.785
 2457POPC   D2A32608  44.205  19.848   8.363
 2457POPC   C3A32609  44.241  19.658   7.921
 2457POPC   C4A32610  44.188  19.826   7.485
 2457POPC   C1B32611  43.640  19.686   8.863
 2457POPC   C2B32612  43.700  19.689   8.448
 2457POPC   C3B32613  43.774  19.825   8.049
 2457POPC   C4B32614  43.513  19.879   7.720
 2458POPC   NC332615  34.995  40.677   9.411
 2458POPC   PO432616  35.701  40.945   9.430
 2458POPC   GL132617  35.438  40.739   9.168
 2458POPC   GL232618  35.236  41.012   9.019
 2458POPC   C1A32619  35.412  40.527   8.797
 2458POPC   D2A32620  35.356  40.772   8.451
 2458POPC   C3A32621  35.505  40.664   8.074
 2458POPC   C4A32622  35.462  40.774   7.678
 2458POPC   C1B32623  35.619  41.041   8.778
 2458POPC   C2B32624  35.746  41.086   8.337
 2458POPC   C3B32625  35.541  41.192   7.943
 2458POPC   C4B32626  35.420  41.221   7.475
 2459POPC   NC332627   8.839   1.251   9.524
 2459POPC   PO432628   9.368   0.873   9.476
 2459POPC   GL132629   9.043   0.950   9.167
 2459POPC   GL232630   8.677   0.869   9.218
 2459POPC   C1A32631   8.951   1.197   8.803
 2459POPC   D2A32632   9.231   1.349   8.453
 2459POPC   C3A32633   9.171   1.121   8.072
 2459POPC   C4A32634   9.062   1.196   7.666
 2459POPC   C1B32635   8.504   0.905   8.776
 2459POPC   C2B32636   8.633   1.125   8.372
 2459POPC   C3B32637   8.632   1.112   7.900
 2459POPC   C4B32638   8.727   0.843   7.493
 2460POPC   NC332639  12.908   5.980   9.652
 2460POPC   PO432640  12.846   5.327   9.755
 2460POPC   GL132641  12.795   5.581   9.330
 2460POPC   GL232642  13.091   5.815   9.214
 2460POPC   C1A32643  12.753   5.648   8.866
 2460POPC   D2A32644  12.567   5.946   8.575
 2460POPC   C3A32645  12.639   5.990   8.157
 2460POPC   C4A32646  12.651   5.694   7.860
 2460POPC   C1B32647  13.195   5.974   8.807
 2460POPC   C2B32648  13.082   6.100   8.398
 2460POPC   C3B32649  13.129   5.934   7.992
 2460POPC   C4B32650  13.256   6.057   7.609
 2461POPC   NC332651   3.356   3.115   9.487
 2461POPC   PO432652   3.308   3.812   9.558
 2461POPC   GL132653   3.484   3.606   9.196
 2461POPC   GL232654   3.868   3.596   9.166
 2461POPC   C1A32655   3.345   3.446   8.793
 2461POPC   D2A32656   3.551   3.471   8.397
 2461POPC   C3A32657   3.311   3.594   8.042
 2461POPC   C4A32658   3.431   3.425   7.674
 2461POPC   C1B32659   3.755   3.806   8.772
 2461POPC   C2B32660   3.731   3.941   8.338
 2461POPC   C3B32661   3.779   3.742   7.923
 2461POPC   C4B32662   3.778   3.689   7.450
 2462POPC   NC332663  39.035  14.379   9.336
 2462POPC   PO432664  39.655  14.158   9.581
 2462POPC   GL132665  39.498  14.111   9.140
 2462POPC   GL232666  39.194  14.048   8.978
 2462POPC   C1A32667  39.528  14.387   8.746
 2462POPC   D2A32668  39.173  14.621   8.535
 2462POPC   C3A32669  39.108  14.600   8.082
 2462POPC   C4A32670  39.350  14.537   7.693
 2462POPC   C1B32671  39.175  14.093   8.547
 2462POPC   C2B32672  38.844  14.006   8.313
 2462POPC   C3B32673  38.729  14.172   7.947
 2462POPC   C4B32674  38.850  14.372   7.587
 2463POPC   NC332675  19.919  42.610   9.415
 2463POPC   PO432676  19.649  42.035   9.683
 2463POPC   GL132677  19.738  42.184   9.236
 2463POPC   GL232678  20.060  42.167   9.124
 2463POPC   C1A32679  19.668  42.191   8.767
 2463POPC   D2A32680  19.788  42.212   8.310
 2463POPC   C3A32681  19.496  42.290   7.938
 2463POPC   C4A32682  19.573  42.391   7.464
 2463POPC   C1B32683  20.166  42.347   8.682
 2463POPC   C2B32684  20.163  42.551   8.238
 2463POPC   C3B32685  19.979  42.477   7.810
 2463POPC   C4B32686  20.073  42.616   7.382
 2464POPC   NC332687   0.093  33.080   9.624
 2464POPC   PO432688   0.632  32.710   9.601
 2464POPC   GL132689   0.528  32.976   9.226
 2464POPC   GL232690   0.218  33.156   9.112
 2464POPC   C1A32691   0.602  32.975   8.758
 2464POPC   D2A32692   0.358  32.850   8.359
 2464POPC   C3A32693   0.546  32.792   7.942
 2464POPC   C4A32694   0.823  32.974   7.613
 2464POPC   C1B32695   0.136  33.233   8.640
 2464POPC   C2B32696   0.067  33.279   8.161
 2464POPC   C3B32697   0.196  33.369   7.696
 2464POPC   C4B32698   0.087  33.319   7.239
 2465POPC   NC332699  38.678   2.837   9.436
 2465POPC   PO432700  38.078   3.157   9.283
 2465POPC   GL132701  38.320   2.969   9.010
 2465POPC   GL232702  38.355   2.649   9.097
 2465POPC   C1A32703  38.239   2.879   8.586
 2465POPC   D2A32704  38.122   3.003   8.183
 2465POPC   C3A32705  38.381   2.950   7.804
 2465POPC   C4A32706  38.790   2.992   7.615
 2465POPC   C1B32707  38.347   2.421   8.763
 2465POPC   C2B32708  38.483   2.431   8.388
 2465POPC   C3B32709  38.354   2.278   8.023
 2465POPC   C4B32710  38.445   2.391   7.648
 2466POPC   NC332711  10.623  31.185   9.551
 2466POPC   PO432712  10.282  31.723   9.243
 2466POPC   GL132713  10.526  31.481   9.074
 2466POPC   GL232714  10.278  31.268   8.965
 2466POPC   C1A32715  10.699  31.378   8.671
 2466POPC   D2A32716  10.966  31.335   8.310
 2466POPC   C3A32717  10.801  31.560   7.902
 2466POPC   C4A32718  10.333  31.602   7.800
 2466POPC   C1B32719  10.341  30.949   8.706
 2466POPC   C2B32720  10.618  30.956   8.402
 2466POPC   C3B32721  10.559  31.157   8.055
 2466POPC   C4B32722  10.422  31.075   7.686
 2467POPC   NC332723  22.600  23.118   9.772
 2467POPC   PO432724  23.066  22.888   9.382
 2467POPC   GL132725  23.116  23.020   9.046
 2467POPC   GL232726  23.137  23.352   9.136
 2467POPC   C1A32727  22.931  22.931   8.680
 2467POPC   D2A32728  22.989  22.795   8.315
 2467POPC   C3A32729  22.689  22.745   7.982
 2467POPC   C4A32730  23.003  22.781   7.652
 2467POPC   C1B32731  23.151  23.413   8.713
 2467POPC   C2B32732  22.896  23.332   8.369
 2467POPC   C3B32733  22.967  23.193   7.976
 2467POPC   C4B32734  22.943  23.297   7.536
 2468POPC   NC332735   0.746  29.421   9.445
 2468POPC   PO432736   0.536  28.784   9.492
 2468POPC   GL132737   0.539  29.062   9.113
 2468POPC   GL232738   0.246  29.309   9.104
 2468POPC   C1A32739   0.470  29.146   8.670
 2468POPC   D2A32740   0.216  29.297   8.340
 2468POPC   C3A32741   0.476  29.203   7.993
 2468POPC   C4A32742   0.654  29.180   7.592
 2468POPC   C1B32743   0.079  28.920   8.910
 2468POPC   C2B32744   0.090  28.820   8.480
 2468POPC   C3B32745   0.158  28.812   8.054
 2468POPC   C4B32746   0.233  28.893   7.641
 2469POPC   NC332747  28.198  17.618   9.513
 2469POPC   PO432748  28.767  17.893   9.373
 2469POPC   GL132749  28.453  17.697   9.073
 2469POPC   GL232750  28.391  17.333   9.018
 2469POPC   C1A32751  28.193  17.676   8.687
 2469POPC   D2A32752  28.096  17.396   8.339
 2469POPC   C3A32753  28.110  17.616   7.975
 2469POPC   C4A32754  28.444  17.744   7.728
 2469POPC   C1B32755  28.647  17.470   8.648
 2469POPC   C2B32756  28.608  17.511   8.186
 2469POPC   C3B32757  28.520  17.264   7.831
 2469POPC   C4B32758  28.807  16.990   7.561
 2470POPC   NC332759  22.656  21.377   9.359
 2470POPC   PO432760  23.305  21.230   9.419
 2470POPC   GL132761  23.102  21.290   8.998
 2470POPC   GL232762  22.902  21.588   8.951
 2470POPC   C1A32763  22.970  21.138   8.573
 2470POPC   D2A32764  23.189  20.988   8.198
 2470POPC   C3A32765  23.192  21.250   7.823
 2470POPC   C4A32766  22.876  21.289   7.497
 2470POPC   C1B32767  22.587  21.467   8.627
 2470POPC   C2B32768  22.663  21.356   8.180
 2470POPC   C3B32769  22.839  21.632   7.886
 2470POPC   C4B32770  22.683  21.830   7.538
 2471POPC   NC332771   2.737   8.483   9.411
 2471POPC   PO432772   3.050   7.905   9.560
 2471POPC   GL132773   2.848   8.058   9.142
 2471POPC   GL232774   2.522   7.933   9.078
 2471POPC   C1A32775   2.916   8.171   8.698
 2471POPC   D2A32776   2.694   8.299   8.332
 2471POPC   C3A32777   2.847   8.179   7.948
 2471POPC   C4A32778   2.689   8.418   7.624
 2471POPC   C1B32779   2.402   8.096   8.711
 2471POPC   C2B32780   2.273   8.015   8.295
 2471POPC   C3B32781   2.329   8.080   7.836
 2471POPC   C4B32782   2.592   7.919   7.525
 2472POPC   NC332783  13.968  17.883   9.237
 2472POPC   PO432784  14.440  18.319   9.491
 2472POPC   GL132785  14.345  18.368   9.074
 2472POPC   GL232786  14.700  18.471   9.064
 2472POPC   C1A32787  14.390  18.401   8.619
 2472POPC   D2A32788  14.440  18.150   8.255
 2472POPC   C3A32789  14.127  18.157   7.902
 2472POPC   C4A32790  14.131  18.169   7.414
 2472POPC   C1B32791  14.616  18.809   8.800
 2472POPC   C2B32792  14.491  18.849   8.397
 2472POPC   C3B32793  14.675  18.563   8.088
 2472POPC   C4B32794  14.533  18.365   7.706
 2473POPC   NC332795   6.809  10.681   9.477
 2473POPC   PO432796   6.237  10.342   9.671
 2473POPC   GL132797   6.337  10.226   9.222
 2473POPC   GL232798   6.664  10.261   9.146
 2473POPC   C1A32799   6.343  10.172   8.734
 2473POPC   D2A32800   6.454  10.250   8.260
 2473POPC   C3A32801   6.565  10.704   8.125
 2473POPC   C4A32802   6.871  10.804   7.773
 2473POPC   C1B32803   6.985  10.240   8.827
 2473POPC   C2B32804   7.056  10.479   8.450
 2473POPC   C3B32805   6.961  10.367   8.038
 2473POPC   C4B32806   7.169  10.415   7.654
 2474POPC   NC332807  41.669  38.659   9.493
 2474POPC   PO432808  41.257  38.140   9.438
 2474POPC   GL132809  41.548  38.319   9.141
 2474POPC   GL232810  41.455  38.658   9.035
 2474POPC   C1A32811  41.852  38.360   8.778
 2474POPC   D2A32812  41.976  38.317   8.345
 2474POPC   C3A32813  41.857  38.579   8.011
 2474POPC   C4A32814  41.597  38.417   7.714
 2474POPC   C1B32815  41.339  38.373   8.691
 2474POPC   C2B32816  41.440  38.417   8.288
 2474POPC   C3B32817  41.152  38.390   7.969
 2474POPC   C4B32818  41.138  38.157   7.627
 2475POPC   NC332819  27.869  17.008   9.333
 2475POPC   PO432820  27.180  17.025   9.521
 2475POPC   GL132821  27.377  16.788   9.147
 2475POPC   GL232822  27.461  17.077   9.016
 2475POPC   C1A32823  27.747  16.633   8.811
 2475POPC   D2A32824  27.966  16.456   8.439
 2475POPC   C3A32825  27.743  16.498   8.043
 2475POPC   C4A32826  27.851  16.826   7.730
 2475POPC   C1B32827  27.333  16.825   8.619
 2475POPC   C2B32828  27.275  16.638   8.222
 2475POPC   C3B32829  27.358  16.763   7.797
 2475POPC   C4B32830  27.338  16.764   7.321
 2476POPC   NC332831  38.422  21.708   9.403
 2476POPC   PO432832  38.586  22.392   9.482
 2476POPC   GL132833  38.710  22.104   9.204
 2476POPC   GL232834  38.388  22.083   9.055
 2476POPC   C1A32835  38.796  22.087   8.749
 2476POPC   D2A32836  38.661  21.817   8.399
 2476POPC   C3A32837  38.408  22.139   8.149
 2476POPC   C4A32838  38.526  22.468   7.869
 2476POPC   C1B32839  38.220  21.970   8.641
 2476POPC   C2B32840  38.155  21.714   8.271
 2476POPC   C3B32841  38.474  21.695   7.922
 2476POPC   C4B32842  38.449  22.019   7.631
 2477POPC   NC332843  10.061   7.294   9.493
 2477POPC   PO432844   9.552   7.746   9.415
 2477POPC   GL132845   9.673   7.396   9.145
 2477POPC   GL232846  10.000   7.494   8.992
 2477POPC   C1A32847   9.484   7.148   8.767
 2477POPC   D2A32848   9.466   7.012   8.298
 2477POPC   C3A32849   9.886   7.102   8.092
 2477POPC   C4A32850  10.087   7.411   7.775
 2477POPC   C1B32851   9.621   7.678   8.720
 2477POPC   C2B32852   9.419   7.538   8.318
 2477POPC   C3B32853   9.574   7.457   7.887
 2477POPC   C4B32854   9.718   7.463   7.426
 2478POPC   NC332855   4.549  33.219   9.522
 2478POPC   PO432856   4.057  33.609   9.282
 2478POPC   GL132857   4.336  33.364   9.041
 2478POPC   GL232858   4.477  33.023   9.045
 2478POPC   C1A32859   4.459  33.357   8.621
 2478POPC   D2A32860   4.305  33.212   8.232
 2478POPC   C3A32861   4.578  33.220   7.905
 2478POPC   C4A32862   4.586  33.448   7.510
 2478POPC   C1B32863   4.177  32.906   8.689
 2478POPC   C2B32864   4.097  32.736   8.242
 2478POPC   C3B32865   4.178  32.853   7.792
 2478POPC   C4B32866   4.136  32.685   7.337
 2479POPC   NC332867  16.170  16.873   9.518
 2479POPC   PO432868  15.844  16.275   9.589
 2479POPC   GL132869  15.867  16.591   9.216
 2479POPC   GL232870  16.185  16.588   9.102
 2479POPC   C1A32871  15.944  16.951   8.871
 2479POPC   D2A32872  16.107  16.778   8.527
 2479POPC   C3A32873  15.924  16.909   8.191
 2479POPC   C4A32874  16.029  17.047   7.816
 2479POPC   C1B32875  16.419  16.434   8.732
 2479POPC   C2B32876  16.308  16.342   8.312
 2479POPC   C3B32877  16.138  16.439   7.926
 2479POPC   C4B32878  16.302  16.549   7.556
 2480POPC   NC332879  35.788  44.140   9.626
 2480POPC   PO432880  36.366  43.820   9.606
 2480POPC   GL132881  36.099  43.716   9.235
 2480POPC   GL232882  35.968  44.040   9.167
 2480POPC   C1A32883  35.936  43.740   8.780
 2480POPC   D2A32884  35.965  43.990   8.385
 2480POPC   C3A32885  35.854  43.858   7.956
 2480POPC   C4A32886  35.976  43.656   7.596
 2480POPC   C1B32887  36.214  44.206   8.829
 2480POPC   C2B32888  36.432  44.350   8.461
 2480POPC   C3B32889  36.329  44.205   8.078
 2480POPC   C4B32890  36.293  44.148   7.658
 2481POPC   NC332891  31.180  23.259   9.451
 2481POPC   PO432892  30.532  22.993   9.439
 2481POPC   GL132893  30.708  22.856   9.124
 2481POPC   GL232894  30.910  22.572   9.127
 2481POPC   C1A32895  30.556  23.032   8.744
 2481POPC   D2A32896  30.314  23.045   8.367
 2481POPC   C3A32897  30.553  22.991   8.041
 2481POPC   C4A32898  30.771  22.799   7.738
 2481POPC   C1B32899  31.083  22.842   8.799
 2481POPC   C2B32900  30.947  22.914   8.387
 2481POPC   C3B32901  30.988  22.564   8.115
 2481POPC   C4B32902  31.261  22.659   7.745
 2482POPC   NC332903  32.985  38.102   9.311
 2482POPC   PO432904  33.421  37.506   9.471
 2482POPC   GL132905  33.199  37.635   9.107
 2482POPC   GL232906  32.838  37.638   9.119
 2482POPC   C1A32907  33.100  37.815   8.711
 2482POPC   D2A32908  33.169  37.567   8.394
 2482POPC   C3A32909  33.139  37.760   8.033
 2482POPC   C4A32910  33.273  37.732   7.672
 2482POPC   C1B32911  32.865  37.342   8.760
 2482POPC   C2B32912  32.614  37.234   8.374
 2482POPC   C3B32913  32.575  37.221   7.921
 2482POPC   C4B32914  32.762  37.575   7.724
 2483POPC   NC332915  41.054  28.513   9.476
 2483POPC   PO432916  41.602  28.096   9.428
 2483POPC   GL132917  41.650  28.420   9.092
 2483POPC   GL232918  41.311  28.573   9.025
 2483POPC   C1A32919  41.807  28.358   8.656
 2483POPC   D2A32920  42.057  28.222   8.325
 2483POPC   C3A32921  41.905  28.362   7.931
 2483POPC   C4A32922  41.771  28.738   7.695
 2483POPC   C1B32923  41.316  28.248   8.687
 2483POPC   C2B32924  41.472  28.312   8.241
 2483POPC   C3B32925  41.397  28.400   7.790
 2483POPC   C4B32926  41.271  28.105   7.444
 2484POPC   NC332927   2.549  43.170   9.780
 2484POPC   PO432928   1.994  42.967   9.423
 2484POPC   GL132929   1.988  43.167   9.038
 2484POPC   GL232930   2.022  42.856   8.914
 2484POPC   C1A32931   2.079  43.359   8.654
 2484POPC   D2A32932   2.320  43.280   8.250
 2484POPC   C3A32933   2.010  43.323   7.933
 2484POPC   C4A32934   1.609  43.467   7.849
 2484POPC   C1B32935   2.199  42.876   8.569
 2484POPC   C2B32936   1.999  42.710   8.322
 2484POPC   C3B32937   2.007  42.827   7.995
 2484POPC   C4B32938   2.373  42.962   7.809
 2485POPC   NC332939  23.641  31.834   9.548
 2485POPC   PO432940  23.576  32.491   9.381
 2485POPC   GL132941  23.554  32.112   9.106
 2485POPC   GL232942  23.913  32.033   9.168
 2485POPC   C1A32943  23.328  32.083   8.679
 2485POPC   D2A32944  23.321  32.113   8.189
 2485POPC   C3A32945  23.556  32.447   8.035
 2485POPC   C4A32946  23.923  32.529   7.829
 2485POPC   C1B32947  24.001  31.882   8.772
 2485POPC   C2B32948  23.785  32.011   8.388
 2485POPC   C3B32949  23.915  32.037   7.962
 2485POPC   C4B32950  24.305  31.901   7.798
 2486POPC   NC332951   8.590  33.995   9.279
 2486POPC   PO432952   7.969  34.110   9.576
 2486POPC   GL132953   8.106  33.914   9.176
 2486POPC   GL232954   8.197  33.566   9.185
 2486POPC   C1A32955   8.196  34.036   8.745
 2486POPC   D2A32956   7.876  34.112   8.442
 2486POPC   C3A32957   8.005  33.955   8.048
 2486POPC   C4A32958   7.894  33.870   7.643
 2486POPC   C1B32959   8.433  33.557   8.794
 2486POPC   C2B32960   8.330  33.471   8.394
 2486POPC   C3B32961   8.515  33.560   8.030
 2486POPC   C4B32962   8.375  33.767   7.713
 2487POPC   NC332963  36.119  12.393   9.495
 2487POPC   PO432964  36.202  11.755   9.718
 2487POPC   GL132965  36.223  11.891   9.266
 2487POPC   GL232966  36.529  12.096   9.131
 2487POPC   C1A32967  36.102  12.198   8.879
 2487POPC   D2A32968  36.330  12.281   8.512
 2487POPC   C3A32969  36.029  12.408   8.205
 2487POPC   C4A32970  36.019  12.318   7.786
 2487POPC   C1B32971  36.364  11.776   8.803
 2487POPC   C2B32972  36.081  11.858   8.461
 2487POPC   C3B32973  36.249  11.966   8.084
 2487POPC   C4B32974  36.226  11.846   7.690
 2488POPC   NC332975  41.409  22.707   9.476
 2488POPC   PO432976  41.739  23.279   9.481
 2488POPC   GL132977  41.477  23.127   9.135
 2488POPC   GL232978  41.626  22.814   9.043
 2488POPC   C1A32979  41.382  23.105   8.683
 2488POPC   D2A32980  41.171  22.925   8.337
 2488POPC   C3A32981  41.438  23.009   7.992
 2488POPC   C4A32982  41.285  22.859   7.624
 2488POPC   C1B32983  41.824  22.505   8.795
 2488POPC   C2B32984  42.008  22.405   8.424
 2488POPC   C3B32985  41.912  22.605   8.067
 2488POPC   C4B32986  41.770  22.750   7.664
 2489POPC   NC332987  39.295  34.868   9.640
 2489POPC   PO432988  38.844  34.402   9.678
 2489POPC   GL132989  39.103  34.530   9.276
 2489POPC   GL232990  39.464  34.554   9.234
 2489POPC   C1A32991  39.168  34.711   8.831
 2489POPC   D2A32992  39.202  34.548   8.387
 2489POPC   C3A32993  39.098  34.790   7.998
 2489POPC   C4A32994  38.806  34.756   7.613
 2489POPC   C1B32995  39.612  34.446   8.803
 2489POPC   C2B32996  39.680  34.223   8.400
 2489POPC   C3B32997  39.404  34.203   8.046
 2489POPC   C4B32998  39.233  34.424   7.673
 2490POPC   NC332999  24.785   1.287   9.526
 2490POPC   PO433000  24.228   1.427   9.783
 2490POPC   GL133001  24.396   1.180   9.264
 2490POPC   GL233002  24.599   1.476   9.082
 2490POPC   C1A33003  24.541   1.071   8.819
 2490POPC   D2A33004  24.249   0.990   8.464
 2490POPC   C3A33005  24.255   1.190   8.045
 2490POPC   C4A33006  24.374   1.068   7.639
 2490POPC   C1B33007  24.368   1.527   8.662
 2490POPC   C2B33008  24.496   1.598   8.246
 2490POPC   C3B33009  24.518   1.714   7.820
 2490POPC   C4B33010  24.569   1.491   7.431
 2491POPC   NC333011  30.332   8.711   9.619
 2491POPC   PO433012  30.669   9.189   9.810
 2491POPC   GL133013  30.603   9.136   9.316
 2491POPC   GL233014  30.738   8.803   9.249
 2491POPC   C1A33015  30.828   9.325   8.927
 2491POPC   D2A33016  31.144   9.211   8.599
 2491POPC   C3A33017  31.088   9.173   8.149
 2491POPC   C4A33018  31.019   8.878   7.821
 2491POPC   C1B33019  30.621   8.886   8.800
 2491POPC   C2B33020  30.689   8.847   8.347
 2491POPC   C3B33021  30.516   8.981   7.952
 2491POPC   C4B33022  30.384   8.797   7.536
 2492POPC   NC333023  34.491  33.937   9.421
 2492POPC   PO433024  35.149  33.953   9.433
 2492POPC   GL133025  34.876  33.877   9.045
 2492POPC   GL233026  34.557  33.672   8.992
 2492POPC   C1A33027  34.886  33.757   8.600
 2492POPC   D2A33028  34.729  33.634   8.203
 2492POPC   C3A33029  34.966  33.796   7.859
 2492POPC   C4A33030  34.884  33.844   7.406
 2492POPC   C1B33031  34.334  33.779   8.609
 2492POPC   C2B33032  34.287  33.894   8.162
 2492POPC   C3B33033  34.475  33.927   7.746
 2492POPC   C4B33034  34.408  34.136   7.341
 2493POPC   NC333035  11.932  44.590   9.550
 2493POPC   PO433036  12.440   0.029   9.340
 2493POPC   GL133037  12.080  44.821   9.120
 2493POPC   GL233038  12.058  44.441   9.081
 2493POPC   C1A33039  11.994  44.778   8.682
 2493POPC   D2A33040  12.011  44.519   8.312
 2493POPC   C3A33041  11.838  44.783   8.023
 2493POPC   C4A33042  11.813  44.892   7.604
 2493POPC   C1B33043  12.326  44.401   8.712
 2493POPC   C2B33044  12.520  44.646   8.399
 2493POPC   C3B33045  12.502  44.511   7.994
 2493POPC   C4B33046  12.253  44.692   7.726
 2494POPC   NC333047   4.667   6.540   9.472
 2494POPC   PO433048   4.057   6.272   9.542
 2494POPC   GL133049   4.194   6.560   9.202
 2494POPC   GL233050   4.312   6.940   9.185
 2494POPC   C1A33051   4.385   6.557   8.796
 2494POPC   D2A33052   4.181   6.515   8.401
 2494POPC   C3A33053   4.437   6.375   8.074
 2494POPC   C4A33054   4.239   6.480   7.692
 2494POPC   C1B33055   4.493   7.063   8.750
 2494POPC   C2B33056   4.559   6.854   8.370
 2494POPC   C3B33057   4.292   6.865   7.993
 2494POPC   C4B33058   4.423   6.956   7.546
 2495POPC   NC333059  29.555  23.345   9.754
 2495POPC   PO433060  28.968  22.908   9.657
 2495POPC   GL133061  29.224  22.924   9.261
 2495POPC   GL233062  29.101  23.139   9.064
 2495POPC   C1A33063  29.360  22.770   8.790
 2495POPC   D2A33064  29.463  22.595   8.398
 2495POPC   C3A33065  29.375  22.838   8.090
 2495POPC   C4A33066  29.585  22.905   7.778
 2495POPC   C1B33067  29.109  23.195   8.685
 2495POPC   C2B33068  28.962  23.001   8.331
 2495POPC   C3B33069  28.914  22.978   7.905
 2495POPC   C4B33070  28.845  23.419   7.862
 2496POPC   NC333071  38.433  24.249   9.457
 2496POPC   PO433072  38.834  24.820   9.447
 2496POPC   GL133073  38.737  24.537   9.138
 2496POPC   GL233074  38.465  24.725   9.104
 2496POPC   C1A33075  38.465  24.330   8.789
 2496POPC   D2A33076  38.179  24.457   8.458
 2496POPC   C3A33077  38.298  24.279   8.062
 2496POPC   C4A33078  38.407  24.549   7.746
 2496POPC   C1B33079  38.415  24.895   8.691
 2496POPC   C2B33080  38.400  24.876   8.241
 2496POPC   C3B33081  38.557  25.029   7.864
 2496POPC   C4B33082  38.887  24.734   7.803
 2497POPC   NC333083  24.388  31.659   9.642
 2497POPC   PO433084  24.719  31.140   9.675
 2497POPC   GL133085  24.673  31.486   9.261
 2497POPC   GL233086  24.373  31.401   9.083
 2497POPC   C1A33087  24.594  31.724   8.814
 2497POPC   D2A33088  24.328  31.680   8.429
 2497POPC   C3A33089  24.591  31.583   8.085
 2497POPC   C4A33090  24.535  31.344   7.721
 2497POPC   C1B33091  24.254  31.220   8.690
 2497POPC   C2B33092  24.283  31.198   8.257
 2497POPC   C3B33093  24.091  31.444   7.967
 2497POPC   C4B33094  24.060  31.199   7.632
 2498POPC   NC333095  29.882   7.314   9.424
 2498POPC   PO433096  30.387   7.836   9.288
 2498POPC   GL133097  30.104   7.535   9.011
 2498POPC   GL233098  29.721   7.447   8.968
 2498POPC   C1A33099  30.026   7.261   8.631
 2498POPC   D2A33100  29.801   7.147   8.246
 2498POPC   C3A33101  30.062   7.291   7.940
 2498POPC   C4A33102  30.164   7.672   7.744
 2498POPC   C1B33103  29.703   7.690   8.618
 2498POPC   C2B33104  29.844   7.732   8.199
 2498POPC   C3B33105  29.639   7.587   7.866
 2498POPC   C4B33106  29.435   7.615   7.487
 2499POPC   NC333107   3.452  34.818   9.485
 2499POPC   PO433108   3.884  34.408   9.435
 2499POPC   GL133109   3.667  34.421   9.064
 2499POPC   GL233110   3.583  34.743   9.005
 2499POPC   C1A33111   3.601  34.432   8.616
 2499POPC   D2A33112   3.627  34.771   8.312
 2499POPC   C3A33113   3.627  34.552   7.948
 2499POPC   C4A33114   3.442  34.177   7.830
 2499POPC   C1B33115   3.183  34.701   8.769
 2499POPC   C2B33116   3.164  34.531   8.367
 2499POPC   C3B33117   3.164  34.757   8.000
 2499POPC   C4B33118   3.205  34.623   7.616
 2500POPC   NC333119  28.671   7.949   9.558
 2500POPC   PO433120  28.074   8.287   9.428
 2500POPC   GL133121  28.170   8.065   9.086
 2500POPC   GL233122  28.509   7.943   9.095
 2500POPC   C1A33123  28.077   8.132   8.677
 2500POPC   D2A33124  28.381   8.135   8.383
 2500POPC   C3A33125  28.168   8.043   8.057
 2500POPC   C4A33126  28.164   8.164   7.669
 2500POPC   C1B33127  28.764   8.105   8.769
 2500POPC   C2B33128  28.855   7.928   8.362
 2500POPC   C3B33129  28.691   8.038   7.946
 2500POPC   C4B33130  28.558   8.448   7.765
 2501POPC   NC333131  25.553  20.392   9.340
 2501POPC   PO433132  26.017  20.571   9.726
 2501POPC   GL133133  26.054  20.469   9.223
 2501POPC   GL233134  25.881  20.203   9.007
 2501POPC   C1A33135  26.186  20.588   8.794
 2501POPC   D2A33136  26.131  20.911   8.493
 2501POPC   C3A33137  26.224  20.709   8.109
 2501POPC   C4A33138  26.037  20.549   7.755
 2501POPC   C1B33139  25.689  20.555   8.714
 2501POPC   C2B33140  25.536  20.782   8.377
 2501POPC   C3B33141  25.741  20.883   8.025
 2501POPC   C4B33142  25.585  20.792   7.611
 2502POPC   NC333143  16.452   4.453   9.696
 2502POPC   PO433144  17.138   4.270   9.732
 2502POPC   GL133145  16.967   4.463   9.303
 2502POPC   GL233146  16.627   4.340   9.231
 2502POPC   C1A33147  16.889   4.526   8.802
 2502POPC   D2A33148  16.589   4.535   8.380
 2502POPC   C3A33149  16.723   4.483   7.914
 2502POPC   C4A33150  17.009   4.120   7.763
 2502POPC   C1B33151  16.538   4.098   8.863
 2502POPC   C2B33152  16.338   4.055   8.466
 2502POPC   C3B33153  16.476   4.060   8.035
 2502POPC   C4B33154  16.522   4.073   7.583
 2503POPC   NC333155  19.980   9.528   9.448
 2503POPC   PO433156  19.877  10.194   9.406
 2503POPC   GL133157  19.828   9.860   9.056
 2503POPC   GL233158  20.123   9.787   9.019
 2503POPC   C1A33159  19.591   9.837   8.650
 2503POPC   D2A33160  19.594  10.048   8.232
 2503POPC   C3A33161  19.593   9.712   7.912
 2503POPC   C4A33162  19.926   9.420   7.814
 2503POPC   C1B33163  20.062   9.536   8.686
 2503POPC   C2B33164  19.926   9.638   8.313
 2503POPC   C3B33165  20.063   9.875   8.025
 2503POPC   C4B33166  20.229   9.824   7.678
 2504POPC   NC333167  36.649  14.957   9.540
 2504POPC   PO433168  36.050  15.311   9.463
 2504POPC   GL133169  36.089  15.419   9.059
 2504POPC   GL233170  36.330  15.138   9.023
 2504POPC   C1A33171  36.201  15.436   8.630
 2504POPC   D2A33172  36.366  15.155   8.324
 2504POPC   C3A33173  36.176  15.261   7.949
 2504POPC   C4A33174  35.739  15.273   7.811
 2504POPC   C1B33175  36.051  14.935   8.700
 2504POPC   C2B33176  35.801  15.000   8.326
 2504POPC   C3B33177  35.903  14.808   7.943
 2504POPC   C4B33178  36.136  14.905   7.573
 2505POPC   NC333179   7.790  42.230   9.686
 2505POPC   PO433180   7.353  42.483   9.470
 2505POPC   GL133181   7.314  42.511   9.028
 2505POPC   GL233182   7.609  42.701   8.990
 2505POPC   C1A33183   7.515  42.343   8.610
 2505POPC   D2A33184   7.553  41.969   8.310
 2505POPC   C3A33185   7.378  42.060   7.930
 2505POPC   C4A33186   7.408  42.384   7.660
 2505POPC   C1B33187   7.939  42.797   8.679
 2505POPC   C2B33188   7.918  42.937   8.246
 2505POPC   C3B33189   7.732  42.685   7.893
 2505POPC   C4B33190   7.896  42.419   7.500
 2506POPC   NC333191  26.656   4.380   9.642
 2506POPC   PO433192  26.967   3.911   9.226
 2506POPC   GL133193  26.915   4.333   9.139
 2506POPC   GL233194  26.611   4.328   9.139
 2506POPC   C1A33195  26.946   4.373   8.707
 2506POPC   D2A33196  26.921   4.040   8.359
 2506POPC   C3A33197  26.806   4.247   7.971
 2506POPC   C4A33198  27.040   4.467   7.636
 2506POPC   C1B33199  26.464   4.499   8.764
 2506POPC   C2B33200  26.604   4.569   8.342
 2506POPC   C3B33201  26.440   4.597   7.925
 2506POPC   C4B33202  26.533   4.360   7.535
 2507POPC   NC333203   2.747   6.147   9.437
 2507POPC   PO433204   2.914   5.601   9.714
 2507POPC   GL133205   2.811   5.736   9.195
 2507POPC   GL233206   3.065   5.961   9.045
 2507POPC   C1A33207   2.620   5.775   8.772
 2507POPC   D2A33208   2.495   5.633   8.334
 2507POPC   C3A33209   2.867   5.605   8.058
 2507POPC   C4A33210   2.851   5.848   7.691
 2507POPC   C1B33211   2.902   6.203   8.676
 2507POPC   C2B33212   2.892   6.096   8.210
 2507POPC   C3B33213   2.855   6.320   7.818
 2507POPC   C4B33214   2.794   6.268   7.350
 2508POPC   NC333215  37.127   2.407   9.671
 2508POPC   PO433216  37.604   1.937   9.600
 2508POPC   GL133217  37.724   2.063   9.165
 2508POPC   GL233218  38.018   2.263   9.154
 2508POPC   C1A33219  37.590   1.983   8.710
 2508POPC   D2A33220  37.356   1.662   8.465
 2508POPC   C3A33221  37.300   1.680   7.997
 2508POPC   C4A33222  37.626   1.752   7.699
 2508POPC   C1B33223  38.082   2.000   8.821
 2508POPC   C2B33224  38.139   2.027   8.439
 2508POPC   C3B33225  37.880   1.980   8.118
 2508POPC   C4B33226  37.953   2.141   7.733
 2509POPC   NC333227  31.530  25.659   9.673
 2509POPC   PO433228  31.012  25.401   9.490
 2509POPC   GL133229  31.358  25.571   9.198
 2509POPC   GL233230  31.157  25.703   8.930
 2509POPC   C1A33231  31.678  25.454   8.850
 2509POPC   D2A33232  31.592  25.254   8.427
 2509POPC   C3A33233  31.522  25.448   8.015
 2509POPC   C4A33234  31.675  25.201   7.648
 2509POPC   C1B33235  31.215  25.256   8.823
 2509POPC   C2B33236  31.125  25.022   8.496
 2509POPC   C3B33237  31.085  25.163   8.103
 2509POPC   C4B33238  31.172  25.249   7.696
 2510POPC   NC333239  13.052  25.277   9.552
 2510POPC   PO433240  12.455  25.548   9.367
 2510POPC   GL133241  12.837  25.453   9.158
 2510POPC   GL233242  12.914  25.099   9.079
 2510POPC   C1A33243  13.010  25.546   8.805
 2510POPC   D2A33244  12.815  25.230   8.570
 2510POPC   C3A33245  12.761  25.297   8.152
 2510POPC   C4A33246  12.646  25.269   7.735
 2510POPC   C1B33247  12.970  24.780   8.758
 2510POPC   C2B33248  13.098  24.879   8.308
 2510POPC   C3B33249  13.045  24.964   7.873
 2510POPC   C4B33250  12.990  25.051   7.411
 2511POPC   NC333251  25.973  22.004   9.652
 2511POPC   PO433252  26.249  22.597   9.552
 2511POPC   GL133253  26.066  22.317   9.176
 2511POPC   GL233254  26.066  21.940   9.149
 2511POPC   C1A33255  26.315  22.165   8.775
 2511POPC   D2A33256  26.204  22.307   8.376
 2511POPC   C3A33257  26.175  22.175   7.981
 2511POPC   C4A33258  26.162  22.027   7.609
 2511POPC   C1B33259  25.858  21.963   8.725
 2511POPC   C2B33260  25.904  21.868   8.273
 2511POPC   C3B33261  25.697  22.015   7.874
 2511POPC   C4B33262  25.715  21.919   7.388
 2512POPC   NC333263  21.199  10.165   9.315
 2512POPC   PO433264  21.238   9.571   9.661
 2512POPC   GL133265  21.300   9.645   9.238
 2512POPC   GL233266  20.995   9.754   9.097
 2512POPC   C1A33267  21.421   9.629   8.812
 2512POPC   D2A33268  21.734   9.813   8.565
 2512POPC   C3A33269  21.649   9.741   8.150
 2512POPC   C4A33270  21.676   9.566   7.753
 2512POPC   C1B33271  20.977   9.882   8.656
 2512POPC   C2B33272  21.103   9.905   8.209
 2512POPC   C3B33273  21.185   9.654   7.800
 2512POPC   C4B33274  21.039   9.728   7.333
 2513POPC   NC333275   4.285   1.584   9.536
 2513POPC   PO433276   4.604   0.970   9.558
 2513POPC   GL133277   4.430   1.140   9.170
 2513POPC   GL233278   4.167   1.332   9.122
 2513POPC   C1A33279   4.456   1.167   8.698
 2513POPC   D2A33280   4.692   1.242   8.297
 2513POPC   C3A33281   4.529   1.184   7.884
 2513POPC   C4A33282   4.671   0.819   7.734
 2513POPC   C1B33283   3.969   1.383   8.760
 2513POPC   C2B33284   4.114   1.492   8.366
 2513POPC   C3B33285   4.024   1.351   7.978
 2513POPC   C4B33286   4.086   1.112   7.584
 2514POPC   NC333287  38.761  20.780   9.250
 2514POPC   PO433288  39.366  20.728   9.511
 2514POPC   GL133289  39.227  20.577   9.130
 2514POPC   GL233290  39.404  20.841   8.992
 2514POPC   C1A33291  39.218  20.391   8.721
 2514POPC   D2A33292  39.481  20.321   8.383
 2514POPC   C3A33293  39.445  20.581   8.042
 2514POPC   C4A33294  39.219  20.440   7.717
 2514POPC   C1B33295  39.051  20.869   8.691
 2514POPC   C2B33296  39.004  20.668   8.283
 2514POPC   C3B33297  38.891  20.802   7.857
 2514POPC   C4B33298  38.883  20.761   7.390
 2515POPC   NC333299  40.335  25.660   9.426
 2515POPC   PO433300  40.012  26.283   9.453
 2515POPC   GL133301  40.096  26.178   9.037
 2515POPC   GL233302  39.974  25.844   9.084
 2515POPC   C1A33303  40.064  26.114   8.576
 2515POPC   D2A33304  39.807  25.924   8.243
 2515POPC   C3A33305  39.859  26.162   7.880
 2515POPC   C4A33306  40.258  26.288   7.746
 2515POPC   C1B33307  40.282  25.697   8.796
 2515POPC   C2B33308  40.243  25.629   8.392
 2515POPC   C3B33309  40.292  25.871   8.034
 2515POPC   C4B33310  40.173  25.789   7.631
 2516POPC   NC333311  16.236  26.221   9.426
 2516POPC   PO433312  15.855  25.646   9.476
 2516POPC   GL133313  15.747  25.889   9.116
 2516POPC   GL233314  15.890  26.204   9.067
 2516POPC   C1A33315  15.673  25.994   8.685
 2516POPC   D2A33316  15.843  25.987   8.299
 2516POPC   C3A33317  15.597  25.694   8.080
 2516POPC   C4A33318  15.479  25.754   7.643
 2516POPC   C1B33319  16.203  25.977   8.809
 2516POPC   C2B33320  16.357  26.036   8.396
 2516POPC   C3B33321  16.232  26.086   7.956
 2516POPC   C4B33322  15.810  26.117   7.799
 2517POPC   NC333323  27.541  26.034   9.546
 2517POPC   PO433324  27.163  26.437   9.203
 2517POPC   GL133325  27.521  26.190   9.037
 2517POPC   GL233326  27.865  26.143   9.171
 2517POPC   C1A33327  27.652  25.900   8.761
 2517POPC   D2A33328  27.513  25.702   8.388
 2517POPC   C3A33329  27.417  26.033   8.144
 2517POPC   C4A33330  27.626  26.047   7.759
 2517POPC   C1B33331  27.952  26.358   8.779
 2517POPC   C2B33332  27.801  26.288   8.389
 2517POPC   C3B33333  27.990  26.278   8.006
 2517POPC   C4B33334  28.099  26.581   7.704
 2518POPC   NC333335  22.999  39.376   9.795
 2518POPC   PO433336  22.416  39.415   9.682
 2518POPC   GL133337  22.743  39.367   9.326
 2518POPC   GL233338  22.715  39.025   9.241
 2518POPC   C1A33339  22.975  39.371   8.908
 2518POPC   D2A33340  22.986  39.225   8.441
 2518POPC   C3A33341  22.775  39.330   8.022
 2518POPC   C4A33342  22.994  39.457   7.626
 2518POPC   C1B33343  22.657  38.965   8.805
 2518POPC   C2B33344  22.600  38.894   8.358
 2518POPC   C3B33345  22.794  38.832   7.936
 2518POPC   C4B33346  22.875  38.989   7.525
 2519POPC   NC333347  21.667  38.029   9.549
 2519POPC   PO433348  21.202  38.469   9.552
 2519POPC   GL133349  21.345  38.315   9.156
 2519POPC   GL233350  21.110  38.076   9.079
 2519POPC   C1A33351  21.470  38.485   8.750
 2519POPC   D2A33352  21.589  38.825   8.456
 2519POPC   C3A33353  21.508  38.671   8.036
 2519POPC   C4A33354  21.182  38.731   7.742
 2519POPC   C1B33355  21.331  37.992   8.688
 2519POPC   C2B33356  21.444  38.133   8.280
 2519POPC   C3B33357  21.180  38.247   7.956
 2519POPC   C4B33358  21.001  38.083   7.575
 2520POPC   NC333359  25.615  24.275   9.528
 2520POPC   PO433360  25.783  24.992   9.485
 2520POPC   GL133361  26.082  24.809   9.221
 2520POPC   GL233362  25.818  24.579   9.125
 2520POPC   C1A33363  26.222  24.803   8.817
 2520POPC   D2A33364  26.086  24.516   8.525
 2520POPC   C3A33365  26.163  24.654   8.113
 2520POPC   C4A33366  25.938  24.557   7.746
 2520POPC   C1B33367  25.647  24.279   8.838
 2520POPC   C2B33368  25.835  24.073   8.481
 2520POPC   C3B33369  25.983  24.117   8.060
 2520POPC   C4B33370  25.738  24.077   7.689
 2521POPC   NC333371  41.966   6.885   9.466
 2521POPC   PO433372  42.504   6.413   9.498
 2521POPC   GL133373  42.365   6.616   9.173
 2521POPC   GL233374  42.022   6.474   9.172
 2521POPC   C1A33375  42.503   6.516   8.750
 2521POPC   D2A33376  42.620   6.722   8.352
 2521POPC   C3A33377  42.614   6.524   7.954
 2521POPC   C4A33378  42.515   6.492   7.492
 2521POPC   C1B33379  42.042   6.710   8.795
 2521POPC   C2B33380  42.072   6.479   8.407
 2521POPC   C3B33381  42.119   6.522   7.967
 2521POPC   C4B33382  42.100   6.236   7.629
 2522POPC   NC333383  15.400  17.338   9.237
 2522POPC   PO433384  15.005  17.700   9.681
 2522POPC   GL133385  14.968  17.626   9.247
 2522POPC   GL233386  14.679  17.448   9.132
 2522POPC   C1A33387  15.052  17.717   8.804
 2522POPC   D2A33388  15.310  17.667   8.452
 2522POPC   C3A33389  15.182  17.474   8.076
 2522POPC   C4A33390  15.221  17.735   7.737
 2522POPC   C1B33391  14.722  17.317   8.727
 2522POPC   C2B33392  14.997  17.129   8.429
 2522POPC   C3B33393  14.939  16.990   8.003
 2522POPC   C4B33394  15.038  17.221   7.626
 2523POPC   NC333395  41.245  10.808   9.409
 2523POPC   PO433396  41.721  11.347   9.439
 2523POPC   GL133397  41.554  11.135   9.120
 2523POPC   GL233398  41.283  11.384   9.156
 2523POPC   C1A33399  41.307  11.087   8.751
 2523POPC   D2A33400  41.329  11.331   8.406
 2523POPC   C3A33401  41.615  11.100   8.197
 2523POPC   C4A33402  41.630  11.046   7.794
 2523POPC   C1B33403  41.522  11.622   8.823
 2523POPC   C2B33404  41.743  11.704   8.408
 2523POPC   C3B33405  41.721  11.559   7.964
 2523POPC   C4B33406  41.329  11.562   7.752
 2524POPC   NC333407  30.343   5.114   9.583
 2524POPC   PO433408  29.774   4.889   9.522
 2524POPC   GL133409  29.956   5.092   9.162
 2524POPC   GL233410  30.174   5.350   9.162
 2524POPC   C1A33411  29.768   5.111   8.757
 2524POPC   D2A33412  29.687   4.829   8.399
 2524POPC   C3A33413  29.615   5.037   7.999
 2524POPC   C4A33414  29.781   4.998   7.580
 2524POPC   C1B33415  30.301   5.204   8.757
 2524POPC   C2B33416  30.100   5.130   8.363
 2524POPC   C3B33417  30.007   5.375   7.974
 2524POPC   C4B33418  30.206   5.328   7.569
 2525POPC   NC333419  33.064  34.824   9.453
 2525POPC   PO433420  33.252  34.129   9.545
 2525POPC   GL133421  33.051  34.383   9.223
 2525POPC   GL233422  33.346  34.394   9.071
 2525POPC   C1A33423  32.883  34.596   8.858
 2525POPC   D2A33424  32.874  34.575   8.414
 2525POPC   C3A33425  32.973  34.887   8.073
 2525POPC   C4A33426  32.771  35.032   7.698
 2525POPC   C1B33427  33.346  34.463   8.639
 2525POPC   C2B33428  33.362  34.573   8.223
 2525POPC   C3B33429  33.196  34.457   7.826
 2525POPC   C4B33430  33.403  34.372   7.449
 2526POPC   NC333431  37.783  38.864   9.528
 2526POPC   PO433432  37.423  39.412   9.562
 2526POPC   GL133433  37.644  39.261   9.198
 2526POPC   GL233434  37.452  38.956   9.158
 2526POPC   C1A33435  37.630  39.191   8.735
 2526POPC   D2A33436  37.538  39.462   8.371
 2526POPC   C3A33437  37.841  39.360   8.073
 2526POPC   C4A33438  38.083  39.349   7.715
 2526POPC   C1B33439  37.211  38.885   8.817
 2526POPC   C2B33440  37.236  39.048   8.395
 2526POPC   C3B33441  37.414  39.100   7.971
 2526POPC   C4B33442  37.341  39.055   7.523
 2527POPC   NC333443  36.875  34.964  10.100
 2527POPC   PO433444  36.723  34.607   9.636
 2527POPC   GL133445  36.978  34.478   9.299
 2527POPC   GL233446  36.957  34.794   9.166
 2527POPC   C1A33447  37.088  34.331   8.857
 2527POPC   D2A33448  36.874  34.381   8.429
 2527POPC   C3A33449  37.070  34.269   8.042
 2527POPC   C4A33450  36.940  34.374   7.628
 2527POPC   C1B33451  36.833  34.771   8.771
 2527POPC   C2B33452  36.974  34.880   8.382
 2527POPC   C3B33453  36.882  34.760   7.981
 2527POPC   C4B33454  36.883  34.881   7.553
 2528POPC   NC333455  18.823  11.661   9.490
 2528POPC   PO433456  19.086  12.304   9.417
 2528POPC   GL133457  19.139  12.100   9.052
 2528POPC   GL233458  19.171  11.737   9.076
 2528POPC   C1A33459  19.311  12.192   8.690
 2528POPC   D2A33460  19.278  12.018   8.329
 2528POPC   C3A33461  18.991  12.118   8.084
 2528POPC   C4A33462  19.186  12.200   7.742
 2528POPC   C1B33463  19.202  11.664   8.689
 2528POPC   C2B33464  18.922  11.643   8.363
 2528POPC   C3B33465  19.156  11.590   8.007
 2528POPC   C4B33466  18.903  11.697   7.695
 2529POPC   NC333467   7.628   5.333   9.410
 2529POPC   PO433468   7.375   4.686   9.536
 2529POPC   GL133469   7.634   4.801   9.205
 2529POPC   GL233470   7.368   5.001   9.066
 2529POPC   C1A33471   7.817   4.843   8.799
 2529POPC   D2A33472   7.899   5.049   8.423
 2529POPC   C3A33473   7.707   4.930   8.061
 2529POPC   C4A33474   7.531   5.136   7.709
 2529POPC   C1B33475   7.476   5.286   8.740
 2529POPC   C2B33476   7.435   5.293   8.319
 2529POPC   C3B33477   7.142   5.115   8.058
 2529POPC   C4B33478   7.012   5.226   7.668
 2530POPC   NC333479  18.352   1.519   9.488
 2530POPC   PO433480  18.356   0.875   9.232
 2530POPC   GL133481  18.128   1.290   9.064
 2530POPC   GL233482  18.266   1.636   9.012
 2530POPC   C1A33483  18.002   1.399   8.616
 2530POPC   D2A33484  18.241   1.038   8.458
 2530POPC   C3A33485  18.327   1.005   8.035
 2530POPC   C4A33486  18.131   1.273   7.725
 2530POPC   C1B33487  18.479   1.528   8.651
 2530POPC   C2B33488  18.610   1.388   8.243
 2530POPC   C3B33489  18.645   1.339   7.791
 2530POPC   C4B33490  18.552   1.193   7.371
 2531POPC   NC333491  10.260  33.862   9.375
 2531POPC   PO433492  10.811  34.012   9.703
 2531POPC   GL133493  10.725  33.740   9.203
 2531POPC   GL233494  10.762  33.399   9.109
 2531POPC   C1A33495  10.893  33.741   8.733
 2531POPC   D2A33496  10.765  33.942   8.325
 2531POPC   C3A33497  10.580  33.771   7.946
 2531POPC   C4A33498  10.264  33.972   7.753
 2531POPC   C1B33499  10.452  33.503   8.739
 2531POPC   C2B33500  10.398  33.457   8.296
 2531POPC   C3B33501  10.122  33.519   7.927
 2531POPC   C4B33502  10.174  33.552   7.488
 2532POPC   NC333503  30.270  26.244   9.398
 2532POPC   PO433504  29.682  26.087   9.545
 2532POPC   GL133505  29.796  26.010   9.138
 2532POPC   GL233506  29.549  25.737   9.054
 2532POPC   C1A33507  29.944  26.268   8.794
 2532POPC   D2A33508  29.964  26.160   8.368
 2532POPC   C3A33509  30.122  26.459   8.078
 2532POPC   C4A33510  30.099  26.262   7.690
 2532POPC   C1B33511  29.779  25.776   8.682
 2532POPC   C2B33512  29.803  25.598   8.314
 2532POPC   C3B33513  29.864  25.830   7.975
 2532POPC   C4B33514  29.911  25.742   7.583
 2533POPC   NC333515   4.723  39.855   9.615
 2533POPC   PO433516   5.296  39.626   9.341
 2533POPC   GL133517   5.035  39.946   9.221
 2533POPC   GL233518   5.263  40.154   9.150
 2533POPC   C1A33519   4.885  39.979   8.818
 2533POPC   D2A33520   5.064  40.068   8.404
 2533POPC   C3A33521   4.977  39.792   8.086
 2533POPC   C4A33522   4.856  40.002   7.725
 2533POPC   C1B33523   5.414  39.942   8.759
 2533POPC   C2B33524   5.562  39.958   8.323
 2533POPC   C3B33525   5.372  40.060   7.909
 2533POPC   C4B33526   5.297  39.998   7.460
 2534POPC   NC333527  28.014  40.193   9.471
 2534POPC   PO433528  27.493  39.764   9.351
 2534POPC   GL133529  27.413  40.021   9.051
 2534POPC   GL233530  27.585  40.303   9.186
 2534POPC   C1A33531  27.352  39.990   8.622
 2534POPC   D2A33532  27.566  40.151   8.305
 2534POPC   C3A33533  27.423  40.060   7.920
 2534POPC   C4A33534  27.637  39.745   7.731
 2534POPC   C1B33535  27.761  40.348   8.765
 2534POPC   C2B33536  28.022  40.381   8.387
 2534POPC   C3B33537  27.864  40.433   7.961
 2534POPC   C4B33538  27.780  40.245   7.560
 2535POPC   NC333539  22.104  27.860   9.491
 2535POPC   PO433540  21.871  27.210   9.440
 2535POPC   GL133541  22.048  27.481   9.135
 2535POPC   GL233542  22.384  27.480   9.214
 2535POPC   C1A33543  21.958  27.801   8.810
 2535POPC   D2A33544  22.181  27.780   8.405
 2535POPC   C3A33545  21.986  27.707   8.025
 2535POPC   C4A33546  22.051  27.588   7.627
 2535POPC   C1B33547  22.451  27.576   8.790
 2535POPC   C2B33548  22.675  27.571   8.404
 2535POPC   C3B33549  22.480  27.553   8.001
 2535POPC   C4B33550  22.524  27.791   7.632
 2536POPC   NC333551  13.206   9.579   9.412
 2536POPC   PO433552  13.855   9.428   9.477
 2536POPC   GL133553  13.628   9.653   9.123
 2536POPC   GL233554  13.463  10.002   9.166
 2536POPC   C1A33555  13.557   9.492   8.699
 2536POPC   D2A33556  13.816   9.507   8.318
 2536POPC   C3A33557  13.691   9.530   7.895
 2536POPC   C4A33558  13.851   9.876   7.627
 2536POPC   C1B33559  13.235   9.887   8.779
 2536POPC   C2B33560  13.258   9.795   8.320
 2536POPC   C3B33561  13.460   9.984   7.933
 2536POPC   C4B33562  13.400  10.002   7.430
 2537POPC   NC333563  38.510  12.498   9.339
 2537POPC   PO433564  38.800  13.016   9.481
 2537POPC   GL133565  38.571  12.975   9.134
 2537POPC   GL233566  38.305  13.240   9.170
 2537POPC   C1A33567  38.682  12.793   8.728
 2537POPC   D2A33568  38.576  12.856   8.313
 2537POPC   C3A33569  38.842  12.766   7.986
 2537POPC   C4A33570  38.610  12.468   7.802
 2537POPC   C1B33571  38.206  13.036   8.775
 2537POPC   C2B33572  38.075  12.902   8.368
 2537POPC   C3B33573  38.094  13.036   7.946
 2537POPC   C4B33574  38.379  13.187   7.642
 2538POPC   NC333575  42.293   0.851   9.961
 2538POPC   PO433576  42.360   0.326   9.615
 2538POPC   GL133577  42.327   0.448   9.148
 2538POPC   GL233578  42.607   0.362   8.949
 2538POPC   C1A33579  42.122   0.485   8.715
 2538POPC   D2A33580  42.184   0.333   8.252
 2538POPC   C3A33581  42.060   0.401   7.797
 2538POPC   C4A33582  41.954   0.393   7.322
 2538POPC   C1B33583  42.595   0.406   8.537
 2538POPC   C2B33584  42.799   0.340   8.199
 2538POPC   C3B33585  42.550   0.202   7.863
 2538POPC   C4B33586  42.497   0.012   7.459
 2539POPC   NC333587  16.423  35.693   9.505
 2539POPC   PO433588  15.767  35.956   9.565
 2539POPC   GL133589  15.860  36.017   9.148
 2539POPC   GL233590  16.202  35.974   9.113
 2539POPC   C1A33591  15.732  36.016   8.719
 2539POPC   D2A33592  15.700  35.828   8.319
 2539POPC   C3A33593  15.934  36.075   8.040
 2539POPC   C4A33594  15.840  36.429   7.753
 2539POPC   C1B33595  16.222  36.202   8.703
 2539POPC   C2B33596  16.366  36.296   8.259
 2539POPC   C3B33597  16.333  36.284   7.797
 2539POPC   C4B33598  16.222  36.370   7.374
 2540POPC   NC333599  19.492  23.741   9.347
 2540POPC   PO433600  18.777  23.951   9.512
 2540POPC   GL133601  18.912  23.772   9.141
 2540POPC   GL233602  19.056  23.491   9.228
 2540POPC   C1A33603  18.795  23.736   8.725
 2540POPC   D2A33604  18.958  23.833   8.320
 2540POPC   C3A33605  18.923  23.451   8.085
 2540POPC   C4A33606  18.666  23.457   7.753
 2540POPC   C1B33607  19.229  23.483   8.800
 2540POPC   C2B33608  19.353  23.490   8.379
 2540POPC   C3B33609  19.384  23.620   7.968
 2540POPC   C4B33610  19.224  23.386   7.645
 2541POPC   NC333611   9.353  16.835   9.283
 2541POPC   PO433612   9.907  17.088   9.161
 2541POPC   GL133613   9.774  16.698   8.984
 2541POPC   GL233614  10.050  16.587   8.797
 2541POPC   C1A33615   9.532  16.625   8.623
 2541POPC   D2A33616   9.413  16.837   8.255
 2541POPC   C3A33617   9.435  16.678   7.880
 2541POPC   C4A33618   9.548  16.785   7.487
 2541POPC   C1B33619   9.940  16.909   8.480
 2541POPC   C2B33620   9.887  16.942   8.033
 2541POPC   C3B33621   9.951  16.597   7.767
 2541POPC   C4B33622  10.233  16.538   7.439
 2542POPC   NC333623  26.286  43.287   9.543
 2542POPC   PO433624  26.694  42.779   9.669
 2542POPC   GL133625  26.637  42.948   9.207
 2542POPC   GL233626  26.651  43.311   9.149
 2542POPC   C1A33627  26.823  42.995   8.767
 2542POPC   D2A33628  26.953  42.813   8.370
 2542POPC   C3A33629  27.026  43.058   7.990
 2542POPC   C4A33630  27.166  42.915   7.564
 2542POPC   C1B33631  26.820  43.504   8.765
 2542POPC   C2B33632  26.746  43.344   8.362
 2542POPC   C3B33633  26.525  43.416   8.043
 2542POPC   C4B33634  26.747  43.318   7.640
 2543POPC   NC333635  11.272   3.007   9.508
 2543POPC   PO433636  11.567   2.455   9.625
 2543POPC   GL133637  11.472   2.646   9.207
 2543POPC   GL233638  11.525   3.010   9.088
 2543POPC   C1A33639  11.490   2.536   8.763
 2543POPC   D2A33640  11.621   2.599   8.317
 2543POPC   C3A33641  11.347   2.474   7.945
 2543POPC   C4A33642  11.372   2.716   7.539
 2543POPC   C1B33643  11.334   3.224   8.759
 2543POPC   C2B33644  11.489   3.127   8.369
 2543POPC   C3B33645  11.317   2.980   8.008
 2543POPC   C4B33646  11.163   3.190   7.662
 2544POPC   NC333647  30.934  35.389   9.381
 2544POPC   PO433648  30.372  35.748   9.479
 2544POPC   GL133649  30.422  35.491   9.099
 2544POPC   GL233650  30.689  35.716   9.005
 2544POPC   C1A33651  30.683  35.248   8.784
 2544POPC   D2A33652  30.954  35.173   8.430
 2544POPC   C3A33653  30.738  35.056   8.056
 2544POPC   C4A33654  30.490  35.274   7.749
 2544POPC   C1B33655  31.063  35.614   8.745
 2544POPC   C2B33656  31.192  35.663   8.312
 2544POPC   C3B33657  30.925  35.513   7.972
 2544POPC   C4B33658  30.946  35.454   7.527
 2545POPC   NC333659  14.966  41.301   9.184
 2545POPC   PO433660  15.174  40.890   9.666
 2545POPC   GL133661  15.124  40.800   9.215
 2545POPC   GL233662  15.389  40.930   8.965
 2545POPC   C1A33663  15.114  40.513   8.865
 2545POPC   D2A33664  15.279  40.483   8.422
 2545POPC   C3A33665  15.158  40.788   8.094
 2545POPC   C4A33666  15.212  40.894   7.657
 2545POPC   C1B33667  15.083  40.958   8.626
 2545POPC   C2B33668  14.812  41.104   8.341
 2545POPC   C3B33669  14.832  41.234   7.926
 2545POPC   C4B33670  14.740  41.092   7.512
 2546POPC   NC333671  34.202   1.674   9.552
 2546POPC   PO433672  34.252   1.022   9.365
 2546POPC   GL133673  34.434   1.230   9.044
 2546POPC   GL233674  34.781   1.347   9.096
 2546POPC   C1A33675  34.667   1.059   8.683
 2546POPC   D2A33676  34.540   0.847   8.306
 2546POPC   C3A33677  34.593   1.011   7.876
 2546POPC   C4A33678  34.298   1.210   7.562
 2546POPC   C1B33679  34.584   1.558   8.706
 2546POPC   C2B33680  34.464   1.382   8.327
 2546POPC   C3B33681  34.504   1.502   7.939
 2546POPC   C4B33682  34.758   1.429   7.596
 2547POPC   NC333683  32.815  19.931   9.514
 2547POPC   PO433684  33.295  19.508   9.422
 2547POPC   GL133685  33.106  19.813   9.098
 2547POPC   GL233686  32.810  20.096   9.047
 2547POPC   C1A33687  32.874  19.693   8.729
 2547POPC   D2A33688  32.776  19.607   8.315
 2547POPC   C3A33689  33.150  19.666   8.094
 2547POPC   C4A33690  33.260  19.675   7.709
 2547POPC   C1B33691  33.066  20.164   8.710
 2547POPC   C2B33692  32.981  20.092   8.323
 2547POPC   C3B33693  32.809  20.011   7.925
 2547POPC   C4B33694  32.942  20.027   7.516
 2548POPC   NC333695  33.176  13.995   9.391
 2548POPC   PO433696  33.663  13.654   9.515
 2548POPC   GL133697  33.812  13.580   9.142
 2548POPC   GL233698  33.753  13.933   9.068
 2548POPC   C1A33699  33.985  13.597   8.738
 2548POPC   D2A33700  33.843  13.376   8.391
 2548POPC   C3A33701  33.804  13.582   8.007
 2548POPC   C4A33702  33.717  13.400   7.607
 2548POPC   C1B33703  33.456  13.741   8.800
 2548POPC   C2B33704  33.290  13.823   8.415
 2548POPC   C3B33705  33.461  14.019   8.066
 2548POPC   C4B33706  33.366  13.717   7.781
 2549POPC   NC333707  39.368  36.823   9.416
 2549POPC   PO433708  38.898  37.381   9.479
 2549POPC   GL133709  39.068  37.096   9.121
 2549POPC   GL233710  38.971  36.735   9.107
 2549POPC   C1A33711  39.216  37.081   8.687
 2549POPC   D2A33712  39.506  37.130   8.380
 2549POPC   C3A33713  39.401  37.130   7.962
 2549POPC   C4A33714  39.276  36.911   7.607
 2549POPC   C1B33715  39.198  36.587   8.716
 2549POPC   C2B33716  39.208  36.723   8.260
 2549POPC   C3B33717  39.118  36.510   7.864
 2549POPC   C4B33718  38.960  36.562   7.405
 2550POPC   NC333719   9.047  32.820   9.457
 2550POPC   PO433720   8.392  32.681   9.412
 2550POPC   GL133721   8.524  32.975   9.037
 2550POPC   GL233722   8.887  33.023   9.018
 2550POPC   C1A33723   8.563  33.035   8.593
 2550POPC   D2A33724   8.959  32.985   8.384
 2550POPC   C3A33725   8.973  33.161   8.002
 2550POPC   C4A33726   8.864  33.033   7.617
 2550POPC   C1B33727   9.177  32.733   8.780
 2550POPC   C2B33728   9.458  32.832   8.433
 2550POPC   C3B33729   9.301  32.738   8.015
 2550POPC   C4B33730   9.383  32.970   7.642
 2551POPC   NC333731   7.240  25.486   9.429
 2551POPC   PO433732   7.470  24.827   9.506
 2551POPC   GL133733   7.410  25.106   9.124
 2551POPC   GL233734   7.661  25.384   9.054
 2551POPC   C1A33735   7.605  25.061   8.687
 2551POPC   D2A33736   7.514  25.234   8.310
 2551POPC   C3A33737   7.284  25.040   8.002
 2551POPC   C4A33738   7.308  25.119   7.569
 2551POPC   C1B33739   7.342  25.497   8.748
 2551POPC   C2B33740   7.227  25.667   8.330
 2551POPC   C3B33741   7.426  25.566   7.930
 2551POPC   C4B33742   7.306  25.639   7.521
 2552POPC   NC333743  27.343  41.008   9.540
 2552POPC   PO433744  27.927  40.642   9.416
 2552POPC   GL133745  27.712  40.822   9.099
 2552POPC   GL233746  27.364  40.762   9.118
 2552POPC   C1A33747  27.564  40.818   8.668
 2552POPC   D2A33748  27.516  40.659   8.266
 2552POPC   C3A33749  27.645  40.917   7.909
 2552POPC   C4A33750  28.002  40.819   7.659
 2552POPC   C1B33751  27.221  40.453   8.841
 2552POPC   C2B33752  27.075  40.409   8.435
 2552POPC   C3B33753  27.078  40.559   8.025
 2552POPC   C4B33754  27.343  40.519   7.706
 2553POPC   NC333755  38.072   3.570   9.502
 2553POPC   PO433756  38.759   3.699   9.553
 2553POPC   GL133757  38.528   3.487   9.216
 2553POPC   GL233758  38.317   3.737   9.087
 2553POPC   C1A33759  38.627   3.311   8.804
 2553POPC   D2A33760  38.882   3.394   8.443
 2553POPC   C3A33761  38.671   3.285   8.062
 2553POPC   C4A33762  38.480   3.438   7.696
 2553POPC   C1B33763  38.460   3.768   8.649
 2553POPC   C2B33764  38.575   3.780   8.196
 2553POPC   C3B33765  38.289   3.871   7.827
 2553POPC   C4B33766  38.572   3.906   7.462
 2554POPC   NC333767  34.708  39.236   9.516
 2554POPC   PO433768  34.076  39.031   9.335
 2554POPC   GL133769  34.307  39.172   9.015
 2554POPC   GL233770  34.241  39.473   9.025
 2554POPC   C1A33771  34.723  39.285   8.828
 2554POPC   D2A33772  34.830  39.283   8.375
 2554POPC   C3A33773  34.780  38.866   8.200
 2554POPC   C4A33774  34.652  38.810   7.768
 2554POPC   C1B33775  34.409  39.649   8.667
 2554POPC   C2B33776  34.697  39.778   8.357
 2554POPC   C3B33777  34.541  39.689   7.966
 2554POPC   C4B33778  34.607  39.418   7.652
 2555POPC   NC333779   6.987  38.695   9.493
 2555POPC   PO433780   6.320  38.468   9.481
 2555POPC   GL133781   6.625  38.524   9.165
 2555POPC   GL233782   6.658  38.213   9.050
 2555POPC   C1A33783   6.809  38.614   8.749
 2555POPC   D2A33784   6.608  38.710   8.372
 2555POPC   C3A33785   6.462  38.694   7.963
 2555POPC   C4A33786   6.702  38.731   7.599
 2555POPC   C1B33787   6.459  38.272   8.624
 2555POPC   C2B33788   6.546  38.249   8.183
 2555POPC   C3B33789   6.573  38.262   7.743
 2555POPC   C4B33790   6.434  38.066   7.407
 2556POPC   NC333791  19.016   3.193   9.660
 2556POPC   PO433792  18.802   2.629   9.412
 2556POPC   GL133793  18.942   2.938   9.101
 2556POPC   GL233794  19.282   2.852   8.982
 2556POPC   C1A33795  18.885   3.040   8.653
 2556POPC   D2A33796  18.989   2.757   8.269
 2556POPC   C3A33797  18.803   2.753   7.839
 2556POPC   C4A33798  18.890   3.022   7.449
 2556POPC   C1B33799  19.003   2.553   8.749
 2556POPC   C2B33800  19.028   2.234   8.429
 2556POPC   C3B33801  19.118   2.243   8.014
 2556POPC   C4B33802  19.179   2.474   7.643
 2557POPC   NC333803  14.969  30.897   9.468
 2557POPC   PO433804  15.528  30.461   9.697
 2557POPC   GL133805  15.260  30.505   9.240
 2557POPC   GL233806  15.142  30.829   9.022
 2557POPC   C1A33807  15.373  30.496   8.747
 2557POPC   D2A33808  15.138  30.677   8.379
 2557POPC   C3A33809  15.178  30.527   7.970
 2557POPC   C4A33810  15.574  30.620   7.813
 2557POPC   C1B33811  14.923  31.022   8.680
 2557POPC   C2B33812  15.069  31.182   8.310
 2557POPC   C3B33813  15.064  31.018   7.949
 2557POPC   C4B33814  14.989  31.161   7.589
 2558POPC   NC333815  33.505   1.712   9.275
 2558POPC   PO433816  32.948   1.881   9.673
 2558POPC   GL133817  33.002   1.960   9.207
 2558POPC   GL233818  33.315   2.154   9.108
 2558POPC   C1A33819  32.754   1.989   8.795
 2558POPC   D2A33820  32.820   2.153   8.346
 2558POPC   C3A33821  32.741   1.906   7.957
 2558POPC   C4A33822  32.814   2.064   7.512
 2558POPC   C1B33823  33.253   1.967   8.685
 2558POPC   C2B33824  33.349   1.871   8.249
 2558POPC   C3B33825  33.205   2.076   7.875
 2558POPC   C4B33826  33.329   2.079   7.450
 2559POPC   NC333827   5.319  32.959   9.903
 2559POPC   PO433828   5.046  32.418   9.594
 2559POPC   GL133829   4.947  32.317   9.196
 2559POPC   GL233830   5.293  32.270   9.149
 2559POPC   C1A33831   4.961  32.250   8.752
 2559POPC   D2A33832   4.937  32.124   8.312
 2559POPC   C3A33833   5.154  32.446   8.071
 2559POPC   C4A33834   4.921  32.701   7.792
 2559POPC   C1B33835   5.493  32.046   8.834
 2559POPC   C2B33836   5.440  32.089   8.414
 2559POPC   C3B33837   5.484  32.050   7.978
 2559POPC   C4B33838   5.341  31.933   7.580
 2560POPC   NC333839  28.647  12.902   9.792
 2560POPC   PO433840  29.210  12.755   9.429
 2560POPC   GL133841  29.271  12.860   9.035
 2560POPC   GL233842  29.150  12.492   9.006
 2560POPC   C1A33843  29.355  13.075   8.640
 2560POPC   D2A33844  29.039  13.186   8.337
 2560POPC   C3A33845  29.113  13.074   7.901
 2560POPC   C4A33846  29.207  13.090   7.459
 2560POPC   C1B33847  29.000  12.692   8.636
 2560POPC   C2B33848  29.185  12.659   8.274
 2560POPC   C3B33849  29.004  12.593   7.912
 2560POPC   C4B33850  28.798  12.797   7.618
 2561POPC   NC333851  37.685  35.892   9.553
 2561POPC   PO433852  37.362  36.422   9.802
 2561POPC   GL133853  37.627  36.412   9.266
 2561POPC   GL233854  37.611  36.080   9.053
 2561POPC   C1A33855  37.492  36.504   8.807
 2561POPC   D2A33856  37.192  36.347   8.472
 2561POPC   C3A33857  37.440  36.140   8.109
 2561POPC   C4A33858  37.465  36.335   7.694
 2561POPC   C1B33859  37.579  36.050   8.601
 2561POPC   C2B33860  37.886  35.933   8.324
 2561POPC   C3B33861  38.082  35.776   8.009
 2561POPC   C4B33862  37.861  36.013   7.757
 2562POPC   NC333863  21.973  41.294   9.603
 2562POPC   PO433864  22.199  42.000   9.432
 2562POPC   GL133865  22.323  41.625   9.237
 2562POPC   GL233866  22.013  41.473   9.140
 2562POPC   C1A33867  22.466  41.569   8.814
 2562POPC   D2A33868  22.430  41.316   8.449
 2562POPC   C3A33869  22.322  41.527   8.076
 2562POPC   C4A33870  22.220  41.689   7.685
 2562POPC   C1B33871  21.925  41.543   8.742
 2562POPC   C2B33872  21.913  41.405   8.345
 2562POPC   C3B33873  21.804  41.542   7.938
 2562POPC   C4B33874  21.745  41.747   7.553
 2563POPC   NC333875  21.862  34.868   9.597
 2563POPC   PO433876  22.213  34.351   9.605
 2563POPC   GL133877  22.025  34.508   9.207
 2563POPC   GL233878  22.106  34.849   9.146
 2563POPC   C1A33879  22.179  34.486   8.769
 2563POPC   D2A33880  22.424  34.374   8.401
 2563POPC   C3A33881  22.133  34.318   8.100
 2563POPC   C4A33882  22.030  34.508   7.769
 2563POPC   C1B33883  22.123  35.000   8.704
 2563POPC   C2B33884  22.145  34.819   8.289
 2563POPC   C3B33885  22.450  34.753   7.968
 2563POPC   C4B33886  22.391  34.767   7.518
 2564POPC   NC333887  20.046  17.624   9.544
 2564POPC   PO433888  19.359  17.503   9.526
 2564POPC   GL133889  19.615  17.301   9.162
 2564POPC   GL233890  19.863  17.542   9.099
 2564POPC   C1A33891  19.779  17.298   8.686
 2564POPC   D2A33892  19.742  17.453   8.265
 2564POPC   C3A33893  20.020  17.237   7.973
 2564POPC   C4A33894  20.069  17.379   7.573
 2564POPC   C1B33895  20.172  17.788   8.844
 2564POPC   C2B33896  20.257  17.760   8.412
 2564POPC   C3B33897  20.110  17.757   7.995
 2564POPC   C4B33898  20.322  17.799   7.623
 2565POPC   NC333899  40.489  43.913   9.921
 2565POPC   PO433900  39.928  43.759   9.647
 2565POPC   GL133901  40.071  43.821   9.246
 2565POPC   GL233902  39.921  43.544   9.148
 2565POPC   C1A33903  40.080  43.937   8.813
 2565POPC   D2A33904  39.937  44.168   8.468
 2565POPC   C3A33905  40.075  43.911   8.136
 2565POPC   C4A33906  40.192  43.967   7.711
 2565POPC   C1B33907  40.127  43.422   8.806
 2565POPC   C2B33908  40.212  43.482   8.390
 2565POPC   C3B33909  40.365  43.547   7.942
 2565POPC   C4B33910  40.087  43.441   7.578
 2566POPC   NC333911  26.220  25.238   9.447
 2566POPC   PO433912  25.566  25.540   9.504
 2566POPC   GL133913  25.801  25.389   9.187
 2566POPC   GL233914  26.029  25.581   9.159
 2566POPC   C1A33915  25.893  25.210   8.809
 2566POPC   D2A33916  25.912  25.014   8.426
 2566POPC   C3A33917  26.137  25.239   8.126
 2566POPC   C4A33918  26.053  25.068   7.746
 2566POPC   C1B33919  25.762  25.728   8.816
 2566POPC   C2B33920  25.825  25.552   8.426
 2566POPC   C3B33921  25.860  25.717   8.050
 2566POPC   C4B33922  26.063  25.561   7.683
 2567POPC   NC333923  27.681   8.044   9.453
 2567POPC   PO433924  27.715   8.737   9.544
 2567POPC   GL133925  27.556   8.573   9.134
 2567POPC   GL233926  27.696   8.260   9.004
 2567POPC   C1A33927  27.462   8.515   8.655
 2567POPC   D2A33928  27.645   8.186   8.352
 2567POPC   C3A33929  27.719   8.264   7.918
 2567POPC   C4A33930  27.745   8.418   7.505
 2567POPC   C1B33931  27.453   7.946   8.753
 2567POPC   C2B33932  27.297   7.807   8.308
 2567POPC   C3B33933  27.325   7.941   7.855
 2567POPC   C4B33934  27.404   8.048   7.416
 2568POPC   NC333935  34.024  14.831   9.386
 2568POPC   PO433936  33.666  15.364   9.381
 2568POPC   GL133937  33.939  15.234   9.073
 2568POPC   GL233938  33.746  14.951   8.997
 2568POPC   C1A33939  34.107  15.153   8.650
 2568POPC   D2A33940  33.930  15.028   8.253
 2568POPC   C3A33941  34.087  15.309   7.961
 2568POPC   C4A33942  34.103  15.368   7.539
 2568POPC   C1B33943  33.603  15.157   8.659
 2568POPC   C2B33944  33.530  15.357   8.304
 2568POPC   C3B33945  33.558  15.214   7.910
 2568POPC   C4B33946  33.816  14.944   7.706
 2569POPC   NC333947  21.894  25.160   9.221
 2569POPC   PO433948  22.478  25.462   9.460
 2569POPC   GL133949  22.336  25.393   9.048
 2569POPC   GL233950  22.659  25.208   8.999
 2569POPC   C1A33951  22.074  25.513   8.670
 2569POPC   D2A33952  21.911  25.391   8.258
 2569POPC   C3A33953  22.095  25.022   8.082
 2569POPC   C4A33954  22.114  25.215   7.704
 2569POPC   C1B33955  22.435  25.121   8.611
 2569POPC   C2B33956  22.448  25.366   8.239
 2569POPC   C3B33957  22.614  25.287   7.837
 2569POPC   C4B33958  22.498  25.447   7.421
 2570POPC   NC333959  24.849  41.327   9.396
 2570POPC   PO433960  25.521  41.391   9.574
 2570POPC   GL133961  25.285  41.470   9.176
 2570POPC   GL233962  25.187  41.812   9.122
 2570POPC   C1A33963  25.103  41.349   8.767
 2570POPC   D2A33964  25.180  41.071   8.420
 2570POPC   C3A33965  25.068  41.218   8.032
 2570POPC   C4A33966  25.170  41.059   7.606
 2570POPC   C1B33967  25.461  41.708   8.747
 2570POPC   C2B33968  25.451  41.501   8.381
 2570POPC   C3B33969  25.557  41.373   8.009
 2570POPC   C4B33970  25.264  41.585   7.765
 2571POPC   NC333971  18.481  37.289   9.473
 2571POPC   PO433972  18.132  36.669   9.570
 2571POPC   GL133973  18.393  36.830   9.185
 2571POPC   GL233974  18.474  37.188   8.986
 2571POPC   C1A33975  18.260  36.751   8.775
 2571POPC   D2A33976  18.162  36.801   8.362
 2571POPC   C3A33977  18.476  36.825   8.061
 2571POPC   C4A33978  18.313  36.774   7.688
 2571POPC   C1B33979  18.247  37.260   8.630
 2571POPC   C2B33980  18.315  37.262   8.209
 2571POPC   C3B33981  18.201  37.263   7.766
 2571POPC   C4B33982  18.031  37.369   7.362
 2572POPC   NC333983  11.859  29.140   9.398
 2572POPC   PO433984  12.548  28.972   9.272
 2572POPC   GL133985  12.325  29.311   9.088
 2572POPC   GL233986  11.989  29.202   8.931
 2572POPC   C1A33987  12.291  29.492   8.678
 2572POPC   D2A33988  12.159  29.169   8.434
 2572POPC   C3A33989  12.130  29.337   8.044
 2572POPC   C4A33990  12.264  29.454   7.621
 2572POPC   C1B33991  11.666  28.966   8.690
 2572POPC   C2B33992  11.679  28.692   8.314
 2572POPC   C3B33993  11.744  28.798   7.862
 2572POPC   C4B33994  11.790  29.230   7.693
 2573POPC   NC333995  28.158  42.793   9.563
 2573POPC   PO433996  28.182  42.186   9.676
 2573POPC   GL133997  28.107  42.420   9.237
 2573POPC   GL233998  28.385  42.454   9.136
 2573POPC   C1A33999  28.054  42.243   8.797
 2573POPC   D2A34000  28.231  41.994   8.509
 2573POPC   C3A34001  28.300  42.190   8.131
 2573POPC   C4A34002  28.328  42.229   7.711
 2573POPC   C1B34003  28.444  42.563   8.731
 2573POPC   C2B34004  28.626  42.520   8.347
 2573POPC   C3B34005  28.503  42.650   7.947
 2573POPC   C4B34006  28.797  42.449   7.687
 2574POPC   NC334007  26.000   2.589   9.375
 2574POPC   PO434008  25.987   3.287   9.541
 2574POPC   GL134009  25.863   3.037   9.163
 2574POPC   GL234010  26.191   2.954   9.042
 2574POPC   C1A34011  25.824   2.762   8.764
 2574POPC   D2A34012  26.093   2.762   8.393
 2574POPC   C3A34013  25.934   2.625   7.979
 2574POPC   C4A34014  25.877   2.882   7.588
 2574POPC   C1B34015  26.301   2.522   8.797
 2574POPC   C2B34016  26.485   2.419   8.390
 2574POPC   C3B34017  26.438   2.646   8.017
 2574POPC   C4B34018  26.274   2.575   7.601
 2575POPC   NC334019   2.641  27.697   9.571
 2575POPC   PO434020   2.355  27.066   9.491
 2575POPC   GL134021   2.487  27.401   9.154
 2575POPC   GL234022   2.517  27.796   9.111
 2575POPC   C1A34023   2.724  27.491   8.749
 2575POPC   D2A34024   2.823  27.688   8.334
 2575POPC   C3A34025   2.715  27.471   7.949
 2575POPC   C4A34026   2.764  27.387   7.515
 2575POPC   C1B34027   2.585  27.983   8.735
 2575POPC   C2B34028   2.367  27.953   8.349
 2575POPC   C3B34029   2.548  27.985   7.962
 2575POPC   C4B34030   2.467  27.772   7.577
 2576POPC   NC334031  33.555  27.961   9.489
 2576POPC   PO434032  33.981  28.531   9.558
 2576POPC   GL134033  33.838  28.315   9.193
 2576POPC   GL234034  33.940  27.958   9.144
 2576POPC   C1A34035  33.784  28.472   8.791
 2576POPC   D2A34036  33.609  28.314   8.431
 2576POPC   C3A34037  33.830  28.485   8.074
 2576POPC   C4A34038  33.623  28.759   7.835
 2576POPC   C1B34039  34.033  27.948   8.711
 2576POPC   C2B34040  33.913  27.935   8.280
 2576POPC   C3B34041  33.677  28.038   7.941
 2576POPC   C4B34042  33.978  27.979   7.642
 2577POPC   NC334043   0.818  31.278   9.768
 2577POPC   PO434044   0.229  31.441   9.367
 2577POPC   GL134045   0.110  31.474   8.965
 2577POPC   GL234046   0.453  31.473   8.880
 2577POPC   C1A34047   0.204  31.813   8.657
 2577POPC   D2A34048   0.423  31.838   8.303
 2577POPC   C3A34049   0.241  31.519   8.119
 2577POPC   C4A34050   0.144  31.677   7.748
 2577POPC   C1B34051   0.400  31.226   8.559
 2577POPC   C2B34052   0.725  31.374   8.331
 2577POPC   C3B34053   0.699  31.419   7.930
 2577POPC   C4B34054   0.358  31.228   7.707
 2578POPC   NC334055   2.849  33.265   9.522
 2578POPC   PO434056   2.455  32.719   9.455
 2578POPC   GL134057   2.598  33.028   9.130
 2578POPC   GL234058   2.876  32.872   9.081
 2578POPC   C1A34059   2.721  33.110   8.669
 2578POPC   D2A34060   2.585  33.029   8.235
 2578POPC   C3A34061   2.863  33.054   7.823
 2578POPC   C4A34062   2.862  33.134   7.373
 2578POPC   C1B34063   3.055  32.635   8.745
 2578POPC   C2B34064   3.179  32.465   8.346
 2578POPC   C3B34065   2.948  32.579   7.992
 2578POPC   C4B34066   2.908  32.622   7.546
 2579POPC   NC334067  43.516   2.869   9.574
 2579POPC   PO434068  42.792   2.967   9.419
 2579POPC   GL134069  43.022   2.784   9.122
 2579POPC   GL234070  43.359   2.698   9.134
 2579POPC   C1A34071  43.181   2.949   8.747
 2579POPC   D2A34072  43.365   2.810   8.410
 2579POPC   C3A34073  43.017   2.793   8.149
 2579POPC   C4A34074  43.089   2.814   7.725
 2579POPC   C1B34075  43.219   2.441   8.794
 2579POPC   C2B34076  43.324   2.276   8.398
 2579POPC   C3B34077  43.380   2.460   8.008
 2579POPC   C4B34078  43.227   2.353   7.613
 2580POPC   NC334079  26.169  26.890   9.567
 2580POPC   PO434080  25.633  26.401   9.570
 2580POPC   GL134081  25.881  26.518   9.196
 2580POPC   GL234082  26.231  26.542   9.224
 2580POPC   C1A34083  25.821  26.719   8.800
 2580POPC   D2A34084  25.907  26.809   8.427
 2580POPC   C3A34085  25.788  26.778   8.019
 2580POPC   C4A34086  25.867  27.090   7.720
 2580POPC   C1B34087  26.289  26.874   8.915
 2580POPC   C2B34088  26.410  26.873   8.493
 2580POPC   C3B34089  26.298  26.705   8.109
 2580POPC   C4B34090  26.377  26.811   7.712
 2581POPC   NC334091  41.547  29.186   9.956
 2581POPC   PO434092  41.926  28.810   9.604
 2581POPC   GL134093  41.629  29.016   9.285
 2581POPC   GL234094  41.734  29.405   9.213
 2581POPC   C1A34095  41.514  29.008   8.836
 2581POPC   D2A34096  41.362  28.737   8.508
 2581POPC   C3A34097  41.483  28.840   8.095
 2581POPC   C4A34098  41.305  28.941   7.676
 2581POPC   C1B34099  41.873  29.370   8.789
 2581POPC   C2B34100  41.660  29.269   8.401
 2581POPC   C3B34101  41.558  29.490   8.035
 2581POPC   C4B34102  41.618  29.336   7.640
 2582POPC   NC334103   0.079   7.902   9.508
 2582POPC   PO434104   0.610   7.363   9.508
 2582POPC   GL134105   0.502   7.248   9.107
 2582POPC   GL234106   0.130   7.364   9.092
 2582POPC   C1A34107   0.451   7.457   8.717
 2582POPC   D2A34108   0.580   7.791   8.461
 2582POPC   C3A34109   0.508   7.610   8.088
 2582POPC   C4A34110   0.737   7.521   7.757
 2582POPC   C1B34111   0.090   7.095   8.738
 2582POPC   C2B34112   0.241   7.068   8.338
 2582POPC   C3B34113   0.051   7.231   7.985
 2582POPC   C4B34114   0.260   7.390   7.673
 2583POPC   NC334115  34.869  25.848   9.431
 2583POPC   PO434116  34.317  26.257   9.486
 2583POPC   GL134117  34.499  26.073   9.121
 2583POPC   GL234118  34.799  26.228   9.037
 2583POPC   C1A34119  34.503  25.902   8.700
 2583POPC   D2A34120  34.484  25.765   8.274
 2583POPC   C3A34121  34.329  26.082   8.014
 2583POPC   C4A34122  34.399  26.028   7.599
 2583POPC   C1B34123  34.623  26.382   8.668
 2583POPC   C2B34124  34.808  26.149   8.324
 2583POPC   C3B34125  34.819  26.184   7.892
 2583POPC   C4B34126  34.535  26.497   7.727
 2584POPC   NC334127  32.198  41.114   9.335
 2584POPC   PO434128  32.399  41.634   9.791
 2584POPC   GL134129  32.431  41.612   9.352
 2584POPC   GL234130  32.714  41.395   9.267
 2584POPC   C1A34131  32.274  41.693   8.933
 2584POPC   D2A34132  32.154  41.451   8.535
 2584POPC   C3A34133  32.233  41.595   8.081
 2584POPC   C4A34134  32.277  41.334   7.671
 2584POPC   C1B34135  32.694  41.450   8.814
 2584POPC   C2B34136  32.607  41.218   8.422
 2584POPC   C3B34137  32.655  41.301   8.007
 2584POPC   C4B34138  32.647  41.641   7.761
 2585POPC   NC334139  30.137  13.793   9.505
 2585POPC   PO434140  29.616  13.472   9.480
 2585POPC   GL134141  29.955  13.415   9.193
 2585POPC   GL234142  29.958  13.783   9.038
 2585POPC   C1A34143  30.141  13.393   8.796
 2585POPC   D2A34144  30.029  13.704   8.510
 2585POPC   C3A34145  29.982  13.584   8.094
 2585POPC   C4A34146  29.731  13.764   7.805
 2585POPC   C1B34147  30.313  13.958   8.876
 2585POPC   C2B34148  30.465  14.063   8.508
 2585POPC   C3B34149  30.244  14.033   8.154
 2585POPC   C4B34150  30.244  13.860   7.733
 2586POPC   NC334151  39.771  37.872   9.460
 2586POPC   PO434152  40.385  37.684   9.615
 2586POPC   GL134153  40.101  37.593   9.133
 2586POPC   GL234154  39.884  37.893   8.986
 2586POPC   C1A34155  40.110  37.612   8.638
 2586POPC   D2A34156  40.369  37.559   8.268
 2586POPC   C3A34157  40.110  37.713   7.983
 2586POPC   C4A34158  39.919  37.427   7.758
 2586POPC   C1B34159  39.621  37.586   8.755
 2586POPC   C2B34160  39.707  37.574   8.292
 2586POPC   C3B34161  39.482  37.644   7.921
 2586POPC   C4B34162  39.534  38.038   7.771
 2587POPC   NC334163  33.893  26.422   9.409
 2587POPC   PO434164  33.559  25.930   9.706
 2587POPC   GL134165  33.807  25.955   9.218
 2587POPC   GL234166  33.679  25.769   8.965
 2587POPC   C1A34167  34.038  26.116   8.857
 2587POPC   D2A34168  34.034  25.980   8.467
 2587POPC   C3A34169  33.823  26.205   8.155
 2587POPC   C4A34170  33.898  26.180   7.717
 2587POPC   C1B34171  33.515  25.912   8.627
 2587POPC   C2B34172  33.551  25.709   8.272
 2587POPC   C3B34173  33.494  25.917   7.917
 2587POPC   C4B34174  33.534  25.881   7.489
 2588POPC   NC334175  18.037   0.688   9.532
 2588POPC   PO434176  18.522   0.219   9.830
 2588POPC   GL134177  18.444   0.312   9.325
 2588POPC   GL234178  18.151   0.402   9.131
 2588POPC   C1A34179  18.471   0.172   8.825
 2588POPC   D2A34180  18.571   0.168   8.364
 2588POPC   C3A34181  18.522   0.505   8.095
 2588POPC   C4A34182  18.194   0.382   7.861
 2588POPC   C1B34183  18.017   0.614   8.737
 2588POPC   C2B34184  18.019   0.581   8.296
 2588POPC   C3B34185  17.896   0.773   7.890
 2588POPC   C4B34186  18.262   0.801   7.566
 2589POPC   NC334187   6.919  28.550   9.363
 2589POPC   PO434188   6.303  28.159   9.508
 2589POPC   GL134189   6.494  28.292   9.141
 2589POPC   GL234190   6.801  28.118   9.024
 2589POPC   C1A34191   6.482  28.430   8.725
 2589POPC   D2A34192   6.744  28.382   8.403
 2589POPC   C3A34193   6.606  28.473   8.011
 2589POPC   C4A34194   6.932  28.478   7.736
 2589POPC   C1B34195   6.509  27.916   8.699
 2589POPC   C2B34196   6.335  28.068   8.285
 2589POPC   C3B34197   6.380  28.057   7.812
 2589POPC   C4B34198   6.559  27.956   7.383
 2590POPC   NC334199  33.399  36.357   9.508
 2590POPC   PO434200  32.729  36.112   9.488
 2590POPC   GL134201  33.097  36.027   9.169
 2590POPC   GL234202  32.858  35.764   9.039
 2590POPC   C1A34203  33.205  35.926   8.712
 2590POPC   D2A34204  32.921  35.862   8.343
 2590POPC   C3A34205  33.121  35.841   7.929
 2590POPC   C4A34206  33.382  36.143   7.704
 2590POPC   C1B34207  32.808  36.211   8.811
 2590POPC   C2B34208  33.000  36.377   8.431
 2590POPC   C3B34209  32.895  36.301   7.995
 2590POPC   C4B34210  32.945  36.340   7.544
 2591POPC   NC334211   4.510  42.257   9.564
 2591POPC   PO434212   3.957  42.671   9.540
 2591POPC   GL134213   4.240  42.512   9.200
 2591POPC   GL234214   4.632  42.480   9.132
 2591POPC   C1A34215   4.300  42.256   8.835
 2591POPC   D2A34216   4.168  42.353   8.436
 2591POPC   C3A34217   4.161  42.502   8.050
 2591POPC   C4A34218   4.216  42.242   7.697
 2591POPC   C1B34219   4.750  42.503   8.723
 2591POPC   C2B34220   4.674  42.240   8.439
 2591POPC   C3B34221   4.599  42.223   8.047
 2591POPC   C4B34222   4.631  42.611   7.894
 2592POPC   NC334223   7.808   4.368   9.553
 2592POPC   PO434224   7.298   3.939   9.481
 2592POPC   GL134225   7.470   4.282   9.193
 2592POPC   GL234226   7.246   4.105   8.982
 2592POPC   C1A34227   7.438   4.518   8.786
 2592POPC   D2A34228   7.611   4.516   8.362
 2592POPC   C3A34229   7.308   4.624   8.019
 2592POPC   C4A34230   7.285   4.660   7.562
 2592POPC   C1B34231   7.713   4.059   8.841
 2592POPC   C2B34232   7.808   3.944   8.453
 2592POPC   C3B34233   7.462   4.041   8.198
 2592POPC   C4B34234   7.494   4.211   7.794
 2593POPC   NC334235   8.193   0.629   9.777
 2593POPC   PO434236   7.895   0.361   9.248
 2593POPC   GL134237   8.168   0.473   8.970
 2593POPC   GL234238   8.433   0.439   9.089
 2593POPC   C1A34239   8.226   0.490   8.578
 2593POPC   D2A34240   7.889   0.503   8.357
 2593POPC   C3A34241   8.088   0.419   8.011
 2593POPC   C4A34242   8.430   0.627   7.851
 2593POPC   C1B34243   8.618   0.220   8.739
 2593POPC   C2B34244   8.670   0.226   8.271
 2593POPC   C3B34245   8.499   0.115   7.857
 2593POPC   C4B34246   8.464   0.336   7.437
 2594POPC   NC334247   5.682   3.341   9.552
 2594POPC   PO434248   5.813   3.907   9.733
 2594POPC   GL134249   5.826   3.707   9.243
 2594POPC   GL234250   5.590   3.821   9.006
 2594POPC   C1A34251   5.971   3.509   8.822
 2594POPC   D2A34252   6.313   3.567   8.496
 2594POPC   C3A34253   6.268   3.534   8.038
 2594POPC   C4A34254   6.198   3.529   7.582
 2594POPC   C1B34255   5.679   3.882   8.588
 2594POPC   C2B34256   5.829   3.578   8.297
 2594POPC   C3B34257   5.751   3.500   7.843
 2594POPC   C4B34258   5.706   3.569   7.376
 2595POPC   NC334259   0.087  37.382   9.544
 2595POPC   PO434260  44.488  37.567   9.437
 2595POPC   GL134261  44.589  37.741   9.103
 2595POPC   GL234262  44.944  37.716   9.112
 2595POPC   C1A34263  44.385  37.748   8.699
 2595POPC   D2A34264  44.381  38.011   8.358
 2595POPC   C3A34265  44.389  37.767   8.006
 2595POPC   C4A34266  44.395  37.850   7.572
 2595POPC   C1B34267  44.817  37.991   8.737
 2595POPC   C2B34268  44.859  37.813   8.366
 2595POPC   C3B34269  44.887  37.909   7.971
 2595POPC   C4B34270  44.870  37.718   7.573
 2596POPC   NC334271   9.342  26.452   9.409
 2596POPC   PO434272   9.931  26.836   9.596
 2596POPC   GL134273   9.804  26.755   9.162
 2596POPC   GL234274   9.511  26.856   9.127
 2596POPC   C1A34275   9.909  26.620   8.718
 2596POPC   D2A34276   9.717  26.432   8.308
 2596POPC   C3A34277   9.878  26.654   7.940
 2596POPC   C4A34278   9.921  27.109   7.861
 2596POPC   C1B34279   9.388  26.787   8.738
 2596POPC   C2B34280   9.607  26.924   8.408
 2596POPC   C3B34281   9.405  26.778   8.073
 2596POPC   C4B34282   9.349  26.806   7.677
 2597POPC   NC334283  15.481  19.089   9.348
 2597POPC   PO434284  16.211  19.102   9.348
 2597POPC   GL134285  15.923  19.128   9.066
 2597POPC   GL234286  15.819  18.789   9.096
 2597POPC   C1A34287  16.003  19.009   8.669
 2597POPC   D2A34288  15.771  18.981   8.361
 2597POPC   C3A34289  16.009  19.017   8.054
 2597POPC   C4A34290  15.946  19.263   7.754
 2597POPC   C1B34291  15.675  18.605   8.733
 2597POPC   C2B34292  15.433  18.600   8.375
 2597POPC   C3B34293  15.618  18.671   7.984
 2597POPC   C4B34294  15.857  18.748   7.634
 2598POPC   NC334295  40.263  18.230   9.489
 2598POPC   PO434296  39.622  18.010   9.570
 2598POPC   GL134297  39.812  18.341   9.244
 2598POPC   GL234298  40.146  18.492   9.097
 2598POPC   C1A34299  39.796  18.267   8.803
 2598POPC   D2A34300  39.732  18.199   8.390
 2598POPC   C3A34301  40.052  17.970   8.145
 2598POPC   C4A34302  39.893  17.994   7.729
 2598POPC   C1B34303  40.099  18.656   8.731
 2598POPC   C2B34304  40.110  18.517   8.339
 2598POPC   C3B34305  40.071  18.429   7.946
 2598POPC   C4B34306  40.407  18.194   7.815
 2599POPC   NC334307  16.234  12.966   9.438
 2599POPC   PO434308  15.566  12.705   9.570
 2599POPC   GL134309  15.820  12.762   9.195
 2599POPC   GL234310  15.606  12.641   8.980
 2599POPC   C1A34311  15.967  13.036   8.824
 2599POPC   D2A34312  16.230  12.931   8.450
 2599POPC   C3A34313  16.124  13.087   8.031
 2599POPC   C4A34314  15.793  13.180   7.733
 2599POPC   C1B34315  15.938  12.546   8.657
 2599POPC   C2B34316  16.050  12.489   8.224
 2599POPC   C3B34317  15.821  12.700   7.874
 2599POPC   C4B34318  15.621  12.780   7.442
 2600POPC   NC334319  43.280  35.878   9.364
 2600POPC   PO434320  42.727  36.234   9.401
 2600POPC   GL134321  43.028  36.289   9.122
 2600POPC   GL234322  42.968  35.981   8.957
 2600POPC   C1A34323  43.254  36.372   8.751
 2600POPC   D2A34324  43.287  36.215   8.312
 2600POPC   C3A34325  43.229  36.381   7.889
 2600POPC   C4A34326  43.325  36.223   7.477
 2600POPC   C1B34327  42.775  36.256   8.634
 2600POPC   C2B34328  42.776  36.148   8.228
 2600POPC   C3B34329  42.960  35.926   7.892
 2600POPC   C4B34330  42.836  36.220   7.597
 2601POPC   NC334331  21.072  19.467   9.500
 2601POPC   PO434332  21.393  20.008   9.437
 2601POPC   GL134333  21.234  19.831   9.095
 2601POPC   GL234334  21.409  19.559   9.112
 2601POPC   C1A34335  21.357  19.955   8.692
 2601POPC   D2A34336  21.241  19.780   8.320
 2601POPC   C3A34337  21.434  19.937   7.984
 2601POPC   C4A34338  21.215  20.220   7.765
 2601POPC   C1B34339  21.611  19.486   8.738
 2601POPC   C2B34340  21.583  19.392   8.322
 2601POPC   C3B34341  21.356  19.414   7.959
 2601POPC   C4B34342  21.647  19.585   7.692
 2602POPC   NC334343   1.549  44.813   9.609
 2602POPC   PO434344   1.052  44.412   9.517
 2602POPC   GL134345   1.155  44.550   9.139
 2602POPC   GL234346   1.441  44.433   9.129
 2602POPC   C1A34347   1.172  44.789   8.769
 2602POPC   D2A34348   1.372  44.782   8.360
 2602POPC   C3A34349   1.083  44.919   8.058
 2602POPC   C4A34350   0.819  44.972   7.702
 2602POPC   C1B34351   1.363  44.300   8.693
 2602POPC   C2B34352   1.407  44.257   8.249
 2602POPC   C3B34353   1.247  44.467   7.906
 2602POPC   C4B34354   1.353  44.818   7.614
 2603POPC   NC334355  43.589   7.019   9.526
 2603POPC   PO434356  43.903   7.631   9.532
 2603POPC   GL134357  43.874   7.333   9.212
 2603POPC   GL234358  43.561   7.391   9.196
 2603POPC   C1A34359  43.896   7.264   8.761
 2603POPC   D2A34360  44.123   7.470   8.403
 2603POPC   C3A34361  44.103   7.199   8.056
 2603POPC   C4A34362  43.744   7.060   7.852
 2603POPC   C1B34363  43.547   7.641   8.870
 2603POPC   C2B34364  43.628   7.593   8.449
 2603POPC   C3B34365  43.724   7.564   8.038
 2603POPC   C4B34366  43.627   7.503   7.607
 2604POPC   NC334367  13.438  43.495   9.317
 2604POPC   PO434368  13.573  42.884   9.555
 2604POPC   GL134369  13.712  42.894   9.158
 2604POPC   GL234370  13.402  43.025   9.094
 2604POPC   C1A34371  13.814  43.120   8.785
 2604POPC   D2A34372  13.672  43.116   8.376
 2604POPC   C3A34373  13.949  43.161   8.047
 2604POPC   C4A34374  13.694  43.251   7.736
 2604POPC   C1B34375  13.377  42.828   8.726
 2604POPC   C2B34376  13.487  42.655   8.365
 2604POPC   C3B34377  13.454  42.844   7.968
 2604POPC   C4B34378  13.154  42.757   7.681
 2605POPC   NC334379   2.170  24.180   9.645
 2605POPC   PO434380   2.041  23.600   9.560
 2605POPC   GL134381   1.975  23.661   9.099
 2605POPC   GL234382   1.752  23.942   9.011
 2605POPC   C1A34383   2.078  23.808   8.640
 2605POPC   D2A34384   2.008  24.062   8.236
 2605POPC   C3A34385   1.946  23.773   7.866
 2605POPC   C4A34386   2.114  23.322   7.862
 2605POPC   C1B34387   1.601  23.550   8.758
 2605POPC   C2B34388   1.576  23.270   8.385
 2605POPC   C3B34389   1.608  23.399   7.957
 2605POPC   C4B34390   1.694  23.437   7.527
 2606POPC   NC334391  40.297  36.549   9.384
 2606POPC   PO434392  40.035  35.918   9.464
 2606POPC   GL134393  39.914  35.892   9.062
 2606POPC   GL234394  39.840  36.221   9.060
 2606POPC   C1A34395  40.079  35.928   8.652
 2606POPC   D2A34396  39.895  35.711   8.280
 2606POPC   C3A34397  39.972  35.916   7.888
 2606POPC   C4A34398  39.919  36.309   7.672
 2606POPC   C1B34399  40.024  36.456   8.779
 2606POPC   C2B34400  40.176  36.695   8.468
 2606POPC   C3B34401  40.101  36.596   8.064
 2606POPC   C4B34402  40.329  36.611   7.687
 2607POPC   NC334403   8.755  44.265   9.437
 2607POPC   PO434404   9.106  44.909   9.419
 2607POPC   GL134405   8.926  44.875   9.010
 2607POPC   GL234406   8.659  44.639   9.080
 2607POPC   C1A34407   8.762  44.760   8.594
 2607POPC   D2A34408   8.874  44.544   8.260
 2607POPC   C3A34409   8.969  44.811   7.921
 2607POPC   C4A34410   9.299   0.035   7.732
 2607POPC   C1B34411   8.515  44.331   8.805
 2607POPC   C2B34412   8.379  44.404   8.388
 2607POPC   C3B34413   8.436  44.632   8.028
 2607POPC   C4B34414   8.626  44.527   7.673
 2608POPC   NC334415  44.685   0.918   9.545
 2608POPC   PO434416  44.977   1.605   9.441
 2608POPC   GL134417  44.769   1.289   9.190
 2608POPC   GL234418  44.920   0.988   9.108
 2608POPC   C1A34419  44.594   1.266   8.780
 2608POPC   D2A34420  44.705   1.513   8.424
 2608POPC   C3A34421  44.430   1.539   8.082
 2608POPC   C4A34422  44.530   1.246   7.760
 2608POPC   C1B34423  44.787   0.788   8.767
 2608POPC   C2B34424  44.648   0.947   8.367
 2608POPC   C3B34425  44.552   0.781   7.973
 2608POPC   C4B34426  44.807   0.808   7.604
 2609POPC   NC334427  13.766  20.048   9.486
 2609POPC   PO434428  13.425  19.491   9.497
 2609POPC   GL134429  13.613  19.691   9.142
 2609POPC   GL234430  13.927  19.609   9.280
 2609POPC   C1A34431  13.718  19.990   8.796
 2609POPC   D2A34432  13.957  19.998   8.407
 2609POPC   C3A34433  13.737  20.135   8.034
 2609POPC   C4A34434  13.576  19.893   7.730
 2609POPC   C1B34435  14.058  19.614   8.860
 2609POPC   C2B34436  13.921  19.475   8.472
 2609POPC   C3B34437  13.899  19.603   8.041
 2609POPC   C4B34438  14.200  19.566   7.745
 2610POPC   NC334439  39.931  19.409   9.391
 2610POPC   PO434440  40.146  18.792   9.498
 2610POPC   GL134441  40.154  19.039   9.098
 2610POPC   GL234442  40.405  19.279   9.089
 2610POPC   C1A34443  39.914  19.121   8.705
 2610POPC   D2A34444  39.668  18.785   8.457
 2610POPC   C3A34445  39.772  18.869   8.029
 2610POPC   C4A34446  39.990  18.844   7.656
 2610POPC   C1B34447  40.387  19.370   8.681
 2610POPC   C2B34448  40.189  19.425   8.277
 2610POPC   C3B34449  40.214  19.268   7.824
 2610POPC   C4B34450  40.301  19.149   7.371
 2611POPC   NC334451  12.461  34.059   9.390
 2611POPC   PO434452  13.120  33.913   9.562
 2611POPC   GL134453  12.883  33.878   9.178
 2611POPC   GL234454  12.717  33.560   9.080
 2611POPC   C1A34455  12.772  33.965   8.747
 2611POPC   D2A34456  12.623  34.019   8.337
 2611POPC   C3A34457  12.745  33.752   8.009
 2611POPC   C4A34458  12.789  33.950   7.668
 2611POPC   C1B34459  12.764  33.356   8.705
 2611POPC   C2B34460  12.502  33.529   8.399
 2611POPC   C3B34461  12.336  33.440   8.000
 2611POPC   C4B34462  12.403  33.622   7.576
 2612POPC   NC334463  24.339  21.881   9.406
 2612POPC   PO434464  24.678  22.486   9.524
 2612POPC   GL134465  24.517  22.303   9.150
 2612POPC   GL234466  24.694  21.982   9.076
 2612POPC   C1A34467  24.565  22.348   8.714
 2612POPC   D2A34468  24.303  22.351   8.379
 2612POPC   C3A34469  24.535  22.385   8.021
 2612POPC   C4A34470  24.261  22.234   7.719
 2612POPC   C1B34471  24.627  21.839   8.691
 2612POPC   C2B34472  24.645  21.971   8.297
 2612POPC   C3B34473  24.434  21.857   7.979
 2612POPC   C4B34474  24.538  21.621   7.684
 2613POPC   NC334475  44.514  30.400   9.403
 2613POPC   PO434476  44.311  31.052   9.290
 2613POPC   GL134477  44.525  30.821   8.976
 2613POPC   GL234478  44.818  30.601   8.979
 2613POPC   C1A34479  44.403  30.466   8.717
 2613POPC   D2A34480  44.374  30.248   8.334
 2613POPC   C3A34481  44.423  30.600   8.006
 2613POPC   C4A34482  44.435  31.058   8.060
 2613POPC   C1B34483  44.982  30.936   8.709
 2613POPC   C2B34484  44.928  31.145   8.289
 2613POPC   C3B34485  44.909  31.019   7.840
 2613POPC   C4B34486  44.880  30.594   7.674
 2614POPC   NC334487  19.681  21.502   9.390
 2614POPC   PO434488  20.321  21.339   9.478
 2614POPC   GL134489  20.136  21.483   9.114
 2614POPC   GL234490  20.039  21.182   8.947
 2614POPC   C1A34491  20.019  21.675   8.737
 2614POPC   D2A34492  19.970  21.414   8.385
 2614POPC   C3A34493  19.999  21.550   7.998
 2614POPC   C4A34494  19.806  21.763   7.678
 2614POPC   C1B34495  19.620  21.348   8.754
 2614POPC   C2B34496  19.455  21.459   8.342
 2614POPC   C3B34497  19.520  21.369   7.893
 2614POPC   C4B34498  19.417  21.421   7.447
 2615POPC   NC334499  19.985  11.347   9.585
 2615POPC   PO434500  19.304  11.491   9.490
 2615POPC   GL134501  19.646  11.442   9.121
 2615POPC   GL234502  19.984  11.224   9.103
 2615POPC   C1A34503  19.807  11.379   8.671
 2615POPC   D2A34504  19.651  11.206   8.305
 2615POPC   C3A34505  19.733  11.381   7.915
 2615POPC   C4A34506  19.836  11.226   7.515
 2615POPC   C1B34507  20.131  11.643   8.962
 2615POPC   C2B34508  20.149  11.793   8.547
 2615POPC   C3B34509  20.133  11.627   8.116
 2615POPC   C4B34510  20.266  11.508   7.696
 2616POPC   NC334511  35.517  13.191   9.536
 2616POPC   PO434512  34.973  12.756   9.525
 2616POPC   GL134513  35.258  12.834   9.215
 2616POPC   GL234514  35.153  13.200   9.173
 2616POPC   C1A34515  35.419  12.601   8.835
 2616POPC   D2A34516  35.594  12.380   8.477
 2616POPC   C3A34517  35.540  12.607   8.102
 2616POPC   C4A34518  35.346  12.689   7.684
 2616POPC   C1B34519  35.509  13.124   8.881
 2616POPC   C2B34520  35.555  13.105   8.463
 2616POPC   C3B34521  35.495  13.122   8.007
 2616POPC   C4B34522  35.623  13.163   7.562
 2617POPC   NC334523  15.893  30.770   9.820
 2617POPC   PO434524  15.477  31.036   9.384
 2617POPC   GL134525  15.653  30.789   9.018
 2617POPC   GL234526  15.751  30.441   9.118
 2617POPC   C1A34527  15.947  30.920   8.688
 2617POPC   D2A34528  16.019  31.115   8.317
 2617POPC   C3A34529  15.983  30.925   7.923
 2617POPC   C4A34530  16.337  30.752   7.823
 2617POPC   C1B34531  15.892  30.425   8.714
 2617POPC   C2B34532  15.820  30.562   8.308
 2617POPC   C3B34533  15.993  30.369   7.967
 2617POPC   C4B34534  15.974  30.412   7.578
 2618POPC   NC334535   8.134   1.544   9.495
 2618POPC   PO434536   8.716   1.609   9.267
 2618POPC   GL134537   8.478   1.969   9.096
 2618POPC   GL234538   8.155   2.034   9.231
 2618POPC   C1A34539   8.451   2.156   8.716
 2618POPC   D2A34540   8.274   1.872   8.435
 2618POPC   C3A34541   8.264   2.018   8.023
 2618POPC   C4A34542   8.603   1.874   7.804
 2618POPC   C1B34543   7.950   2.187   8.850
 2618POPC   C2B34544   7.961   2.285   8.417
 2618POPC   C3B34545   7.791   2.241   8.009
 2618POPC   C4B34546   8.079   2.455   7.765
 2619POPC   NC334547   8.781   6.543   9.559
 2619POPC   PO434548   8.149   6.410   9.618
 2619POPC   GL134549   8.236   6.370   9.200
 2619POPC   GL234550   8.206   6.728   9.151
 2619POPC   C1A34551   8.021   6.381   8.805
 2619POPC   D2A34552   7.806   6.573   8.439
 2619POPC   C3A34553   7.996   6.432   8.033
 2619POPC   C4A34554   8.218   6.500   7.638
 2619POPC   C1B34555   8.103   6.903   8.744
 2619POPC   C2B34556   8.087   7.025   8.308
 2619POPC   C3B34557   8.049   6.940   7.870
 2619POPC   C4B34558   8.108   7.035   7.429
 2620POPC   NC334559  33.419  10.450   9.398
 2620POPC   PO434560  34.078  10.366   9.343
 2620POPC   GL134561  33.825  10.409   9.042
 2620POPC   GL234562  33.692  10.750   9.045
 2620POPC   C1A34563  33.912  10.339   8.632
 2620POPC   D2A34564  33.814  10.643   8.356
 2620POPC   C3A34565  33.997  10.517   7.983
 2620POPC   C4A34566  33.866  10.236   7.659
 2620POPC   C1B34567  33.431  10.996   8.713
 2620POPC   C2B34568  33.382  10.946   8.284
 2620POPC   C3B34569  33.696  10.949   7.970
 2620POPC   C4B34570  33.746  10.725   7.586
 2621POPC   NC334571  37.995  20.808   9.485
 2621POPC   PO434572  38.589  20.369   9.361
 2621POPC   GL134573  38.212  20.464   9.158
 2621POPC   GL234574  38.178  20.200   8.959
 2621POPC   C1A34575  38.153  20.712   8.780
 2621POPC   D2A34576  38.506  20.877   8.511
 2621POPC   C3A34577  38.410  20.818   8.070
 2621POPC   C4A34578  38.401  20.722   7.632
 2621POPC   C1B34579  38.538  20.385   8.708
 2621POPC   C2B34580  38.609  20.359   8.271
 2621POPC   C3B34581  38.597  20.306   7.823
 2621POPC   C4B34582  38.404  20.251   7.379
 2622POPC   NC334583  15.196   6.941   9.518
 2622POPC   PO434584  15.741   7.261   9.302
 2622POPC   GL134585  15.531   6.890   9.114
 2622POPC   GL234586  15.347   6.552   9.227
 2622POPC   C1A34587  15.190   6.849   8.829
 2622POPC   D2A34588  14.935   6.842   8.478
 2622POPC   C3A34589  15.130   6.897   8.089
 2622POPC   C4A34590  14.972   6.723   7.707
 2622POPC   C1B34591  15.372   6.303   8.840
 2622POPC   C2B34592  15.331   6.491   8.439
 2622POPC   C3B34593  15.244   6.402   8.013
 2622POPC   C4B34594  15.522   6.296   7.692
 2623POPC   NC334595  19.863   1.603   9.427
 2623POPC   PO434596  19.319   1.120   9.339
 2623POPC   GL134597  19.651   1.205   8.999
 2623POPC   GL234598  19.623   1.588   8.987
 2623POPC   C1A34599  20.031   0.972   8.706
 2623POPC   D2A34600  20.260   0.898   8.270
 2623POPC   C3A34601  19.903   0.949   7.930
 2623POPC   C4A34602  19.615   1.035   7.579
 2623POPC   C1B34603  19.975   1.479   8.726
 2623POPC   C2B34604  19.997   1.313   8.325
 2623POPC   C3B34605  20.110   1.408   7.942
 2623POPC   C4B34606  19.933   1.524   7.609
 2624POPC   NC334607  26.876  17.308   9.717
 2624POPC   PO434608  26.468  17.718   9.404
 2624POPC   GL134609  26.698  17.480   9.116
 2624POPC   GL234610  26.972  17.329   9.183
 2624POPC   C1A34611  26.814  17.664   8.728
 2624POPC   D2A34612  26.770  17.439   8.328
 2624POPC   C3A34613  26.779  17.705   7.984
 2624POPC   C4A34614  26.665  17.773   7.588
 2624POPC   C1B34615  27.083  17.251   8.742
 2624POPC   C2B34616  27.256  17.242   8.335
 2624POPC   C3B34617  27.235  17.481   7.995
 2624POPC   C4B34618  27.222  17.267   7.613
 2625POPC   NC334619  10.654   2.240   9.334
 2625POPC   PO434620  10.205   1.767   9.560
 2625POPC   GL134621  10.425   1.766   9.159
 2625POPC   GL234622  10.792   1.750   9.164
 2625POPC   C1A34623  10.482   1.977   8.745
 2625POPC   D2A34624  10.561   2.309   8.435
 2625POPC   C3A34625  10.409   2.108   8.083
 2625POPC   C4A34626  10.388   1.946   7.688
 2625POPC   C1B34627  10.956   1.782   8.732
 2625POPC   C2B34628  10.777   1.784   8.336
 2625POPC   C3B34629  10.861   1.647   7.939
 2625POPC   C4B34630  10.678   1.559   7.542
 2626POPC   NC334631  17.954   8.032   9.501
 2626POPC   PO434632  17.413   8.436   9.408
 2626POPC   GL134633  17.567   8.174   9.152
 2626POPC   GL234634  17.500   7.826   9.280
 2626POPC   C1A34635  17.705   8.287   8.736
 2626POPC   D2A34636  17.550   8.441   8.345
 2626POPC   C3A34637  17.684   8.237   7.943
 2626POPC   C4A34638  17.522   8.263   7.541
 2626POPC   C1B34639  17.625   7.801   8.834
 2626POPC   C2B34640  17.408   7.962   8.442
 2626POPC   C3B34641  17.313   7.887   8.015
 2626POPC   C4B34642  17.653   7.787   7.710
 2627POPC   NC334643   1.830  33.283   9.428
 2627POPC   PO434644   1.736  32.620   9.550
 2627POPC   GL134645   1.727  32.864   9.139
 2627POPC   GL234646   2.087  32.962   9.129
 2627POPC   C1A34647   1.690  33.099   8.719
 2627POPC   D2A34648   1.688  32.914   8.289
 2627POPC   C3A34649   1.670  33.158   7.927
 2627POPC   C4A34650   1.836  33.204   7.476
 2627POPC   C1B34651   2.218  33.141   8.747
 2627POPC   C2B34652   2.078  33.242   8.351
 2627POPC   C3B34653   2.156  33.083   7.976
 2627POPC   C4B34654   2.363  33.164   7.623
 2628POPC   NC334655  24.821   3.623   9.460
 2628POPC   PO434656  24.193   3.525   9.639
 2628POPC   GL134657  24.356   3.644   9.239
 2628POPC   GL234658  24.490   3.322   9.182
 2628POPC   C1A34659  24.178   3.665   8.831
 2628POPC   D2A34660  24.368   3.658   8.414
 2628POPC   C3A34661  24.201   3.675   8.047
 2628POPC   C4A34662  24.414   3.426   7.771
 2628POPC   C1B34663  24.637   3.454   8.778
 2628POPC   C2B34664  24.892   3.467   8.399
 2628POPC   C3B34665  24.909   3.252   8.025
 2628POPC   C4B34666  24.893   3.358   7.627
 2629POPC   NC334667   0.915  18.591   9.376
 2629POPC   PO434668   1.417  19.058   9.488
 2629POPC   GL134669   1.180  18.993   9.137
 2629POPC   GL234670   0.954  19.263   9.124
 2629POPC   C1A34671   1.390  19.109   8.741
 2629POPC   D2A34672   1.542  19.207   8.316
 2629POPC   C3A34673   1.347  19.085   7.902
 2629POPC   C4A34674   1.192  18.787   7.568
 2629POPC   C1B34675   0.894  19.073   8.715
 2629POPC   C2B34676   1.019  19.264   8.337
 2629POPC   C3B34677   0.898  19.413   7.958
 2629POPC   C4B34678   0.924  19.240   7.593
 2630POPC   NC334679  14.881  10.447   9.273
 2630POPC   PO434680  14.253  10.280   9.440
 2630POPC   GL134681  14.379  10.568   9.115
 2630POPC   GL234682  14.203  10.877   9.056
 2630POPC   C1A34683  14.415  10.394   8.706
 2630POPC   D2A34684  14.194  10.320   8.310
 2630POPC   C3A34685  14.335  10.535   7.934
 2630POPC   C4A34686  14.684  10.806   7.826
 2630POPC   C1B34687  14.405  10.899   8.651
 2630POPC   C2B34688  14.377  10.968   8.225
 2630POPC   C3B34689  14.217  11.042   7.847
 2630POPC   C4B34690  13.927  10.789   7.666
 2631POPC   NC334691   2.181  26.601   9.561
 2631POPC   PO434692   1.626  26.868   9.417
 2631POPC   GL134693   2.015  26.871   9.145
 2631POPC   GL234694   2.079  26.554   9.085
 2631POPC   C1A34695   2.182  26.909   8.713
 2631POPC   D2A34696   1.967  27.146   8.376
 2631POPC   C3A34697   1.941  27.051   7.938
 2631POPC   C4A34698   1.574  27.185   7.709
 2631POPC   C1B34699   1.926  26.417   8.703
 2631POPC   C2B34700   2.036  26.586   8.313
 2631POPC   C3B34701   1.886  26.493   7.927
 2631POPC   C4B34702   2.101  26.657   7.640
 2632POPC   NC334703  35.283  38.765   9.451
 2632POPC   PO434704  35.160  39.441   9.434
 2632POPC   GL134705  35.141  39.120   9.112
 2632POPC   GL234706  35.482  39.049   9.071
 2632POPC   C1A34707  35.201  39.099   8.663
 2632POPC   D2A34708  35.300  39.507   8.499
 2632POPC   C3A34709  35.149  39.641   8.108
 2632POPC   C4A34710  35.086  39.347   7.771
 2632POPC   C1B34711  35.632  38.823   8.665
 2632POPC   C2B34712  35.656  38.990   8.335
 2632POPC   C3B34713  35.457  39.230   8.100
 2632POPC   C4B34714  35.597  39.270   7.716
 2633POPC   NC334715  14.208  22.203   9.657
 2633POPC   PO434716  14.611  21.693   9.717
 2633POPC   GL134717  14.527  21.956   9.321
 2633POPC   GL234718  14.179  21.835   9.287
 2633POPC   C1A34719  14.390  22.254   8.941
 2633POPC   D2A34720  14.329  22.244   8.487
 2633POPC   C3A34721  14.516  22.387   8.094
 2633POPC   C4A34722  14.610  22.127   7.725
 2633POPC   C1B34723  14.330  21.768   8.878
 2633POPC   C2B34724  14.255  21.731   8.453
 2633POPC   C3B34725  14.289  21.931   8.081
 2633POPC   C4B34726  14.124  21.813   7.717
 2634POPC   NC334727  43.304   9.590   9.517
 2634POPC   PO434728  42.589   9.648   9.500
 2634POPC   GL134729  42.889   9.830   9.211
 2634POPC   GL234730  43.001   9.504   9.127
 2634POPC   C1A34731  42.977   9.849   8.740
 2634POPC   D2A34732  42.814   9.886   8.322
 2634POPC   C3A34733  43.092   9.908   7.975
 2634POPC   C4A34734  43.034  10.035   7.532
 2634POPC   C1B34735  43.107   9.331   8.748
 2634POPC   C2B34736  43.143   9.473   8.329
 2634POPC   C3B34737  43.180   9.261   7.945
 2634POPC   C4B34738  43.177   9.535   7.609
 2635POPC   NC334739  22.141  25.778   9.404
 2635POPC   PO434740  21.836  26.289   9.390
 2635POPC   GL134741  21.996  26.113   9.059
 2635POPC   GL234742  22.334  26.108   9.078
 2635POPC   C1A34743  22.026  26.060   8.660
 2635POPC   D2A34744  21.753  26.207   8.389
 2635POPC   C3A34745  21.936  26.056   8.030
 2635POPC   C4A34746  21.946  26.208   7.625
 2635POPC   C1B34747  22.517  26.277   8.729
 2635POPC   C2B34748  22.403  26.227   8.289
 2635POPC   C3B34749  22.431  26.139   7.848
 2635POPC   C4B34750  22.287  25.699   7.830
 2636POPC   NC334751  17.007  26.461   9.377
 2636POPC   PO434752  17.544  26.804   9.530
 2636POPC   GL134753  17.758  26.847   9.156
 2636POPC   GL234754  17.933  26.510   9.117
 2636POPC   C1A34755  17.744  26.901   8.713
 2636POPC   D2A34756  17.361  26.812   8.457
 2636POPC   C3A34757  17.359  26.985   8.036
 2636POPC   C4A34758  17.761  26.935   7.812
 2636POPC   C1B34759  17.564  26.459   8.878
 2636POPC   C2B34760  17.707  26.421   8.467
 2636POPC   C3B34761  17.549  26.500   8.073
 2636POPC   C4B34762  17.774  26.423   7.735
 2637POPC   NC334763  24.751  30.703   9.514
 2637POPC   PO434764  25.426  30.863   9.360
 2637POPC   GL134765  25.126  30.651   9.089
 2637POPC   GL234766  25.020  30.828   8.794
 2637POPC   C1A34767  25.137  30.331   8.759
 2637POPC   D2A34768  25.479  30.291   8.476
 2637POPC   C3A34769  25.277  30.384   8.068
 2637POPC   C4A34770  25.509  30.356   7.729
 2637POPC   C1B34771  25.422  30.792   8.612
 2637POPC   C2B34772  25.371  30.962   8.210
 2637POPC   C3B34773  25.299  30.884   7.788
 2637POPC   C4B34774  25.343  30.992   7.324
 2638POPC   NC334775   9.130  19.576   9.370
 2638POPC   PO434776   9.208  18.901   9.524
 2638POPC   GL134777   8.960  18.987   9.128
 2638POPC   GL234778   8.886  19.322   9.017
 2638POPC   C1A34779   8.958  18.991   8.655
 2638POPC   D2A34780   8.765  19.084   8.273
 2638POPC   C3A34781   9.042  19.058   7.904
 2638POPC   C4A34782   9.261  18.729   7.712
 2638POPC   C1B34783   8.677  19.462   8.666
 2638POPC   C2B34784   8.678  19.585   8.241
 2638POPC   C3B34785   8.588  19.342   7.870
 2638POPC   C4B34786   8.842  19.342   7.508
 2639POPC   NC334787  28.784   1.889   9.556
 2639POPC   PO434788  28.158   2.237   9.485
 2639POPC   GL134789  28.292   2.074   9.097
 2639POPC   GL234790  28.519   1.825   9.111
 2639POPC   C1A34791  28.272   2.052   8.645
 2639POPC   D2A34792  28.260   1.814   8.271
 2639POPC   C3A34793  28.365   2.104   7.912
 2639POPC   C4A34794  28.143   2.100   7.450
 2639POPC   C1B34795  28.610   1.655   8.730
 2639POPC   C2B34796  28.760   1.809   8.346
 2639POPC   C3B34797  28.704   1.702   7.927
 2639POPC   C4B34798  28.464   1.725   7.534
 2640POPC   NC334799  21.869  13.574   9.394
 2640POPC   PO434800  22.534  13.833   9.367
 2640POPC   GL134801  22.262  13.814   9.010
 2640POPC   GL234802  22.213  13.530   9.046
 2640POPC   C1A34803  22.153  13.954   8.571
 2640POPC   D2A34804  22.431  13.887   8.201
 2640POPC   C3A34805  22.216  13.927   7.841
 2640POPC   C4A34806  21.803  13.815   7.721
 2640POPC   C1B34807  21.932  13.346   8.785
 2640POPC   C2B34808  21.954  13.503   8.394
 2640POPC   C3B34809  21.987  13.426   7.979
 2640POPC   C4B34810  22.240  13.473   7.635
 2641POPC   NC334811   7.549  15.360   9.693
 2641POPC   PO434812   6.934  15.333   9.566
 2641POPC   GL134813   7.250  15.521   9.279
 2641POPC   GL234814   7.626  15.462   9.207
 2641POPC   C1A34815   7.243  15.465   8.847
 2641POPC   D2A34816   7.150  15.141   8.555
 2641POPC   C3A34817   7.227  15.302   8.164
 2641POPC   C4A34818   7.405  15.291   7.767
 2641POPC   C1B34819   7.630  15.136   8.890
 2641POPC   C2B34820   7.652  15.279   8.475
 2641POPC   C3B34821   7.794  15.193   8.093
 2641POPC   C4B34822   7.759  14.904   7.756
 2642POPC   NC334823  24.007  29.886   9.450
 2642POPC   PO434824  23.394  30.167   9.562
 2642POPC   GL134825  23.589  30.010   9.188
 2642POPC   GL234826  23.650  29.656   9.147
 2642POPC   C1A34827  23.831  30.015   8.822
 2642POPC   D2A34828  23.643  29.849   8.458
 2642POPC   C3A34829  23.805  29.946   8.075
 2642POPC   C4A34830  23.626  29.899   7.704
 2642POPC   C1B34831  23.843  29.477   8.764
 2642POPC   C2B34832  23.990  29.486   8.319
 2642POPC   C3B34833  23.829  29.469   7.864
 2642POPC   C4B34834  23.879  29.584   7.384
 2643POPC   NC334835  23.460  10.440   9.578
 2643POPC   PO434836  24.043  10.802   9.598
 2643POPC   GL134837  23.758  10.749   9.230
 2643POPC   GL234838  23.726  10.419   9.158
 2643POPC   C1A34839  23.660  10.857   8.781
 2643POPC   D2A34840  23.825  10.710   8.358
 2643POPC   C3A34841  23.699  10.749   7.909
 2643POPC   C4A34842  23.933  10.510   7.590
 2643POPC   C1B34843  23.793  10.362   8.748
 2643POPC   C2B34844  23.585  10.242   8.380
 2643POPC   C3B34845  23.735  10.245   8.016
 2643POPC   C4B34846  23.520  10.216   7.695
 2644POPC   NC334847  23.128  38.204   9.352
 2644POPC   PO434848  22.585  38.476   9.382
 2644POPC   GL134849  22.827  38.523   9.050
 2644POPC   GL234850  23.113  38.699   9.201
 2644POPC   C1A34851  22.940  38.301   8.667
 2644POPC   D2A34852  22.835  38.228   8.234
 2644POPC   C3A34853  23.064  38.408   7.916
 2644POPC   C4A34854  22.915  38.474   7.518
 2644POPC   C1B34855  23.140  38.813   8.766
 2644POPC   C2B34856  23.080  38.697   8.351
 2644POPC   C3B34857  23.317  38.837   8.008
 2644POPC   C4B34858  23.348  38.798   7.579
 2645POPC   NC334859  42.333  35.888   9.477
 2645POPC   PO434860  42.456  36.606   9.653
 2645POPC   GL134861  42.196  36.342   9.282
 2645POPC   GL234862  42.435  36.302   9.002
 2645POPC   C1A34863  41.997  36.155   8.850
 2645POPC   D2A34864  42.219  36.127   8.445
 2645POPC   C3A34865  41.986  35.984   8.079
 2645POPC   C4A34866  42.132  35.994   7.689
 2645POPC   C1B34867  42.477  35.877   8.826
 2645POPC   C2B34868  42.647  35.697   8.443
 2645POPC   C3B34869  42.471  35.796   8.049
 2645POPC   C4B34870  42.465  35.608   7.672
 2646POPC   NC334871  26.594  42.363   9.497
 2646POPC   PO434872  27.113  42.676   9.284
 2646POPC   GL134873  26.896  42.441   9.010
 2646POPC   GL234874  27.014  42.098   9.094
 2646POPC   C1A34875  26.570  42.254   8.747
 2646POPC   D2A34876  26.307  42.100   8.397
 2646POPC   C3A34877  26.479  42.246   7.994
 2646POPC   C4A34878  26.750  42.603   7.860
 2646POPC   C1B34879  27.114  42.121   8.639
 2646POPC   C2B34880  27.089  42.276   8.195
 2646POPC   C3B34881  26.971  42.117   7.775
 2646POPC   C4B34882  26.966  41.946   7.289
 2647POPC   NC334883   8.464   5.174   9.574
 2647POPC   PO434884   8.092   4.706   9.435
 2647POPC   GL134885   8.121   5.059   9.185
 2647POPC   GL234886   8.460   4.935   9.123
 2647POPC   C1A34887   7.977   5.332   8.836
 2647POPC   D2A34888   8.104   5.556   8.460
 2647POPC   C3A34889   8.019   5.377   8.056
 2647POPC   C4A34890   8.257   5.449   7.688
 2647POPC   C1B34891   8.313   4.941   8.732
 2647POPC   C2B34892   8.356   4.833   8.349
 2647POPC   C3B34893   8.327   4.981   7.975
 2647POPC   C4B34894   8.028   5.000   7.689
 2648POPC   NC334895   4.145  18.276   9.959
 2648POPC   PO434896   4.443  18.218   9.324
 2648POPC   GL134897   4.105  18.359   9.124
 2648POPC   GL234898   4.248  18.674   9.079
 2648POPC   C1A34899   4.005  18.140   8.761
 2648POPC   D2A34900   4.246  18.063   8.393
 2648POPC   C3A34901   4.058  18.150   7.992
 2648POPC   C4A34902   4.152  17.973   7.616
 2648POPC   C1B34903   4.335  18.511   8.641
 2648POPC   C2B34904   4.354  18.562   8.170
 2648POPC   C3B34905   4.338  18.603   7.713
 2648POPC   C4B34906   4.576  18.721   7.315
 2649POPC   NC334907  13.870  37.464   9.308
 2649POPC   PO434908  14.325  37.682   9.653
 2649POPC   GL134909  14.310  37.724   9.182
 2649POPC   GL234910  14.209  38.046   9.038
 2649POPC   C1A34911  14.314  37.656   8.711
 2649POPC   D2A34912  14.109  37.722   8.315
 2649POPC   C3A34913  14.261  37.731   7.918
 2649POPC   C4A34914  14.606  37.576   7.716
 2649POPC   C1B34915  14.386  38.177   8.653
 2649POPC   C2B34916  14.394  38.177   8.213
 2649POPC   C3B34917  14.639  38.060   7.877
 2649POPC   C4B34918  14.604  38.128   7.440
 2650POPC   NC334919  27.119  25.367   9.365
 2650POPC   PO434920  27.839  25.649   9.460
 2650POPC   GL134921  27.578  25.507   9.153
 2650POPC   GL234922  27.558  25.152   9.220
 2650POPC   C1A34923  27.306  25.481   8.785
 2650POPC   D2A34924  27.155  25.202   8.463
 2650POPC   C3A34925  27.421  25.264   8.117
 2650POPC   C4A34926  27.393  25.607   7.836
 2650POPC   C1B34927  27.577  25.054   8.752
 2650POPC   C2B34928  27.553  24.810   8.340
 2650POPC   C3B34929  27.438  24.805   7.874
 2650POPC   C4B34930  27.575  25.160   7.601
 2651POPC   NC334931  37.085  35.717   9.477
 2651POPC   PO434932  36.912  35.154   9.690
 2651POPC   GL134933  37.017  35.299   9.213
 2651POPC   GL234934  36.816  35.598   9.057
 2651POPC   C1A34935  37.149  35.251   8.784
 2651POPC   D2A34936  36.992  35.373   8.394
 2651POPC   C3A34937  37.151  35.204   7.996
 2651POPC   C4A34938  37.037  35.357   7.582
 2651POPC   C1B34939  36.637  35.700   8.628
 2651POPC   C2B34940  36.609  35.689   8.164
 2651POPC   C3B34941  36.727  35.705   7.726
 2651POPC   C4B34942  36.474  35.758   7.319
 2652POPC   NC334943  44.821  31.826   9.473
 2652POPC   PO434944  44.634  31.255   9.717
 2652POPC   GL134945  44.621  31.440   9.227
 2652POPC   GL234946  44.433  31.701   9.134
 2652POPC   C1A34947  44.644  31.337   8.768
 2652POPC   D2A34948  44.457  31.479   8.373
 2652POPC   C3A34949  44.680  31.491   7.953
 2652POPC   C4A34950  44.479  31.356   7.573
 2652POPC   C1B34951  44.710  31.845   8.770
 2652POPC   C2B34952  44.847  31.806   8.317
 2652POPC   C3B34953  44.843  32.042   7.940
 2652POPC   C4B34954  44.693  31.836   7.557
 2653POPC   NC334955  11.131  12.259   9.665
 2653POPC   PO434956  11.631  11.839   9.540
 2653POPC   GL134957  11.344  12.021   9.244
 2653POPC   GL234958  11.433  12.365   9.246
 2653POPC   C1A34959  11.177  12.018   8.812
 2653POPC   D2A34960  11.315  11.870   8.402
 2653POPC   C3A34961  11.175  12.055   8.027
 2653POPC   C4A34962  11.493  11.913   7.736
 2653POPC   C1B34963  11.533  12.447   8.832
 2653POPC   C2B34964  11.315  12.392   8.459
 2653POPC   C3B34965  11.236  12.561   8.068
 2653POPC   C4B34966  11.373  12.412   7.677
 2654POPC   NC334967  42.419  28.957   9.523
 2654POPC   PO434968  42.405  29.541   9.190
 2654POPC   GL134969  42.400  29.162   9.036
 2654POPC   GL234970  42.109  29.056   9.142
 2654POPC   C1A34971  42.306  29.105   8.631
 2654POPC   D2A34972  42.565  28.993   8.338
 2654POPC   C3A34973  42.539  29.219   7.991
 2654POPC   C4A34974  42.587  29.081   7.592
 2654POPC   C1B34975  41.963  28.795   8.841
 2654POPC   C2B34976  41.937  28.790   8.364
 2654POPC   C3B34977  41.954  29.110   8.008
 2654POPC   C4B34978  42.155  29.390   7.713
 2655POPC   NC334979  26.731  44.866   9.479
 2655POPC   PO434980  26.555  44.281   9.394
 2655POPC   GL134981  26.856  44.524   9.095
 2655POPC   GL234982  26.948  44.914   9.043
 2655POPC   C1A34983  26.825  44.621   8.680
 2655POPC   D2A34984  27.007  44.733   8.326
 2655POPC   C3A34985  26.709  44.738   8.010
 2655POPC   C4A34986  26.925  44.605   7.605
 2655POPC   C1B34987  27.081   0.143   8.655
 2655POPC   C2B34988  27.125   0.223   8.202
 2655POPC   C3B34989  26.993   0.083   7.784
 2655POPC   C4B34990  27.179   0.010   7.380
 2656POPC   NC334991  25.184  25.813   9.450
 2656POPC   PO434992  24.991  26.489   9.448
 2656POPC   GL134993  25.240  26.239   9.137
 2656POPC   GL234994  25.554  26.043   9.187
 2656POPC   C1A34995  25.263  25.924   8.788
 2656POPC   D2A34996  25.408  25.835   8.408
 2656POPC   C3A34997  25.253  26.040   8.072
 2656POPC   C4A34998  25.451  25.841   7.744
 2656POPC   C1B34999  25.637  26.255   8.771
 2656POPC   C2B35000  25.623  26.345   8.283
 2656POPC   C3B35001  25.560  26.370   7.818
 2656POPC   C4B35002  25.596  26.195   7.412
 2657POPC   NC335003  22.878  12.420   9.526
 2657POPC   PO435004  23.168  11.761   9.622
 2657POPC   GL135005  23.057  11.879   9.211
 2657POPC   GL235006  22.711  11.981   9.280
 2657POPC   C1A35007  23.197  12.005   8.786
 2657POPC   D2A35008  22.990  12.102   8.434
 2657POPC   C3A35009  23.089  11.983   8.061
 2657POPC   C4A35010  22.995  12.196   7.718
 2657POPC   C1B35011  22.667  12.018   8.837
 2657POPC   C2B35012  22.469  12.085   8.433
 2657POPC   C3B35013  22.562  12.073   8.007
 2657POPC   C4B35014  22.738  11.741   7.770
 2658POPC   NC335015  31.049  18.496   9.493
 2658POPC   PO435016  31.614  18.514   9.391
 2658POPC   GL135017  31.303  18.346   9.057
 2658POPC   GL235018  31.223  18.006   8.995
 2658POPC   C1A35019  31.392  18.463   8.621
 2658POPC   D2A35020  31.731  18.504   8.285
 2658POPC   C3A35021  31.673  18.461   7.808
 2658POPC   C4A35022  31.701  18.568   7.331
 2658POPC   C1B35023  31.442  17.953   8.645
 2658POPC   C2B35024  31.357  18.115   8.236
 2658POPC   C3B35025  31.358  17.995   7.839
 2658POPC   C4B35026  31.364  18.196   7.454
 2659POPC   NC335027  13.875  35.127   9.344
 2659POPC   PO435028  14.502  34.993   9.307
 2659POPC   GL135029  14.311  35.209   9.011
 2659POPC   GL235030  14.169  35.505   9.146
 2659POPC   C1A35031  14.409  35.236   8.586
 2659POPC   D2A35032  14.137  35.222   8.216
 2659POPC   C3A35033  14.390  35.281   7.865
 2659POPC   C4A35034  14.401  35.341   7.442
 2659POPC   C1B35035  14.212  35.746   8.811
 2659POPC   C2B35036  14.288  35.694   8.387
 2659POPC   C3B35037  14.304  35.764   7.961
 2659POPC   C4B35038  14.040  35.627   7.653
 2660POPC   NC335039  23.847   1.627   9.605
 2660POPC   PO435040  23.382   2.068   9.707
 2660POPC   GL135041  23.417   1.926   9.237
 2660POPC   GL235042  23.662   1.663   9.124
 2660POPC   C1A35043  23.424   2.088   8.768
 2660POPC   D2A35044  23.354   2.170   8.315
 2660POPC   C3A35045  23.588   2.402   8.001
 2660POPC   C4A35046  23.818   2.245   7.667
 2660POPC   C1B35047  23.876   1.847   8.723
 2660POPC   C2B35048  23.854   2.002   8.294
 2660POPC   C3B35049  24.064   1.897   7.919
 2660POPC   C4B35050  24.198   1.946   7.456
 2661POPC   NC335051  14.235  41.919   9.473
 2661POPC   PO435052  14.517  42.555   9.519
 2661POPC   GL135053  14.538  42.313   9.112
 2661POPC   GL235054  14.225  42.176   9.044
 2661POPC   C1A35055  14.417  42.419   8.657
 2661POPC   D2A35056  14.627  42.608   8.328
 2661POPC   C3A35057  14.354  42.496   8.015
 2661POPC   C4A35058  14.129  42.764   7.733
 2661POPC   C1B35059  14.011  42.079   8.658
 2661POPC   C2B35060  14.045  42.170   8.301
 2661POPC   C3B35061  14.208  42.006   7.965
 2661POPC   C4B35062  14.535  42.076   7.712
 2662POPC   NC335063  41.842  18.200   9.514
 2662POPC   PO435064  41.161  18.196   9.367
 2662POPC   GL135065  41.568  18.116   9.116
 2662POPC   GL235066  41.844  18.414   9.066
 2662POPC   C1A35067  41.784  18.021   8.731
 2662POPC   D2A35068  41.597  18.059   8.362
 2662POPC   C3A35069  41.695  18.235   7.998
 2662POPC   C4A35070  41.813  18.096   7.604
 2662POPC   C1B35071  41.502  18.459   8.765
 2662POPC   C2B35072  41.381  18.560   8.365
 2662POPC   C3B35073  41.353  18.615   7.945
 2662POPC   C4B35074  41.615  18.619   7.605
 2663POPC   NC335075  11.642   3.934   9.438
 2663POPC   PO435076  11.146   3.448   9.484
 2663POPC   GL135077  11.179   3.724   9.160
 2663POPC   GL235078  11.507   3.594   9.080
 2663POPC   C1A35079  11.067   3.683   8.715
 2663POPC   D2A35080  11.076   3.434   8.342
 2663POPC   C3A35081  11.386   3.514   8.020
 2663POPC   C4A35082  11.059   3.662   7.785
 2663POPC   C1B35083  11.478   3.948   8.805
 2663POPC   C2B35084  11.580   3.799   8.422
 2663POPC   C3B35085  11.731   3.959   8.062
 2663POPC   C4B35086  11.449   3.968   7.757
 2664POPC   NC335087  34.518  36.999   9.333
 2664POPC   PO435088  35.008  36.523   9.568
 2664POPC   GL135089  34.978  36.685   9.127
 2664POPC   GL235090  34.821  37.040   8.946
 2664POPC   C1A35091  34.725  36.594   8.778
 2664POPC   D2A35092  34.611  36.924   8.489
 2664POPC   C3A35093  34.659  36.750   8.097
 2664POPC   C4A35094  34.571  36.536   7.716
 2664POPC   C1B35095  34.465  37.347   8.823
 2664POPC   C2B35096  34.410  37.485   8.447
 2664POPC   C3B35097  34.418  37.227   8.122
 2664POPC   C4B35098  34.378  37.026   7.759
 2665POPC   NC335099  22.378   2.653   9.430
 2665POPC   PO435100  23.061   2.805   9.383
 2665POPC   GL135101  23.055   2.795   8.983
 2665POPC   GL235102  22.697   2.701   9.001
 2665POPC   C1A35103  23.118   2.521   8.640
 2665POPC   D2A35104  22.914   2.392   8.277
 2665POPC   C3A35105  23.090   2.419   7.884
 2665POPC   C4A35106  23.183   2.798   7.809
 2665POPC   C1B35107  22.719   2.953   8.624
 2665POPC   C2B35108  22.921   3.060   8.258
 2665POPC   C3B35109  22.705   2.912   7.935
 2665POPC   C4B35110  22.672   2.623   7.663
 2666POPC   NC335111   3.907  32.453   9.501
 2666POPC   PO435112   3.299  32.254   9.365
 2666POPC   GL135113   3.631  32.365   9.067
 2666POPC   GL235114   3.868  32.676   9.039
 2666POPC   C1A35115   3.483  32.238   8.696
 2666POPC   D2A35116   3.522  31.896   8.460
 2666POPC   C3A35117   3.427  32.004   8.034
 2666POPC   C4A35118   3.659  31.993   7.647
 2666POPC   C1B35119   3.963  32.421   8.648
 2666POPC   C2B35120   3.761  32.334   8.258
 2666POPC   C3B35121   3.823  32.467   7.834
 2666POPC   C4B35122   3.639  32.464   7.432
 2667POPC   NC335123  33.764  11.397   9.543
 2667POPC   PO435124  33.272  10.887   9.442
 2667POPC   GL135125  33.524  11.219   9.157
 2667POPC   GL235126  33.523  11.618   9.157
 2667POPC   C1A35127  33.849  11.291   8.828
 2667POPC   D2A35128  34.041  11.127   8.431
 2667POPC   C3A35129  34.027  11.338   8.019
 2667POPC   C4A35130  33.879  11.260   7.589
 2667POPC   C1B35131  33.382  11.509   8.754
 2667POPC   C2B35132  33.594  11.406   8.364
 2667POPC   C3B35133  33.499  11.455   7.932
 2667POPC   C4B35134  33.351  11.598   7.518
 2668POPC   NC335135  18.803  30.154   9.384
 2668POPC   PO435136  19.350  30.104   9.643
 2668POPC   GL135137  19.212  30.036   9.126
 2668POPC   GL235138  19.168  30.343   9.027
 2668POPC   C1A35139  18.891  29.974   8.755
 2668POPC   D2A35140  18.746  29.651   8.419
 2668POPC   C3A35141  18.913  29.599   8.037
 2668POPC   C4A35142  18.953  29.762   7.634
 2668POPC   C1B35143  19.353  30.194   8.637
 2668POPC   C2B35144  19.179  29.959   8.324
 2668POPC   C3B35145  18.959  30.123   8.002
 2668POPC   C4B35146  19.192  30.222   7.652
 2669POPC   NC335147  25.559  30.428   9.276
 2669POPC   PO435148  25.125  29.913   9.439
 2669POPC   GL135149  25.324  29.965   9.108
 2669POPC   GL235150  25.641  29.842   9.263
 2669POPC   C1A35151  25.147  29.802   8.733
 2669POPC   D2A35152  25.122  29.971   8.347
 2669POPC   C3A35153  25.100  29.775   7.973
 2669POPC   C4A35154  25.056  30.102   7.662
 2669POPC   C1B35155  25.639  29.690   8.839
 2669POPC   C2B35156  25.522  29.643   8.407
 2669POPC   C3B35157  25.577  29.959   8.078
 2669POPC   C4B35158  25.511  29.858   7.669
 2670POPC   NC335159  42.270   3.112   9.451
 2670POPC   PO435160  42.547   3.769   9.469
 2670POPC   GL135161  42.542   3.745   9.061
 2670POPC   GL235162  42.244   3.520   9.111
 2670POPC   C1A35163  42.588   3.523   8.675
 2670POPC   D2A35164  42.798   3.313   8.318
 2670POPC   C3A35165  42.612   3.578   8.027
 2670POPC   C4A35166  42.481   3.949   7.847
 2670POPC   C1B35167  42.108   3.337   8.733
 2670POPC   C2B35168  42.105   3.482   8.304
 2670POPC   C3B35169  42.132   3.563   7.850
 2670POPC   C4B35170  42.035   3.315   7.489
 2671POPC   NC335171  43.599  15.618   9.474
 2671POPC   PO435172  43.991  14.952   9.504
 2671POPC   GL135173  44.033  15.225   9.111
 2671POPC   GL235174  43.709  15.349   9.061
 2671POPC   C1A35175  43.997  15.370   8.667
 2671POPC   D2A35176  43.719  15.267   8.312
 2671POPC   C3A35177  43.980  15.263   7.951
 2671POPC   C4A35178  44.106  14.962   7.664
 2671POPC   C1B35179  43.587  15.642   8.668
 2671POPC   C2B35180  43.404  15.673   8.254
 2671POPC   C3B35181  43.550  15.520   7.833
 2671POPC   C4B35182  43.458  15.532   7.367
 2672POPC   NC335183  23.105   1.690   9.651
 2672POPC   PO435184  22.655   1.796   9.183
 2672POPC   GL135185  22.975   1.919   8.957
 2672POPC   GL235186  23.023   2.270   9.077
 2672POPC   C1A35187  22.966   1.869   8.517
 2672POPC   D2A35188  22.796   1.710   8.122
 2672POPC   C3A35189  23.073   1.914   7.897
 2672POPC   C4A35190  23.521   1.896   7.906
 2672POPC   C1B35191  22.680   2.275   8.725
 2672POPC   C2B35192  22.517   2.078   8.340
 2672POPC   C3B35193  22.619   2.193   7.923
 2672POPC   C4B35194  22.781   2.104   7.489
 2673POPC   NC335195  41.474  19.194   9.575
 2673POPC   PO435196  41.989  18.742   9.498
 2673POPC   GL135197  41.645  18.886   9.201
 2673POPC   GL235198  41.359  18.678   9.243
 2673POPC   C1A35199  41.651  19.243   8.872
 2673POPC   D2A35200  41.866  19.238   8.452
 2673POPC   C3A35201  41.735  18.958   8.108
 2673POPC   C4A35202  41.629  19.110   7.732
 2673POPC   C1B35203  41.260  18.896   8.841
 2673POPC   C2B35204  41.362  19.090   8.433
 2673POPC   C3B35205  41.175  19.099   7.994
 2673POPC   C4B35206  41.185  18.967   7.555
 2674POPC   NC335207  42.821   3.428   9.340
 2674POPC   PO435208  43.254   3.852   9.360
 2674POPC   GL135209  43.426   3.668   9.036
 2674POPC   GL235210  43.336   3.300   9.127
 2674POPC   C1A35211  43.351   3.860   8.620
 2674POPC   D2A35212  42.945   3.815   8.400
 2674POPC   C3A35213  43.128   3.662   8.042
 2674POPC   C4A35214  43.465   3.855   7.826
 2674POPC   C1B35215  43.093   3.441   8.751
 2674POPC   C2B35216  43.313   3.335   8.408
 2674POPC   C3B35217  43.292   3.186   8.012
 2674POPC   C4B35218  42.928   3.281   7.770
 2675POPC   NC335219  34.542  43.046   9.519
 2675POPC   PO435220  35.117  42.733   9.745
 2675POPC   GL135221  34.910  42.963   9.202
 2675POPC   GL235222  34.810  43.249   9.022
 2675POPC   C1A35223  34.753  42.785   8.756
 2675POPC   D2A35224  34.839  42.618   8.338
 2675POPC   C3A35225  34.676  42.874   8.001
 2675POPC   C4A35226  34.749  42.945   7.559
 2675POPC   C1B35227  34.464  43.223   8.699
 2675POPC   C2B35228  34.399  43.262   8.228
 2675POPC   C3B35229  34.534  43.350   7.815
 2675POPC   C4B35230  34.948  43.425   7.706
 2676POPC   NC335231   7.181  35.150   9.448
 2676POPC   PO435232   7.602  35.642   9.520
 2676POPC   GL135233   7.473  35.463   9.154
 2676POPC   GL235234   7.144  35.606   9.118
 2676POPC   C1A35235   7.520  35.217   8.773
 2676POPC   D2A35236   7.582  35.052   8.344
 2676POPC   C3A35237   7.269  35.147   8.029
 2676POPC   C4A35238   7.293  35.287   7.574
 2676POPC   C1B35239   7.329  35.724   8.745
 2676POPC   C2B35240   7.340  35.517   8.380
 2676POPC   C3B35241   7.313  35.650   7.987
 2676POPC   C4B35242   7.501  35.775   7.642
 2677POPC   NC335243   7.585  23.470   9.241
 2677POPC   PO435244   7.982  23.976   9.394
 2677POPC   GL135245   7.540  24.028   9.111
 2677POPC   GL235246   7.365  23.729   8.899
 2677POPC   C1A35247   7.305  24.170   8.690
 2677POPC   D2A35248   7.421  23.846   8.371
 2677POPC   C3A35249   7.551  23.983   7.971
 2677POPC   C4A35250   7.245  24.055   7.681
 2677POPC   C1B35251   7.255  23.319   8.692
 2677POPC   C2B35252   7.354  23.330   8.295
 2677POPC   C3B35253   7.397  23.502   7.880
 2677POPC   C4B35254   7.201  23.476   7.469
 2678POPC   NC335255  32.772   3.048   9.367
 2678POPC   PO435256  33.082   2.459   9.458
 2678POPC   GL135257  33.131   2.631   9.096
 2678POPC   GL235258  33.249   2.951   9.123
 2678POPC   C1A35259  32.984   2.456   8.729
 2678POPC   D2A35260  32.896   2.695   8.351
 2678POPC   C3A35261  32.952   2.529   7.965
 2678POPC   C4A35262  33.038   2.526   7.537
 2678POPC   C1B35263  33.264   2.885   8.672
 2678POPC   C2B35264  33.264   3.042   8.252
 2678POPC   C3B35265  33.294   2.938   7.813
 2678POPC   C4B35266  33.642   2.999   7.548
 2679POPC   NC335267  40.875  17.828   9.438
 2679POPC   PO435268  41.092  17.156   9.525
 2679POPC   GL135269  40.736  17.340   9.197
 2679POPC   GL235270  40.926  17.585   9.016
 2679POPC   C1A35271  40.530  17.512   8.745
 2679POPC   D2A35272  40.799  17.732   8.469
 2679POPC   C3A35273  40.625  17.783   8.051
 2679POPC   C4A35274  40.698  17.788   7.593
 2679POPC   C1B35275  41.119  17.328   8.749
 2679POPC   C2B35276  40.977  17.243   8.357
 2679POPC   C3B35277  41.145  17.301   7.960
 2679POPC   C4B35278  41.337  17.125   7.602
 2680POPC   NC335279   6.227  35.036   9.378
 2680POPC   PO435280   6.801  35.490   9.459
 2680POPC   GL135281   6.500  35.405   9.135
 2680POPC   GL235282   6.424  35.699   8.965
 2680POPC   C1A35283   6.532  35.189   8.748
 2680POPC   D2A35284   6.708  35.076   8.331
 2680POPC   C3A35285   6.495  35.244   7.987
 2680POPC   C4A35286   6.453  35.232   7.523
 2680POPC   C1B35287   6.795  35.665   8.699
 2680POPC   C2B35288   6.843  35.582   8.259
 2680POPC   C3B35289   6.869  35.840   7.909
 2680POPC   C4B35290   6.854  35.491   7.705
 2681POPC   NC335291  41.885  11.783   9.409
 2681POPC   PO435292  41.329  12.265   9.512
 2681POPC   GL135293  41.535  12.109   9.145
 2681POPC   GL235294  41.181  12.136   9.021
 2681POPC   C1A35295  41.820  12.065   8.771
 2681POPC   D2A35296  41.980  12.255   8.368
 2681POPC   C3A35297  41.804  12.055   8.030
 2681POPC   C4A35298  41.560  12.061   7.680
 2681POPC   C1B35299  41.418  12.407   8.747
 2681POPC   C2B35300  41.473  12.181   8.391
 2681POPC   C3B35301  41.229  12.171   8.030
 2681POPC   C4B35302  41.237  12.478   7.703
 2682POPC   NC335303  18.175  29.762   9.561
 2682POPC   PO435304  18.849  29.680   9.364
 2682POPC   GL135305  18.472  29.873   9.110
 2682POPC   GL235306  18.097  29.995   9.121
 2682POPC   C1A35307  18.346  29.853   8.694
 2682POPC   D2A35308  18.545  30.109   8.403
 2682POPC   C3A35309  18.476  29.910   8.025
 2682POPC   C4A35310  18.516  30.072   7.636
 2682POPC   C1B35311  17.856  30.049   8.758
 2682POPC   C2B35312  17.884  29.847   8.414
 2682POPC   C3B35313  17.981  29.729   8.024
 2682POPC   C4B35314  17.915  30.138   7.849
 2683POPC   NC335315  13.756   6.380   9.523
 2683POPC   PO435316  13.329   6.959   9.445
 2683POPC   GL135317  13.544   6.720   9.203
 2683POPC   GL235318  13.843   6.881   9.353
 2683POPC   C1A35319  13.568   6.554   8.799
 2683POPC   D2A35320  13.578   6.386   8.383
 2683POPC   C3A35321  13.546   6.590   8.011
 2683POPC   C4A35322  13.539   6.495   7.541
 2683POPC   C1B35323  13.948   6.885   8.942
 2683POPC   C2B35324  13.990   6.784   8.519
 2683POPC   C3B35325  13.934   6.923   8.109
 2683POPC   C4B35326  13.684   6.972   7.735
 2684POPC   NC335327  18.814   0.853   9.409
 2684POPC   PO435328  19.000   0.172   9.521
 2684POPC   GL135329  18.901   0.246   9.094
 2684POPC   GL235330  18.721   0.582   8.991
 2684POPC   C1A35331  18.950   0.266   8.660
 2684POPC   D2A35332  19.076   0.176   8.249
 2684POPC   C3A35333  19.025   0.472   7.927
 2684POPC   C4A35334  19.119   0.553   7.482
 2684POPC   C1B35335  19.112   0.726   8.804
 2684POPC   C2B35336  19.258   0.652   8.404
 2684POPC   C3B35337  19.371   0.865   8.048
 2684POPC   C4B35338  19.512   0.602   7.782
 2685POPC   NC335339  19.263  36.667   9.513
 2685POPC   PO435340  18.844  36.146   9.766
 2685POPC   GL135341  19.034  36.208   9.342
 2685POPC   GL235342  18.893  36.460   9.192
 2685POPC   C1A35343  19.065  36.064   8.895
 2685POPC   D2A35344  18.911  36.105   8.481
 2685POPC   C3A35345  19.174  36.108   8.108
 2685POPC   C4A35346  18.951  36.028   7.756
 2685POPC   C1B35347  18.673  36.443   8.824
 2685POPC   C2B35348  18.532  36.445   8.414
 2685POPC   C3B35349  18.770  36.424   8.040
 2685POPC   C4B35350  18.647  36.411   7.629
 2686POPC   NC335351  13.284  34.367   9.507
 2686POPC   PO435352  12.583  34.498   9.499
 2686POPC   GL135353  12.873  34.439   9.162
 2686POPC   GL235354  13.189  34.660   9.102
 2686POPC   C1A35355  12.823  34.600   8.754
 2686POPC   D2A35356  12.588  34.685   8.423
 2686POPC   C3A35357  12.825  34.783   8.091
 2686POPC   C4A35358  12.888  34.519   7.763
 2686POPC   C1B35359  13.213  34.275   8.815
 2686POPC   C2B35360  13.054  34.285   8.406
 2686POPC   C3B35361  13.149  34.066   8.050
 2686POPC   C4B35362  13.262  34.189   7.651
 2687POPC   NC335363  41.628  20.176   9.469
 2687POPC   PO435364  41.203  20.582   9.680
 2687POPC   GL135365  41.423  20.552   9.169
 2687POPC   GL235366  41.762  20.469   9.104
 2687POPC   C1A35367  41.577  20.767   8.755
 2687POPC   D2A35368  41.831  20.678   8.367
 2687POPC   C3A35369  41.692  20.877   7.969
 2687POPC   C4A35370  41.448  20.961   7.571
 2687POPC   C1B35371  41.759  20.292   8.719
 2687POPC   C2B35372  41.599  20.181   8.354
 2687POPC   C3B35373  41.678  20.357   7.972
 2687POPC   C4B35374  42.015  20.226   7.744
 2688POPC   NC335375   9.722  43.260   9.712
 2688POPC   PO435376   9.993  42.914   9.256
 2688POPC   GL135377   9.704  43.152   9.037
 2688POPC   GL235378   9.848  42.950   8.767
 2688POPC   C1A35379   9.586  43.347   8.628
 2688POPC   D2A35380   9.639  43.093   8.260
 2688POPC   C3A35381   9.930  42.923   7.973
 2688POPC   C4A35382   9.801  43.229   7.714
 2688POPC   C1B35383   9.428  42.849   8.684
 2688POPC   C2B35384   9.304  42.710   8.264
 2688POPC   C3B35385   9.397  42.882   7.844
 2688POPC   C4B35386   9.687  42.755   7.524
 2689POPC   NC335387   5.094  24.121   9.474
 2689POPC   PO435388   5.501  23.588   9.503
 2689POPC   GL135389   5.159  23.650   9.205
 2689POPC   GL235390   4.963  23.365   9.111
 2689POPC   C1A35391   5.046  23.853   8.814
 2689POPC   D2A35392   5.237  23.909   8.397
 2689POPC   C3A35393   5.055  23.824   8.006
 2689POPC   C4A35394   5.028  24.034   7.612
 2689POPC   C1B35395   4.776  23.427   8.690
 2689POPC   C2B35396   4.701  23.514   8.257
 2689POPC   C3B35397   4.830  23.401   7.836
 2689POPC   C4B35398   4.985  23.458   7.403
 2690POPC   NC335399  23.816   3.379   9.854
 2690POPC   PO435400  23.354   3.711   9.503
 2690POPC   GL135401  23.565   3.540   9.170
 2690POPC   GL235402  23.893   3.400   9.249
 2690POPC   C1A35403  23.520   3.659   8.752
 2690POPC   D2A35404  23.831   3.756   8.458
 2690POPC   C3A35405  23.695   3.609   8.085
 2690POPC   C4A35406  23.466   3.581   7.701
 2690POPC   C1B35407  23.863   3.248   8.805
 2690POPC   C2B35408  24.012   3.263   8.350
 2690POPC   C3B35409  23.956   3.241   7.879
 2690POPC   C4B35410  24.025   3.219   7.445
 2691POPC   NC335411  32.863  13.475   9.592
 2691POPC   PO435412  32.781  13.976   9.172
 2691POPC   GL135413  32.894  13.580   9.088
 2691POPC   GL235414  33.244  13.514   9.229
 2691POPC   C1A35415  32.849  13.530   8.649
 2691POPC   D2A35416  32.737  13.886   8.409
 2691POPC   C3A35417  32.921  13.761   8.052
 2691POPC   C4A35418  32.907  13.805   7.624
 2691POPC   C1B35419  33.240  13.289   8.880
 2691POPC   C2B35420  33.329  13.293   8.454
 2691POPC   C3B35421  33.116  13.272   8.056
 2691POPC   C4B35422  32.765  13.333   7.791
 2692POPC   NC335423  15.141  43.930   9.591
 2692POPC   PO435424  15.555  43.586   9.294
 2692POPC   GL135425  15.253  43.822   9.069
 2692POPC   GL235426  15.196  44.135   9.152
 2692POPC   C1A35427  15.235  43.942   8.646
 2692POPC   D2A35428  15.365  43.833   8.264
 2692POPC   C3A35429  15.010  43.935   7.988
 2692POPC   C4A35430  14.936  43.850   7.561
 2692POPC   C1B35431  15.532  44.259   8.892
 2692POPC   C2B35432  15.547  44.325   8.436
 2692POPC   C3B35433  15.414  44.256   8.010
 2692POPC   C4B35434  15.426  43.980   7.651
 2693POPC   NC335435  16.455   9.129   9.837
 2693POPC   PO435436  15.908   8.869   9.446
 2693POPC   GL135437  15.894   9.138   9.091
 2693POPC   GL235438  16.278   9.117   9.159
 2693POPC   C1A35439  15.741   9.214   8.654
 2693POPC   D2A35440  15.978   9.105   8.311
 2693POPC   C3A35441  15.896   8.888   7.944
 2693POPC   C4A35442  15.789   8.861   7.500
 2693POPC   C1B35443  16.321   8.982   8.737
 2693POPC   C2B35444  16.450   9.227   8.386
 2693POPC   C3B35445  16.445   9.079   7.968
 2693POPC   C4B35446  16.241   9.032   7.591
 2694POPC   NC335447  10.638  11.412   9.863
 2694POPC   PO435448  10.927  11.173   9.293
 2694POPC   GL135449  10.515  11.300   9.162
 2694POPC   GL235450  10.343  10.990   9.035
 2694POPC   C1A35451  10.517  11.418   8.767
 2694POPC   D2A35452  10.692  11.192   8.458
 2694POPC   C3A35453  10.562  11.401   8.117
 2694POPC   C4A35454  10.649  11.522   7.713
 2694POPC   C1B35455  10.216  10.925   8.637
 2694POPC   C2B35456  10.296  10.963   8.211
 2694POPC   C3B35457  10.200  10.738   7.853
 2694POPC   C4B35458  10.270  10.898   7.420
 2695POPC   NC335459  24.861  34.043   9.441
 2695POPC   PO435460  24.277  33.660   9.392
 2695POPC   GL135461  24.598  33.720   9.134
 2695POPC   GL235462  24.467  34.064   9.127
 2695POPC   C1A35463  24.779  33.650   8.747
 2695POPC   D2A35464  24.815  33.681   8.312
 2695POPC   C3A35465  24.469  33.558   8.048
 2695POPC   C4A35466  24.100  33.377   7.876
 2695POPC   C1B35467  24.172  34.043   8.808
 2695POPC   C2B35468  24.222  34.210   8.415
 2695POPC   C3B35469  24.452  34.073   8.120
 2695POPC   C4B35470  24.324  34.125   7.752
 2696POPC   NC335471  41.340  30.176   9.548
 2696POPC   PO435472  41.676  30.772   9.486
 2696POPC   GL135473  41.530  30.677   9.104
 2696POPC   GL235474  41.406  30.389   9.105
 2696POPC   C1A35475  41.555  30.763   8.689
 2696POPC   D2A35476  41.866  30.974   8.462
 2696POPC   C3A35477  41.612  31.004   8.110
 2696POPC   C4A35478  41.544  30.776   7.741
 2696POPC   C1B35479  41.378  30.274   8.712
 2696POPC   C2B35480  41.305  30.382   8.271
 2696POPC   C3B35481  41.284  30.338   7.815
 2696POPC   C4B35482  41.386  30.275   7.362
 2697POPC   NC335483  28.058   0.978   9.544
 2697POPC   PO435484  28.534   1.478   9.465
 2697POPC   GL135485  28.401   1.260   9.123
 2697POPC   GL235486  28.041   1.233   9.091
 2697POPC   C1A35487  28.551   1.112   8.727
 2697POPC   D2A35488  28.751   1.300   8.377
 2697POPC   C3A35489  28.582   1.132   8.010
 2697POPC   C4A35490  28.292   1.394   7.888
 2697POPC   C1B35491  28.139   1.446   8.715
 2697POPC   C2B35492  28.178   1.213   8.357
 2697POPC   C3B35493  28.152   0.860   8.109
 2697POPC   C4B35494  28.182   0.936   7.712
 2698POPC   NC335495   5.454   6.411   9.397
 2698POPC   PO435496   4.975   6.797   9.684
 2698POPC   GL135497   5.073   6.706   9.210
 2698POPC   GL235498   4.816   6.879   9.085
 2698POPC   C1A35499   5.101   6.538   8.793
 2698POPC   D2A35500   4.859   6.404   8.442
 2698POPC   C3A35501   5.015   6.703   8.166
 2698POPC   C4A35502   5.361   6.691   7.888
 2698POPC   C1B35503   5.047   7.062   8.734
 2698POPC   C2B35504   4.965   7.207   8.305
 2698POPC   C3B35505   4.739   7.065   7.936
 2698POPC   C4B35506   4.746   6.629   7.746
 2699POPC   NC335507  26.341   8.944   9.932
 2699POPC   PO435508  25.992   9.497   9.727
 2699POPC   GL135509  26.059   9.245   9.295
 2699POPC   GL235510  26.151   9.456   8.999
 2699POPC   C1A35511  25.953   8.978   8.897
 2699POPC   D2A35512  26.129   8.716   8.546
 2699POPC   C3A35513  25.856   8.631   8.204
 2699POPC   C4A35514  26.001   8.820   7.829
 2699POPC   C1B35515  25.884   9.387   8.626
 2699POPC   C2B35516  25.911   9.137   8.267
 2699POPC   C3B35517  25.778   9.275   7.835
 2699POPC   C4B35518  25.868   9.388   7.386
 2700POPC   NC335519  39.840   5.079   9.641
 2700POPC   PO435520  40.285   5.519   9.518
 2700POPC   GL135521  40.247   5.090   9.285
 2700POPC   GL235522  40.266   5.288   9.006
 2700POPC   C1A35523  39.973   4.896   8.904
 2700POPC   D2A35524  39.977   5.042   8.436
 2700POPC   C3A35525  39.929   4.923   7.986
 2700POPC   C4A35526  39.774   5.159   7.592
 2700POPC   C1B35527  40.414   5.240   8.593
 2700POPC   C2B35528  40.317   5.476   8.248
 2700POPC   C3B35529  40.097   5.445   7.868
 2700POPC   C4B35530  40.207   5.487   7.436
 2701POPC   NC335531  22.361  30.865   9.551
 2701POPC   PO435532  22.014  30.411   9.249
 2701POPC   GL135533  22.212  30.787   9.055
 2701POPC   GL235534  22.264  31.176   9.156
 2701POPC   C1A35535  22.171  30.653   8.641
 2701POPC   D2A35536  21.987  30.338   8.391
 2701POPC   C3A35537  22.111  30.433   7.970
 2701POPC   C4A35538  22.021  30.596   7.553
 2701POPC   C1B35539  22.518  31.163   8.771
 2701POPC   C2B35540  22.403  31.007   8.369
 2701POPC   C3B35541  22.196  30.980   8.005
 2701POPC   C4B35542  22.343  30.990   7.619
 2702POPC   NC335543  19.943  23.186   9.224
 2702POPC   PO435544  19.543  22.678   9.533
 2702POPC   GL135545  19.641  22.777   9.158
 2702POPC   GL235546  19.928  22.642   9.101
 2702POPC   C1A35547  19.567  22.874   8.724
 2702POPC   D2A35548  19.523  22.735   8.285
 2702POPC   C3A35549  19.521  23.022   7.898
 2702POPC   C4A35550  19.657  23.196   7.448
 2702POPC   C1B35551  20.064  22.788   8.699
 2702POPC   C2B35552  20.224  22.948   8.332
 2702POPC   C3B35553  19.972  22.784   8.055
 2702POPC   C4B35554  19.931  22.827   7.636
 2703POPC   NC335555   1.805  38.515   9.524
 2703POPC   PO435556   2.435  38.479   9.286
 2703POPC   GL135557   2.071  38.355   9.096
 2703POPC   GL235558   1.857  38.647   9.044
 2703POPC   C1A35559   1.983  38.311   8.675
 2703POPC   D2A35560   1.874  38.469   8.318
 2703POPC   C3A35561   1.943  38.180   8.060
 2703POPC   C4A35562   2.288  38.190   7.789
 2703POPC   C1B35563   1.548  38.596   8.736
 2703POPC   C2B35564   1.420  38.669   8.327
 2703POPC   C3B35565   1.641  38.785   7.981
 2703POPC   C4B35566   2.004  38.612   7.798
 2704POPC   NC335567  21.616   6.195   9.628
 2704POPC   PO435568  21.383   5.561   9.574
 2704POPC   GL135569  21.249   5.938   9.289
 2704POPC   GL235570  21.578   5.992   9.176
 2704POPC   C1A35571  21.211   6.086   8.826
 2704POPC   D2A35572  21.126   5.963   8.380
 2704POPC   C3A35573  21.286   6.224   7.993
 2704POPC   C4A35574  21.286   6.208   7.512
 2704POPC   C1B35575  21.521   5.641   8.909
 2704POPC   C2B35576  21.566   5.548   8.477
 2704POPC   C3B35577  21.486   5.748   8.085
 2704POPC   C4B35578  21.660   5.950   7.745
 2705POPC   NC335579  24.272  44.410   9.493
 2705POPC   PO435580  24.534   0.110   9.532
 2705POPC   GL135581  24.390  44.850   9.198
 2705POPC   GL235582  24.625  44.576   9.146
 2705POPC   C1A35583  24.223  44.798   8.766
 2705POPC   D2A35584  23.990  44.953   8.392
 2705POPC   C3A35585  24.151  44.808   8.074
 2705POPC   C4A35586  24.310  44.848   7.724
 2705POPC   C1B35587  24.651  44.434   8.713
 2705POPC   C2B35588  24.601  44.593   8.304
 2705POPC   C3B35589  24.755  44.615   7.903
 2705POPC   C4B35590  24.865  44.203   7.774
 2706POPC   NC335591  37.162  22.873   9.506
 2706POPC   PO435592  36.454  23.087   9.404
 2706POPC   GL135593  36.827  22.996   9.133
 2706POPC   GL235594  37.008  22.655   9.082
 2706POPC   C1A35595  36.882  23.002   8.702
 2706POPC   D2A35596  36.706  22.819   8.337
 2706POPC   C3A35597  36.673  22.911   7.898
 2706POPC   C4A35598  36.835  22.981   7.476
 2706POPC   C1B35599  37.247  22.643   8.732
 2706POPC   C2B35600  37.218  22.851   8.320
 2706POPC   C3B35601  37.178  22.915   7.871
 2706POPC   C4B35602  37.295  22.670   7.500
 2707POPC   NC335603  20.457  21.773   9.391
 2707POPC   PO435604  20.876  22.249   9.526
 2707POPC   GL135605  20.775  22.189   9.138
 2707POPC   GL235606  20.893  21.915   9.072
 2707POPC   C1A35607  20.910  22.292   8.750
 2707POPC   D2A35608  20.784  22.410   8.384
 2707POPC   C3A35609  20.745  22.075   8.121
 2707POPC   C4A35610  20.728  22.260   7.744
 2707POPC   C1B35611  20.522  21.928   8.741
 2707POPC   C2B35612  20.290  21.875   8.317
 2707POPC   C3B35613  20.318  21.912   7.832
 2707POPC   C4B35614  20.340  21.646   7.447
 2708POPC   NC335615  16.129  44.053   9.498
 2708POPC   PO435616  16.153  43.435   9.640
 2708POPC   GL135617  16.055  43.619   9.187
 2708POPC   GL235618  15.878  43.947   9.084
 2708POPC   C1A35619  15.901  43.609   8.716
 2708POPC   D2A35620  16.089  43.773   8.333
 2708POPC   C3A35621  15.854  44.019   8.111
 2708POPC   C4A35622  15.942  43.840   7.741
 2708POPC   C1B35623  15.972  44.128   8.669
 2708POPC   C2B35624  16.222  44.304   8.341
 2708POPC   C3B35625  16.272  44.259   7.884
 2708POPC   C4B35626  16.202  44.138   7.417
 2709POPC   NC335627  35.162   7.391   9.501
 2709POPC   PO435628  35.865   7.387   9.609
 2709POPC   GL135629  35.594   7.468   9.241
 2709POPC   GL235630  35.357   7.743   9.189
 2709POPC   C1A35631  35.454   7.250   8.873
 2709POPC   D2A35632  35.517   7.087   8.460
 2709POPC   C3A35633  35.368   7.317   8.086
 2709POPC   C4A35634  35.386   7.491   7.672
 2709POPC   C1B35635  35.129   7.654   8.809
 2709POPC   C2B35636  35.029   7.683   8.361
 2709POPC   C3B35637  35.038   7.757   7.955
 2709POPC   C4B35638  34.924   7.627   7.549
 2710POPC   NC335639  23.857  28.080   9.512
 2710POPC   PO435640  23.388  28.511   9.384
 2710POPC   GL135641  23.571  28.229   9.078
 2710POPC   GL235642  23.898  28.370   9.092
 2710POPC   C1A35643  23.742  28.251   8.630
 2710POPC   D2A35644  23.815  28.589   8.328
 2710POPC   C3A35645  23.657  28.506   7.913
 2710POPC   C4A35646  23.441  28.092   7.841
 2710POPC   C1B35647  24.247  28.195   8.887
 2710POPC   C2B35648  24.277  28.246   8.458
 2710POPC   C3B35649  24.099  28.266   8.041
 2710POPC   C4B35650  24.130  28.522   7.659
 2711POPC   NC335651  25.160  28.823   9.566
 2711POPC   PO435652  25.010  28.190   9.482
 2711POPC   GL135653  25.235  28.485   9.173
 2711POPC   GL235654  25.559  28.314   9.030
 2711POPC   C1A35655  25.313  28.697   8.771
 2711POPC   D2A35656  25.589  28.512   8.509
 2711POPC   C3A35657  25.479  28.635   8.096
 2711POPC   C4A35658  25.183  28.508   7.795
 2711POPC   C1B35659  25.699  27.991   8.714
 2711POPC   C2B35660  25.669  27.689   8.362
 2711POPC   C3B35661  25.524  27.876   7.970
 2711POPC   C4B35662  25.649  28.295   7.767
 2712POPC   NC335663  43.536  33.697   9.376
 2712POPC   PO435664  42.866  33.911   9.417
 2712POPC   GL135665  42.912  33.844   9.033
 2712POPC   GL235666  43.102  33.555   9.032
 2712POPC   C1A35667  43.162  34.008   8.716
 2712POPC   D2A35668  43.228  33.794   8.335
 2712POPC   C3A35669  42.973  33.950   8.019
 2712POPC   C4A35670  43.197  34.166   7.756
 2712POPC   C1B35671  42.775  33.449   8.716
 2712POPC   C2B35672  42.771  33.513   8.269
 2712POPC   C3B35673  42.720  33.549   7.833
 2712POPC   C4B35674  43.165  33.588   7.702
 2713POPC   NC335675   2.546  21.767   9.530
 2713POPC   PO435676   3.096  21.247   9.600
 2713POPC   GL135677   2.834  21.444   9.261
 2713POPC   GL235678   2.951  21.208   9.087
 2713POPC   C1A35679   2.542  21.421   8.863
 2713POPC   D2A35680   2.536  21.226   8.432
 2713POPC   C3A35681   2.600  21.519   8.070
 2713POPC   C4A35682   2.917  21.637   7.794
 2713POPC   C1B35683   3.006  21.489   8.719
 2713POPC   C2B35684   3.035  21.354   8.314
 2713POPC   C3B35685   2.870  21.083   8.030
 2713POPC   C4B35686   2.736  21.187   7.663
 2714POPC   NC335687   4.626  41.529   9.415
 2714POPC   PO435688   4.157  41.932   9.538
 2714POPC   GL135689   4.016  41.626   9.245
 2714POPC   GL235690   4.175  41.302   9.207
 2714POPC   C1A35691   4.168  41.703   8.840
 2714POPC   D2A35692   4.310  41.869   8.480
 2714POPC   C3A35693   4.182  41.672   8.126
 2714POPC   C4A35694   4.209  41.739   7.723
 2714POPC   C1B35695   4.407  41.252   8.811
 2714POPC   C2B35696   4.504  41.346   8.382
 2714POPC   C3B35697   4.474  41.281   7.919
 2714POPC   C4B35698   4.550  41.437   7.491
 2715POPC   NC335699   9.316  10.009   9.837
 2715POPC   PO435700   8.842  10.327   9.360
 2715POPC   GL135701   9.042  10.505   9.046
 2715POPC   GL235702   9.125  10.242   8.878
 2715POPC   C1A35703   9.019  10.794   8.722
 2715POPC   D2A35704   8.782  10.842   8.352
 2715POPC   C3A35705   8.859  10.535   8.017
 2715POPC   C4A35706   8.970  10.685   7.585
 2715POPC   C1B35707   9.119  10.368   8.501
 2715POPC   C2B35708   9.370  10.533   8.251
 2715POPC   C3B35709   9.347  10.368   7.860
 2715POPC   C4B35710   8.998  10.170   7.633
 2716POPC   NC335711  34.713  41.588   9.594
 2716POPC   PO435712  34.665  42.210   9.644
 2716POPC   GL135713  34.418  41.821   9.263
 2716POPC   GL235714  34.613  41.484   9.125
 2716POPC   C1A35715  34.488  41.772   8.767
 2716POPC   D2A35716  34.454  41.555   8.402
 2716POPC   C3A35717  34.771  41.562   8.091
 2716POPC   C4A35718  34.510  41.597   7.740
 2716POPC   C1B35719  34.378  41.236   8.810
 2716POPC   C2B35720  34.555  41.060   8.441
 2716POPC   C3B35721  34.485  41.140   8.019
 2716POPC   C4B35722  34.599  41.129   7.590
 2717POPC   NC335723  23.832  35.788   9.873
 2717POPC   PO435724  23.813  36.236   9.388
 2717POPC   GL135725  23.634  36.181   9.021
 2717POPC   GL235726  23.724  35.859   8.966
 2717POPC   C1A35727  23.633  36.133   8.560
 2717POPC   D2A35728  23.357  36.030   8.236
 2717POPC   C3A35729  23.557  36.097   7.867
 2717POPC   C4A35730  23.954  36.350   7.904
 2717POPC   C1B35731  23.705  35.635   8.621
 2717POPC   C2B35732  23.987  35.777   8.331
 2717POPC   C3B35733  24.103  35.658   7.949
 2717POPC   C4B35734  24.000  35.918   7.664
 2718POPC   NC335735   1.856  39.558   9.313
 2718POPC   PO435736   1.962  38.972   9.663
 2718POPC   GL135737   2.056  39.090   9.223
 2718POPC   GL235738   2.262  39.376   9.042
 2718POPC   C1A35739   1.805  39.123   8.838
 2718POPC   D2A35740   1.762  39.083   8.408
 2718POPC   C3A35741   2.105  38.925   8.201
 2718POPC   C4A35742   2.248  39.052   7.789
 2718POPC   C1B35743   2.240  39.301   8.589
 2718POPC   C2B35744   2.178  39.423   8.169
 2718POPC   C3B35745   1.839  39.303   7.922
 2718POPC   C4B35746   1.734  39.475   7.529
 2719POPC   NC335747  20.978  28.906   9.402
 2719POPC   PO435748  20.410  29.261   9.687
 2719POPC   GL135749  20.523  29.132   9.268
 2719POPC   GL235750  20.462  29.439   9.124
 2719POPC   C1A35751  20.672  29.087   8.812
 2719POPC   D2A35752  20.538  29.265   8.409
 2719POPC   C3A35753  20.809  29.279   8.046
 2719POPC   C4A35754  20.849  29.042   7.666
 2719POPC   C1B35755  20.228  29.611   8.803
 2719POPC   C2B35756  20.308  29.755   8.399
 2719POPC   C3B35757  20.404  29.585   8.024
 2719POPC   C4B35758  20.606  29.488   7.627
 2720POPC   NC335759  29.553   3.699   9.490
 2720POPC   PO435760  30.030   3.341   9.411
 2720POPC   GL135761  30.014   3.548   9.049
 2720POPC   GL235762  29.878   3.881   9.125
 2720POPC   C1A35763  30.093   3.492   8.617
 2720POPC   D2A35764  30.213   3.590   8.196
 2720POPC   C3A35765  29.949   3.320   7.950
 2720POPC   C4A35766  29.807   3.416   7.536
 2720POPC   C1B35767  29.659   3.785   8.741
 2720POPC   C2B35768  29.696   3.649   8.305
 2720POPC   C3B35769  29.828   3.803   7.895
 2720POPC   C4B35770  29.627   3.916   7.498
 2721POPC   NC335771   2.999  10.817   9.600
 2721POPC   PO435772   2.796  10.241   9.846
 2721POPC   GL135773   2.891  10.382   9.361
 2721POPC   GL235774   2.640  10.661   9.245
 2721POPC   C1A35775   2.971  10.373   8.886
 2721POPC   D2A35776   2.802  10.539   8.474
 2721POPC   C3A35777   2.946  10.373   8.054
 2721POPC   C4A35778   2.978  10.583   7.653
 2721POPC   C1B35779   2.397  10.610   8.859
 2721POPC   C2B35780   2.302  10.666   8.412
 2721POPC   C3B35781   2.526  10.696   8.033
 2721POPC   C4B35782   2.502  10.371   7.755
 2722POPC   NC335783  11.378   8.277   9.384
 2722POPC   PO435784  11.016   7.701   9.173
 2722POPC   GL135785  11.291   7.967   8.972
 2722POPC   GL235786  11.642   7.983   9.048
 2722POPC   C1A35787  11.424   8.030   8.569
 2722POPC   D2A35788  11.389   8.356   8.332
 2722POPC   C3A35789  11.357   8.167   7.988
 2722POPC   C4A35790  11.109   8.109   7.634
 2722POPC   C1B35791  11.744   8.336   8.809
 2722POPC   C2B35792  11.883   8.303   8.410
 2722POPC   C3B35793  11.810   8.523   8.080
 2722POPC   C4B35794  11.686   8.434   7.698
 2723POPC   NC335795  36.039  14.221   9.834
 2723POPC   PO435796  36.116  13.700   9.468
 2723POPC   GL135797  36.144  13.534   9.098
 2723POPC   GL235798  35.941  13.247   9.186
 2723POPC   C1A35799  36.204  13.775   8.729
 2723POPC   D2A35800  35.905  13.972   8.459
 2723POPC   C3A35801  35.991  13.836   8.079
 2723POPC   C4A35802  36.208  13.783   7.734
 2723POPC   C1B35803  36.040  13.169   8.751
 2723POPC   C2B35804  36.069  13.407   8.366
 2723POPC   C3B35805  35.990  13.330   7.922
 2723POPC   C4B35806  36.156  13.269   7.510
 2724POPC   NC335807  32.501  10.188   9.626
 2724POPC   PO435808  31.925  10.025   9.388
 2724POPC   GL135809  32.119   9.760   9.118
 2724POPC   GL235810  32.349  10.043   9.063
 2724POPC   C1A35811  32.120   9.579   8.700
 2724POPC   D2A35812  32.428   9.575   8.375
 2724POPC   C3A35813  32.259   9.663   7.977
 2724POPC   C4A35814  31.917   9.483   7.753
 2724POPC   C1B35815  32.370  10.068   8.616
 2724POPC   C2B35816  32.226  10.164   8.201
 2724POPC   C3B35817  32.473  10.111   7.833
 2724POPC   C4B35818  32.514  10.068   7.387
 2725POPC   NC335819  38.698  11.889   9.542
 2725POPC   PO435820  38.090  12.280   9.403
 2725POPC   GL135821  38.211  12.078   9.059
 2725POPC   GL235822  38.413  11.846   9.140
 2725POPC   C1A35823  38.481  12.100   8.681
 2725POPC   D2A35824  38.455  12.323   8.291
 2725POPC   C3A35825  38.296  12.094   7.926
 2725POPC   C4A35826  38.372  12.177   7.462
 2725POPC   C1B35827  38.693  11.637   8.841
 2725POPC   C2B35828  38.842  11.700   8.434
 2725POPC   C3B35829  38.735  11.585   8.028
 2725POPC   C4B35830  38.614  11.793   7.681
 2726POPC   NC335831  20.219   4.914   9.523
 2726POPC   PO435832  20.868   5.072   9.578
 2726POPC   GL135833  20.687   5.036   9.203
 2726POPC   GL235834  20.870   4.757   9.160
 2726POPC   C1A35835  20.627   5.114   8.775
 2726POPC   D2A35836  20.755   5.080   8.357
 2726POPC   C3A35837  20.482   4.997   8.028
 2726POPC   C4A35838  20.416   5.306   7.744
 2726POPC   C1B35839  21.070   4.833   8.790
 2726POPC   C2B35840  21.087   4.677   8.414
 2726POPC   C3B35841  21.095   4.884   8.033
 2726POPC   C4B35842  20.879   5.040   7.708
 2727POPC   NC335843  24.282   6.413   9.506
 2727POPC   PO435844  24.723   6.951   9.457
 2727POPC   GL135845  24.444   6.754   9.171
 2727POPC   GL235846  24.633   6.435   9.143
 2727POPC   C1A35847  24.245   6.636   8.777
 2727POPC   D2A35848  24.143   6.853   8.430
 2727POPC   C3A35849  24.340   6.679   8.043
 2727POPC   C4A35850  24.548   6.862   7.654
 2727POPC   C1B35851  24.512   6.202   8.790
 2727POPC   C2B35852  24.346   6.282   8.408
 2727POPC   C3B35853  24.590   6.230   8.083
 2727POPC   C4B35854  24.451   6.252   7.679
 2728POPC   NC335855  22.360   1.123   9.413
 2728POPC   PO435856  21.839   1.600   9.405
 2728POPC   GL135857  22.062   1.519   9.011
 2728POPC   GL235858  22.397   1.414   8.992
 2728POPC   C1A35859  22.082   1.289   8.607
 2728POPC   D2A35860  21.869   1.204   8.228
 2728POPC   C3A35861  22.029   1.094   7.826
 2728POPC   C4A35862  21.776   1.142   7.443
 2728POPC   C1B35863  22.488   1.608   8.578
 2728POPC   C2B35864  22.369   1.430   8.185
 2728POPC   C3B35865  22.539   1.285   7.851
 2728POPC   C4B35866  22.494   0.934   7.630
 2729POPC   NC335867   3.808  37.655   9.510
 2729POPC   PO435868   3.171  37.487   9.624
 2729POPC   GL135869   3.404  37.576   9.145
 2729POPC   GL235870   3.756  37.674   9.027
 2729POPC   C1A35871   3.484  37.707   8.640
 2729POPC   D2A35872   3.594  37.447   8.287
 2729POPC   C3A35873   3.521  37.649   7.907
 2729POPC   C4A35874   3.179  37.898   7.823
 2729POPC   C1B35875   4.046  37.595   8.681
 2729POPC   C2B35876   4.133  37.440   8.272
 2729POPC   C3B35877   3.957  37.376   7.903
 2729POPC   C4B35878   3.895  37.531   7.498
 2730POPC   NC335879  34.342  44.931   9.489
 2730POPC   PO435880  33.740  44.569   9.556
 2730POPC   GL135881  33.863  44.558   9.150
 2730POPC   GL235882  33.927  44.901   9.174
 2730POPC   C1A35883  33.763  44.642   8.711
 2730POPC   D2A35884  33.914  44.546   8.301
 2730POPC   C3A35885  33.592  44.548   7.959
 2730POPC   C4A35886  33.515  44.828   7.630
 2730POPC   C1B35887  34.197  44.876   8.835
 2730POPC   C2B35888  34.409  44.778   8.455
 2730POPC   C3B35889  34.323  44.891   8.044
 2730POPC   C4B35890  34.060  44.608   7.805
 2731POPC   NC335891  14.155  29.988   9.520
 2731POPC   PO435892  14.776  30.356   9.600
 2731POPC   GL135893  14.700  30.141   9.169
 2731POPC   GL235894  14.399  29.910   9.094
 2731POPC   C1A35895  14.683  30.013   8.706
 2731POPC   D2A35896  14.350  29.996   8.398
 2731POPC   C3A35897  14.482  29.965   8.005
 2731POPC   C4A35898  14.509  30.270   7.698
 2731POPC   C1B35899  14.363  29.624   8.728
 2731POPC   C2B35900  14.360  29.407   8.294
 2731POPC   C3B35901  14.384  29.488   7.838
 2731POPC   C4B35902  14.362  29.436   7.381
 2732POPC   NC335903  11.705   9.837   9.485
 2732POPC   PO435904  11.939   9.134   9.427
 2732POPC   GL135905  12.124   9.490   9.162
 2732POPC   GL235906  11.893   9.750   9.042
 2732POPC   C1A35907  12.322   9.757   8.795
 2732POPC   D2A35908  12.120  10.026   8.464
 2732POPC   C3A35909  12.310   9.990   8.044
 2732POPC   C4A35910  12.241   9.724   7.705
 2732POPC   C1B35911  11.693   9.989   8.754
 2732POPC   C2B35912  11.613   9.816   8.358
 2732POPC   C3B35913  11.823   9.849   8.013
 2732POPC   C4B35914  11.869  10.049   7.671
 2733POPC   NC335915  16.044  13.770   9.479
 2733POPC   PO435916  15.801  13.177   9.523
 2733POPC   GL135917  15.760  13.425   9.138
 2733POPC   GL235918  16.097  13.564   9.005
 2733POPC   C1A35919  15.670  13.486   8.688
 2733POPC   D2A35920  15.724  13.327   8.257
 2733POPC   C3A35921  15.970  13.587   7.950
 2733POPC   C4A35922  15.788  13.705   7.560
 2733POPC   C1B35923  16.326  13.853   8.687
 2733POPC   C2B35924  16.318  14.166   8.348
 2733POPC   C3B35925  16.392  14.054   7.917
 2733POPC   C4B35926  16.289  13.803   7.589
 2734POPC   NC335927   3.840  17.012   9.459
 2734POPC   PO435928   3.389  16.512   9.555
 2734POPC   GL135929   3.391  16.780   9.185
 2734POPC   GL235930   3.708  16.799   9.011
 2734POPC   C1A35931   3.244  16.830   8.760
 2734POPC   D2A35932   3.520  16.736   8.406
 2734POPC   C3A35933   3.400  16.855   7.993
 2734POPC   C4A35934   3.651  17.187   7.801
 2734POPC   C1B35935   3.872  16.474   8.749
 2734POPC   C2B35936   3.999  16.552   8.318
 2734POPC   C3B35937   3.898  16.726   7.915
 2734POPC   C4B35938   3.798  16.494   7.509
 2735POPC   NC335939  36.615   5.152   9.548
 2735POPC   PO435940  37.256   5.390   9.500
 2735POPC   GL135941  37.012   5.121   9.163
 2735POPC   GL235942  36.657   4.967   9.087
 2735POPC   C1A35943  36.983   5.010   8.717
 2735POPC   D2A35944  37.218   5.042   8.365
 2735POPC   C3A35945  36.875   4.988   8.091
 2735POPC   C4A35946  36.756   5.224   7.745
 2735POPC   C1B35947  36.588   4.666   8.737
 2735POPC   C2B35948  36.796   4.492   8.417
 2735POPC   C3B35949  36.606   4.566   8.034
 2735POPC   C4B35950  36.734   4.743   7.642
 2736POPC   NC335951  38.831  43.653   9.443
 2736POPC   PO435952  38.213  43.698   9.452
 2736POPC   GL135953  38.387  43.967   9.131
 2736POPC   GL235954  38.192  43.805   8.918
 2736POPC   C1A35955  38.475  44.141   8.664
 2736POPC   D2A35956  38.157  44.215   8.316
 2736POPC   C3A35957  38.114  43.861   8.009
 2736POPC   C4A35958  38.141  43.773   7.602
 2736POPC   C1B35959  38.637  43.686   8.796
 2736POPC   C2B35960  38.796  43.494   8.432
 2736POPC   C3B35961  38.676  43.517   8.016
 2736POPC   C4B35962  38.655  43.752   7.622
 2737POPC   NC335963  23.163  37.271   9.454
 2737POPC   PO435964  22.885  36.684   9.380
 2737POPC   GL135965  23.036  36.955   9.075
 2737POPC   GL235966  22.737  37.126   9.102
 2737POPC   C1A35967  23.199  37.049   8.673
 2737POPC   D2A35968  23.116  36.807   8.292
 2737POPC   C3A35969  23.219  36.981   7.858
 2737POPC   C4A35970  23.224  36.972   7.354
 2737POPC   C1B35971  22.706  36.873   8.680
 2737POPC   C2B35972  22.535  37.039   8.285
 2737POPC   C3B35973  22.713  37.060   7.855
 2737POPC   C4B35974  22.864  36.706   7.598
 2738POPC   NC335975  14.209  13.986   9.453
 2738POPC   PO435976  14.748  14.409   9.364
 2738POPC   GL135977  14.476  14.385   8.992
 2738POPC   GL235978  14.263  14.710   8.873
 2738POPC   C1A35979  14.644  14.491   8.596
 2738POPC   D2A35980  14.561  14.675   8.209
 2738POPC   C3A35981  14.564  14.406   7.808
 2738POPC   C4A35982  14.708  14.375   7.377
 2738POPC   C1B35983  14.137  14.372   8.612
 2738POPC   C2B35984  13.893  14.323   8.292
 2738POPC   C3B35985  14.051  14.372   7.925
 2738POPC   C4B35986  13.928  14.166   7.599
 2739POPC   NC335987   7.990  21.061   9.313
 2739POPC   PO435988   8.211  20.387   9.453
 2739POPC   GL135989   8.340  20.506   9.094
 2739POPC   GL235990   8.418  20.857   9.057
 2739POPC   C1A35991   8.416  20.358   8.702
 2739POPC   D2A35992   8.606  20.461   8.329
 2739POPC   C3A35993   8.387  20.282   7.984
 2739POPC   C4A35994   8.220  20.510   7.657
 2739POPC   C1B35995   8.080  20.771   8.748
 2739POPC   C2B35996   7.955  20.890   8.372
 2739POPC   C3B35997   8.152  20.879   7.992
 2739POPC   C4B35998   7.964  21.182   7.739
 2740POPC   NC335999  29.168   8.725   9.573
 2740POPC   PO436000  29.265   9.369   9.702
 2740POPC   GL136001  29.175   9.193   9.301
 2740POPC   GL236002  29.452   8.948   9.192
 2740POPC   C1A36003  29.065   9.075   8.866
 2740POPC   D2A36004  29.209   8.879   8.465
 2740POPC   C3A36005  29.096   9.021   8.051
 2740POPC   C4A36006  29.094   8.856   7.662
 2740POPC   C1B36007  29.642   8.926   8.768
 2740POPC   C2B36008  29.662   8.655   8.379
 2740POPC   C3B36009  29.636   8.778   7.946
 2740POPC   C4B36010  29.529   9.118   7.676
 2741POPC   NC336011  34.710   5.813   9.547
 2741POPC   PO436012  34.959   6.372   9.216
 2741POPC   GL136013  34.689   6.043   9.088
 2741POPC   GL236014  34.804   5.685   9.059
 2741POPC   C1A36015  34.610   6.046   8.685
 2741POPC   D2A36016  34.800   6.223   8.398
 2741POPC   C3A36017  34.636   6.146   8.037
 2741POPC   C4A36018  34.480   6.041   7.657
 2741POPC   C1B36019  34.418   5.622   8.847
 2741POPC   C2B36020  34.519   5.598   8.417
 2741POPC   C3B36021  34.488   5.645   7.981
 2741POPC   C4B36022  34.351   5.561   7.546
 2742POPC   NC336023  26.692  35.693   9.472
 2742POPC   PO436024  26.979  35.188   9.400
 2742POPC   GL136025  26.614  35.332   9.109
 2742POPC   GL236026  26.336  35.640   9.123
 2742POPC   C1A36027  26.716  35.265   8.696
 2742POPC   D2A36028  27.045  35.207   8.398
 2742POPC   C3A36029  26.916  35.173   7.988
 2742POPC   C4A36030  27.045  35.410   7.636
 2742POPC   C1B36031  26.531  35.738   8.726
 2742POPC   C2B36032  26.680  35.582   8.302
 2742POPC   C3B36033  26.676  35.635   7.893
 2742POPC   C4B36034  26.376  35.720   7.603
 2743POPC   NC336035  13.270   1.244   9.446
 2743POPC   PO436036  13.855   0.931   9.477
 2743POPC   GL136037  13.613   0.999   9.149
 2743POPC   GL236038  13.791   1.268   8.994
 2743POPC   C1A36039  13.493   0.946   8.729
 2743POPC   D2A36040  13.751   1.230   8.449
 2743POPC   C3A36041  13.731   1.228   8.001
 2743POPC   C4A36042  13.373   1.093   7.766
 2743POPC   C1B36043  13.422   1.451   8.795
 2743POPC   C2B36044  13.409   1.621   8.380
 2743POPC   C3B36045  13.358   1.572   7.934
 2743POPC   C4B36046  13.557   1.472   7.508
 2744POPC   NC336047   5.169  15.300   9.513
 2744POPC   PO436048   4.700  15.698   9.427
 2744POPC   GL136049   4.872  15.370   9.106
 2744POPC   GL236050   5.001  15.000   9.150
 2744POPC   C1A36051   5.150  15.324   8.763
 2744POPC   D2A36052   5.208  15.452   8.336
 2744POPC   C3A36053   4.832  15.397   8.084
 2744POPC   C4A36054   4.856  15.246   7.684
 2744POPC   C1B36055   4.966  14.784   8.784
 2744POPC   C2B36056   5.201  14.905   8.429
 2744POPC   C3B36057   5.111  14.965   8.035
 2744POPC   C4B36058   5.293  14.924   7.640
 2745POPC   NC336059  38.086  27.756   9.252
 2745POPC   PO436060  38.645  27.573   9.581
 2745POPC   GL136061  38.746  27.684   9.168
 2745POPC   GL236062  38.469  27.452   9.090
 2745POPC   C1A36063  38.650  27.731   8.698
 2745POPC   D2A36064  38.606  27.371   8.408
 2745POPC   C3A36065  38.398  27.342   8.023
 2745POPC   C4A36066  38.675  27.416   7.663
 2745POPC   C1B36067  38.208  27.446   8.714
 2745POPC   C2B36068  38.227  27.744   8.357
 2745POPC   C3B36069  38.296  27.884   7.919
 2745POPC   C4B36070  38.280  27.708   7.504
 2746POPC   NC336071  11.533  24.989   9.788
 2746POPC   PO436072  11.387  24.435   9.434
 2746POPC   GL136073  11.246  24.437   9.042
 2746POPC   GL236074  11.571  24.544   8.955
 2746POPC   C1A36075  11.167  24.561   8.624
 2746POPC   D2A36076  11.432  24.467   8.273
 2746POPC   C3A36077  11.298  24.237   7.916
 2746POPC   C4A36078  10.951  24.120   7.673
 2746POPC   C1B36079  11.618  24.846   8.610
 2746POPC   C2B36080  11.767  24.842   8.191
 2746POPC   C3B36081  11.658  24.603   7.808
 2746POPC   C4B36082  11.550  24.745   7.373
 2747POPC   NC336083  24.167  31.114   9.408
 2747POPC   PO436084  24.773  31.007   9.181
 2747POPC   GL136085  24.453  30.855   8.989
 2747POPC   GL236086  24.290  30.622   9.212
 2747POPC   C1A36087  24.560  30.815   8.563
 2747POPC   D2A36088  24.921  30.648   8.320
 2747POPC   C3A36089  24.779  30.575   7.896
 2747POPC   C4A36090  24.367  30.781   7.753
 2747POPC   C1B36091  24.266  30.357   8.826
 2747POPC   C2B36092  24.464  30.342   8.427
 2747POPC   C3B36093  24.243  30.318   8.046
 2747POPC   C4B36094  24.439  30.266   7.647
 2748POPC   NC336095  29.961  20.863   9.327
 2748POPC   PO436096  30.157  21.509   9.436
 2748POPC   GL136097  30.005  21.339   9.097
 2748POPC   GL236098  30.185  21.050   8.911
 2748POPC   C1A36099  30.028  21.516   8.718
 2748POPC   D2A36100  30.084  21.294   8.367
 2748POPC   C3A36101  30.026  21.584   8.068
 2748POPC   C4A36102  29.904  21.638   7.665
 2748POPC   C1B36103  29.750  21.053   8.751
 2748POPC   C2B36104  29.602  20.972   8.374
 2748POPC   C3B36105  29.853  20.980   8.044
 2748POPC   C4B36106  29.797  21.145   7.648
 2749POPC   NC336107  10.930  29.613   9.865
 2749POPC   PO436108  10.623  30.005   9.419
 2749POPC   GL136109  10.570  29.940   8.998
 2749POPC   GL236110  10.329  29.693   9.063
 2749POPC   C1A36111  10.525  29.891   8.550
 2749POPC   D2A36112  10.231  30.011   8.216
 2749POPC   C3A36113  10.490  30.146   7.887
 2749POPC   C4A36114  10.496  30.100   7.467
 2749POPC   C1B36115  10.138  29.505   8.716
 2749POPC   C2B36116  10.302  29.492   8.331
 2749POPC   C3B36117  10.569  29.664   8.031
 2749POPC   C4B36118  10.299  29.655   7.686
 2750POPC   NC336119  22.566  31.546   9.478
 2750POPC   PO436120  23.209  31.755   9.414
 2750POPC   GL136121  22.953  31.500   9.126
 2750POPC   GL236122  22.642  31.640   9.000
 2750POPC   C1A36123  23.109  31.357   8.746
 2750POPC   D2A36124  23.210  31.671   8.417
 2750POPC   C3A36125  23.050  31.685   8.053
 2750POPC   C4A36126  23.140  31.555   7.688
 2750POPC   C1B36127  22.730  31.661   8.600
 2750POPC   C2B36128  22.811  31.322   8.328
 2750POPC   C3B36129  22.826  31.208   7.911
 2750POPC   C4B36130  22.709  31.370   7.467
 2751POPC   NC336131  33.337  29.639   9.656
 2751POPC   PO436132  32.996  30.182   9.515
 2751POPC   GL136133  32.987  30.064   9.084
 2751POPC   GL236134  32.768  29.766   9.071
 2751POPC   C1A36135  32.920  30.141   8.632
 2751POPC   D2A36136  32.909  30.322   8.205
 2751POPC   C3A36137  32.906  29.928   7.972
 2751POPC   C4A36138  32.750  29.490   7.927
 2751POPC   C1B36139  33.108  29.665   8.777
 2751POPC   C2B36140  33.281  29.605   8.385
 2751POPC   C3B36141  33.273  29.389   8.020
 2751POPC   C4B36142  33.125  29.396   7.603
 2752POPC   NC336143  44.567  19.064   9.428
 2752POPC   PO436144  44.488  18.452   9.692
 2752POPC   GL136145  44.568  18.621   9.207
 2752POPC   GL236146  44.250  18.871   9.091
 2752POPC   C1A36147  44.680  18.800   8.800
 2752POPC   D2A36148  44.888  19.143   8.541
 2752POPC   C3A36149  44.869  19.039   8.081
 2752POPC   C4A36150   0.015  19.018   7.642
 2752POPC   C1B36151  44.360  19.184   8.763
 2752POPC   C2B36152  44.434  18.982   8.362
 2752POPC   C3B36153  44.343  19.120   7.964
 2752POPC   C4B36154  44.513  19.087   7.587
 2753POPC   NC336155  12.995   8.691   9.551
 2753POPC   PO436156  12.529   9.156   9.520
 2753POPC   GL136157  12.772   8.892   9.145
 2753POPC   GL236158  13.125   8.776   9.082
 2753POPC   C1A36159  12.677   8.854   8.724
 2753POPC   D2A36160  12.666   9.136   8.401
 2753POPC   C3A36161  12.630   8.886   8.051
 2753POPC   C4A36162  12.691   8.995   7.666
 2753POPC   C1B36163  13.153   8.613   8.704
 2753POPC   C2B36164  13.054   8.765   8.328
 2753POPC   C3B36165  13.103   8.776   7.890
 2753POPC   C4B36166  13.109   8.780   7.437
 2754POPC   NC336167  18.242  19.377   9.479
 2754POPC   PO436168  18.470  18.755   9.569
 2754POPC   GL136169  18.460  19.013   9.189
 2754POPC   GL236170  18.675  19.353   9.208
 2754POPC   C1A36171  18.188  19.000   8.809
 2754POPC   D2A36172  17.955  19.256   8.498
 2754POPC   C3A36173  18.079  19.016   8.133
 2754POPC   C4A36174  18.126  18.993   7.717
 2754POPC   C1B36175  18.453  19.443   8.811
 2754POPC   C2B36176  18.450  19.232   8.417
 2754POPC   C3B36177  18.373  19.426   8.032
 2754POPC   C4B36178  18.496  19.341   7.632
 2755POPC   NC336179  39.208  12.736   9.569
 2755POPC   PO436180  39.662  13.242   9.562
 2755POPC   GL136181  39.297  13.075   9.208
 2755POPC   GL236182  39.057  12.744   9.099
 2755POPC   C1A36183  39.129  13.122   8.787
 2755POPC   D2A36184  39.124  12.869   8.412
 2755POPC   C3A36185  39.223  13.137   8.041
 2755POPC   C4A36186  39.387  13.199   7.613
 2755POPC   C1B36187  39.431  12.628   8.850
 2755POPC   C2B36188  39.474  12.441   8.433
 2755POPC   C3B36189  39.352  12.595   8.002
 2755POPC   C4B36190  39.096  12.385   7.667
 2756POPC   NC336191  41.126  19.732   9.337
 2756POPC   PO436192  41.743  19.711   9.501
 2756POPC   GL136193  41.562  19.764   9.093
 2756POPC   GL236194  41.440  20.048   8.997
 2756POPC   C1A36195  41.641  19.736   8.656
 2756POPC   D2A36196  41.847  19.724   8.277
 2756POPC   C3A36197  41.540  19.476   8.071
 2756POPC   C4A36198  41.391  19.542   7.642
 2756POPC   C1B36199  41.221  20.309   8.708
 2756POPC   C2B36200  41.088  20.166   8.297
 2756POPC   C3B36201  41.330  19.958   7.954
 2756POPC   C4B36202  41.534  20.097   7.558
 2757POPC   NC336203  38.494   5.152   9.550
 2757POPC   PO436204  38.571   4.597   9.475
 2757POPC   GL136205  38.539   4.845   9.118
 2757POPC   GL236206  38.215   4.963   9.087
 2757POPC   C1A36207  38.691   5.097   8.761
 2757POPC   D2A36208  38.511   5.238   8.364
 2757POPC   C3A36209  38.640   5.136   7.955
 2757POPC   C4A36210  38.522   5.348   7.589
 2757POPC   C1B36211  38.257   4.858   8.653
 2757POPC   C2B36212  38.234   4.857   8.187
 2757POPC   C3B36213  38.217   4.847   7.768
 2757POPC   C4B36214  38.499   4.797   7.456
 2758POPC   NC336215   2.659  28.613   9.540
 2758POPC   PO436216   2.843  29.160   9.755
 2758POPC   GL136217   2.903  29.142   9.304
 2758POPC   GL236218   2.990  28.812   9.194
 2758POPC   C1A36219   2.749  29.359   8.941
 2758POPC   D2A36220   2.835  29.384   8.492
 2758POPC   C3A36221   2.527  29.402   8.168
 2758POPC   C4A36222   2.739  29.361   7.776
 2758POPC   C1B36223   2.900  28.904   8.773
 2758POPC   C2B36224   2.649  28.887   8.433
 2758POPC   C3B36225   2.786  28.958   8.063
 2758POPC   C4B36226   2.806  28.878   7.622
 2759POPC   NC336227  38.259  40.304   9.441
 2759POPC   PO436228  38.890  39.838   9.428
 2759POPC   GL136229  38.617  39.775   9.065
 2759POPC   GL236230  38.325  40.022   9.018
 2759POPC   C1A36231  38.579  39.832   8.621
 2759POPC   D2A36232  38.333  40.081   8.376
 2759POPC   C3A36233  38.535  40.127   8.030
 2759POPC   C4A36234  38.411  40.009   7.667
 2759POPC   C1B36235  38.034  40.277   8.735
 2759POPC   C2B36236  38.069  40.518   8.343
 2759POPC   C3B36237  38.000  40.309   7.954
 2759POPC   C4B36238  38.056  40.326   7.503
 2760POPC   NC336239  13.616   7.344   9.436
 2760POPC   PO436240  13.597   8.008   9.431
 2760POPC   GL136241  13.631   7.742   9.087
 2760POPC   GL236242  13.327   7.522   9.037
 2760POPC   C1A36243  13.707   7.625   8.664
 2760POPC   D2A36244  13.582   7.414   8.289
 2760POPC   C3A36245  13.850   7.406   7.938
 2760POPC   C4A36246  13.744   7.686   7.656
 2760POPC   C1B36247  13.504   7.137   8.823
 2760POPC   C2B36248  13.506   6.921   8.441
 2760POPC   C3B36249  13.293   7.045   8.095
 2760POPC   C4B36250  13.352   7.359   7.774
 2761POPC   NC336251  28.719  11.422   9.487
 2761POPC   PO436252  29.352  11.766   9.473
 2761POPC   GL136253  29.296  11.953   9.076
 2761POPC   GL236254  28.948  12.016   9.062
 2761POPC   C1A36255  29.505  12.013   8.708
 2761POPC   D2A36256  29.504  12.220   8.308
 2761POPC   C3A36257  29.455  11.988   7.919
 2761POPC   C4A36258  29.135  12.168   7.700
 2761POPC   C1B36259  29.038  12.177   8.622
 2761POPC   C2B36260  28.971  12.168   8.197
 2761POPC   C3B36261  28.665  12.217   7.873
 2761POPC   C4B36262  28.658  12.334   7.428
 2762POPC   NC336263  26.076  17.931   9.578
 2762POPC   PO436264  26.240  18.500   9.221
 2762POPC   GL136265  25.941  18.203   9.140
 2762POPC   GL236266  26.177  17.971   9.079
 2762POPC   C1A36267  25.872  18.181   8.701
 2762POPC   D2A36268  26.015  18.038   8.324
 2762POPC   C3A36269  26.130  18.382   8.060
 2762POPC   C4A36270  26.067  18.516   7.628
 2762POPC   C1B36271  26.348  17.891   8.702
 2762POPC   C2B36272  26.527  17.997   8.302
 2762POPC   C3B36273  26.284  17.895   7.913
 2762POPC   C4B36274  25.887  18.060   7.742
 2763POPC   NC336275   6.272  31.933   9.423
 2763POPC   PO436276   5.675  32.254   9.571
 2763POPC   GL136277   5.805  32.334   9.157
 2763POPC   GL236278   5.988  32.033   9.011
 2763POPC   C1A36279   5.886  32.441   8.740
 2763POPC   D2A36280   5.948  32.207   8.387
 2763POPC   C3A36281   6.062  32.453   8.078
 2763POPC   C4A36282   5.829  32.330   7.716
 2763POPC   C1B36283   6.335  32.127   8.696
 2763POPC   C2B36284   6.379  31.899   8.301
 2763POPC   C3B36285   6.131  31.969   7.943
 2763POPC   C4B36286   5.852  31.838   7.622
 2764POPC   NC336287  28.607  26.657   9.363
 2764POPC   PO436288  28.365  27.232   9.471
 2764POPC   GL136289  28.371  27.058   9.054
 2764POPC   GL236290  28.107  26.819   8.973
 2764POPC   C1A36291  28.334  27.090   8.588
 2764POPC   D2A36292  28.182  26.805   8.275
 2764POPC   C3A36293  28.239  27.021   7.895
 2764POPC   C4A36294  28.165  27.059   7.454
 2764POPC   C1B36295  28.435  26.617   8.730
 2764POPC   C2B36296  28.703  26.776   8.420
 2764POPC   C3B36297  28.721  26.877   7.995
 2764POPC   C4B36298  28.582  26.758   7.581
 2765POPC   NC336299  28.726  33.260   9.423
 2765POPC   PO436300  28.653  32.565   9.424
 2765POPC   GL136301  28.843  32.773   9.050
 2765POPC   GL236302  29.201  32.897   9.011
 2765POPC   C1A36303  28.883  33.060   8.684
 2765POPC   D2A36304  29.151  33.120   8.344
 2765POPC   C3A36305  28.966  33.323   8.027
 2765POPC   C4A36306  29.185  33.071   7.763
 2765POPC   C1B36307  29.409  33.245   8.774
 2765POPC   C2B36308  29.659  33.262   8.405
 2765POPC   C3B36309  29.599  33.252   7.975
 2765POPC   C4B36310  29.580  33.305   7.503
 2766POPC   NC336311  39.507  12.042   9.591
 2766POPC   PO436312  38.910  12.326   9.504
 2766POPC   GL136313  39.244  12.254   9.211
 2766POPC   GL236314  39.065  11.940   9.109
 2766POPC   C1A36315  39.460  12.071   8.821
 2766POPC   D2A36316  39.308  11.906   8.428
 2766POPC   C3A36317  39.429  12.092   8.035
 2766POPC   C4A36318  39.548  12.186   7.603
 2766POPC   C1B36319  38.984  12.297   8.779
 2766POPC   C2B36320  38.968  12.377   8.334
 2766POPC   C3B36321  38.888  12.078   8.024
 2766POPC   C4B36322  39.130  11.845   7.711
 2767POPC   NC336323  38.147  35.250   9.267
 2767POPC   PO436324  37.469  35.435   9.521
 2767POPC   GL136325  37.540  35.466   9.111
 2767POPC   GL236326  37.865  35.642   9.152
 2767POPC   C1A36327  37.670  35.161   8.761
 2767POPC   D2A36328  37.481  35.064   8.361
 2767POPC   C3A36329  37.722  35.063   7.977
 2767POPC   C4A36330  37.478  35.102   7.609
 2767POPC   C1B36331  37.834  35.631   8.737
 2767POPC   C2B36332  37.498  35.569   8.446
 2767POPC   C3B36333  37.594  35.558   8.027
 2767POPC   C4B36334  37.759  35.528   7.633
 2768POPC   NC336335  35.228  22.617   9.474
 2768POPC   PO436336  35.412  21.955   9.445
 2768POPC   GL136337  35.445  22.297   9.167
 2768POPC   GL236338  35.471  22.118   8.928
 2768POPC   C1A36339  35.241  22.534   8.813
 2768POPC   D2A36340  35.316  22.318   8.431
 2768POPC   C3A36341  35.141  22.486   8.065
 2768POPC   C4A36342  35.229  22.376   7.648
 2768POPC   C1B36343  35.043  22.043   8.797
 2768POPC   C2B36344  34.962  21.834   8.435
 2768POPC   C3B36345  35.263  21.871   8.132
 2768POPC   C4B36346  35.482  21.943   7.764
 2769POPC   NC336347   6.488  38.005   9.486
 2769POPC   PO436348   6.603  37.223   9.609
 2769POPC   GL136349   6.450  37.526   9.248
 2769POPC   GL236350   6.726  37.691   9.147
 2769POPC   C1A36351   6.404  37.448   8.791
 2769POPC   D2A36352   6.704  37.340   8.422
 2769POPC   C3A36353   6.488  37.413   8.030
 2769POPC   C4A36354   6.447  37.794   7.827
 2769POPC   C1B36355   6.687  37.837   8.729
 2769POPC   C2B36356   6.480  37.793   8.370
 2769POPC   C3B36357   6.844  37.833   8.119
 2769POPC   C4B36358   7.010  37.967   7.709
 2770POPC   NC336359  14.983  21.561   9.478
 2770POPC   PO436360  15.535  21.207   9.479
 2770POPC   GL136361  15.363  21.313   9.124
 2770POPC   GL236362  15.043  21.155   9.103
 2770POPC   C1A36363  15.344  21.513   8.740
 2770POPC   D2A36364  15.148  21.350   8.368
 2770POPC   C3A36365  15.300  21.488   7.974
 2770POPC   C4A36366  15.147  21.429   7.592
 2770POPC   C1B36367  14.787  20.976   8.777
 2770POPC   C2B36368  14.890  20.923   8.348
 2770POPC   C3B36369  14.835  21.172   7.957
 2770POPC   C4B36370  14.742  21.123   7.534
 2771POPC   NC336371  32.233   3.694   9.808
 2771POPC   PO436372  32.308   3.083   9.354
 2771POPC   GL136373  32.343   3.202   8.997
 2771POPC   GL236374  31.997   3.253   8.958
 2771POPC   C1A36375  32.524   3.283   8.622
 2771POPC   D2A36376  32.412   3.544   8.326
 2771POPC   C3A36377  32.247   3.368   7.992
 2771POPC   C4A36378  32.449   3.365   7.618
 2771POPC   C1B36379  32.101   3.628   8.714
 2771POPC   C2B36380  31.962   3.736   8.269
 2771POPC   C3B36381  32.033   3.783   7.799
 2771POPC   C4B36382  32.097   3.654   7.351
 2772POPC   NC336383  44.531   1.713   9.377
 2772POPC   PO436384  44.849   2.318   9.494
 2772POPC   GL136385  44.777   2.102   9.151
 2772POPC   GL236386  44.424   2.112   9.062
 2772POPC   C1A36387  44.822   1.890   8.783
 2772POPC   D2A36388  44.624   2.021   8.412
 2772POPC   C3A36389  44.835   1.865   8.045
 2772POPC   C4A36390  44.700   1.721   7.674
 2772POPC   C1B36391  44.189   2.253   8.690
 2772POPC   C2B36392  44.242   2.326   8.266
 2772POPC   C3B36393  44.369   2.069   7.933
 2772POPC   C4B36394  44.347   2.102   7.484
 2773POPC   NC336395  22.263  38.825   9.401
 2773POPC   PO436396  22.081  38.211   9.671
 2773POPC   GL136397  22.074  38.335   9.228
 2773POPC   GL236398  22.352  38.237   9.019
 2773POPC   C1A36399  21.977  38.583   8.833
 2773POPC   D2A36400  21.870  38.378   8.452
 2773POPC   C3A36401  21.940  38.392   8.012
 2773POPC   C4A36402  21.824  38.031   7.759
 2773POPC   C1B36403  22.456  38.501   8.682
 2773POPC   C2B36404  22.370  38.407   8.281
 2773POPC   C3B36405  22.485  38.433   7.868
 2773POPC   C4B36406  22.456  38.697   7.509
 2774POPC   NC336407  31.669  30.510   9.326
 2774POPC   PO436408  31.325  30.989   9.552
 2774POPC   GL136409  31.311  30.857   9.167
 2774POPC   GL236410  31.170  30.510   9.150
 2774POPC   C1A36411  31.137  30.931   8.807
 2774POPC   D2A36412  31.362  30.918   8.466
 2774POPC   C3A36413  31.078  30.874   8.156
 2774POPC   C4A36414  31.252  30.794   7.780
 2774POPC   C1B36415  31.345  30.446   8.725
 2774POPC   C2B36416  31.311  30.398   8.265
 2774POPC   C3B36417  31.526  30.362   7.839
 2774POPC   C4B36418  31.328  30.407   7.416
 2775POPC   NC336419  22.689  33.322   9.446
 2775POPC   PO436420  22.973  32.711   9.481
 2775POPC   GL136421  22.968  32.941   9.116
 2775POPC   GL236422  22.620  32.976   9.076
 2775POPC   C1A36423  23.028  33.049   8.665
 2775POPC   D2A36424  23.186  33.138   8.242
 2775POPC   C3A36425  22.941  33.200   7.863
 2775POPC   C4A36426  23.006  32.844   7.523
 2775POPC   C1B36427  22.604  32.734   8.720
 2775POPC   C2B36428  22.491  32.672   8.327
 2775POPC   C3B36429  22.688  32.783   7.965
 2775POPC   C4B36430  22.544  32.977   7.585
 2776POPC   NC336431   7.229  16.128   9.663
 2776POPC   PO436432   7.764  15.809   9.675
 2776POPC   GL136433   7.680  15.970   9.250
 2776POPC   GL236434   7.327  16.028   9.156
 2776POPC   C1A36435   7.700  15.787   8.823
 2776POPC   D2A36436   7.442  15.737   8.465
 2776POPC   C3A36437   7.540  15.718   8.061
 2776POPC   C4A36438   7.134  15.705   7.847
 2776POPC   C1B36439   7.361  16.181   8.713
 2776POPC   C2B36440   7.287  16.352   8.289
 2776POPC   C3B36441   7.332  16.186   7.876
 2776POPC   C4B36442   7.734  16.231   7.710
 2777POPC   NC336443   7.070  16.947   9.718
 2777POPC   PO436444   7.482  16.450   9.443
 2777POPC   GL136445   7.589  16.728   9.126
 2777POPC   GL236446   7.334  16.975   9.125
 2777POPC   C1A36447   7.525  16.686   8.677
 2777POPC   D2A36448   7.733  16.673   8.285
 2777POPC   C3A36449   7.490  16.681   7.893
 2777POPC   C4A36450   7.634  16.657   7.448
 2777POPC   C1B36451   7.111  16.978   8.739
 2777POPC   C2B36452   7.281  17.042   8.343
 2777POPC   C3B36453   7.186  17.101   7.929
 2777POPC   C4B36454   7.324  17.053   7.509
 2778POPC   NC336455  21.886  26.743   9.460
 2778POPC   PO436456  22.448  26.294   9.556
 2778POPC   GL136457  22.330  26.588   9.227
 2778POPC   GL236458  22.312  26.959   9.245
 2778POPC   C1A36459  22.117  26.581   8.832
 2778POPC   D2A36460  21.940  26.776   8.463
 2778POPC   C3A36461  22.052  26.560   8.104
 2778POPC   C4A36462  22.047  26.712   7.704
 2778POPC   C1B36463  22.194  27.101   8.823
 2778POPC   C2B36464  22.271  27.227   8.401
 2778POPC   C3B36465  22.086  27.178   8.002
 2778POPC   C4B36466  22.359  27.163   7.678
 2779POPC   NC336467  19.446  12.637   9.413
 2779POPC   PO436468  18.993  13.202   9.367
 2779POPC   GL136469  19.105  12.873   9.115
 2779POPC   GL236470  19.418  13.018   9.039
 2779POPC   C1A36471  19.165  12.676   8.716
 2779POPC   D2A36472  19.271  12.536   8.283
 2779POPC   C3A36473  19.060  12.755   7.972
 2779POPC   C4A36474  18.908  12.617   7.588
 2779POPC   C1B36475  19.134  13.205   8.721
 2779POPC   C2B36476  19.014  13.225   8.309
 2779POPC   C3B36477  19.196  13.243   7.913
 2779POPC   C4B36478  18.852  13.163   7.650
 2780POPC   NC336479  13.188  37.704   9.481
 2780POPC   PO436480  13.814  37.911   9.318
 2780POPC   GL136481  13.706  37.893   8.932
 2780POPC   GL236482  13.483  37.595   8.980
 2780POPC   C1A36483  13.669  37.902   8.482
 2780POPC   D2A36484  13.305  37.708   8.311
 2780POPC   C3A36485  13.448  37.557   7.928
 2780POPC   C4A36486  13.768  37.790   7.707
 2780POPC   C1B36487  13.818  37.459   8.690
 2780POPC   C2B36488  13.761  37.342   8.308
 2780POPC   C3B36489  13.920  37.355   7.919
 2780POPC   C4B36490  13.835  37.356   7.439
 2781POPC   NC336491  42.160  34.909   9.362
 2781POPC   PO436492  42.576  35.434   9.475
 2781POPC   GL136493  42.319  35.375   9.178
 2781POPC   GL236494  42.010  35.491   9.315
 2781POPC   C1A36495  42.453  35.359   8.781
 2781POPC   D2A36496  42.381  35.187   8.410
 2781POPC   C3A36497  42.584  35.286   8.050
 2781POPC   C4A36498  42.305  35.126   7.707
 2781POPC   C1B36499  42.018  35.643   8.875
 2781POPC   C2B36500  42.139  35.635   8.450
 2781POPC   C3B36501  42.101  35.446   8.053
 2781POPC   C4B36502  41.961  35.520   7.637
 2782POPC   NC336503   1.344   9.375   9.495
 2782POPC   PO436504   0.789   8.980   9.491
 2782POPC   GL136505   1.099   8.920   9.153
 2782POPC   GL236506   1.332   9.149   9.038
 2782POPC   C1A36507   1.274   8.678   8.804
 2782POPC   D2A36508   1.251   8.487   8.410
 2782POPC   C3A36509   1.254   8.786   8.071
 2782POPC   C4A36510   1.196   8.743   7.654
 2782POPC   C1B36511   1.065   9.177   8.695
 2782POPC   C2B36512   0.878   9.273   8.320
 2782POPC   C3B36513   0.911   9.144   7.891
 2782POPC   C4B36514   1.051   9.202   7.464
 2783POPC   NC336515  31.204  39.642   9.625
 2783POPC   PO436516  31.700  40.142   9.542
 2783POPC   GL136517  31.564  39.961   9.192
 2783POPC   GL236518  31.267  39.892   9.172
 2783POPC   C1A36519  31.607  39.924   8.762
 2783POPC   D2A36520  31.609  40.217   8.434
 2783POPC   C3A36521  31.556  40.018   8.045
 2783POPC   C4A36522  31.631  40.161   7.638
 2783POPC   C1B36523  31.084  39.869   8.757
 2783POPC   C2B36524  31.224  39.791   8.371
 2783POPC   C3B36525  31.124  39.629   7.978
 2783POPC   C4B36526  31.306  39.771   7.664
 2784POPC   NC336527  34.068  40.927   9.422
 2784POPC   PO436528  34.543  40.401   9.439
 2784POPC   GL136529  34.479  40.739   9.159
 2784POPC   GL236530  34.726  40.978   9.078
 2784POPC   C1A36531  34.372  40.692   8.744
 2784POPC   D2A36532  34.298  40.463   8.390
 2784POPC   C3A36533  34.459  40.608   8.027
 2784POPC   C4A36534  34.222  40.804   7.733
 2784POPC   C1B36535  34.893  40.730   8.716
 2784POPC   C2B36536  34.897  40.750   8.259
 2784POPC   C3B36537  35.026  40.598   7.913
 2784POPC   C4B36538  34.928  40.402   7.575
 2785POPC   NC336539  36.821  27.699   9.915
 2785POPC   PO436540  37.370  27.717   9.504
 2785POPC   GL136541  37.114  27.715   9.160
 2785POPC   GL236542  36.790  27.508   9.140
 2785POPC   C1A36543  37.016  27.794   8.739
 2785POPC   D2A36544  36.721  27.537   8.524
 2785POPC   C3A36545  36.839  27.497   8.113
 2785POPC   C4A36546  36.877  27.686   7.740
 2785POPC   C1B36547  37.084  27.293   8.856
 2785POPC   C2B36548  37.151  27.217   8.437
 2785POPC   C3B36549  37.035  27.027   8.074
 2785POPC   C4B36550  36.846  27.167   7.692
 2786POPC   NC336551  22.698  13.403   9.523
 2786POPC   PO436552  23.237  13.754   9.663
 2786POPC   GL136553  23.109  13.612   9.211
 2786POPC   GL236554  22.745  13.552   9.010
 2786POPC   C1A36555  23.165  13.701   8.757
 2786POPC   D2A36556  22.892  13.661   8.396
 2786POPC   C3A36557  23.080  13.378   8.144
 2786POPC   C4A36558  23.341  13.628   7.886
 2786POPC   C1B36559  22.459  13.546   8.615
 2786POPC   C2B36560  22.451  13.390   8.199
 2786POPC   C3B36561  22.684  13.550   7.877
 2786POPC   C4B36562  22.922  13.912   7.902
 2787POPC   NC336563  21.136  34.288   9.380
 2787POPC   PO436564  20.900  33.633   9.190
 2787POPC   GL136565  21.241  33.912   9.014
 2787POPC   GL236566  21.147  34.258   8.883
 2787POPC   C1A36567  21.402  33.859   8.592
 2787POPC   D2A36568  21.261  33.567   8.250
 2787POPC   C3A36569  21.478  33.738   7.910
 2787POPC   C4A36570  21.731  34.095   7.830
 2787POPC   C1B36571  20.942  34.216   8.517
 2787POPC   C2B36572  21.082  34.043   8.139
 2787POPC   C3B36573  21.195  34.124   7.724
 2787POPC   C4B36574  21.007  34.075   7.310
 2788POPC   NC336575   8.587   3.742   9.536
 2788POPC   PO436576   8.480   3.100   9.363
 2788POPC   GL136577   8.161   3.392   9.184
 2788POPC   GL236578   8.371   3.673   9.073
 2788POPC   C1A36579   7.988   3.545   8.759
 2788POPC   D2A36580   8.184   3.501   8.370
 2788POPC   C3A36581   8.011   3.698   8.016
 2788POPC   C4A36582   7.887   3.475   7.641
 2788POPC   C1B36583   8.569   3.742   8.658
 2788POPC   C2B36584   8.392   3.969   8.276
 2788POPC   C3B36585   8.539   3.742   7.935
 2788POPC   C4B36586   8.384   3.589   7.535
 2789POPC   NC336587  12.861  32.319   9.565
 2789POPC   PO436588  12.995  31.673   9.446
 2789POPC   GL136589  13.028  32.043   9.123
 2789POPC   GL236590  13.039  32.443   9.104
 2789POPC   C1A36591  12.772  32.183   8.744
 2789POPC   D2A36592  12.895  32.142   8.310
 2789POPC   C3A36593  12.616  32.180   7.962
 2789POPC   C4A36594  12.598  32.180   7.510
 2789POPC   C1B36595  13.256  32.390   8.727
 2789POPC   C2B36596  13.356  32.629   8.368
 2789POPC   C3B36597  13.182  32.466   8.005
 2789POPC   C4B36598  13.086  32.152   7.734
 2790POPC   NC336599  29.227   0.449   9.519
 2790POPC   PO436600  28.567   0.490   9.476
 2790POPC   GL136601  28.867   0.387   9.113
 2790POPC   GL236602  29.239   0.544   9.025
 2790POPC   C1A36603  28.881   0.528   8.671
 2790POPC   D2A36604  29.202   0.457   8.387
 2790POPC   C3A36605  29.017   0.384   8.029
 2790POPC   C4A36606  28.884   0.392   7.687
 2790POPC   C1B36607  29.446   0.224   8.760
 2790POPC   C2B36608  29.649   0.227   8.369
 2790POPC   C3B36609  29.525   0.366   7.984
 2790POPC   C4B36610  29.343   0.139   7.648
 2791POPC   NC336611  40.557  24.161   9.772
 2791POPC   PO436612  41.106  24.579   9.589
 2791POPC   GL136613  40.725  24.579   9.208
 2791POPC   GL236614  40.555  24.287   9.259
 2791POPC   C1A36615  40.773  24.560   8.727
 2791POPC   D2A36616  41.100  24.509   8.384
 2791POPC   C3A36617  40.879  24.639   8.027
 2791POPC   C4A36618  40.480  24.804   7.904
 2791POPC   C1B36619  40.584  24.122   8.861
 2791POPC   C2B36620  40.603  24.193   8.414
 2791POPC   C3B36621  40.720  24.124   7.979
 2791POPC   C4B36622  40.698  24.383   7.635
 2792POPC   NC336623  13.991  17.215   9.541
 2792POPC   PO436624  13.504  16.764   9.476
 2792POPC   GL136625  13.465  16.732   9.067
 2792POPC   GL236626  13.532  16.405   9.007
 2792POPC   C1A36627  13.454  16.834   8.654
 2792POPC   D2A36628  13.630  16.722   8.289
 2792POPC   C3A36629  13.668  16.983   7.960
 2792POPC   C4A36630  13.516  16.855   7.577
 2792POPC   C1B36631  13.909  16.582   8.747
 2792POPC   C2B36632  14.070  16.481   8.316
 2792POPC   C3B36633  13.896  16.509   7.871
 2792POPC   C4B36634  14.040  16.342   7.452
 2793POPC   NC336635  43.972  36.185   9.426
 2793POPC   PO436636  43.349  36.494   9.489
 2793POPC   GL136637  43.672  36.500   9.078
 2793POPC   GL236638  43.995  36.300   8.952
 2793POPC   C1A36639  43.716  36.429   8.573
 2793POPC   D2A36640  43.787  36.079   8.297
 2793POPC   C3A36641  43.618  36.045   7.887
 2793POPC   C4A36642  43.828  36.254   7.540
 2793POPC   C1B36643  44.087  35.905   8.688
 2793POPC   C2B36644  44.271  35.907   8.304
 2793POPC   C3B36645  44.134  35.982   7.871
 2793POPC   C4B36646  44.376  35.991   7.507
 2794POPC   NC336647  29.421  31.800   9.598
 2794POPC   PO436648  29.647  32.496   9.506
 2794POPC   GL136649  29.772  32.269   9.183
 2794POPC   GL236650  30.050  32.064   9.162
 2794POPC   C1A36651  29.632  32.138   8.811
 2794POPC   D2A36652  29.839  32.096   8.451
 2794POPC   C3A36653  29.609  32.252   8.119
 2794POPC   C4A36654  29.776  32.215   7.722
 2794POPC   C1B36655  30.140  32.367   8.843
 2794POPC   C2B36656  30.056  32.580   8.472
 2794POPC   C3B36657  30.110  32.441   8.062
 2794POPC   C4B36658  30.072  32.629   7.661
 2795POPC   NC336659  17.286  34.850   9.481
 2795POPC   PO436660  17.571  34.249   9.541
 2795POPC   GL136661  17.490  34.351   9.107
 2795POPC   GL236662  17.525  34.686   9.064
 2795POPC   C1A36663  17.759  34.417   8.719
 2795POPC   D2A36664  17.768  34.826   8.565
 2795POPC   C3A36665  17.789  34.821   8.105
 2795POPC   C4A36666  17.749  34.734   7.638
 2795POPC   C1B36667  17.286  34.596   8.709
 2795POPC   C2B36668  17.311  34.767   8.335
 2795POPC   C3B36669  17.283  34.692   7.932
 2795POPC   C4B36670  17.042  34.466   7.689
 2796POPC   NC336671   4.040  38.449   9.415
 2796POPC   PO436672   4.500  38.073   9.595
 2796POPC   GL136673   4.621  38.097   9.145
 2796POPC   GL236674   4.387  38.373   9.031
 2796POPC   C1A36675   4.485  38.052   8.677
 2796POPC   D2A36676   4.234  38.346   8.415
 2796POPC   C3A36677   4.414  38.389   8.021
 2796POPC   C4A36678   4.176  38.323   7.684
 2796POPC   C1B36679   4.325  38.736   8.758
 2796POPC   C2B36680   4.264  38.940   8.395
 2796POPC   C3B36681   4.088  38.789   8.061
 2796POPC   C4B36682   4.304  38.808   7.723
 2797POPC   NC336683  39.706  44.136   9.491
 2797POPC   PO436684  39.179  43.858   9.654
 2797POPC   GL136685  39.364  43.679   9.268
 2797POPC   GL236686  39.573  43.914   9.059
 2797POPC   C1A36687  39.127  43.706   8.861
 2797POPC   D2A36688  38.947  44.006   8.515
 2797POPC   C3A36689  39.013  43.911   8.053
 2797POPC   C4A36690  38.908  44.189   7.667
 2797POPC   C1B36691  39.442  44.033   8.647
 2797POPC   C2B36692  39.287  43.663   8.386
 2797POPC   C3B36693  39.329  43.468   8.025
 2797POPC   C4B36694  39.503  43.357   7.649
 2798POPC   NC336695  43.634  20.453   9.527
 2798POPC   PO436696  42.944  20.610   9.478
 2798POPC   GL136697  43.192  20.658   9.137
 2798POPC   GL236698  43.421  20.390   9.078
 2798POPC   C1A36699  43.053  20.602   8.735
 2798POPC   D2A36700  42.969  20.816   8.371
 2798POPC   C3A36701  43.068  20.606   7.981
 2798POPC   C4A36702  42.827  20.515   7.636
 2798POPC   C1B36703  43.567  20.598   8.731
 2798POPC   C2B36704  43.403  20.498   8.351
 2798POPC   C3B36705  43.548  20.358   7.985
 2798POPC   C4B36706  43.542  20.695   7.738
 2799POPC   NC336707   8.538  24.857   9.299
 2799POPC   PO436708   9.188  25.067   9.524
 2799POPC   GL136709   8.960  25.199   9.157
 2799POPC   GL236710   9.033  25.501   8.950
 2799POPC   C1A36711   8.974  25.046   8.713
 2799POPC   D2A36712   8.903  25.233   8.340
 2799POPC   C3A36713   8.919  25.062   7.952
 2799POPC   C4A36714   9.011  25.449   7.732
 2799POPC   C1B36715   8.609  25.406   8.826
 2799POPC   C2B36716   8.466  25.056   8.558
 2799POPC   C3B36717   8.371  25.022   8.118
 2799POPC   C4B36718   8.520  25.367   7.862
 2800POPC   NC336719   1.435  17.249   9.245
 2800POPC   PO436720   1.230  17.895   9.336
 2800POPC   GL136721   1.138  17.657   9.019
 2800POPC   GL236722   0.773  17.677   9.081
 2800POPC   C1A36723   1.265  17.607   8.580
 2800POPC   D2A36724   1.627  17.653   8.309
 2800POPC   C3A36725   1.545  17.404   7.937
 2800POPC   C4A36726   1.202  17.178   7.785
 2800POPC   C1B36727   0.835  17.869   8.669
 2800POPC   C2B36728   0.917  17.913   8.242
 2800POPC   C3B36729   1.054  17.667   7.879
 2800POPC   C4B36730   0.938  17.540   7.456
 2801POPC   NC336731   5.865  40.896   9.473
 2801POPC   PO436732   5.525  40.562   9.073
 2801POPC   GL136733   5.639  40.983   8.971
 2801POPC   GL236734   5.909  40.834   8.795
 2801POPC   C1A36735   5.733  41.234   8.554
 2801POPC   D2A36736   5.560  41.301   8.148
 2801POPC   C3A36737   5.765  41.034   7.830
 2801POPC   C4A36738   5.987  40.661   7.649
 2801POPC   C1B36739   5.543  40.774   8.481
 2801POPC   C2B36740   5.477  40.458   8.210
 2801POPC   C3B36741   5.517  40.566   7.805
 2801POPC   C4B36742   5.487  40.481   7.325
 2802POPC   NC336743  13.589  40.459   9.451
 2802POPC   PO436744  13.744  41.110   9.570
 2802POPC   GL136745  13.809  40.855   9.209
 2802POPC   GL236746  13.498  40.810   9.092
 2802POPC   C1A36747  13.864  40.915   8.742
 2802POPC   D2A36748  13.598  40.834   8.355
 2802POPC   C3A36749  13.793  40.924   7.953
 2802POPC   C4A36750  14.041  40.619   7.812
 2802POPC   C1B36751  13.616  40.465   8.797
 2802POPC   C2B36752  13.523  40.288   8.407
 2802POPC   C3B36753  13.521  40.458   7.997
 2802POPC   C4B36754  13.280  40.790   7.868
 2803POPC   NC336755  23.424  34.799   9.407
 2803POPC   PO436756  23.840  34.319   9.444
 2803POPC   GL136757  23.895  34.534   9.076
 2803POPC   GL236758  23.601  34.720   8.957
 2803POPC   C1A36759  23.810  34.390   8.664
 2803POPC   D2A36760  23.832  34.579   8.295
 2803POPC   C3A36761  23.910  34.300   8.013
 2803POPC   C4A36762  23.651  34.388   7.731
 2803POPC   C1B36763  23.374  34.689   8.570
 2803POPC   C2B36764  23.430  34.925   8.206
 2803POPC   C3B36765  23.703  34.900   7.876
 2803POPC   C4B36766  23.719  34.901   7.434
 2804POPC   NC336767   2.709  13.901   9.400
 2804POPC   PO436768   2.755  13.244   9.513
 2804POPC   GL136769   2.642  13.237   9.102
 2804POPC   GL236770   2.445  13.539   9.081
 2804POPC   C1A36771   2.753  13.356   8.695
 2804POPC   D2A36772   2.821  13.648   8.385
 2804POPC   C3A36773   2.822  13.393   8.098
 2804POPC   C4A36774   2.564  13.245   7.796
 2804POPC   C1B36775   2.592  13.887   8.772
 2804POPC   C2B36776   2.434  14.024   8.381
 2804POPC   C3B36777   2.426  13.731   8.053
 2804POPC   C4B36778   2.736  13.759   7.752
 2805POPC   NC336779   9.724  13.094   9.467
 2805POPC   PO436780   9.924  12.447   9.281
 2805POPC   GL136781   9.838  12.778   9.078
 2805POPC   GL236782   9.501  12.806   9.111
 2805POPC   C1A36783   9.886  12.886   8.680
 2805POPC   D2A36784  10.142  12.939   8.331
 2805POPC   C3A36785   9.846  12.920   7.982
 2805POPC   C4A36786   9.654  12.956   7.559
 2805POPC   C1B36787   9.334  12.872   8.706
 2805POPC   C2B36788   9.408  12.762   8.257
 2805POPC   C3B36789   9.508  12.561   7.861
 2805POPC   C4B36790   9.381  12.553   7.389
 2806POPC   NC336791  14.910  29.439   9.562
 2806POPC   PO436792  14.909  28.747   9.479
 2806POPC   GL136793  15.142  28.977   9.152
 2806POPC   GL236794  15.394  29.250   9.220
 2806POPC   C1A36795  15.198  29.130   8.735
 2806POPC   D2A36796  15.432  29.248   8.398
 2806POPC   C3A36797  15.216  29.120   8.041
 2806POPC   C4A36798  15.393  28.947   7.665
 2806POPC   C1B36799  15.327  29.585   8.921
 2806POPC   C2B36800  15.283  29.708   8.499
 2806POPC   C3B36801  15.508  29.652   8.106
 2806POPC   C4B36802  15.423  29.453   7.718
 2807POPC   NC336803  11.565   5.693   9.500
 2807POPC   PO436804  11.010   5.899   9.369
 2807POPC   GL136805  11.315   5.787   9.062
 2807POPC   GL236806  11.620   5.982   9.007
 2807POPC   C1A36807  11.302   5.668   8.644
 2807POPC   D2A36808  11.322   5.540   8.259
 2807POPC   C3A36809  11.320   5.789   7.902
 2807POPC   C4A36810  11.527   5.881   7.534
 2807POPC   C1B36811  11.300   6.163   8.706
 2807POPC   C2B36812  11.113   6.041   8.300
 2807POPC   C3B36813  10.967   6.165   7.885
 2807POPC   C4B36814  11.145   6.212   7.462
 2808POPC   NC336815  15.068  41.402   9.672
 2808POPC   PO436816  15.332  41.980   9.577
 2808POPC   GL136817  15.102  41.777   9.266
 2808POPC   GL236818  15.364  41.668   9.095
 2808POPC   C1A36819  15.002  41.838   8.800
 2808POPC   D2A36820  14.941  41.591   8.414
 2808POPC   C3A36821  15.072  41.724   7.993
 2808POPC   C4A36822  14.964  41.863   7.567
 2808POPC   C1B36823  15.353  41.437   8.695
 2808POPC   C2B36824  15.475  41.457   8.293
 2808POPC   C3B36825  15.339  41.278   7.963
 2808POPC   C4B36826  15.163  41.397   7.569
 2809POPC   NC336827  42.397  18.847   9.738
 2809POPC   PO436828  42.359  18.213   9.489
 2809POPC   GL136829  42.398  18.142   9.098
 2809POPC   GL236830  42.119  17.966   9.105
 2809POPC   C1A36831  42.229  18.302   8.705
 2809POPC   D2A36832  42.146  18.132   8.295
 2809POPC   C3A36833  42.475  18.300   8.034
 2809POPC   C4A36834  42.491  18.461   7.602
 2809POPC   C1B36835  42.238  17.783   8.721
 2809POPC   C2B36836  41.951  17.641   8.386
 2809POPC   C3B36837  41.953  17.762   7.969
 2809POPC   C4B36838  42.293  17.955   7.697
 2810POPC   NC336839  31.753  15.512   9.132
 2810POPC   PO436840  31.304  15.202   9.494
 2810POPC   GL136841  31.365  14.913   9.156
 2810POPC   GL236842  31.710  14.979   9.129
 2810POPC   C1A36843  31.366  15.043   8.709
 2810POPC   D2A36844  31.564  15.324   8.404
 2810POPC   C3A36845  31.406  15.459   7.965
 2810POPC   C4A36846  31.154  15.466   7.565
 2810POPC   C1B36847  31.725  14.689   8.794
 2810POPC   C2B36848  31.680  14.782   8.375
 2810POPC   C3B36849  31.474  14.948   8.048
 2810POPC   C4B36850  31.393  15.011   7.636
 2811POPC   NC336851  35.701   1.135   9.416
 2811POPC   PO436852  35.114   1.019   9.365
 2811POPC   GL136853  35.296   1.249   9.045
 2811POPC   GL236854  35.592   1.472   9.048
 2811POPC   C1A36855  35.194   1.134   8.645
 2811POPC   D2A36856  35.038   0.884   8.352
 2811POPC   C3A36857  35.105   1.072   7.990
 2811POPC   C4A36858  35.236   1.431   7.781
 2811POPC   C1B36859  35.688   1.203   8.714
 2811POPC   C2B36860  35.571   0.949   8.323
 2811POPC   C3B36861  35.642   1.103   7.929
 2811POPC   C4B36862  35.746   1.502   7.832
 2812POPC   NC336863  17.879  34.066   9.256
 2812POPC   PO436864  17.338  33.627   9.475
 2812POPC   GL136865  17.411  33.854   9.153
 2812POPC   GL236866  17.648  33.626   9.018
 2812POPC   C1A36867  17.206  33.993   8.792
 2812POPC   D2A36868  17.260  33.610   8.527
 2812POPC   C3A36869  17.231  33.642   8.077
 2812POPC   C4A36870  17.289  34.013   7.831
 2812POPC   C1B36871  17.670  33.912   8.642
 2812POPC   C2B36872  17.431  34.222   8.361
 2812POPC   C3B36873  17.642  34.345   8.000
 2812POPC   C4B36874  17.829  33.986   7.926
 2813POPC   NC336875  26.982  34.000   9.784
 2813POPC   PO436876  26.832  33.424   9.364
 2813POPC   GL136877  26.810  33.741   9.035
 2813POPC   GL236878  27.170  33.560   8.907
 2813POPC   C1A36879  26.947  33.947   8.685
 2813POPC   D2A36880  26.944  33.748   8.307
 2813POPC   C3A36881  26.776  33.974   8.031
 2813POPC   C4A36882  26.674  33.918   7.611
 2813POPC   C1B36883  26.800  33.400   8.678
 2813POPC   C2B36884  26.633  33.250   8.313
 2813POPC   C3B36885  26.717  33.446   7.949
 2813POPC   C4B36886  27.151  33.357   7.924
 2814POPC   NC336887   3.866  12.724   9.388
 2814POPC   PO436888   4.543  12.817   9.586
 2814POPC   GL136889   4.383  12.916   9.133
 2814POPC   GL236890   4.085  13.128   9.107
 2814POPC   C1A36891   4.336  12.947   8.669
 2814POPC   D2A36892   4.574  13.119   8.309
 2814POPC   C3A36893   4.524  12.760   8.035
 2814POPC   C4A36894   4.462  12.571   7.633
 2814POPC   C1B36895   3.840  12.920   8.766
 2814POPC   C2B36896   3.677  12.842   8.364
 2814POPC   C3B36897   3.837  12.850   7.951
 2814POPC   C4B36898   4.183  13.026   7.770
 2815POPC   NC336899  42.200  19.592   9.499
 2815POPC   PO436900  42.435  20.227   9.372
 2815POPC   GL136901  42.048  20.004   9.135
 2815POPC   GL236902  42.029  19.605   9.036
 2815POPC   C1A36903  42.108  19.941   8.682
 2815POPC   D2A36904  42.361  19.774   8.361
 2815POPC   C3A36905  42.315  19.859   7.953
 2815POPC   C4A36906  42.612  20.035   7.683
 2815POPC   C1B36907  42.274  19.421   8.711
 2815POPC   C2B36908  42.356  19.261   8.271
 2815POPC   C3B36909  42.058  19.352   7.944
 2815POPC   C4B36910  41.853  19.731   7.763
 2816POPC   NC336911   0.786   2.793   9.335
 2816POPC   PO436912   1.424   2.657   9.556
 2816POPC   GL136913   1.250   2.596   9.201
 2816POPC   GL236914   1.232   2.995   9.163
 2816POPC   C1A36915   1.427   2.448   8.836
 2816POPC   D2A36916   1.545   2.746   8.537
 2816POPC   C3A36917   1.452   2.633   8.138
 2816POPC   C4A36918   1.438   2.877   7.752
 2816POPC   C1B36919   1.089   2.822   8.779
 2816POPC   C2B36920   1.016   2.680   8.427
 2816POPC   C3B36921   1.019   2.868   8.064
 2816POPC   C4B36922   1.037   2.572   7.779
 2817POPC   NC336923  34.596  22.627   9.418
 2817POPC   PO436924  34.107  23.096   9.508
 2817POPC   GL136925  34.374  23.024   9.158
 2817POPC   GL236926  34.699  23.207   9.115
 2817POPC   C1A36927  34.337  22.895   8.755
 2817POPC   D2A36928  34.300  23.107   8.381
 2817POPC   C3A36929  34.345  22.935   7.979
 2817POPC   C4A36930  34.247  23.211   7.653
 2817POPC   C1B36931  34.827  22.861   8.847
 2817POPC   C2B36932  34.695  22.783   8.403
 2817POPC   C3B36933  34.850  22.935   8.028
 2817POPC   C4B36934  34.957  22.802   7.618
 2818POPC   NC336935  40.192  32.433   9.521
 2818POPC   PO436936  39.844  31.807   9.513
 2818POPC   GL136937  39.929  32.119   9.173
 2818POPC   GL236938  40.293  32.159   9.115
 2818POPC   C1A36939  40.013  32.128   8.717
 2818POPC   D2A36940  40.144  31.938   8.396
 2818POPC   C3A36941  39.842  32.095   8.133
 2818POPC   C4A36942  39.932  32.158   7.729
 2818POPC   C1B36943  40.319  32.510   8.849
 2818POPC   C2B36944  40.214  32.565   8.431
 2818POPC   C3B36945  40.285  32.329   8.078
 2818POPC   C4B36946  40.399  32.365   7.673
 2819POPC   NC336947  32.248  42.073   9.613
 2819POPC   PO436948  32.257  42.766   9.713
 2819POPC   GL136949  32.209  42.522   9.268
 2819POPC   GL236950  32.085  42.720   8.982
 2819POPC   C1A36951  32.163  42.221   8.861
 2819POPC   D2A36952  32.013  42.110   8.407
 2819POPC   C3A36953  32.107  42.278   7.993
 2819POPC   C4A36954  32.138  41.962   7.653
 2819POPC   C1B36955  32.464  42.633   8.752
 2819POPC   C2B36956  32.461  42.408   8.405
 2819POPC   C3B36957  32.628  42.515   8.013
 2819POPC   C4B36958  32.407  42.570   7.668
 2820POPC   NC336959  30.456  30.079   9.162
 2820POPC   PO436960  29.866  30.045   9.498
 2820POPC   GL136961  29.942  29.861   9.111
 2820POPC   GL236962  29.835  30.143   8.988
 2820POPC   C1A36963  29.746  29.726   8.721
 2820POPC   D2A36964  29.941  29.851   8.351
 2820POPC   C3A36965  29.747  29.867   7.966
 2820POPC   C4A36966  29.846  30.151   7.666
 2820POPC   C1B36967  30.108  30.230   8.659
 2820POPC   C2B36968  30.430  30.083   8.398
 2820POPC   C3B36969  30.248  30.103   8.002
 2820POPC   C4B36970  30.431  30.183   7.628
 2821POPC   NC336971   5.247  23.176   9.530
 2821POPC   PO436972   4.972  22.513   9.481
 2821POPC   GL136973   5.200  22.799   9.146
 2821POPC   GL236974   5.450  23.130   9.083
 2821POPC   C1A36975   5.090  23.012   8.736
 2821POPC   D2A36976   5.106  23.187   8.304
 2821POPC   C3A36977   5.022  22.877   7.960
 2821POPC   C4A36978   4.894  22.973   7.533
 2821POPC   C1B36979   5.573  22.811   8.796
 2821POPC   C2B36980   5.400  22.724   8.405
 2821POPC   C3B36981   5.518  22.974   8.068
 2821POPC   C4B36982   5.326  23.262   7.754
 2822POPC   NC336983  16.523  38.068   9.512
 2822POPC   PO436984  17.106  38.418   9.503
 2822POPC   GL136985  16.750  38.351   9.171
 2822POPC   GL236986  16.968  38.382   8.979
 2822POPC   C1A36987  16.500  38.429   8.758
 2822POPC   D2A36988  16.545  38.556   8.333
 2822POPC   C3A36989  16.345  38.509   7.941
 2822POPC   C4A36990  16.585  38.486   7.602
 2822POPC   C1B36991  16.953  38.642   8.667
 2822POPC   C2B36992  17.085  38.469   8.321
 2822POPC   C3B36993  17.210  38.470   7.934
 2822POPC   C4B36994  17.093  38.586   7.531
 2823POPC   NC336995  17.318   4.006  10.048
 2823POPC   PO436996  17.373   3.602   9.525
 2823POPC   GL136997  17.469   3.400   9.154
 2823POPC   GL236998  17.747   3.653   9.151
 2823POPC   C1A36999  17.554   3.201   8.773
 2823POPC   D2A37000  17.436   3.349   8.422
 2823POPC   C3A37001  17.560   3.179   8.095
 2823POPC   C4A37002  17.483   3.318   7.732
 2823POPC   C1B37003  17.495   3.728   8.780
 2823POPC   C2B37004  17.616   3.814   8.375
 2823POPC   C3B37005  17.447   3.759   7.986
 2823POPC   C4B37006  17.648   3.793   7.581
 2824POPC   NC337007  15.251  44.878   9.650
 2824POPC   PO437008  15.459  44.306   9.641
 2824POPC   GL137009  15.430  44.591   9.271
 2824POPC   GL237010  15.070  44.618   9.215
 2824POPC   C1A37011  15.434  44.751   8.857
 2824POPC   D2A37012  15.193  44.904   8.552
 2824POPC   C3A37013  15.330  44.738   8.175
 2824POPC   C4A37014  15.444  44.677   7.756
 2824POPC   C1B37015  15.050  44.413   8.777
 2824POPC   C2B37016  15.043  44.327   8.363
 2824POPC   C3B37017  14.910  44.470   8.005
 2824POPC   C4B37018  15.072  44.365   7.638
 2825POPC   NC337019   0.629  26.115   9.527
 2825POPC   PO437020   0.044  25.967   9.454
 2825POPC   GL137021   0.347  25.979   9.118
 2825POPC   GL237022   0.663  25.792   9.142
 2825POPC   C1A37023   0.349  26.110   8.706
 2825POPC   D2A37024   0.350  25.880   8.331
 2825POPC   C3A37025   0.449  26.101   7.978
 2825POPC   C4A37026   0.331  25.941   7.612
 2825POPC   C1B37027   0.860  25.857   8.783
 2825POPC   C2B37028   0.805  25.685   8.421
 2825POPC   C3B37029   0.854  25.770   8.051
 2825POPC   C4B37030   0.700  25.626   7.710
 2826POPC   NC337031  27.859  31.259   9.459
 2826POPC   PO437032  27.380  31.711   9.433
 2826POPC   GL137033  27.616  31.568   9.139
 2826POPC   GL237034  27.909  31.761   9.237
 2826POPC   C1A37035  27.510  31.387   8.750
 2826POPC   D2A37036  27.175  31.448   8.447
 2826POPC   C3A37037  27.377  31.441   8.047
 2826POPC   C4A37038  27.727  31.380   7.728
 2826POPC   C1B37039  27.869  31.797   8.782
 2826POPC   C2B37040  27.734  31.705   8.374
 2826POPC   C3B37041  27.971  31.726   8.004
 2826POPC   C4B37042  27.973  31.894   7.610
 2827POPC   NC337043  14.052   8.012   9.301
 2827POPC   PO437044  13.488   8.502   9.582
 2827POPC   GL137045  13.506   8.428   9.140
 2827POPC   GL237046  13.845   8.499   9.186
 2827POPC   C1A37047  13.478   8.221   8.705
 2827POPC   D2A37048  13.359   8.348   8.243
 2827POPC   C3A37049  13.615   8.256   7.848
 2827POPC   C4A37050  13.559   8.512   7.441
 2827POPC   C1B37051  13.973   8.365   8.773
 2827POPC   C2B37052  13.854   8.326   8.356
 2827POPC   C3B37053  13.927   8.603   8.043
 2827POPC   C4B37054  14.101   8.462   7.666
 2828POPC   NC337055  32.017  11.327   9.694
 2828POPC   PO437056  32.640  11.248   9.433
 2828POPC   GL137057  32.261  11.344   9.242
 2828POPC   GL237058  32.204  11.031   9.115
 2828POPC   C1A37059  32.160  11.464   8.822
 2828POPC   D2A37060  32.413  11.496   8.449
 2828POPC   C3A37061  32.226  11.523   8.038
 2828POPC   C4A37062  32.419  11.511   7.631
 2828POPC   C1B37063  32.306  10.979   8.687
 2828POPC   C2B37064  32.308  11.042   8.239
 2828POPC   C3B37065  32.428  11.048   7.828
 2828POPC   C4B37066  32.154  10.960   7.482
 2829POPC   NC337067  19.405  38.954   9.265
 2829POPC   PO437068  18.948  39.305   9.634
 2829POPC   GL137069  18.915  39.188   9.199
 2829POPC   GL237070  18.911  39.540   9.066
 2829POPC   C1A37071  18.843  38.953   8.792
 2829POPC   D2A37072  18.772  39.108   8.379
 2829POPC   C3A37073  18.855  38.853   8.060
 2829POPC   C4A37074  19.084  38.942   7.710
 2829POPC   C1B37075  19.148  39.378   8.737
 2829POPC   C2B37076  19.383  39.442   8.385
 2829POPC   C3B37077  19.133  39.343   8.055
 2829POPC   C4B37078  19.295  39.393   7.697
 2830POPC   NC337079  41.576  24.390   9.573
 2830POPC   PO437080  41.256  24.767   9.117
 2830POPC   GL137081  41.603  24.628   8.930
 2830POPC   GL237082  41.746  24.346   9.064
 2830POPC   C1A37083  41.711  24.628   8.511
 2830POPC   D2A37084  41.618  24.770   8.106
 2830POPC   C3A37085  41.589  24.512   7.750
 2830POPC   C4A37086  41.192  24.286   7.801
 2830POPC   C1B37087  41.596  24.141   8.661
 2830POPC   C2B37088  41.662  24.232   8.199
 2830POPC   C3B37089  41.680  24.002   7.824
 2830POPC   C4B37090  41.736  24.042   7.395
 2831POPC   NC337091  31.499  16.412   9.485
 2831POPC   PO437092  31.825  15.816   9.498
 2831POPC   GL137093  31.515  15.953   9.149
 2831POPC   GL237094  31.443  16.250   9.012
 2831POPC   C1A37095  31.420  15.869   8.679
 2831POPC   D2A37096  31.201  15.969   8.286
 2831POPC   C3A37097  31.382  15.974   7.897
 2831POPC   C4A37098  31.479  15.846   7.467
 2831POPC   C1B37099  31.123  16.306   8.681
 2831POPC   C2B37100  31.110  16.501   8.310
 2831POPC   C3B37101  31.072  16.380   7.886
 2831POPC   C4B37102  31.404  16.334   7.548
 2832POPC   NC337103  11.167   2.269   9.769
 2832POPC   PO437104  11.376   1.699   9.433
 2832POPC   GL137105  11.271   1.935   9.079
 2832POPC   GL237106  11.154   2.244   9.195
 2832POPC   C1A37107  11.418   2.017   8.672
 2832POPC   D2A37108  11.316   1.756   8.338
 2832POPC   C3A37109  11.343   1.932   7.964
 2832POPC   C4A37110  11.649   2.082   7.705
 2832POPC   C1B37111  10.992   2.306   8.761
 2832POPC   C2B37112  11.066   2.217   8.326
 2832POPC   C3B37113  10.912   2.159   7.902
 2832POPC   C4B37114  11.107   2.294   7.507
 2833POPC   NC337115   9.669   2.705   9.284
 2833POPC   PO437116   9.907   3.340   9.486
 2833POPC   GL137117   9.864   3.155   9.061
 2833POPC   GL237118  10.121   2.881   9.002
 2833POPC   C1A37119   9.750   2.972   8.645
 2833POPC   D2A37120   9.860   2.877   8.188
 2833POPC   C3A37121   9.587   2.884   7.855
 2833POPC   C4A37122   9.562   3.139   7.509
 2833POPC   C1B37123   9.999   2.507   8.714
 2833POPC   C2B37124   9.978   2.359   8.264
 2833POPC   C3B37125  10.066   2.423   7.813
 2833POPC   C4B37126   9.906   2.721   7.463
 2834POPC   NC337127  43.702   6.248   9.498
 2834POPC   PO437128  44.061   6.876   9.575
 2834POPC   GL137129  43.905   6.675   9.222
 2834POPC   GL237130  43.654   6.878   9.034
 2834POPC   C1A37131  44.100   6.698   8.828
 2834POPC   D2A37132  43.913   6.781   8.425
 2834POPC   C3A37133  43.978   6.489   8.077
 2834POPC   C4A37134  44.105   6.703   7.663
 2834POPC   C1B37135  43.546   6.483   8.803
 2834POPC   C2B37136  43.556   6.339   8.367
 2834POPC   C3B37137  43.499   6.656   8.051
 2834POPC   C4B37138  43.485   6.674   7.628
 2835POPC   NC337139  11.697  23.364   9.480
 2835POPC   PO437140  12.099  22.771   9.470
 2835POPC   GL137141  11.871  22.874   9.097
 2835POPC   GL237142  12.010  23.204   9.114
 2835POPC   C1A37143  12.092  22.947   8.684
 2835POPC   D2A37144  12.331  23.165   8.350
 2835POPC   C3A37145  12.222  23.026   7.911
 2835POPC   C4A37146  11.859  22.815   7.746
 2835POPC   C1B37147  11.681  23.266   8.819
 2835POPC   C2B37148  11.677  23.405   8.409
 2835POPC   C3B37149  11.770  23.273   7.981
 2835POPC   C4B37150  11.749  23.271   7.499
 2836POPC   NC337151   9.532  12.313   9.469
 2836POPC   PO437152  10.016  11.853   9.605
 2836POPC   GL137153   9.858  11.840   9.174
 2836POPC   GL237154   9.631  12.120   9.019
 2836POPC   C1A37155   9.977  11.901   8.739
 2836POPC   D2A37156   9.692  12.023   8.427
 2836POPC   C3A37157   9.738  11.768   8.097
 2836POPC   C4A37158  10.058  11.766   7.828
 2836POPC   C1B37159   9.612  12.445   8.697
 2836POPC   C2B37160   9.845  12.503   8.311
 2836POPC   C3B37161   9.900  12.242   7.957
 2836POPC   C4B37162   9.726  12.234   7.550
 2837POPC   NC337163  24.411  25.062   9.414
 2837POPC   PO437164  24.768  25.663   9.552
 2837POPC   GL137165  24.524  25.540   9.174
 2837POPC   GL237166  24.602  25.205   8.984
 2837POPC   C1A37167  24.391  25.569   8.732
 2837POPC   D2A37168  24.372  25.705   8.316
 2837POPC   C3A37169  24.387  25.350   8.052
 2837POPC   C4A37170  24.693  25.474   7.754
 2837POPC   C1B37171  24.419  24.947   8.708
 2837POPC   C2B37172  24.596  24.901   8.304
 2837POPC   C3B37173  24.715  24.973   7.857
 2837POPC   C4B37174  24.353  25.099   7.573
 2838POPC   NC337175  24.874   0.502   9.475
 2838POPC   PO437176  25.360  44.993   9.329
 2838POPC   GL137177  25.280   0.451   9.127
 2838POPC   GL237178  24.945   0.683   9.027
 2838POPC   C1A37179  25.222   0.434   8.682
 2838POPC   D2A37180  25.010   0.153   8.422
 2838POPC   C3A37181  25.157   0.220   8.022
 2838POPC   C4A37182  25.414   0.523   7.809
 2838POPC   C1B37183  25.023   0.897   8.668
 2838POPC   C2B37184  25.222   0.867   8.292
 2838POPC   C3B37185  25.038   0.850   7.912
 2838POPC   C4B37186  25.115   0.763   7.459
 2839POPC   NC337187  17.462  41.137   9.453
 2839POPC   PO437188  17.705  40.541   9.504
 2839POPC   GL137189  17.579  40.743   9.141
 2839POPC   GL237190  17.295  40.642   9.125
 2839POPC   C1A37191  17.680  40.933   8.761
 2839POPC   D2A37192  17.723  40.848   8.328
 2839POPC   C3A37193  17.461  41.064   8.031
 2839POPC   C4A37194  17.370  41.029   7.585
 2839POPC   C1B37195  17.152  40.758   8.732
 2839POPC   C2B37196  17.241  40.679   8.313
 2839POPC   C3B37197  17.191  40.616   7.877
 2839POPC   C4B37198  16.938  40.739   7.525
 2840POPC   NC337199  36.777  44.041   9.612
 2840POPC   PO437200  36.880  43.447   9.805
 2840POPC   GL137201  36.742  43.648   9.280
 2840POPC   GL237202  36.572  43.977   9.157
 2840POPC   C1A37203  36.932  43.707   8.828
 2840POPC   D2A37204  36.951  43.619   8.360
 2840POPC   C3A37205  36.807  43.952   8.080
 2840POPC   C4A37206  36.836  43.955   7.669
 2840POPC   C1B37207  36.433  43.719   8.832
 2840POPC   C2B37208  36.444  43.772   8.395
 2840POPC   C3B37209  36.354  43.720   7.952
 2840POPC   C4B37210  36.460  43.674   7.501
 2841POPC   NC337211  39.181  17.203   9.662
 2841POPC   PO437212  39.249  16.502   9.544
 2841POPC   GL137213  39.183  16.765   9.153
 2841POPC   GL237214  39.387  17.035   9.208
 2841POPC   C1A37215  39.242  16.873   8.692
 2841POPC   D2A37216  39.457  16.734   8.305
 2841POPC   C3A37217  39.283  16.829   7.900
 2841POPC   C4A37218  38.977  16.743   7.585
 2841POPC   C1B37219  39.489  17.313   8.837
 2841POPC   C2B37220  39.579  17.233   8.418
 2841POPC   C3B37221  39.678  17.118   8.000
 2841POPC   C4B37222  39.425  17.279   7.712
 2842POPC   NC337223  15.162  40.418   9.611
 2842POPC   PO437224  14.928  39.752   9.437
 2842POPC   GL137225  15.166  39.926   9.151
 2842POPC   GL237226  15.217  39.604   8.993
 2842POPC   C1A37227  15.273  40.049   8.755
 2842POPC   D2A37228  15.152  39.987   8.376
 2842POPC   C3A37229  15.285  40.164   7.966
 2842POPC   C4A37230  15.115  39.974   7.582
 2842POPC   C1B37231  15.571  39.589   8.748
 2842POPC   C2B37232  15.529  39.625   8.330
 2842POPC   C3B37233  15.252  39.650   7.995
 2842POPC   C4B37234  15.415  39.572   7.621
 2843POPC   NC337235  27.381   7.022   9.462
 2843POPC   PO437236  27.256   6.320   9.523
 2843POPC   GL137237  27.373   6.582   9.209
 2843POPC   GL237238  27.720   6.697   9.165
 2843POPC   C1A37239  27.331   6.611   8.797
 2843POPC   D2A37240  27.605   6.587   8.433
 2843POPC   C3A37241  27.393   6.720   8.068
 2843POPC   C4A37242  27.494   6.907   7.683
 2843POPC   C1B37243  28.009   6.919   8.865
 2843POPC   C2B37244  28.035   6.933   8.428
 2843POPC   C3B37245  27.916   6.811   8.008
 2843POPC   C4B37246  28.006   6.679   7.586
 2844POPC   NC337247   8.117  30.296   9.431
 2844POPC   PO437248   8.313  30.990   9.478
 2844POPC   GL137249   8.252  30.713   9.153
 2844POPC   GL237250   8.536  30.525   9.249
 2844POPC   C1A37251   8.053  30.528   8.791
 2844POPC   D2A37252   8.156  30.381   8.369
 2844POPC   C3A37253   8.041  30.638   7.986
 2844POPC   C4A37254   8.178  31.002   7.690
 2844POPC   C1B37255   8.593  30.542   8.801
 2844POPC   C2B37256   8.657  30.721   8.389
 2844POPC   C3B37257   8.549  30.496   8.006
 2844POPC   C4B37258   8.558  30.138   7.734
 2845POPC   NC337259   3.692  41.231   9.539
 2845POPC   PO437260   3.236  41.544   9.556
 2845POPC   GL137261   3.419  41.488   9.156
 2845POPC   GL237262   3.070  41.327   9.109
 2845POPC   C1A37263   3.643  41.749   8.799
 2845POPC   D2A37264   3.792  41.933   8.370
 2845POPC   C3A37265   3.673  41.763   7.953
 2845POPC   C4A37266   3.846  41.385   7.752
 2845POPC   C1B37267   3.116  41.668   8.788
 2845POPC   C2B37268   3.321  41.677   8.381
 2845POPC   C3B37269   3.132  41.632   8.003
 2845POPC   C4B37270   3.337  41.423   7.689
 2846POPC   NC337271  31.183  11.862   9.795
 2846POPC   PO437272  31.554  11.228   9.631
 2846POPC   GL137273  31.438  11.262   9.199
 2846POPC   GL237274  31.761  11.335   9.131
 2846POPC   C1A37275  31.430  11.464   8.758
 2846POPC   D2A37276  31.373  11.200   8.421
 2846POPC   C3A37277  31.426  11.391   8.034
 2846POPC   C4A37278  31.319  11.028   7.766
 2846POPC   C1B37279  31.795  11.091   8.779
 2846POPC   C2B37280  31.888  11.274   8.410
 2846POPC   C3B37281  31.834  11.087   8.037
 2846POPC   C4B37282  31.852  11.327   7.716
 2847POPC   NC337283  19.429  31.138  10.012
 2847POPC   PO437284  19.340  31.513   9.492
 2847POPC   GL137285  19.092  31.520   9.085
 2847POPC   GL237286  18.811  31.216   9.029
 2847POPC   C1A37287  19.014  31.565   8.666
 2847POPC   D2A37288  19.201  31.292   8.377
 2847POPC   C3A37289  19.411  31.542   8.076
 2847POPC   C4A37290  19.306  31.541   7.656
 2847POPC   C1B37291  18.744  31.134   8.564
 2847POPC   C2B37292  18.730  31.334   8.154
 2847POPC   C3B37293  18.859  31.304   7.746
 2847POPC   C4B37294  18.682  31.240   7.351
 2848POPC   NC337295  14.276  12.524   9.449
 2848POPC   PO437296  14.470  12.039   9.794
 2848POPC   GL137297  14.401  12.048   9.316
 2848POPC   GL237298  14.576  12.279   9.081
 2848POPC   C1A37299  14.369  11.852   8.909
 2848POPC   D2A37300  14.550  11.952   8.535
 2848POPC   C3A37301  14.305  11.961   8.193
 2848POPC   C4A37302  14.314  12.002   7.761
 2848POPC   C1B37303  14.675  12.445   8.673
 2848POPC   C2B37304  14.626  12.355   8.232
 2848POPC   C3B37305  14.777  11.997   8.012
 2848POPC   C4B37306  14.790  12.199   7.634
 2849POPC   NC337307   7.775  28.630   9.550
 2849POPC   PO437308   7.186  28.145   9.446
 2849POPC   GL137309   7.318  28.149   9.082
 2849POPC   GL237310   7.423  28.482   9.076
 2849POPC   C1A37311   7.200  28.235   8.671
 2849POPC   D2A37312   7.470  28.319   8.342
 2849POPC   C3A37313   7.364  28.188   7.936
 2849POPC   C4A37314   7.393  28.307   7.511
 2849POPC   C1B37315   7.748  28.533   8.787
 2849POPC   C2B37316   7.940  28.494   8.427
 2849POPC   C3B37317   7.808  28.542   8.016
 2849POPC   C4B37318   8.013  28.452   7.667
 2850POPC   NC337319   6.570   1.579   9.615
 2850POPC   PO437320   6.324   2.223   9.462
 2850POPC   GL137321   6.524   1.925   9.201
 2850POPC   GL237322   6.880   1.838   9.286
 2850POPC   C1A37323   6.662   2.061   8.779
 2850POPC   D2A37324   6.619   2.285   8.402
 2850POPC   C3A37325   6.857   2.254   8.017
 2850POPC   C4A37326   6.619   2.220   7.631
 2850POPC   C1B37327   7.037   1.737   8.875
 2850POPC   C2B37328   6.764   1.650   8.511
 2850POPC   C3B37329   6.827   1.754   8.112
 2850POPC   C4B37330   6.857   1.786   7.682
 2851POPC   NC337331   2.414  25.131   9.628
 2851POPC   PO437332   1.845  25.299   9.411
 2851POPC   GL137333   2.041  25.189   9.074
 2851POPC   GL237334   2.232  24.961   9.159
 2851POPC   C1A37335   1.971  25.335   8.699
 2851POPC   D2A37336   1.769  25.440   8.339
 2851POPC   C3A37337   2.051  25.546   8.063
 2851POPC   C4A37338   2.059  25.516   7.630
 2851POPC   C1B37339   2.385  24.913   8.730
 2851POPC   C2B37340   2.171  25.071   8.311
 2851POPC   C3B37341   1.952  25.067   7.913
 2851POPC   C4B37342   2.040  25.041   7.446
 2852POPC   NC337343  23.091   0.251   9.383
 2852POPC   PO437344  22.683   0.807   9.330
 2852POPC   GL137345  22.988   0.775   8.962
 2852POPC   GL237346  23.289   0.568   8.932
 2852POPC   C1A37347  22.992   0.610   8.504
 2852POPC   D2A37348  22.697   0.479   8.159
 2852POPC   C3A37349  22.824   0.536   7.739
 2852POPC   C4A37350  23.018   0.595   7.341
 2852POPC   C1B37351  23.214   0.168   8.737
 2852POPC   C2B37352  22.982   0.053   8.368
 2852POPC   C3B37353  23.177   0.277   8.053
 2852POPC   C4B37354  23.207   0.196   7.652
 2853POPC   NC337355  36.688  27.958   9.382
 2853POPC   PO437356  37.248  28.276   9.575
 2853POPC   GL137357  37.040  28.236   9.114
 2853POPC   GL237358  36.636  28.333   9.052
 2853POPC   C1A37359  36.942  28.327   8.657
 2853POPC   D2A37360  36.609  28.505   8.393
 2853POPC   C3A37361  36.781  28.495   7.983
 2853POPC   C4A37362  37.047  28.166   7.753
 2853POPC   C1B37363  36.549  27.999   8.720
 2853POPC   C2B37364  36.725  27.996   8.275
 2853POPC   C3B37365  36.529  28.045   7.863
 2853POPC   C4B37366  36.365  28.300   7.537
 2854POPC   NC337367   4.629  29.000   9.546
 2854POPC   PO437368   3.962  29.196   9.644
 2854POPC   GL137369   4.198  29.157   9.258
 2854POPC   GL237370   3.968  29.378   9.120
 2854POPC   C1A37371   4.238  28.901   8.879
 2854POPC   D2A37372   4.386  28.985   8.469
 2854POPC   C3A37373   4.276  28.909   8.035
 2854POPC   C4A37374   4.529  29.193   7.818
 2854POPC   C1B37375   4.161  29.426   8.710
 2854POPC   C2B37376   4.036  29.322   8.286
 2854POPC   C3B37377   4.028  29.372   7.844
 2854POPC   C4B37378   3.869  29.467   7.416
 2855POPC   NC337379  10.821  32.067   9.402
 2855POPC   PO437380  11.444  32.251   9.617
 2855POPC   GL137381  11.299  32.241   9.185
 2855POPC   GL237382  10.991  32.367   9.014
 2855POPC   C1A37383  11.471  32.403   8.802
 2855POPC   D2A37384  11.345  32.185   8.420
 2855POPC   C3A37385  11.058  32.367   8.107
 2855POPC   C4A37386  11.336  32.457   7.760
 2855POPC   C1B37387  11.053  31.954   8.812
 2855POPC   C2B37388  10.977  31.825   8.410
 2855POPC   C3B37389  11.177  31.881   8.028
 2855POPC   C4B37390  10.951  32.044   7.699
 2856POPC   NC337391  37.665  25.703   9.490
 2856POPC   PO437392  37.862  25.036   9.544
 2856POPC   GL137393  37.810  25.211   9.147
 2856POPC   GL237394  38.068  25.030   9.048
 2856POPC   C1A37395  37.699  25.325   8.710
 2856POPC   D2A37396  37.812  25.625   8.376
 2856POPC   C3A37397  37.776  25.604   7.950
 2856POPC   C4A37398  37.701  25.253   7.740
 2856POPC   C1B37399  37.888  24.838   8.694
 2856POPC   C2B37400  37.755  24.933   8.271
 2856POPC   C3B37401  38.025  24.897   7.905
 2856POPC   C4B37402  38.013  24.866   7.471
 2857POPC   NC337403   5.767  25.757   9.767
 2857POPC   PO437404   5.881  25.142   9.493
 2857POPC   GL137405   5.897  25.163   9.090
 2857POPC   GL237406   6.052  24.873   8.993
 2857POPC   C1A37407   5.769  25.304   8.710
 2857POPC   D2A37408   5.916  25.509   8.387
 2857POPC   C3A37409   5.786  25.227   8.096
 2857POPC   C4A37410   5.718  25.345   7.715
 2857POPC   C1B37411   5.560  24.865   8.884
 2857POPC   C2B37412   5.468  24.833   8.463
 2857POPC   C3B37413   5.289  24.726   8.090
 2857POPC   C4B37414   5.382  24.982   7.787
 2858POPC   NC337415  35.468  30.620   9.899
 2858POPC   PO437416  35.095  30.780   9.382
 2858POPC   GL137417  35.292  30.655   8.964
 2858POPC   GL237418  35.674  30.632   8.956
 2858POPC   C1A37419  35.403  30.762   8.545
 2858POPC   D2A37420  35.237  31.032   8.275
 2858POPC   C3A37421  34.983  30.761   8.110
 2858POPC   C4A37422  35.169  30.540   7.819
 2858POPC   C1B37423  35.511  30.291   8.699
 2858POPC   C2B37424  35.519  30.155   8.278
 2858POPC   C3B37425  35.751  30.249   7.900
 2858POPC   C4B37426  35.556  30.474   7.525
 2859POPC   NC337427  32.989  31.331   9.307
 2859POPC   PO437428  33.373  31.783   9.694
 2859POPC   GL137429  33.021  31.801   9.188
 2859POPC   GL237430  32.670  31.818   9.190
 2859POPC   C1A37431  33.100  31.617   8.715
 2859POPC   D2A37432  33.143  31.311   8.379
 2859POPC   C3A37433  32.761  31.315   8.124
 2859POPC   C4A37434  32.745  31.648   7.857
 2859POPC   C1B37435  32.583  31.679   8.767
 2859POPC   C2B37436  32.772  31.783   8.359
 2859POPC   C3B37437  33.198  31.751   8.147
 2859POPC   C4B37438  33.232  31.798   7.734
 2860POPC   NC337439  34.582  36.602   9.711
 2860POPC   PO437440  34.646  35.959   9.622
 2860POPC   GL137441  34.632  36.279   9.277
 2860POPC   GL237442  34.894  36.167   9.160
 2860POPC   C1A37443  34.463  36.164   8.835
 2860POPC   D2A37444  34.155  36.053   8.484
 2860POPC   C3A37445  34.347  36.185   8.100
 2860POPC   C4A37446  34.572  36.018   7.756
 2860POPC   C1B37447  34.975  36.128   8.750
 2860POPC   C2B37448  34.801  36.276   8.375
 2860POPC   C3B37449  34.947  35.990   8.097
 2860POPC   C4B37450  35.071  36.080   7.716
 2861POPC   NC337451  33.378  17.520   9.448
 2861POPC   PO437452  32.646  17.229   9.474
 2861POPC   GL137453  32.963  17.249   9.142
 2861POPC   GL237454  33.000  17.593   9.099
 2861POPC   C1A37455  33.113  17.322   8.675
 2861POPC   D2A37456  33.179  17.360   8.211
 2861POPC   C3A37457  33.047  17.149   7.841
 2861POPC   C4A37458  33.097  17.465   7.587
 2861POPC   C1B37459  32.881  17.844   8.783
 2861POPC   C2B37460  32.920  17.760   8.384
 2861POPC   C3B37461  33.025  17.898   8.006
 2861POPC   C4B37462  32.801  17.859   7.674
 2862POPC   NC337463   6.868  11.982   9.503
 2862POPC   PO437464   6.288  11.875   9.444
 2862POPC   GL137465   6.521  12.111   9.118
 2862POPC   GL237466   6.822  12.344   9.140
 2862POPC   C1A37467   6.863  11.969   8.813
 2862POPC   D2A37468   6.865  11.735   8.453
 2862POPC   C3A37469   6.769  11.957   8.089
 2862POPC   C4A37470   6.814  11.864   7.689
 2862POPC   C1B37471   6.590  12.396   8.709
 2862POPC   C2B37472   6.491  12.361   8.264
 2862POPC   C3B37473   6.783  12.442   7.914
 2862POPC   C4B37474   6.778  12.310   7.475
 2863POPC   NC337475  16.997  36.418   9.670
 2863POPC   PO437476  16.441  36.823   9.452
 2863POPC   GL137477  16.742  36.747   9.085
 2863POPC   GL237478  16.946  37.064   8.968
 2863POPC   C1A37479  16.769  36.744   8.628
 2863POPC   D2A37480  16.724  37.141   8.412
 2863POPC   C3A37481  16.566  36.990   8.059
 2863POPC   C4A37482  16.700  36.567   7.985
 2863POPC   C1B37483  17.212  37.021   8.594
 2863POPC   C2B37484  17.311  37.240   8.222
 2863POPC   C3B37485  16.993  37.239   7.923
 2863POPC   C4B37486  16.838  36.886   7.635
 2864POPC   NC337487  15.220   9.507   9.472
 2864POPC   PO437488  15.274  10.235   9.286
 2864POPC   GL137489  15.268   9.830   9.063
 2864POPC   GL237490  15.481   9.496   9.050
 2864POPC   C1A37491  15.031   9.725   8.698
 2864POPC   D2A37492  15.282   9.569   8.366
 2864POPC   C3A37493  15.162   9.705   7.995
 2864POPC   C4A37494  15.275  10.077   7.816
 2864POPC   C1B37495  15.244   9.270   8.764
 2864POPC   C2B37496  15.315   9.051   8.374
 2864POPC   C3B37497  15.558   9.262   8.065
 2864POPC   C4B37498  15.455   9.432   7.685
 2865POPC   NC337499  29.747  39.128   9.592
 2865POPC   PO437500  30.350  39.071   9.752
 2865POPC   GL137501  30.159  39.209   9.271
 2865POPC   GL237502  29.833  39.295   9.120
 2865POPC   C1A37503  30.210  39.318   8.770
 2865POPC   D2A37504  30.403  39.313   8.299
 2865POPC   C3A37505  30.076  39.396   7.941
 2865POPC   C4A37506  29.600  39.495   7.977
 2865POPC   C1B37507  29.717  39.048   8.766
 2865POPC   C2B37508  29.599  38.836   8.382
 2865POPC   C3B37509  29.397  39.024   8.039
 2865POPC   C4B37510  29.619  39.113   7.637
 2866POPC   NC337511  31.091  19.164   9.435
 2866POPC   PO437512  31.611  19.554   9.594
 2866POPC   GL137513  31.567  19.091   9.271
 2866POPC   GL237514  31.293  18.844   9.123
 2866POPC   C1A37515  31.634  18.983   8.783
 2866POPC   D2A37516  31.693  19.251   8.411
 2866POPC   C3A37517  31.643  18.987   8.081
 2866POPC   C4A37518  31.655  18.962   7.665
 2866POPC   C1B37519  31.107  18.879   8.695
 2866POPC   C2B37520  31.151  19.115   8.308
 2866POPC   C3B37521  31.173  18.987   7.881
 2866POPC   C4B37522  31.247  18.672   7.607
 2867POPC   NC337523  42.679  36.670   9.256
 2867POPC   PO437524  42.161  37.166   9.387
 2867POPC   GL137525  42.434  37.108   9.105
 2867POPC   GL237526  42.228  36.793   9.054
 2867POPC   C1A37527  42.520  37.034   8.690
 2867POPC   D2A37528  42.255  37.043   8.385
 2867POPC   C3A37529  42.400  36.979   7.968
 2867POPC   C4A37530  42.200  37.114   7.568
 2867POPC   C1B37531  42.179  36.613   8.669
 2867POPC   C2B37532  42.455  36.567   8.342
 2867POPC   C3B37533  42.484  36.460   7.910
 2867POPC   C4B37534  42.152  36.630   7.673
 2868POPC   NC337535   7.751  24.419   9.468
 2868POPC   PO437536   7.120  24.232   9.404
 2868POPC   GL137537   7.362  24.511   9.112
 2868POPC   GL237538   7.707  24.714   9.073
 2868POPC   C1A37539   7.245  24.734   8.782
 2868POPC   D2A37540   7.363  24.685   8.376
 2868POPC   C3A37541   7.179  24.387   8.097
 2868POPC   C4A37542   7.223  24.626   7.717
 2868POPC   C1B37543   7.707  24.468   8.732
 2868POPC   C2B37544   7.726  24.295   8.339
 2868POPC   C3B37545   7.654  24.484   7.941
 2868POPC   C4B37546   7.607  24.376   7.503
 2869POPC   NC337547  30.077  34.137   9.343
 2869POPC   PO437548  29.751  33.604   9.566
 2869POPC   GL137549  29.732  33.578   9.158
 2869POPC   GL237550  30.093  33.645   9.136
 2869POPC   C1A37551  29.780  33.697   8.735
 2869POPC   D2A37552  29.670  33.951   8.418
 2869POPC   C3A37553  29.798  33.703   8.108
 2869POPC   C4A37554  29.823  33.710   7.679
 2869POPC   C1B37555  30.267  33.832   8.759
 2869POPC   C2B37556  30.240  33.894   8.323
 2869POPC   C3B37557  30.274  33.643   7.939
 2869POPC   C4B37558  30.556  33.345   7.798
 2870POPC   NC337559   8.022  11.037   9.519
 2870POPC   PO437560   8.273  11.640   9.442
 2870POPC   GL137561   8.077  11.580   9.075
 2870POPC   GL237562   8.009  11.231   9.053
 2870POPC   C1A37563   8.253  11.438   8.666
 2870POPC   D2A37564   8.396  11.577   8.269
 2870POPC   C3A37565   8.302  11.371   7.888
 2870POPC   C4A37566   8.438  11.522   7.493
 2870POPC   C1B37567   8.058  10.955   8.680
 2870POPC   C2B37568   7.976  10.986   8.246
 2870POPC   C3B37569   7.885  11.084   7.835
 2870POPC   C4B37570   8.072  11.144   7.463
 2871POPC   NC337571  25.502   2.001   9.620
 2871POPC   PO437572  24.992   1.673   9.373
 2871POPC   GL137573  25.224   2.003   9.163
 2871POPC   GL237574  25.082   2.282   9.288
 2871POPC   C1A37575  25.290   1.948   8.719
 2871POPC   D2A37576  25.482   2.064   8.377
 2871POPC   C3A37577  25.461   1.817   8.047
 2871POPC   C4A37578  25.436   2.040   7.708
 2871POPC   C1B37579  24.994   2.331   8.852
 2871POPC   C2B37580  24.992   2.298   8.413
 2871POPC   C3B37581  25.207   2.359   8.050
 2871POPC   C4B37582  25.029   2.404   7.667
 2872POPC   NC337583  26.503  14.275   9.509
 2872POPC   PO437584  26.506  14.960   9.445
 2872POPC   GL137585  26.744  14.687   9.110
 2872POPC   GL237586  26.914  14.380   9.238
 2872POPC   C1A37587  26.576  14.633   8.688
 2872POPC   D2A37588  26.595  14.335   8.368
 2872POPC   C3A37589  26.807  14.354   7.970
 2872POPC   C4A37590  26.584  14.424   7.582
 2872POPC   C1B37591  26.807  14.192   8.826
 2872POPC   C2B37592  27.027  14.074   8.403
 2872POPC   C3B37593  27.008  13.861   7.996
 2872POPC   C4B37594  26.949  13.998   7.561
 2873POPC   NC337595  33.389  12.013   9.458
 2873POPC   PO437596  32.725  12.160   9.293
 2873POPC   GL137597  33.055  11.965   9.057
 2873POPC   GL237598  33.211  12.295   9.056
 2873POPC   C1A37599  33.076  11.889   8.611
 2873POPC   D2A37600  33.344  11.855   8.258
 2873POPC   C3A37601  33.080  11.780   7.909
 2873POPC   C4A37602  32.665  11.912   7.829
 2873POPC   C1B37603  33.236  12.359   8.603
 2873POPC   C2B37604  32.949  12.330   8.239
 2873POPC   C3B37605  33.072  12.283   7.824
 2873POPC   C4B37606  33.493  12.072   7.814
 2874POPC   NC337607  42.167  41.164   9.456
 2874POPC   PO437608  42.414  40.536   9.476
 2874POPC   GL137609  42.420  40.839   9.124
 2874POPC   GL237610  42.086  40.802   9.097
 2874POPC   C1A37611  42.356  41.078   8.707
 2874POPC   D2A37612  42.408  41.305   8.304
 2874POPC   C3A37613  42.272  41.053   7.984
 2874POPC   C4A37614  42.395  40.784   7.659
 2874POPC   C1B37615  42.158  40.599   8.743
 2874POPC   C2B37616  42.066  40.773   8.376
 2874POPC   C3B37617  42.156  40.553   8.049
 2874POPC   C4B37618  42.090  40.361   7.695
 2875POPC   NC337619  20.671  26.332   9.594
 2875POPC   PO437620  20.476  26.985   9.426
 2875POPC   GL137621  20.519  26.833   9.073
 2875POPC   GL237622  20.816  26.654   9.092
 2875POPC   C1A37623  20.471  26.971   8.702
 2875POPC   D2A37624  20.447  26.740   8.378
 2875POPC   C3A37625  20.616  26.875   8.024
 2875POPC   C4A37626  20.449  26.764   7.673
 2875POPC   C1B37627  20.746  26.477   8.703
 2875POPC   C2B37628  20.918  26.526   8.310
 2875POPC   C3B37629  21.107  26.754   7.987
 2875POPC   C4B37630  20.962  26.700   7.579
 2876POPC   NC337631  37.476  17.893   9.456
 2876POPC   PO437632  38.071  17.569   9.446
 2876POPC   GL137633  37.947  17.290   9.068
 2876POPC   GL237634  37.647  17.488   9.091
 2876POPC   C1A37635  37.760  17.296   8.627
 2876POPC   D2A37636  37.740  17.674   8.374
 2876POPC   C3A37637  37.691  17.622   7.936
 2876POPC   C4A37638  37.921  17.325   7.673
 2876POPC   C1B37639  37.404  17.651   8.796
 2876POPC   C2B37640  37.239  17.623   8.417
 2876POPC   C3B37641  37.173  17.662   8.011
 2876POPC   C4B37642  37.255  17.515   7.626
 2877POPC   NC337643  35.885  17.501   9.405
 2877POPC   PO437644  36.555  17.201   9.444
 2877POPC   GL137645  36.323  17.355   9.105
 2877POPC   GL237646  36.504  17.569   8.932
 2877POPC   C1A37647  36.011  17.431   8.779
 2877POPC   D2A37648  35.773  17.600   8.441
 2877POPC   C3A37649  35.954  17.717   8.051
 2877POPC   C4A37650  35.957  17.377   7.734
 2877POPC   C1B37651  36.419  17.584   8.513
 2877POPC   C2B37652  36.231  17.334   8.240
 2877POPC   C3B37653  36.424  17.248   7.862
 2877POPC   C4B37654  36.382  17.316   7.382
 2878POPC   NC337655   5.439  13.869   9.440
 2878POPC   PO437656   4.822  13.560   9.596
 2878POPC   GL137657   4.933  13.593   9.141
 2878POPC   GL237658   5.195  13.827   8.939
 2878POPC   C1A37659   5.019  13.400   8.751
 2878POPC   D2A37660   5.125  13.624   8.410
 2878POPC   C3A37661   4.983  13.410   8.074
 2878POPC   C4A37662   5.031  13.554   7.667
 2878POPC   C1B37663   4.755  13.861   8.740
 2878POPC   C2B37664   4.583  13.666   8.369
 2878POPC   C3B37665   4.630  13.786   7.942
 2878POPC   C4B37666   4.866  14.021   7.638
 2879POPC   NC337667  35.586  37.451   9.393
 2879POPC   PO437668  35.147  37.779   9.716
 2879POPC   GL137669  35.257  37.879   9.223
 2879POPC   GL237670  35.569  37.858   8.981
 2879POPC   C1A37671  35.125  37.948   8.767
 2879POPC   D2A37672  35.259  37.770   8.370
 2879POPC   C3A37673  35.041  37.752   8.001
 2879POPC   C4A37674  35.084  37.682   7.563
 2879POPC   C1B37675  35.427  37.479   8.753
 2879POPC   C2B37676  35.459  37.282   8.315
 2879POPC   C3B37677  35.365  37.327   7.838
 2879POPC   C4B37678  35.553  37.492   7.417
 2880POPC   NC337679   7.792   6.690   9.534
 2880POPC   PO437680   7.162   6.462   9.465
 2880POPC   GL137681   7.275   6.691   9.104
 2880POPC   GL237682   7.639   6.617   9.051
 2880POPC   C1A37683   7.293   6.707   8.630
 2880POPC   D2A37684   7.317   6.389   8.276
 2880POPC   C3A37685   7.387   6.534   7.853
 2880POPC   C4A37686   7.733   6.615   7.645
 2880POPC   C1B37687   7.627   7.030   8.891
 2880POPC   C2B37688   7.592   7.128   8.470
 2880POPC   C3B37689   7.602   6.912   8.105
 2880POPC   C4B37690   7.532   7.087   7.703
 2881POPC   NC337691  34.663   8.503   9.487
 2881POPC   PO437692  34.990   7.864   9.534
 2881POPC   GL137693  34.829   7.931   9.135
 2881POPC   GL237694  34.575   8.165   9.115
 2881POPC   C1A37695  34.749   7.969   8.684
 2881POPC   D2A37696  34.504   8.220   8.418
 2881POPC   C3A37697  34.718   8.200   8.075
 2881POPC   C4A37698  34.636   7.972   7.746
 2881POPC   C1B37699  34.741   8.468   8.812
 2881POPC   C2B37700  34.955   8.513   8.434
 2881POPC   C3B37701  34.964   8.662   8.001
 2881POPC   C4B37702  34.911   8.383   7.620
 2882POPC   NC337703  29.679  18.697   9.355
 2882POPC   PO437704  30.048  18.123   9.421
 2882POPC   GL137705  29.659  18.200   9.197
 2882POPC   GL237706  29.921  18.416   9.003
 2882POPC   C1A37707  29.487  18.294   8.782
 2882POPC   D2A37708  29.805  18.401   8.481
 2882POPC   C3A37709  29.643  18.333   8.084
 2882POPC   C4A37710  29.688  18.591   7.742
 2882POPC   C1B37711  29.897  17.982   8.802
 2882POPC   C2B37712  29.800  17.889   8.393
 2882POPC   C3B37713  30.086  18.083   8.144
 2882POPC   C4B37714  30.002  18.177   7.733
 2883POPC   NC337715  21.006  16.609   9.666
 2883POPC   PO437716  21.630  16.588   9.510
 2883POPC   GL137717  21.267  16.633   9.219
 2883POPC   GL237718  21.252  16.952   9.066
 2883POPC   C1A37719  21.091  16.607   8.772
 2883POPC   D2A37720  21.305  16.647   8.413
 2883POPC   C3A37721  21.157  16.645   8.038
 2883POPC   C4A37722  21.492  16.722   7.812
 2883POPC   C1B37723  21.592  16.729   8.827
 2883POPC   C2B37724  21.801  16.795   8.403
 2883POPC   C3B37725  21.981  16.873   8.001
 2883POPC   C4B37726  21.944  16.500   7.752
 2884POPC   NC337727  32.719   0.296   9.567
 2884POPC   PO437728  33.406   0.511   9.520
 2884POPC   GL137729  33.061   0.410   9.149
 2884POPC   GL237730  32.865   0.089   9.124
 2884POPC   C1A37731  32.997   0.265   8.679
 2884POPC   D2A37732  33.033   0.472   8.326
 2884POPC   C3A37733  32.983   0.238   8.021
 2884POPC   C4A37734  33.045   0.433   7.674
 2884POPC   C1B37735  32.613  44.942   8.787
 2884POPC   C2B37736  32.386   0.139   8.455
 2884POPC   C3B37737  32.474   0.291   8.056
 2884POPC   C4B37738  32.621   0.135   7.682
 2885POPC   NC337739  15.744   7.715   9.201
 2885POPC   PO437740  16.160   7.276   9.600
 2885POPC   GL137741  16.232   7.319   9.146
 2885POPC   GL237742  16.084   7.022   8.981
 2885POPC   C1A37743  16.096   7.475   8.744
 2885POPC   D2A37744  15.811   7.493   8.405
 2885POPC   C3A37745  15.977   7.618   8.041
 2885POPC   C4A37746  16.232   7.399   7.794
 2885POPC   C1B37747  15.763   7.090   8.699
 2885POPC   C2B37748  15.520   6.970   8.420
 2885POPC   C3B37749  15.572   7.184   8.067
 2885POPC   C4B37750  15.701   7.372   7.688
 2886POPC   NC337751  17.990  26.673   9.580
 2886POPC   PO437752  18.657  26.533   9.436
 2886POPC   GL137753  18.407  26.740   9.114
 2886POPC   GL237754  18.241  26.949   9.107
 2886POPC   C1A37755  18.210  26.636   8.707
 2886POPC   D2A37756  18.207  26.413   8.316
 2886POPC   C3A37757  18.219  26.622   7.921
 2886POPC   C4A37758  18.251  26.484   7.485
 2886POPC   C1B37759  18.195  27.165   8.738
 2886POPC   C2B37760  18.271  27.382   8.373
 2886POPC   C3B37761  18.176  27.200   8.002
 2886POPC   C4B37762  18.203  27.024   7.596
 2887POPC   NC337763  35.595  26.632   9.281
 2887POPC   PO437764  35.004  26.976   9.323
 2887POPC   GL137765  35.264  26.938   9.057
 2887POPC   GL237766  35.189  26.603   8.952
 2887POPC   C1A37767  35.498  26.911   8.686
 2887POPC   D2A37768  35.493  26.775   8.298
 2887POPC   C3A37769  35.647  27.035   8.027
 2887POPC   C4A37770  35.321  26.963   7.813
 2887POPC   C1B37771  35.073  26.557   8.509
 2887POPC   C2B37772  35.277  26.321   8.178
 2887POPC   C3B37773  35.548  26.469   7.866
 2887POPC   C4B37774  35.355  26.585   7.500
 2888POPC   NC337775  28.622  14.555   9.569
 2888POPC   PO437776  27.890  14.409   9.537
 2888POPC   GL137777  28.281  14.294   9.261
 2888POPC   GL237778  28.543  14.552   9.074
 2888POPC   C1A37779  28.352  14.154   8.830
 2888POPC   D2A37780  28.355  14.420   8.500
 2888POPC   C3A37781  28.313  14.289   8.097
 2888POPC   C4A37782  28.382  14.111   7.711
 2888POPC   C1B37783  28.831  14.358   8.734
 2888POPC   C2B37784  28.813  14.223   8.280
 2888POPC   C3B37785  28.740  14.449   7.876
 2888POPC   C4B37786  28.812  14.708   7.537
 2889POPC   NC337787   6.579  10.020   9.642
 2889POPC   PO437788   6.121   9.562   9.653
 2889POPC   GL137789   6.409   9.659   9.289
 2889POPC   GL237790   6.783   9.759   9.241
 2889POPC   C1A37791   6.473   9.645   8.841
 2889POPC   D2A37792   6.684   9.545   8.457
 2889POPC   C3A37793   6.448   9.690   8.124
 2889POPC   C4A37794   6.541   9.621   7.701
 2889POPC   C1B37795   7.026   9.715   8.833
 2889POPC   C2B37796   7.139   9.857   8.419
 2889POPC   C3B37797   6.945   9.817   8.003
 2889POPC   C4B37798   6.766  10.086   7.663
 2890POPC   NC337799  18.157  10.914   9.771
 2890POPC   PO437800  18.035  10.199   9.568
 2890POPC   GL137801  18.151  10.246   9.107
 2890POPC   GL237802  18.463  10.388   9.028
 2890POPC   C1A37803  18.070  10.541   8.728
 2890POPC   D2A37804  17.926  10.458   8.330
 2890POPC   C3A37805  18.151  10.654   8.014
 2890POPC   C4A37806  18.260  10.538   7.609
 2890POPC   C1B37807  18.412  10.161   8.683
 2890POPC   C2B37808  18.448  10.410   8.353
 2890POPC   C3B37809  18.375  10.193   8.021
 2890POPC   C4B37810  18.258  10.029   7.649
 2891POPC   NC337811  35.039  13.874   9.959
 2891POPC   PO437812  34.655  14.337   9.636
 2891POPC   GL137813  34.583  14.289   9.213
 2891POPC   GL237814  34.845  14.487   9.181
 2891POPC   C1A37815  34.604  14.312   8.769
 2891POPC   D2A37816  34.461  14.197   8.379
 2891POPC   C3A37817  34.582  14.466   8.089
 2891POPC   C4A37818  34.482  14.398   7.684
 2891POPC   C1B37819  34.874  14.800   8.896
 2891POPC   C2B37820  34.897  14.746   8.469
 2891POPC   C3B37821  34.951  14.839   8.080
 2891POPC   C4B37822  34.823  14.772   7.712
 2892POPC   NC337823   5.987   9.168   9.876
 2892POPC   PO437824   6.510   8.948   9.536
 2892POPC   GL137825   6.742   9.049   9.194
 2892POPC   GL237826   6.773   8.749   9.008
 2892POPC   C1A37827   6.878   9.220   8.808
 2892POPC   D2A37828   6.795   9.014   8.421
 2892POPC   C3A37829   6.679   9.221   8.022
 2892POPC   C4A37830   6.781   9.161   7.588
 2892POPC   C1B37831   6.520   8.581   8.673
 2892POPC   C2B37832   6.424   8.708   8.240
 2892POPC   C3B37833   6.417   8.768   7.798
 2892POPC   C4B37834   6.223   8.495   7.491
 2893POPC   NC337835   9.079  13.452   9.591
 2893POPC   PO437836   8.615  13.901   9.667
 2893POPC   GL137837   8.836  13.595   9.185
 2893POPC   GL237838   9.107  13.352   9.116
 2893POPC   C1A37839   8.870  13.668   8.716
 2893POPC   D2A37840   8.916  13.501   8.291
 2893POPC   C3A37841   9.075  13.741   7.936
 2893POPC   C4A37842   8.785  13.526   7.709
 2893POPC   C1B37843   9.356  13.395   8.795
 2893POPC   C2B37844   9.381  13.271   8.382
 2893POPC   C3B37845   9.300  13.274   7.955
 2893POPC   C4B37846   9.221  13.308   7.498
 2894POPC   NC337847   4.752  19.538   9.876
 2894POPC   PO437848   4.317  19.161   9.539
 2894POPC   GL137849   4.277  19.209   9.116
 2894POPC   GL237850   4.637  19.129   9.095
 2894POPC   C1A37851   4.293  19.009   8.705
 2894POPC   D2A37852   4.049  18.916   8.356
 2894POPC   C3A37853   4.208  19.047   7.956
 2894POPC   C4A37854   4.563  19.084   7.665
 2894POPC   C1B37855   4.589  19.406   8.746
 2894POPC   C2B37856   4.577  19.249   8.344
 2894POPC   C3B37857   4.513  19.457   7.993
 2894POPC   C4B37858   4.680  19.574   7.615
 2895POPC   NC337859  41.046  31.694   9.552
 2895POPC   PO437860  40.562  32.116   9.527
 2895POPC   GL137861  40.815  32.083   9.173
 2895POPC   GL237862  40.805  31.723   9.109
 2895POPC   C1A37863  40.842  32.355   8.803
 2895POPC   D2A37864  40.718  32.625   8.454
 2895POPC   C3A37865  40.764  32.465   8.034
 2895POPC   C4A37866  40.867  32.179   7.658
 2895POPC   C1B37867  40.544  31.894   8.775
 2895POPC   C2B37868  40.647  32.090   8.390
 2895POPC   C3B37869  40.626  31.902   8.002
 2895POPC   C4B37870  40.333  31.829   7.683
 2896POPC   NC337871  23.869  14.250   9.497
 2896POPC   PO437872  23.313  14.674   9.532
 2896POPC   GL137873  23.625  14.596   9.179
 2896POPC   GL237874  23.936  14.487   9.044
 2896POPC   C1A37875  23.587  14.627   8.702
 2896POPC   D2A37876  23.909  14.638   8.356
 2896POPC   C3A37877  23.746  14.773   7.956
 2896POPC   C4A37878  23.342  14.654   7.812
 2896POPC   C1B37879  23.944  14.203   8.676
 2896POPC   C2B37880  23.809  14.113   8.248
 2896POPC   C3B37881  23.932  14.312   7.832
 2896POPC   C4B37882  24.008  14.192   7.371
 2897POPC   NC337883  43.834   1.493   9.383
 2897POPC   PO437884  44.216   0.953   9.474
 2897POPC   GL137885  43.876   1.018   9.141
 2897POPC   GL237886  43.505   0.998   9.267
 2897POPC   C1A37887  43.848   1.168   8.711
 2897POPC   D2A37888  44.180   1.184   8.396
 2897POPC   C3A37889  44.054   1.200   7.981
 2897POPC   C4A37890  44.072   1.253   7.552
 2897POPC   C1B37891  43.479   0.788   8.864
 2897POPC   C2B37892  43.403   1.013   8.499
 2897POPC   C3B37893  43.558   1.245   8.188
 2897POPC   C4B37894  43.602   1.098   7.772
 2898POPC   NC337895  39.937  25.015   9.489
 2898POPC   PO437896  40.529  25.235   9.520
 2898POPC   GL137897  40.184  25.298   9.125
 2898POPC   GL237898  40.076  25.010   8.996
 2898POPC   C1A37899  39.864  25.422   8.774
 2898POPC   D2A37900  39.835  25.252   8.351
 2898POPC   C3A37901  39.963  25.481   7.962
 2898POPC   C4A37902  39.881  25.395   7.492
 2898POPC   C1B37903  40.289  25.161   8.634
 2898POPC   C2B37904  40.210  24.860   8.340
 2898POPC   C3B37905  39.946  24.836   8.009
 2898POPC   C4B37906  39.975  24.908   7.635
 2899POPC   NC337907  40.393   5.903   9.761
 2899POPC   PO437908  41.005   5.813   9.410
 2899POPC   GL137909  40.969   5.827   8.970
 2899POPC   GL237910  41.141   5.522   8.966
 2899POPC   C1A37911  40.896   5.971   8.501
 2899POPC   D2A37912  40.533   5.962   8.190
 2899POPC   C3A37913  40.599   5.944   7.745
 2899POPC   C4A37914  40.779   6.135   7.386
 2899POPC   C1B37915  40.865   5.475   8.618
 2899POPC   C2B37916  40.825   5.546   8.188
 2899POPC   C3B37917  40.602   5.445   7.806
 2899POPC   C4B37918  40.713   5.599   7.380
 2900POPC   NC337919  29.040  38.889   9.507
 2900POPC   PO437920  29.382  39.310   9.828
 2900POPC   GL137921  29.340  39.356   9.353
 2900POPC   GL237922  29.379  39.044   9.145
 2900POPC   C1A37923  29.192  39.518   8.929
 2900POPC   D2A37924  29.302  39.522   8.465
 2900POPC   C3A37925  29.048  39.462   8.088
 2900POPC   C4A37926  29.170  39.321   7.700
 2900POPC   C1B37927  29.175  39.062   8.710
 2900POPC   C2B37928  28.877  39.059   8.364
 2900POPC   C3B37929  28.879  38.943   7.938
 2900POPC   C4B37930  28.842  38.985   7.499
 2901POPC   NC337931  27.817  18.520   9.716
 2901POPC   PO437932  27.208  18.659   9.414
 2901POPC   GL137933  27.547  18.395   9.231
 2901POPC   GL237934  27.680  18.065   9.110
 2901POPC   C1A37935  27.595  18.446   8.788
 2901POPC   D2A37936  27.496  18.234   8.396
 2901POPC   C3A37937  27.424  18.516   8.102
 2901POPC   C4A37938  27.700  18.526   7.755
 2901POPC   C1B37939  27.803  17.982   8.705
 2901POPC   C2B37940  28.036  18.064   8.310
 2901POPC   C3B37941  28.012  18.099   7.834
 2901POPC   C4B37942  28.030  17.820   7.457
 2902POPC   NC337943  25.762   4.146   9.547
 2902POPC   PO437944  25.202   3.876   9.472
 2902POPC   GL137945  25.306   4.086   9.095
 2902POPC   GL237946  25.649   4.180   9.041
 2902POPC   C1A37947  25.043   4.270   8.772
 2902POPC   D2A37948  25.042   4.500   8.411
 2902POPC   C3A37949  25.234   4.283   8.114
 2902POPC   C4A37950  25.069   4.252   7.750
 2902POPC   C1B37951  25.478   4.510   8.741
 2902POPC   C2B37952  25.562   4.655   8.306
 2902POPC   C3B37953  25.579   4.577   7.864
 2902POPC   C4B37954  25.566   4.140   7.720
 2903POPC   NC337955  27.270  16.585   9.618
 2903POPC   PO437956  26.642  16.856   9.721
 2903POPC   GL137957  26.745  16.863   9.285
 2903POPC   GL237958  26.490  17.009   9.058
 2903POPC   C1A37959  26.896  16.792   8.866
 2903POPC   D2A37960  26.774  16.812   8.411
 2903POPC   C3A37961  26.950  16.987   8.034
 2903POPC   C4A37962  26.911  16.862   7.600
 2903POPC   C1B37963  26.320  16.863   8.672
 2903POPC   C2B37964  26.259  16.996   8.261
 2903POPC   C3B37965  26.469  16.827   7.906
 2903POPC   C4B37966  26.477  16.547   7.544
 2904POPC   NC337967  28.172  39.387   9.517
 2904POPC   PO437968  28.591  38.866   9.407
 2904POPC   GL137969  28.330  39.117   9.117
 2904POPC   GL237970  28.436  39.483   9.107
 2904POPC   C1A37971  28.145  39.317   8.734
 2904POPC   D2A37972  28.051  39.203   8.331
 2904POPC   C3A37973  28.353  38.947   8.115
 2904POPC   C4A37974  28.383  39.043   7.699
 2904POPC   C1B37975  28.704  39.310   8.812
 2904POPC   C2B37976  28.548  39.448   8.439
 2904POPC   C3B37977  28.520  39.436   8.036
 2904POPC   C4B37978  28.686  39.437   7.671
 2905POPC   NC337979   5.212  26.431   9.460
 2905POPC   PO437980   4.790  27.024   9.534
 2905POPC   GL137981   5.006  26.860   9.187
 2905POPC   GL237982   4.847  26.547   9.125
 2905POPC   C1A37983   5.226  26.829   8.766
 2905POPC   D2A37984   5.469  26.580   8.427
 2905POPC   C3A37985   5.335  26.631   7.987
 2905POPC   C4A37986   5.301  27.049   7.812
 2905POPC   C1B37987   4.768  26.663   8.707
 2905POPC   C2B37988   4.943  26.690   8.305
 2905POPC   C3B37989   4.854  26.777   7.849
 2905POPC   C4B37990   4.856  26.797   7.383
 2906POPC   NC337991  30.460  39.491   9.578
 2906POPC   PO437992  31.059  39.440   9.232
 2906POPC   GL137993  30.871  39.088   8.998
 2906POPC   GL237994  30.563  39.056   9.002
 2906POPC   C1A37995  30.795  39.064   8.566
 2906POPC   D2A37996  30.933  39.348   8.357
 2906POPC   C3A37997  30.893  39.165   7.989
 2906POPC   C4A37998  30.592  39.393   7.783
 2906POPC   C1B37999  30.365  38.822   8.636
 2906POPC   C2B38000  30.461  38.805   8.168
 2906POPC   C3B38001  30.324  38.953   7.750
 2906POPC   C4B38002  30.282  38.774   7.309
 2907POPC   NC338003   6.026  14.796   9.514
 2907POPC   PO438004   5.744  14.213   9.489
 2907POPC   GL138005   5.943  14.357   9.156
 2907POPC   GL238006   5.749  14.664   9.131
 2907POPC   C1A38007   5.836  14.310   8.724
 2907POPC   D2A38008   5.979  14.469   8.325
 2907POPC   C3A38009   5.790  14.228   7.999
 2907POPC   C4A38010   5.907  14.090   7.613
 2907POPC   C1B38011   6.022  14.760   8.810
 2907POPC   C2B38012   6.294  14.851   8.479
 2907POPC   C3B38013   6.323  14.717   8.041
 2907POPC   C4B38014   5.936  14.700   7.800
 2908POPC   NC338015  33.340  44.315   9.513
 2908POPC   PO438016  33.037  44.945   9.574
 2908POPC   GL138017  33.275  44.774   9.235
 2908POPC   GL238018  33.019  44.580   9.114
 2908POPC   C1A38019  33.326  44.892   8.799
 2908POPC   D2A38020  33.357  44.699   8.373
 2908POPC   C3A38021  33.101  44.753   7.942
 2908POPC   C4A38022  33.065  44.975   7.470
 2908POPC   C1B38023  32.947  44.565   8.675
 2908POPC   C2B38024  33.000  44.314   8.296
 2908POPC   C3B38025  32.777  44.318   7.911
 2908POPC   C4B38026  32.695  44.638   7.605
 2909POPC   NC338027   7.447  29.375   9.563
 2909POPC   PO438028   7.329  28.732   9.502
 2909POPC   GL138029   7.384  29.012   9.167
 2909POPC   GL238030   7.716  28.939   9.084
 2909POPC   C1A38031   7.121  29.043   8.788
 2909POPC   D2A38032   7.145  29.270   8.378
 2909POPC   C3A38033   7.440  29.259   7.983
 2909POPC   C4A38034   7.784  29.018   7.793
 2909POPC   C1B38035   7.602  29.077   8.643
 2909POPC   C2B38036   7.456  28.838   8.271
 2909POPC   C3B38037   7.377  28.726   7.810
 2909POPC   C4B38038   7.660  28.707   7.398
 2910POPC   NC338039   8.135  15.589   9.484
 2910POPC   PO438040   8.451  16.204   9.481
 2910POPC   GL138041   8.196  16.007   9.155
 2910POPC   GL238042   8.337  15.704   9.042
 2910POPC   C1A38043   8.078  16.117   8.720
 2910POPC   D2A38044   7.792  16.107   8.337
 2910POPC   C3A38045   8.032  15.912   7.960
 2910POPC   C4A38046   8.217  16.176   7.588
 2910POPC   C1B38047   8.500  15.648   8.654
 2910POPC   C2B38048   8.478  15.986   8.389
 2910POPC   C3B38049   8.533  16.095   7.992
 2910POPC   C4B38050   8.461  15.761   7.708
 2911POPC   NC338051   3.101   8.934   9.407
 2911POPC   PO438052   2.443   8.826   9.420
 2911POPC   GL138053   2.631   8.873   9.092
 2911POPC   GL238054   2.534   9.224   9.090
 2911POPC   C1A38055   2.610   8.631   8.726
 2911POPC   D2A38056   2.728   8.889   8.395
 2911POPC   C3A38057   2.861   8.703   8.029
 2911POPC   C4A38058   3.035   8.825   7.641
 2911POPC   C1B38059   2.888   9.216   8.785
 2911POPC   C2B38060   3.040   9.327   8.377
 2911POPC   C3B38061   2.888   9.241   7.976
 2911POPC   C4B38062   2.568   9.394   7.731
 2912POPC   NC338063  24.830  19.506   9.513
 2912POPC   PO438064  25.286  20.046   9.550
 2912POPC   GL138065  25.350  19.918   9.155
 2912POPC   GL238066  24.989  19.847   9.158
 2912POPC   C1A38067  25.252  19.723   8.746
 2912POPC   D2A38068  25.383  19.901   8.361
 2912POPC   C3A38069  25.149  19.865   7.979
 2912POPC   C4A38070  25.094  19.634   7.587
 2912POPC   C1B38071  24.836  20.076   8.795
 2912POPC   C2B38072  24.835  20.007   8.359
 2912POPC   C3B38073  24.722  20.126   7.927
 2912POPC   C4B38074  24.750  20.033   7.481
 2913POPC   NC338075  37.742  37.319   9.367
 2913POPC   PO438076  37.380  37.841   9.572
 2913POPC   GL138077  37.553  37.834   9.157
 2913POPC   GL238078  37.530  37.510   8.953
 2913POPC   C1A38079  37.696  37.943   8.728
 2913POPC   D2A38080  37.862  37.770   8.368
 2913POPC   C3A38081  37.680  37.963   8.030
 2913POPC   C4A38082  37.491  37.828   7.700
 2913POPC   C1B38083  37.915  37.408   8.722
 2913POPC   C2B38084  37.912  37.116   8.358
 2913POPC   C3B38085  37.781  37.217   7.983
 2913POPC   C4B38086  37.921  37.561   7.800
 2914POPC   NC338087  44.495   4.831   9.530
 2914POPC   PO438088  44.874   5.356   9.419
 2914POPC   GL138089  44.509   5.192   9.174
 2914POPC   GL238090  44.203   5.433   9.097
 2914POPC   C1A38091  44.427   4.849   8.856
 2914POPC   D2A38092  44.269   4.840   8.419
 2914POPC   C3A38093  44.495   5.039   8.111
 2914POPC   C4A38094  44.599   4.995   7.735
 2914POPC   C1B38095  44.463   5.334   8.702
 2914POPC   C2B38096  44.840   5.223   8.440
 2914POPC   C3B38097  44.903   5.386   8.037
 2914POPC   C4B38098  44.611   5.490   7.717
 2915POPC   NC338099  41.704  12.511   9.445
 2915POPC   PO438100  41.861  13.108   9.440
 2915POPC   GL138101  41.697  12.844   9.053
 2915POPC   GL238102  41.879  12.523   8.972
 2915POPC   C1A38103  41.400  12.918   8.689
 2915POPC   D2A38104  41.416  13.231   8.350
 2915POPC   C3A38105  41.671  13.187   7.980
 2915POPC   C4A38106  41.602  12.909   7.640
 2915POPC   C1B38107  42.013  12.710   8.597
 2915POPC   C2B38108  41.712  12.785   8.315
 2915POPC   C3B38109  41.623  12.539   8.028
 2915POPC   C4B38110  41.858  12.468   7.723
 2916POPC   NC338111  44.620  39.032   9.560
 2916POPC   PO438112  44.525  39.709   9.517
 2916POPC   GL138113  44.455  39.377   9.189
 2916POPC   GL238114  44.419  39.000   9.109
 2916POPC   C1A38115  44.612  39.362   8.771
 2916POPC   D2A38116  44.673  39.121   8.396
 2916POPC   C3A38117  44.971  39.254   8.112
 2916POPC   C4A38118  44.789  39.493   7.788
 2916POPC   C1B38119  44.236  39.020   8.727
 2916POPC   C2B38120  44.237  38.876   8.332
 2916POPC   C3B38121  44.402  39.024   7.952
 2916POPC   C4B38122  44.404  38.778   7.578
 2917POPC   NC338123   4.759  20.326   9.446
 2917POPC   PO438124   5.366  20.634   9.587
 2917POPC   GL138125   5.099  20.672   9.175
 2917POPC   GL238126   4.932  20.995   9.088
 2917POPC   C1A38127   5.231  20.799   8.744
 2917POPC   D2A38128   5.438  20.619   8.407
 2917POPC   C3A38129   5.285  20.672   7.997
 2917POPC   C4A38130   5.494  20.491   7.639
 2917POPC   C1B38131   4.720  20.747   8.772
 2917POPC   C2B38132   4.880  20.714   8.354
 2917POPC   C3B38133   4.819  20.894   7.959
 2917POPC   C4B38134   4.674  20.699   7.560
 2918POPC   NC338135  10.497  32.840   9.599
 2918POPC   PO438136  10.303  33.388   9.349
 2918POPC   GL138137  10.399  33.051   9.021
 2918POPC   GL238138  10.696  32.883   9.077
 2918POPC   C1A38139  10.250  33.039   8.596
 2918POPC   D2A38140  10.137  32.831   8.228
 2918POPC   C3A38141  10.290  33.041   7.851
 2918POPC   C4A38142  10.261  33.070   7.380
 2918POPC   C1B38143  10.759  33.098   8.679
 2918POPC   C2B38144  10.664  33.020   8.265
 2918POPC   C3B38145  10.750  33.257   7.926
 2918POPC   C4B38146  10.715  33.007   7.558
 2919POPC   NC338147  35.758   6.954   9.528
 2919POPC   PO438148  36.139   6.430   9.709
 2919POPC   GL138149  36.062   6.555   9.292
 2919POPC   GL238150  36.256   6.869   9.342
 2919POPC   C1A38151  35.946   6.449   8.833
 2919POPC   D2A38152  35.747   6.621   8.436
 2919POPC   C3A38153  35.645   6.391   8.059
 2919POPC   C4A38154  35.743   6.574   7.673
 2919POPC   C1B38155  36.361   6.741   8.917
 2919POPC   C2B38156  36.317   6.613   8.485
 2919POPC   C3B38157  36.094   6.616   8.042
 2919POPC   C4B38158  36.150   6.868   7.666
 2920POPC   NC338159  24.188  20.267   9.599
 2920POPC   PO438160  23.706  20.648   9.559
 2920POPC   GL138161  23.681  20.709   9.137
 2920POPC   GL238162  24.014  20.578   9.115
 2920POPC   C1A38163  23.662  20.475   8.728
 2920POPC   D2A38164  23.728  20.250   8.317
 2920POPC   C3A38165  23.544  20.426   7.927
 2920POPC   C4A38166  23.361  20.768   7.664
 2920POPC   C1B38167  24.069  20.767   8.714
 2920POPC   C2B38168  24.136  20.539   8.342
 2920POPC   C3B38169  24.057  20.418   7.894
 2920POPC   C4B38170  23.854  20.522   7.500
 2921POPC   NC338171  43.575  28.065   9.626
 2921POPC   PO438172  44.147  28.375   9.707
 2921POPC   GL138173  43.900  28.574   9.307
 2921POPC   GL238174  43.853  28.256   9.208
 2921POPC   C1A38175  43.738  28.573   8.843
 2921POPC   D2A38176  43.935  28.525   8.443
 2921POPC   C3A38177  43.867  28.665   8.008
 2921POPC   C4A38178  44.035  28.622   7.548
 2921POPC   C1B38179  43.831  28.068   8.763
 2921POPC   C2B38180  43.913  28.037   8.316
 2921POPC   C3B38181  43.767  28.138   7.909
 2921POPC   C4B38182  44.071  27.910   7.700
 2922POPC   NC338183   0.162  20.917   9.431
 2922POPC   PO438184   0.699  20.576   9.286
 2922POPC   GL138185   0.407  20.704   9.028
 2922POPC   GL238186   0.231  20.384   9.133
 2922POPC   C1A38187   0.470  20.816   8.588
 2922POPC   D2A38188   0.755  20.836   8.236
 2922POPC   C3A38189   0.556  20.582   7.929
 2922POPC   C4A38190   0.118  20.733   7.888
 2922POPC   C1B38191   0.103  20.458   8.711
 2922POPC   C2B38192   0.227  20.419   8.309
 2922POPC   C3B38193   0.195  20.216   7.956
 2922POPC   C4B38194   0.036  20.358   7.554
 2923POPC   NC338195  23.867  33.858   9.383
 2923POPC   PO438196  23.293  33.483   9.396
 2923POPC   GL138197  23.472  33.737   9.016
 2923POPC   GL238198  23.541  34.121   9.071
 2923POPC   C1A38199  23.704  33.884   8.624
 2923POPC   D2A38200  24.023  33.760   8.299
 2923POPC   C3A38201  23.864  33.810   7.878
 2923POPC   C4A38202  23.738  33.524   7.529
 2923POPC   C1B38203  23.310  34.200   8.708
 2923POPC   C2B38204  23.427  34.240   8.279
 2923POPC   C3B38205  23.390  33.982   7.924
 2923POPC   C4B38206  23.520  33.980   7.467
 2924POPC   NC338207  16.757  44.932   9.601
 2924POPC   PO438208  16.284  44.456   9.684
 2924POPC   GL138209  16.394  44.782   9.240
 2924POPC   GL238210  16.701  44.625   9.011
 2924POPC   C1A38211  16.357  44.770   8.719
 2924POPC   D2A38212  16.667  44.549   8.410
 2924POPC   C3A38213  16.546  44.679   7.985
 2924POPC   C4A38214  16.603  44.484   7.568
 2924POPC   C1B38215  17.050  44.424   8.744
 2924POPC   C2B38216  17.262  44.515   8.345
 2924POPC   C3B38217  17.048  44.826   8.124
 2924POPC   C4B38218  16.936  44.866   7.708
 2925POPC   NC338219   4.610   2.248   9.288
 2925POPC   PO438220   4.056   2.013   9.603
 2925POPC   GL138221   4.109   2.117   9.201
 2925POPC   GL238222   4.297   1.864   9.110
 2925POPC   C1A38223   4.170   2.281   8.785
 2925POPC   D2A38224   4.209   2.059   8.419
 2925POPC   C3A38225   4.315   2.149   8.035
 2925POPC   C4A38226   4.202   2.112   7.649
 2925POPC   C1B38227   4.398   1.677   8.755
 2925POPC   C2B38228   4.578   1.722   8.360
 2925POPC   C3B38229   4.418   1.672   7.975
 2925POPC   C4B38230   4.573   1.762   7.603
 2926POPC   NC338231  30.353  19.361   9.678
 2926POPC   PO438232  30.738  18.837   9.468
 2926POPC   GL138233  30.789  18.732   9.087
 2926POPC   GL238234  30.801  19.095   9.029
 2926POPC   C1A38235  30.580  18.778   8.710
 2926POPC   D2A38236  30.618  19.015   8.367
 2926POPC   C3A38237  30.784  18.758   8.124
 2926POPC   C4A38238  30.711  18.773   7.718
 2926POPC   C1B38239  30.846  19.333   8.681
 2926POPC   C2B38240  30.796  19.507   8.266
 2926POPC   C3B38241  30.764  19.299   7.875
 2926POPC   C4B38242  31.061  19.314   7.511
 2927POPC   NC338243   8.708  37.274   9.641
 2927POPC   PO438244   9.236  36.948   9.456
 2927POPC   GL138245   9.077  36.743   9.103
 2927POPC   GL238246   8.721  36.870   9.171
 2927POPC   C1A38247   9.240  36.840   8.672
 2927POPC   D2A38248   9.281  37.236   8.391
 2927POPC   C3A38249   9.304  37.163   7.928
 2927POPC   C4A38250   9.214  36.726   7.782
 2927POPC   C1B38251   8.800  37.082   8.802
 2927POPC   C2B38252   8.686  36.960   8.390
 2927POPC   C3B38253   8.518  37.169   8.059
 2927POPC   C4B38254   8.818  37.067   7.788
 2928POPC   NC338255  21.225  13.743   9.441
 2928POPC   PO438256  21.788  13.983   9.155
 2928POPC   GL138257  21.460  13.708   8.986
 2928POPC   GL238258  21.401  13.374   9.098
 2928POPC   C1A38259  21.142  13.594   8.692
 2928POPC   D2A38260  21.416  13.404   8.445
 2928POPC   C3A38261  21.540  13.633   8.111
 2928POPC   C4A38262  21.520  13.383   7.731
 2928POPC   C1B38263  21.188  13.082   8.793
 2928POPC   C2B38264  20.982  13.141   8.371
 2928POPC   C3B38265  21.068  13.481   8.047
 2928POPC   C4B38266  21.223  13.797   7.718
 2929POPC   NC338267  15.507   0.528   9.455
 2929POPC   PO438268  14.873   0.107   9.520
 2929POPC   GL138269  15.091   0.117   9.138
 2929POPC   GL238270  15.432   0.155   9.125
 2929POPC   C1A38271  14.969   0.313   8.773
 2929POPC   D2A38272  14.727   0.602   8.540
 2929POPC   C3A38273  14.801   0.519   8.111
 2929POPC   C4A38274  15.049   0.744   7.821
 2929POPC   C1B38275  15.459   0.467   8.779
 2929POPC   C2B38276  15.267   0.507   8.365
 2929POPC   C3B38277  15.483   0.510   7.964
 2929POPC   C4B38278  15.791   0.389   7.641
 2930POPC   NC338279  15.860  38.131   9.402
 2930POPC   PO438280  16.343  38.593   9.437
 2930POPC   GL138281  16.118  38.440   9.091
 2930POPC   GL238282  16.259  38.108   9.074
 2930POPC   C1A38283  15.804  38.545   8.772
 2930POPC   D2A38284  15.596  38.394   8.395
 2930POPC   C3A38285  15.840  38.600   8.108
 2930POPC   C4A38286  15.903  38.638   7.716
 2930POPC   C1B38287  16.288  37.970   8.675
 2930POPC   C2B38288  16.201  38.159   8.291
 2930POPC   C3B38289  15.964  38.154   7.921
 2930POPC   C4B38290  16.082  38.204   7.504
 2931POPC   NC338291  32.698  27.336   9.466
 2931POPC   PO438292  33.235  27.635   9.383
 2931POPC   GL138293  32.959  27.570   9.035
 2931POPC   GL238294  32.740  27.286   8.978
 2931POPC   C1A38295  33.121  27.615   8.622
 2931POPC   D2A38296  33.423  27.788   8.339
 2931POPC   C3A38297  33.265  27.728   7.937
 2931POPC   C4A38298  32.946  27.720   7.668
 2931POPC   C1B38299  32.776  27.237   8.572
 2931POPC   C2B38300  32.916  27.410   8.186
 2931POPC   C3B38301  33.058  27.240   7.818
 2931POPC   C4B38302  32.900  27.280   7.394
 2932POPC   NC338303  31.343  41.295   9.541
 2932POPC   PO438304  31.780  41.877   9.491
 2932POPC   GL138305  31.575  41.595   9.194
 2932POPC   GL238306  31.875  41.463   9.115
 2932POPC   C1A38307  31.460  41.406   8.773
 2932POPC   D2A38308  31.236  41.443   8.369
 2932POPC   C3A38309  31.382  41.530   7.951
 2932POPC   C4A38310  31.502  41.168   7.698
 2932POPC   C1B38311  31.808  41.790   8.767
 2932POPC   C2B38312  31.718  41.651   8.352
 2932POPC   C3B38313  31.826  41.313   8.065
 2932POPC   C4B38314  31.829  41.547   7.671
 2933POPC   NC338315  30.920  29.987   9.596
 2933POPC   PO438316  30.407  29.653   9.334
 2933POPC   GL138317  30.858  29.688   9.162
 2933POPC   GL238318  30.958  30.038   9.079
 2933POPC   C1A38319  30.978  29.623   8.721
 2933POPC   D2A38320  30.630  29.588   8.418
 2933POPC   C3A38321  30.611  29.741   8.011
 2933POPC   C4A38322  30.993  29.642   7.872
 2933POPC   C1B38323  30.933  30.129   8.660
 2933POPC   C2B38324  30.990  29.974   8.274
 2933POPC   C3B38325  31.074  30.132   7.866
 2933POPC   C4B38326  30.898  30.144   7.457
 2934POPC   NC338327  14.895   1.317   9.402
 2934POPC   PO438328  15.396   0.957   9.588
 2934POPC   GL138329  15.215   0.898   9.196
 2934POPC   GL238330  15.563   0.909   9.055
 2934POPC   C1A38331  15.127   0.865   8.752
 2934POPC   D2A38332  15.430   0.993   8.451
 2934POPC   C3A38333  15.306   1.164   8.059
 2934POPC   C4A38334  15.428   1.115   7.651
 2934POPC   C1B38335  15.358   1.307   8.877
 2934POPC   C2B38336  15.405   1.519   8.461
 2934POPC   C3B38337  15.589   1.612   8.040
 2934POPC   C4B38338  15.490   1.646   7.580
 2935POPC   NC338339  20.310  34.425   9.502
 2935POPC   PO438340  20.830  34.605   9.154
 2935POPC   GL138341  20.443  34.581   9.015
 2935POPC   GL238342  20.369  34.892   9.165
 2935POPC   C1A38343  20.476  34.572   8.585
 2935POPC   D2A38344  20.842  34.714   8.394
 2935POPC   C3A38345  20.902  34.515   8.005
 2935POPC   C4A38346  20.634  34.713   7.704
 2935POPC   C1B38347  20.228  34.986   8.748
 2935POPC   C2B38348  20.330  34.956   8.279
 2935POPC   C3B38349  20.280  35.049   7.821
 2935POPC   C4B38350  20.124  34.765   7.469
 2936POPC   NC338351   8.481  27.745   9.961
 2936POPC   PO438352   8.562  27.716   9.349
 2936POPC   GL138353   8.274  27.732   9.076
 2936POPC   GL238354   8.194  27.380   9.106
 2936POPC   C1A38355   8.429  27.745   8.671
 2936POPC   D2A38356   8.339  27.521   8.329
 2936POPC   C3A38357   8.331  27.769   8.013
 2936POPC   C4A38358   8.349  27.565   7.645
 2936POPC   C1B38359   7.983  27.479   8.722
 2936POPC   C2B38360   7.801  27.461   8.349
 2936POPC   C3B38361   7.976  27.398   7.974
 2936POPC   C4B38362   7.864  27.443   7.584
 2937POPC   NC338363  44.992  17.453   9.579
 2937POPC   PO438364   0.366  17.975   9.517
 2937POPC   GL138365   0.263  17.645   9.174
 2937POPC   GL238366   0.329  17.281   9.227
 2937POPC   C1A38367   0.357  17.482   8.749
 2937POPC   D2A38368   0.626  17.503   8.380
 2937POPC   C3A38369   0.526  17.596   7.959
 2937POPC   C4A38370   0.695  17.225   7.754
 2937POPC   C1B38371  44.955  17.218   8.953
 2937POPC   C2B38372  44.985  17.156   8.521
 2937POPC   C3B38373  44.940  17.242   8.094
 2937POPC   C4B38374   0.199  17.229   7.747
 2938POPC   NC338375  44.240  12.129   9.462
 2938POPC   PO438376  43.965  11.575   9.511
 2938POPC   GL138377  43.903  11.882   9.141
 2938POPC   GL238378  43.566  12.063   9.049
 2938POPC   C1A38379  44.005  12.047   8.739
 2938POPC   D2A38380  43.907  12.183   8.312
 2938POPC   C3A38381  43.983  11.893   7.971
 2938POPC   C4A38382  43.980  11.985   7.524
 2938POPC   C1B38383  43.513  12.300   8.652
 2938POPC   C2B38384  43.431  12.416   8.212
 2938POPC   C3B38385  43.632  12.236   7.840
 2938POPC   C4B38386  43.640  12.376   7.405
 2939POPC   NC338387  41.618  17.176   9.588
 2939POPC   PO438388  41.899  17.746   9.514
 2939POPC   GL138389  41.751  17.615   9.113
 2939POPC   GL238390  41.404  17.617   9.200
 2939POPC   C1A38391  41.634  17.407   8.724
 2939POPC   D2A38392  41.485  17.156   8.366
 2939POPC   C3A38393  41.682  17.290   7.983
 2939POPC   C4A38394  41.690  17.512   7.594
 2939POPC   C1B38395  41.317  17.809   8.777
 2939POPC   C2B38396  41.320  17.640   8.360
 2939POPC   C3B38397  41.414  17.777   7.951
 2939POPC   C4B38398  41.183  17.673   7.598
 2940POPC   NC338399  20.224  41.028   9.465
 2940POPC   PO438400  20.856  40.803   9.526
 2940POPC   GL138401  20.805  40.977   9.108
 2940POPC   GL238402  20.449  40.857   9.055
 2940POPC   C1A38403  20.712  41.006   8.656
 2940POPC   D2A38404  20.518  40.729   8.417
 2940POPC   C3A38405  20.694  40.646   8.032
 2940POPC   C4A38406  20.424  40.434   7.763
 2940POPC   C1B38407  20.250  41.182   8.794
 2940POPC   C2B38408  20.354  41.253   8.373
 2940POPC   C3B38409  20.488  41.101   8.029
 2940POPC   C4B38410  20.238  40.909   7.721
 2941POPC   NC338411  21.522  36.558   9.468
 2941POPC   PO438412  21.833  35.939   9.561
 2941POPC   GL138413  21.675  35.826   9.161
 2941POPC   GL238414  21.305  35.954   9.145
 2941POPC   C1A38415  21.702  35.958   8.745
 2941POPC   D2A38416  21.413  36.065   8.413
 2941POPC   C3A38417  21.502  36.147   7.980
 2941POPC   C4A38418  21.379  36.149   7.523
 2941POPC   C1B38419  21.055  36.152   8.783
 2941POPC   C2B38420  20.999  36.342   8.380
 2941POPC   C3B38421  21.015  36.266   7.948
 2941POPC   C4B38422  20.784  36.599   7.875
 2942POPC   NC338423   7.857  26.859   9.646
 2942POPC   PO438424   8.414  27.021   9.624
 2942POPC   GL138425   8.224  26.878   9.226
 2942POPC   GL238426   8.526  26.966   9.095
 2942POPC   C1A38427   8.246  26.784   8.733
 2942POPC   D2A38428   8.121  27.043   8.352
 2942POPC   C3A38429   7.940  26.884   7.946
 2942POPC   C4A38430   8.123  26.661   7.560
 2942POPC   C1B38431   8.495  27.215   8.708
 2942POPC   C2B38432   8.632  27.082   8.295
 2942POPC   C3B38433   8.451  26.960   7.923
 2942POPC   C4B38434   8.409  27.080   7.509
 2943POPC   NC338435  23.323  31.281   9.402
 2943POPC   PO438436  23.995  31.583   9.424
 2943POPC   GL138437  23.690  31.534   9.144
 2943POPC   GL238438  23.863  31.274   9.006
 2943POPC   C1A38439  23.572  31.617   8.750
 2943POPC   D2A38440  23.773  31.500   8.364
 2943POPC   C3A38441  23.592  31.649   7.966
 2943POPC   C4A38442  23.874  31.699   7.563
 2943POPC   C1B38443  23.628  31.104   8.656
 2943POPC   C2B38444  23.341  31.201   8.316
 2943POPC   C3B38445  23.365  31.165   7.911
 2943POPC   C4B38446  23.570  31.299   7.592
 2944POPC   NC338447  37.362   4.931   9.503
 2944POPC   PO438448  38.033   5.129   9.525
 2944POPC   GL138449  37.727   5.134   9.182
 2944POPC   GL238450  37.728   4.792   9.176
 2944POPC   C1A38451  37.698   5.313   8.777
 2944POPC   D2A38452  37.842   5.081   8.452
 2944POPC   C3A38453  37.654   5.131   8.090
 2944POPC   C4A38454  37.763   5.123   7.708
 2944POPC   C1B38455  37.442   4.849   8.837
 2944POPC   C2B38456  37.351   4.554   8.494
 2944POPC   C3B38457  37.174   4.589   8.094
 2944POPC   C4B38458  37.264   4.633   7.679
 2945POPC   NC338459  44.477  39.947   9.903
 2945POPC   PO438460  44.911  40.304   9.649
 2945POPC   GL138461  44.682  40.169   9.284
 2945POPC   GL238462  44.948  40.327   9.124
 2945POPC   C1A38463  44.635  40.034   8.846
 2945POPC   D2A38464  44.481  40.144   8.423
 2945POPC   C3A38465  44.539  39.798   8.115
 2945POPC   C4A38466  44.458  39.840   7.648
 2945POPC   C1B38467  44.961  40.403   8.696
 2945POPC   C2B38468  44.985  40.183   8.369
 2945POPC   C3B38469  44.765  40.225   7.987
 2945POPC   C4B38470  44.936  40.003   7.656
 2946POPC   NC338471  15.640  27.777   9.538
 2946POPC   PO438472  15.824  27.178   9.272
 2946POPC   GL138473  15.843  27.563   9.076
 2946POPC   GL238474  16.126  27.756   9.207
 2946POPC   C1A38475  15.748  27.681   8.638
 2946POPC   D2A38476  15.757  27.848   8.228
 2946POPC   C3A38477  15.790  27.506   7.941
 2946POPC   C4A38478  15.554  27.224   7.697
 2946POPC   C1B38479  16.264  27.661   8.775
 2946POPC   C2B38480  16.171  27.543   8.343
 2946POPC   C3B38481  16.216  27.760   7.953
 2946POPC   C4B38482  16.160  27.717   7.518
 2947POPC   NC338483   2.468  38.818   9.591
 2947POPC   PO438484   2.907  39.310   9.580
 2947POPC   GL138485   2.758  39.211   9.160
 2947POPC   GL238486   2.536  38.941   9.081
 2947POPC   C1A38487   2.741  39.333   8.719
 2947POPC   D2A38488   3.043  39.531   8.439
 2947POPC   C3A38489   2.988  39.715   7.999
 2947POPC   C4A38490   3.061  39.544   7.579
 2947POPC   C1B38491   2.528  38.850   8.623
 2947POPC   C2B38492   2.605  39.116   8.245
 2947POPC   C3B38493   2.674  39.327   7.858
 2947POPC   C4B38494   2.668  39.216   7.399
 2948POPC   NC338495  10.476   8.762   9.446
 2948POPC   PO438496  10.327   9.481   9.538
 2948POPC   GL138497  10.361   9.196   9.204
 2948POPC   GL238498  10.681   9.100   9.094
 2948POPC   C1A38499  10.320   8.993   8.758
 2948POPC   D2A38500  10.597   9.157   8.443
 2948POPC   C3A38501  10.471   9.127   8.035
 2948POPC   C4A38502  10.500   9.087   7.594
 2948POPC   C1B38503  10.839   8.827   8.741
 2948POPC   C2B38504  10.775   8.695   8.313
 2948POPC   C3B38505  10.902   8.837   7.914
 2948POPC   C4B38506  11.211   8.602   7.785
 2949POPC   NC338507  12.953  26.869   9.505
 2949POPC   PO438508  12.414  27.239   9.446
 2949POPC   GL138509  12.645  26.975   9.139
 2949POPC   GL238510  12.674  26.564   9.226
 2949POPC   C1A38511  12.982  26.999   8.797
 2949POPC   D2A38512  12.882  27.042   8.376
 2949POPC   C3A38513  13.049  26.928   7.978
 2949POPC   C4A38514  12.838  27.013   7.566
 2949POPC   C1B38515  12.988  26.515   8.910
 2949POPC   C2B38516  13.028  26.528   8.454
 2949POPC   C3B38517  12.820  26.502   8.053
 2949POPC   C4B38518  12.952  26.518   7.611
 2950POPC   NC338519   6.674   3.368   9.426
 2950POPC   PO438520   6.309   3.866   9.347
 2950POPC   GL138521   6.542   3.599   8.984
 2950POPC   GL238522   6.839   3.323   8.955
 2950POPC   C1A38523   6.791   3.719   8.626
 2950POPC   D2A38524   6.569   4.001   8.350
 2950POPC   C3A38525   6.709   3.803   8.047
 2950POPC   C4A38526   6.696   3.617   7.665
 2950POPC   C1B38527   6.717   3.080   8.635
 2950POPC   C2B38528   6.555   3.140   8.239
 2950POPC   C3B38529   6.537   3.169   7.813
 2950POPC   C4B38530   6.724   3.066   7.446
 2951POPC   NC338531  34.898   3.038   9.589
 2951POPC   PO438532  34.461   3.640   9.498
 2951POPC   GL138533  34.505   3.537   9.081
 2951POPC   GL238534  34.637   3.269   9.204
 2951POPC   C1A38535  34.520   3.645   8.614
 2951POPC   D2A38536  34.664   3.926   8.274
 2951POPC   C3A38537  34.586   3.863   7.821
 2951POPC   C4A38538  34.413   3.452   7.631
 2951POPC   C1B38539  34.828   3.227   8.808
 2951POPC   C2B38540  35.001   3.287   8.435
 2951POPC   C3B38541  34.755   3.314   8.068
 2951POPC   C4B38542  34.921   3.450   7.711
 2952POPC   NC338543  18.275  14.626   9.593
 2952POPC   PO438544  18.398  13.930   9.707
 2952POPC   GL138545  18.498  14.260   9.312
 2952POPC   GL238546  18.202  14.363   9.158
 2952POPC   C1A38547  18.586  14.448   8.843
 2952POPC   D2A38548  18.406  14.539   8.456
 2952POPC   C3A38549  18.578  14.427   8.090
 2952POPC   C4A38550  18.407  14.557   7.734
 2952POPC   C1B38551  18.073  14.266   8.775
 2952POPC   C2B38552  18.129  14.113   8.393
 2952POPC   C3B38553  18.014  14.227   7.978
 2952POPC   C4B38554  17.824  14.235   7.486
 2953POPC   NC338555  35.785  11.606   9.567
 2953POPC   PO438556  35.156  11.391   9.654
 2953POPC   GL138557  35.173  11.359   9.203
 2953POPC   GL238558  35.532  11.264   9.156
 2953POPC   C1A38559  35.306  11.506   8.789
 2953POPC   D2A38560  35.523  11.297   8.434
 2953POPC   C3A38561  35.304  11.411   8.067
 2953POPC   C4A38562  35.432  11.675   7.741
 2953POPC   C1B38563  35.354  10.999   8.831
 2953POPC   C2B38564  35.046  11.092   8.542
 2953POPC   C3B38565  34.962  10.944   8.158
 2953POPC   C4B38566  34.979  10.965   7.729
 2954POPC   NC338567  34.311  22.092   9.799
 2954POPC   PO438568  34.905  22.285   9.457
 2954POPC   GL138569  34.550  22.145   9.198
 2954POPC   GL238570  34.328  22.439   9.035
 2954POPC   C1A38571  34.489  21.932   8.803
 2954POPC   D2A38572  34.244  22.123   8.506
 2954POPC   C3A38573  34.399  22.023   8.118
 2954POPC   C4A38574  34.784  21.933   7.904
 2954POPC   C1B38575  34.672  22.397   8.758
 2954POPC   C2B38576  34.767  22.287   8.355
 2954POPC   C3B38577  34.637  22.466   7.960
 2954POPC   C4B38578  34.711  22.313   7.551
 2955POPC   NC338579  24.825   8.972   9.453
 2955POPC   PO438580  24.274   9.248   9.658
 2955POPC   GL138581  24.360   9.214   9.218
 2955POPC   GL238582  24.393   8.860   9.208
 2955POPC   C1A38583  24.598   9.327   8.812
 2955POPC   D2A38584  24.881   9.166   8.490
 2955POPC   C3A38585  24.678   9.167   8.104
 2955POPC   C4A38586  24.517   9.059   7.722
 2955POPC   C1B38587  24.641   8.830   8.816
 2955POPC   C2B38588  24.576   8.762   8.403
 2955POPC   C3B38589  24.530   8.643   7.990
 2955POPC   C4B38590  24.164   8.603   7.760
 2956POPC   NC338591  38.283  27.260   9.608
 2956POPC   PO438592  38.464  26.590   9.611
 2956POPC   GL138593  38.543  26.628   9.207
 2956POPC   GL238594  38.587  26.984   9.260
 2956POPC   C1A38595  38.311  26.692   8.852
 2956POPC   D2A38596  38.288  26.979   8.514
 2956POPC   C3A38597  38.354  26.817   8.145
 2956POPC   C4A38598  38.295  26.455   7.871
 2956POPC   C1B38599  38.690  27.075   8.831
 2956POPC   C2B38600  38.800  26.904   8.426
 2956POPC   C3B38601  38.816  27.000   8.016
 2956POPC   C4B38602  38.550  26.911   7.704
 2957POPC   NC338603  15.845  44.594   9.572
 2957POPC   PO438604  16.331  44.303   9.177
 2957POPC   GL138605  15.954  44.491   9.063
 2957POPC   GL238606  15.885  44.837   9.126
 2957POPC   C1A38607  15.879  44.639   8.645
 2957POPC   D2A38608  16.071  44.818   8.297
 2957POPC   C3A38609  15.850  44.543   8.057
 2957POPC   C4A38610  15.819  44.334   7.689
 2957POPC   C1B38611  15.833   0.117   8.776
 2957POPC   C2B38612  15.633   0.127   8.391
 2957POPC   C3B38613  15.717   0.037   7.983
 2957POPC   C4B38614  16.092  44.898   7.781
 2958POPC   NC338615   2.689  25.997   9.680
 2958POPC   PO438616   3.155  26.366   9.359
 2958POPC   GL138617   2.909  26.131   9.039
 2958POPC   GL238618   2.832  25.789   9.131
 2958POPC   C1A38619   2.945  26.080   8.571
 2958POPC   D2A38620   2.862  25.902   8.153
 2958POPC   C3A38621   2.798  26.175   7.840
 2958POPC   C4A38622   3.084  26.431   7.668
 2958POPC   C1B38623   2.544  25.835   8.774
 2958POPC   C2B38624   2.396  25.812   8.316
 2958POPC   C3B38625   2.453  25.777   7.845
 2958POPC   C4B38626   2.652  25.825   7.439
 2959POPC   NC338627  10.302  26.541   9.664
 2959POPC   PO438628  10.816  26.940   9.558
 2959POPC   GL138629  10.644  26.986   9.153
 2959POPC   GL238630  10.289  26.927   9.177
 2959POPC   C1A38631  10.535  26.788   8.739
 2959POPC   D2A38632  10.546  26.581   8.352
 2959POPC   C3A38633  10.750  26.576   7.945
 2959POPC   C4A38634  10.722  26.873   7.627
 2959POPC   C1B38635  10.127  27.106   8.764
 2959POPC   C2B38636  10.111  26.922   8.345
 2959POPC   C3B38637  10.348  26.877   7.978
 2959POPC   C4B38638  10.220  26.787   7.562
 2960POPC   NC338639  30.140   8.228   9.355
 2960POPC   PO438640  29.711   7.737   9.363
 2960POPC   GL138641  29.864   7.982   9.005
 2960POPC   GL238642  30.210   8.095   8.883
 2960POPC   C1A38643  29.723   8.203   8.667
 2960POPC   D2A38644  29.985   8.247   8.335
 2960POPC   C3A38645  29.751   8.264   7.995
 2960POPC   C4A38646  29.815   8.026   7.643
 2960POPC   C1B38647  30.190   7.808   8.579
 2960POPC   C2B38648  30.337   7.873   8.175
 2960POPC   C3B38649  30.296   8.153   7.828
 2960POPC   C4B38650  30.284   8.158   7.381
 2961POPC   NC338651  10.967   4.586   9.602
 2961POPC   PO438652  10.492   4.148   9.558
 2961POPC   GL138653  10.533   4.329   9.208
 2961POPC   GL238654  10.282   4.581   9.172
 2961POPC   C1A38655  10.480   4.264   8.788
 2961POPC   D2A38656  10.334   4.218   8.413
 2961POPC   C3A38657  10.520   4.104   8.046
 2961POPC   C4A38658  10.685   3.965   7.672
 2961POPC   C1B38659  10.652   4.723   8.908
 2961POPC   C2B38660  10.655   4.699   8.470
 2961POPC   C3B38661  10.428   4.608   8.109
 2961POPC   C4B38662  10.586   4.509   7.722
 2962POPC   NC338663  41.287  43.676   9.366
 2962POPC   PO438664  40.859  44.113   9.740
 2962POPC   GL138665  40.988  44.104   9.261
 2962POPC   GL238666  40.902  43.796   9.053
 2962POPC   C1A38667  41.187  44.194   8.840
 2962POPC   D2A38668  41.337  44.173   8.394
 2962POPC   C3A38669  41.016  44.055   8.083
 2962POPC   C4A38670  40.711  43.902   7.767
 2962POPC   C1B38671  40.570  43.663   8.740
 2962POPC   C2B38672  40.692  43.467   8.334
 2962POPC   C3B38673  41.014  43.551   8.066
 2962POPC   C4B38674  41.252  43.508   7.682
 2963POPC   NC338675  16.337  20.373   9.548
 2963POPC   PO438676  15.636  20.520   9.486
 2963POPC   GL138677  15.979  20.494   9.175
 2963POPC   GL238678  15.953  20.779   8.966
 2963POPC   C1A38679  16.131  20.389   8.741
 2963POPC   D2A38680  16.076  20.667   8.383
 2963POPC   C3A38681  16.052  20.537   7.946
 2963POPC   C4A38682  16.039  20.396   7.522
 2963POPC   C1B38683  15.648  20.530   8.711
 2963POPC   C2B38684  15.694  20.300   8.315
 2963POPC   C3B38685  15.542  20.531   7.956
 2963POPC   C4B38686  15.667  20.771   7.611
 2964POPC   NC338687  24.220  42.833   9.289
 2964POPC   PO438688  23.606  43.098   9.547
 2964POPC   GL138689  23.714  42.936   9.158
 2964POPC   GL238690  23.904  43.251   9.124
 2964POPC   C1A38691  23.756  42.983   8.710
 2964POPC   D2A38692  23.475  42.969   8.367
 2964POPC   C3A38693  23.590  42.825   8.000
 2964POPC   C4A38694  23.528  43.054   7.673
 2964POPC   C1B38695  24.066  43.495   8.799
 2964POPC   C2B38696  24.270  43.378   8.427
 2964POPC   C3B38697  24.058  43.034   8.191
 2964POPC   C4B38698  24.030  43.037   7.744
 2965POPC   NC338699  24.091   0.262   9.407
 2965POPC   PO438700  23.424   0.577   9.416
 2965POPC   GL138701  23.752   0.678   9.122
 2965POPC   GL238702  23.786   0.358   9.009
 2965POPC   C1A38703  23.804   0.722   8.639
 2965POPC   D2A38704  23.699   0.408   8.273
 2965POPC   C3A38705  23.635   0.519   7.806
 2965POPC   C4A38706  23.514   0.449   7.352
 2965POPC   C1B38707  24.132   0.307   8.732
 2965POPC   C2B38708  24.202   0.480   8.343
 2965POPC   C3B38709  24.127   0.318   7.961
 2965POPC   C4B38710  24.137   0.625   7.687
 2966POPC   NC338711   8.413  10.112   9.431
 2966POPC   PO438712   8.172  10.635   9.639
 2966POPC   GL138713   8.152  10.561   9.214
 2966POPC   GL238714   7.845  10.727   9.106
 2966POPC   C1A38715   8.435  10.642   8.842
 2966POPC   D2A38716   8.336  10.562   8.394
 2966POPC   C3A38717   8.386  10.778   7.992
 2966POPC   C4A38718   8.493  10.507   7.637
 2966POPC   C1B38719   7.932  10.457   8.758
 2966POPC   C2B38720   7.921  10.265   8.357
 2966POPC   C3B38721   8.114  10.334   7.967
 2966POPC   C4B38722   7.993  10.627   7.641
 2967POPC   NC338723  39.172  25.143   9.515
 2967POPC   PO438724  39.840  25.483   9.436
 2967POPC   GL138725  39.481  25.311   9.139
 2967POPC   GL238726  39.070  25.355   9.070
 2967POPC   C1A38727  39.403  25.205   8.703
 2967POPC   D2A38728  39.278  25.349   8.319
 2967POPC   C3A38729  39.525  25.274   7.940
 2967POPC   C4A38730  39.375  25.366   7.505
 2967POPC   C1B38731  38.887  25.119   8.716
 2967POPC   C2B38732  38.919  24.987   8.272
 2967POPC   C3B38733  39.037  25.202   7.881
 2967POPC   C4B38734  38.974  25.054   7.422
 2968POPC   NC338735  36.019  23.126   9.234
 2968POPC   PO438736  35.640  23.642   9.625
 2968POPC   GL138737  36.017  23.665   9.264
 2968POPC   GL238738  36.350  23.536   9.165
 2968POPC   C1A38739  36.032  23.609   8.767
 2968POPC   D2A38740  35.904  23.446   8.367
 2968POPC   C3A38741  35.999  23.667   7.979
 2968POPC   C4A38742  36.098  23.467   7.565
 2968POPC   C1B38743  36.422  23.894   8.877
 2968POPC   C2B38744  36.175  24.031   8.502
 2968POPC   C3B38745  36.303  24.095   8.079
 2968POPC   C4B38746  36.411  23.812   7.724
 2969POPC   NC338747  36.161  36.568   9.533
 2969POPC   PO438748  35.960  37.184   9.443
 2969POPC   GL138749  36.310  37.121   9.149
 2969POPC   GL238750  36.219  36.802   9.095
 2969POPC   C1A38751  36.351  37.092   8.691
 2969POPC   D2A38752  36.053  37.139   8.337
 2969POPC   C3A38753  36.246  36.992   7.964
 2969POPC   C4A38754  36.006  36.772   7.656
 2969POPC   C1B38755  36.289  36.554   8.753
 2969POPC   C2B38756  36.216  36.641   8.366
 2969POPC   C3B38757  36.271  36.472   7.995
 2969POPC   C4B38758  36.472  36.602   7.631
 2970POPC   NC338759  14.300  28.972   9.517
 2970POPC   PO438760  14.475  29.620   9.563
 2970POPC   GL138761  14.382  29.367   9.170
 2970POPC   GL238762  14.657  29.148   9.179
 2970POPC   C1A38763  14.246  29.143   8.755
 2970POPC   D2A38764  14.328  28.889   8.397
 2970POPC   C3A38765  14.029  29.027   8.099
 2970POPC   C4A38766  14.119  29.066   7.674
 2970POPC   C1B38767  14.727  28.951   8.789
 2970POPC   C2B38768  14.796  29.127   8.375
 2970POPC   C3B38769  14.634  29.043   7.969
 2970POPC   C4B38770  14.913  28.837   7.705
 2971POPC   NC338771  33.483   2.667   9.538
 2971POPC   PO438772  34.095   2.720   9.358
 2971POPC   GL138773  33.773   2.915   9.165
 2971POPC   GL238774  33.651   2.609   9.058
 2971POPC   C1A38775  33.749   3.010   8.749
 2971POPC   D2A38776  33.689   2.759   8.368
 2971POPC   C3A38777  33.758   3.028   8.040
 2971POPC   C4A38778  34.131   3.039   7.776
 2971POPC   C1B38779  33.503   2.422   8.714
 2971POPC   C2B38780  33.315   2.380   8.323
 2971POPC   C3B38781  33.471   2.502   7.945
 2971POPC   C4B38782  33.864   2.571   7.816
 2972POPC   NC338783  12.586  30.612   9.474
 2972POPC   PO438784  13.273  30.733   9.611
 2972POPC   GL138785  13.039  30.622   9.213
 2972POPC   GL238786  12.878  30.897   9.166
 2972POPC   C1A38787  12.974  30.589   8.742
 2972POPC   D2A38788  13.141  30.600   8.293
 2972POPC   C3A38789  12.960  30.546   7.851
 2972POPC   C4A38790  13.164  30.424   7.378
 2972POPC   C1B38791  12.590  30.912   8.826
 2972POPC   C2B38792  12.486  30.639   8.495
 2972POPC   C3B38793  12.467  30.672   8.065
 2972POPC   C4B38794  12.559  30.910   7.708
 2973POPC   NC338795  16.611  12.034   9.497
 2973POPC   PO438796  17.225  12.383   9.422
 2973POPC   GL138797  16.923  12.136   9.089
 2973POPC   GL238798  16.524  12.128   9.024
 2973POPC   C1A38799  16.824  12.126   8.624
 2973POPC   D2A38800  17.003  12.144   8.216
 2973POPC   C3A38801  16.784  11.958   7.874
 2973POPC   C4A38802  16.838  11.813   7.429
 2973POPC   C1B38803  16.286  12.132   8.659
 2973POPC   C2B38804  16.392  12.006   8.249
 2973POPC   C3B38805  16.276  12.177   7.868
 2973POPC   C4B38806  16.454  12.200   7.445
 2974POPC   NC338807  20.941   1.980   9.800
 2974POPC   PO438808  20.298   1.948   9.521
 2974POPC   GL138809  20.551   1.978   9.085
 2974POPC   GL238810  20.758   2.306   8.944
 2974POPC   C1A38811  20.396   2.085   8.674
 2974POPC   D2A38812  20.589   2.267   8.301
 2974POPC   C3A38813  20.389   2.103   7.935
 2974POPC   C4A38814  20.439   1.728   7.696
 2974POPC   C1B38815  20.890   1.967   8.644
 2974POPC   C2B38816  21.111   1.968   8.235
 2974POPC   C3B38817  21.000   1.807   7.834
 2974POPC   C4B38818  20.913   1.382   7.679
 2975POPC   NC338819  28.506  22.900   9.798
 2975POPC   PO438820  28.077  23.179   9.420
 2975POPC   GL138821  28.283  22.925   9.164
 2975POPC   GL238822  28.636  22.969   9.170
 2975POPC   C1A38823  28.369  22.701   8.800
 2975POPC   D2A38824  28.506  22.789   8.404
 2975POPC   C3A38825  28.563  22.568   8.048
 2975POPC   C4A38826  28.306  22.623   7.737
 2975POPC   C1B38827  28.588  23.190   8.724
 2975POPC   C2B38828  28.503  23.260   8.228
 2975POPC   C3B38829  28.441  23.126   7.756
 2975POPC   C4B38830  28.492  23.230   7.286
 2976POPC   NC338831   9.137  30.091   9.578
 2976POPC   PO438832   8.462  30.001   9.478
 2976POPC   GL138833   8.797  30.086   9.173
 2976POPC   GL238834   9.103  29.887   9.119
 2976POPC   C1A38835   8.804  30.071   8.742
 2976POPC   D2A38836   8.892  29.747   8.492
 2976POPC   C3A38837   8.879  29.907   8.099
 2976POPC   C4A38838   8.999  29.915   7.706
 2976POPC   C1B38839   9.246  29.523   8.908
 2976POPC   C2B38840   9.400  29.423   8.507
 2976POPC   C3B38841   9.323  29.641   8.142
 2976POPC   C4B38842   9.347  29.551   7.741
 2977POPC   NC338843  38.421  34.410   9.478
 2977POPC   PO438844  38.522  35.132   9.524
 2977POPC   GL138845  38.563  34.794   9.169
 2977POPC   GL238846  38.669  34.483   9.034
 2977POPC   C1A38847  38.693  34.847   8.702
 2977POPC   D2A38848  38.436  34.774   8.356
 2977POPC   C3A38849  38.641  34.505   8.065
 2977POPC   C4A38850  38.546  34.345   7.665
 2977POPC   C1B38851  38.291  34.495   8.790
 2977POPC   C2B38852  38.208  34.324   8.380
 2977POPC   C3B38853  38.194  34.150   7.971
 2977POPC   C4B38854  38.067  34.191   7.540
 2978POPC   NC338855  24.168  10.357   9.513
 2978POPC   PO438856  24.820  10.539   9.499
 2978POPC   GL138857  24.549  10.580   9.119
 2978POPC   GL238858  24.218  10.472   9.026
 2978POPC   C1A38859  24.635  10.395   8.705
 2978POPC   D2A38860  24.515  10.304   8.283
 2978POPC   C3A38861  24.539  10.679   8.016
 2978POPC   C4A38862  24.802  10.736   7.637
 2978POPC   C1B38863  24.226  10.095   8.738
 2978POPC   C2B38864  24.066  10.062   8.371
 2978POPC   C3B38865  24.191  10.008   8.010
 2978POPC   C4B38866  24.390  10.291   7.729
 2979POPC   NC338867  29.527  12.209   9.451
 2979POPC   PO438868  30.138  12.382   9.427
 2979POPC   GL138869  29.991  12.217   9.058
 2979POPC   GL238870  29.820  11.947   9.136
 2979POPC   C1A38871  29.951  12.268   8.637
 2979POPC   D2A38872  30.134  12.131   8.281
 2979POPC   C3A38873  29.889  12.252   7.951
 2979POPC   C4A38874  30.063  12.183   7.579
 2979POPC   C1B38875  29.959  11.765   8.767
 2979POPC   C2B38876  29.770  11.779   8.341
 2979POPC   C3B38877  29.914  11.699   7.951
 2979POPC   C4B38878  29.784  11.732   7.545
 2980POPC   NC338879   2.130  10.793   9.500
 2980POPC   PO438880   2.417  10.207   9.386
 2980POPC   GL138881   2.049  10.359   9.160
 2980POPC   GL238882   1.893  10.708   9.085
 2980POPC   C1A38883   1.977  10.329   8.731
 2980POPC   D2A38884   1.827  10.273   8.340
 2980POPC   C3A38885   2.034  10.414   7.995
 2980POPC   C4A38886   1.826  10.378   7.602
 2980POPC   C1B38887   1.968  10.868   8.733
 2980POPC   C2B38888   1.781  10.806   8.351
 2980POPC   C3B38889   2.047  10.941   8.035
 2980POPC   C4B38890   2.170  10.782   7.656
 2981POPC   NC338891  28.031  20.103   9.323
 2981POPC   PO438892  28.371  19.678   9.667
 2981POPC   GL138893  28.419  19.794   9.142
 2981POPC   GL238894  28.114  19.863   8.882
 2981POPC   C1A38895  28.527  19.653   8.684
 2981POPC   D2A38896  28.636  19.348   8.359
 2981POPC   C3A38897  28.538  19.537   7.973
 2981POPC   C4A38898  28.570  19.934   7.801
 2981POPC   C1B38899  28.284  20.167   8.643
 2981POPC   C2B38900  28.326  19.952   8.261
 2981POPC   C3B38901  28.068  19.890   7.929
 2981POPC   C4B38902  28.060  20.132   7.569
 2982POPC   NC338903  44.273  24.711   9.776
 2982POPC   PO438904  43.685  24.522   9.560
 2982POPC   GL138905  43.762  24.580   9.149
 2982POPC   GL238906  43.952  24.309   9.112
 2982POPC   C1A38907  43.789  24.808   8.770
 2982POPC   D2A38908  43.596  24.736   8.428
 2982POPC   C3A38909  43.807  24.661   8.125
 2982POPC   C4A38910  43.648  24.624   7.773
 2982POPC   C1B38911  43.910  24.310   8.664
 2982POPC   C2B38912  44.158  24.297   8.285
 2982POPC   C3B38913  43.977  24.215   7.882
 2982POPC   C4B38914  44.000  24.369   7.460
 2983POPC   NC338915  31.540  36.184   9.546
 2983POPC   PO438916  31.038  35.834   9.393
 2983POPC   GL138917  31.339  35.991   9.113
 2983POPC   GL238918  31.476  36.324   9.074
 2983POPC   C1A38919  31.408  35.989   8.688
 2983POPC   D2A38920  31.628  36.212   8.401
 2983POPC   C3A38921  31.569  35.990   8.060
 2983POPC   C4A38922  31.324  35.767   7.782
 2983POPC   C1B38923  31.830  36.408   8.818
 2983POPC   C2B38924  32.086  36.495   8.415
 2983POPC   C3B38925  31.917  36.555   8.019
 2983POPC   C4B38926  31.753  36.295   7.717
 2984POPC   NC338927  32.739  28.532   9.586
 2984POPC   PO438928  33.416  28.511   9.426
 2984POPC   GL138929  33.315  28.377   8.999
 2984POPC   GL238930  33.222  28.042   9.069
 2984POPC   C1A38931  33.057  28.552   8.637
 2984POPC   D2A38932  32.938  28.553   8.239
 2984POPC   C3A38933  33.283  28.386   8.047
 2984POPC   C4A38934  33.236  28.192   7.702
 2984POPC   C1B38935  32.917  28.068   8.727
 2984POPC   C2B38936  32.948  28.017   8.267
 2984POPC   C3B38937  32.779  28.189   7.879
 2984POPC   C4B38938  32.849  28.134   7.397
 2985POPC   NC338939  38.097  33.465   9.513
 2985POPC   PO438940  37.564  33.612   9.869
 2985POPC   GL138941  37.653  33.756   9.368
 2985POPC   GL238942  37.948  33.970   9.240
 2985POPC   C1A38943  37.538  33.816   8.870
 2985POPC   D2A38944  37.539  33.610   8.429
 2985POPC   C3A38945  37.375  33.824   8.039
 2985POPC   C4A38946  37.537  33.805   7.634
 2985POPC   C1B38947  38.009  34.037   8.785
 2985POPC   C2B38948  37.777  34.059   8.370
 2985POPC   C3B38949  37.879  33.756   8.040
 2985POPC   C4B38950  38.028  33.633   7.646
 2986POPC   NC338951   5.529  20.106   9.605
 2986POPC   PO438952   4.851  19.895   9.602
 2986POPC   GL138953   4.992  19.880   9.211
 2986POPC   GL238954   5.213  20.170   9.192
 2986POPC   C1A38955   5.133  19.693   8.832
 2986POPC   D2A38956   4.977  19.598   8.421
 2986POPC   C3A38957   5.244  19.646   8.086
 2986POPC   C4A38958   5.146  19.750   7.690
 2986POPC   C1B38959   5.056  20.279   8.764
 2986POPC   C2B38960   5.155  20.143   8.313
 2986POPC   C3B38961   5.155  20.206   7.857
 2986POPC   C4B38962   5.305  20.069   7.366
 2987POPC   NC338963  28.809  21.486   9.377
 2987POPC   PO438964  29.529  21.199   9.431
 2987POPC   GL138965  29.228  21.258   9.127
 2987POPC   GL238966  29.255  21.638   9.140
 2987POPC   C1A38967  29.308  21.317   8.695
 2987POPC   D2A38968  29.597  21.520   8.421
 2987POPC   C3A38969  29.547  21.388   8.030
 2987POPC   C4A38970  29.316  21.433   7.675
 2987POPC   C1B38971  29.084  21.779   8.749
 2987POPC   C2B38972  29.057  21.597   8.336
 2987POPC   C3B38973  28.894  21.484   7.962
 2987POPC   C4B38974  28.955  21.797   7.659
 2988POPC   NC338975  43.103  19.269   9.526
 2988POPC   PO438976  42.764  18.642   9.523
 2988POPC   GL138977  42.882  18.909   9.234
 2988POPC   GL238978  43.252  18.873   9.186
 2988POPC   C1A38979  42.883  18.867   8.813
 2988POPC   D2A38980  42.821  19.174   8.511
 2988POPC   C3A38981  43.043  19.021   8.199
 2988POPC   C4A38982  43.027  18.988   7.791
 2988POPC   C1B38983  43.348  19.119   8.809
 2988POPC   C2B38984  43.487  19.222   8.375
 2988POPC   C3B38985  43.345  19.447   7.992
 2988POPC   C4B38986  43.344  19.332   7.533
 2989POPC   NC338987  40.773  10.498   9.861
 2989POPC   PO438988  40.965  10.481   9.240
 2989POPC   GL138989  40.740  10.384   8.944
 2989POPC   GL238990  40.483  10.159   9.062
 2989POPC   C1A38991  40.793  10.594   8.594
 2989POPC   D2A38992  40.632  10.763   8.235
 2989POPC   C3A38993  40.824  10.661   7.867
 2989POPC   C4A38994  40.700  10.890   7.531
 2989POPC   C1B38995  40.639  10.003   8.635
 2989POPC   C2B38996  40.708  10.227   8.258
 2989POPC   C3B38997  40.400  10.392   8.006
 2989POPC   C4B38998  40.532  10.186   7.703
 2990POPC   NC338999  11.307  41.103   9.488
 2990POPC   PO439000  11.492  40.395   9.441
 2990POPC   GL139001  11.389  40.712   9.153
 2990POPC   GL239002  11.719  40.885   9.210
 2990POPC   C1A39003  11.352  41.049   8.824
 2990POPC   D2A39004  11.283  41.158   8.390
 2990POPC   C3A39005  11.114  40.825   8.135
 2990POPC   C4A39006  11.186  40.604   7.765
 2990POPC   C1B39007  11.769  40.677   8.832
 2990POPC   C2B39008  11.510  40.675   8.513
 2990POPC   C3B39009  11.573  40.567   8.110
 2990POPC   C4B39010  11.705  40.523   7.728
 2991POPC   NC339011  38.002  26.463   9.504
 2991POPC   PO439012  37.606  26.057   9.790
 2991POPC   GL139013  37.420  26.138   9.360
 2991POPC   GL239014  37.746  26.132   9.196
 2991POPC   C1A39015  37.341  26.214   8.899
 2991POPC   D2A39016  37.310  25.942   8.531
 2991POPC   C3A39017  37.322  26.113   8.132
 2991POPC   C4A39018  37.435  25.922   7.760
 2991POPC   C1B39019  37.775  25.924   8.782
 2991POPC   C2B39020  37.790  26.114   8.352
 2991POPC   C3B39021  37.906  26.111   7.922
 2991POPC   C4B39022  37.847  26.058   7.494
 2992POPC   NC339023  40.547  30.918   9.602
 2992POPC   PO439024  40.961  30.386   9.372
 2992POPC   GL139025  40.751  30.691   9.129
 2992POPC   GL239026  41.042  30.715   8.926
 2992POPC   C1A39027  40.617  30.914   8.738
 2992POPC   D2A39028  40.720  31.100   8.334
 2992POPC   C3A39029  40.537  30.917   7.976
 2992POPC   C4A39030  40.643  30.834   7.570
 2992POPC   C1B39031  40.778  30.439   8.665
 2992POPC   C2B39032  40.790  30.563   8.238
 2992POPC   C3B39033  41.035  30.781   7.902
 2992POPC   C4B39034  41.128  30.714   7.444
 2993POPC   NC339035   3.806  25.094   9.527
 2993POPC   PO439036   4.417  25.416   9.447
 2993POPC   GL139037   4.160  25.169   9.164
 2993POPC   GL239038   4.011  25.479   9.061
 2993POPC   C1A39039   4.312  25.045   8.757
 2993POPC   D2A39040   4.619  25.312   8.489
 2993POPC   C3A39041   4.549  25.288   8.035
 2993POPC   C4A39042   4.368  24.938   7.751
 2993POPC   C1B39043   4.021  25.466   8.635
 2993POPC   C2B39044   3.790  25.420   8.237
 2993POPC   C3B39045   4.017  25.372   7.838
 2993POPC   C4B39046   4.348  25.606   7.658
 2994POPC   NC339047  27.076   5.873   9.495
 2994POPC   PO439048  26.499   5.722   9.500
 2994POPC   GL139049  26.706   5.893   9.124
 2994POPC   GL239050  26.919   5.599   9.071
 2994POPC   C1A39051  26.559   5.808   8.693
 2994POPC   D2A39052  26.774   5.594   8.360
 2994POPC   C3A39053  26.531   5.629   7.999
 2994POPC   C4A39054  26.761   5.746   7.624
 2994POPC   C1B39055  27.066   5.836   8.723
 2994POPC   C2B39056  27.273   5.827   8.371
 2994POPC   C3B39057  27.103   5.818   7.995
 2994POPC   C4B39058  27.270   6.005   7.661
 2995POPC   NC339059  21.800   8.479   9.487
 2995POPC   PO439060  22.341   8.015   9.595
 2995POPC   GL139061  22.290   8.215   9.185
 2995POPC   GL239062  22.030   8.037   9.066
 2995POPC   C1A39063  22.008   8.486   8.872
 2995POPC   D2A39064  21.840   8.519   8.450
 2995POPC   C3A39065  22.209   8.615   8.204
 2995POPC   C4A39066  22.334   8.529   7.793
 2995POPC   C1B39067  21.949   7.990   8.657
 2995POPC   C2B39068  22.129   8.105   8.297
 2995POPC   C3B39069  22.079   8.091   7.893
 2995POPC   C4B39070  22.468   8.040   7.726
 2996POPC   NC339071   2.954   9.912   9.560
 2996POPC   PO439072   2.872   9.320   9.464
 2996POPC   GL139073   2.890   9.615   9.135
 2996POPC   GL239074   2.743   9.955   9.094
 2996POPC   C1A39075   3.041   9.751   8.746
 2996POPC   D2A39076   2.989  10.051   8.459
 2996POPC   C3A39077   2.993   9.787   8.139
 2996POPC   C4A39078   3.039   9.699   7.727
 2996POPC   C1B39079   2.528  10.142   8.707
 2996POPC   C2B39080   2.472  10.189   8.252
 2996POPC   C3B39081   2.543   9.875   7.932
 2996POPC   C4B39082   2.614   9.830   7.479
 2997POPC   NC339083  39.107  27.669   9.596
 2997POPC   PO439084  39.500  27.153   9.480
 2997POPC   GL139085  39.235  27.401   9.165
 2997POPC   GL239086  39.280  27.769   9.129
 2997POPC   C1A39087  39.069  27.429   8.715
 2997POPC   D2A39088  39.034  27.613   8.275
 2997POPC   C3A39089  39.158  27.342   7.920
 2997POPC   C4A39090  39.384  27.332   7.527
 2997POPC   C1B39091  39.506  27.768   8.744
 2997POPC   C2B39092  39.446  27.922   8.325
 2997POPC   C3B39093  39.484  27.735   7.944
 2997POPC   C4B39094  39.175  27.764   7.626
 2998POPC   NC339095   3.108  44.604   9.341
 2998POPC   PO439096   2.472  44.361   9.413
 2998POPC   GL139097   2.618  44.670   9.049
 2998POPC   GL239098   2.955  44.839   8.934
 2998POPC   C1A39099   2.511  44.934   8.703
 2998POPC   D2A39100   2.387   0.051   8.336
 2998POPC   C3A39101   2.716  44.799   8.169
 2998POPC   C4A39102   2.818  44.739   7.777
 2998POPC   C1B39103   3.017  44.465   8.705
 2998POPC   C2B39104   3.196  44.437   8.311
 2998POPC   C3B39105   3.081  44.279   7.922
 2998POPC   C4B39106   3.128  44.454   7.523
 2999POPC   NC339107   6.456  26.268   9.450
 2999POPC   PO439108   6.961  25.870   9.477
 2999POPC   GL139109   6.602  25.860   9.150
 2999POPC   GL239110   6.747  26.118   9.044
 2999POPC   C1A39111   6.389  25.862   8.758
 2999POPC   D2A39112   6.449  26.008   8.355
 2999POPC   C3A39113   6.734  25.788   8.112
 2999POPC   C4A39114   6.921  25.937   7.793
 2999POPC   C1B39115   6.964  26.324   8.722
 2999POPC   C2B39116   6.976  26.202   8.313
 2999POPC   C3B39117   6.991  26.430   7.952
 2999POPC   C4B39118   6.886  26.379   7.515
 3000POPC   NC339119   7.738  10.450   9.546
 3000POPC   PO439120   7.001  10.182   9.512
 3000POPC   GL139121   7.306  10.405   9.220
 3000POPC   GL239122   7.605  10.224   9.091
 3000POPC   C1A39123   7.391  10.698   8.863
 3000POPC   D2A39124   7.599  10.705   8.454
 3000POPC   C3A39125   7.355  10.727   8.073
 3000POPC   C4A39126   7.494  10.796   7.669
 3000POPC   C1B39127   7.471  10.243   8.643
 3000POPC   C2B39128   7.428  10.220   8.192
 3000POPC   C3B39129   7.638  10.292   7.826
 3000POPC   C4B39130   7.596  10.362   7.389
 3001POPC   NC339131  43.702   5.576   9.319
 3001POPC   PO439132  44.118   5.127   9.583
 3001POPC   GL139133  44.034   4.950   9.187
 3001POPC   GL239134  43.726   5.120   9.103
 3001POPC   C1A39135  43.918   4.831   8.764
 3001POPC   D2A39136  43.776   5.032   8.392
 3001POPC   C3A39137  43.980   4.874   8.005
 3001POPC   C4A39138  44.096   4.901   7.572
 3001POPC   C1B39139  43.456   5.301   8.770
 3001POPC   C2B39140  43.469   5.552   8.438
 3001POPC   C3B39141  43.664   5.446   8.075
 3001POPC   C4B39142  43.565   5.608   7.678
 3002POPC   NC339143   5.134   9.267   9.435
 3002POPC   PO439144   4.874   8.669   9.332
 3002POPC   GL139145   5.170   8.893   9.067
 3002POPC   GL239146   5.502   8.958   9.150
 3002POPC   C1A39147   5.208   8.930   8.656
 3002POPC   D2A39148   4.787   8.881   8.526
 3002POPC   C3A39149   4.799   8.945   8.121
 3002POPC   C4A39150   5.082   9.086   7.818
 3002POPC   C1B39151   5.545   8.565   8.854
 3002POPC   C2B39152   5.468   8.495   8.454
 3002POPC   C3B39153   5.402   8.762   8.099
 3002POPC   C4B39154   5.434   8.753   7.618
 3003POPC   NC339155  35.533  39.732   9.483
 3003POPC   PO439156  35.243  40.295   9.387
 3003POPC   GL139157  35.278  39.971   9.069
 3003POPC   GL239158  35.369  39.614   9.004
 3003POPC   C1A39159  35.132  39.983   8.643
 3003POPC   D2A39160  35.256  40.290   8.358
 3003POPC   C3A39161  35.266  40.144   7.997
 3003POPC   C4A39162  35.428  40.272   7.679
 3003POPC   C1B39163  35.628  39.851   8.717
 3003POPC   C2B39164  35.574  39.895   8.314
 3003POPC   C3B39165  35.661  39.734   7.932
 3003POPC   C4B39166  35.382  39.716   7.594
 3004POPC   NC339167   0.788  27.598   9.510
 3004POPC   PO439168   1.469  27.527   9.526
 3004POPC   GL139169   1.184  27.640   9.166
 3004POPC   GL239170   1.034  27.971   9.241
 3004POPC   C1A39171   1.112  27.551   8.696
 3004POPC   D2A39172   1.243  27.299   8.322
 3004POPC   C3A39173   1.156  27.506   7.940
 3004POPC   C4A39174   1.216  27.526   7.499
 3004POPC   C1B39175   1.298  28.016   8.834
 3004POPC   C2B39176   1.401  27.893   8.363
 3004POPC   C3B39177   1.265  28.007   7.940
 3004POPC   C4B39178   0.865  27.894   7.714
 3005POPC   NC339179   6.680  43.430   9.421
 3005POPC   PO439180   6.472  42.836   9.501
 3005POPC   GL139181   6.743  43.019   9.117
 3005POPC   GL239182   6.925  43.341   9.002
 3005POPC   C1A39183   6.748  42.946   8.655
 3005POPC   D2A39184   6.994  42.936   8.331
 3005POPC   C3A39185   6.838  43.090   8.013
 3005POPC   C4A39186   6.719  42.858   7.673
 3005POPC   C1B39187   6.499  43.353   8.797
 3005POPC   C2B39188   6.641  43.409   8.376
 3005POPC   C3B39189   6.474  43.535   7.998
 3005POPC   C4B39190   6.277  43.357   7.640
 3006POPC   NC339191  13.804  16.310   9.468
 3006POPC   PO439192  13.597  15.647   9.579
 3006POPC   GL139193  13.684  15.859   9.215
 3006POPC   GL239194  13.355  15.927   9.159
 3006POPC   C1A39195  13.831  16.038   8.824
 3006POPC   D2A39196  13.637  16.236   8.482
 3006POPC   C3A39197  13.868  16.047   8.173
 3006POPC   C4A39198  13.821  16.009   7.761
 3006POPC   C1B39199  13.208  16.089   8.760
 3006POPC   C2B39200  13.196  16.007   8.345
 3006POPC   C3B39201  13.385  16.174   7.994
 3006POPC   C4B39202  13.282  15.904   7.650
 3007POPC   NC339203  14.836   7.874   9.494
 3007POPC   PO439204  15.475   8.067   9.336
 3007POPC   GL139205  15.324   8.222   9.003
 3007POPC   GL239206  14.981   8.219   9.120
 3007POPC   C1A39207  15.331   8.056   8.599
 3007POPC   D2A39208  15.607   7.936   8.257
 3007POPC   C3A39209  15.498   8.076   7.858
 3007POPC   C4A39210  15.491   7.996   7.418
 3007POPC   C1B39211  14.928   8.350   8.692
 3007POPC   C2B39212  14.951   8.192   8.248
 3007POPC   C3B39213  15.077   8.393   7.854
 3007POPC   C4B39214  14.962   8.338   7.401
 3008POPC   NC339215  11.997  10.631   9.489
 3008POPC   PO439216  12.175   9.963   9.440
 3008POPC   GL139217  12.037  10.282   9.093
 3008POPC   GL239218  12.192  10.647   9.040
 3008POPC   C1A39219  11.847  10.481   8.712
 3008POPC   D2A39220  11.667  10.325   8.333
 3008POPC   C3A39221  11.952  10.376   8.054
 3008POPC   C4A39222  11.941  10.588   7.706
 3008POPC   C1B39223  12.377  10.478   8.706
 3008POPC   C2B39224  12.405  10.415   8.303
 3008POPC   C3B39225  12.400  10.655   7.952
 3008POPC   C4B39226  12.420  10.790   7.547
 3009POPC   NC339227  32.043  13.085   9.409
 3009POPC   PO439228  32.427  12.611   9.653
 3009POPC   GL139229  32.381  12.710   9.187
 3009POPC   GL239230  32.376  13.048   9.040
 3009POPC   C1A39231  32.186  12.716   8.740
 3009POPC   D2A39232  32.076  12.892   8.373
 3009POPC   C3A39233  32.274  12.612   8.105
 3009POPC   C4A39234  32.120  12.666   7.734
 3009POPC   C1B39235  32.332  13.286   8.668
 3009POPC   C2B39236  32.459  13.433   8.266
 3009POPC   C3B39237  32.328  13.125   7.984
 3009POPC   C4B39238  32.400  13.059   7.572
 3010POPC   NC339239  17.146  33.186   9.372
 3010POPC   PO439240  16.714  33.734   9.564
 3010POPC   GL139241  16.876  33.766   9.147
 3010POPC   GL239242  17.035  33.495   8.980
 3010POPC   C1A39243  16.709  33.932   8.763
 3010POPC   D2A39244  16.855  33.888   8.363
 3010POPC   C3A39245  16.565  34.092   8.077
 3010POPC   C4A39246  16.744  34.034   7.699
 3010POPC   C1B39247  16.570  33.453   8.831
 3010POPC   C2B39248  16.415  33.641   8.418
 3010POPC   C3B39249  16.596  33.581   8.035
 3010POPC   C4B39250  16.500  33.336   7.729
 3011POPC   NC339251  28.851  23.393   9.421
 3011POPC   PO439252  29.353  23.769   9.705
 3011POPC   GL139253  29.165  23.746   9.217
 3011POPC   GL239254  28.844  23.702   9.010
 3011POPC   C1A39255  29.275  23.697   8.735
 3011POPC   D2A39256  29.117  23.510   8.306
 3011POPC   C3A39257  29.339  23.352   7.957
 3011POPC   C4A39258  29.419  23.541   7.545
 3011POPC   C1B39259  28.884  24.030   8.677
 3011POPC   C2B39260  29.161  24.011   8.313
 3011POPC   C3B39261  29.090  23.871   7.901
 3011POPC   C4B39262  28.950  24.195   7.635
 3012POPC   NC339263  34.970  21.801   9.401
 3012POPC   PO439264  35.398  21.233   9.456
 3012POPC   GL139265  35.490  21.362   9.089
 3012POPC   GL239266  35.292  21.640   9.043
 3012POPC   C1A39267  35.367  21.198   8.731
 3012POPC   D2A39268  35.141  21.339   8.387
 3012POPC   C3A39269  35.133  21.087   8.010
 3012POPC   C4A39270  35.145  21.085   7.551
 3012POPC   C1B39271  35.427  21.707   8.643
 3012POPC   C2B39272  35.600  21.501   8.327
 3012POPC   C3B39273  35.486  21.438   7.942
 3012POPC   C4B39274  35.082  21.541   7.771
 3013POPC   NC339275   4.706  34.620   9.827
 3013POPC   PO439276   4.210  34.798   9.515
 3013POPC   GL139277   4.310  34.836   9.091
 3013POPC   GL239278   4.033  35.039   9.011
 3013POPC   C1A39279   4.486  34.675   8.696
 3013POPC   D2A39280   4.566  34.388   8.357
 3013POPC   C3A39281   4.475  34.484   7.928
 3013POPC   C4A39282   4.393  34.134   7.653
 3013POPC   C1B39283   3.990  34.752   8.687
 3013POPC   C2B39284   4.154  34.718   8.274
 3013POPC   C3B39285   4.074  34.788   7.869
 3013POPC   C4B39286   3.755  34.864   7.555
 3014POPC   NC339287  21.254   5.172   9.794
 3014POPC   PO439288  21.594   4.584   9.550
 3014POPC   GL139289  21.557   4.939   9.238
 3014POPC   GL239290  21.249   5.118   9.172
 3014POPC   C1A39291  21.630   5.133   8.815
 3014POPC   D2A39292  21.421   5.057   8.413
 3014POPC   C3A39293  21.585   4.973   7.999
 3014POPC   C4A39294  21.395   4.951   7.582
 3014POPC   C1B39295  21.124   5.340   8.742
 3014POPC   C2B39296  21.096   5.444   8.280
 3014POPC   C3B39297  21.245   5.359   7.867
 3014POPC   C4B39298  21.674   5.402   7.741
 3015POPC   NC339299  34.843  40.055   9.346
 3015POPC   PO439300  34.364  39.667   9.487
 3015POPC   GL139301  34.408  39.957   9.102
 3015POPC   GL239302  34.225  40.289   9.057
 3015POPC   C1A39303  34.619  40.130   8.742
 3015POPC   D2A39304  34.765  40.298   8.398
 3015POPC   C3A39305  34.733  40.165   7.997
 3015POPC   C4A39306  34.932  39.893   7.720
 3015POPC   C1B39307  34.121  40.082   8.686
 3015POPC   C2B39308  34.221  39.970   8.289
 3015POPC   C3B39309  34.234  40.111   7.890
 3015POPC   C4B39310  34.418  40.348   7.577
 3016POPC   NC339311  29.371  19.161   9.546
 3016POPC   PO439312  28.841  18.884   9.268
 3016POPC   GL139313  29.145  19.062   9.017
 3016POPC   GL239314  29.488  19.106   9.055
 3016POPC   C1A39315  29.153  19.101   8.593
 3016POPC   D2A39316  29.196  19.430   8.331
 3016POPC   C3A39317  29.312  19.347   7.960
 3016POPC   C4A39318  28.915  19.244   7.767
 3016POPC   C1B39319  29.556  18.802   8.732
 3016POPC   C2B39320  29.362  18.651   8.369
 3016POPC   C3B39321  29.127  18.910   8.103
 3016POPC   C4B39322  29.320  18.939   7.665
 3017POPC   NC339323  22.156  12.763   9.524
 3017POPC   PO439324  22.249  13.404   9.608
 3017POPC   GL139325  22.341  13.105   9.237
 3017POPC   GL239326  22.070  12.886   9.045
 3017POPC   C1A39327  22.438  13.094   8.807
 3017POPC   D2A39328  22.181  13.029   8.474
 3017POPC   C3A39329  22.203  12.975   8.045
 3017POPC   C4A39330  21.831  12.981   7.776
 3017POPC   C1B39331  22.253  12.588   8.716
 3017POPC   C2B39332  22.285  12.520   8.238
 3017POPC   C3B39333  22.119  12.547   7.771
 3017POPC   C4B39334  22.338  12.535   7.350
 3018POPC   NC339335  12.709  39.728   9.756
 3018POPC   PO439336  13.213  39.898   9.376
 3018POPC   GL139337  12.856  39.956   9.138
 3018POPC   GL239338  12.571  39.747   9.197
 3018POPC   C1A39339  12.909  39.850   8.707
 3018POPC   D2A39340  12.939  40.020   8.296
 3018POPC   C3A39341  12.968  39.679   8.009
 3018POPC   C4A39342  13.209  39.612   7.635
 3018POPC   C1B39343  12.461  40.051   8.818
 3018POPC   C2B39344  12.277  40.109   8.403
 3018POPC   C3B39345  12.493  40.081   7.991
 3018POPC   C4B39346  12.704  39.902   7.635
 3019POPC   NC339347  12.362  11.272   9.446
 3019POPC   PO439348  12.982  11.568   9.461
 3019POPC   GL139349  12.849  11.314   9.134
 3019POPC   GL239350  12.858  10.959   9.194
 3019POPC   C1A39351  12.963  11.226   8.706
 3019POPC   D2A39352  12.913  11.263   8.261
 3019POPC   C3A39353  13.097  11.554   7.971
 3019POPC   C4A39354  13.142  11.457   7.497
 3019POPC   C1B39355  12.523  11.011   8.858
 3019POPC   C2B39356  12.393  11.245   8.491
 3019POPC   C3B39357  12.455  11.146   8.069
 3019POPC   C4B39358  12.768  11.195   7.742
 3020POPC   NC339359  31.164  22.344   9.500
 3020POPC   PO439360  31.796  22.108   9.563
 3020POPC   GL139361  31.560  22.258   9.217
 3020POPC   GL239362  31.366  21.965   9.201
 3020POPC   C1A39363  31.309  22.324   8.837
 3020POPC   D2A39364  31.521  22.225   8.472
 3020POPC   C3A39365  31.416  22.278   8.051
 3020POPC   C4A39366  31.177  22.173   7.689
 3020POPC   C1B39367  31.661  21.862   8.863
 3020POPC   C2B39368  31.945  21.956   8.539
 3020POPC   C3B39369  31.855  22.012   8.116
 3020POPC   C4B39370  31.879  21.729   7.790
 3021POPC   NC339371  40.093  23.906   9.461
 3021POPC   PO439372  39.690  23.432   9.187
 3021POPC   GL139373  39.979  23.461   8.892
 3021POPC   GL239374  40.200  23.653   9.041
 3021POPC   C1A39375  39.798  23.635   8.523
 3021POPC   D2A39376  39.734  23.849   8.155
 3021POPC   C3A39377  39.855  23.535   7.963
 3021POPC   C4A39378  40.181  23.319   7.892
 3021POPC   C1B39379  40.137  23.951   8.716
 3021POPC   C2B39380  40.230  23.876   8.274
 3021POPC   C3B39381  40.156  23.938   7.840
 3021POPC   C4B39382  40.426  23.933   7.500
 3022POPC   NC339383  27.234  30.515   9.221
 3022POPC   PO439384  26.665  30.472   9.718
 3022POPC   GL139385  26.568  30.499   9.171
 3022POPC   GL239386  26.805  30.733   9.017
 3022POPC   C1A39387  26.474  30.597   8.683
 3022POPC   D2A39388  26.633  30.872   8.365
 3022POPC   C3A39389  26.747  30.730   7.962
 3022POPC   C4A39390  26.510  30.455   7.734
 3022POPC   C1B39391  27.029  30.630   8.605
 3022POPC   C2B39392  27.258  30.307   8.341
 3022POPC   C3B39393  27.301  30.414   7.911
 3022POPC   C4B39394  27.067  30.618   7.581
 3023POPC   NC339395  38.575  36.217   9.483
 3023POPC   PO439396  38.123  35.778   9.722
 3023POPC   GL139397  38.114  36.070   9.273
 3023POPC   GL239398  38.461  36.097   9.021
 3023POPC   C1A39399  38.041  36.087   8.796
 3023POPC   D2A39400  38.314  36.262   8.483
 3023POPC   C3A39401  38.204  36.300   8.047
 3023POPC   C4A39402  38.366  36.064   7.703
 3023POPC   C1B39403  38.726  36.386   8.814
 3023POPC   C2B39404  38.768  36.508   8.391
 3023POPC   C3B39405  38.722  36.229   8.071
 3023POPC   C4B39406  38.848  36.144   7.656
 3024POPC   NC339407  26.163   7.068   9.536
 3024POPC   PO439408  26.271   7.697   9.442
 3024POPC   GL139409  26.101   7.628   9.049
 3024POPC   GL239410  25.968   7.307   9.072
 3024POPC   C1A39411  26.114   7.576   8.605
 3024POPC   D2A39412  26.285   7.752   8.221
 3024POPC   C3A39413  26.086   7.564   7.883
 3024POPC   C4A39414  26.190   7.189   7.711
 3024POPC   C1B39415  25.943   7.080   8.677
 3024POPC   C2B39416  26.071   7.065   8.229
 3024POPC   C3B39417  25.882   6.848   7.868
 3024POPC   C4B39418  25.935   6.822   7.405
 3025POPC   NC339419  23.046  44.255   9.301
 3025POPC   PO439420  22.663  43.863   9.740
 3025POPC   GL139421  22.896  43.761   9.301
 3025POPC   GL239422  22.708  43.953   9.033
 3025POPC   C1A39423  23.116  43.717   8.852
 3025POPC   D2A39424  23.246  43.593   8.403
 3025POPC   C3A39425  23.398  43.928   8.101
 3025POPC   C4A39426  23.188  44.246   7.823
 3025POPC   C1B39427  22.696  43.819   8.579
 3025POPC   C2B39428  22.886  43.991   8.194
 3025POPC   C3B39429  22.685  44.026   7.787
 3025POPC   C4B39430  22.449  44.172   7.396
 3026POPC   NC339431   1.824  24.764   9.417
 3026POPC   PO439432   2.461  24.553   9.631
 3026POPC   GL139433   2.176  24.469   9.215
 3026POPC   GL239434   2.427  24.489   9.025
 3026POPC   C1A39435   1.934  24.738   8.808
 3026POPC   D2A39436   1.694  24.932   8.471
 3026POPC   C3A39437   1.644  24.684   8.093
 3026POPC   C4A39438   1.862  24.617   7.685
 3026POPC   C1B39439   2.179  24.313   8.714
 3026POPC   C2B39440   2.108  24.563   8.356
 3026POPC   C3B39441   2.250  24.458   7.976
 3026POPC   C4B39442   2.156  24.183   7.638
 3027POPC   NC339443   6.325  32.794   9.480
 3027POPC   PO439444   5.699  33.019   9.654
 3027POPC   GL139445   5.867  33.077   9.249
 3027POPC   GL239446   5.581  33.253   9.131
 3027POPC   C1A39447   5.888  32.955   8.823
 3027POPC   D2A39448   6.023  32.845   8.413
 3027POPC   C3A39449   6.017  33.015   8.005
 3027POPC   C4A39450   6.091  32.759   7.678
 3027POPC   C1B39451   5.413  33.082   8.737
 3027POPC   C2B39452   5.570  33.092   8.302
 3027POPC   C3B39453   5.596  33.312   7.905
 3027POPC   C4B39454   5.833  33.159   7.514
 3028POPC   NC339455   5.708   8.209   9.826
 3028POPC   PO439456   6.093   7.706   9.830
 3028POPC   GL139457   5.911   8.032   9.361
 3028POPC   GL239458   5.649   8.219   9.241
 3028POPC   C1A39459   6.036   8.297   8.904
 3028POPC   D2A39460   6.217   8.254   8.442
 3028POPC   C3A39461   6.030   8.374   8.040
 3028POPC   C4A39462   5.892   8.122   7.706
 3028POPC   C1B39463   5.596   8.045   8.780
 3028POPC   C2B39464   5.743   8.024   8.339
 3028POPC   C3B39465   5.510   8.253   8.009
 3028POPC   C4B39466   5.397   8.251   7.601
 3029POPC   NC339467  19.105   5.524   9.596
 3029POPC   PO439468  19.016   4.855   9.626
 3029POPC   GL139469  19.051   5.063   9.217
 3029POPC   GL239470  19.212   4.791   9.038
 3029POPC   C1A39471  19.188   5.287   8.822
 3029POPC   D2A39472  19.210   5.157   8.392
 3029POPC   C3A39473  19.177   5.436   7.987
 3029POPC   C4A39474  18.975   5.348   7.563
 3029POPC   C1B39475  19.184   4.668   8.604
 3029POPC   C2B39476  19.209   4.701   8.141
 3029POPC   C3B39477  19.092   4.923   7.805
 3029POPC   C4B39478  19.205   4.893   7.349
 3030POPC   NC339479  43.902  34.800   9.481
 3030POPC   PO439480  43.693  34.151   9.447
 3030POPC   GL139481  43.852  34.322   9.044
 3030POPC   GL239482  44.056  34.597   9.065
 3030POPC   C1A39483  43.895  34.479   8.611
 3030POPC   D2A39484  43.705  34.696   8.307
 3030POPC   C3A39485  43.548  34.419   8.049
 3030POPC   C4A39486  43.664  34.361   7.646
 3030POPC   C1B39487  44.160  34.883   8.752
 3030POPC   C2B39488  44.211  34.820   8.318
 3030POPC   C3B39489  44.059  34.553   7.957
 3030POPC   C4B39490  44.041  34.688   7.489
 3031POPC   NC339491  19.420  27.375   9.340
 3031POPC   PO439492  20.012  27.733   9.546
 3031POPC   GL139493  19.928  27.842   9.156
 3031POPC   GL239494  19.813  27.560   9.033
 3031POPC   C1A39495  20.146  27.860   8.764
 3031POPC   D2A39496  19.906  27.707   8.416
 3031POPC   C3A39497  20.119  27.653   8.049
 3031POPC   C4A39498  20.085  27.815   7.653
 3031POPC   C1B39499  20.093  27.346   8.762
 3031POPC   C2B39500  20.081  27.195   8.370
 3031POPC   C3B39501  19.801  27.240   8.022
 3031POPC   C4B39502  19.809  27.368   7.628
 3032POPC   NC339503  40.930  24.999   9.373
 3032POPC   PO439504  40.818  25.692   9.416
 3032POPC   GL139505  40.670  25.460   9.058
 3032POPC   GL239506  40.622  25.082   9.004
 3032POPC   C1A39507  40.718  25.503   8.621
 3032POPC   D2A39508  41.112  25.424   8.394
 3032POPC   C3A39509  41.150  25.035   8.190
 3032POPC   C4A39510  40.895  25.130   7.836
 3032POPC   C1B39511  40.882  25.035   8.653
 3032POPC   C2B39512  40.675  25.084   8.302
 3032POPC   C3B39513  40.407  25.277   8.069
 3032POPC   C4B39514  40.338  25.236   7.661
 3033POPC   NC339515   3.192  13.023   9.509
 3033POPC   PO439516   3.598  12.507   9.688
 3033POPC   GL139517   3.419  12.541   9.201
 3033POPC   GL239518   3.412  12.881   9.045
 3033POPC   C1A39519   3.465  12.498   8.718
 3033POPC   D2A39520   3.528  12.311   8.290
 3033POPC   C3A39521   3.373  12.646   8.001
 3033POPC   C4A39522   3.452  12.759   7.570
 3033POPC   C1B39523   3.401  13.181   8.678
 3033POPC   C2B39524   3.247  13.163   8.261
 3033POPC   C3B39525   3.463  13.181   7.865
 3033POPC   C4B39526   3.766  13.156   7.515
 3034POPC   NC339527  37.153  36.615   9.415
 3034POPC   PO439528  36.679  37.131   9.628
 3034POPC   GL139529  36.839  36.990   9.246
 3034POPC   GL239530  36.682  36.644   9.217
 3034POPC   C1A39531  37.082  37.126   8.882
 3034POPC   D2A39532  36.855  37.165   8.484
 3034POPC   C3A39533  37.033  37.084   8.095
 3034POPC   C4A39534  36.751  37.132   7.740
 3034POPC   C1B39535  36.769  36.731   8.781
 3034POPC   C2B39536  36.788  36.668   8.343
 3034POPC   C3B39537  36.872  36.650   7.915
 3034POPC   C4B39538  37.068  36.649   7.534
 3035POPC   NC339539  44.694  13.034   9.521
 3035POPC   PO439540  44.591  12.426   9.411
 3035POPC   GL139541  44.839  12.702   9.104
 3035POPC   GL239542  44.922  13.077   9.072
 3035POPC   C1A39543  44.687  12.700   8.689
 3035POPC   D2A39544  44.760  12.756   8.270
 3035POPC   C3A39545  44.565  12.582   7.924
 3035POPC   C4A39546  44.863  12.671   7.635
 3035POPC   C1B39547  44.829  13.196   8.658
 3035POPC   C2B39548  44.817  13.256   8.241
 3035POPC   C3B39549  44.773  13.111   7.870
 3035POPC   C4B39550  45.000  13.134   7.481
 3036POPC   NC339551  35.604  23.173   9.591
 3036POPC   PO439552  34.912  22.962   9.540
 3036POPC   GL139553  35.201  23.063   9.194
 3036POPC   GL239554  35.518  22.851   9.096
 3036POPC   C1A39555  35.192  23.175   8.747
 3036POPC   D2A39556  35.189  22.875   8.438
 3036POPC   C3A39557  35.338  23.028   8.111
 3036POPC   C4A39558  35.437  22.805   7.802
 3036POPC   C1B39559  35.658  22.944   8.641
 3036POPC   C2B39560  35.844  22.955   8.217
 3036POPC   C3B39561  35.919  22.838   7.795
 3036POPC   C4B39562  35.762  23.099   7.487
 3037POPC   NC339563  38.861  29.307   9.259
 3037POPC   PO439564  39.338  29.697   9.404
 3037POPC   GL139565  39.360  29.393   9.046
 3037POPC   GL239566  39.283  29.036   9.081
 3037POPC   C1A39567  39.187  29.262   8.633
 3037POPC   D2A39568  39.369  29.276   8.225
 3037POPC   C3A39569  39.084  29.239   7.894
 3037POPC   C4A39570  39.082  29.178   7.469
 3037POPC   C1B39571  39.466  28.723   8.793
 3037POPC   C2B39572  39.547  28.543   8.372
 3037POPC   C3B39573  39.595  28.807   8.015
 3037POPC   C4B39574  39.530  29.002   7.645
 3038POPC   NC339575  44.493   4.027   9.416
 3038POPC   PO439576  44.885   4.561   9.517
 3038POPC   GL139577  44.851   4.295   9.147
 3038POPC   GL239578  44.917   3.913   9.138
 3038POPC   C1A39579  44.666   4.391   8.763
 3038POPC   D2A39580  44.745   4.702   8.448
 3038POPC   C3A39581  44.713   4.555   8.035
 3038POPC   C4A39582  44.418   4.506   7.723
 3038POPC   C1B39583  44.640   3.851   8.781
 3038POPC   C2B39584  44.479   4.059   8.424
 3038POPC   C3B39585  44.490   4.058   8.002
 3038POPC   C4B39586  44.357   3.990   7.568
 3039POPC   NC339587  30.551  37.211   9.420
 3039POPC   PO439588  30.467  36.629   9.600
 3039POPC   GL139589  30.678  36.773   9.181
 3039POPC   GL239590  30.961  36.639   9.050
 3039POPC   C1A39591  30.661  37.092   8.801
 3039POPC   D2A39592  30.493  37.159   8.372
 3039POPC   C3A39593  30.627  37.113   7.970
 3039POPC   C4A39594  30.516  36.697   7.849
 3039POPC   C1B39595  30.755  36.617   8.671
 3039POPC   C2B39596  30.819  36.745   8.280
 3039POPC   C3B39597  31.013  36.772   7.880
 3039POPC   C4B39598  30.845  36.891   7.487
 3040POPC   NC339599  27.702   5.085   9.517
 3040POPC   PO439600  27.098   4.669   9.543
 3040POPC   GL139601  27.273   4.715   9.134
 3040POPC   GL239602  27.518   4.988   9.061
 3040POPC   C1A39603  27.324   4.749   8.674
 3040POPC   D2A39604  27.666   4.679   8.370
 3040POPC   C3A39605  27.595   4.959   8.031
 3040POPC   C4A39606  27.281   5.047   7.715
 3040POPC   C1B39607  27.838   5.044   8.720
 3040POPC   C2B39608  28.087   5.104   8.324
 3040POPC   C3B39609  27.982   5.269   7.920
 3040POPC   C4B39610  27.898   4.987   7.599
 3041POPC   NC339611  32.338  14.030   9.272
 3041POPC   PO439612  32.459  13.369   9.409
 3041POPC   GL139613  32.184  13.554   9.093
 3041POPC   GL239614  32.430  13.731   8.879
 3041POPC   C1A39615  31.947  13.639   8.697
 3041POPC   D2A39616  31.925  13.423   8.309
 3041POPC   C3A39617  31.933  13.663   7.925
 3041POPC   C4A39618  32.297  13.549   7.701
 3041POPC   C1B39619  32.269  14.063   8.617
 3041POPC   C2B39620  32.244  13.969   8.192
 3041POPC   C3B39621  32.510  14.010   7.857
 3041POPC   C4B39622  32.470  13.892   7.395
 3042POPC   NC339623  40.253  12.264   9.312
 3042POPC   PO439624  39.655  12.507   9.580
 3042POPC   GL139625  39.759  12.334   9.157
 3042POPC   GL239626  39.865  11.966   9.124
 3042POPC   C1A39627  39.908  12.315   8.709
 3042POPC   D2A39628  39.814  12.034   8.368
 3042POPC   C3A39629  39.949  12.091   7.919
 3042POPC   C4A39630  39.989  12.001   7.465
 3042POPC   C1B39631  40.192  11.885   8.759
 3042POPC   C2B39632  40.323  11.982   8.289
 3042POPC   C3B39633  40.388  11.855   7.821
 3042POPC   C4B39634  40.448  11.715   7.368
 3043POPC   NC339635  34.981  27.457   9.405
 3043POPC   PO439636  34.377  27.753   9.385
 3043POPC   GL139637  34.544  27.528   9.077
 3043POPC   GL239638  34.798  27.330   8.978
 3043POPC   C1A39639  34.367  27.542   8.693
 3043POPC   D2A39640  34.385  27.386   8.298
 3043POPC   C3A39641  34.226  27.635   7.966
 3043POPC   C4A39642  34.294  27.430   7.586
 3043POPC   C1B39643  34.909  27.640   8.707
 3043POPC   C2B39644  34.869  27.602   8.290
 3043POPC   C3B39645  34.728  27.485   7.919
 3043POPC   C4B39646  34.990  27.307   7.657
 3044POPC   NC339647  13.139   8.088   9.467
 3044POPC   PO439648  12.576   8.454   9.459
 3044POPC   GL139649  12.810   8.347   9.155
 3044POPC   GL239650  12.694   8.003   9.100
 3044POPC   C1A39651  12.730   8.350   8.751
 3044POPC   D2A39652  12.909   8.200   8.419
 3044POPC   C3A39653  12.816   8.389   8.077
 3044POPC   C4A39654  12.678   8.108   7.830
 3044POPC   C1B39655  13.035   7.892   8.816
 3044POPC   C2B39656  13.276   7.834   8.420
 3044POPC   C3B39657  13.189   7.965   7.977
 3044POPC   C4B39658  13.137   8.318   7.683
 3045POPC   NC339659  21.594   2.033   9.484
 3045POPC   PO439660  20.939   2.243   9.422
 3045POPC   GL139661  21.199   2.048   9.077
 3045POPC   GL239662  21.445   1.769   9.062
 3045POPC   C1A39663  21.352   2.175   8.664
 3045POPC   D2A39664  21.613   2.101   8.329
 3045POPC   C3A39665  21.559   2.011   7.900
 3045POPC   C4A39666  21.796   2.199   7.560
 3045POPC   C1B39667  21.320   1.662   8.624
 3045POPC   C2B39668  21.534   1.608   8.229
 3045POPC   C3B39669  21.420   1.492   7.808
 3045POPC   C4B39670  21.312   1.425   7.361
 3046POPC   NC339671  15.602  12.255   9.513
 3046POPC   PO439672  16.233  12.279   9.444
 3046POPC   GL139673  16.073  11.926   9.215
 3046POPC   GL239674  15.904  12.207   9.043
 3046POPC   C1A39675  15.957  11.754   8.789
 3046POPC   D2A39676  15.881  11.945   8.392
 3046POPC   C3A39677  15.978  11.780   8.005
 3046POPC   C4A39678  15.903  11.829   7.566
 3046POPC   C1B39679  15.572  12.203   8.728
 3046POPC   C2B39680  15.566  12.329   8.301
 3046POPC   C3B39681  15.737  12.209   7.881
 3046POPC   C4B39682  15.994  12.406   7.510
 3047POPC   NC339683   1.835   2.217   9.462
 3047POPC   PO439684   2.393   1.762   9.626
 3047POPC   GL139685   2.261   2.065   9.253
 3047POPC   GL239686   1.962   1.923   9.080
 3047POPC   C1A39687   2.288   2.146   8.764
 3047POPC   D2A39688   2.285   2.357   8.347
 3047POPC   C3A39689   2.267   2.110   7.950
 3047POPC   C4A39690   1.923   2.020   7.649
 3047POPC   C1B39691   1.595   1.960   8.796
 3047POPC   C2B39692   1.540   1.803   8.392
 3047POPC   C3B39693   1.539   1.978   8.008
 3047POPC   C4B39694   1.542   1.673   7.702
 3048POPC   NC339695  36.511  39.940   9.494
 3048POPC   PO439696  37.192  40.163   9.504
 3048POPC   GL139697  37.202  39.892   9.140
 3048POPC   GL239698  36.857  39.768   9.148
 3048POPC   C1A39699  37.055  39.999   8.707
 3048POPC   D2A39700  37.239  39.956   8.309
 3048POPC   C3A39701  36.982  40.072   7.956
 3048POPC   C4A39702  36.798  39.921   7.546
 3048POPC   C1B39703  36.654  39.668   8.758
 3048POPC   C2B39704  36.642  39.870   8.356
 3048POPC   C3B39705  36.691  39.648   7.985
 3048POPC   C4B39706  36.602  39.466   7.647
 3049POPC   NC339707  42.354  17.677   9.542
 3049POPC   PO439708  42.067  17.030   9.708
 3049POPC   GL139709  42.213  17.250   9.301
 3049POPC   GL239710  42.609  17.276   9.285
 3049POPC   C1A39711  42.130  17.301   8.847
 3049POPC   D2A39712  41.993  17.130   8.432
 3049POPC   C3A39713  42.195  17.195   8.036
 3049POPC   C4A39714  42.205  17.434   7.666
 3049POPC   C1B39715  42.638  17.419   8.859
 3049POPC   C2B39716  42.439  17.409   8.434
 3049POPC   C3B39717  42.583  17.543   8.019
 3049POPC   C4B39718  42.683  17.259   7.683
 3050POPC   NC339719  44.005  16.274   9.219
 3050POPC   PO439720  44.068  15.674   9.468
 3050POPC   GL139721  44.124  15.745   9.064
 3050POPC   GL239722  43.786  15.858   9.052
 3050POPC   C1A39723  44.068  15.885   8.634
 3050POPC   D2A39724  43.906  15.723   8.252
 3050POPC   C3A39725  43.980  15.805   7.848
 3050POPC   C4A39726  43.972  16.210   7.710
 3050POPC   C1B39727  43.544  16.152   8.766
 3050POPC   C2B39728  43.632  16.405   8.403
 3050POPC   C3B39729  43.569  16.131   8.034
 3050POPC   C4B39730  43.422  15.973   7.633
 3051POPC   NC339731   0.825  18.013   9.525
 3051POPC   PO439732   0.512  18.640   9.564
 3051POPC   GL139733   0.485  18.372   9.220
 3051POPC   GL239734   0.228  18.529   9.116
 3051POPC   C1A39735   0.450  18.081   8.887
 3051POPC   D2A39736   0.315  17.909   8.478
 3051POPC   C3A39737   0.423  18.118   8.099
 3051POPC   C4A39738   0.663  18.414   7.867
 3051POPC   C1B39739   0.167  18.722   8.755
 3051POPC   C2B39740   0.001  18.652   8.382
 3051POPC   C3B39741   0.261  18.712   8.044
 3051POPC   C4B39742   0.224  18.555   7.680
 3052POPC   NC339743  43.548  36.925   9.440
 3052POPC   PO439744  44.220  36.665   9.494
 3052POPC   GL139745  44.178  36.777   9.086
 3052POPC   GL239746  43.883  37.015   9.038
 3052POPC   C1A39747  44.113  36.727   8.683
 3052POPC   D2A39748  43.866  36.897   8.370
 3052POPC   C3A39749  43.822  36.570   8.059
 3052POPC   C4A39750  44.270  36.467   7.932
 3052POPC   C1B39751  43.693  37.279   8.691
 3052POPC   C2B39752  43.517  37.268   8.275
 3052POPC   C3B39753  43.774  37.154   7.923
 3052POPC   C4B39754  44.030  36.871   7.696
 3053POPC   NC339755  42.841  18.147   9.531
 3053POPC   PO439756  43.534  18.119   9.588
 3053POPC   GL139757  43.280  18.192   9.157
 3053POPC   GL239758  42.996  18.416   9.123
 3053POPC   C1A39759  43.275  18.353   8.693
 3053POPC   D2A39760  43.449  18.680   8.352
 3053POPC   C3A39761  43.445  18.549   7.895
 3053POPC   C4A39762  43.308  18.090   7.869
 3053POPC   C1B39763  42.764  18.278   8.770
 3053POPC   C2B39764  42.893  18.243   8.351
 3053POPC   C3B39765  42.964  18.523   8.077
 3053POPC   C4B39766  42.993  18.484   7.685
 3054POPC   NC339767  44.978  39.830   9.532
 3054POPC   PO439768   0.558  40.200   9.577
 3054POPC   GL139769   0.462  40.195   9.130
 3054POPC   GL239770   0.572  39.859   9.067
 3054POPC   C1A39771   0.594  40.173   8.667
 3054POPC   D2A39772   0.551  39.991   8.231
 3054POPC   C3A39773   0.276  40.246   7.963
 3054POPC   C4A39774   0.291  40.401   7.569
 3054POPC   C1B39775   0.146  39.895   8.832
 3054POPC   C2B39776  44.907  39.689   8.482
 3054POPC   C3B39777   0.095  39.763   8.077
 3054POPC   C4B39778   0.398  39.821   7.731
 3055POPC   NC339779  13.411  11.409   9.460
 3055POPC   PO439780  14.036  11.190   9.493
 3055POPC   GL139781  13.719  11.021   9.183
 3055POPC   GL239782  13.348  11.063   9.102
 3055POPC   C1A39783  13.733  11.210   8.793
 3055POPC   D2A39784  13.982  11.173   8.454
 3055POPC   C3A39785  13.777  11.193   8.059
 3055POPC   C4A39786  13.848  11.501   7.756
 3055POPC   C1B39787  13.351  10.862   8.723
 3055POPC   C2B39788  13.365  10.950   8.295
 3055POPC   C3B39789  13.274  11.100   7.889
 3055POPC   C4B39790  13.550  11.139   7.593
 3056POPC   NC339791  14.293   2.273   9.511
 3056POPC   PO439792  14.629   1.698   9.427
 3056POPC   GL139793  14.316   1.870   9.171
 3056POPC   GL239794  14.425   2.203   9.017
 3056POPC   C1A39795  14.335   1.750   8.762
 3056POPC   D2A39796  14.462   1.992   8.411
 3056POPC   C3A39797  14.379   1.876   7.992
 3056POPC   C4A39798  14.751   1.998   7.809
 3056POPC   C1B39799  14.079   2.184   8.676
 3056POPC   C2B39800  14.043   2.209   8.224
 3056POPC   C3B39801  13.975   2.198   7.804
 3056POPC   C4B39802  14.008   2.347   7.424
 3057POPC   NC339803  23.800  30.453   9.697
 3057POPC   PO439804  23.729  31.109   9.532
 3057POPC   GL139805  23.624  30.863   9.171
 3057POPC   GL239806  23.612  30.522   9.231
 3057POPC   C1A39807  23.947  30.766   8.860
 3057POPC   D2A39808  24.072  30.766   8.440
 3057POPC   C3A39809  23.810  30.985   8.140
 3057POPC   C4A39810  23.747  30.795   7.741
 3057POPC   C1B39811  23.559  30.447   8.805
 3057POPC   C2B39812  23.783  30.351   8.422
 3057POPC   C3B39813  23.599  30.397   8.026
 3057POPC   C4B39814  23.417  30.346   7.642
 3058POPC   NC339815   8.745  34.810   9.391
 3058POPC   PO439816   8.968  34.108   9.518
 3058POPC   GL139817   9.074  34.394   9.181
 3058POPC   GL239818   8.743  34.425   9.043
 3058POPC   C1A39819   9.130  34.479   8.715
 3058POPC   D2A39820   9.119  34.908   8.482
 3058POPC   C3A39821   9.022  34.920   8.035
 3058POPC   C4A39822   9.277  34.710   7.725
 3058POPC   C1B39823   8.699  34.756   8.746
 3058POPC   C2B39824   8.735  34.536   8.370
 3058POPC   C3B39825   9.032  34.413   8.080
 3058POPC   C4B39826   8.827  34.515   7.698
 3059POPC   NC339827  24.608  40.421   9.744
 3059POPC   PO439828  24.322  40.953   9.706
 3059POPC   GL139829  24.367  40.784   9.303
 3059POPC   GL239830  24.650  40.930   9.134
 3059POPC   C1A39831  24.290  40.680   8.864
 3059POPC   D2A39832  24.234  40.833   8.462
 3059POPC   C3A39833  24.336  40.633   8.072
 3059POPC   C4A39834  24.245  40.708   7.652
 3059POPC   C1B39835  24.746  40.968   8.688
 3059POPC   C2B39836  24.688  40.972   8.249
 3059POPC   C3B39837  24.743  40.851   7.821
 3059POPC   C4B39838  25.005  40.545   7.589
 3060POPC   NC339839  17.872  38.577   9.294
 3060POPC   PO439840  18.469  38.538   9.542
 3060POPC   GL139841  18.372  38.405   9.159
 3060POPC   GL239842  18.131  38.128   9.123
 3060POPC   C1A39843  18.363  38.713   8.851
 3060POPC   D2A39844  18.488  38.688   8.450
 3060POPC   C3A39845  18.177  38.618   8.174
 3060POPC   C4A39846  18.268  38.627   7.749
 3060POPC   C1B39847  18.176  38.265   8.703
 3060POPC   C2B39848  18.377  38.145   8.350
 3060POPC   C3B39849  18.235  38.176   7.933
 3060POPC   C4B39850  17.975  38.218   7.583
 3061POPC   NC339851  10.120  25.824   9.406
 3061POPC   PO439852   9.467  25.966   9.429
 3061POPC   GL139853   9.739  25.963   9.116
 3061POPC   GL239854   9.899  26.264   9.135
 3061POPC   C1A39855   9.937  25.976   8.729
 3061POPC   D2A39856   9.708  25.921   8.377
 3061POPC   C3A39857   9.878  26.020   7.981
 3061POPC   C4A39858   9.796  25.897   7.569
 3061POPC   C1B39859   9.536  26.290   8.788
 3061POPC   C2B39860   9.258  26.154   8.448
 3061POPC   C3B39861   9.205  26.279   8.022
 3061POPC   C4B39862   9.532  26.325   7.731
 3062POPC   NC339863  14.942  27.449   9.530
 3062POPC   PO439864  15.562  27.281   9.721
 3062POPC   GL139865  15.379  27.403   9.299
 3062POPC   GL239866  15.168  27.168   9.116
 3062POPC   C1A39867  15.333  27.638   8.929
 3062POPC   D2A39868  15.130  27.655   8.547
 3062POPC   C3A39869  15.357  27.484   8.243
 3062POPC   C4A39870  15.309  27.636   7.863
 3062POPC   C1B39871  14.858  27.253   8.780
 3062POPC   C2B39872  14.775  27.303   8.332
 3062POPC   C3B39873  14.843  27.424   7.889
 3062POPC   C4B39874  14.718  27.336   7.444
 3063POPC   NC339875   2.617  14.610   9.528
 3063POPC   PO439876   3.102  14.169   9.358
 3063POPC   GL139877   2.776  14.349   9.105
 3063POPC   GL239878   2.747  14.730   9.059
 3063POPC   C1A39879   2.754  14.385   8.667
 3063POPC   D2A39880   2.948  14.509   8.300
 3063POPC   C3A39881   2.976  14.193   7.970
 3063POPC   C4A39882   2.851  14.207   7.528
 3063POPC   C1B39883   2.449  14.820   8.707
 3063POPC   C2B39884   2.440  14.576   8.288
 3063POPC   C3B39885   2.648  14.653   7.894
 3063POPC   C4B39886   2.517  14.580   7.480
 3064POPC   NC339887   9.579  21.864   9.429
 3064POPC   PO439888   9.867  21.339   9.600
 3064POPC   GL139889   9.819  21.461   9.152
 3064POPC   GL239890   9.444  21.455   9.144
 3064POPC   C1A39891   9.983  21.534   8.700
 3064POPC   D2A39892   9.927  21.226   8.352
 3064POPC   C3A39893   9.934  21.421   7.917
 3064POPC   C4A39894   9.850  21.294   7.494
 3064POPC   C1B39895   9.484  21.547   8.704
 3064POPC   C2B39896   9.642  21.642   8.295
 3064POPC   C3B39897   9.439  21.455   7.910
 3064POPC   C4B39898   9.462  21.633   7.520
 3065POPC   NC339899   5.386  37.408   9.435
 3065POPC   PO439900   5.070  37.941   9.480
 3065POPC   GL139901   4.987  37.638   9.145
 3065POPC   GL239902   4.968  37.863   8.848
 3065POPC   C1A39903   5.146  37.392   8.779
 3065POPC   D2A39904   5.121  37.559   8.358
 3065POPC   C3A39905   5.011  37.303   8.001
 3065POPC   C4A39906   5.325  37.045   7.816
 3065POPC   C1B39907   5.426  37.846   8.712
 3065POPC   C2B39908   5.594  37.803   8.279
 3065POPC   C3B39909   5.346  37.687   7.898
 3065POPC   C4B39910   4.931  37.790   7.691
 3066POPC   NC339911  22.533  14.874   9.763
 3066POPC   PO439912  22.553  15.452   9.372
 3066POPC   GL139913  22.132  15.276   9.240
 3066POPC   GL239914  21.810  15.448   9.384
 3066POPC   C1A39915  22.133  15.137   8.833
 3066POPC   D2A39916  22.433  15.195   8.492
 3066POPC   C3A39917  22.230  15.027   8.136
 3066POPC   C4A39918  22.249  15.168   7.722
 3066POPC   C1B39919  21.801  15.543   8.916
 3066POPC   C2B39920  21.939  15.461   8.480
 3066POPC   C3B39921  21.809  15.343   8.084
 3066POPC   C4B39922  21.741  15.131   7.707
 3067POPC   NC339923  31.680   4.130   9.531
 3067POPC   PO439924  31.287   4.722   9.437
 3067POPC   GL139925  31.419   4.410   9.162
 3067POPC   GL239926  31.807   4.411   9.130
 3067POPC   C1A39927  31.433   4.497   8.738
 3067POPC   D2A39928  31.345   4.306   8.354
 3067POPC   C3A39929  31.443   4.543   7.993
 3067POPC   C4A39930  31.461   4.359   7.551
 3067POPC   C1B39931  31.677   4.058   8.850
 3067POPC   C2B39932  31.825   4.180   8.444
 3067POPC   C3B39933  31.701   4.105   8.005
 3067POPC   C4B39934  31.962   4.269   7.676
 3068POPC   NC339935  19.419  20.542   9.483
 3068POPC   PO439936  20.135  20.559   9.609
 3068POPC   GL139937  19.859  20.533   9.198
 3068POPC   GL239938  19.554  20.413   9.006
 3068POPC   C1A39939  19.978  20.531   8.737
 3068POPC   D2A39940  20.036  20.928   8.500
 3068POPC   C3A39941  20.000  20.960   8.061
 3068POPC   C4A39942  20.032  20.536   7.902
 3068POPC   C1B39943  19.621  20.850   8.861
 3068POPC   C2B39944  19.526  20.938   8.429
 3068POPC   C3B39945  19.561  20.656   8.088
 3068POPC   C4B39946  19.601  20.851   7.696
 3069POPC   NC339947  37.672  28.047   9.523
 3069POPC   PO439948  37.879  27.375   9.409
 3069POPC   GL139949  37.622  27.529   9.072
 3069POPC   GL239950  37.610  27.885   9.052
 3069POPC   C1A39951  37.600  27.392   8.651
 3069POPC   D2A39952  37.921  27.283   8.327
 3069POPC   C3A39953  37.911  27.536   8.002
 3069POPC   C4A39954  37.786  27.535   7.628
 3069POPC   C1B39955  37.420  28.124   8.738
 3069POPC   C2B39956  37.240  28.069   8.321
 3069POPC   C3B39957  37.323  27.767   7.995
 3069POPC   C4B39958  37.400  27.843   7.566
 3070POPC   NC339959  35.705  14.004   9.430
 3070POPC   PO439960  35.162  13.578   9.599
 3070POPC   GL139961  35.288  13.723   9.201
 3070POPC   GL239962  35.577  13.583   9.156
 3070POPC   C1A39963  35.213  13.546   8.775
 3070POPC   D2A39964  35.119  13.390   8.355
 3070POPC   C3A39965  35.152  13.764   8.092
 3070POPC   C4A39966  35.154  13.899   7.684
 3070POPC   C1B39967  35.719  13.577   8.727
 3070POPC   C2B39968  35.596  13.580   8.280
 3070POPC   C3B39969  35.574  13.616   7.835
 3070POPC   C4B39970  35.822  13.643   7.455
 3071POPC   NC339971   8.810   2.778   9.392
 3071POPC   PO439972   9.406   3.057   9.424
 3071POPC   GL139973   9.211   2.798   9.078
 3071POPC   GL239974   9.012   2.466   9.062
 3071POPC   C1A39975   9.317   2.631   8.684
 3071POPC   D2A39976   9.169   2.547   8.288
 3071POPC   C3A39977   8.962   2.923   8.114
 3071POPC   C4A39978   9.081   2.901   7.690
 3071POPC   C1B39979   8.745   2.651   8.768
 3071POPC   C2B39980   8.635   2.531   8.393
 3071POPC   C3B39981   8.746   2.485   8.005
 3071POPC   C4B39982   8.565   2.394   7.690
 3072POPC   NC339983   4.271   2.574   9.671
 3072POPC   PO439984   4.618   3.064   9.308
 3072POPC   GL139985   4.446   2.706   9.105
 3072POPC   GL239986   4.120   2.622   9.180
 3072POPC   C1A39987   4.524   2.634   8.669
 3072POPC   D2A39988   4.594   2.497   8.249
 3072POPC   C3A39989   4.325   2.637   7.907
 3072POPC   C4A39990   4.459   3.009   7.774
 3072POPC   C1B39991   4.021   2.765   8.755
 3072POPC   C2B39992   4.084   2.595   8.356
 3072POPC   C3B39993   3.862   2.361   8.057
 3072POPC   C4B39994   3.779   2.377   7.623
 3073POPC   NC339995   4.170  22.612   9.799
 3073POPC   PO439996   4.463  22.083   9.518
 3073POPC   GL139997   4.182  22.122   9.190
 3073POPC   GL239998   4.394  21.857   9.038
 3073POPC   C1A39999   4.079  22.299   8.785
 3073POPC   D2A40000   4.095  22.070   8.427
 3073POPC   C3A40001   4.149  22.242   8.008
 3073POPC   C4A40002   4.225  22.110   7.570
 3073POPC   C1B40003   4.560  22.115   8.682
 3073POPC   C2B40004   4.414  22.469   8.390
 3073POPC   C3B40005   4.593  22.529   7.940
 3073POPC   C4B40006   4.718  22.472   7.476
 3074POPC   NC340007  28.666   4.967   9.281
 3074POPC   PO440008  28.172   5.067   9.658
 3074POPC   GL140009  28.171   5.173   9.203
 3074POPC   GL240010  28.217   4.875   9.053
 3074POPC   C1A40011  28.337   5.266   8.742
 3074POPC   D2A40012  28.628   5.137   8.362
 3074POPC   C3A40013  28.491   5.247   7.961
 3074POPC   C4A40014  28.346   5.305   7.549
 3074POPC   C1B40015  28.506   4.780   8.702
 3074POPC   C2B40016  28.701   4.624   8.362
 3074POPC   C3B40017  28.676   4.757   7.980
 3074POPC   C4B40018  28.337   4.770   7.722
 3075POPC   NC340019  15.573   4.090   9.588
 3075POPC   PO440020  15.957   4.630   9.777
 3075POPC   GL140021  16.049   4.445   9.290
 3075POPC   GL240022  15.754   4.236   9.148
 3075POPC   C1A40023  16.068   4.353   8.787
 3075POPC   D2A40024  15.785   4.084   8.505
 3075POPC   C3A40025  15.941   4.014   8.099
 3075POPC   C4A40026  16.053   4.159   7.721
 3075POPC   C1B40027  15.638   4.598   8.931
 3075POPC   C2B40028  15.695   4.607   8.496
 3075POPC   C3B40029  15.702   4.481   8.063
 3075POPC   C4B40030  15.787   4.568   7.617
 3076POPC   NC340031  38.771  42.799   9.669
 3076POPC   PO440032  38.857  42.187   9.459
 3076POPC   GL140033  39.137  42.415   9.178
 3076POPC   GL240034  38.950  42.732   9.202
 3076POPC   C1A40035  39.395  42.271   8.801
 3076POPC   D2A40036  39.508  42.132   8.371
 3076POPC   C3A40037  39.245  42.251   8.038
 3076POPC   C4A40038  39.335  42.219   7.612
 3076POPC   C1B40039  39.009  42.719   8.778
 3076POPC   C2B40040  39.009  42.429   8.476
 3076POPC   C3B40041  38.864  42.601   8.100
 3076POPC   C4B40042  38.974  42.571   7.709
 3077POPC   NC340043  10.076   4.089   9.340
 3077POPC   PO440044  10.456   3.624   9.759
 3077POPC   GL140045  10.372   3.664   9.301
 3077POPC   GL240046  10.362   3.351   9.089
 3077POPC   C1A40047  10.600   3.786   8.922
 3077POPC   D2A40048  10.648   3.801   8.449
 3077POPC   C3A40049  10.603   3.595   8.036
 3077POPC   C4A40050  10.640   3.229   7.755
 3077POPC   C1B40051  10.687   3.302   8.731
 3077POPC   C2B40052  10.639   3.153   8.306
 3077POPC   C3B40053  10.239   3.235   8.093
 3077POPC   C4B40054  10.058   3.150   7.699
 3078POPC   NC340055  42.938  39.369   9.363
 3078POPC   PO440056  43.562  39.638   9.387
 3078POPC   GL140057  43.212  39.828   9.139
 3078POPC   GL240058  42.843  39.916   9.188
 3078POPC   C1A40059  43.120  40.107   8.803
 3078POPC   D2A40060  43.069  40.390   8.458
 3078POPC   C3A40061  43.078  40.236   8.034
 3078POPC   C4A40062  43.004  40.432   7.622
 3078POPC   C1B40063  42.727  39.744   8.791
 3078POPC   C2B40064  42.902  39.867   8.384
 3078POPC   C3B40065  42.724  39.853   7.956
 3078POPC   C4B40066  42.792  39.968   7.519
 3079POPC   NC340067  16.273  28.551   9.494
 3079POPC   PO440068  15.674  28.234   9.439
 3079POPC   GL140069  15.841  28.500   9.126
 3079POPC   GL240070  16.090  28.265   9.101
 3079POPC   C1A40071  15.767  28.543   8.675
 3079POPC   D2A40072  15.778  28.371   8.246
 3079POPC   C3A40073  15.747  28.653   7.899
 3079POPC   C4A40074  15.767  28.628   7.428
 3079POPC   C1B40075  16.025  28.110   8.705
 3079POPC   C2B40076  16.261  28.069   8.360
 3079POPC   C3B40077  16.443  28.216   7.982
 3079POPC   C4B40078  16.126  28.365   7.723
 3080POPC   NC340079  28.258  25.874   9.402
 3080POPC   PO440080  28.154  26.531   9.376
 3080POPC   GL140081  28.361  26.253   9.074
 3080POPC   GL240082  28.675  26.067   9.163
 3080POPC   C1A40083  28.177  25.900   8.780
 3080POPC   D2A40084  28.020  25.815   8.376
 3080POPC   C3A40085  28.319  25.870   8.044
 3080POPC   C4A40086  28.306  25.645   7.671
 3080POPC   C1B40087  28.662  26.053   8.722
 3080POPC   C2B40088  28.356  26.235   8.420
 3080POPC   C3B40089  28.460  26.444   8.059
 3080POPC   C4B40090  28.495  26.230   7.704
 3081POPC   NC340091  18.736  33.917   9.748
 3081POPC   PO440092  18.326  34.081   9.212
 3081POPC   GL140093  18.194  33.704   9.002
 3081POPC   GL240094  18.494  33.559   8.828
 3081POPC   C1A40095  17.997  33.506   8.659
 3081POPC   D2A40096  17.762  33.551   8.279
 3081POPC   C3A40097  18.102  33.551   7.954
 3081POPC   C4A40098  18.320  33.921   7.805
 3081POPC   C1B40099  18.731  33.834   8.579
 3081POPC   C2B40100  18.662  34.059   8.185
 3081POPC   C3B40101  18.816  33.967   7.781
 3081POPC   C4B40102  18.820  33.904   7.353
 3082POPC   NC340103  42.660  43.485   9.583
 3082POPC   PO440104  42.416  44.040   9.783
 3082POPC   GL140105  42.329  43.869   9.289
 3082POPC   GL240106  42.471  43.540   9.118
 3082POPC   C1A40107  42.283  43.948   8.782
 3082POPC   D2A40108  41.949  44.039   8.434
 3082POPC   C3A40109  42.107  43.936   7.991
 3082POPC   C4A40110  42.473  44.107   7.717
 3082POPC   C1B40111  42.224  43.430   8.762
 3082POPC   C2B40112  42.165  43.588   8.381
 3082POPC   C3B40113  42.527  43.814   8.246
 3082POPC   C4B40114  42.533  43.628   7.875
 3083POPC   NC340115  27.202  38.343   9.512
 3083POPC   PO440116  27.819  38.261   9.402
 3083POPC   GL140117  27.725  38.543   9.055
 3083POPC   GL240118  27.416  38.395   9.054
 3083POPC   C1A40119  27.497  38.601   8.608
 3083POPC   D2A40120  27.242  38.449   8.243
 3083POPC   C3A40121  27.451  38.465   7.817
 3083POPC   C4A40122  27.603  38.745   7.482
 3083POPC   C1B40123  27.304  38.124   8.734
 3083POPC   C2B40124  27.441  37.938   8.404
 3083POPC   C3B40125  27.366  37.996   8.004
 3083POPC   C4B40126  27.556  37.973   7.616
 3084POPC   NC340127  25.734  19.719   9.613
 3084POPC   PO440128  26.277  20.039   9.408
 3084POPC   GL140129  26.185  19.771   9.087
 3084POPC   GL240130  25.853  19.635   9.127
 3084POPC   C1A40131  26.310  19.713   8.676
 3084POPC   D2A40132  26.366  19.561   8.269
 3084POPC   C3A40133  26.366  19.924   8.011
 3084POPC   C4A40134  26.002  20.058   7.772
 3084POPC   C1B40135  25.777  19.787   8.721
 3084POPC   C2B40136  25.910  19.802   8.302
 3084POPC   C3B40137  25.666  19.738   7.973
 3084POPC   C4B40138  25.515  19.917   7.644
 3085POPC   NC340139   1.236  33.716   9.656
 3085POPC   PO440140   0.866  34.220   9.402
 3085POPC   GL140141   0.977  34.092   8.974
 3085POPC   GL240142   1.158  33.741   9.042
 3085POPC   C1A40143   1.295  34.061   8.645
 3085POPC   D2A40144   1.224  33.779   8.324
 3085POPC   C3A40145   1.124  33.976   7.955
 3085POPC   C4A40146   1.301  34.006   7.537
 3085POPC   C1B40147   1.509  33.595   8.749
 3085POPC   C2B40148   1.695  33.585   8.300
 3085POPC   C3B40149   1.501  33.639   7.878
 3085POPC   C4B40150   1.682  33.673   7.459
 3086POPC   NC340151  21.996   7.660   9.673
 3086POPC   PO440152  22.487   7.118   9.502
 3086POPC   GL140153  22.267   7.356   9.195
 3086POPC   GL240154  22.314   7.662   9.253
 3086POPC   C1A40155  22.168   7.259   8.781
 3086POPC   D2A40156  22.487   7.167   8.501
 3086POPC   C3A40157  22.356   7.135   8.121
 3086POPC   C4A40158  22.188   7.138   7.722
 3086POPC   C1B40159  22.374   7.748   8.836
 3086POPC   C2B40160  22.262   7.623   8.439
 3086POPC   C3B40161  22.255   7.619   8.020
 3086POPC   C4B40162  22.041   7.630   7.699
 3087POPC   NC340163  42.384  16.731   9.870
 3087POPC   PO440164  42.807  16.444   9.379
 3087POPC   GL140165  42.768  16.672   9.040
 3087POPC   GL240166  42.458  16.798   9.196
 3087POPC   C1A40167  42.775  16.642   8.588
 3087POPC   D2A40168  42.562  16.913   8.307
 3087POPC   C3A40169  42.407  16.708   7.948
 3087POPC   C4A40170  42.316  16.927   7.607
 3087POPC   C1B40171  42.313  16.820   8.754
 3087POPC   C2B40172  42.106  16.646   8.356
 3087POPC   C3B40173  41.871  16.789   7.958
 3087POPC   C4B40174  41.553  16.643   7.622
 3088POPC   NC340175  26.750   7.680   9.440
 3088POPC   PO440176  26.929   7.034   9.540
 3088POPC   GL140177  26.829   7.212   9.161
 3088POPC   GL240178  26.489   7.274   9.215
 3088POPC   C1A40179  26.927   7.332   8.726
 3088POPC   D2A40180  26.820   7.579   8.350
 3088POPC   C3A40181  27.028   7.514   7.939
 3088POPC   C4A40182  26.982   7.652   7.470
 3088POPC   C1B40183  26.427   7.192   8.807
 3088POPC   C2B40184  26.568   7.070   8.412
 3088POPC   C3B40185  26.558   7.280   8.029
 3088POPC   C4B40186  26.743   7.233   7.626
 3089POPC   NC340187  31.066  28.259   9.489
 3089POPC   PO440188  30.575  28.690   9.547
 3089POPC   GL140189  30.478  28.419   9.203
 3089POPC   GL240190  30.751  28.242   9.094
 3089POPC   C1A40191  30.348  28.324   8.775
 3089POPC   D2A40192  30.385  28.529   8.369
 3089POPC   C3A40193  30.348  28.231   8.022
 3089POPC   C4A40194  30.449  28.361   7.636
 3089POPC   C1B40195  30.772  28.040   8.724
 3089POPC   C2B40196  30.727  28.160   8.337
 3089POPC   C3B40197  30.847  28.128   7.921
 3089POPC   C4B40198  31.079  28.378   7.669
 3090POPC   NC340199  37.632   1.478   9.659
 3090POPC   PO440200  37.466   0.790   9.750
 3090POPC   GL140201  37.616   1.017   9.366
 3090POPC   GL240202  37.888   1.187   9.304
 3090POPC   C1A40203  37.609   1.105   8.896
 3090POPC   D2A40204  37.695   0.982   8.479
 3090POPC   C3A40205  37.508   1.233   8.171
 3090POPC   C4A40206  37.503   1.260   7.703
 3090POPC   C1B40207  37.886   1.543   8.966
 3090POPC   C2B40208  37.852   1.544   8.486
 3090POPC   C3B40209  37.915   1.473   8.013
 3090POPC   C4B40210  37.996   1.280   7.619
 3091POPC   NC340211  26.191   8.142   9.354
 3091POPC   PO440212  26.271   8.776   9.488
 3091POPC   GL140213  26.015   8.558   9.142
 3091POPC   GL240214  26.316   8.464   8.971
 3091POPC   C1A40215  25.831   8.371   8.734
 3091POPC   D2A40216  25.759   7.957   8.519
 3091POPC   C3A40217  25.818   7.971   8.061
 3091POPC   C4A40218  25.859   8.321   7.791
 3091POPC   C1B40219  26.269   8.103   8.704
 3091POPC   C2B40220  26.162   8.242   8.329
 3091POPC   C3B40221  26.340   8.374   7.980
 3091POPC   C4B40222  26.442   8.067   7.696
 3092POPC   NC340223  20.078  14.982   9.513
 3092POPC   PO440224  19.496  15.367   9.405
 3092POPC   GL140225  19.798  15.170   9.094
 3092POPC   GL240226  19.916  14.814   9.064
 3092POPC   C1A40227  19.752  15.198   8.644
 3092POPC   D2A40228  19.532  15.251   8.232
 3092POPC   C3A40229  19.767  15.244   7.818
 3092POPC   C4A40230  19.571  15.189   7.428
 3092POPC   C1B40231  20.210  14.793   8.699
 3092POPC   C2B40232  20.336  15.032   8.345
 3092POPC   C3B40233  20.224  14.948   7.924
 3092POPC   C4B40234  20.124  14.955   7.510
 3093POPC   NC340235  43.565  11.828   9.515
 3093POPC   PO440236  43.054  12.212   9.445
 3093POPC   GL140237  43.039  12.002   9.089
 3093POPC   GL240238  43.188  11.727   9.192
 3093POPC   C1A40239  43.160  11.891   8.691
 3093POPC   D2A40240  43.015  12.085   8.337
 3093POPC   C3A40241  43.141  12.044   7.958
 3093POPC   C4A40242  42.750  12.022   7.750
 3093POPC   C1B40243  43.531  11.593   8.901
 3093POPC   C2B40244  43.615  11.771   8.502
 3093POPC   C3B40245  43.461  11.652   8.099
 3093POPC   C4B40246  43.550  11.758   7.687
 3094POPC   NC340247  35.077  17.179   9.268
 3094POPC   PO440248  35.462  17.707   9.484
 3094POPC   GL140249  35.403  17.543   9.090
 3094POPC   GL240250  35.573  17.229   9.001
 3094POPC   C1A40251  35.130  17.747   8.806
 3094POPC   D2A40252  35.123  17.917   8.429
 3094POPC   C3A40253  35.332  17.648   8.180
 3094POPC   C4A40254  35.276  17.689   7.774
 3094POPC   C1B40255  35.351  17.320   8.599
 3094POPC   C2B40256  35.040  17.227   8.259
 3094POPC   C3B40257  35.053  17.220   7.790
 3094POPC   C4B40258  35.229  16.970   7.413
 3095POPC   NC340259  34.513  38.277   9.430
 3095POPC   PO440260  34.881  38.831   9.673
 3095POPC   GL140261  34.689  38.878   9.183
 3095POPC   GL240262  34.409  38.682   9.153
 3095POPC   C1A40263  34.706  38.781   8.721
 3095POPC   D2A40264  34.719  38.391   8.473
 3095POPC   C3A40265  34.603  38.368   8.043
 3095POPC   C4A40266  34.809  38.130   7.738
 3095POPC   C1B40267  34.341  38.409   8.812
 3095POPC   C2B40268  34.209  38.547   8.418
 3095POPC   C3B40269  34.094  38.329   8.064
 3095POPC   C4B40270  34.217  38.069   7.734
 3096POPC   NC340271   6.151  37.217   9.498
 3096POPC   PO440272   6.035  37.895   9.473
 3096POPC   GL140273   5.823  37.814   9.115
 3096POPC   GL240274   5.888  37.475   9.166
 3096POPC   C1A40275   5.935  37.705   8.695
 3096POPC   D2A40276   6.090  37.437   8.363
 3096POPC   C3A40277   5.998  37.660   7.986
 3096POPC   C4A40278   5.749  37.936   7.731
 3096POPC   C1B40279   5.945  37.228   8.832
 3096POPC   C2B40280   5.605  37.323   8.528
 3096POPC   C3B40281   5.651  37.305   8.102
 3096POPC   C4B40282   6.051  37.153   7.888
 3097POPC   NC340283  19.654  26.047   9.524
 3097POPC   PO440284  20.227  26.275   9.620
 3097POPC   GL140285  19.900  26.304   9.147
 3097POPC   GL240286  19.660  26.035   9.027
 3097POPC   C1A40287  19.644  26.437   8.741
 3097POPC   D2A40288  19.551  26.252   8.328
 3097POPC   C3A40289  19.892  26.113   8.077
 3097POPC   C4A40290  20.106  26.384   7.807
 3097POPC   C1B40291  19.922  25.987   8.666
 3097POPC   C2B40292  19.689  25.755   8.397
 3097POPC   C3B40293  19.409  25.820   8.060
 3097POPC   C4B40294  19.612  25.903   7.683
 3098POPC   NC340295  18.784   4.623   9.304
 3098POPC   PO440296  19.352   4.216   9.428
 3098POPC   GL140297  19.144   4.262   9.054
 3098POPC   GL240298  18.814   4.145   9.090
 3098POPC   C1A40299  19.101   4.061   8.660
 3098POPC   D2A40300  19.322   4.225   8.348
 3098POPC   C3A40301  19.172   4.144   7.969
 3098POPC   C4A40302  19.284   4.453   7.685
 3098POPC   C1B40303  18.740   4.425   8.720
 3098POPC   C2B40304  18.823   4.413   8.303
 3098POPC   C3B40305  18.792   4.484   7.889
 3098POPC   C4B40306  18.829   4.264   7.520
 3099POPC   NC340307  21.988  21.309   9.641
 3099POPC   PO440308  22.369  21.814   9.725
 3099POPC   GL140309  22.052  21.620   9.267
 3099POPC   GL240310  22.189  21.228   9.191
 3099POPC   C1A40311  22.080  21.483   8.774
 3099POPC   D2A40312  22.186  21.668   8.366
 3099POPC   C3A40313  22.139  21.425   7.994
 3099POPC   C4A40314  22.414  21.399   7.670
 3099POPC   C1B40315  21.917  21.010   8.900
 3099POPC   C2B40316  21.817  20.909   8.488
 3099POPC   C3B40317  21.797  21.031   8.079
 3099POPC   C4B40318  21.917  20.943   7.691
 3100POPC   NC340319   1.847  34.905   9.407
 3100POPC   PO440320   2.327  34.500   9.630
 3100POPC   GL140321   2.134  34.479   9.237
 3100POPC   GL240322   1.960  34.190   9.244
 3100POPC   C1A40323   2.062  34.588   8.813
 3100POPC   D2A40324   2.087  34.897   8.459
 3100POPC   C3A40325   2.330  34.814   8.072
 3100POPC   C4A40326   2.219  34.807   7.608
 3100POPC   C1B40327   1.825  34.106   8.821
 3100POPC   C2B40328   1.786  34.319   8.450
 3100POPC   C3B40329   1.893  34.569   8.105
 3100POPC   C4B40330   1.876  34.437   7.679
 3101POPC   NC340331  44.843  29.627   9.464
 3101POPC   PO440332  44.352  29.991   9.233
 3101POPC   GL140333  44.619  29.706   9.021
 3101POPC   GL240334   0.009  29.786   9.009
 3101POPC   C1A40335  44.744  29.573   8.628
 3101POPC   D2A40336  44.590  29.767   8.289
 3101POPC   C3A40337  44.773  29.830   7.915
 3101POPC   C4A40338  44.401  30.112   7.847
 3101POPC   C1B40339  44.794  30.107   8.745
 3101POPC   C2B40340  44.881  30.441   8.475
 3101POPC   C3B40341  44.829  30.296   8.083
 3101POPC   C4B40342   0.150  30.172   7.807
 3102POPC   NC340343  33.901  37.838   9.493
 3102POPC   PO440344  34.303  37.245   9.653
 3102POPC   GL140345  34.098  37.406   9.209
 3102POPC   GL240346  34.034  37.780   8.994
 3102POPC   C1A40347  33.931  37.359   8.773
 3102POPC   D2A40348  33.911  37.570   8.347
 3102POPC   C3A40349  33.588  37.498   8.035
 3102POPC   C4A40350  33.690  37.388   7.629
 3102POPC   C1B40351  33.619  37.769   8.775
 3102POPC   C2B40352  33.526  37.924   8.359
 3102POPC   C3B40353  33.753  37.966   7.978
 3102POPC   C4B40354  33.681  37.984   7.564
 3103POPC   NC340355  22.008  11.932   9.449
 3103POPC   PO440356  22.434  12.406   9.402
 3103POPC   GL140357  22.050  12.383   9.182
 3103POPC   GL240358  22.188  12.126   9.004
 3103POPC   C1A40359  21.806  12.380   8.791
 3103POPC   D2A40360  21.947  12.161   8.451
 3103POPC   C3A40361  22.035  12.111   8.029
 3103POPC   C4A40362  22.231  12.082   7.606
 3103POPC   C1B40363  22.182  11.789   8.742
 3103POPC   C2B40364  22.050  11.659   8.323
 3103POPC   C3B40365  22.243  11.657   7.906
 3103POPC   C4B40366  22.347  11.610   7.447
 3104POPC   NC340367  13.323  23.252   9.445
 3104POPC   PO440368  13.128  23.990   9.432
 3104POPC   GL140369  13.003  23.762   9.059
 3104POPC   GL240370  13.315  23.614   9.089
 3104POPC   C1A40371  12.840  23.525   8.678
 3104POPC   D2A40372  13.003  23.499   8.241
 3104POPC   C3A40373  12.710  23.625   7.935
 3104POPC   C4A40374  12.503  23.401   7.592
 3104POPC   C1B40375  13.320  23.682   8.661
 3104POPC   C2B40376  13.309  23.898   8.305
 3104POPC   C3B40377  13.126  23.921   7.888
 3104POPC   C4B40378  12.984  23.750   7.504
 3105POPC   NC340379  42.148   6.086   9.508
 3105POPC   PO440380  42.495   5.542   9.273
 3105POPC   GL140381  42.183   5.807   9.061
 3105POPC   GL240382  42.404   6.101   9.072
 3105POPC   C1A40383  42.267   5.915   8.612
 3105POPC   D2A40384  42.580   5.676   8.393
 3105POPC   C3A40385  42.481   5.567   7.985
 3105POPC   C4A40386  42.124   5.742   7.764
 3105POPC   C1B40387  42.741   6.028   8.769
 3105POPC   C2B40388  42.678   6.204   8.387
 3105POPC   C3B40389  42.375   6.088   8.108
 3105POPC   C4B40390  42.585   6.029   7.744
 3106POPC   NC340391  10.798  13.134   9.409
 3106POPC   PO440392  10.163  12.999   9.590
 3106POPC   GL140393  10.366  12.911   9.172
 3106POPC   GL240394  10.331  12.594   9.024
 3106POPC   C1A40395  10.684  12.893   8.802
 3106POPC   D2A40396  10.843  12.729   8.399
 3106POPC   C3A40397  10.686  12.931   8.045
 3106POPC   C4A40398  10.559  12.823   7.645
 3106POPC   C1B40399  10.207  12.351   8.677
 3106POPC   C2B40400  10.326  12.290   8.274
 3106POPC   C3B40401  10.277  12.592   7.989
 3106POPC   C4B40402  10.087  12.606   7.620
 3107POPC   NC340403   8.784  43.497   9.965
 3107POPC   PO440404   9.106  43.913   9.481
 3107POPC   GL140405   9.137  44.060   9.116
 3107POPC   GL240406   9.165  44.421   9.169
 3107POPC   C1A40407   8.854  43.902   8.813
 3107POPC   D2A40408   8.699  44.019   8.438
 3107POPC   C3A40409   8.884  43.753   8.156
 3107POPC   C4A40410   8.843  43.767   7.750
 3107POPC   C1B40411   9.043  44.361   8.733
 3107POPC   C2B40412   9.168  44.150   8.351
 3107POPC   C3B40413   9.034  44.214   7.909
 3107POPC   C4B40414   9.244  44.083   7.543
 3108POPC   NC340415  11.765  14.527   9.472
 3108POPC   PO440416  12.439  14.359   9.597
 3108POPC   GL140417  12.242  14.524   9.199
 3108POPC   GL240418  12.048  14.251   9.149
 3108POPC   C1A40419  12.014  14.661   8.802
 3108POPC   D2A40420  11.813  14.433   8.424
 3108POPC   C3A40421  11.917  14.526   7.972
 3108POPC   C4A40422  12.139  14.665   7.591
 3108POPC   C1B40423  12.255  14.217   8.738
 3108POPC   C2B40424  12.327  14.392   8.331
 3108POPC   C3B40425  12.479  14.329   7.925
 3108POPC   C4B40426  12.492  14.204   7.508
 3109POPC   NC340427  29.405   2.247   9.405
 3109POPC   PO440428  29.161   1.601   9.548
 3109POPC   GL140429  29.155   1.838   9.170
 3109POPC   GL240430  28.958   2.095   9.116
 3109POPC   C1A40431  29.319   2.049   8.776
 3109POPC   D2A40432  29.143   2.139   8.384
 3109POPC   C3A40433  29.377   2.049   8.035
 3109POPC   C4A40434  29.208   1.757   7.774
 3109POPC   C1B40435  28.758   2.157   8.751
 3109POPC   C2B40436  28.635   2.304   8.337
 3109POPC   C3B40437  28.875   2.183   7.955
 3109POPC   C4B40438  29.135   2.230   7.580
 3110POPC   NC340439  42.536   9.269   9.256
 3110POPC   PO440440  42.196   9.964   9.459
 3110POPC   GL140441  42.376   9.835   9.077
 3110POPC   GL240442  42.224   9.515   8.966
 3110POPC   C1A40443  42.463  10.013   8.680
 3110POPC   D2A40444  42.303   9.748   8.328
 3110POPC   C3A40445  42.211   9.784   7.916
 3110POPC   C4A40446  42.522   9.854   7.597
 3110POPC   C1B40447  42.589   9.508   8.679
 3110POPC   C2B40448  42.648   9.394   8.276
 3110POPC   C3B40449  42.706   9.457   7.859
 3110POPC   C4B40450  42.800   9.185   7.516
 3111POPC   NC340451   7.296   1.545   9.444
 3111POPC   PO440452   7.144   2.217   9.475
 3111POPC   GL140453   7.400   2.001   9.170
 3111POPC   GL240454   7.699   1.779   9.190
 3111POPC   C1A40455   7.445   2.028   8.747
 3111POPC   D2A40456   7.104   2.042   8.445
 3111POPC   C3A40457   7.323   1.954   8.072
 3111POPC   C4A40458   7.275   2.110   7.675
 3111POPC   C1B40459   7.879   1.694   8.786
 3111POPC   C2B40460   7.763   1.805   8.375
 3111POPC   C3B40461   7.740   1.572   8.008
 3111POPC   C4B40462   7.728   1.848   7.675
 3112POPC   NC340463  20.943  27.078   9.331
 3112POPC   PO440464  21.434  26.767   9.610
 3112POPC   GL140465  21.429  26.643   9.189
 3112POPC   GL240466  21.532  26.970   9.083
 3112POPC   C1A40467  21.605  26.546   8.782
 3112POPC   D2A40468  21.434  26.625   8.369
 3112POPC   C3A40469  21.571  26.463   7.971
 3112POPC   C4A40470  21.540  26.767   7.708
 3112POPC   C1B40471  21.180  26.863   8.761
 3112POPC   C2B40472  20.905  27.052   8.443
 3112POPC   C3B40473  21.012  27.257   8.063
 3112POPC   C4B40474  21.261  27.182   7.687
 3113POPC   NC340475  31.302  13.755   9.444
 3113POPC   PO440476  31.631  13.250   9.537
 3113POPC   GL140477  31.657  13.458   9.112
 3113POPC   GL240478  31.656  13.832   9.071
 3113POPC   C1A40479  31.415  13.534   8.722
 3113POPC   D2A40480  31.499  13.760   8.346
 3113POPC   C3A40481  31.472  13.412   8.061
 3113POPC   C4A40482  31.829  13.163   7.858
 3113POPC   C1B40483  31.258  14.009   8.802
 3113POPC   C2B40484  31.027  13.967   8.397
 3113POPC   C3B40485  31.218  14.040   7.970
 3113POPC   C4B40486  31.129  13.944   7.499
 3114POPC   NC340487  44.756  33.578   9.346
 3114POPC   PO440488  44.563  33.004   9.588
 3114POPC   GL140489  44.434  32.873   9.176
 3114POPC   GL240490  44.701  33.117   9.102
 3114POPC   C1A40491  44.506  32.863   8.714
 3114POPC   D2A40492  44.848  32.817   8.402
 3114POPC   C3A40493  44.764  32.912   7.965
 3114POPC   C4A40494  44.368  32.870   7.766
 3114POPC   C1B40495  44.655  33.361   8.743
 3114POPC   C2B40496  44.551  33.235   8.361
 3114POPC   C3B40497  44.482  33.359   8.005
 3114POPC   C4B40498  44.687  33.292   7.626
 3115POPC   NC340499  37.056  38.180   9.477
 3115POPC   PO440500  36.663  38.766   9.497
 3115POPC   GL140501  36.946  38.607   9.196
 3115POPC   GL240502  36.687  38.340   9.134
 3115POPC   C1A40503  37.081  38.384   8.807
 3115POPC   D2A40504  37.017  38.588   8.412
 3115POPC   C3A40505  37.026  38.476   7.977
 3115POPC   C4A40506  37.251  38.551   7.592
 3115POPC   C1B40507  36.622  38.648   8.774
 3115POPC   C2B40508  36.498  38.525   8.347
 3115POPC   C3B40509  36.515  38.622   7.917
 3115POPC   C4B40510  36.653  38.387   7.580
 3116POPC   NC340511  41.315   4.713   9.341
 3116POPC   PO440512  41.625   4.160   9.428
 3116POPC   GL140513  41.614   4.297   9.035
 3116POPC   GL240514  41.229   4.307   9.052
 3116POPC   C1A40515  41.758   4.173   8.604
 3116POPC   D2A40516  41.678   4.405   8.229
 3116POPC   C3A40517  41.538   4.158   7.883
 3116POPC   C4A40518  41.605   4.129   7.431
 3116POPC   C1B40519  41.350   4.477   8.634
 3116POPC   C2B40520  41.284   4.760   8.294
 3116POPC   C3B40521  41.244   4.689   7.877
 3116POPC   C4B40522  41.148   4.359   7.621
 3117POPC   NC340523  34.175  33.032   9.402
 3117POPC   PO440524  33.638  33.295   9.711
 3117POPC   GL140525  33.701  33.062   9.247
 3117POPC   GL240526  33.681  33.336   8.994
 3117POPC   C1A40527  33.860  32.896   8.780
 3117POPC   D2A40528  33.747  33.188   8.395
 3117POPC   C3A40529  33.891  33.151   7.931
 3117POPC   C4A40530  33.985  32.734   7.761
 3117POPC   C1B40531  34.113  33.324   8.746
 3117POPC   C2B40532  34.225  33.387   8.284
 3117POPC   C3B40533  34.319  33.447   7.840
 3117POPC   C4B40534  34.291  33.134   7.483
 3118POPC   NC340535   0.331   5.361   9.388
 3118POPC   PO440536   0.716   4.818   9.476
 3118POPC   GL140537   0.418   4.900   9.156
 3118POPC   GL240538   0.058   4.916   9.195
 3118POPC   C1A40539   0.464   5.094   8.764
 3118POPC   D2A40540   0.370   5.312   8.379
 3118POPC   C3A40541   0.523   5.195   7.995
 3118POPC   C4A40542   0.240   5.294   7.669
 3118POPC   C1B40543   0.124   4.659   8.814
 3118POPC   C2B40544   0.225   4.821   8.404
 3118POPC   C3B40545   0.093   4.899   7.998
 3118POPC   C4B40546   0.400   4.795   7.682
 3119POPC   NC340547   0.841   8.526   9.333
 3119POPC   PO440548   1.490   8.647   9.477
 3119POPC   GL140549   1.393   8.299   9.145
 3119POPC   GL240550   1.053   8.200   9.014
 3119POPC   C1A40551   1.472   8.130   8.711
 3119POPC   D2A40552   1.354   8.001   8.267
 3119POPC   C3A40553   1.353   8.297   7.911
 3119POPC   C4A40554   1.352   8.180   7.465
 3119POPC   C1B40555   0.775   8.308   8.664
 3119POPC   C2B40556   0.847   8.210   8.254
 3119POPC   C3B40557   0.928   7.980   7.909
 3119POPC   C4B40558   0.883   8.281   7.613
 3120POPC   NC340559  23.377   2.508   9.548
 3120POPC   PO440560  23.819   2.967   9.665
 3120POPC   GL140561  23.871   2.889   9.212
 3120POPC   GL240562  23.539   3.001   9.161
 3120POPC   C1A40563  24.019   2.637   8.852
 3120POPC   D2A40564  23.804   2.487   8.466
 3120POPC   C3A40565  23.860   2.811   8.134
 3120POPC   C4A40566  23.935   2.769   7.682
 3120POPC   C1B40567  23.531   2.815   8.757
 3120POPC   C2B40568  23.384   2.806   8.317
 3120POPC   C3B40569  23.479   3.139   8.032
 3120POPC   C4B40570  23.528   3.088   7.583
 3121POPC   NC340571  20.399  33.618   9.467
 3121POPC   PO440572  20.730  34.221   9.602
 3121POPC   GL140573  20.484  34.074   9.182
 3121POPC   GL240574  20.454  33.749   8.995
 3121POPC   C1A40575  20.277  34.141   8.755
 3121POPC   D2A40576  20.460  34.108   8.333
 3121POPC   C3A40577  20.645  33.737   8.119
 3121POPC   C4A40578  20.699  33.978   7.743
 3121POPC   C1B40579  20.380  33.385   8.773
 3121POPC   C2B40580  20.238  33.401   8.332
 3121POPC   C3B40581  20.393  33.278   7.942
 3121POPC   C4B40582  20.409  33.549   7.590
 3122POPC   NC340583  23.074  35.464   9.680
 3122POPC   PO440584  22.541  35.143   9.440
 3122POPC   GL140585  22.780  35.338   9.097
 3122POPC   GL240586  23.128  35.334   9.178
 3122POPC   C1A40587  22.798  35.330   8.645
 3122POPC   D2A40588  22.548  35.120   8.372
 3122POPC   C3A40589  22.574  35.270   7.968
 3122POPC   C4A40590  22.794  35.524   7.731
 3122POPC   C1B40591  23.208  35.100   8.829
 3122POPC   C2B40592  23.281  35.363   8.464
 3122POPC   C3B40593  23.124  35.420   8.088
 3122POPC   C4B40594  23.298  35.203   7.739
 3123POPC   NC340595  23.492  23.505   9.470
 3123POPC   PO440596  22.809  23.466   9.548
 3123POPC   GL140597  22.804  23.755   9.203
 3123POPC   GL240598  23.150  23.868   9.118
 3123POPC   C1A40599  22.770  23.762   8.760
 3123POPC   D2A40600  22.907  23.840   8.354
 3123POPC   C3A40601  22.687  23.659   8.036
 3123POPC   C4A40602  22.751  23.754   7.656
 3123POPC   C1B40603  23.294  23.906   8.693
 3123POPC   C2B40604  23.357  23.652   8.298
 3123POPC   C3B40605  23.200  23.650   7.901
 3123POPC   C4B40606  23.418  23.926   7.627
 3124POPC   NC340607  20.577  18.302   9.591
 3124POPC   PO440608  20.530  17.596   9.479
 3124POPC   GL140609  20.525  17.966   9.197
 3124POPC   GL240610  20.372  18.280   9.127
 3124POPC   C1A40611  20.630  18.053   8.751
 3124POPC   D2A40612  20.714  18.295   8.377
 3124POPC   C3A40613  20.448  18.155   8.060
 3124POPC   C4A40614  20.552  18.242   7.690
 3124POPC   C1B40615  20.334  18.634   8.854
 3124POPC   C2B40616  20.359  18.741   8.414
 3124POPC   C3B40617  20.505  18.658   7.985
 3124POPC   C4B40618  20.343  18.661   7.533
 3125POPC   NC340619  38.898  40.302   9.574
 3125POPC   PO440620  38.377  40.765   9.364
 3125POPC   GL140621  38.288  40.590   9.019
 3125POPC   GL240622  38.120  40.779   8.785
 3125POPC   C1A40623  38.563  40.368   8.742
 3125POPC   D2A40624  38.836  40.319   8.399
 3125POPC   C3A40625  38.676  40.612   8.108
 3125POPC   C4A40626  38.427  40.533   7.759
 3125POPC   C1B40627  38.565  40.916   8.739
 3125POPC   C2B40628  38.645  41.202   8.449
 3125POPC   C3B40629  38.854  41.089   8.106
 3125POPC   C4B40630  38.627  40.979   7.717
 3126POPC   NC340631  24.274  23.420   9.437
 3126POPC   PO440632  24.423  24.030   9.540
 3126POPC   GL140633  24.506  23.793   9.169
 3126POPC   GL240634  24.179  23.829   9.040
 3126POPC   C1A40635  24.589  23.928   8.732
 3126POPC   D2A40636  24.334  23.928   8.348
 3126POPC   C3A40637  24.628  23.963   7.994
 3126POPC   C4A40638  24.706  23.571   7.797
 3126POPC   C1B40639  24.245  23.529   8.692
 3126POPC   C2B40640  24.311  23.423   8.254
 3126POPC   C3B40641  24.206  23.685   7.873
 3126POPC   C4B40642  24.033  23.512   7.454
 3127POPC   NC340643  44.521  20.059   9.518
 3127POPC   PO440644  44.282  19.432   9.424
 3127POPC   GL140645  44.525  19.700   9.121
 3127POPC   GL240646  44.433  20.062   9.019
 3127POPC   C1A40647  44.653  19.633   8.683
 3127POPC   D2A40648  44.552  19.465   8.300
 3127POPC   C3A40649  44.726  19.470   7.895
 3127POPC   C4A40650  44.615  19.565   7.464
 3127POPC   C1B40651  44.866  20.047   8.889
 3127POPC   C2B40652  44.868  20.079   8.446
 3127POPC   C3B40653  44.648  19.942   8.108
 3127POPC   C4B40654  44.862  19.919   7.748
 3128POPC   NC340655  41.491  35.647   9.443
 3128POPC   PO440656  41.685  34.979   9.465
 3128POPC   GL140657  41.592  35.246   9.148
 3128POPC   GL240658  41.869  35.137   8.964
 3128POPC   C1A40659  41.548  35.511   8.795
 3128POPC   D2A40660  41.727  35.346   8.429
 3128POPC   C3A40661  41.618  35.573   8.062
 3128POPC   C4A40662  41.455  35.453   7.685
 3128POPC   C1B40663  41.888  34.851   8.627
 3128POPC   C2B40664  41.967  34.908   8.235
 3128POPC   C3B40665  41.747  35.080   7.953
 3128POPC   C4B40666  41.809  35.049   7.587
 3129POPC   NC340667  43.727  10.269   9.443
 3129POPC   PO440668  44.321  10.048   9.339
 3129POPC   GL140669  43.950   9.972   9.093
 3129POPC   GL240670  43.729   9.686   9.215
 3129POPC   C1A40671  43.963   9.845   8.681
 3129POPC   D2A40672  44.086   9.633   8.324
 3129POPC   C3A40673  44.022   9.799   7.934
 3129POPC   C4A40674  43.938   9.613   7.551
 3129POPC   C1B40675  43.471   9.778   8.856
 3129POPC   C2B40676  43.538   9.774   8.410
 3129POPC   C3B40677  43.548   9.620   7.999
 3129POPC   C4B40678  43.532   9.899   7.662
 3130POPC   NC340679  30.545  23.413   9.626
 3130POPC   PO440680  31.134  23.790   9.500
 3130POPC   GL140681  30.836  23.706   9.189
 3130POPC   GL240682  30.768  23.364   9.166
 3130POPC   C1A40683  30.581  23.678   8.803
 3130POPC   D2A40684  30.507  23.911   8.409
 3130POPC   C3A40685  30.701  23.779   8.095
 3130POPC   C4A40686  30.615  23.805   7.709
 3130POPC   C1B40687  30.970  23.345   8.781
 3130POPC   C2B40688  30.732  23.376   8.401
 3130POPC   C3B40689  30.947  23.330   8.022
 3130POPC   C4B40690  30.709  23.310   7.676
 3131POPC   NC340691   3.131  35.457   9.943
 3131POPC   PO440692   3.546  35.368   9.445
 3131POPC   GL140693   3.527  35.233   9.092
 3131POPC   GL240694   3.203  35.079   9.135
 3131POPC   C1A40695   3.658  35.153   8.673
 3131POPC   D2A40696   3.818  35.382   8.333
 3131POPC   C3A40697   3.738  35.172   7.986
 3131POPC   C4A40698   3.743  35.421   7.656
 3131POPC   C1B40699   3.152  35.236   8.747
 3131POPC   C2B40700   3.206  35.084   8.384
 3131POPC   C3B40701   3.234  35.271   8.012
 3131POPC   C4B40702   3.335  35.109   7.638
 3132POPC   NC340703  14.603  31.661   9.422
 3132POPC   PO440704  14.534  31.042   9.636
 3132POPC   GL140705  14.346  31.233   9.200
 3132POPC   GL240706  14.255  31.622   9.074
 3132POPC   C1A40707  14.457  31.286   8.731
 3132POPC   D2A40708  14.763  31.545   8.461
 3132POPC   C3A40709  14.722  31.442   7.983
 3132POPC   C4A40710  14.704  31.569   7.518
 3132POPC   C1B40711  14.347  31.776   8.654
 3132POPC   C2B40712  14.270  31.594   8.243
 3132POPC   C3B40713  14.280  31.675   7.802
 3132POPC   C4B40714  14.210  31.489   7.378
 3133POPC   NC340715  41.480  34.558   9.472
 3133POPC   PO440716  42.071  34.483   9.217
 3133POPC   GL140717  41.638  34.664   9.016
 3133POPC   GL240718  41.294  34.843   9.103
 3133POPC   C1A40719  41.411  34.537   8.650
 3133POPC   D2A40720  41.665  34.471   8.279
 3133POPC   C3A40721  41.525  34.246   7.914
 3133POPC   C4A40722  41.642  34.599   7.710
 3133POPC   C1B40723  41.374  35.045   8.724
 3133POPC   C2B40724  41.425  34.938   8.322
 3133POPC   C3B40725  41.257  34.680   8.028
 3133POPC   C4B40726  41.285  34.980   7.724
 3134POPC   NC340727  33.669  13.183   9.501
 3134POPC   PO440728  33.409  12.489   9.512
 3134POPC   GL140729  33.646  12.780   9.209
 3134POPC   GL240730  33.960  12.745   9.068
 3134POPC   C1A40731  33.677  13.067   8.816
 3134POPC   D2A40732  33.649  12.852   8.435
 3134POPC   C3A40733  33.589  13.076   8.043
 3134POPC   C4A40734  33.707  12.905   7.646
 3134POPC   C1B40735  34.177  13.069   8.810
 3134POPC   C2B40736  34.149  12.966   8.357
 3134POPC   C3B40737  34.074  13.143   7.935
 3134POPC   C4B40738  34.159  13.079   7.474
 3135POPC   NC340739  14.783  28.218   9.535
 3135POPC   PO440740  14.204  28.550   9.670
 3135POPC   GL140741  14.450  28.531   9.254
 3135POPC   GL240742  14.306  28.766   9.060
 3135POPC   C1A40743  14.559  28.457   8.762
 3135POPC   D2A40744  14.843  28.592   8.412
 3135POPC   C3A40745  14.665  28.486   7.994
 3135POPC   C4A40746  14.408  28.175   7.760
 3135POPC   C1B40747  14.037  28.619   8.723
 3135POPC   C2B40748  14.114  28.414   8.303
 3135POPC   C3B40749  14.127  28.583   7.873
 3135POPC   C4B40750  14.020  28.537   7.407
 3136POPC   NC340751  39.702  33.990   9.389
 3136POPC   PO440752  39.097  33.856   9.557
 3136POPC   GL140753  39.280  33.766   9.196
 3136POPC   GL240754  39.323  34.087   9.046
 3136POPC   C1A40755  39.405  33.635   8.799
 3136POPC   D2A40756  39.284  33.850   8.424
 3136POPC   C3A40757  39.434  33.669   8.025
 3136POPC   C4A40758  39.367  33.862   7.663
 3136POPC   C1B40759  39.023  34.212   8.735
 3136POPC   C2B40760  38.864  34.123   8.314
 3136POPC   C3B40761  38.917  34.077   7.876
 3136POPC   C4B40762  38.934  34.026   7.417
 3137POPC   NC340763  37.170  26.049   9.873
 3137POPC   PO440764  36.689  26.385   9.563
 3137POPC   GL140765  36.896  26.152   9.234
 3137POPC   GL240766  36.924  26.461   9.045
 3137POPC   C1A40767  36.941  25.846   8.888
 3137POPC   D2A40768  36.880  25.650   8.482
 3137POPC   C3A40769  36.904  25.804   8.049
 3137POPC   C4A40770  36.477  25.870   7.857
 3137POPC   C1B40771  36.699  26.272   8.755
 3137POPC   C2B40772  36.797  26.177   8.357
 3137POPC   C3B40773  36.896  26.350   7.953
 3137POPC   C4B40774  37.180  26.330   7.616
 3138POPC   NC340775  43.023   0.877   9.529
 3138POPC   PO440776  43.382   1.473   9.478
 3138POPC   GL140777  43.058   1.300   9.208
 3138POPC   GL240778  42.960   1.636   9.074
 3138POPC   C1A40779  42.998   0.999   8.831
 3138POPC   D2A40780  42.876   0.835   8.396
 3138POPC   C3A40781  43.129   0.971   8.061
 3138POPC   C4A40782  42.962   1.125   7.716
 3138POPC   C1B40783  43.261   1.433   8.771
 3138POPC   C2B40784  43.003   1.341   8.434
 3138POPC   C3B40785  43.000   1.498   8.057
 3138POPC   C4B40786  43.318   1.494   7.802
 3139POPC   NC340787  14.934   2.041   9.356
 3139POPC   PO440788  15.507   1.750   9.445
 3139POPC   GL140789  15.301   1.798   9.081
 3139POPC   GL240790  15.392   2.155   9.120
 3139POPC   C1A40791  14.987   1.665   8.755
 3139POPC   D2A40792  14.912   1.778   8.307
 3139POPC   C3A40793  15.102   1.647   7.917
 3139POPC   C4A40794  15.016   1.727   7.457
 3139POPC   C1B40795  15.206   2.125   8.711
 3139POPC   C2B40796  15.417   2.021   8.362
 3139POPC   C3B40797  15.197   2.153   8.071
 3139POPC   C4B40798  15.266   2.102   7.699
 3140POPC   NC340799   3.344  39.280   9.448
 3140POPC   PO440800   3.708  38.746   9.528
 3140POPC   GL140801   3.627  38.982   9.158
 3140POPC   GL240802   3.289  38.830   9.165
 3140POPC   C1A40803   3.586  39.318   8.777
 3140POPC   D2A40804   3.548  39.516   8.361
 3140POPC   C3A40805   3.713  39.393   7.976
 3140POPC   C4A40806   3.527  39.248   7.612
 3140POPC   C1B40807   3.153  39.041   8.829
 3140POPC   C2B40808   3.246  39.053   8.413
 3140POPC   C3B40809   3.211  39.252   8.033
 3140POPC   C4B40810   3.072  39.025   7.708
 3141POPC   NC340811  39.609  13.708   9.554
 3141POPC   PO440812  38.931  13.884   9.382
 3141POPC   GL140813  39.092  13.560   9.121
 3141POPC   GL240814  39.431  13.556   9.108
 3141POPC   C1A40815  39.041  13.632   8.710
 3141POPC   D2A40816  39.234  13.595   8.339
 3141POPC   C3A40817  39.041  13.662   7.985
 3141POPC   C4A40818  39.341  13.689   7.697
 3141POPC   C1B40819  39.549  13.704   8.736
 3141POPC   C2B40820  39.628  13.931   8.387
 3141POPC   C3B40821  39.741  13.867   7.987
 3141POPC   C4B40822  39.825  13.511   7.726
 3142POPC   NC340823  41.347  27.592   9.515
 3142POPC   PO440824  41.920  27.148   9.425
 3142POPC   GL140825  41.860  27.426   9.064
 3142POPC   GL240826  41.590  27.696   9.069
 3142POPC   C1A40827  41.676  27.428   8.648
 3142POPC   D2A40828  41.640  27.872   8.468
 3142POPC   C3A40829  41.681  27.887   8.003
 3142POPC   C4A40830  41.723  27.483   7.795
 3142POPC   C1B40831  41.220  27.621   8.773
 3142POPC   C2B40832  41.122  27.349   8.364
 3142POPC   C3B40833  41.264  27.265   7.915
 3142POPC   C4B40834  41.280  27.609   7.591
 3143POPC   NC340835  17.351  32.505   9.556
 3143POPC   PO440836  17.884  32.099   9.602
 3143POPC   GL140837  17.684  32.053   9.204
 3143POPC   GL240838  17.319  32.148   9.169
 3143POPC   C1A40839  17.749  32.263   8.830
 3143POPC   D2A40840  17.487  32.245   8.498
 3143POPC   C3A40841  17.650  32.275   8.118
 3143POPC   C4A40842  17.464  32.239   7.721
 3143POPC   C1B40843  17.008  31.919   8.923
 3143POPC   C2B40844  17.082  31.873   8.502
 3143POPC   C3B40845  17.141  32.106   8.143
 3143POPC   C4B40846  16.994  32.064   7.771
 3144POPC   NC340847   7.150  18.694   9.470
 3144POPC   PO440848   7.569  19.203   9.415
 3144POPC   GL140849   7.545  18.852   9.139
 3144POPC   GL240850   7.195  18.856   8.989
 3144POPC   C1A40851   7.671  18.799   8.726
 3144POPC   D2A40852   7.451  18.883   8.353
 3144POPC   C3A40853   7.687  18.862   7.985
 3144POPC   C4A40854   7.420  18.983   7.665
 3144POPC   C1B40855   7.099  19.296   8.896
 3144POPC   C2B40856   7.133  19.475   8.492
 3144POPC   C3B40857   7.123  19.276   8.071
 3144POPC   C4B40858   6.988  19.321   7.633
 3145POPC   NC340859  33.859   9.237   9.504
 3145POPC   PO440860  33.456   8.665   9.532
 3145POPC   GL140861  33.685   8.861   9.184
 3145POPC   GL240862  33.574   9.216   9.097
 3145POPC   C1A40863  33.924   8.903   8.808
 3145POPC   D2A40864  34.036   8.967   8.349
 3145POPC   C3A40865  33.869   8.750   7.978
 3145POPC   C4A40866  33.785   8.995   7.580
 3145POPC   C1B40867  33.710   9.349   8.701
 3145POPC   C2B40868  33.890   9.467   8.329
 3145POPC   C3B40869  33.879   9.356   7.939
 3145POPC   C4B40870  33.466   9.303   7.783
 3146POPC   NC340871  30.471  12.565   9.708
 3146POPC   PO440872  30.921  12.999   9.344
 3146POPC   GL140873  30.841  12.619   9.248
 3146POPC   GL240874  30.492  12.745   9.229
 3146POPC   C1A40875  30.915  12.548   8.809
 3146POPC   D2A40876  30.810  12.845   8.487
 3146POPC   C3A40877  30.939  12.718   8.111
 3146POPC   C4A40878  30.755  12.641   7.742
 3146POPC   C1B40879  30.414  12.951   8.855
 3146POPC   C2B40880  30.313  13.044   8.442
 3146POPC   C3B40881  30.408  12.789   8.104
 3146POPC   C4B40882  30.419  13.005   7.740
 3147POPC   NC340883  13.171   5.010   9.870
 3147POPC   PO440884  12.777   4.792   9.310
 3147POPC   GL140885  12.894   5.148   9.061
 3147POPC   GL240886  13.211   5.320   9.134
 3147POPC   C1A40887  12.761   5.190   8.636
 3147POPC   D2A40888  12.604   5.035   8.238
 3147POPC   C3A40889  12.836   4.890   7.897
 3147POPC   C4A40890  12.726   5.233   7.657
 3147POPC   C1B40891  13.217   5.456   8.716
 3147POPC   C2B40892  12.976   5.582   8.362
 3147POPC   C3B40893  13.078   5.415   7.968
 3147POPC   C4B40894  13.421   5.371   7.686
 3148POPC   NC340895  19.214  17.079   9.444
 3148POPC   PO440896  19.392  16.497   9.527
 3148POPC   GL140897  19.178  16.628   9.146
 3148POPC   GL240898  18.871  16.784   9.191
 3148POPC   C1A40899  19.117  16.624   8.706
 3148POPC   D2A40900  18.947  16.745   8.349
 3148POPC   C3A40901  19.250  16.583   8.096
 3148POPC   C4A40902  19.251  16.815   7.744
 3148POPC   C1B40903  18.890  17.047   8.816
 3148POPC   C2B40904  18.583  17.079   8.499
 3148POPC   C3B40905  18.579  17.117   8.066
 3148POPC   C4B40906  18.730  16.977   7.690
 3149POPC   NC340907   1.039  42.494   9.478
 3149POPC   PO440908   1.637  42.162   9.514
 3149POPC   GL140909   1.382  42.319   9.148
 3149POPC   GL240910   1.109  42.127   9.124
 3149POPC   C1A40911   1.142  42.511   8.775
 3149POPC   D2A40912   1.048  42.399   8.329
 3149POPC   C3A40913   1.138  42.727   8.002
 3149POPC   C4A40914   1.200  42.682   7.526
 3149POPC   C1B40915   0.856  42.054   8.786
 3149POPC   C2B40916   0.659  41.967   8.425
 3149POPC   C3B40917   0.837  41.994   8.049
 3149POPC   C4B40918   0.975  42.312   7.792
 3150POPC   NC340919  39.291  21.243   9.513
 3150POPC   PO440920  38.813  21.746   9.712
 3150POPC   GL140921  39.057  21.697   9.269
 3150POPC   GL240922  39.135  21.375   9.062
 3150POPC   C1A40923  39.188  21.762   8.776
 3150POPC   D2A40924  39.245  21.551   8.366
 3150POPC   C3A40925  39.473  21.587   7.998
 3150POPC   C4A40926  39.214  21.706   7.649
 3150POPC   C1B40927  39.405  21.267   8.744
 3150POPC   C2B40928  39.409  21.017   8.365
 3150POPC   C3B40929  39.311  21.095   7.931
 3150POPC   C4B40930  39.075  21.218   7.524
 3151POPC   NC340931  36.300   6.004   9.621
 3151POPC   PO440932  35.743   5.999   9.345
 3151POPC   GL140933  36.119   6.045   9.139
 3151POPC   GL240934  36.175   5.710   9.181
 3151POPC   C1A40935  36.131   5.977   8.714
 3151POPC   D2A40936  36.035   6.193   8.389
 3151POPC   C3A40937  36.099   5.971   8.079
 3151POPC   C4A40938  35.964   6.114   7.720
 3151POPC   C1B40939  35.933   5.537   8.845
 3151POPC   C2B40940  36.163   5.487   8.467
 3151POPC   C3B40941  36.029   5.439   8.072
 3151POPC   C4B40942  36.098   5.636   7.713
 3152POPC   NC340943  13.536  19.087   9.664
 3152POPC   PO440944  13.969  18.653   9.514
 3152POPC   GL140945  13.773  18.889   9.223
 3152POPC   GL240946  13.432  18.843   9.213
 3152POPC   C1A40947  13.711  19.241   8.918
 3152POPC   D2A40948  13.464  19.252   8.517
 3152POPC   C3A40949  13.682  19.130   8.139
 3152POPC   C4A40950  13.929  19.122   7.782
 3152POPC   C1B40951  13.565  18.790   8.763
 3152POPC   C2B40952  13.459  18.711   8.353
 3152POPC   C3B40953  13.344  18.789   7.910
 3152POPC   C4B40954  13.449  18.645   7.500
 3153POPC   NC340955  19.600  24.724   9.496
 3153POPC   PO440956  20.125  24.434   9.436
 3153POPC   GL140957  19.886  24.558   9.073
 3153POPC   GL240958  19.754  24.922   9.037
 3153POPC   C1A40959  19.715  24.350   8.714
 3153POPC   D2A40960  19.895  24.337   8.291
 3153POPC   C3A40961  19.632  24.482   8.009
 3153POPC   C4A40962  19.336  24.156   7.941
 3153POPC   C1B40963  19.776  24.835   8.584
 3153POPC   C2B40964  20.172  24.734   8.359
 3153POPC   C3B40965  20.263  24.723   7.939
 3153POPC   C4B40966  20.000  24.518   7.639
 3154POPC   NC340967  11.787  39.518   9.956
 3154POPC   PO440968  12.387  39.373   9.578
 3154POPC   GL140969  12.127  39.229   9.167
 3154POPC   GL240970  12.200  38.905   9.066
 3154POPC   C1A40971  11.995  39.281   8.746
 3154POPC   D2A40972  12.204  39.320   8.354
 3154POPC   C3A40973  12.046  39.121   7.988
 3154POPC   C4A40974  11.788  39.025   7.649
 3154POPC   C1B40975  12.460  38.991   8.698
 3154POPC   C2B40976  12.398  38.855   8.285
 3154POPC   C3B40977  12.518  38.983   7.857
 3154POPC   C4B40978  12.305  39.125   7.481
 3155POPC   NC340979  41.145  24.314   9.208
 3155POPC   PO440980  40.573  23.823   9.446
 3155POPC   GL140981  40.698  23.665   9.066
 3155POPC   GL240982  40.908  23.444   9.174
 3155POPC   C1A40983  40.564  23.665   8.643
 3155POPC   D2A40984  40.789  23.730   8.297
 3155POPC   C3A40985  40.587  23.623   7.956
 3155POPC   C4A40986  40.839  23.695   7.653
 3155POPC   C1B40987  41.043  23.483   8.709
 3155POPC   C2B40988  41.226  23.445   8.310
 3155POPC   C3B40989  41.070  23.338   7.941
 3155POPC   C4B40990  41.262  23.360   7.565
 3156POPC   NC340991   0.102  44.973   9.484
 3156POPC   PO440992   0.100   0.701   9.538
 3156POPC   GL140993  44.756   0.514   9.218
 3156POPC   GL240994  44.798   0.183   9.158
 3156POPC   C1A40995  44.505   0.357   8.807
 3156POPC   D2A40996  44.665   0.430   8.409
 3156POPC   C3A40997  44.498   0.270   8.059
 3156POPC   C4A40998  44.358   0.419   7.656
 3156POPC   C1B40999   0.018   0.287   8.790
 3156POPC   C2B41000   0.104   0.147   8.398
 3156POPC   C3B41001   0.021   0.327   8.030
 3156POPC   C4B41002  44.850   0.308   7.645
 3157POPC   NC341003  34.633   2.385   9.653
 3157POPC   PO441004  34.462   3.038   9.679
 3157POPC   GL141005  34.578   2.786   9.245
 3157POPC   GL241006  34.308   2.964   8.975
 3157POPC   C1A41007  34.716   2.739   8.784
 3157POPC   D2A41008  34.579   2.918   8.406
 3157POPC   C3A41009  34.790   2.784   8.042
 3157POPC   C4A41010  34.953   2.886   7.671
 3157POPC   C1B41011  34.140   2.642   8.689
 3157POPC   C2B41012  34.377   2.405   8.419
 3157POPC   C3B41013  34.315   2.591   8.063
 3157POPC   C4B41014  34.450   2.657   7.670
 3158POPC   NC341015  40.255  38.300   9.449
 3158POPC   PO441016  39.603  38.302   9.536
 3158POPC   GL141017  39.816  38.411   9.124
 3158POPC   GL241018  40.157  38.553   9.017
 3158POPC   C1A41019  39.776  38.612   8.694
 3158POPC   D2A41020  40.134  38.692   8.424
 3158POPC   C3A41021  40.002  38.711   8.032
 3158POPC   C4A41022  39.706  38.514   7.785
 3158POPC   C1B41023  40.122  38.226   8.653
 3158POPC   C2B41024  40.225  38.193   8.192
 3158POPC   C3B41025  40.212  38.365   7.722
 3158POPC   C4B41026  40.342  38.293   7.248
 3159POPC   NC341027   0.937  38.413   9.453
 3159POPC   PO441028   1.467  38.825   9.405
 3159POPC   GL141029   1.420  38.387   9.224
 3159POPC   GL241030   1.152  38.388   8.991
 3159POPC   C1A41031   1.563  38.114   8.894
 3159POPC   D2A41032   1.276  38.184   8.523
 3159POPC   C3A41033   1.415  38.164   8.097
 3159POPC   C4A41034   1.587  38.314   7.716
 3159POPC   C1B41035   1.004  38.637   8.639
 3159POPC   C2B41036   0.946  38.740   8.214
 3159POPC   C3B41037   1.168  38.608   7.843
 3159POPC   C4B41038   1.073  38.218   7.652
 3160POPC   NC341039  44.425   6.478   9.614
 3160POPC   PO441040   0.020   6.699   9.595
 3160POPC   GL141041  44.800   6.517   9.262
 3160POPC   GL241042  44.558   6.821   9.257
 3160POPC   C1A41043  44.719   6.266   8.876
 3160POPC   D2A41044  44.815   6.157   8.457
 3160POPC   C3A41045  44.565   6.276   8.114
 3160POPC   C4A41046  44.706   6.456   7.741
 3160POPC   C1B41047  44.708   6.783   8.848
 3160POPC   C2B41048  44.518   6.602   8.503
 3160POPC   C3B41049  44.383   6.771   8.135
 3160POPC   C4B41050  44.568   6.953   7.813
 3161POPC   NC341051  41.390   1.918   9.256
 3161POPC   PO441052  41.534   2.416   9.729
 3161POPC   GL141053  41.738   2.308   9.204
 3161POPC   GL241054  41.871   1.963   9.090
 3161POPC   C1A41055  41.818   2.220   8.688
 3161POPC   D2A41056  41.702   2.022   8.298
 3161POPC   C3A41057  41.504   2.225   7.958
 3161POPC   C4A41058  41.440   2.027   7.591
 3161POPC   C1B41059  41.708   1.712   8.708
 3161POPC   C2B41060  41.587   1.524   8.287
 3161POPC   C3B41061  41.665   1.618   7.829
 3161POPC   C4B41062  41.472   1.572   7.371
 3162POPC   NC341063  37.199  11.558   9.413
 3162POPC   PO441064  36.837  10.997   9.568
 3162POPC   GL141065  37.111  11.096   9.196
 3162POPC   GL241066  36.829  11.258   9.069
 3162POPC   C1A41067  37.241  11.355   8.817
 3162POPC   D2A41068  37.281  11.333   8.409
 3162POPC   C3A41069  36.975  11.424   8.100
 3162POPC   C4A41070  37.151  11.292   7.708
 3162POPC   C1B41071  36.782  11.481   8.667
 3162POPC   C2B41072  36.530  11.621   8.343
 3162POPC   C3B41073  36.350  11.449   8.003
 3162POPC   C4B41074  36.635  11.479   7.691
 3163POPC   NC341075  25.791  31.927   9.450
 3163POPC   PO441076  26.268  32.294   9.346
 3163POPC   GL141077  26.005  32.213   9.059
 3163POPC   GL241078  26.147  31.890   9.067
 3163POPC   C1A41079  26.041  32.243   8.638
 3163POPC   D2A41080  26.184  32.364   8.290
 3163POPC   C3A41081  25.964  32.229   8.002
 3163POPC   C4A41082  26.055  32.022   7.639
 3163POPC   C1B41083  25.868  31.789   8.774
 3163POPC   C2B41084  25.686  31.942   8.375
 3163POPC   C3B41085  25.724  31.764   7.947
 3163POPC   C4B41086  25.529  31.850   7.535
 3164POPC   NC341087  42.818  33.432   9.457
 3164POPC   PO441088  42.099  33.584   9.408
 3164POPC   GL141089  42.446  33.621   9.155
 3164POPC   GL241090  42.486  33.263   9.117
 3164POPC   C1A41091  42.452  33.841   8.779
 3164POPC   D2A41092  42.161  33.923   8.473
 3164POPC   C3A41093  42.437  33.897   8.146
 3164POPC   C4A41094  42.407  33.950   7.730
 3164POPC   C1B41095  42.239  33.358   8.751
 3164POPC   C2B41096  42.278  33.449   8.322
 3164POPC   C3B41097  42.184  33.489   7.868
 3164POPC   C4B41098  42.361  33.395   7.465
 3165POPC   NC341099  17.505  15.544   9.496
 3165POPC   PO441100  17.573  14.947   9.267
 3165POPC   GL141101  17.539  15.359   9.041
 3165POPC   GL241102  17.900  15.441   9.155
 3165POPC   C1A41103  17.393  15.364   8.625
 3165POPC   D2A41104  17.461  14.934   8.466
 3165POPC   C3A41105  17.567  14.863   8.064
 3165POPC   C4A41106  17.488  15.023   7.644
 3165POPC   C1B41107  17.917  15.228   8.757
 3165POPC   C2B41108  17.804  15.313   8.340
 3165POPC   C3B41109  17.712  15.355   7.954
 3165POPC   C4B41110  18.077  15.363   7.734
 3166POPC   NC341111  38.564  29.957   9.469
 3166POPC   PO441112  37.929  30.027   9.591
 3166POPC   GL141113  38.150  29.922   9.134
 3166POPC   GL241114  38.445  30.088   9.013
 3166POPC   C1A41115  38.323  29.709   8.718
 3166POPC   D2A41116  38.456  29.822   8.300
 3166POPC   C3A41117  38.190  29.892   7.972
 3166POPC   C4A41118  38.066  30.176   7.652
 3166POPC   C1B41119  38.724  30.058   8.673
 3166POPC   C2B41120  38.877  30.097   8.254
 3166POPC   C3B41121  38.790  29.823   7.893
 3166POPC   C4B41122  38.920  30.067   7.537
 3167POPC   NC341123  20.949  32.009   9.683
 3167POPC   PO441124  20.398  32.388   9.616
 3167POPC   GL141125  20.349  32.223   9.164
 3167POPC   GL241126  20.163  31.883   9.130
 3167POPC   C1A41127  20.538  32.206   8.729
 3167POPC   D2A41128  20.947  32.168   8.492
 3167POPC   C3A41129  20.998  32.529   8.243
 3167POPC   C4A41130  20.929  32.496   7.825
 3167POPC   C1B41131  20.212  31.810   8.696
 3167POPC   C2B41132  20.561  31.815   8.394
 3167POPC   C3B41133  20.645  32.089   8.023
 3167POPC   C4B41134  20.285  32.370   7.917
 3168POPC   NC341135  31.876   6.059   9.428
 3168POPC   PO441136  31.669   6.661   9.435
 3168POPC   GL141137  31.434   6.735   9.061
 3168POPC   GL241138  31.091   6.859   9.059
 3168POPC   C1A41139  31.429   6.702   8.635
 3168POPC   D2A41140  31.603   6.931   8.337
 3168POPC   C3A41141  31.613   6.685   7.978
 3168POPC   C4A41142  31.495   6.503   7.620
 3168POPC   C1B41143  30.900   7.042   8.700
 3168POPC   C2B41144  31.109   7.043   8.333
 3168POPC   C3B41145  31.105   6.787   8.002
 3168POPC   C4B41146  31.158   6.886   7.609
 3169POPC   NC341147  44.262   3.142   9.820
 3169POPC   PO441148  44.667   3.587   9.452
 3169POPC   GL141149  44.616   3.410   9.099
 3169POPC   GL241150  44.946   3.384   8.978
 3169POPC   C1A41151  44.346   3.395   8.763
 3169POPC   D2A41152  44.616   3.428   8.446
 3169POPC   C3A41153  44.480   3.442   8.034
 3169POPC   C4A41154  44.623   3.245   7.638
 3169POPC   C1B41155   0.065   3.629   8.612
 3169POPC   C2B41156  44.875   3.786   8.215
 3169POPC   C3B41157  44.806   3.718   7.749
 3169POPC   C4B41158  44.898   3.860   7.298
 3170POPC   NC341159   2.204  25.626   9.339
 3170POPC   PO441160   1.876  26.188   9.469
 3170POPC   GL141161   2.083  26.049   9.098
 3170POPC   GL241162   2.415  26.107   9.236
 3170POPC   C1A41163   2.031  25.887   8.670
 3170POPC   D2A41164   1.922  26.080   8.266
 3170POPC   C3A41165   1.932  25.981   7.812
 3170POPC   C4A41166   1.690  25.823   7.462
 3170POPC   C1B41167   2.428  26.318   8.830
 3170POPC   C2B41168   2.489  26.306   8.405
 3170POPC   C3B41169   2.331  26.266   8.004
 3170POPC   C4B41170   2.341  26.211   7.571
 3171POPC   NC341171  27.412  41.806   9.349
 3171POPC   PO441172  27.755  41.290   9.557
 3171POPC   GL141173  27.535  41.308   9.146
 3171POPC   GL241174  27.767  41.567   9.079
 3171POPC   C1A41175  27.534  41.325   8.671
 3171POPC   D2A41176  27.867  41.451   8.390
 3171POPC   C3A41177  27.785  41.474   7.974
 3171POPC   C4A41178  27.442  41.406   7.759
 3171POPC   C1B41179  27.753  41.806   8.721
 3171POPC   C2B41180  27.436  41.767   8.410
 3171POPC   C3B41181  27.345  41.850   8.006
 3171POPC   C4B41182  27.362  41.874   7.574
 3172POPC   NC341183  14.463  24.177   9.574
 3172POPC   PO441184  14.691  23.555   9.478
 3172POPC   GL141185  14.625  23.852   9.187
 3172POPC   GL241186  14.870  23.733   8.977
 3172POPC   C1A41187  14.333  23.804   8.853
 3172POPC   D2A41188  14.275  23.534   8.504
 3172POPC   C3A41189  14.096  23.788   8.157
 3172POPC   C4A41190  14.269  23.857   7.748
 3172POPC   C1B41191  14.786  24.059   8.727
 3172POPC   C2B41192  14.527  23.962   8.394
 3172POPC   C3B41193  14.573  23.633   8.097
 3172POPC   C4B41194  14.803  23.579   7.751
 3173POPC   NC341195   2.129   9.146   9.507
 3173POPC   PO441196   1.634   9.540   9.174
 3173POPC   GL141197   1.845   9.151   9.071
 3173POPC   GL241198   2.067   8.856   9.098
 3173POPC   C1A41199   1.749   8.930   8.713
 3173POPC   D2A41200   1.692   8.740   8.339
 3173POPC   C3A41201   1.792   8.930   7.955
 3173POPC   C4A41202   1.566   9.140   7.643
 3173POPC   C1B41203   2.266   9.007   8.735
 3173POPC   C2B41204   2.184   8.914   8.343
 3173POPC   C3B41205   2.403   8.960   8.004
 3173POPC   C4B41206   2.508   8.883   7.641
 3174POPC   NC341207   5.581  22.422   9.479
 3174POPC   PO441208   6.139  21.990   9.616
 3174POPC   GL141209   5.987  22.205   9.205
 3174POPC   GL241210   5.736  22.003   8.959
 3174POPC   C1A41211   5.965  22.382   8.769
 3174POPC   D2A41212   5.846  22.164   8.370
 3174POPC   C3A41213   5.823  22.377   7.941
 3174POPC   C4A41214   6.111  22.474   7.553
 3174POPC   C1B41215   6.166  21.903   8.761
 3174POPC   C2B41216   6.388  21.841   8.384
 3174POPC   C3B41217   6.191  21.986   8.017
 3174POPC   C4B41218   5.874  21.950   7.687
 3175POPC   NC341219  28.517  32.101   9.347
 3175POPC   PO441220  27.966  32.384   9.631
 3175POPC   GL141221  28.058  32.265   9.174
 3175POPC   GL241222  28.309  32.512   9.064
 3175POPC   C1A41223  28.159  32.203   8.711
 3175POPC   D2A41224  28.206  32.450   8.364
 3175POPC   C3A41225  28.236  32.326   7.946
 3175POPC   C4A41226  28.332  32.637   7.672
 3175POPC   C1B41227  28.668  32.387   8.740
 3175POPC   C2B41228  28.699  32.289   8.280
 3175POPC   C3B41229  28.757  32.356   7.838
 3175POPC   C4B41230  28.822  32.049   7.514
 3176POPC   NC341231  39.071   9.642   9.685
 3176POPC   PO441232  39.175  10.200   9.441
 3176POPC   GL141233  39.161   9.842   9.186
 3176POPC   GL241234  39.313   9.511   9.257
 3176POPC   C1A41235  38.905   9.672   8.855
 3176POPC   D2A41236  38.849   9.833   8.442
 3176POPC   C3A41237  39.134   9.679   8.128
 3176POPC   C4A41238  39.209   9.665   7.672
 3176POPC   C1B41239  39.475   9.588   8.835
 3176POPC   C2B41240  39.448   9.404   8.415
 3176POPC   C3B41241  39.577   9.470   7.973
 3176POPC   C4B41242  39.566   9.318   7.529
 3177POPC   NC341243   6.974  36.923   9.679
 3177POPC   PO441244   6.579  36.683   9.195
 3177POPC   GL141245   6.503  37.043   9.060
 3177POPC   GL241246   6.843  37.179   9.142
 3177POPC   C1A41247   6.398  36.966   8.610
 3177POPC   D2A41248   6.640  36.648   8.346
 3177POPC   C3A41249   6.625  36.658   7.901
 3177POPC   C4A41250   6.779  36.649   7.503
 3177POPC   C1B41251   6.944  36.987   8.728
 3177POPC   C2B41252   7.113  36.966   8.304
 3177POPC   C3B41253   6.877  37.100   7.942
 3177POPC   C4B41254   6.506  37.078   7.626
 3178POPC   NC341255  33.948  39.466   9.442
 3178POPC   PO441256  33.349  39.202   9.571
 3178POPC   GL141257  33.418  39.262   9.157
 3178POPC   GL241258  33.745  39.243   9.036
 3178POPC   C1A41259  33.388  39.401   8.740
 3178POPC   D2A41260  33.524  39.522   8.362
 3178POPC   C3A41261  33.588  39.225   8.056
 3178POPC   C4A41262  33.642  39.419   7.662
 3178POPC   C1B41263  33.936  39.130   8.659
 3178POPC   C2B41264  34.351  39.108   8.495
 3178POPC   C3B41265  34.398  39.194   8.066
 3178POPC   C4B41266  34.060  39.123   7.787
 3179POPC   NC341267  16.530  15.329   9.556
 3179POPC   PO441268  16.902  14.778   9.531
 3179POPC   GL141269  16.848  15.079   9.214
 3179POPC   GL241270  16.513  15.079   9.116
 3179POPC   C1A41271  16.929  15.190   8.797
 3179POPC   D2A41272  16.951  14.997   8.406
 3179POPC   C3A41273  17.170  15.226   8.089
 3179POPC   C4A41274  16.990  15.228   7.677
 3179POPC   C1B41275  16.357  14.942   8.759
 3179POPC   C2B41276  16.413  15.104   8.372
 3179POPC   C3B41277  16.618  15.007   8.016
 3179POPC   C4B41278  16.465  15.143   7.647
 3180POPC   NC341279   5.208  14.625   9.453
 3180POPC   PO441280   5.018  14.056   9.345
 3180POPC   GL141281   5.065  14.332   9.060
 3180POPC   GL241282   5.417  14.285   9.087
 3180POPC   C1A41283   5.068  14.265   8.655
 3180POPC   D2A41284   4.951  14.442   8.309
 3180POPC   C3A41285   5.144  14.216   8.017
 3180POPC   C4A41286   5.024  14.516   7.762
 3180POPC   C1B41287   5.431  14.599   8.771
 3180POPC   C2B41288   5.467  14.459   8.377
 3180POPC   C3B41289   5.471  14.612   8.007
 3180POPC   C4B41290   5.509  14.454   7.597
 3181POPC   NC341291   3.439   0.815   9.361
 3181POPC   PO441292   3.886   1.295   9.555
 3181POPC   GL141293   3.660   1.216   9.158
 3181POPC   GL241294   3.321   1.382   9.206
 3181POPC   C1A41295   3.590   1.039   8.727
 3181POPC   D2A41296   3.648   1.268   8.340
 3181POPC   C3A41297   3.632   1.029   7.945
 3181POPC   C4A41298   3.346   0.745   7.796
 3181POPC   C1B41299   3.468   1.547   8.811
 3181POPC   C2B41300   3.316   1.663   8.425
 3181POPC   C3B41301   3.425   1.587   8.019
 3181POPC   C4B41302   3.623   1.456   7.672
 3182POPC   NC341303  22.805   8.037   9.580
 3182POPC   PO441304  23.301   8.414   9.442
 3182POPC   GL141305  22.992   8.267   9.157
 3182POPC   GL241306  22.778   7.935   9.094
 3182POPC   C1A41307  23.000   8.447   8.776
 3182POPC   D2A41308  23.125   8.321   8.389
 3182POPC   C3A41309  22.785   8.276   8.096
 3182POPC   C4A41310  22.909   8.379   7.698
 3182POPC   C1B41311  23.120   7.911   8.801
 3182POPC   C2B41312  23.178   7.807   8.395
 3182POPC   C3B41313  23.158   7.931   7.983
 3182POPC   C4B41314  23.190   7.746   7.585
 3183POPC   NC341315  28.153  41.047   9.489
 3183POPC   PO441316  28.627  40.639   9.578
 3183POPC   GL141317  28.394  40.707   9.185
 3183POPC   GL241318  28.381  41.082   9.047
 3183POPC   C1A41319  28.201  40.682   8.779
 3183POPC   D2A41320  28.460  40.841   8.439
 3183POPC   C3A41321  28.337  40.654   8.073
 3183POPC   C4A41322  28.381  40.430   7.706
 3183POPC   C1B41323  27.986  41.130   8.802
 3183POPC   C2B41324  27.958  40.950   8.368
 3183POPC   C3B41325  28.174  41.139   8.025
 3183POPC   C4B41326  28.149  41.300   7.595
 3184POPC   NC341327  43.494  40.116   9.479
 3184POPC   PO441328  44.179  40.116   9.595
 3184POPC   GL141329  44.152  40.183   9.161
 3184POPC   GL241330  43.819  40.042   9.108
 3184POPC   C1A41331  44.145  39.949   8.755
 3184POPC   D2A41332  43.978  39.872   8.355
 3184POPC   C3A41333  44.143  40.105   8.019
 3184POPC   C4A41334  43.965  39.955   7.669
 3184POPC   C1B41335  43.617  39.850   8.764
 3184POPC   C2B41336  43.426  39.994   8.404
 3184POPC   C3B41337  43.598  40.051   8.025
 3184POPC   C4B41338  43.475  40.288   7.689
 3185POPC   NC341339  26.420   3.410   9.705
 3185POPC   PO441340  26.020   3.816   9.372
 3185POPC   GL141341  26.101   3.571   9.072
 3185POPC   GL241342  25.788   3.510   8.978
 3185POPC   C1A41343  26.061   3.750   8.629
 3185POPC   D2A41344  25.783   3.731   8.265
 3185POPC   C3A41345  25.988   3.597   7.888
 3185POPC   C4A41346  25.958   3.383   7.495
 3185POPC   C1B41347  25.960   3.243   8.653
 3185POPC   C2B41348  25.910   3.182   8.195
 3185POPC   C3B41349  26.212   3.119   7.880
 3185POPC   C4B41350  26.448   3.431   7.653
 3186POPC   NC341351   0.344   9.383   9.473
 3186POPC   PO441352   0.164   8.752   9.702
 3186POPC   GL141353   0.223   8.939   9.236
 3186POPC   GL241354   0.536   9.115   9.080
 3186POPC   C1A41355   0.217   8.904   8.771
 3186POPC   D2A41356   0.413   9.115   8.468
 3186POPC   C3A41357   0.215   9.053   8.115
 3186POPC   C4A41358   0.419   9.048   7.717
 3186POPC   C1B41359   0.714   8.814   8.773
 3186POPC   C2B41360   0.821   8.762   8.348
 3186POPC   C3B41361   0.737   8.658   7.917
 3186POPC   C4B41362   0.719   8.754   7.441
 3187POPC   NC341363  34.111  17.366   9.445
 3187POPC   PO441364  34.823  17.492   9.510
 3187POPC   GL141365  34.648  17.447   9.136
 3187POPC   GL241366  34.532  17.164   9.224
 3187POPC   C1A41367  34.768  17.390   8.710
 3187POPC   D2A41368  34.628  17.659   8.412
 3187POPC   C3A41369  34.834  17.736   8.027
 3187POPC   C4A41370  34.859  17.906   7.617
 3187POPC   C1B41371  34.316  17.140   8.843
 3187POPC   C2B41372  34.365  17.221   8.406
 3187POPC   C3B41373  34.469  17.373   7.998
 3187POPC   C4B41374  34.321  17.264   7.613
 3188POPC   NC341375  15.268  20.836   9.546
 3188POPC   PO441376  14.939  20.234   9.489
 3188POPC   GL141377  15.049  20.586   9.177
 3188POPC   GL241378  15.417  20.776   9.085
 3188POPC   C1A41379  15.086  20.543   8.774
 3188POPC   D2A41380  15.233  20.506   8.391
 3188POPC   C3A41381  14.990  20.533   8.053
 3188POPC   C4A41382  15.100  20.500   7.674
 3188POPC   C1B41383  15.313  20.979   8.700
 3188POPC   C2B41384  15.492  20.928   8.309
 3188POPC   C3B41385  15.292  20.972   7.920
 3188POPC   C4B41386  15.207  20.941   7.485
 3189POPC   NC341387  42.375  18.636   9.262
 3189POPC   PO441388  42.544  19.250   9.554
 3189POPC   GL141389  42.432  19.147   9.121
 3189POPC   GL241390  42.098  19.081   9.097
 3189POPC   C1A41391  42.389  18.931   8.691
 3189POPC   D2A41392  42.578  18.651   8.426
 3189POPC   C3A41393  42.539  18.815   8.034
 3189POPC   C4A41394  42.537  18.998   7.671
 3189POPC   C1B41395  41.900  18.809   8.751
 3189POPC   C2B41396  42.047  18.635   8.359
 3189POPC   C3B41397  42.063  18.573   7.918
 3189POPC   C4B41398  42.056  18.881   7.645
 3190POPC   NC341399   4.911   5.572   9.423
 3190POPC   PO441400   5.001   6.234   9.372
 3190POPC   GL141401   5.141   5.910   9.115
 3190POPC   GL241402   4.897   6.066   8.885
 3190POPC   C1A41403   5.078   5.611   8.763
 3190POPC   D2A41404   4.955   5.854   8.399
 3190POPC   C3A41405   5.132   5.750   8.016
 3190POPC   C4A41406   4.985   5.844   7.618
 3190POPC   C1B41407   5.330   6.085   8.680
 3190POPC   C2B41408   5.331   6.214   8.269
 3190POPC   C3B41409   5.041   6.247   7.937
 3190POPC   C4B41410   5.263   6.244   7.553
 3191POPC   NC341411  33.526  24.079   5.613
 3191POPC   PO441412  34.040  23.537   5.461
 3191POPC   GL141413  33.967  23.758   5.854
 3191POPC   GL241414  34.228  23.976   5.912
 3191POPC   C1A41415  33.712  23.705   6.240
 3191POPC   D2A41416  33.499  23.344   6.442
 3191POPC   C3A41417  33.678  23.288   6.816
 3191POPC   C4A41418  33.601  23.391   7.195
 3191POPC   C1B41419  34.163  24.149   6.303
 3191POPC   C2B41420  34.050  23.901   6.634
 3191POPC   C3B41421  33.884  23.756   6.996
 3191POPC   C4B41422  34.074  23.568   7.311
 3192POPC   NC341423   7.509  42.431   5.267
 3192POPC   PO441424   8.124  42.531   5.550
 3192POPC   GL141425   7.731  42.459   5.815
 3192POPC   GL241426   7.404  42.610   5.737
 3192POPC   C1A41427   7.534  42.238   6.214
 3192POPC   D2A41428   7.502  42.039   6.664
 3192POPC   C3A41429   7.385  42.164   7.110
 3192POPC   C4A41430   7.595  41.968   7.474
 3192POPC   C1B41431   7.295  42.694   6.152
 3192POPC   C2B41432   7.370  42.569   6.572
 3192POPC   C3B41433   7.244  42.660   6.976
 3192POPC   C4B41434   7.516  42.759   7.345
 3193POPC   NC341435  41.141  41.076   5.610
 3193POPC   PO441436  41.589  40.690   5.444
 3193POPC   GL141437  41.537  40.803   5.857
 3193POPC   GL241438  41.817  41.001   5.859
 3193POPC   C1A41439  41.450  41.102   6.218
 3193POPC   D2A41440  41.412  41.197   6.654
 3193POPC   C3A41441  41.368  40.819   6.931
 3193POPC   C4A41442  41.494  40.820   7.361
 3193POPC   C1B41443  41.917  40.848   6.230
 3193POPC   C2B41444  41.765  40.832   6.620
 3193POPC   C3B41445  41.830  40.999   7.027
 3193POPC   C4B41446  42.143  41.058   7.294
 3194POPC   NC341447  22.797  38.231   5.514
 3194POPC   PO441448  22.664  38.823   5.443
 3194POPC   GL141449  22.763  38.653   5.890
 3194POPC   GL241450  22.991  38.327   5.975
 3194POPC   C1A41451  22.694  38.490   6.338
 3194POPC   D2A41452  22.653  38.305   6.735
 3194POPC   C3A41453  22.704  38.590   7.071
 3194POPC   C4A41454  23.123  38.771   7.129
 3194POPC   C1B41455  22.980  38.047   6.386
 3194POPC   C2B41456  23.147  37.834   6.794
 3194POPC   C3B41457  23.432  37.914   7.177
 3194POPC   C4B41458  23.299  38.142   7.551
 3195POPC   NC341459  14.428  20.903   5.445
 3195POPC   PO441460  14.795  20.368   5.453
 3195POPC   GL141461  14.655  20.616   5.817
 3195POPC   GL241462  14.326  20.806   5.929
 3195POPC   C1A41463  14.613  20.479   6.224
 3195POPC   D2A41464  14.649  20.577   6.619
 3195POPC   C3A41465  14.332  20.475   6.897
 3195POPC   C4A41466  14.304  20.362   7.309
 3195POPC   C1B41467  14.663  21.021   6.156
 3195POPC   C2B41468  14.729  21.064   6.597
 3195POPC   C3B41469  14.583  20.939   7.012
 3195POPC   C4B41470  14.771  20.666   7.304
 3196POPC   NC341471   0.040  29.608   5.511
 3196POPC   PO441472  44.984  30.310   5.539
 3196POPC   GL141473  44.784  29.980   5.812
 3196POPC   GL241474  44.472  29.819   5.908
 3196POPC   C1A41475  44.903  29.986   6.246
 3196POPC   D2A41476  44.787  30.160   6.629
 3196POPC   C3A41477  44.827  29.987   7.051
 3196POPC   C4A41478  44.757  30.100   7.479
 3196POPC   C1B41479  44.549  29.637   6.292
 3196POPC   C2B41480  44.528  29.734   6.695
 3196POPC   C3B41481  44.559  29.547   7.080
 3196POPC   C4B41482  44.767  29.573   7.471
 3197POPC   NC341483  30.235  12.248   5.535
 3197POPC   PO441484  29.576  12.338   5.539
 3197POPC   GL141485  29.857  12.235   5.897
 3197POPC   GL241486  30.061  11.895   5.870
 3197POPC   C1A41487  29.797  12.206   6.349
 3197POPC   D2A41488  29.864  11.945   6.688
 3197POPC   C3A41489  29.882  12.055   7.115
 3197POPC   C4A41490  29.579  12.183   7.437
 3197POPC   C1B41491  30.293  12.150   6.196
 3197POPC   C2B41492  30.439  12.023   6.611
 3197POPC   C3B41493  30.281  11.775   6.934
 3197POPC   C4B41494  30.270  11.784   7.360
 3198POPC   NC341495  10.699  34.811   5.486
 3198POPC   PO441496  10.134  34.480   5.408
 3198POPC   GL141497  10.367  34.468   5.756
 3198POPC   GL241498  10.333  34.814   5.829
 3198POPC   C1A41499  10.243  34.455   6.186
 3198POPC   D2A41500  10.382  34.601   6.592
 3198POPC   C3A41501  10.474  34.420   6.985
 3198POPC   C4A41502  10.228  34.663   7.233
 3198POPC   C1B41503  10.639  34.781   6.163
 3198POPC   C2B41504  10.786  34.937   6.560
 3198POPC   C3B41505  10.846  34.823   6.986
 3198POPC   C4B41506  10.744  34.780   7.415
 3199POPC   NC341507  30.408  19.861   5.118
 3199POPC   PO441508  29.824  19.909   5.418
 3199POPC   GL141509  29.913  19.952   5.826
 3199POPC   GL241510  29.785  19.613   5.903
 3199POPC   C1A41511  29.781  20.083   6.229
 3199POPC   D2A41512  29.764  19.889   6.627
 3199POPC   C3A41513  29.695  20.116   7.007
 3199POPC   C4A41514  29.872  19.868   7.336
 3199POPC   C1B41515  30.010  19.517   6.288
 3199POPC   C2B41516  30.245  19.608   6.677
 3199POPC   C3B41517  30.249  19.531   7.154
 3199POPC   C4B41518  30.162  19.516   7.628
 3200POPC   NC341519  37.844  36.760   5.393
 3200POPC   PO441520  37.705  36.121   5.448
 3200POPC   GL141521  37.633  36.179   5.860
 3200POPC   GL241522  37.717  36.529   5.843
 3200POPC   C1A41523  37.715  35.997   6.274
 3200POPC   D2A41524  37.795  35.975   6.729
 3200POPC   C3A41525  37.690  36.251   7.035
 3200POPC   C4A41526  37.605  35.975   7.339
 3200POPC   C1B41527  38.005  36.428   6.224
 3200POPC   C2B41528  37.970  36.459   6.654
 3200POPC   C3B41529  38.074  36.574   7.084
 3200POPC   C4B41530  38.026  36.448   7.531
 3201POPC   NC341531   3.431  27.336   5.552
 3201POPC   PO441532   3.967  27.750   5.662
 3201POPC   GL141533   3.557  27.702   5.873
 3201POPC   GL241534   3.234  27.823   5.714
 3201POPC   C1A41535   3.467  27.466   6.247
 3201POPC   D2A41536   3.656  27.600   6.591
 3201POPC   C3A41537   3.629  27.388   6.924
 3201POPC   C4A41538   3.701  27.569   7.291
 3201POPC   C1B41539   3.218  27.946   6.158
 3201POPC   C2B41540   3.147  27.785   6.580
 3201POPC   C3B41541   3.320  27.780   6.993
 3201POPC   C4B41542   3.115  27.722   7.391
 3202POPC   NC341543  12.078  19.640   5.498
 3202POPC   PO441544  11.595  20.081   5.474
 3202POPC   GL141545  11.841  20.055   5.889
 3202POPC   GL241546  12.212  19.980   5.870
 3202POPC   C1A41547  11.850  19.846   6.327
 3202POPC   D2A41548  11.866  19.552   6.710
 3202POPC   C3A41549  12.014  19.734   7.068
 3202POPC   C4A41550  11.898  20.170   7.157
 3202POPC   C1B41551  12.235  20.170   6.281
 3202POPC   C2B41552  12.140  20.080   6.700
 3202POPC   C3B41553  12.409  20.073   7.043
 3202POPC   C4B41554  12.374  19.858   7.410
 3203POPC   NC341555  26.255  17.573   5.306
 3203POPC   PO441556  25.656  17.449   5.617
 3203POPC   GL141557  26.067  17.392   5.755
 3203POPC   GL241558  26.237  17.751   5.778
 3203POPC   C1A41559  26.238  17.169   6.112
 3203POPC   D2A41560  26.212  17.055   6.548
 3203POPC   C3A41561  25.933  17.330   6.804
 3203POPC   C4A41562  25.808  17.263   7.247
 3203POPC   C1B41563  26.006  17.653   6.187
 3203POPC   C2B41564  25.702  17.756   6.509
 3203POPC   C3B41565  25.782  17.950   6.869
 3203POPC   C4B41566  25.989  17.719   7.151
 3204POPC   NC341567   6.417   4.507   5.368
 3204POPC   PO441568   6.171   3.984   5.654
 3204POPC   GL141569   6.558   4.185   5.771
 3204POPC   GL241570   6.572   3.923   5.982
 3204POPC   C1A41571   6.891   4.295   6.095
 3204POPC   D2A41572   6.874   4.365   6.546
 3204POPC   C3A41573   6.859   4.107   6.922
 3204POPC   C4A41574   6.760   4.408   7.241
 3204POPC   C1B41575   6.344   4.229   6.250
 3204POPC   C2B41576   6.279   4.393   6.663
 3204POPC   C3B41577   6.343   4.225   7.043
 3204POPC   C4B41578   6.516   3.957   7.333
 3205POPC   NC341579  14.175  44.334   5.410
 3205POPC   PO441580  14.384   0.025   5.371
 3205POPC   GL141581  14.381  44.736   5.743
 3205POPC   GL241582  14.100  44.567   5.859
 3205POPC   C1A41583  14.420  44.846   6.202
 3205POPC   D2A41584  14.405  44.651   6.640
 3205POPC   C3A41585  14.268  44.884   7.002
 3205POPC   C4A41586  14.356   0.195   7.334
 3205POPC   C1B41587  14.117  44.440   6.288
 3205POPC   C2B41588  13.885  44.507   6.684
 3205POPC   C3B41589  13.972  44.471   7.145
 3205POPC   C4B41590  13.856  44.501   7.637
 3206POPC   NC341591  44.065  21.614   5.368
 3206POPC   PO441592  44.221  20.938   5.505
 3206POPC   GL141593  43.995  21.266   5.771
 3206POPC   GL241594  44.201  21.570   5.871
 3206POPC   C1A41595  43.778  21.495   6.139
 3206POPC   D2A41596  43.892  21.582   6.585
 3206POPC   C3A41597  43.720  21.314   6.890
 3206POPC   C4A41598  43.617  21.464   7.281
 3206POPC   C1B41599  44.240  21.341   6.290
 3206POPC   C2B41600  44.221  21.188   6.702
 3206POPC   C3B41601  44.176  21.355   7.099
 3206POPC   C4B41602  44.136  21.694   7.358
 3207POPC   NC341603  15.703   7.738   5.548
 3207POPC   PO441604  16.144   8.366   5.500
 3207POPC   GL141605  16.235   8.147   5.899
 3207POPC   GL241606  16.376   7.775   5.858
 3207POPC   C1A41607  15.967   8.227   6.273
 3207POPC   D2A41608  15.630   8.016   6.471
 3207POPC   C3A41609  15.649   8.012   6.927
 3207POPC   C4A41610  15.832   8.339   7.228
 3207POPC   C1B41611  16.331   7.857   6.311
 3207POPC   C2B41612  16.128   7.923   6.704
 3207POPC   C3B41613  16.134   7.938   7.157
 3207POPC   C4B41614  15.953   7.897   7.592
 3208POPC   NC341615   1.709  27.400   5.373
 3208POPC   PO441616   2.341  27.760   5.429
 3208POPC   GL141617   2.240  27.765   5.831
 3208POPC   GL241618   2.050  27.457   5.792
 3208POPC   C1A41619   2.296  27.579   6.227
 3208POPC   D2A41620   2.198  27.386   6.621
 3208POPC   C3A41621   1.961  27.632   6.892
 3208POPC   C4A41622   1.998  27.873   7.293
 3208POPC   C1B41623   1.886  27.284   6.170
 3208POPC   C2B41624   1.684  27.299   6.537
 3208POPC   C3B41625   1.665  27.213   6.921
 3208POPC   C4B41626   1.675  27.460   7.276
 3209POPC   NC341627  35.830  19.269   5.324
 3209POPC   PO441628  36.344  18.895   5.448
 3209POPC   GL141629  36.120  18.953   5.838
 3209POPC   GL241630  36.019  19.299   5.809
 3209POPC   C1A41631  36.192  18.776   6.264
 3209POPC   D2A41632  36.494  18.734   6.619
 3209POPC   C3A41633  36.351  18.997   6.943
 3209POPC   C4A41634  36.045  18.965   7.236
 3209POPC   C1B41635  35.859  19.224   6.220
 3209POPC   C2B41636  35.926  19.052   6.624
 3209POPC   C3B41637  35.882  19.327   6.935
 3209POPC   C4B41638  35.651  19.312   7.263
 3210POPC   NC341639   4.150  37.988   5.304
 3210POPC   PO441640   4.173  38.637   5.313
 3210POPC   GL141641   4.222  38.425   5.698
 3210POPC   GL241642   4.347  38.762   5.804
 3210POPC   C1A41643   4.285  38.205   6.121
 3210POPC   D2A41644   4.508  38.254   6.547
 3210POPC   C3A41645   4.369  38.151   6.993
 3210POPC   C4A41646   4.526  37.997   7.403
 3210POPC   C1B41647   4.053  38.657   6.115
 3210POPC   C2B41648   4.169  38.651   6.531
 3210POPC   C3B41649   4.311  38.670   6.925
 3210POPC   C4B41650   4.114  38.597   7.270
 3211POPC   NC341651  39.617  31.774   5.385
 3211POPC   PO441652  38.964  32.191   5.390
 3211POPC   GL141653  39.128  32.041   5.771
 3211POPC   GL241654  39.196  32.352   5.901
 3211POPC   C1A41655  39.294  31.881   6.170
 3211POPC   D2A41656  39.303  32.117   6.544
 3211POPC   C3A41657  39.229  31.860   6.872
 3211POPC   C4A41658  39.045  31.830   7.260
 3211POPC   C1B41659  39.290  32.603   6.245
 3211POPC   C2B41660  39.410  32.596   6.642
 3211POPC   C3B41661  39.236  32.454   7.013
 3211POPC   C4B41662  39.124  32.719   7.308
 3212POPC   NC341663   5.291  10.305   5.281
 3212POPC   PO441664   4.997  10.907   5.270
 3212POPC   GL141665   5.039  10.632   5.665
 3212POPC   GL241666   5.413  10.581   5.727
 3212POPC   C1A41667   4.780  10.546   6.077
 3212POPC   D2A41668   4.653  10.586   6.553
 3212POPC   C3A41669   4.894  10.823   6.881
 3212POPC   C4A41670   5.175  10.698   7.220
 3212POPC   C1B41671   5.279  10.418   6.134
 3212POPC   C2B41672   5.210  10.522   6.569
 3212POPC   C3B41673   5.140  10.292   6.926
 3212POPC   C4B41674   5.396  10.237   7.286
 3213POPC   NC341675   4.501  39.851   5.540
 3213POPC   PO441676   4.033  40.404   5.408
 3213POPC   GL141677   4.047  40.199   5.841
 3213POPC   GL241678   4.370  40.153   5.903
 3213POPC   C1A41679   4.050  40.091   6.297
 3213POPC   D2A41680   4.170  40.248   6.701
 3213POPC   C3A41681   4.027  39.995   7.071
 3213POPC   C4A41682   3.904  40.129   7.501
 3213POPC   C1B41683   4.667  40.036   6.217
 3213POPC   C2B41684   4.619  39.983   6.651
 3213POPC   C3B41685   4.515  40.118   7.062
 3213POPC   C4B41686   4.388  39.974   7.488
 3214POPC   NC341687  18.912   1.587   5.365
 3214POPC   PO441688  19.199   1.007   5.482
 3214POPC   GL141689  19.061   1.325   5.800
 3214POPC   GL241690  19.373   1.523   5.749
 3214POPC   C1A41691  18.985   1.273   6.270
 3214POPC   D2A41692  19.144   1.033   6.647
 3214POPC   C3A41693  18.931   1.099   7.018
 3214POPC   C4A41694  19.087   1.069   7.450
 3214POPC   C1B41695  19.303   1.670   6.192
 3214POPC   C2B41696  19.234   1.545   6.650
 3214POPC   C3B41697  19.312   1.421   7.087
 3214POPC   C4B41698  19.432   1.491   7.530
 3215POPC   NC341699   0.696  22.623   5.642
 3215POPC   PO441700   0.847  23.264   5.365
 3215POPC   GL141701   0.603  23.177   5.748
 3215POPC   GL241702   0.278  22.982   5.718
 3215POPC   C1A41703   0.639  23.000   6.176
 3215POPC   D2A41704   0.831  22.881   6.562
 3215POPC   C3A41705   0.598  22.853   6.949
 3215POPC   C4A41706   0.500  23.144   7.275
 3215POPC   C1B41707   0.184  22.756   6.115
 3215POPC   C2B41708   0.277  22.855   6.548
 3215POPC   C3B41709   0.102  22.987   6.986
 3215POPC   C4B41710   0.091  22.926   7.482
 3216POPC   NC341711   0.867  16.576   5.076
 3216POPC   PO441712   0.385  16.528   5.523
 3216POPC   GL141713   0.381  16.635   5.905
 3216POPC   GL241714   0.161  16.947   5.828
 3216POPC   C1A41715   0.660  16.573   6.234
 3216POPC   D2A41716   0.430  16.663   6.604
 3216POPC   C3A41717   0.651  16.814   6.939
 3216POPC   C4A41718   0.726  16.582   7.317
 3216POPC   C1B41719   0.459  17.046   6.191
 3216POPC   C2B41720   0.377  17.173   6.586
 3216POPC   C3B41721   0.189  17.022   6.947
 3216POPC   C4B41722   0.433  17.086   7.311
 3217POPC   NC341723  41.489   9.048   5.161
 3217POPC   PO441724  41.754   8.571   5.578
 3217POPC   GL141725  41.535   8.944   5.726
 3217POPC   GL241726  41.414   9.278   5.612
 3217POPC   C1A41727  41.497   9.057   6.138
 3217POPC   D2A41728  41.384   8.984   6.558
 3217POPC   C3A41729  41.609   9.003   6.913
 3217POPC   C4A41730  41.686   8.675   7.217
 3217POPC   C1B41731  41.216   9.452   5.977
 3217POPC   C2B41732  41.301   9.463   6.423
 3217POPC   C3B41733  41.187   9.352   6.868
 3217POPC   C4B41734  41.330   9.233   7.284
 3218POPC   NC341735  33.206  15.576   5.419
 3218POPC   PO441736  33.110  14.898   5.374
 3218POPC   GL141737  33.010  15.207   5.733
 3218POPC   GL241738  33.270  15.421   5.886
 3218POPC   C1A41739  32.857  15.212   6.160
 3218POPC   D2A41740  32.600  15.289   6.524
 3218POPC   C3A41741  32.761  15.341   6.926
 3218POPC   C4A41742  32.872  14.981   7.196
 3218POPC   C1B41743  33.252  15.538   6.315
 3218POPC   C2B41744  33.180  15.196   6.611
 3218POPC   C3B41745  33.351  15.060   6.991
 3218POPC   C4B41746  33.168  15.391   7.228
 3219POPC   NC341747  25.998   1.495   5.579
 3219POPC   PO441748  26.155   0.935   5.369
 3219POPC   GL141749  26.167   1.058   5.809
 3219POPC   GL241750  25.803   1.132   5.887
 3219POPC   C1A41751  26.153   1.185   6.252
 3219POPC   D2A41752  26.245   1.032   6.674
 3219POPC   C3A41753  26.230   1.232   7.072
 3219POPC   C4A41754  26.367   1.195   7.511
 3219POPC   C1B41755  25.743   1.496   6.198
 3219POPC   C2B41756  25.637   1.601   6.625
 3219POPC   C3B41757  25.777   1.487   7.017
 3219POPC   C4B41758  25.835   1.271   7.401
 3220POPC   NC341759  43.817   3.806   5.233
 3220POPC   PO441760  43.600   3.153   5.419
 3220POPC   GL141761  43.735   3.372   5.769
 3220POPC   GL241762  43.644   3.712   5.702
 3220POPC   C1A41763  43.746   3.327   6.220
 3220POPC   D2A41764  43.906   3.574   6.565
 3220POPC   C3A41765  43.790   3.410   6.944
 3220POPC   C4A41766  44.106   3.285   7.170
 3220POPC   C1B41767  43.774   3.839   6.107
 3220POPC   C2B41768  43.588   3.973   6.493
 3220POPC   C3B41769  43.734   3.957   6.920
 3220POPC   C4B41770  44.071   3.808   7.167
 3221POPC   NC341771  33.836  24.784   5.464
 3221POPC   PO441772  33.970  24.160   5.530
 3221POPC   GL141773  33.914  24.414   5.903
 3221POPC   GL241774  33.712  24.188   6.055
 3221POPC   C1A41775  33.709  24.675   6.254
 3221POPC   D2A41776  33.721  24.901   6.655
 3221POPC   C3A41777  33.629  24.664   7.018
 3221POPC   C4A41778  33.884  24.571   7.345
 3221POPC   C1B41779  33.620  24.194   6.452
 3221POPC   C2B41780  33.901  24.401   6.685
 3221POPC   C3B41781  34.057  24.229   7.039
 3221POPC   C4B41782  33.590  24.153   7.172
 3222POPC   NC341783  21.754  39.247   5.583
 3222POPC   PO441784  21.157  39.555   5.426
 3222POPC   GL141785  21.209  39.425   5.871
 3222POPC   GL241786  21.382  39.082   5.897
 3222POPC   C1A41787  21.103  39.234   6.293
 3222POPC   D2A41788  21.343  39.030   6.632
 3222POPC   C3A41789  21.332  39.248   7.046
 3222POPC   C4A41790  21.305  39.146   7.496
 3222POPC   C1B41791  21.601  39.357   6.220
 3222POPC   C2B41792  21.577  39.512   6.629
 3222POPC   C3B41793  21.748  39.571   7.031
 3222POPC   C4B41794  21.774  39.302   7.395
 3223POPC   NC341795  14.413   5.618   5.491
 3223POPC   PO441796  14.031   6.116   5.391
 3223POPC   GL141797  14.223   5.996   5.795
 3223POPC   GL241798  14.563   6.073   5.849
 3223POPC   C1A41799  14.345   5.706   6.159
 3223POPC   D2A41800  14.505   5.648   6.578
 3223POPC   C3A41801  14.263   5.606   6.933
 3223POPC   C4A41802  14.348   5.864   7.277
 3223POPC   C1B41803  14.439   6.200   6.288
 3223POPC   C2B41804  14.659   6.142   6.719
 3223POPC   C3B41805  14.629   6.294   7.177
 3223POPC   C4B41806  14.539   6.365   7.651
 3224POPC   NC341807  38.390  16.690   5.102
 3224POPC   PO441808  38.721  17.014   5.554
 3224POPC   GL141809  38.573  16.793   5.863
 3224POPC   GL241810  38.246  16.795   5.785
 3224POPC   C1A41811  38.611  16.888   6.271
 3224POPC   D2A41812  38.363  16.939   6.597
 3224POPC   C3A41813  38.575  16.707   6.885
 3224POPC   C4A41814  38.616  16.936   7.256
 3224POPC   C1B41815  38.205  16.564   6.198
 3224POPC   C2B41816  38.046  16.545   6.637
 3224POPC   C3B41817  38.088  16.721   7.032
 3224POPC   C4B41818  38.349  16.496   7.302
 3225POPC   NC341819  10.765  31.742   5.290
 3225POPC   PO441820  10.143  31.455   5.319
 3225POPC   GL141821  10.382  31.373   5.739
 3225POPC   GL241822  10.746  31.436   5.743
 3225POPC   C1A41823  10.478  31.288   6.195
 3225POPC   D2A41824  10.300  31.511   6.574
 3225POPC   C3A41825  10.370  31.356   7.000
 3225POPC   C4A41826  10.587  31.441   7.394
 3225POPC   C1B41827  10.899  31.560   6.174
 3225POPC   C2B41828  10.802  31.464   6.603
 3225POPC   C3B41829  10.975  31.471   7.005
 3225POPC   C4B41830  10.910  31.808   7.270
 3226POPC   NC341831  34.831   2.696   5.221
 3226POPC   PO441832  34.103   2.707   5.251
 3226POPC   GL141833  34.399   2.747   5.650
 3226POPC   GL241834  34.600   3.071   5.717
 3226POPC   C1A41835  34.553   2.712   6.113
 3226POPC   D2A41836  34.356   2.837   6.540
 3226POPC   C3A41837  34.487   2.585   6.920
 3226POPC   C4A41838  34.772   2.608   7.277
 3226POPC   C1B41839  34.922   3.081   6.090
 3226POPC   C2B41840  35.041   2.957   6.525
 3226POPC   C3B41841  34.839   2.983   6.917
 3226POPC   C4B41842  34.885   3.215   7.283
 3227POPC   NC341843   5.278  11.241   5.103
 3227POPC   PO441844   4.977  11.411   5.662
 3227POPC   GL141845   5.142  11.095   5.860
 3227POPC   GL241846   5.305  11.328   6.081
 3227POPC   C1A41847   4.921  11.011   6.232
 3227POPC   D2A41848   4.947  11.409   6.455
 3227POPC   C3A41849   4.941  11.386   6.885
 3227POPC   C4A41850   4.823  11.226   7.266
 3227POPC   C1B41851   5.595  11.402   6.413
 3227POPC   C2B41852   5.404  11.580   6.777
 3227POPC   C3B41853   5.316  11.472   7.243
 3227POPC   C4B41854   5.429  11.608   7.668
 3228POPC   NC341855  24.596  31.010   5.356
 3228POPC   PO441856  24.967  30.518   5.180
 3228POPC   GL141857  24.604  30.604   5.622
 3228POPC   GL241858  24.271  30.704   5.650
 3228POPC   C1A41859  24.645  30.691   6.113
 3228POPC   D2A41860  24.460  30.880   6.496
 3228POPC   C3A41861  24.545  30.695   6.912
 3228POPC   C4A41862  24.642  30.595   7.339
 3228POPC   C1B41863  24.136  30.732   6.098
 3228POPC   C2B41864  23.925  30.869   6.471
 3228POPC   C3B41865  24.056  30.871   6.891
 3228POPC   C4B41866  24.149  30.636   7.295
 3229POPC   NC341867  27.925   1.086   5.498
 3229POPC   PO441868  27.322   1.438   5.624
 3229POPC   GL141869  27.638   1.297   5.892
 3229POPC   GL241870  27.952   1.496   5.835
 3229POPC   C1A41871  27.585   0.990   6.232
 3229POPC   D2A41872  27.355   1.044   6.615
 3229POPC   C3A41873  27.488   0.854   6.971
 3229POPC   C4A41874  27.263   0.891   7.327
 3229POPC   C1B41875  28.011   1.266   6.241
 3229POPC   C2B41876  27.866   1.127   6.661
 3229POPC   C3B41877  27.770   1.287   7.088
 3229POPC   C4B41878  27.954   1.353   7.523
 3230POPC   NC341879  34.896   1.029   5.196
 3230POPC   PO441880  34.464   1.512   5.392
 3230POPC   GL141881  34.361   1.180   5.694
 3230POPC   GL241882  34.687   1.194   5.848
 3230POPC   C1A41883  34.250   1.149   6.169
 3230POPC   D2A41884  34.068   1.245   6.608
 3230POPC   C3A41885  34.243   1.003   6.968
 3230POPC   C4A41886  34.624   1.159   7.169
 3230POPC   C1B41887  34.736   1.374   6.268
 3230POPC   C2B41888  34.572   1.408   6.699
 3230POPC   C3B41889  34.752   1.637   7.065
 3230POPC   C4B41890  35.115   1.461   7.247
 3231POPC   NC341891   8.869   7.638   5.313
 3231POPC   PO441892   9.388   7.191   5.301
 3231POPC   GL141893   9.260   7.372   5.734
 3231POPC   GL241894   8.906   7.489   5.793
 3231POPC   C1A41895   9.214   7.478   6.213
 3231POPC   D2A41896   9.115   7.325   6.643
 3231POPC   C3A41897   9.222   7.570   7.075
 3231POPC   C4A41898   8.904   7.715   7.426
 3231POPC   C1B41899   8.692   7.482   6.181
 3231POPC   C2B41900   8.707   7.633   6.582
 3231POPC   C3B41901   8.721   7.433   6.982
 3231POPC   C4B41902   8.742   7.231   7.369
 3232POPC   NC341903  34.072   6.463   5.294
 3232POPC   PO441904  33.781   5.876   5.327
 3232POPC   GL141905  33.837   5.757   5.745
 3232POPC   GL241906  33.665   6.064   5.805
 3232POPC   C1A41907  33.736   5.702   6.179
 3232POPC   D2A41908  33.639   5.993   6.511
 3232POPC   C3A41909  33.586   5.835   6.925
 3232POPC   C4A41910  33.790   5.642   7.281
 3232POPC   C1B41911  33.908   6.212   6.121
 3232POPC   C2B41912  33.967   6.448   6.470
 3232POPC   C3B41913  33.915   6.262   6.850
 3232POPC   C4B41914  33.766   6.199   7.235
 3233POPC   NC341915  16.120   5.898   5.474
 3233POPC   PO441916  15.542   5.513   5.395
 3233POPC   GL141917  15.644   5.646   5.815
 3233POPC   GL241918  15.772   5.313   5.876
 3233POPC   C1A41919  15.780   5.907   6.207
 3233POPC   D2A41920  15.783   6.150   6.618
 3233POPC   C3A41921  15.973   5.998   7.012
 3233POPC   C4A41922  15.768   5.746   7.335
 3233POPC   C1B41923  15.807   5.403   6.299
 3233POPC   C2B41924  16.038   5.648   6.600
 3233POPC   C3B41925  16.099   5.510   7.002
 3233POPC   C4B41926  16.001   5.311   7.383
 3234POPC   NC341927   4.166  27.366   5.495
 3234POPC   PO441928   4.296  28.007   5.256
 3234POPC   GL141929   4.419  27.981   5.737
 3234POPC   GL241930   4.439  27.597   5.853
 3234POPC   C1A41931   4.531  27.968   6.189
 3234POPC   D2A41932   4.375  27.646   6.488
 3234POPC   C3A41933   4.383  27.718   6.925
 3234POPC   C4A41934   4.200  27.710   7.319
 3234POPC   C1B41935   4.147  27.320   6.152
 3234POPC   C2B41936   3.988  27.172   6.565
 3234POPC   C3B41937   4.100  27.254   7.006
 3234POPC   C4B41938   4.063  27.253   7.458
 3235POPC   NC341939  17.354  22.370   5.627
 3235POPC   PO441940  16.997  21.809   5.417
 3235POPC   GL141941  17.018  22.017   5.805
 3235POPC   GL241942  17.379  21.878   5.811
 3235POPC   C1A41943  16.818  22.230   6.219
 3235POPC   D2A41944  16.724  22.346   6.675
 3235POPC   C3A41945  16.585  22.033   6.977
 3235POPC   C4A41946  16.747  21.967   7.389
 3235POPC   C1B41947  17.226  21.921   6.239
 3235POPC   C2B41948  16.976  21.859   6.580
 3235POPC   C3B41949  17.090  21.971   6.970
 3235POPC   C4B41950  17.353  22.053   7.276
 3236POPC   NC341951   3.227   9.305   5.247
 3236POPC   PO441952   3.786   8.956   5.333
 3236POPC   GL141953   3.586   8.933   5.724
 3236POPC   GL241954   3.789   8.723   5.971
 3236POPC   C1A41955   3.506   9.167   6.095
 3236POPC   D2A41956   3.623   9.014   6.499
 3236POPC   C3A41957   3.563   9.230   6.891
 3236POPC   C4A41958   3.668   9.149   7.319
 3236POPC   C1B41959   3.358   8.669   6.157
 3236POPC   C2B41960   3.213   8.722   6.599
 3236POPC   C3B41961   3.531   8.722   6.958
 3236POPC   C4B41962   3.525   8.666   7.429
 3237POPC   NC341963  24.615  33.150   5.428
 3237POPC   PO441964  23.984  33.164   5.624
 3237POPC   GL141965  24.338  33.003   5.908
 3237POPC   GL241966  24.687  32.983   5.891
 3237POPC   C1A41967  24.488  32.893   6.348
 3237POPC   D2A41968  24.404  33.164   6.697
 3237POPC   C3A41969  24.217  32.998   7.053
 3237POPC   C4A41970  24.119  33.226   7.399
 3237POPC   C1B41971  24.839  33.280   6.189
 3237POPC   C2B41972  24.920  33.196   6.622
 3237POPC   C3B41973  24.760  32.846   6.892
 3237POPC   C4B41974  24.789  32.728   7.331
 3238POPC   NC341975  18.612  20.822   5.520
 3238POPC   PO441976  18.056  20.476   5.355
 3238POPC   GL141977  18.249  20.519   5.749
 3238POPC   GL241978  18.082  20.814   5.816
 3238POPC   C1A41979  18.505  20.454   6.118
 3238POPC   D2A41980  18.388  20.308   6.519
 3238POPC   C3A41981  18.414  20.569   6.912
 3238POPC   C4A41982  18.522  20.617   7.376
 3238POPC   C1B41983  17.990  20.571   6.232
 3238POPC   C2B41984  17.886  20.475   6.698
 3238POPC   C3B41985  17.862  20.676   7.112
 3238POPC   C4B41986  18.054  20.693   7.515
 3239POPC   NC341987   2.899  14.059   5.344
 3239POPC   PO441988   2.615  14.729   5.288
 3239POPC   GL141989   2.848  14.548   5.651
 3239POPC   GL241990   2.954  14.213   5.813
 3239POPC   C1A41991   2.787  14.600   6.095
 3239POPC   D2A41992   2.518  14.714   6.430
 3239POPC   C3A41993   2.781  14.738   6.766
 3239POPC   C4A41994   2.847  14.550   7.125
 3239POPC   C1B41995   2.744  14.108   6.212
 3239POPC   C2B41996   2.587  14.239   6.620
 3239POPC   C3B41997   2.687  14.073   7.031
 3239POPC   C4B41998   2.450  13.927   7.375
 3240POPC   NC341999  13.961  23.013   5.586
 3240POPC   PO442000  13.514  22.591   5.253
 3240POPC   GL142001  13.557  22.767   5.781
 3240POPC   GL242002  13.376  22.526   5.884
 3240POPC   C1A42003  13.715  23.035   6.193
 3240POPC   D2A42004  13.629  23.240   6.600
 3240POPC   C3A42005  13.746  23.121   7.003
 3240POPC   C4A42006  13.579  23.048   7.448
 3240POPC   C1B42007  13.701  22.537   6.238
 3240POPC   C2B42008  13.790  22.720   6.647
 3240POPC   C3B42009  13.595  22.661   7.068
 3240POPC   C4B42010  13.865  22.596   7.399
 3241POPC   NC342011  17.929  19.227   5.132
 3241POPC   PO442012  17.370  18.849   5.344
 3241POPC   GL142013  17.686  18.844   5.708
 3241POPC   GL242014  17.494  19.029   5.968
 3241POPC   C1A42015  17.770  18.663   6.142
 3241POPC   D2A42016  17.784  18.905   6.548
 3241POPC   C3A42017  17.632  18.809   6.961
 3241POPC   C4A42018  17.252  18.885   7.190
 3241POPC   C1B42019  17.465  19.286   6.343
 3241POPC   C2B42020  17.488  19.284   6.802
 3241POPC   C3B42021  17.644  19.278   7.198
 3241POPC   C4B42022  17.766  19.368   7.657
 3242POPC   NC342023  23.047  41.226   5.438
 3242POPC   PO442024  23.140  40.650   5.498
 3242POPC   GL142025  22.853  40.878   5.802
 3242POPC   GL242026  22.728  41.223   5.859
 3242POPC   C1A42027  23.000  40.863   6.209
 3242POPC   D2A42028  23.247  40.663   6.520
 3242POPC   C3A42029  23.071  40.645   6.902
 3242POPC   C4A42030  23.190  40.769   7.293
 3242POPC   C1B42031  22.644  41.210   6.303
 3242POPC   C2B42032  22.693  40.897   6.637
 3242POPC   C3B42033  22.791  41.046   7.052
 3242POPC   C4B42034  22.765  41.013   7.499
 3243POPC   NC342035  40.477  40.622   5.076
 3243POPC   PO442036  40.712  41.171   5.464
 3243POPC   GL142037  40.632  40.866   5.767
 3243POPC   GL242038  40.887  40.631   5.808
 3243POPC   C1A42039  40.838  40.973   6.173
 3243POPC   D2A42040  41.095  40.811   6.483
 3243POPC   C3A42041  40.904  40.982   6.842
 3243POPC   C4A42042  41.010  40.991   7.253
 3243POPC   C1B42043  40.603  40.535   6.198
 3243POPC   C2B42044  40.641  40.616   6.623
 3243POPC   C3B42045  40.665  40.563   7.074
 3243POPC   C4B42046  40.232  40.483   7.177
 3244POPC   NC342047  36.709  10.196   5.327
 3244POPC   PO442048  36.852  10.826   5.415
 3244POPC   GL142049  36.687  10.565   5.763
 3244POPC   GL242050  36.906  10.310   5.782
 3244POPC   C1A42051  36.596  10.276   6.171
 3244POPC   D2A42052  36.773  10.326   6.580
 3244POPC   C3A42053  36.569  10.350   6.967
 3244POPC   C4A42054  36.758  10.587   7.284
 3244POPC   C1B42055  37.110  10.273   6.189
 3244POPC   C2B42056  37.302  10.211   6.606
 3244POPC   C3B42057  37.112  10.330   6.996
 3244POPC   C4B42058  37.099  10.287   7.482
 3245POPC   NC342059  30.333  16.446   5.247
 3245POPC   PO442060  30.603  17.051   5.356
 3245POPC   GL142061  30.522  16.731   5.666
 3245POPC   GL242062  30.835  16.829   5.814
 3245POPC   C1A42063  30.444  16.720   6.137
 3245POPC   D2A42064  30.655  16.778   6.557
 3245POPC   C3A42065  30.436  16.643   6.923
 3245POPC   C4A42066  30.523  16.742   7.324
 3245POPC   C1B42067  31.031  16.683   6.210
 3245POPC   C2B42068  31.166  16.540   6.612
 3245POPC   C3B42069  30.979  16.695   6.987
 3245POPC   C4B42070  30.977  16.563   7.412
 3246POPC   NC342071  25.266  19.525   5.547
 3246POPC   PO442072  25.511  18.901   5.309
 3246POPC   GL142073  25.460  18.947   5.757
 3246POPC   GL242074  25.634  19.244   5.809
 3246POPC   C1A42075  25.213  18.959   6.178
 3246POPC   D2A42076  25.031  18.823   6.605
 3246POPC   C3A42077  25.012  19.158   6.922
 3246POPC   C4A42078  25.207  19.217   7.300
 3246POPC   C1B42079  25.573  19.319   6.222
 3246POPC   C2B42080  25.512  19.269   6.626
 3246POPC   C3B42081  25.337  19.563   6.853
 3246POPC   C4B42082  25.458  19.645   7.224
 3247POPC   NC342083  13.942  38.891   5.451
 3247POPC   PO442084  13.527  38.455   5.179
 3247POPC   GL142085  13.515  38.234   5.681
 3247POPC   GL242086  13.818  38.137   5.912
 3247POPC   C1A42087  13.401  38.142   6.174
 3247POPC   D2A42088  13.557  38.410   6.520
 3247POPC   C3A42089  13.493  38.387   6.957
 3247POPC   C4A42090  13.513  38.765   7.198
 3247POPC   C1B42091  13.742  38.559   6.069
 3247POPC   C2B42092  13.966  38.757   6.410
 3247POPC   C3B42093  14.001  38.632   6.860
 3247POPC   C4B42094  14.138  38.588   7.307
 3248POPC   NC342095  14.150  34.594   5.408
 3248POPC   PO442096  14.627  34.238   5.251
 3248POPC   GL142097  14.534  34.385   5.701
 3248POPC   GL242098  14.482  34.757   5.773
 3248POPC   C1A42099  14.325  34.392   6.134
 3248POPC   D2A42100  14.442  34.421   6.602
 3248POPC   C3A42101  14.161  34.476   6.991
 3248POPC   C4A42102  14.179  34.426   7.485
 3248POPC   C1B42103  14.433  34.896   6.204
 3248POPC   C2B42104  14.249  34.895   6.608
 3248POPC   C3B42105  14.488  34.895   6.965
 3248POPC   C4B42106  14.214  34.911   7.246
 3249POPC   NC342107  10.455  27.041   5.409
 3249POPC   PO442108  10.023  26.527   5.511
 3249POPC   GL142109  10.299  26.738   5.877
 3249POPC   GL242110  10.527  27.036   5.907
 3249POPC   C1A42111  10.474  26.757   6.325
 3249POPC   D2A42112  10.688  26.888   6.726
 3249POPC   C3A42113  10.497  26.706   7.073
 3249POPC   C4A42114  10.075  26.641   7.099
 3249POPC   C1B42115  10.325  27.262   6.210
 3249POPC   C2B42116  10.206  27.181   6.606
 3249POPC   C3B42117  10.367  27.231   7.001
 3249POPC   C4B42118  10.759  27.111   7.188
 3250POPC   NC342119  15.895  16.110   5.368
 3250POPC   PO442120  15.795  15.430   5.548
 3250POPC   GL142121  15.800  15.765   5.906
 3250POPC   GL242122  15.800  16.167   5.863
 3250POPC   C1A42123  15.918  15.752   6.381
 3250POPC   D2A42124  16.144  16.062   6.697
 3250POPC   C3A42125  16.126  15.963   7.128
 3250POPC   C4A42126  15.862  15.645   7.269
 3250POPC   C1B42127  15.856  16.257   6.290
 3250POPC   C2B42128  15.633  16.104   6.638
 3250POPC   C3B42129  15.657  16.186   7.036
 3250POPC   C4B42130  15.871  16.317   7.415
 3251POPC   NC342131  44.100  11.852   5.421
 3251POPC   PO442132  43.493  11.772   5.333
 3251POPC   GL142133  43.715  12.018   5.689
 3251POPC   GL242134  43.784  12.321   5.926
 3251POPC   C1A42135  43.875  11.844   6.102
 3251POPC   D2A42136  43.757  11.961   6.530
 3251POPC   C3A42137  43.931  11.866   6.950
 3251POPC   C4A42138  43.602  11.905   7.192
 3251POPC   C1B42139  44.086  12.292   6.276
 3251POPC   C2B42140  44.189  12.218   6.711
 3251POPC   C3B42141  44.081  12.349   7.146
 3251POPC   C4B42142  44.114  12.449   7.629
 3252POPC   NC342143  42.239  13.373   5.480
 3252POPC   PO442144  42.209  12.644   5.425
 3252POPC   GL142145  42.402  12.870   5.785
 3252POPC   GL242146  42.680  13.115   5.750
 3252POPC   C1A42147  42.274  13.094   6.177
 3252POPC   D2A42148  42.060  13.023   6.567
 3252POPC   C3A42149  42.193  13.042   6.989
 3252POPC   C4A42150  41.898  13.233   7.323
 3252POPC   C1B42151  42.751  12.916   6.172
 3252POPC   C2B42152  42.591  12.868   6.589
 3252POPC   C3B42153  42.690  13.088   6.967
 3252POPC   C4B42154  42.523  12.902   7.344
 3253POPC   NC342155  29.531  39.233   5.336
 3253POPC   PO442156  28.849  39.362   5.404
 3253POPC   GL142157  29.172  39.229   5.741
 3253POPC   GL242158  29.511  39.369   5.826
 3253POPC   C1A42159  29.170  39.120   6.191
 3253POPC   D2A42160  29.215  38.957   6.608
 3253POPC   C3A42161  28.942  38.997   6.949
 3253POPC   C4A42162  29.266  39.014   7.262
 3253POPC   C1B42163  29.402  39.593   6.183
 3253POPC   C2B42164  29.195  39.509   6.543
 3253POPC   C3B42165  29.361  39.440   6.920
 3253POPC   C4B42166  29.470  39.517   7.346
 3254POPC   NC342167  27.225  36.985   5.450
 3254POPC   PO442168  27.873  36.864   5.330
 3254POPC   GL142169  27.667  36.819   5.765
 3254POPC   GL242170  27.364  36.586   5.787
 3254POPC   C1A42171  27.696  37.034   6.208
 3254POPC   D2A42172  27.970  37.055   6.596
 3254POPC   C3A42173  27.789  36.963   7.006
 3254POPC   C4A42174  27.370  37.090   7.142
 3254POPC   C1B42175  27.536  36.551   6.210
 3254POPC   C2B42176  27.547  36.703   6.639
 3254POPC   C3B42177  27.553  36.507   7.053
 3254POPC   C4B42178  27.398  36.671   7.440
 3255POPC   NC342179  10.699  36.460   5.352
 3255POPC   PO442180  10.823  35.767   5.553
 3255POPC   GL142181  10.657  35.775   5.992
 3255POPC   GL242182  10.332  35.996   6.027
 3255POPC   C1A42183  10.670  35.975   6.398
 3255POPC   D2A42184  10.633  36.386   6.581
 3255POPC   C3A42185  10.552  36.261   6.974
 3255POPC   C4A42186  10.560  35.812   6.960
 3255POPC   C1B42187  10.197  36.358   6.270
 3255POPC   C2B42188   9.934  36.399   6.635
 3255POPC   C3B42189  10.036  36.376   7.091
 3255POPC   C4B42190  10.235  36.019   7.304
 3256POPC   NC342191   4.521   7.878   5.295
 3256POPC   PO442192   4.211   8.443   5.452
 3256POPC   GL142193   4.387   8.328   5.827
 3256POPC   GL242194   4.638   8.069   5.769
 3256POPC   C1A42195   4.200   8.279   6.242
 3256POPC   D2A42196   4.326   8.382   6.643
 3256POPC   C3A42197   4.333   8.210   7.059
 3256POPC   C4A42198   4.054   8.281   7.410
 3256POPC   C1B42199   4.488   7.864   6.146
 3256POPC   C2B42200   4.490   7.879   6.587
 3256POPC   C3B42201   4.721   7.882   6.967
 3256POPC   C4B42202   4.411   7.712   7.209
 3257POPC   NC342203  25.520   8.275   5.625
 3257POPC   PO442204  26.066   8.690   5.425
 3257POPC   GL142205  26.150   8.398   5.839
 3257POPC   GL242206  25.883   8.177   5.931
 3257POPC   C1A42207  26.228   8.148   6.272
 3257POPC   D2A42208  26.046   8.294   6.645
 3257POPC   C3A42209  26.115   8.143   7.048
 3257POPC   C4A42210  26.207   8.412   7.413
 3257POPC   C1B42211  25.649   8.119   6.329
 3257POPC   C2B42212  25.747   7.883   6.718
 3257POPC   C3B42213  25.695   7.863   7.168
 3257POPC   C4B42214  26.002   7.926   7.500
 3258POPC   NC342215  26.981  30.349   5.551
 3258POPC   PO442216  26.992  30.977   5.434
 3258POPC   GL142217  26.958  30.777   5.829
 3258POPC   GL242218  26.651  30.570   5.926
 3258POPC   C1A42219  27.050  30.648   6.237
 3258POPC   D2A42220  26.718  30.476   6.484
 3258POPC   C3A42221  26.732  30.598   6.906
 3258POPC   C4A42222  26.735  30.341   7.278
 3258POPC   C1B42223  26.611  30.923   6.210
 3258POPC   C2B42224  26.500  31.047   6.617
 3258POPC   C3B42225  26.348  30.904   7.027
 3258POPC   C4B42226  26.594  30.808   7.379
 3259POPC   NC342227  13.407  44.192   5.477
 3259POPC   PO442228  14.031  43.818   5.472
 3259POPC   GL142229  13.820  44.123   5.750
 3259POPC   GL242230  13.631  43.851   5.797
 3259POPC   C1A42231  13.693  44.198   6.187
 3259POPC   D2A42232  13.781  43.994   6.592
 3259POPC   C3A42233  13.625  44.134   6.983
 3259POPC   C4A42234  13.666  44.045   7.430
 3259POPC   C1B42235  13.802  43.677   6.169
 3259POPC   C2B42236  13.646  43.489   6.559
 3259POPC   C3B42237  13.714  43.630   6.979
 3259POPC   C4B42238  13.527  43.548   7.354
 3260POPC   NC342239   3.420  36.063   5.331
 3260POPC   PO442240   4.024  36.102   5.719
 3260POPC   GL142241   3.576  36.024   5.857
 3260POPC   GL242242   3.216  36.091   5.806
 3260POPC   C1A42243   3.351  35.860   6.231
 3260POPC   D2A42244   3.423  35.942   6.649
 3260POPC   C3A42245   3.301  35.741   7.014
 3260POPC   C4A42246   3.628  35.759   7.259
 3260POPC   C1B42247   3.343  36.372   6.205
 3260POPC   C2B42248   3.411  36.449   6.668
 3260POPC   C3B42249   3.472  36.245   7.067
 3260POPC   C4B42250   3.374  36.427   7.472
 3261POPC   NC342251  40.839  33.486   5.614
 3261POPC   PO442252  40.540  34.110   5.484
 3261POPC   GL142253  40.735  33.950   5.868
 3261POPC   GL242254  40.494  33.693   5.984
 3261POPC   C1A42255  41.045  33.746   6.171
 3261POPC   D2A42256  41.122  33.489   6.537
 3261POPC   C3A42257  41.110  33.649   6.951
 3261POPC   C4A42258  40.889  33.505   7.317
 3261POPC   C1B42259  40.585  33.661   6.434
 3261POPC   C2B42260  40.577  33.687   6.897
 3261POPC   C3B42261  40.737  33.976   7.167
 3261POPC   C4B42262  41.092  34.251   7.099
 3262POPC   NC342263  27.896  30.031   5.302
 3262POPC   PO442264  27.236  30.062   5.320
 3262POPC   GL142265  27.482  29.922   5.674
 3262POPC   GL242266  27.753  30.086   5.809
 3262POPC   C1A42267  27.458  29.837   6.148
 3262POPC   D2A42268  27.511  30.015   6.578
 3262POPC   C3A42269  27.391  29.829   6.954
 3262POPC   C4A42270  27.647  29.851   7.269
 3262POPC   C1B42271  27.914  30.094   6.233
 3262POPC   C2B42272  27.898  30.355   6.563
 3262POPC   C3B42273  27.975  30.036   6.864
 3262POPC   C4B42274  28.083  30.108   7.255
 3263POPC   NC342275  31.759  18.854   5.615
 3263POPC   PO442276  32.329  19.170   5.314
 3263POPC   GL142277  32.163  19.154   5.752
 3263POPC   GL242278  32.095  19.483   5.839
 3263POPC   C1A42279  32.313  18.963   6.178
 3263POPC   D2A42280  32.570  18.986   6.562
 3263POPC   C3A42281  32.425  18.840   6.958
 3263POPC   C4A42282  32.567  18.584   7.304
 3263POPC   C1B42283  32.118  19.451   6.274
 3263POPC   C2B42284  32.392  19.536   6.611
 3263POPC   C3B42285  32.446  19.384   7.030
 3263POPC   C4B42286  32.376  19.303   7.482
 3264POPC   NC342287  41.925  40.982   5.364
 3264POPC   PO442288  42.538  41.005   5.403
 3264POPC   GL142289  42.297  40.833   5.754
 3264POPC   GL242290  42.049  40.561   5.648
 3264POPC   C1A42291  42.422  40.875   6.189
 3264POPC   D2A42292  42.799  40.896   6.407
 3264POPC   C3A42293  42.752  40.866   6.827
 3264POPC   C4A42294  42.568  40.811   7.192
 3264POPC   C1B42295  42.173  40.415   6.058
 3264POPC   C2B42296  42.087  40.426   6.496
 3264POPC   C3B42297  42.213  40.715   6.827
 3264POPC   C4B42298  42.077  40.567   7.232
 3265POPC   NC342299  42.796  25.795   5.456
 3265POPC   PO442300  43.254  26.365   5.354
 3265POPC   GL142301  43.225  26.073   5.704
 3265POPC   GL242302  42.889  26.147   5.795
 3265POPC   C1A42303  43.252  26.042   6.168
 3265POPC   D2A42304  43.108  25.877   6.620
 3265POPC   C3A42305  43.270  26.060   7.057
 3265POPC   C4A42306  43.338  26.132   7.524
 3265POPC   C1B42307  42.762  25.924   6.184
 3265POPC   C2B42308  42.610  26.045   6.556
 3265POPC   C3B42309  42.738  26.000   6.985
 3265POPC   C4B42310  42.594  25.639   7.210
 3266POPC   NC342311   1.306  42.048   5.448
 3266POPC   PO442312   0.967  42.709   5.333
 3266POPC   GL142313   0.941  42.554   5.770
 3266POPC   GL242314   1.214  42.329   5.860
 3266POPC   C1A42315   1.027  42.639   6.227
 3266POPC   D2A42316   1.298  42.630   6.618
 3266POPC   C3A42317   1.151  42.484   7.026
 3266POPC   C4A42318   0.981  42.103   7.140
 3266POPC   C1B42319   1.363  42.221   6.271
 3266POPC   C2B42320   1.292  42.056   6.686
 3266POPC   C3B42321   1.523  42.100   7.056
 3266POPC   C4B42322   1.393  42.219   7.452
 3267POPC   NC342323  21.860  15.037   5.135
 3267POPC   PO442324  22.429  15.044   5.515
 3267POPC   GL142325  22.036  15.223   5.761
 3267POPC   GL242326  21.901  14.975   6.013
 3267POPC   C1A42327  21.808  15.463   6.122
 3267POPC   D2A42328  21.926  15.607   6.531
 3267POPC   C3A42329  21.777  15.572   6.950
 3267POPC   C4A42330  21.946  15.349   7.297
 3267POPC   C1B42331  22.208  15.155   6.262
 3267POPC   C2B42332  22.153  15.166   6.698
 3267POPC   C3B42333  22.140  14.931   7.070
 3267POPC   C4B42334  21.994  14.753   7.445
 3268POPC   NC342335  28.226  30.226   5.693
 3268POPC   PO442336  28.498  29.746   5.438
 3268POPC   GL142337  28.590  29.918   5.830
 3268POPC   GL242338  28.216  29.801   5.930
 3268POPC   C1A42339  28.672  30.179   6.208
 3268POPC   D2A42340  28.376  30.175   6.546
 3268POPC   C3A42341  28.513  30.204   6.972
 3268POPC   C4A42342  28.512  29.842   7.239
 3268POPC   C1B42343  28.424  29.703   6.300
 3268POPC   C2B42344  28.434  29.717   6.736
 3268POPC   C3B42345  28.175  29.548   6.979
 3268POPC   C4B42346  28.067  29.595   7.367
 3269POPC   NC342347  28.451  42.590   5.463
 3269POPC   PO442348  28.375  43.333   5.492
 3269POPC   GL142349  28.432  43.204   5.894
 3269POPC   GL242350  28.309  42.851   5.891
 3269POPC   C1A42351  28.268  43.284   6.304
 3269POPC   D2A42352  28.242  43.575   6.675
 3269POPC   C3A42353  28.517  43.433   7.001
 3269POPC   C4A42354  28.461  43.340   7.451
 3269POPC   C1B42355  28.541  42.845   6.288
 3269POPC   C2B42356  28.376  42.971   6.706
 3269POPC   C3B42357  28.404  42.937   7.128
 3269POPC   C4B42358  28.665  42.888   7.511
 3270POPC   NC342359  40.924  41.633   5.359
 3270POPC   PO442360  40.301  41.766   5.269
 3270POPC   GL142361  40.570  41.632   5.705
 3270POPC   GL242362  40.549  41.351   5.915
 3270POPC   C1A42363  40.981  41.605   6.022
 3270POPC   D2A42364  40.990  41.371   6.439
 3270POPC   C3A42365  41.011  41.466   6.902
 3270POPC   C4A42366  40.647  41.322   7.150
 3270POPC   C1B42367  40.544  41.639   6.267
 3270POPC   C2B42368  40.598  41.635   6.683
 3270POPC   C3B42369  40.554  41.808   7.099
 3270POPC   C4B42370  40.402  41.612   7.487
 3271POPC   NC342371  31.762   8.426   5.418
 3271POPC   PO442372  32.172   7.946   5.367
 3271POPC   GL142373  32.174   8.291   5.683
 3271POPC   GL242374  32.481   8.171   5.765
 3271POPC   C1A42375  32.115   8.487   6.102
 3271POPC   D2A42376  32.207   8.282   6.495
 3271POPC   C3A42377  32.067   8.392   6.916
 3271POPC   C4A42378  31.999   8.082   7.216
 3271POPC   C1B42379  32.619   8.302   6.169
 3271POPC   C2B42380  32.695   8.107   6.557
 3271POPC   C3B42381  32.475   8.078   6.915
 3271POPC   C4B42382  32.518   8.273   7.278
 3272POPC   NC342383  19.412  27.701   5.474
 3272POPC   PO442384  18.776  27.335   5.509
 3272POPC   GL142385  19.050  27.510   5.842
 3272POPC   GL242386  19.036  27.875   5.777
 3272POPC   C1A42387  19.135  27.436   6.295
 3272POPC   D2A42388  19.179  27.471   6.737
 3272POPC   C3A42389  18.843  27.484   6.990
 3272POPC   C4A42390  18.714  27.183   7.220
 3272POPC   C1B42391  19.202  27.927   6.177
 3272POPC   C2B42392  18.921  27.905   6.519
 3272POPC   C3B42393  18.928  27.976   6.930
 3272POPC   C4B42394  19.250  27.810   7.117
 3273POPC   NC342395   2.115  13.814   5.440
 3273POPC   PO442396   2.218  13.200   5.686
 3273POPC   GL142397   1.940  13.536   5.874
 3273POPC   GL242398   1.690  13.838   5.771
 3273POPC   C1A42399   1.876  13.443   6.311
 3273POPC   D2A42400   1.694  13.581   6.718
 3273POPC   C3A42401   1.962  13.538   7.100
 3273POPC   C4A42402   2.230  13.490   7.499
 3273POPC   C1B42403   1.792  13.979   6.202
 3273POPC   C2B42404   1.684  14.125   6.641
 3273POPC   C3B42405   1.729  14.037   7.079
 3273POPC   C4B42406   1.927  13.908   7.447
 3274POPC   NC342407  38.651  27.874   5.485
 3274POPC   PO442408  38.313  27.233   5.452
 3274POPC   GL142409  38.517  27.271   5.866
 3274POPC   GL242410  38.616  27.620   5.951
 3274POPC   C1A42411  38.359  27.367   6.299
 3274POPC   D2A42412  38.467  27.674   6.602
 3274POPC   C3A42413  38.490  27.492   7.013
 3274POPC   C4A42414  38.532  27.124   7.241
 3274POPC   C1B42415  38.692  28.031   6.199
 3274POPC   C2B42416  38.630  28.193   6.618
 3274POPC   C3B42417  38.791  27.897   6.928
 3274POPC   C4B42418  38.737  27.895   7.406
 3275POPC   NC342419  23.828  15.198   5.287
 3275POPC   PO442420  24.524  15.237   5.344
 3275POPC   GL142421  24.536  15.219   5.781
 3275POPC   GL242422  24.651  14.890   5.760
 3275POPC   C1A42423  24.383  15.333   6.221
 3275POPC   D2A42424  24.229  15.170   6.636
 3275POPC   C3A42425  24.403  15.361   7.041
 3275POPC   C4A42426  24.273  15.447   7.457
 3275POPC   C1B42427  24.504  14.829   6.154
 3275POPC   C2B42428  24.691  14.900   6.536
 3275POPC   C3B42429  24.521  14.878   6.936
 3275POPC   C4B42430  24.683  15.006   7.325
 3276POPC   NC342431  32.036  19.577   5.352
 3276POPC   PO442432  32.486  20.156   5.360
 3276POPC   GL142433  32.330  19.924   5.696
 3276POPC   GL242434  32.057  20.085   5.839
 3276POPC   C1A42435  32.405  19.879   6.174
 3276POPC   D2A42436  32.409  20.120   6.580
 3276POPC   C3A42437  32.344  19.904   6.966
 3276POPC   C4A42438  32.537  19.794   7.348
 3276POPC   C1B42439  31.978  20.169   6.268
 3276POPC   C2B42440  31.959  19.864   6.590
 3276POPC   C3B42441  31.958  19.553   6.901
 3276POPC   C4B42442  32.060  19.667   7.321
 3277POPC   NC342443   7.834  31.687   5.127
 3277POPC   PO442444   7.603  31.185   5.542
 3277POPC   GL142445   7.436  31.290   5.906
 3277POPC   GL242446   7.491  31.622   5.930
 3277POPC   C1A42447   7.594  31.339   6.324
 3277POPC   D2A42448   7.481  31.183   6.683
 3277POPC   C3A42449   7.641  31.457   6.971
 3277POPC   C4A42450   7.339  31.560   7.272
 3277POPC   C1B42451   7.719  31.836   6.264
 3277POPC   C2B42452   7.888  31.918   6.700
 3277POPC   C3B42453   7.620  31.965   7.071
 3277POPC   C4B42454   7.611  31.913   7.532
 3278POPC   NC342455   4.638  36.653   5.377
 3278POPC   PO442456   4.051  36.987   5.539
 3278POPC   GL142457   4.202  37.076   5.901
 3278POPC   GL242458   4.541  36.978   5.811
 3278POPC   C1A42459   4.132  36.878   6.289
 3278POPC   D2A42460   4.355  36.829   6.677
 3278POPC   C3A42461   4.124  36.902   7.072
 3278POPC   C4A42462   4.084  36.669   7.465
 3278POPC   C1B42463   4.612  37.067   6.252
 3278POPC   C2B42464   4.801  37.154   6.658
 3278POPC   C3B42465   4.598  37.151   7.047
 3278POPC   C4B42466   4.550  36.820   7.341
 3279POPC   NC342467  12.258  38.709   5.495
 3279POPC   PO442468  11.800  38.199   5.644
 3279POPC   GL142469  12.179  38.336   5.838
 3279POPC   GL242470  12.040  38.682   5.953
 3279POPC   C1A42471  12.269  38.325   6.256
 3279POPC   D2A42472  12.004  38.577   6.490
 3279POPC   C3A42473  12.068  38.479   6.879
 3279POPC   C4A42474  11.987  38.302   7.277
 3279POPC   C1B42475  12.432  38.802   6.191
 3279POPC   C2B42476  12.556  38.786   6.634
 3279POPC   C3B42477  12.297  38.959   6.959
 3279POPC   C4B42478  11.991  38.813   7.233
 3280POPC   NC342479  38.031  13.715   5.473
 3280POPC   PO442480  37.905  13.184   5.253
 3280POPC   GL142481  37.863  13.345   5.778
 3280POPC   GL242482  37.791  13.761   5.925
 3280POPC   C1A42483  37.638  13.376   6.201
 3280POPC   D2A42484  37.762  13.619   6.596
 3280POPC   C3A42485  37.718  13.447   7.020
 3280POPC   C4A42486  37.573  13.567   7.427
 3280POPC   C1B42487  37.494  13.931   6.267
 3280POPC   C2B42488  37.526  14.069   6.711
 3280POPC   C3B42489  37.748  13.987   7.103
 3280POPC   C4B42490  37.590  14.067   7.536
 3281POPC   NC342491  30.528  20.777   5.501
 3281POPC   PO442492  30.809  20.195   5.391
 3281POPC   GL142493  30.803  20.431   5.806
 3281POPC   GL242494  30.911  20.794   5.849
 3281POPC   C1A42495  30.671  20.297   6.230
 3281POPC   D2A42496  30.753  20.454   6.646
 3281POPC   C3A42497  30.500  20.416   6.957
 3281POPC   C4A42498  30.532  20.460   7.364
 3281POPC   C1B42499  30.912  20.748   6.279
 3281POPC   C2B42500  31.044  20.910   6.682
 3281POPC   C3B42501  30.892  20.892   7.114
 3281POPC   C4B42502  31.030  21.027   7.543
 3282POPC   NC342503   1.539  20.749   5.068
 3282POPC   PO442504   1.561  20.372   5.621
 3282POPC   GL142505   1.819  20.503   5.937
 3282POPC   GL242506   1.998  20.803   5.952
 3282POPC   C1A42507   1.853  20.546   6.360
 3282POPC   D2A42508   2.137  20.562   6.675
 3282POPC   C3A42509   1.882  20.521   6.979
 3282POPC   C4A42510   1.744  20.382   7.289
 3282POPC   C1B42511   2.354  20.686   6.233
 3282POPC   C2B42512   2.463  20.960   6.625
 3282POPC   C3B42513   2.167  20.944   7.022
 3282POPC   C4B42514   2.244  20.570   7.354
 3283POPC   NC342515  39.397  32.334   5.412
 3283POPC   PO442516  39.094  32.856   5.445
 3283POPC   GL142517  39.108  32.868   5.838
 3283POPC   GL242518  39.403  33.008   5.874
 3283POPC   C1A42519  39.070  33.066   6.236
 3283POPC   D2A42520  39.216  33.069   6.666
 3283POPC   C3A42521  38.969  33.157   7.026
 3283POPC   C4A42522  39.016  33.184   7.465
 3283POPC   C1B42523  39.557  33.239   6.266
 3283POPC   C2B42524  39.711  33.171   6.710
 3283POPC   C3B42525  39.469  33.171   7.135
 3283POPC   C4B42526  39.535  33.373   7.575
 3284POPC   NC342527  44.775  22.975   5.486
 3284POPC   PO442528  44.106  23.071   5.516
 3284POPC   GL142529  44.413  22.878   5.828
 3284POPC   GL242530  44.590  23.174   5.923
 3284POPC   C1A42531  44.666  22.694   6.152
 3284POPC   D2A42532  44.787  22.785   6.567
 3284POPC   C3A42533  44.724  22.640   6.981
 3284POPC   C4A42534  44.636  22.982   7.251
 3284POPC   C1B42535  44.934  23.195   6.208
 3284POPC   C2B42536  44.946  23.333   6.608
 3284POPC   C3B42537  44.714  23.403   6.961
 3284POPC   C4B42538  44.974  23.401   7.292
 3285POPC   NC342539   8.571  32.532   5.433
 3285POPC   PO442540   8.147  31.933   5.399
 3285POPC   GL142541   7.942  32.124   5.793
 3285POPC   GL242542   8.059  32.488   5.814
 3285POPC   C1A42543   8.035  32.223   6.258
 3285POPC   D2A42544   8.295  32.344   6.597
 3285POPC   C3A42545   8.337  32.106   6.981
 3285POPC   C4A42546   8.459  32.326   7.341
 3285POPC   C1B42547   7.902  32.704   6.197
 3285POPC   C2B42548   7.769  32.586   6.615
 3285POPC   C3B42549   7.914  32.389   6.994
 3285POPC   C4B42550   7.994  32.572   7.415
 3286POPC   NC342551  17.630  40.258   5.363
 3286POPC   PO442552  17.101  39.917   5.364
 3286POPC   GL142553  17.354  40.047   5.762
 3286POPC   GL242554  17.702  39.900   5.788
 3286POPC   C1A42555  17.529  40.092   6.219
 3286POPC   D2A42556  17.632  40.106   6.656
 3286POPC   C3A42557  17.297  40.065   6.936
 3286POPC   C4A42558  17.306  40.058   7.348
 3286POPC   C1B42559  17.835  39.665   6.208
 3286POPC   C2B42560  17.764  39.625   6.673
 3286POPC   C3B42561  17.709  39.838   7.097
 3286POPC   C4B42562  17.669  39.780   7.596
 3287POPC   NC342563  14.092   6.504   5.154
 3287POPC   PO442564  14.529   7.024   5.352
 3287POPC   GL142565  14.364   6.872   5.763
 3287POPC   GL242566  14.287   6.515   5.764
 3287POPC   C1A42567  14.498   6.750   6.200
 3287POPC   D2A42568  14.544   6.640   6.626
 3287POPC   C3A42569  14.288   6.754   6.958
 3287POPC   C4A42570  14.390   6.732   7.361
 3287POPC   C1B42571  14.043   6.540   6.166
 3287POPC   C2B42572  14.055   6.455   6.609
 3287POPC   C3B42573  13.773   6.530   6.973
 3287POPC   C4B42574  13.890   6.781   7.310
 3288POPC   NC342575  38.838  34.619   5.375
 3288POPC   PO442576  39.593  34.430   5.463
 3288POPC   GL142577  39.241  34.607   5.717
 3288POPC   GL242578  38.991  34.325   5.760
 3288POPC   C1A42579  39.013  34.747   6.111
 3288POPC   D2A42580  39.028  34.602   6.561
 3288POPC   C3A42581  39.053  34.888   6.926
 3288POPC   C4A42582  39.217  34.884   7.365
 3288POPC   C1B42583  38.765  34.192   6.148
 3288POPC   C2B42584  38.630  34.270   6.603
 3288POPC   C3B42585  38.926  34.182   6.917
 3288POPC   C4B42586  38.972  34.477   7.218
 3289POPC   NC342587  13.475   8.704   5.152
 3289POPC   PO442588  13.879   9.005   5.646
 3289POPC   GL142589  13.778   8.828   6.029
 3289POPC   GL242590  13.853   8.489   5.946
 3289POPC   C1A42591  13.470   8.969   6.300
 3289POPC   D2A42592  13.473   9.151   6.674
 3289POPC   C3A42593  13.223   8.951   6.967
 3289POPC   C4A42594  13.503   9.048   7.263
 3289POPC   C1B42595  13.520   8.423   6.267
 3289POPC   C2B42596  13.366   8.571   6.645
 3289POPC   C3B42597  13.663   8.697   6.946
 3289POPC   C4B42598  14.010   8.530   7.163
 3290POPC   NC342599  34.648  30.928   5.423
 3290POPC   PO442600  34.565  30.296   5.354
 3290POPC   GL142601  34.578  30.494   5.806
 3290POPC   GL242602  34.728  30.819   5.927
 3290POPC   C1A42603  34.421  30.564   6.244
 3290POPC   D2A42604  34.134  30.576   6.616
 3290POPC   C3A42605  34.276  30.613   7.019
 3290POPC   C4A42606  34.613  30.464   7.242
 3290POPC   C1B42607  34.720  30.963   6.351
 3290POPC   C2B42608  34.661  30.782   6.739
 3290POPC   C3B42609  34.607  30.989   7.145
 3290POPC   C4B42610  34.554  31.204   7.551
 3291POPC   NC342611   4.228  25.155   5.268
 3291POPC   PO442612   3.910  25.672   5.520
 3291POPC   GL142613   4.128  25.452   5.809
 3291POPC   GL242614   4.187  25.086   5.774
 3291POPC   C1A42615   4.293  25.587   6.194
 3291POPC   D2A42616   4.499  25.485   6.584
 3291POPC   C3A42617   4.246  25.458   6.965
 3291POPC   C4A42618   4.226  25.221   7.362
 3291POPC   C1B42619   4.387  25.083   6.174
 3291POPC   C2B42620   4.210  25.057   6.587
 3291POPC   C3B42621   4.432  24.995   6.969
 3291POPC   C4B42622   4.727  25.191   7.275
 3292POPC   NC342623  39.092   3.689   5.439
 3292POPC   PO442624  39.427   3.063   5.438
 3292POPC   GL142625  39.358   3.380   5.766
 3292POPC   GL242626  39.573   3.662   5.860
 3292POPC   C1A42627  39.202   3.456   6.185
 3292POPC   D2A42628  39.264   3.373   6.613
 3292POPC   C3A42629  39.162   3.575   6.997
 3292POPC   C4A42630  39.407   3.557   7.384
 3292POPC   C1B42631  39.675   3.643   6.327
 3292POPC   C2B42632  39.625   3.707   6.829
 3292POPC   C3B42633  39.547   4.007   7.184
 3292POPC   C4B42634  39.573   3.940   7.687
 3293POPC   NC342635   9.639  10.758   5.628
 3293POPC   PO442636   9.767  10.030   5.525
 3293POPC   GL142637   9.793  10.306   5.799
 3293POPC   GL242638   9.435  10.345   5.834
 3293POPC   C1A42639   9.872  10.497   6.181
 3293POPC   D2A42640   9.662  10.590   6.542
 3293POPC   C3A42641   9.855  10.388   6.904
 3293POPC   C4A42642   9.845  10.685   7.207
 3293POPC   C1B42643   9.547  10.061   6.182
 3293POPC   C2B42644   9.544  10.091   6.622
 3293POPC   C3B42645   9.336  10.423   6.909
 3293POPC   C4B42646   9.379  10.459   7.360
 3294POPC   NC342647  27.226  13.512   5.403
 3294POPC   PO442648  27.821  13.744   5.209
 3294POPC   GL142649  27.715  13.696   5.723
 3294POPC   GL242650  27.520  13.424   5.815
 3294POPC   C1A42651  27.457  13.744   6.201
 3294POPC   D2A42652  27.232  13.618   6.583
 3294POPC   C3A42653  27.414  13.781   6.940
 3294POPC   C4A42654  27.780  13.978   7.116
 3294POPC   C1B42655  27.759  13.336   6.212
 3294POPC   C2B42656  27.686  13.342   6.661
 3294POPC   C3B42657  27.927  13.451   7.022
 3294POPC   C4B42658  28.090  13.265   7.412
 3295POPC   NC342659  36.749  16.485   5.457
 3295POPC   PO442660  37.262  16.927   5.490
 3295POPC   GL142661  37.149  16.628   5.785
 3295POPC   GL242662  36.842  16.764   5.889
 3295POPC   C1A42663  37.284  16.665   6.192
 3295POPC   D2A42664  37.159  16.531   6.604
 3295POPC   C3A42665  36.905  16.798   6.842
 3295POPC   C4A42666  37.159  16.842   7.194
 3295POPC   C1B42667  36.816  16.450   6.187
 3295POPC   C2B42668  36.630  16.391   6.565
 3295POPC   C3B42669  36.538  16.420   6.966
 3295POPC   C4B42670  36.838  16.457   7.225
 3296POPC   NC342671  17.001  42.223   5.496
 3296POPC   PO442672  17.558  42.587   5.561
 3296POPC   GL142673  17.485  42.342   5.898
 3296POPC   GL242674  17.264  42.050   5.906
 3296POPC   C1A42675  17.488  42.561   6.264
 3296POPC   D2A42676  17.347  42.547   6.671
 3296POPC   C3A42677  17.683  42.366   6.886
 3296POPC   C4A42678  17.624  42.552   7.272
 3296POPC   C1B42679  17.489  42.039   6.323
 3296POPC   C2B42680  17.264  42.042   6.720
 3296POPC   C3B42681  17.233  42.244   7.123
 3296POPC   C4B42682  17.336  42.094   7.547
 3297POPC   NC342683  44.829  31.771   5.580
 3297POPC   PO442684  44.347  31.352   5.561
 3297POPC   GL142685  44.591  31.430   5.890
 3297POPC   GL242686  44.880  31.221   5.806
 3297POPC   C1A42687  44.577  31.360   6.302
 3297POPC   D2A42688  44.805  31.228   6.636
 3297POPC   C3A42689  44.589  31.306   7.017
 3297POPC   C4A42690  44.297  31.612   7.152
 3297POPC   C1B42691   0.090  31.281   6.198
 3297POPC   C2B42692   0.330  31.282   6.582
 3297POPC   C3B42693   0.169  31.320   7.009
 3297POPC   C4B42694  44.953  31.384   7.391
 3298POPC   NC342695   7.458  14.766   5.451
 3298POPC   PO442696   7.442  14.067   5.474
 3298POPC   GL142697   7.252  14.146   5.858
 3298POPC   GL242698   7.233  14.464   5.785
 3298POPC   C1A42699   7.463  14.108   6.263
 3298POPC   D2A42700   7.667  14.354   6.566
 3298POPC   C3A42701   7.517  14.388   6.992
 3298POPC   C4A42702   7.643  14.617   7.356
 3298POPC   C1B42703   7.295  14.618   6.210
 3298POPC   C2B42704   7.149  14.374   6.564
 3298POPC   C3B42705   7.016  14.208   6.937
 3298POPC   C4B42706   7.116  14.443   7.311
 3299POPC   NC342707  28.263   1.983   5.359
 3299POPC   PO442708  28.978   1.857   5.348
 3299POPC   GL142709  28.629   1.896   5.701
 3299POPC   GL242710  28.651   2.256   5.789
 3299POPC   C1A42711  28.351   1.926   6.106
 3299POPC   D2A42712  28.211   2.172   6.505
 3299POPC   C3A42713  28.007   2.077   6.924
 3299POPC   C4A42714  28.118   1.681   7.147
 3299POPC   C1B42715  28.748   2.250   6.252
 3299POPC   C2B42716  28.686   2.257   6.703
 3299POPC   C3B42717  28.536   2.060   7.090
 3299POPC   C4B42718  28.632   2.211   7.512
 3300POPC   NC342719   4.011  43.120   5.539
 3300POPC   PO442720   3.360  43.328   5.406
 3300POPC   GL142721   3.348  43.124   5.835
 3300POPC   GL242722   3.344  42.746   5.822
 3300POPC   C1A42723   3.204  42.962   6.261
 3300POPC   D2A42724   3.216  42.994   6.707
 3300POPC   C3A42725   3.596  43.159   6.875
 3300POPC   C4A42726   3.430  43.237   7.238
 3300POPC   C1B42727   3.704  42.898   6.110
 3300POPC   C2B42728   3.974  42.925   6.464
 3300POPC   C3B42729   3.913  42.757   6.870
 3300POPC   C4B42730   3.673  42.797   7.225
 3301POPC   NC342731  18.725  12.512   5.506
 3301POPC   PO442732  18.221  12.063   5.356
 3301POPC   GL142733  18.201  12.076   5.802
 3301POPC   GL242734  18.540  12.001   5.851
 3301POPC   C1A42735  18.161  12.194   6.253
 3301POPC   D2A42736  18.437  12.098   6.603
 3301POPC   C3A42737  18.243  12.069   6.993
 3301POPC   C4A42738  17.938  12.336   7.118
 3301POPC   C1B42739  18.701  12.274   6.177
 3301POPC   C2B42740  18.788  12.466   6.582
 3301POPC   C3B42741  18.700  12.312   7.028
 3301POPC   C4B42742  18.392  12.438   7.331
 3302POPC   NC342743  28.249  21.008   5.574
 3302POPC   PO442744  27.985  21.507   5.217
 3302POPC   GL142745  28.025  21.514   5.710
 3302POPC   GL242746  27.933  21.236   5.908
 3302POPC   C1A42747  28.312  21.464   6.125
 3302POPC   D2A42748  28.263  21.295   6.563
 3302POPC   C3A42749  28.019  21.425   6.919
 3302POPC   C4A42750  28.188  21.492   7.333
 3302POPC   C1B42751  28.093  20.955   6.191
 3302POPC   C2B42752  28.085  20.817   6.571
 3302POPC   C3B42753  27.908  20.871   6.945
 3302POPC   C4B42754  28.086  20.983   7.311
 3303POPC   NC342755   5.854   9.040   5.360
 3303POPC   PO442756   5.983   8.375   5.272
 3303POPC   GL142757   5.827   8.655   5.698
 3303POPC   GL242758   5.981   9.007   5.853
 3303POPC   C1A42759   5.851   8.628   6.193
 3303POPC   D2A42760   5.759   8.727   6.659
 3303POPC   C3A42761   6.031   8.779   7.065
 3303POPC   C4A42762   5.906   8.899   7.519
 3303POPC   C1B42763   5.793   9.146   6.262
 3303POPC   C2B42764   5.732   9.299   6.692
 3303POPC   C3B42765   5.809   9.253   7.146
 3303POPC   C4B42766   5.839   9.463   7.529
 3304POPC   NC342767  38.048  39.851   5.481
 3304POPC   PO442768  38.459  40.420   5.432
 3304POPC   GL142769  38.516  40.156   5.810
 3304POPC   GL242770  38.372  39.796   5.891
 3304POPC   C1A42771  38.430  40.239   6.238
 3304POPC   D2A42772  38.618  40.367   6.602
 3304POPC   C3A42773  38.375  40.422   6.940
 3304POPC   C4A42774  38.553  40.326   7.313
 3304POPC   C1B42775  38.199  39.791   6.328
 3304POPC   C2B42776  38.334  39.953   6.730
 3304POPC   C3B42777  38.236  39.954   7.166
 3304POPC   C4B42778  38.032  39.590   7.280
 3305POPC   NC342779  11.734  29.188   5.428
 3305POPC   PO442780  11.149  28.980   5.287
 3305POPC   GL142781  11.289  29.073   5.740
 3305POPC   GL242782  10.972  28.978   5.902
 3305POPC   C1A42783  11.506  29.317   6.110
 3305POPC   D2A42784  11.424  29.490   6.548
 3305POPC   C3A42785  11.624  29.345   6.926
 3305POPC   C4A42786  11.455  29.347   7.298
 3305POPC   C1B42787  11.121  29.052   6.338
 3305POPC   C2B42788  11.307  28.988   6.755
 3305POPC   C3B42789  11.164  28.939   7.187
 3305POPC   C4B42790  10.858  28.829   7.488
 3306POPC   NC342791  40.145  36.809   5.476
 3306POPC   PO442792  39.964  37.465   5.285
 3306POPC   GL142793  40.126  37.260   5.720
 3306POPC   GL242794  39.893  36.983   5.886
 3306POPC   C1A42795  40.103  37.281   6.211
 3306POPC   D2A42796  39.820  37.095   6.528
 3306POPC   C3A42797  40.028  37.031   6.925
 3306POPC   C4A42798  39.928  37.305   7.260
 3306POPC   C1B42799  39.715  36.684   6.206
 3306POPC   C2B42800  39.882  36.586   6.618
 3306POPC   C3B42801  39.774  36.467   7.005
 3306POPC   C4B42802  39.982  36.672   7.309
 3307POPC   NC342803   7.407  27.426   5.461
 3307POPC   PO442804   7.470  28.105   5.499
 3307POPC   GL142805   7.496  27.778   5.829
 3307POPC   GL242806   7.145  27.741   5.784
 3307POPC   C1A42807   7.359  27.413   6.126
 3307POPC   D2A42808   7.163  27.178   6.457
 3307POPC   C3A42809   7.228  27.337   6.875
 3307POPC   C4A42810   7.572  27.319   7.160
 3307POPC   C1B42811   7.183  27.888   6.221
 3307POPC   C2B42812   7.291  28.042   6.614
 3307POPC   C3B42813   7.394  28.172   7.013
 3307POPC   C4B42814   7.345  27.770   7.146
 3308POPC   NC342815   1.144  20.188   5.471
 3308POPC   PO442816   1.377  19.533   5.353
 3308POPC   GL142817   1.247  19.741   5.717
 3308POPC   GL242818   1.557  19.890   5.795
 3308POPC   C1A42819   1.148  19.963   6.122
 3308POPC   D2A42820   1.308  19.858   6.532
 3308POPC   C3A42821   1.154  19.874   6.951
 3308POPC   C4A42822   1.036  19.583   7.250
 3308POPC   C1B42823   1.641  20.105   6.206
 3308POPC   C2B42824   1.672  20.176   6.662
 3308POPC   C3B42825   1.645  19.952   7.056
 3308POPC   C4B42826   1.335  20.099   7.380
 3309POPC   NC342827  43.613  11.185   5.386
 3309POPC   PO442828  44.240  11.422   5.543
 3309POPC   GL142829  44.035  11.200   5.859
 3309POPC   GL242830  43.687  11.328   5.923
 3309POPC   C1A42831  44.026  11.369   6.293
 3309POPC   D2A42832  43.769  11.458   6.644
 3309POPC   C3A42833  43.978  11.365   7.003
 3309POPC   C4A42834  43.906  11.512   7.400
 3309POPC   C1B42835  43.603  11.069   6.349
 3309POPC   C2B42836  43.674  10.981   6.829
 3309POPC   C3B42837  43.654  11.107   7.286
 3309POPC   C4B42838  43.626  11.258   7.753
 3310POPC   NC342839  29.631  30.500   5.559
 3310POPC   PO442840  30.185  30.901   5.423
 3310POPC   GL142841  30.112  31.072   5.843
 3310POPC   GL242842  29.855  30.826   5.908
 3310POPC   C1A42843  30.004  31.046   6.320
 3310POPC   D2A42844  30.016  30.661   6.558
 3310POPC   C3A42845  30.237  30.708   6.928
 3310POPC   C4A42846  29.952  30.894   7.215
 3310POPC   C1B42847  29.640  30.546   6.214
 3310POPC   C2B42848  29.562  30.351   6.612
 3310POPC   C3B42849  29.785  30.452   6.982
 3310POPC   C4B42850  30.106  30.397   7.307
 3311POPC   NC342851  22.604  36.664   5.517
 3311POPC   PO442852  23.059  37.147   5.448
 3311POPC   GL142853  23.026  36.846   5.786
 3311POPC   GL242854  23.111  36.478   5.697
 3311POPC   C1A42855  22.865  36.764   6.203
 3311POPC   D2A42856  22.662  36.794   6.619
 3311POPC   C3A42857  22.790  36.780   7.055
 3311POPC   C4A42858  22.751  37.151   7.298
 3311POPC   C1B42859  23.306  36.512   6.121
 3311POPC   C2B42860  23.314  36.849   6.430
 3311POPC   C3B42861  23.242  36.841   6.848
 3311POPC   C4B42862  23.216  36.479   7.155
 3312POPC   NC342863   2.121  21.566   5.436
 3312POPC   PO442864   1.898  20.943   5.286
 3312POPC   GL142865   1.870  21.236   5.722
 3312POPC   GL242866   1.722  21.604   5.758
 3312POPC   C1A42867   1.871  21.318   6.194
 3312POPC   D2A42868   2.084  21.309   6.616
 3312POPC   C3A42869   1.812  21.351   6.955
 3312POPC   C4A42870   1.961  21.301   7.343
 3312POPC   C1B42871   1.766  21.817   6.170
 3312POPC   C2B42872   1.790  21.734   6.593
 3312POPC   C3B42873   1.716  21.854   7.015
 3312POPC   C4B42874   1.585  21.625   7.343
 3313POPC   NC342875  12.770  26.161   5.482
 3313POPC   PO442876  13.367  26.485   5.458
 3313POPC   GL142877  13.158  26.134   5.798
 3313POPC   GL242878  12.810  26.225   5.986
 3313POPC   C1A42879  13.122  25.876   6.187
 3313POPC   D2A42880  12.900  26.030   6.571
 3313POPC   C3A42881  12.983  25.904   7.007
 3313POPC   C4A42882  12.962  26.037   7.437
 3313POPC   C1B42883  12.613  25.850   6.191
 3313POPC   C2B42884  12.625  25.588   6.632
 3313POPC   C3B42885  12.526  25.565   7.083
 3313POPC   C4B42886  12.525  25.724   7.490
 3314POPC   NC342887  21.585   9.624   5.427
 3314POPC   PO442888  20.992   9.733   5.503
 3314POPC   GL142889  21.288   9.802   5.804
 3314POPC   GL242890  21.275   9.416   5.793
 3314POPC   C1A42891  21.627   9.939   6.119
 3314POPC   D2A42892  21.534   9.968   6.581
 3314POPC   C3A42893  21.693  10.057   7.015
 3314POPC   C4A42894  21.504   9.941   7.420
 3314POPC   C1B42895  21.384   9.509   6.205
 3314POPC   C2B42896  21.529   9.426   6.595
 3314POPC   C3B42897  21.492   9.581   6.998
 3314POPC   C4B42898  21.415   9.387   7.364
 3315POPC   NC342899  16.185  18.520   5.237
 3315POPC   PO442900  15.663  18.183   5.427
 3315POPC   GL142901  16.037  18.113   5.719
 3315POPC   GL242902  16.117  18.471   5.765
 3315POPC   C1A42903  16.042  18.056   6.189
 3315POPC   D2A42904  15.729  17.892   6.534
 3315POPC   C3A42905  15.780  18.078   6.966
 3315POPC   C4A42906  16.077  17.979   7.274
 3315POPC   C1B42907  16.011  18.589   6.210
 3315POPC   C2B42908  16.127  18.891   6.539
 3315POPC   C3B42909  16.273  18.793   6.931
 3315POPC   C4B42910  16.037  18.531   7.184
 3316POPC   NC342911  11.674  37.768   5.516
 3316POPC   PO442912  12.335  37.617   5.511
 3316POPC   GL142913  12.054  37.700   5.868
 3316POPC   GL242914  11.758  37.421   5.868
 3316POPC   C1A42915  12.207  37.798   6.296
 3316POPC   D2A42916  12.172  38.024   6.682
 3316POPC   C3A42917  12.356  37.956   7.094
 3316POPC   C4A42918  12.062  37.827   7.448
 3316POPC   C1B42919  11.895  37.393   6.269
 3316POPC   C2B42920  11.874  37.565   6.675
 3316POPC   C3B42921  12.080  37.517   7.049
 3316POPC   C4B42922  12.111  37.326   7.456
 3317POPC   NC342923  25.882  13.974   5.319
 3317POPC   PO442924  25.869  13.303   5.433
 3317POPC   GL142925  25.975  13.479   5.822
 3317POPC   GL242926  26.125  13.803   5.773
 3317POPC   C1A42927  26.061  13.414   6.237
 3317POPC   D2A42928  26.167  13.676   6.567
 3317POPC   C3A42929  25.989  13.622   6.927
 3317POPC   C4A42930  26.147  13.465   7.334
 3317POPC   C1B42931  26.340  13.893   6.146
 3317POPC   C2B42932  26.518  14.067   6.516
 3317POPC   C3B42933  26.361  14.012   6.932
 3317POPC   C4B42934  26.473  13.989   7.349
 3318POPC   NC342935  29.544   8.303   5.419
 3318POPC   PO442936  29.049   7.948   5.590
 3318POPC   GL142937  29.427   8.066   5.854
 3318POPC   GL242938  29.399   8.435   5.884
 3318POPC   C1A42939  29.460   8.027   6.297
 3318POPC   D2A42940  29.164   7.707   6.548
 3318POPC   C3A42941  28.780   7.890   6.785
 3318POPC   C4A42942  28.859   8.159   7.164
 3318POPC   C1B42943  29.246   8.516   6.281
 3318POPC   C2B42944  29.143   8.260   6.618
 3318POPC   C3B42945  29.271   8.349   6.972
 3318POPC   C4B42946  29.051   8.655   7.202
 3319POPC   NC342947   8.249  14.235   5.359
 3319POPC   PO442948   7.964  14.814   5.323
 3319POPC   GL142949   8.033  14.610   5.719
 3319POPC   GL242950   7.767  14.350   5.746
 3319POPC   C1A42951   8.188  14.739   6.143
 3319POPC   D2A42952   8.041  14.720   6.575
 3319POPC   C3A42953   8.259  14.800   6.952
 3319POPC   C4A42954   8.294  14.526   7.301
 3319POPC   C1B42955   7.970  14.257   6.149
 3319POPC   C2B42956   8.153  14.190   6.537
 3319POPC   C3B42957   7.992  14.179   6.931
 3319POPC   C4B42958   7.897  14.183   7.350
 3320POPC   NC342959   2.077  15.502   5.448
 3320POPC   PO442960   2.106  14.881   5.560
 3320POPC   GL142961   1.988  15.180   5.866
 3320POPC   GL242962   1.777  15.481   5.859
 3320POPC   C1A42963   1.825  15.184   6.282
 3320POPC   D2A42964   1.730  15.244   6.711
 3320POPC   C3A42965   1.988  14.948   6.917
 3320POPC   C4A42966   2.045  14.816   7.317
 3320POPC   C1B42967   1.996  15.676   6.201
 3320POPC   C2B42968   1.849  15.770   6.629
 3320POPC   C3B42969   1.841  15.614   7.064
 3320POPC   C4B42970   2.035  15.327   7.342
 3321POPC   NC342971  12.744  35.595   5.191
 3321POPC   PO442972  12.990  36.135   5.463
 3321POPC   GL142973  12.899  36.089   5.873
 3321POPC   GL242974  12.689  35.835   5.804
 3321POPC   C1A42975  13.000  36.197   6.293
 3321POPC   D2A42976  13.215  36.280   6.678
 3321POPC   C3A42977  12.978  36.130   6.999
 3321POPC   C4A42978  12.927  36.323   7.373
 3321POPC   C1B42979  12.697  35.756   6.259
 3321POPC   C2B42980  12.607  35.887   6.693
 3321POPC   C3B42981  12.572  35.701   7.114
 3321POPC   C4B42982  12.791  35.802   7.478
 3322POPC   NC342983  31.237  37.351   5.538
 3322POPC   PO442984  31.130  38.037   5.629
 3322POPC   GL142985  31.146  37.725   5.883
 3322POPC   GL242986  31.506  37.653   5.871
 3322POPC   C1A42987  31.170  37.529   6.252
 3322POPC   D2A42988  31.408  37.625   6.612
 3322POPC   C3A42989  31.434  37.382   6.974
 3322POPC   C4A42990  31.276  37.628   7.327
 3322POPC   C1B42991  31.564  37.969   6.220
 3322POPC   C2B42992  31.774  38.006   6.636
 3322POPC   C3B42993  31.619  37.886   7.034
 3322POPC   C4B42994  31.799  37.538   7.304
 3323POPC   NC342995  18.887  16.697   5.386
 3323POPC   PO442996  19.537  16.846   5.455
 3323POPC   GL142997  19.210  16.739   5.776
 3323POPC   GL242998  18.901  16.990   5.811
 3323POPC   C1A42999  19.233  16.683   6.210
 3323POPC   D2A43000  19.231  17.011   6.534
 3323POPC   C3A43001  19.306  16.782   6.898
 3323POPC   C4A43002  19.451  16.823   7.288
 3323POPC   C1B43003  18.736  16.820   6.200
 3323POPC   C2B43004  18.862  16.668   6.589
 3323POPC   C3B43005  18.826  16.914   6.951
 3323POPC   C4B43006  18.959  16.739   7.322
 3324POPC   NC343007  17.259  26.954   5.468
 3324POPC   PO443008  17.721  26.439   5.363
 3324POPC   GL143009  17.644  26.729   5.730
 3324POPC   GL243010  17.307  26.699   5.895
 3324POPC   C1A43011  17.655  26.976   6.137
 3324POPC   D2A43012  17.626  26.797   6.569
 3324POPC   C3A43013  17.895  26.992   6.889
 3324POPC   C4A43014  17.806  27.206   7.294
 3324POPC   C1B43015  17.156  26.860   6.281
 3324POPC   C2B43016  17.122  26.985   6.720
 3324POPC   C3B43017  17.384  26.891   7.067
 3324POPC   C4B43018  17.380  26.970   7.491
 3325POPC   NC343019  44.497  39.073   5.493
 3325POPC   PO443020   0.065  39.508   5.458
 3325POPC   GL143021  44.780  39.392   5.794
 3325POPC   GL243022  44.845  39.048   5.884
 3325POPC   C1A43023  44.451  39.276   6.127
 3325POPC   D2A43024  44.419  38.991   6.527
 3325POPC   C3A43025  44.462  39.187   6.951
 3325POPC   C4A43026  44.393  39.410   7.369
 3325POPC   C1B43027  44.931  39.263   6.296
 3325POPC   C2B43028  44.914  39.365   6.720
 3325POPC   C3B43029  44.938  39.151   7.106
 3325POPC   C4B43030  44.790  39.092   7.504
 3326POPC   NC343031   4.743   8.607   5.516
 3326POPC   PO443032   5.374   8.924   5.342
 3326POPC   GL143033   5.232   8.927   5.780
 3326POPC   GL243034   4.875   8.980   5.853
 3326POPC   C1A43035   5.340   8.804   6.218
 3326POPC   D2A43036   5.228   8.667   6.653
 3326POPC   C3A43037   5.425   8.954   6.993
 3326POPC   C4A43038   5.343   9.198   7.385
 3326POPC   C1B43039   4.808   8.745   6.232
 3326POPC   C2B43040   4.700   8.746   6.653
 3326POPC   C3B43041   4.920   8.941   6.982
 3326POPC   C4B43042   4.943   8.820   7.413
 3327POPC   NC343043  11.289  35.774   5.645
 3327POPC   PO443044  11.521  36.323   5.338
 3327POPC   GL143045  11.551  36.262   5.821
 3327POPC   GL243046  11.207  36.146   5.995
 3327POPC   C1A43047  11.518  36.425   6.271
 3327POPC   D2A43048  11.151  36.263   6.533
 3327POPC   C3A43049  11.233  36.180   6.963
 3327POPC   C4A43050  11.596  36.398   7.111
 3327POPC   C1B43051  11.517  35.889   6.255
 3327POPC   C2B43052  11.472  35.576   6.581
 3327POPC   C3B43053  11.541  35.760   6.967
 3327POPC   C4B43054  11.423  35.775   7.388
 3328POPC   NC343055   0.005  20.198   5.447
 3328POPC   PO443056   0.651  20.018   5.406
 3328POPC   GL143057   0.695  20.022   5.829
 3328POPC   GL243058   0.785  19.658   5.932
 3328POPC   C1A43059   0.470  19.965   6.209
 3328POPC   D2A43060   0.328  19.696   6.518
 3328POPC   C3A43061   0.217  19.970   6.850
 3328POPC   C4A43062   0.152  19.939   7.299
 3328POPC   C1B43063   0.836  19.623   6.385
 3328POPC   C2B43064   0.729  19.946   6.703
 3328POPC   C3B43065   0.638  19.886   7.151
 3328POPC   C4B43066   0.594  19.655   7.555
 3329POPC   NC343067   0.523  44.721   5.470
 3329POPC   PO443068   0.873  44.232   5.807
 3329POPC   GL143069   0.548  44.513   5.947
 3329POPC   GL243070   0.213  44.437   5.803
 3329POPC   C1A43071   0.482  44.947   6.105
 3329POPC   D2A43072   0.321   0.051   6.492
 3329POPC   C3A43073   0.533  44.835   6.838
 3329POPC   C4A43074   0.547  44.984   7.254
 3329POPC   C1B43075   0.191  44.251   6.229
 3329POPC   C2B43076   0.234  44.404   6.613
 3329POPC   C3B43077   0.088  44.428   7.004
 3329POPC   C4B43078   0.463  44.470   7.234
 3330POPC   NC343079  23.170  13.588   5.388
 3330POPC   PO443080  22.638  13.916   5.544
 3330POPC   GL143081  22.830  13.616   5.826
 3330POPC   GL243082  23.188  13.509   5.891
 3330POPC   C1A43083  22.948  13.824   6.241
 3330POPC   D2A43084  23.169  13.776   6.615
 3330POPC   C3A43085  23.000  13.679   7.006
 3330POPC   C4A43086  23.090  13.735   7.432
 3330POPC   C1B43087  23.108  13.344   6.303
 3330POPC   C2B43088  23.190  13.267   6.737
 3330POPC   C3B43089  23.137  13.223   7.190
 3330POPC   C4B43090  23.079  13.263   7.643
 3331POPC   NC343091  25.226  43.434   5.409
 3331POPC   PO443092  25.619  42.909   5.470
 3331POPC   GL143093  25.331  42.859   5.913
 3331POPC   GL243094  25.236  43.191   5.884
 3331POPC   C1A43095  25.168  42.922   6.339
 3331POPC   D2A43096  25.118  43.166   6.737
 3331POPC   C3A43097  25.230  42.896   7.095
 3331POPC   C4A43098  25.447  42.901   7.491
 3331POPC   C1B43099  24.919  43.358   6.191
 3331POPC   C2B43100  24.765  43.606   6.553
 3331POPC   C3B43101  24.775  43.500   7.003
 3331POPC   C4B43102  25.101  43.345   7.293
 3332POPC   NC343103  23.911  21.933   5.090
 3332POPC   PO443104  23.521  22.372   5.374
 3332POPC   GL143105  23.847  22.210   5.677
 3332POPC   GL243106  23.590  22.080   5.857
 3332POPC   C1A43107  24.012  22.080   6.143
 3332POPC   D2A43108  23.864  22.122   6.602
 3332POPC   C3A43109  24.063  22.020   6.985
 3332POPC   C4A43110  23.881  22.204   7.318
 3332POPC   C1B43111  23.532  21.937   6.275
 3332POPC   C2B43112  23.314  22.002   6.687
 3332POPC   C3B43113  23.449  21.909   7.107
 3332POPC   C4B43114  23.779  21.637   7.204
 3333POPC   NC343115  28.421  24.100   5.474
 3333POPC   PO443116  28.101  24.730   5.440
 3333POPC   GL143117  28.410  24.617   5.780
 3333POPC   GL243118  28.388  24.309   5.932
 3333POPC   C1A43119  28.522  24.729   6.208
 3333POPC   D2A43120  28.349  24.623   6.626
 3333POPC   C3A43121  28.583  24.611   6.992
 3333POPC   C4A43122  28.641  24.588   7.429
 3333POPC   C1B43123  28.090  24.105   6.169
 3333POPC   C2B43124  27.984  24.279   6.563
 3333POPC   C3B43125  28.223  24.215   6.946
 3333POPC   C4B43126  28.186  24.387   7.353
 3334POPC   NC343127  33.627  14.783   5.466
 3334POPC   PO443128  33.721  15.473   5.363
 3334POPC   GL143129  33.789  15.209   5.727
 3334POPC   GL243130  33.775  15.465   5.953
 3334POPC   C1A43131  34.104  15.108   6.072
 3334POPC   D2A43132  34.208  15.205   6.511
 3334POPC   C3A43133  33.870  15.024   6.768
 3334POPC   C4A43134  33.827  14.949   7.201
 3334POPC   C1B43135  34.056  15.642   6.255
 3334POPC   C2B43136  33.976  15.658   6.695
 3334POPC   C3B43137  33.690  15.475   7.002
 3334POPC   C4B43138  33.620  15.363   7.415
 3335POPC   NC343139  27.877   7.636   5.393
 3335POPC   PO443140  27.354   7.239   5.242
 3335POPC   GL143141  27.568   7.339   5.689
 3335POPC   GL243142  27.792   7.124   5.866
 3335POPC   C1A43143  27.623   7.555   6.108
 3335POPC   D2A43144  27.462   7.502   6.526
 3335POPC   C3A43145  27.763   7.643   6.796
 3335POPC   C4A43146  27.625   7.653   7.187
 3335POPC   C1B43147  27.431   7.087   6.201
 3335POPC   C2B43148  27.207   7.056   6.598
 3335POPC   C3B43149  27.511   7.116   6.932
 3335POPC   C4B43150  27.711   7.182   7.318
 3336POPC   NC343151  44.416  27.291   5.592
 3336POPC   PO443152  44.881  27.695   5.416
 3336POPC   GL143153  44.768  27.594   5.847
 3336POPC   GL243154  44.433  27.737   5.888
 3336POPC   C1A43155  44.780  27.523   6.296
 3336POPC   D2A43156  44.836  27.281   6.651
 3336POPC   C3A43157  44.782  27.555   6.995
 3336POPC   C4A43158  44.971  27.575   7.402
 3336POPC   C1B43159  44.289  27.617   6.279
 3336POPC   C2B43160  44.358  27.426   6.687
 3336POPC   C3B43161  44.278  27.604   7.115
 3336POPC   C4B43162  44.506  27.745   7.473
 3337POPC   NC343163  38.558  43.981   5.284
 3337POPC   PO443164  38.550  43.326   5.186
 3337POPC   GL143165  38.342  43.557   5.671
 3337POPC   GL243166  38.243  43.980   5.756
 3337POPC   C1A43167  38.512  43.729   6.065
 3337POPC   D2A43168  38.517  43.818   6.480
 3337POPC   C3A43169  38.405  43.515   6.815
 3337POPC   C4A43170  38.382  43.735   7.174
 3337POPC   C1B43171  38.041  43.949   6.168
 3337POPC   C2B43172  37.817  44.235   6.456
 3337POPC   C3B43173  37.694  44.188   6.891
 3337POPC   C4B43174  38.019  44.151   7.224
 3338POPC   NC343175  32.476  10.371   5.622
 3338POPC   PO443176  31.905  10.592   5.389
 3338POPC   GL143177  32.057  10.577   5.815
 3338POPC   GL243178  32.133  10.891   5.791
 3338POPC   C1A43179  32.293  10.546   6.243
 3338POPC   D2A43180  32.199  10.822   6.614
 3338POPC   C3A43181  32.326  10.730   7.039
 3338POPC   C4A43182  32.144  10.387   7.254
 3338POPC   C1B43183  31.902  10.865   6.184
 3338POPC   C2B43184  31.817  10.518   6.423
 3338POPC   C3B43185  31.851  10.499   6.838
 3338POPC   C4B43186  31.803  10.770   7.151
 3339POPC   NC343187   5.970  26.410   5.426
 3339POPC   PO443188   5.813  25.716   5.502
 3339POPC   GL143189   5.868  25.785   5.952
 3339POPC   GL243190   5.733  26.103   5.965
 3339POPC   C1A43191   5.972  25.750   6.382
 3339POPC   D2A43192   5.945  25.945   6.801
 3339POPC   C3A43193   5.982  25.679   7.191
 3339POPC   C4A43194   6.082  25.694   7.673
 3339POPC   C1B43195   5.907  26.298   6.331
 3339POPC   C2B43196   6.021  26.473   6.725
 3339POPC   C3B43197   6.184  26.315   7.089
 3339POPC   C4B43198   5.949  26.123   7.435
 3340POPC   NC343199   6.956  15.159   5.337
 3340POPC   PO443200   6.449  15.509   5.468
 3340POPC   GL143201   6.703  15.352   5.785
 3340POPC   GL243202   6.562  15.010   5.740
 3340POPC   C1A43203   6.848  15.526   6.199
 3340POPC   D2A43204   6.927  15.373   6.628
 3340POPC   C3A43205   6.779  15.407   7.070
 3340POPC   C4A43206   6.891  15.323   7.542
 3340POPC   C1B43207   6.382  14.745   6.087
 3340POPC   C2B43208   6.334  14.844   6.536
 3340POPC   C3B43209   6.420  14.998   6.969
 3340POPC   C4B43210   6.264  14.859   7.381
 3341POPC   NC343211  14.673  36.533   5.516
 3341POPC   PO443212  14.268  35.934   5.375
 3341POPC   GL143213  14.204  36.088   5.834
 3341POPC   GL243214  14.313  36.377   6.041
 3341POPC   C1A43215  14.061  36.031   6.299
 3341POPC   D2A43216  14.201  35.754   6.643
 3341POPC   C3A43217  14.113  35.816   7.100
 3341POPC   C4A43218  14.422  35.854   7.451
 3341POPC   C1B43219  14.634  36.471   6.270
 3341POPC   C2B43220  14.566  36.185   6.609
 3341POPC   C3B43221  14.522  36.106   7.025
 3341POPC   C4B43222  14.530  36.335   7.427
 3342POPC   NC343223   5.817  12.989   5.299
 3342POPC   PO443224   6.133  12.368   5.249
 3342POPC   GL143225   6.015  12.659   5.631
 3342POPC   GL243226   5.684  12.771   5.754
 3342POPC   C1A43227   6.125  12.809   6.069
 3342POPC   D2A43228   6.074  12.824   6.532
 3342POPC   C3A43229   6.281  12.996   6.902
 3342POPC   C4A43230   6.083  12.772   7.243
 3342POPC   C1B43231   5.579  12.747   6.205
 3342POPC   C2B43232   5.575  12.935   6.598
 3342POPC   C3B43233   5.623  12.815   6.996
 3342POPC   C4B43234   5.648  13.078   7.317
 3343POPC   NC343235  14.869  12.890   5.364
 3343POPC   PO443236  15.438  12.655   5.541
 3343POPC   GL143237  15.178  12.859   5.817
 3343POPC   GL243238  14.885  12.681   5.835
 3343POPC   C1A43239  15.106  12.980   6.235
 3343POPC   D2A43240  15.260  13.169   6.626
 3343POPC   C3A43241  15.368  12.958   6.994
 3343POPC   C4A43242  15.156  12.989   7.374
 3343POPC   C1B43243  14.845  12.515   6.234
 3343POPC   C2B43244  14.701  12.717   6.569
 3343POPC   C3B43245  14.854  12.828   6.961
 3343POPC   C4B43246  14.748  12.665   7.386
 3344POPC   NC343247  44.059   7.160   5.396
 3344POPC   PO443248  43.608   7.557   5.240
 3344POPC   GL143249  43.675   7.495   5.710
 3344POPC   GL243250  43.810   7.199   5.874
 3344POPC   C1A43251  43.882   7.639   6.129
 3344POPC   D2A43252  43.987   7.876   6.533
 3344POPC   C3A43253  44.140   7.749   6.935
 3344POPC   C4A43254  43.955   7.469   7.217
 3344POPC   C1B43255  43.470   7.318   6.163
 3344POPC   C2B43256  43.446   7.333   6.604
 3344POPC   C3B43257  43.736   7.121   6.890
 3344POPC   C4B43258  43.727   7.014   7.340
 3345POPC   NC343259  14.026   1.160   5.669
 3345POPC   PO443260  13.439   1.420   5.419
 3345POPC   GL143261  13.524   1.208   5.782
 3345POPC   GL243262  13.503   0.871   5.671
 3345POPC   C1A43263  13.710   1.240   6.221
 3345POPC   D2A43264  13.935   1.257   6.643
 3345POPC   C3A43265  13.814   1.341   7.086
 3345POPC   C4A43266  14.075   1.386   7.468
 3345POPC   C1B43267  13.403   0.805   6.119
 3345POPC   C2B43268  13.497   0.930   6.559
 3345POPC   C3B43269  13.583   0.882   6.979
 3345POPC   C4B43270  13.364   0.662   7.290
 3346POPC   NC343271  32.318  44.661   5.355
 3346POPC   PO443272  32.774  44.065   5.293
 3346POPC   GL143273  32.544  44.337   5.695
 3346POPC   GL243274  32.153  44.492   5.786
 3346POPC   C1A43275  32.460  44.463   6.159
 3346POPC   D2A43276  32.141  44.493   6.486
 3346POPC   C3A43277  32.407  44.586   6.800
 3346POPC   C4A43278  32.375  44.630   7.212
 3346POPC   C1B43279  32.020  44.796   6.085
 3346POPC   C2B43280  32.126   0.015   6.488
 3346POPC   C3B43281  32.031  44.932   6.910
 3346POPC   C4B43282  31.879  44.792   7.314
 3347POPC   NC343283  16.077  20.950   5.461
 3347POPC   PO443284  15.785  20.241   5.387
 3347POPC   GL143285  15.868  20.531   5.798
 3347POPC   GL243286  16.233  20.463   5.834
 3347POPC   C1A43287  15.711  20.756   6.248
 3347POPC   D2A43288  15.867  20.884   6.721
 3347POPC   C3A43289  15.770  20.582   7.122
 3347POPC   C4A43290  15.516  20.313   7.470
 3347POPC   C1B43291  16.210  20.630   6.259
 3347POPC   C2B43292  16.386  20.501   6.660
 3347POPC   C3B43293  16.316  20.628   7.109
 3347POPC   C4B43294  16.116  20.887   7.430
 3348POPC   NC343295  43.523  30.104   5.491
 3348POPC   PO443296  42.840  29.846   5.517
 3348POPC   GL143297  42.976  29.758   5.888
 3348POPC   GL243298  43.316  29.882   5.921
 3348POPC   C1A43299  42.865  29.886   6.283
 3348POPC   D2A43300  42.940  29.935   6.696
 3348POPC   C3A43301  42.846  29.629   6.963
 3348POPC   C4A43302  43.181  29.529   7.269
 3348POPC   C1B43303  43.292  30.180   6.277
 3348POPC   C2B43304  42.954  30.393   6.486
 3348POPC   C3B43305  42.961  30.380   6.947
 3348POPC   C4B43306  43.092  30.025   7.197
 3349POPC   NC343307  25.482  23.140   5.468
 3349POPC   PO443308  24.838  22.833   5.352
 3349POPC   GL143309  25.097  23.007   5.747
 3349POPC   GL243310  25.311  22.737   5.809
 3349POPC   C1A43311  25.316  23.103   6.173
 3349POPC   D2A43312  25.134  22.938   6.569
 3349POPC   C3A43313  25.071  22.739   6.961
 3349POPC   C4A43314  24.960  23.114   7.182
 3349POPC   C1B43315  25.415  22.600   6.242
 3349POPC   C2B43316  25.619  22.868   6.574
 3349POPC   C3B43317  25.454  23.078   6.960
 3349POPC   C4B43318  25.394  23.174   7.424
 3350POPC   NC343319   8.124   0.954   5.415
 3350POPC   PO443320   8.379   1.667   5.392
 3350POPC   GL143321   8.368   1.300   5.680
 3350POPC   GL243322   7.993   1.358   5.733
 3350POPC   C1A43323   8.381   1.064   6.094
 3350POPC   D2A43324   8.190   1.009   6.541
 3350POPC   C3A43325   8.412   1.099   6.967
 3350POPC   C4A43326   8.351   1.211   7.423
 3350POPC   C1B43327   7.874   1.189   6.140
 3350POPC   C2B43328   7.783   1.320   6.564
 3350POPC   C3B43329   7.920   1.240   6.984
 3350POPC   C4B43330   7.837   1.526   7.288
 3351POPC   NC343331   9.925  22.963   5.420
 3351POPC   PO443332   9.363  23.366   5.324
 3351POPC   GL143333   9.551  23.199   5.754
 3351POPC   GL243334   9.914  23.125   5.919
 3351POPC   C1A43335   9.526  23.039   6.207
 3351POPC   D2A43336   9.776  23.165   6.554
 3351POPC   C3A43337   9.562  23.134   6.896
 3351POPC   C4A43338   9.727  22.936   7.230
 3351POPC   C1B43339   9.976  22.792   6.282
 3351POPC   C2B43340  10.095  22.776   6.730
 3351POPC   C3B43341  10.125  22.599   7.143
 3351POPC   C4B43342  10.068  22.281   7.445
 3352POPC   NC343343  28.014  33.119   5.300
 3352POPC   PO443344  28.262  33.742   5.438
 3352POPC   GL143345  28.264  33.854   5.824
 3352POPC   GL243346  28.563  33.714   5.950
 3352POPC   C1A43347  28.124  33.767   6.217
 3352POPC   D2A43348  28.376  33.589   6.536
 3352POPC   C3A43349  28.223  33.772   6.891
 3352POPC   C4A43350  27.899  33.885   7.182
 3352POPC   C1B43351  28.707  33.937   6.338
 3352POPC   C2B43352  28.673  34.087   6.798
 3352POPC   C3B43353  28.525  33.963   7.243
 3352POPC   C4B43354  28.463  33.778   7.642
 3353POPC   NC343355  25.916  19.244   5.332
 3353POPC   PO443356  26.260  18.634   5.436
 3353POPC   GL143357  25.987  18.897   5.685
 3353POPC   GL243358  26.158  19.166   5.789
 3353POPC   C1A43359  25.834  18.886   6.106
 3353POPC   D2A43360  26.029  19.106   6.432
 3353POPC   C3A43361  25.937  18.961   6.831
 3353POPC   C4A43362  25.742  19.243   7.125
 3353POPC   C1B43363  26.434  19.297   6.113
 3353POPC   C2B43364  26.527  19.350   6.550
 3353POPC   C3B43365  26.281  19.325   6.905
 3353POPC   C4B43366  26.178  19.444   7.298
 3354POPC   NC343367  42.079  34.587   5.041
 3354POPC   PO443368  42.544  34.367   5.494
 3354POPC   GL143369  42.597  34.602   5.851
 3354POPC   GL243370  42.907  34.403   5.927
 3354POPC   C1A43371  42.450  34.748   6.233
 3354POPC   D2A43372  42.621  34.672   6.608
 3354POPC   C3A43373  42.383  34.596   6.951
 3354POPC   C4A43374  42.477  34.774   7.348
 3354POPC   C1B43375  42.654  34.274   6.274
 3354POPC   C2B43376  42.665  34.160   6.704
 3354POPC   C3B43377  42.758  34.295   7.098
 3354POPC   C4B43378  42.380  34.269   7.335
 3355POPC   NC343379  28.777  18.917   5.498
 3355POPC   PO443380  29.374  19.202   5.380
 3355POPC   GL143381  29.177  19.136   5.773
 3355POPC   GL243382  29.282  19.469   5.830
 3355POPC   C1A43383  29.143  18.853   6.176
 3355POPC   D2A43384  28.900  18.743   6.575
 3355POPC   C3A43385  29.131  18.845   6.967
 3355POPC   C4A43386  28.959  19.026   7.317
 3355POPC   C1B43387  29.059  19.371   6.209
 3355POPC   C2B43388  29.162  19.203   6.593
 3355POPC   C3B43389  29.034  19.387   6.983
 3355POPC   C4B43390  29.273  19.405   7.416
 3356POPC   NC343391   3.422   6.572   5.443
 3356POPC   PO443392   4.088   6.611   5.297
 3356POPC   GL143393   3.882   6.634   5.719
 3356POPC   GL243394   3.721   6.317   5.820
 3356POPC   C1A43395   3.840   6.905   6.102
 3356POPC   D2A43396   3.550   6.951   6.471
 3356POPC   C3A43397   3.685   6.778   6.860
 3356POPC   C4A43398   3.605   6.930   7.267
 3356POPC   C1B43399   3.522   6.499   6.204
 3356POPC   C2B43400   3.267   6.531   6.598
 3356POPC   C3B43401   3.311   6.454   7.035
 3356POPC   C4B43402   3.672   6.403   7.240
 3357POPC   NC343403   9.891  38.570   5.379
 3357POPC   PO443404   9.466  38.123   5.527
 3357POPC   GL143405   9.694  38.413   5.817
 3357POPC   GL243406  10.037  38.314   5.820
 3357POPC   C1A43407   9.737  38.327   6.251
 3357POPC   D2A43408   9.662  38.033   6.541
 3357POPC   C3A43409   9.359  38.151   6.826
 3357POPC   C4A43410   9.355  38.455   7.138
 3357POPC   C1B43411  10.214  38.506   6.196
 3357POPC   C2B43412  10.058  38.628   6.577
 3357POPC   C3B43413   9.768  38.482   6.825
 3357POPC   C4B43414   9.772  38.150   7.119
 3358POPC   NC343415  37.039  14.779   5.513
 3358POPC   PO443416  37.002  14.074   5.380
 3358POPC   GL143417  36.810  14.345   5.665
 3358POPC   GL243418  36.480  14.259   5.719
 3358POPC   C1A43419  36.916  14.401   6.090
 3358POPC   D2A43420  36.743  14.401   6.504
 3358POPC   C3A43421  36.918  14.161   6.823
 3358POPC   C4A43422  36.877  14.334   7.238
 3358POPC   C1B43423  36.489  14.117   6.167
 3358POPC   C2B43424  36.468  13.976   6.622
 3358POPC   C3B43425  36.446  14.134   7.040
 3358POPC   C4B43426  36.529  14.087   7.508
 3359POPC   NC343427  17.496  38.684   5.386
 3359POPC   PO443428  17.307  37.993   5.375
 3359POPC   GL143429  17.416  38.271   5.760
 3359POPC   GL243430  17.359  38.625   5.868
 3359POPC   C1A43431  17.617  38.272   6.179
 3359POPC   D2A43432  17.715  38.517   6.548
 3359POPC   C3A43433  17.660  38.271   6.892
 3359POPC   C4A43434  17.670  38.408   7.251
 3359POPC   C1B43435  17.269  38.631   6.286
 3359POPC   C2B43436  17.299  38.840   6.662
 3359POPC   C3B43437  17.249  38.637   7.031
 3359POPC   C4B43438  17.201  38.229   7.175
 3360POPC   NC343439  26.975   0.112   5.578
 3360POPC   PO443440  26.748   0.761   5.407
 3360POPC   GL143441  26.549   0.624   5.823
 3360POPC   GL243442  26.558   0.242   5.890
 3360POPC   C1A43443  26.701   0.565   6.258
 3360POPC   D2A43444  26.657   0.745   6.653
 3360POPC   C3A43445  26.998   0.757   6.886
 3360POPC   C4A43446  27.119   0.447   7.147
 3360POPC   C1B43447  26.847   0.078   6.236
 3360POPC   C2B43448  26.999   0.277   6.638
 3360POPC   C3B43449  26.677   0.275   6.969
 3360POPC   C4B43450  26.408  44.926   7.089
 3361POPC   NC343451  11.667  11.953   5.440
 3361POPC   PO443452  11.038  12.245   5.457
 3361POPC   GL143453  11.272  12.033   5.776
 3361POPC   GL243454  11.164  11.696   5.818
 3361POPC   C1A43455  11.330  12.062   6.203
 3361POPC   D2A43456  11.067  12.133   6.533
 3361POPC   C3A43457  11.195  11.972   6.916
 3361POPC   C4A43458  11.362  12.108   7.281
 3361POPC   C1B43459  10.985  11.672   6.258
 3361POPC   C2B43460  10.810  11.694   6.699
 3361POPC   C3B43461  10.973  11.580   7.151
 3361POPC   C4B43462  11.037  11.810   7.567
 3362POPC   NC343463  31.385  40.675   5.386
 3362POPC   PO443464  31.628  41.049   5.841
 3362POPC   GL143465  31.783  40.635   5.865
 3362POPC   GL243466  31.496  40.427   5.819
 3362POPC   C1A43467  31.872  40.601   6.288
 3362POPC   D2A43468  31.614  40.948   6.480
 3362POPC   C3A43469  31.441  40.917   6.906
 3362POPC   C4A43470  31.696  40.917   7.283
 3362POPC   C1B43471  31.363  40.548   6.212
 3362POPC   C2B43472  31.468  40.444   6.597
 3362POPC   C3B43473  31.218  40.445   6.940
 3362POPC   C4B43474  31.369  40.494   7.331
 3363POPC   NC343475  32.792   4.611   5.453
 3363POPC   PO443476  33.144   4.051   5.337
 3363POPC   GL143477  33.110   4.274   5.757
 3363POPC   GL243478  32.743   4.220   5.824
 3363POPC   C1A43479  33.024   4.290   6.245
 3363POPC   D2A43480  32.615   4.249   6.527
 3363POPC   C3A43481  32.733   4.113   6.952
 3363POPC   C4A43482  33.135   4.256   7.145
 3363POPC   C1B43483  32.658   4.618   6.099
 3363POPC   C2B43484  32.623   4.770   6.539
 3363POPC   C3B43485  32.866   4.621   6.879
 3363POPC   C4B43486  32.723   4.483   7.298
 3364POPC   NC343487  41.840  36.058   5.563
 3364POPC   PO443488  41.170  36.319   5.483
 3364POPC   GL143489  41.454  36.325   5.803
 3364POPC   GL243490  41.325  36.027   5.925
 3364POPC   C1A43491  41.618  36.365   6.219
 3364POPC   D2A43492  41.436  36.457   6.600
 3364POPC   C3A43493  41.707  36.402   6.922
 3364POPC   C4A43494  41.481  36.134   7.142
 3364POPC   C1B43495  41.588  35.871   6.269
 3364POPC   C2B43496  41.680  35.934   6.684
 3364POPC   C3B43497  41.431  35.673   6.915
 3364POPC   C4B43498  41.264  35.710   7.306
 3365POPC   NC343499  25.965   2.129   5.424
 3365POPC   PO443500  26.476   2.557   5.565
 3365POPC   GL143501  26.244   2.275   5.836
 3365POPC   GL243502  26.114   1.917   5.846
 3365POPC   C1A43503  26.010   2.213   6.228
 3365POPC   D2A43504  25.921   2.332   6.632
 3365POPC   C3A43505  25.936   1.995   6.859
 3365POPC   C4A43506  26.118   2.170   7.170
 3365POPC   C1B43507  26.233   1.702   6.205
 3365POPC   C2B43508  26.158   1.557   6.619
 3365POPC   C3B43509  26.333   1.704   6.980
 3365POPC   C4B43510  26.138   1.689   7.347
 3366POPC   NC343511  16.438  32.022   5.564
 3366POPC   PO443512  16.662  31.558   5.192
 3366POPC   GL143513  16.715  31.569   5.644
 3366POPC   GL243514  16.904  31.840   5.765
 3366POPC   C1A43515  16.714  31.460   6.100
 3366POPC   D2A43516  16.692  31.206   6.489
 3366POPC   C3A43517  16.554  31.410   6.853
 3366POPC   C4A43518  16.765  31.394   7.242
 3366POPC   C1B43519  16.978  31.917   6.175
 3366POPC   C2B43520  16.872  31.711   6.556
 3366POPC   C3B43521  16.872  31.829   6.977
 3366POPC   C4B43522  17.065  31.756   7.384
 3367POPC   NC343523  36.030  39.482   5.351
 3367POPC   PO443524  36.347  38.880   5.531
 3367POPC   GL143525  36.166  39.108   5.843
 3367POPC   GL243526  36.337  39.432   5.770
 3367POPC   C1A43527  36.108  38.999   6.312
 3367POPC   D2A43528  36.245  39.281   6.696
 3367POPC   C3A43529  36.223  39.297   7.162
 3367POPC   C4A43530  35.877  39.041   7.374
 3367POPC   C1B43531  36.233  39.472   6.204
 3367POPC   C2B43532  35.821  39.424   6.446
 3367POPC   C3B43533  35.780  39.391   6.908
 3367POPC   C4B43534  35.806  39.551   7.329
 3368POPC   NC343535   3.442  42.529   4.970
 3368POPC   PO443536   3.754  42.645   5.509
 3368POPC   GL143537   3.659  42.335   5.833
 3368POPC   GL243538   3.311  42.188   5.852
 3368POPC   C1A43539   3.499  42.448   6.242
 3368POPC   D2A43540   3.312  42.502   6.630
 3368POPC   C3A43541   3.553  42.370   6.986
 3368POPC   C4A43542   3.497  42.373   7.433
 3368POPC   C1B43543   3.393  41.946   6.227
 3368POPC   C2B43544   3.419  41.976   6.685
 3368POPC   C3B43545   3.324  41.942   7.137
 3368POPC   C4B43546   3.307  41.929   7.599
 3369POPC   NC343547  40.144  33.371   5.471
 3369POPC   PO443548  40.482  32.877   5.205
 3369POPC   GL143549  40.107  32.858   5.657
 3369POPC   GL243550  39.893  33.118   5.832
 3369POPC   C1A43551  40.230  32.940   6.162
 3369POPC   D2A43552  40.388  32.836   6.563
 3369POPC   C3A43553  40.166  32.963   6.949
 3369POPC   C4A43554  40.277  32.732   7.328
 3369POPC   C1B43555  39.761  32.772   6.134
 3369POPC   C2B43556  39.895  32.700   6.563
 3369POPC   C3B43557  39.737  32.716   7.014
 3369POPC   C4B43558  39.825  32.957   7.398
 3370POPC   NC343559  16.494  33.864   5.278
 3370POPC   PO443560  15.802  33.734   5.253
 3370POPC   GL143561  15.965  33.761   5.707
 3370POPC   GL243562  16.299  33.914   5.774
 3370POPC   C1A43563  15.840  33.610   6.164
 3370POPC   D2A43564  15.637  33.475   6.573
 3370POPC   C3A43565  15.771  33.569   6.997
 3370POPC   C4A43566  15.908  33.821   7.354
 3370POPC   C1B43567  16.063  34.082   6.122
 3370POPC   C2B43568  16.031  33.923   6.532
 3370POPC   C3B43569  16.069  34.068   6.930
 3370POPC   C4B43570  15.854  34.299   7.231
 3371POPC   NC343571  32.301  37.888   5.476
 3371POPC   PO443572  32.572  37.295   5.407
 3371POPC   GL143573  32.383  37.444   5.815
 3371POPC   GL243574  32.043  37.630   5.838
 3371POPC   C1A43575  32.319  37.512   6.271
 3371POPC   D2A43576  32.156  37.404   6.655
 3371POPC   C3A43577  32.445  37.365   7.007
 3371POPC   C4A43578  32.343  37.516   7.430
 3371POPC   C1B43579  32.099  37.965   6.190
 3371POPC   C2B43580  32.296  37.938   6.594
 3371POPC   C3B43581  32.154  37.795   7.001
 3371POPC   C4B43582  31.995  38.002   7.339
 3372POPC   NC343583  32.420  39.638   5.538
 3372POPC   PO443584  32.226  39.111   5.392
 3372POPC   GL143585  32.285  39.234   5.841
 3372POPC   GL243586  32.622  39.092   5.883
 3372POPC   C1A43587  32.246  39.610   6.159
 3372POPC   D2A43588  32.284  39.751   6.590
 3372POPC   C3A43589  32.330  39.526   6.992
 3372POPC   C4A43590  31.937  39.481   7.158
 3372POPC   C1B43591  32.560  39.242   6.316
 3372POPC   C2B43592  32.174  39.242   6.577
 3372POPC   C3B43593  32.049  39.014   6.944
 3372POPC   C4B43594  32.269  39.079   7.359
 3373POPC   NC343595   6.401  38.113   5.584
 3373POPC   PO443596   6.466  37.444   5.602
 3373POPC   GL143597   6.641  37.758   5.852
 3373POPC   GL243598   6.376  37.871   6.037
 3373POPC   C1A43599   6.887  37.869   6.172
 3373POPC   D2A43600   6.674  37.963   6.541
 3373POPC   C3A43601   6.909  38.019   6.894
 3373POPC   C4A43602   6.839  37.796   7.244
 3373POPC   C1B43603   6.101  37.734   6.337
 3373POPC   C2B43604   6.093  37.702   6.762
 3373POPC   C3B43605   6.364  37.699   7.075
 3373POPC   C4B43606   6.242  37.509   7.476
 3374POPC   NC343607   3.656  14.730   5.300
 3374POPC   PO443608   3.361  14.137   5.474
 3374POPC   GL143609   3.597  14.408   5.710
 3374POPC   GL243610   3.328  14.567   5.806
 3374POPC   C1A43611   3.741  14.428   6.140
 3374POPC   D2A43612   3.601  14.271   6.571
 3374POPC   C3A43613   3.665  14.522   6.941
 3374POPC   C4A43614   3.674  14.419   7.378
 3374POPC   C1B43615   3.218  14.339   6.236
 3374POPC   C2B43616   3.086  14.264   6.704
 3374POPC   C3B43617   3.246  14.255   7.142
 3374POPC   C4B43618   3.202  14.561   7.524
 3375POPC   NC343619  43.243  41.939   5.343
 3375POPC   PO443620  43.163  41.286   5.482
 3375POPC   GL143621  43.143  41.529   5.843
 3375POPC   GL243622  42.876  41.750   5.878
 3375POPC   C1A43623  43.158  41.502   6.305
 3375POPC   D2A43624  43.083  41.225   6.643
 3375POPC   C3A43625  43.024  41.261   7.073
 3375POPC   C4A43626  43.418  41.227   7.263
 3375POPC   C1B43627  42.958  41.965   6.260
 3375POPC   C2B43628  42.885  41.794   6.678
 3375POPC   C3B43629  42.956  41.752   7.138
 3375POPC   C4B43630  43.334  41.691   7.484
 3376POPC   NC343631  26.259   8.283   5.358
 3376POPC   PO443632  26.876   8.114   5.314
 3376POPC   GL143633  26.987   8.133   5.770
 3376POPC   GL243634  26.993   8.506   5.852
 3376POPC   C1A43635  26.738   8.148   6.165
 3376POPC   D2A43636  26.569   8.483   6.452
 3376POPC   C3A43637  26.543   8.350   6.866
 3376POPC   C4A43638  26.588   8.039   7.205
 3376POPC   C1B43639  27.096   8.494   6.294
 3376POPC   C2B43640  27.013   8.205   6.641
 3376POPC   C3B43641  27.041   8.299   7.077
 3376POPC   C4B43642  26.723   8.543   7.297
 3377POPC   NC343643  22.756  21.079   5.453
 3377POPC   PO443644  23.196  21.488   5.347
 3377POPC   GL143645  22.973  21.515   5.781
 3377POPC   GL243646  23.170  21.775   5.952
 3377POPC   C1A43647  22.831  21.265   6.205
 3377POPC   D2A43648  22.935  21.009   6.604
 3377POPC   C3A43649  22.817  21.185   7.001
 3377POPC   C4A43650  22.514  21.479   7.167
 3377POPC   C1B43651  23.167  21.605   6.380
 3377POPC   C2B43652  22.892  21.622   6.719
 3377POPC   C3B43653  22.978  21.670   7.144
 3377POPC   C4B43654  23.208  21.670   7.506
 3378POPC   NC343655   8.765  44.193   5.471
 3378POPC   PO443656   9.148  43.624   5.437
 3378POPC   GL143657   8.877  43.804   5.783
 3378POPC   GL243658   8.564  43.594   5.838
 3378POPC   C1A43659   9.060  43.974   6.202
 3378POPC   D2A43660   9.143  43.736   6.592
 3378POPC   C3A43661   9.092  43.923   7.007
 3378POPC   C4A43662   9.126  43.642   7.348
 3378POPC   C1B43663   8.565  43.902   6.191
 3378POPC   C2B43664   8.716  44.007   6.621
 3378POPC   C3B43665   8.572  44.006   7.026
 3378POPC   C4B43666   8.754  44.121   7.401
 3379POPC   NC343667  42.162  25.440   5.217
 3379POPC   PO443668  42.671  25.042   5.367
 3379POPC   GL143669  42.409  25.143   5.715
 3379POPC   GL243670  42.521  25.466   5.722
 3379POPC   C1A43671  42.147  25.343   6.067
 3379POPC   D2A43672  42.122  25.471   6.540
 3379POPC   C3A43673  42.195  25.270   6.965
 3379POPC   C4A43674  42.213  24.842   7.177
 3379POPC   C1B43675  42.653  25.418   6.143
 3379POPC   C2B43676  42.658  25.534   6.574
 3379POPC   C3B43677  42.709  25.264   6.903
 3379POPC   C4B43678  42.586  25.142   7.302
 3380POPC   NC343679  24.887   6.018   5.418
 3380POPC   PO443680  25.499   5.744   5.494
 3380POPC   GL143681  25.232   5.859   5.832
 3380POPC   GL243682  25.171   6.198   5.780
 3380POPC   C1A43683  25.439   6.053   6.192
 3380POPC   D2A43684  25.503   5.897   6.575
 3380POPC   C3A43685  25.749   5.908   6.868
 3380POPC   C4A43686  25.490   5.874   7.200
 3380POPC   C1B43687  24.939   6.224   6.151
 3380POPC   C2B43688  25.134   6.294   6.527
 3380POPC   C3B43689  25.348   6.297   6.895
 3380POPC   C4B43690  25.140   6.204   7.281
 3381POPC   NC343691  33.642  33.435   5.295
 3381POPC   PO443692  33.566  32.767   5.301
 3381POPC   GL143693  33.709  33.038   5.617
 3381POPC   GL243694  33.435  33.247   5.725
 3381POPC   C1A43695  33.762  32.969   6.063
 3381POPC   D2A43696  33.656  32.887   6.511
 3381POPC   C3A43697  33.890  33.046   6.865
 3381POPC   C4A43698  33.964  32.830   7.242
 3381POPC   C1B43699  33.360  33.259   6.179
 3381POPC   C2B43700  33.481  33.368   6.576
 3381POPC   C3B43701  33.399  33.151   6.921
 3381POPC   C4B43702  33.588  33.214   7.316
 3382POPC   NC343703  38.290  22.960   5.269
 3382POPC   PO443704  37.792  22.594   5.481
 3382POPC   GL143705  37.709  22.783   5.921
 3382POPC   GL243706  37.667  23.092   5.835
 3382POPC   C1A43707  37.690  22.816   6.372
 3382POPC   D2A43708  37.976  22.634   6.698
 3382POPC   C3A43709  37.870  22.846   7.057
 3382POPC   C4A43710  37.438  22.779   7.040
 3382POPC   C1B43711  37.419  23.246   6.195
 3382POPC   C2B43712  37.297  23.143   6.640
 3382POPC   C3B43713  37.564  23.255   6.988
 3382POPC   C4B43714  37.683  23.538   7.285
 3383POPC   NC343715  22.424  30.953   5.678
 3383POPC   PO443716  21.890  30.631   5.547
 3383POPC   GL143717  22.073  30.714   5.952
 3383POPC   GL243718  22.446  30.622   6.040
 3383POPC   C1A43719  22.067  30.688   6.368
 3383POPC   D2A43720  22.036  30.388   6.645
 3383POPC   C3A43721  22.181  30.677   6.897
 3383POPC   C4A43722  21.978  30.972   7.155
 3383POPC   C1B43723  22.484  30.975   6.317
 3383POPC   C2B43724  22.578  31.013   6.724
 3383POPC   C3B43725  22.490  31.047   7.122
 3383POPC   C4B43726  22.469  30.635   7.298
 3384POPC   NC343727  37.252  36.275   5.459
 3384POPC   PO443728  36.626  36.350   5.290
 3384POPC   GL143729  36.722  36.216   5.735
 3384POPC   GL243730  37.020  36.090   5.849
 3384POPC   C1A43731  36.628  36.015   6.162
 3384POPC   D2A43732  36.821  35.878   6.577
 3384POPC   C3A43733  36.846  36.221   6.859
 3384POPC   C4A43734  36.690  36.362   7.251
 3384POPC   C1B43735  37.184  35.872   6.172
 3384POPC   C2B43736  37.301  36.067   6.551
 3384POPC   C3B43737  37.293  35.941   6.936
 3384POPC   C4B43738  37.213  36.276   7.231
 3385POPC   NC343739  11.791  44.449   5.728
 3385POPC   PO443740  11.196  44.737   5.435
 3385POPC   GL143741  11.235  44.743   5.850
 3385POPC   GL243742  11.521  44.864   5.918
 3385POPC   C1A43743  11.084  44.523   6.196
 3385POPC   D2A43744  11.029  44.345   6.599
 3385POPC   C3A43745  11.163  44.608   6.927
 3385POPC   C4A43746  11.070  44.575   7.377
 3385POPC   C1B43747  11.541  44.807   6.347
 3385POPC   C2B43748  11.752   0.056   6.680
 3385POPC   C3B43749  11.807   0.010   7.108
 3385POPC   C4B43750  11.567  44.640   7.237
 3386POPC   NC343751   1.790  24.245   5.505
 3386POPC   PO443752   1.960  24.906   5.502
 3386POPC   GL143753   1.819  24.653   5.850
 3386POPC   GL243754   2.137  24.461   5.859
 3386POPC   C1A43755   1.828  24.445   6.260
 3386POPC   D2A43756   2.134  24.531   6.544
 3386POPC   C3A43757   2.006  24.694   6.929
 3386POPC   C4A43758   1.918  24.378   7.229
 3386POPC   C1B43759   2.410  24.717   6.141
 3386POPC   C2B43760   2.632  24.605   6.553
 3386POPC   C3B43761   2.467  24.495   6.957
 3386POPC   C4B43762   2.333  24.636   7.371
 3387POPC   NC343763   5.636   4.085   5.197
 3387POPC   PO443764   5.731   3.401   5.455
 3387POPC   GL143765   5.977   3.439   5.828
 3387POPC   GL243766   6.318   3.491   5.823
 3387POPC   C1A43767   6.078   3.222   6.219
 3387POPC   D2A43768   5.879   3.320   6.629
 3387POPC   C3A43769   6.089   3.418   6.999
 3387POPC   C4A43770   6.217   3.133   7.274
 3387POPC   C1B43771   6.172   3.720   6.242
 3387POPC   C2B43772   5.972   3.978   6.566
 3387POPC   C3B43773   5.940   3.910   7.003
 3387POPC   C4B43774   5.993   3.973   7.439
 3388POPC   NC343775  14.690  19.940   5.368
 3388POPC   PO443776  14.317  19.383   5.457
 3388POPC   GL143777  14.452  19.673   5.822
 3388POPC   GL243778  14.561  20.065   5.857
 3388POPC   C1A43779  14.398  19.746   6.272
 3388POPC   D2A43780  14.610  20.030   6.577
 3388POPC   C3A43781  14.452  19.957   7.003
 3388POPC   C4A43782  14.338  19.628   7.267
 3388POPC   C1B43783  14.187  20.186   6.153
 3388POPC   C2B43784  14.057  20.039   6.598
 3388POPC   C3B43785  13.940  19.772   6.982
 3388POPC   C4B43786  13.998  19.959   7.449
 3389POPC   NC343787  16.722  25.466   5.205
 3389POPC   PO443788  16.533  24.907   5.462
 3389POPC   GL143789  16.544  25.321   5.730
 3389POPC   GL243790  16.803  25.604   5.710
 3389POPC   C1A43791  16.624  25.317   6.205
 3389POPC   D2A43792  16.802  25.104   6.598
 3389POPC   C3A43793  16.548  25.180   6.972
 3389POPC   C4A43794  16.487  24.951   7.348
 3389POPC   C1B43795  17.034  25.624   6.120
 3389POPC   C2B43796  16.908  25.601   6.559
 3389POPC   C3B43797  16.904  25.584   6.996
 3389POPC   C4B43798  16.769  25.363   7.414
 3390POPC   NC343799  34.080   0.749   5.477
 3390POPC   PO443800  34.151   0.067   5.513
 3390POPC   GL143801  33.932   0.220   5.882
 3390POPC   GL243802  33.660   0.479   5.847
 3390POPC   C1A43803  33.930   0.344   6.298
 3390POPC   D2A43804  33.725   0.302   6.676
 3390POPC   C3A43805  34.077   0.407   6.912
 3390POPC   C4A43806  34.045   0.281   7.296
 3390POPC   C1B43807  33.686   0.784   6.210
 3390POPC   C2B43808  33.744   0.843   6.667
 3390POPC   C3B43809  33.678   0.671   7.074
 3390POPC   C4B43810  33.505   0.817   7.432
 3391POPC   NC343811  39.499  15.620   5.532
 3391POPC   PO443812  39.256  15.108   5.240
 3391POPC   GL143813  39.105  15.135   5.728
 3391POPC   GL243814  38.840  15.326   5.979
 3391POPC   C1A43815  39.256  15.069   6.170
 3391POPC   D2A43816  39.404  15.205   6.583
 3391POPC   C3A43817  39.175  15.070   6.908
 3391POPC   C4A43818  39.119  15.180   7.319
 3391POPC   C1B43819  39.030  15.510   6.377
 3391POPC   C2B43820  39.022  15.572   6.833
 3391POPC   C3B43821  38.880  15.617   7.257
 3391POPC   C4B43822  39.132  15.521   7.666
 3392POPC   NC343823  28.621   8.677   5.515
 3392POPC   PO443824  28.236   9.231   5.430
 3392POPC   GL143825  28.277   8.965   5.805
 3392POPC   GL243826  28.584   9.126   5.824
 3392POPC   C1A43827  28.443   8.856   6.230
 3392POPC   D2A43828  28.594   8.802   6.636
 3392POPC   C3A43829  28.423   8.880   7.033
 3392POPC   C4A43830  28.629   8.859   7.456
 3392POPC   C1B43831  28.307   9.339   6.181
 3392POPC   C2B43832  28.218   9.152   6.600
 3392POPC   C3B43833  28.064   9.239   6.984
 3392POPC   C4B43834  27.910   9.430   7.323
 3393POPC   NC343835   6.337  23.678   5.481
 3393POPC   PO443836   6.845  24.097   5.463
 3393POPC   GL143837   6.703  23.826   5.817
 3393POPC   GL243838   6.718  23.454   5.782
 3393POPC   C1A43839   6.558  23.719   6.242
 3393POPC   D2A43840   6.778  23.812   6.618
 3393POPC   C3A43841   6.636  23.642   7.002
 3393POPC   C4A43842   6.375  23.827   7.325
 3393POPC   C1B43843   6.762  23.231   6.194
 3393POPC   C2B43844   6.744  23.284   6.632
 3393POPC   C3B43845   6.977  23.255   7.023
 3393POPC   C4B43846   6.577  23.148   7.166
 3394POPC   NC343847  15.193  18.538   5.360
 3394POPC   PO443848  15.035  17.836   5.388
 3394POPC   GL143849  15.030  18.118   5.752
 3394POPC   GL243850  15.019  18.482   5.829
 3394POPC   C1A43851  15.069  18.075   6.219
 3394POPC   D2A43852  14.867  18.163   6.654
 3394POPC   C3A43853  15.120  18.284   7.030
 3394POPC   C4A43854  15.351  18.003   7.275
 3394POPC   C1B43855  14.784  18.728   6.112
 3394POPC   C2B43856  14.858  18.674   6.543
 3394POPC   C3B43857  14.714  18.589   6.935
 3394POPC   C4B43858  14.856  18.583   7.370
 3395POPC   NC343859  37.183  28.829   5.641
 3395POPC   PO443860  36.830  29.317   5.393
 3395POPC   GL143861  36.831  29.167   5.802
 3395POPC   GL243862  37.129  29.295   5.884
 3395POPC   C1A43863  36.817  29.024   6.228
 3395POPC   D2A43864  36.972  29.123   6.584
 3395POPC   C3A43865  36.707  28.909   6.848
 3395POPC   C4A43866  36.731  28.941   7.250
 3395POPC   C1B43867  36.920  29.524   6.209
 3395POPC   C2B43868  36.923  29.618   6.626
 3395POPC   C3B43869  37.044  29.435   7.008
 3395POPC   C4B43870  36.936  29.361   7.435
 3396POPC   NC343871   1.195  23.451   5.633
 3396POPC   PO443872   1.591  23.891   5.279
 3396POPC   GL143873   1.518  23.855   5.761
 3396POPC   GL243874   1.474  23.559   6.029
 3396POPC   C1A43875   1.559  24.016   6.190
 3396POPC   D2A43876   1.491  23.811   6.577
 3396POPC   C3A43877   1.391  23.981   6.988
 3396POPC   C4A43878   0.972  23.824   7.107
 3396POPC   C1B43879   1.079  23.706   6.250
 3396POPC   C2B43880   0.813  23.667   6.625
 3396POPC   C3B43881   0.867  23.341   6.951
 3396POPC   C4B43882   1.299  23.378   7.133
 3397POPC   NC343883   3.792  16.002   5.037
 3397POPC   PO443884   3.405  15.628   5.460
 3397POPC   GL143885   3.575  15.738   5.842
 3397POPC   GL243886   3.508  16.078   5.841
 3397POPC   C1A43887   3.414  15.775   6.272
 3397POPC   D2A43888   3.580  15.940   6.658
 3397POPC   C3A43889   3.789  15.612   6.881
 3397POPC   C4A43890   3.872  15.666   7.315
 3397POPC   C1B43891   3.440  16.268   6.255
 3397POPC   C2B43892   3.336  16.404   6.701
 3397POPC   C3B43893   3.403  16.309   7.141
 3397POPC   C4B43894   3.418  15.867   7.196
 3398POPC   NC343895   3.973  29.132   5.404
 3398POPC   PO443896   3.366  29.190   5.242
 3398POPC   GL143897   3.470  29.205   5.706
 3398POPC   GL243898   3.795  29.077   5.857
 3398POPC   C1A43899   3.373  29.176   6.154
 3398POPC   D2A43900   3.177  29.047   6.550
 3398POPC   C3A43901   3.364  29.022   6.932
 3398POPC   C4A43902   3.453  29.393   7.147
 3398POPC   C1B43903   3.893  29.290   6.212
 3398POPC   C2B43904   3.678  29.255   6.589
 3398POPC   C3B43905   3.884  29.248   6.945
 3398POPC   C4B43906   3.792  28.966   7.215
 3399POPC   NC343907  15.371  29.345   5.378
 3399POPC   PO443908  14.839  28.936   5.243
 3399POPC   GL143909  15.078  29.006   5.653
 3399POPC   GL243910  15.370  28.781   5.743
 3399POPC   C1A43911  15.242  29.250   6.025
 3399POPC   D2A43912  15.423  29.200   6.446
 3399POPC   C3A43913  15.208  29.320   6.822
 3399POPC   C4A43914  15.269  29.232   7.264
 3399POPC   C1B43915  15.083  28.765   6.128
 3399POPC   C2B43916  15.098  28.836   6.594
 3399POPC   C3B43917  15.401  28.841   6.946
 3399POPC   C4B43918  15.134  28.719   7.270
 3400POPC   NC343919  43.114  13.536   5.414
 3400POPC   PO443920  43.414  14.113   5.465
 3400POPC   GL143921  43.283  13.795   5.821
 3400POPC   GL243922  42.973  13.533   5.893
 3400POPC   C1A43923  43.157  13.813   6.261
 3400POPC   D2A43924  43.350  13.512   6.495
 3400POPC   C3A43925  43.251  13.484   6.910
 3400POPC   C4A43926  43.401  13.603   7.274
 3400POPC   C1B43927  42.859  13.403   6.309
 3400POPC   C2B43928  42.836  13.667   6.697
 3400POPC   C3B43929  42.617  13.578   7.080
 3400POPC   C4B43930  42.844  13.356   7.387
 3401POPC   NC343931  18.484  18.476   5.491
 3401POPC   PO443932  18.206  17.844   5.350
 3401POPC   GL143933  18.214  18.093   5.751
 3401POPC   GL243934  18.025  18.433   5.744
 3401POPC   C1A43935  18.331  18.032   6.190
 3401POPC   D2A43936  18.101  18.025   6.580
 3401POPC   C3A43937  18.359  18.116   6.932
 3401POPC   C4A43938  18.247  18.275   7.321
 3401POPC   C1B43939  18.272  18.548   6.114
 3401POPC   C2B43940  18.201  18.571   6.546
 3401POPC   C3B43941  18.339  18.651   6.957
 3401POPC   C4B43942  18.061  18.755   7.277
 3402POPC   NC343943   0.420  30.404   5.614
 3402POPC   PO443944   0.511  29.852   5.165
 3402POPC   GL143945   0.586  29.927   5.696
 3402POPC   GL243946   0.286  29.993   5.887
 3402POPC   C1A43947   0.671  30.197   6.160
 3402POPC   D2A43948   0.766  30.149   6.636
 3402POPC   C3A43949   0.626  30.364   7.015
 3402POPC   C4A43950   0.601  30.177   7.451
 3402POPC   C1B43951   0.389  29.808   6.302
 3402POPC   C2B43952   0.185  29.817   6.674
 3402POPC   C3B43953   0.336  29.939   7.045
 3402POPC   C4B43954   0.189  29.868   7.425
 3403POPC   NC343955   6.247  32.174   5.441
 3403POPC   PO443956   5.601  32.363   5.362
 3403POPC   GL143957   5.851  32.320   5.746
 3403POPC   GL243958   6.075  32.596   5.842
 3403POPC   C1A43959   5.770  32.091   6.130
 3403POPC   D2A43960   5.615  32.168   6.549
 3403POPC   C3A43961   5.853  32.258   6.889
 3403POPC   C4A43962   5.667  32.153   7.266
 3403POPC   C1B43963   6.192  32.365   6.205
 3403POPC   C2B43964   6.370  32.143   6.567
 3403POPC   C3B43965   6.385  32.293   6.988
 3403POPC   C4B43966   6.129  32.374   7.318
 3404POPC   NC343967   7.064  22.277   5.545
 3404POPC   PO443968   7.632  21.903   5.438
 3404POPC   GL143969   7.719  22.138   5.832
 3404POPC   GL243970   7.472  22.379   5.821
 3404POPC   C1A43971   7.688  22.329   6.266
 3404POPC   D2A43972   7.478  22.077   6.561
 3404POPC   C3A43973   7.736  22.046   6.887
 3404POPC   C4A43974   7.562  22.022   7.262
 3404POPC   C1B43975   7.174  22.306   6.186
 3404POPC   C2B43976   7.140  22.494   6.580
 3404POPC   C3B43977   7.297  22.360   6.966
 3404POPC   C4B43978   7.054  22.032   7.169
 3405POPC   NC343979  16.983  37.579   5.444
 3405POPC   PO443980  16.379  37.808   5.569
 3405POPC   GL143981  16.657  37.835   5.892
 3405POPC   GL243982  16.744  37.500   5.902
 3405POPC   C1A43983  16.758  37.816   6.329
 3405POPC   D2A43984  17.041  37.766   6.683
 3405POPC   C3A43985  16.795  37.758   7.032
 3405POPC   C4A43986  16.774  37.675   7.480
 3405POPC   C1B43987  16.621  37.290   6.269
 3405POPC   C2B43988  16.779  37.313   6.718
 3405POPC   C3B43989  16.633  37.290   7.170
 3405POPC   C4B43990  16.539  37.277   7.639
 3406POPC   NC343991  35.826  19.871   5.786
 3406POPC   PO443992  36.430  19.995   5.469
 3406POPC   GL143993  36.367  20.019   5.869
 3406POPC   GL243994  36.371  19.676   5.898
 3406POPC   C1A43995  36.561  20.045   6.255
 3406POPC   D2A43996  36.320  20.161   6.585
 3406POPC   C3A43997  36.088  19.930   6.872
 3406POPC   C4A43998  36.233  20.090   7.266
 3406POPC   C1B43999  36.195  19.673   6.304
 3406POPC   C2B44000  36.292  19.410   6.609
 3406POPC   C3B44001  36.347  19.512   7.008
 3406POPC   C4B44002  36.059  19.624   7.351
 3407POPC   NC344003  35.019  26.036   5.513
 3407POPC   PO444004  34.370  26.387   5.348
 3407POPC   GL144005  34.603  26.287   5.739
 3407POPC   GL244006  34.617  25.930   5.833
 3407POPC   C1A44007  34.454  26.263   6.181
 3407POPC   D2A44008  34.300  26.508   6.516
 3407POPC   C3A44009  34.520  26.370   6.829
 3407POPC   C4A44010  34.485  26.090   7.106
 3407POPC   C1B44011  34.646  25.707   6.244
 3407POPC   C2B44012  34.565  25.526   6.650
 3407POPC   C3B44013  34.561  25.596   7.096
 3407POPC   C4B44014  34.823  25.853   7.389
 3408POPC   NC344015  10.037  19.802   5.493
 3408POPC   PO444016  10.633  20.058   5.329
 3408POPC   GL144017  10.716  19.900   5.753
 3408POPC   GL244018  10.388  19.774   5.893
 3408POPC   C1A44019  10.788  19.868   6.231
 3408POPC   D2A44020  10.530  19.894   6.624
 3408POPC   C3A44021  10.565  19.588   6.968
 3408POPC   C4A44022  10.772  19.644   7.393
 3408POPC   C1B44023  10.019  19.917   6.144
 3408POPC   C2B44024   9.821  19.870   6.533
 3408POPC   C3B44025  10.071  19.950   6.893
 3408POPC   C4B44026  10.274  19.878   7.261
 3409POPC   NC344027   4.648  38.504   5.420
 3409POPC   PO444028   5.305  38.240   5.401
 3409POPC   GL144029   5.180  38.514   5.804
 3409POPC   GL244030   4.851  38.690   5.857
 3409POPC   C1A44031   5.107  38.540   6.295
 3409POPC   D2A44032   5.251  38.766   6.691
 3409POPC   C3A44033   5.237  38.505   7.084
 3409POPC   C4A44034   4.999  38.188   7.345
 3409POPC   C1B44035   4.607  38.707   6.241
 3409POPC   C2B44036   4.741  38.704   6.666
 3409POPC   C3B44037   4.788  38.743   7.127
 3409POPC   C4B44038   4.595  38.507   7.450
 3410POPC   NC344039   5.532  18.803   5.255
 3410POPC   PO444040   5.988  19.233   5.172
 3410POPC   GL144041   5.997  19.053   5.630
 3410POPC   GL244042   5.717  18.893   5.866
 3410POPC   C1A44043   6.113  19.142   6.102
 3410POPC   D2A44044   6.032  19.295   6.544
 3410POPC   C3A44045   5.916  19.068   6.905
 3410POPC   C4A44046   5.806  19.250   7.287
 3410POPC   C1B44047   5.668  18.999   6.332
 3410POPC   C2B44048   5.492  19.268   6.690
 3410POPC   C3B44049   5.406  19.043   7.067
 3410POPC   C4B44050   5.576  18.608   7.065
 3411POPC   NC344051   5.234  37.036   5.274
 3411POPC   PO444052   5.797  36.835   5.230
 3411POPC   GL144053   5.551  36.999   5.666
 3411POPC   GL244054   5.178  36.882   5.744
 3411POPC   C1A44055   5.454  36.916   6.146
 3411POPC   D2A44056   5.334  37.063   6.569
 3411POPC   C3A44057   5.246  36.836   6.936
 3411POPC   C4A44058   5.024  36.980   7.278
 3411POPC   C1B44059   4.912  36.698   6.047
 3411POPC   C2B44060   4.894  36.662   6.484
 3411POPC   C3B44061   4.780  36.665   6.899
 3411POPC   C4B44062   4.912  36.465   7.249
 3412POPC   NC344063  16.338  15.342   5.468
 3412POPC   PO444064  15.941  14.831   5.139
 3412POPC   GL144065  15.765  14.895   5.614
 3412POPC   GL244066  16.044  15.039   5.767
 3412POPC   C1A44067  15.675  14.956   6.105
 3412POPC   D2A44068  15.800  15.150   6.517
 3412POPC   C3A44069  15.946  14.924   6.899
 3412POPC   C4A44070  15.711  15.120   7.240
 3412POPC   C1B44071  16.196  15.001   6.187
 3412POPC   C2B44072  16.281  15.367   6.473
 3412POPC   C3B44073  16.176  15.516   6.857
 3412POPC   C4B44074  16.198  15.283   7.224
 3413POPC   NC344075   1.182  44.393   5.506
 3413POPC   PO444076   0.884   0.030   5.422
 3413POPC   GL144077   1.150  45.000   5.764
 3413POPC   GL244078   1.401  44.721   5.838
 3413POPC   C1A44079   0.980  44.837   6.125
 3413POPC   D2A44080   0.794  44.621   6.440
 3413POPC   C3A44081   1.040  44.742   6.785
 3413POPC   C4A44082   0.996  44.744   7.237
 3413POPC   C1B44083   1.358  44.500   6.237
 3413POPC   C2B44084   1.245  44.304   6.619
 3413POPC   C3B44085   1.411  44.465   6.999
 3413POPC   C4B44086   1.308  44.347   7.410
 3414POPC   NC344087  24.350   3.876   5.645
 3414POPC   PO444088  24.509   3.412   5.243
 3414POPC   GL144089  24.493   3.364   5.715
 3414POPC   GL244090  24.169   3.418   5.886
 3414POPC   C1A44091  24.647   3.505   6.147
 3414POPC   D2A44092  24.683   3.725   6.549
 3414POPC   C3A44093  24.507   3.476   6.883
 3414POPC   C4A44094  24.491   3.315   7.288
 3414POPC   C1B44095  24.132   3.707   6.255
 3414POPC   C2B44096  24.221   3.876   6.651
 3414POPC   C3B44097  24.478   3.962   7.009
 3414POPC   C4B44098  24.388   3.798   7.413
 3415POPC   NC344099  42.897  33.104   5.266
 3415POPC   PO444100  43.446  32.926   5.106
 3415POPC   GL144101  43.303  33.189   5.601
 3415POPC   GL244102  42.954  33.218   5.782
 3415POPC   C1A44103  43.310  33.178   6.130
 3415POPC   D2A44104  43.263  32.847   6.473
 3415POPC   C3A44105  43.374  32.962   6.888
 3415POPC   C4A44106  43.410  33.080   7.300
 3415POPC   C1B44107  42.868  33.391   6.229
 3415POPC   C2B44108  42.807  33.157   6.636
 3415POPC   C3B44109  42.901  33.028   7.072
 3415POPC   C4B44110  42.865  33.332   7.393
 3416POPC   NC344111   0.615  16.930   5.569
 3416POPC   PO444112   0.338  17.519   5.394
 3416POPC   GL144113   0.348  17.448   5.814
 3416POPC   GL244114   0.105  17.713   5.875
 3416POPC   C1A44115   0.527  17.555   6.210
 3416POPC   D2A44116   0.579  17.685   6.628
 3416POPC   C3A44117   0.382  17.515   6.988
 3416POPC   C4A44118   0.419  17.580   7.446
 3416POPC   C1B44119   0.122  17.873   6.298
 3416POPC   C2B44120   0.214  17.989   6.735
 3416POPC   C3B44121   0.198  17.954   7.176
 3416POPC   C4B44122   0.217  18.027   7.639
 3417POPC   NC344123  12.082  26.455   5.433
 3417POPC   PO444124  12.386  25.926   5.352
 3417POPC   GL144125  12.324  26.123   5.755
 3417POPC   GL244126  12.015  25.985   5.800
 3417POPC   C1A44127  12.244  26.188   6.201
 3417POPC   D2A44128  12.213  25.909   6.557
 3417POPC   C3A44129  12.475  26.034   6.885
 3417POPC   C4A44130  12.458  26.191   7.277
 3417POPC   C1B44131  11.903  25.770   6.160
 3417POPC   C2B44132  11.678  25.815   6.538
 3417POPC   C3B44133  11.869  25.725   6.914
 3417POPC   C4B44134  12.080  25.811   7.276
 3418POPC   NC344135  32.996  30.957   5.430
 3418POPC   PO444136  32.669  30.386   5.392
 3418POPC   GL144137  32.824  30.619   5.779
 3418POPC   GL244138  32.660  30.982   5.825
 3418POPC   C1A44139  33.042  30.671   6.201
 3418POPC   D2A44140  33.145  30.486   6.636
 3418POPC   C3A44141  33.238  30.755   7.003
 3418POPC   C4A44142  33.069  30.733   7.442
 3418POPC   C1B44143  32.728  31.103   6.293
 3418POPC   C2B44144  32.675  31.145   6.747
 3418POPC   C3B44145  32.903  31.133   7.139
 3418POPC   C4B44146  32.816  31.189   7.594
 3419POPC   NC344147  41.737  12.601   5.556
 3419POPC   PO444148  41.771  13.305   5.500
 3419POPC   GL144149  41.896  13.002   5.821
 3419POPC   GL244150  41.525  12.927   5.898
 3419POPC   C1A44151  41.849  12.719   6.212
 3419POPC   D2A44152  41.551  12.832   6.539
 3419POPC   C3A44153  41.711  12.918   6.935
 3419POPC   C4A44154  41.940  12.715   7.283
 3419POPC   C1B44155  41.259  12.624   6.170
 3419POPC   C2B44156  41.049  12.626   6.611
 3419POPC   C3B44157  41.047  12.874   7.024
 3419POPC   C4B44158  41.084  12.922   7.529
 3420POPC   NC344159   7.639  35.643   5.433
 3420POPC   PO444160   7.214  35.073   5.493
 3420POPC   GL144161   7.369  35.331   5.827
 3420POPC   GL244162   7.712  35.324   5.873
 3420POPC   C1A44163   7.255  35.474   6.257
 3420POPC   D2A44164   7.021  35.326   6.639
 3420POPC   C3A44165   7.285  35.242   6.977
 3420POPC   C4A44166   7.516  35.546   7.190
 3420POPC   C1B44167   7.780  35.609   6.219
 3420POPC   C2B44168   7.667  35.489   6.640
 3420POPC   C3B44169   7.754  35.085   6.861
 3420POPC   C4B44170   7.673  35.066   7.280
 3421POPC   NC344171  21.032  11.533   5.109
 3421POPC   PO444172  21.488  11.056   5.425
 3421POPC   GL144173  21.344  11.218   5.808
 3421POPC   GL244174  21.460  11.563   5.921
 3421POPC   C1A44175  21.413  11.126   6.218
 3421POPC   D2A44176  21.392  11.309   6.603
 3421POPC   C3A44177  21.461  11.083   6.926
 3421POPC   C4A44178  21.618  11.320   7.273
 3421POPC   C1B44179  21.134  11.578   6.263
 3421POPC   C2B44180  20.907  11.461   6.657
 3421POPC   C3B44181  21.056  11.345   7.072
 3421POPC   C4B44182  21.186  11.423   7.498
 3422POPC   NC344183  44.872   7.792   5.646
 3422POPC   PO444184  44.551   7.230   5.313
 3422POPC   GL144185  44.612   7.247   5.773
 3422POPC   GL244186  44.942   7.271   5.836
 3422POPC   C1A44187  44.637   7.207   6.257
 3422POPC   D2A44188  44.431   7.448   6.616
 3422POPC   C3A44189  44.461   7.335   7.065
 3422POPC   C4A44190  44.482   7.647   7.393
 3422POPC   C1B44191   0.140   7.442   6.221
 3422POPC   C2B44192  44.962   7.409   6.657
 3422POPC   C3B44193  44.952   7.515   7.109
 3422POPC   C4B44194  44.798   7.263   7.485
 3423POPC   NC344195  30.923   8.500   5.377
 3423POPC   PO444196  31.476   8.039   5.373
 3423POPC   GL144197  31.438   8.225   5.777
 3423POPC   GL244198  31.133   8.369   5.810
 3423POPC   C1A44199  31.622   8.324   6.178
 3423POPC   D2A44200  31.726   8.146   6.578
 3423POPC   C3A44201  31.559   8.214   6.981
 3423POPC   C4A44202  31.491   7.909   7.309
 3423POPC   C1B44203  31.219   8.626   6.165
 3423POPC   C2B44204  31.388   8.582   6.583
 3423POPC   C3B44205  31.154   8.524   6.981
 3423POPC   C4B44206  31.273   8.366   7.388
 3424POPC   NC344207  39.807  29.665   5.502
 3424POPC   PO444208  40.168  30.232   5.526
 3424POPC   GL144209  39.931  30.035   5.835
 3424POPC   GL244210  40.205  29.769   5.829
 3424POPC   C1A44211  39.901  29.826   6.233
 3424POPC   D2A44212  40.207  29.885   6.576
 3424POPC   C3A44213  40.037  30.004   6.962
 3424POPC   C4A44214  39.890  30.207   7.319
 3424POPC   C1B44215  40.309  29.522   6.204
 3424POPC   C2B44216  40.033  29.401   6.578
 3424POPC   C3B44217  40.000  29.512   7.025
 3424POPC   C4B44218  40.244  29.628   7.398
 3425POPC   NC344219   0.316   1.179   5.412
 3425POPC   PO444220   0.630   1.756   5.284
 3425POPC   GL144221   0.712   1.578   5.794
 3425POPC   GL244222   0.647   1.192   5.810
 3425POPC   C1A44223   0.471   1.455   6.206
 3425POPC   D2A44224   0.635   1.110   6.424
 3425POPC   C3A44225   0.707   1.217   6.812
 3425POPC   C4A44226   0.473   1.279   7.194
 3425POPC   C1B44227   0.323   0.965   6.036
 3425POPC   C2B44228   0.122   1.096   6.402
 3425POPC   C3B44229   0.122   1.138   6.837
 3425POPC   C4B44230   0.130   0.879   7.198
 3426POPC   NC344231  32.479  28.720   5.380
 3426POPC   PO444232  32.780  28.123   5.479
 3426POPC   GL144233  32.412  28.324   5.678
 3426POPC   GL244234  32.071  28.303   5.594
 3426POPC   C1A44235  32.322  28.404   6.080
 3426POPC   D2A44236  32.487  28.347   6.467
 3426POPC   C3A44237  32.279  28.531   6.762
 3426POPC   C4A44238  32.207  28.410   7.162
 3426POPC   C1B44239  31.892  28.155   5.978
 3426POPC   C2B44240  31.962  28.246   6.432
 3426POPC   C3B44241  32.009  28.054   6.827
 3426POPC   C4B44242  31.739  28.219   7.136
 3427POPC   NC344243  36.138  44.829   5.309
 3427POPC   PO444244  36.240  44.156   5.185
 3427POPC   GL144245  36.359  44.423   5.640
 3427POPC   GL244246  36.225  44.764   5.797
 3427POPC   C1A44247  36.205  44.376   6.109
 3427POPC   D2A44248  36.198  44.528   6.514
 3427POPC   C3A44249  36.288  44.242   6.826
 3427POPC   C4A44250  36.163  44.437   7.197
 3427POPC   C1B44251  35.879  44.802   6.095
 3427POPC   C2B44252  35.707  44.763   6.503
 3427POPC   C3B44253  35.859  44.727   6.897
 3427POPC   C4B44254  35.806  44.864   7.307
 3428POPC   NC344255   8.755  20.730   5.400
 3428POPC   PO444256   9.364  20.651   5.723
 3428POPC   GL144257   9.002  20.719   5.857
 3428POPC   GL244258   8.862  20.415   5.817
 3428POPC   C1A44259   8.833  20.915   6.218
 3428POPC   D2A44260   8.940  20.871   6.625
 3428POPC   C3A44261   8.608  20.755   6.878
 3428POPC   C4A44262   8.554  20.655   7.306
 3428POPC   C1B44263   9.074  20.431   6.263
 3428POPC   C2B44264   8.899  20.369   6.658
 3428POPC   C3B44265   8.992  20.501   7.092
 3428POPC   C4B44266   8.917  20.336   7.531
 3429POPC   NC344267  16.558   8.120   5.497
 3429POPC   PO444268  16.972   8.687   5.472
 3429POPC   GL144269  17.042   8.335   5.793
 3429POPC   GL244270  16.811   8.057   5.929
 3429POPC   C1A44271  17.178   8.237   6.219
 3429POPC   D2A44272  17.029   8.127   6.620
 3429POPC   C3A44273  16.660   8.303   6.782
 3429POPC   C4A44274  16.765   8.453   7.158
 3429POPC   C1B44275  16.823   7.758   6.280
 3429POPC   C2B44276  16.652   7.779   6.709
 3429POPC   C3B44277  16.648   7.926   7.136
 3429POPC   C4B44278  16.454   7.771   7.529
 3430POPC   NC344279  18.721  42.348   5.390
 3430POPC   PO444280  19.104  42.886   5.416
 3430POPC   GL144281  18.903  42.693   5.775
 3430POPC   GL244282  19.076  42.342   5.763
 3430POPC   C1A44283  18.968  42.553   6.222
 3430POPC   D2A44284  19.167  42.330   6.578
 3430POPC   C3A44285  19.254  42.508   6.997
 3430POPC   C4A44286  18.941  42.628   7.303
 3430POPC   C1B44287  18.827  42.105   6.061
 3430POPC   C2B44288  18.691  42.168   6.485
 3430POPC   C3B44289  18.782  42.293   6.914
 3430POPC   C4B44290  18.596  42.176   7.276
 3431POPC   NC344291  10.000  14.658   5.471
 3431POPC   PO444292   9.522  14.127   5.478
 3431POPC   GL144293   9.689  14.375   5.811
 3431POPC   GL244294   9.971  14.216   5.771
 3431POPC   C1A44295   9.597  14.427   6.253
 3431POPC   D2A44296   9.766  14.596   6.631
 3431POPC   C3A44297   9.725  14.309   6.944
 3431POPC   C4A44298   9.551  14.382   7.280
 3431POPC   C1B44299   9.990  14.054   6.213
 3431POPC   C2B44300  10.112  14.174   6.637
 3431POPC   C3B44301  10.191  14.089   7.077
 3431POPC   C4B44302   9.998  14.207   7.484
 3432POPC   NC344303  19.751  29.684   5.423
 3432POPC   PO444304  19.771  30.355   5.516
 3432POPC   GL144305  19.825  30.080   5.838
 3432POPC   GL244306  20.049  29.789   5.859
 3432POPC   C1A44307  19.702  30.003   6.252
 3432POPC   D2A44308  19.967  29.874   6.577
 3432POPC   C3A44309  19.951  29.622   6.908
 3432POPC   C4A44310  19.811  29.790   7.285
 3432POPC   C1B44311  20.203  30.103   6.182
 3432POPC   C2B44312  20.341  30.222   6.606
 3432POPC   C3B44313  20.157  30.125   6.982
 3432POPC   C4B44314  20.094  30.186   7.390
 3433POPC   NC344315   4.123   7.086   5.269
 3433POPC   PO444316   4.657   6.621   5.410
 3433POPC   GL144317   4.406   6.645   5.737
 3433POPC   GL244318   4.279   6.967   5.755
 3433POPC   C1A44319   4.264   6.537   6.134
 3433POPC   D2A44320   4.031   6.650   6.492
 3433POPC   C3A44321   4.157   6.537   6.904
 3433POPC   C4A44322   4.074   6.732   7.270
 3433POPC   C1B44323   4.583   6.945   6.127
 3433POPC   C2B44324   4.475   6.910   6.584
 3433POPC   C3B44325   4.588   6.914   7.034
 3433POPC   C4B44326   4.559   6.533   7.278
 3434POPC   NC344327   1.197  40.271   5.151
 3434POPC   PO444328   1.008  39.803   5.607
 3434POPC   GL144329   1.352  39.894   5.845
 3434POPC   GL244330   1.460  40.218   5.688
 3434POPC   C1A44331   1.338  39.800   6.277
 3434POPC   D2A44332   1.118  40.044   6.541
 3434POPC   C3A44333   1.143  39.925   6.928
 3434POPC   C4A44334   1.179  40.071   7.275
 3434POPC   C1B44335   1.497  40.291   6.137
 3434POPC   C2B44336   1.674  40.199   6.521
 3434POPC   C3B44337   1.551  40.236   6.916
 3434POPC   C4B44338   1.687  40.277   7.315
 3435POPC   NC344339  30.492  13.888   5.612
 3435POPC   PO444340  30.480  14.551   5.364
 3435POPC   GL144341  30.589  14.410   5.784
 3435POPC   GL244342  30.819  14.112   5.907
 3435POPC   C1A44343  30.800  14.521   6.178
 3435POPC   D2A44344  30.908  14.233   6.500
 3435POPC   C3A44345  30.702  14.347   6.884
 3435POPC   C4A44346  30.881  14.328   7.282
 3435POPC   C1B44347  30.413  14.175   6.198
 3435POPC   C2B44348  30.275  14.365   6.568
 3435POPC   C3B44349  30.175  14.264   6.972
 3435POPC   C4B44350  30.390  14.212   7.332
 3436POPC   NC344351   7.215  24.381   5.441
 3436POPC   PO444352   7.853  24.552   5.297
 3436POPC   GL144353   7.697  24.621   5.781
 3436POPC   GL244354   7.349  24.478   5.920
 3436POPC   C1A44355   7.709  24.574   6.265
 3436POPC   D2A44356   7.861  24.331   6.652
 3436POPC   C3A44357   7.649  24.540   7.002
 3436POPC   C4A44358   7.328  24.844   7.091
 3436POPC   C1B44359   7.174  24.175   6.213
 3436POPC   C2B44360   7.246  24.039   6.610
 3436POPC   C3B44361   6.975  24.192   6.927
 3436POPC   C4B44362   7.132  24.385   7.279
 3437POPC   NC344363  18.056   8.051   5.561
 3437POPC   PO444364  18.308   8.583   5.212
 3437POPC   GL144365  18.362   8.456   5.743
 3437POPC   GL244366  18.100   8.326   6.000
 3437POPC   C1A44367  18.601   8.191   6.121
 3437POPC   D2A44368  18.602   7.855   6.498
 3437POPC   C3A44369  18.596   8.025   6.904
 3437POPC   C4A44370  18.455   8.274   7.253
 3437POPC   C1B44371  18.161   7.956   6.249
 3437POPC   C2B44372  18.112   8.030   6.681
 3437POPC   C3B44373  18.135   7.903   7.091
 3437POPC   C4B44374  18.007   8.085   7.487
 3438POPC   NC344375  28.719  33.519   5.469
 3438POPC   PO444376  29.019  34.104   5.418
 3438POPC   GL144377  29.012  33.921   5.818
 3438POPC   GL244378  28.825  34.207   5.911
 3438POPC   C1A44379  29.149  33.670   6.196
 3438POPC   D2A44380  29.473  33.563   6.534
 3438POPC   C3A44381  29.276  33.488   6.940
 3438POPC   C4A44382  28.954  33.752   7.075
 3438POPC   C1B44383  29.152  34.196   6.229
 3438POPC   C2B44384  29.295  34.052   6.610
 3438POPC   C3B44385  29.319  34.177   7.016
 3438POPC   C4B44386  28.977  34.216   7.282
 3439POPC   NC344387  19.140  35.132   5.455
 3439POPC   PO444388  19.010  35.824   5.342
 3439POPC   GL144389  19.041  35.564   5.719
 3439POPC   GL244390  18.714  35.394   5.755
 3439POPC   C1A44391  19.149  35.338   6.088
 3439POPC   D2A44392  19.116  35.454   6.486
 3439POPC   C3A44393  19.266  35.148   6.750
 3439POPC   C4A44394  19.327  35.442   7.069
 3439POPC   C1B44395  18.612  35.219   6.172
 3439POPC   C2B44396  18.762  35.106   6.592
 3439POPC   C3B44397  18.828  35.325   6.964
 3439POPC   C4B44398  18.552  35.247   7.279
 3440POPC   NC344399  10.868  27.316   5.649
 3440POPC   PO444400  11.362  27.685   5.393
 3440POPC   GL144401  11.226  27.740   5.823
 3440POPC   GL244402  11.346  27.408   5.849
 3440POPC   C1A44403  11.399  27.753   6.259
 3440POPC   D2A44404  11.549  27.464   6.602
 3440POPC   C3A44405  11.614  27.728   6.958
 3440POPC   C4A44406  11.236  27.828   7.182
 3440POPC   C1B44407  11.164  27.320   6.250
 3440POPC   C2B44408  10.967  27.337   6.666
 3440POPC   C3B44409  11.190  27.337   7.033
 3440POPC   C4B44410  11.492  27.380   7.318
 3441POPC   NC344411  37.134   7.050   5.379
 3441POPC   PO444412  36.609   6.662   5.368
 3441POPC   GL144413  36.799   6.884   5.756
 3441POPC   GL244414  37.155   7.012   5.893
 3441POPC   C1A44415  36.647   6.966   6.164
 3441POPC   D2A44416  36.495   6.966   6.586
 3441POPC   C3A44417  36.748   6.683   6.836
 3441POPC   C4A44418  36.817   6.484   7.219
 3441POPC   C1B44419  37.124   6.953   6.334
 3441POPC   C2B44420  36.906   6.558   6.389
 3441POPC   C3B44421  37.065   6.270   6.729
 3441POPC   C4B44422  37.202   6.187   7.119
 3442POPC   NC344423  41.252   2.006   5.170
 3442POPC   PO444424  40.734   2.130   5.480
 3442POPC   GL144425  40.672   2.101   5.901
 3442POPC   GL244426  40.879   2.355   5.987
 3442POPC   C1A44427  40.554   2.145   6.337
 3442POPC   D2A44428  40.820   2.123   6.705
 3442POPC   C3A44429  40.636   1.993   7.079
 3442POPC   C4A44430  40.598   2.212   7.481
 3442POPC   C1B44431  41.073   2.011   6.253
 3442POPC   C2B44432  41.312   1.931   6.647
 3442POPC   C3B44433  41.189   1.988   7.071
 3442POPC   C4B44434  40.980   1.866   7.441
 3443POPC   NC344435   3.293  37.920   5.341
 3443POPC   PO444436   3.909  37.597   5.325
 3443POPC   GL144437   3.744  37.523   5.750
 3443POPC   GL244438   3.375  37.433   5.691
 3443POPC   C1A44439   3.530  37.748   6.128
 3443POPC   D2A44440   3.319  37.840   6.567
 3443POPC   C3A44441   3.543  37.796   6.992
 3443POPC   C4A44442   3.530  37.881   7.434
 3443POPC   C1B44443   3.298  37.272   6.134
 3443POPC   C2B44444   3.440  37.297   6.601
 3443POPC   C3B44445   3.257  37.352   7.036
 3443POPC   C4B44446   3.408  37.404   7.456
 3444POPC   NC344447  28.487  22.774   5.490
 3444POPC   PO444448  28.114  23.280   5.380
 3444POPC   GL144449  28.197  23.120   5.787
 3444POPC   GL244450  28.531  23.130   5.877
 3444POPC   C1A44451  28.175  23.059   6.250
 3444POPC   D2A44452  28.449  23.149   6.612
 3444POPC   C3A44453  28.414  22.842   6.963
 3444POPC   C4A44454  28.135  22.881   7.333
 3444POPC   C1B44455  28.656  22.813   6.219
 3444POPC   C2B44456  28.913  22.683   6.620
 3444POPC   C3B44457  28.847  22.537   7.066
 3444POPC   C4B44458  28.705  22.782   7.452
 3445POPC   NC344459  37.334   1.982   5.351
 3445POPC   PO444460  38.076   2.053   5.352
 3445POPC   GL144461  37.936   2.019   5.784
 3445POPC   GL244462  37.590   2.037   5.814
 3445POPC   C1A44463  37.993   2.071   6.242
 3445POPC   D2A44464  37.720   2.131   6.596
 3445POPC   C3A44465  37.843   2.283   6.963
 3445POPC   C4A44466  37.711   2.054   7.302
 3445POPC   C1B44467  37.542   1.855   6.182
 3445POPC   C2B44468  37.306   1.815   6.529
 3445POPC   C3B44469  37.420   1.827   6.945
 3445POPC   C4B44470  37.260   1.745   7.329
 3446POPC   NC344471  22.459  12.070   5.408
 3446POPC   PO444472  21.929  12.475   5.263
 3446POPC   GL144473  22.051  12.293   5.727
 3446POPC   GL244474  22.117  11.917   5.765
 3446POPC   C1A44475  22.203  12.299   6.199
 3446POPC   D2A44476  22.452  12.534   6.549
 3446POPC   C3A44477  22.376  12.297   6.918
 3446POPC   C4A44478  21.980  12.231   7.171
 3446POPC   C1B44479  22.101  11.766   6.197
 3446POPC   C2B44480  22.129  11.955   6.610
 3446POPC   C3B44481  22.144  11.771   7.007
 3446POPC   C4B44482  21.877  11.761   7.363
 3447POPC   NC344483  33.225  38.448   5.398
 3447POPC   PO444484  32.620  38.193   5.360
 3447POPC   GL144485  32.866  38.274   5.733
 3447POPC   GL244486  32.791  38.601   5.863
 3447POPC   C1A44487  33.007  38.212   6.162
 3447POPC   D2A44488  32.878  38.430   6.536
 3447POPC   C3A44489  32.965  38.236   6.941
 3447POPC   C4A44490  32.850  38.466   7.284
 3447POPC   C1B44491  33.207  38.687   6.076
 3447POPC   C2B44492  33.412  38.758   6.487
 3447POPC   C3B44493  33.228  38.678   6.919
 3447POPC   C4B44494  33.193  38.808   7.360
 3448POPC   NC344495  25.332  16.121   5.443
 3448POPC   PO444496  25.265  15.463   5.331
 3448POPC   GL144497  25.235  15.712   5.718
 3448POPC   GL244498  25.572  15.790   5.853
 3448POPC   C1A44499  25.123  15.966   6.092
 3448POPC   D2A44500  25.076  15.831   6.528
 3448POPC   C3A44501  25.226  15.998   6.903
 3448POPC   C4A44502  25.302  16.112   7.312
 3448POPC   C1B44503  25.591  15.958   6.306
 3448POPC   C2B44504  25.643  15.763   6.729
 3448POPC   C3B44505  25.480  15.642   7.163
 3448POPC   C4B44506  25.509  15.379   7.551
 3449POPC   NC344507  31.516  38.296   5.596
 3449POPC   PO444508  31.397  38.976   5.411
 3449POPC   GL144509  31.518  38.759   5.806
 3449POPC   GL244510  31.177  38.575   5.876
 3449POPC   C1A44511  31.577  38.543   6.222
 3449POPC   D2A44512  31.417  38.365   6.599
 3449POPC   C3A44513  31.658  38.479   6.947
 3449POPC   C4A44514  31.595  38.331   7.350
 3449POPC   C1B44515  31.012  38.763   6.269
 3449POPC   C2B44516  31.019  38.672   6.712
 3449POPC   C3B44517  31.168  38.462   7.077
 3449POPC   C4B44518  31.222  38.652   7.514
 3450POPC   NC344519   6.895  26.423   5.580
 3450POPC   PO444520   6.497  26.876   5.285
 3450POPC   GL144521   6.488  26.759   5.752
 3450POPC   GL244522   6.801  26.864   5.825
 3450POPC   C1A44523   6.611  26.536   6.172
 3450POPC   D2A44524   6.551  26.547   6.615
 3450POPC   C3A44525   6.830  26.675   6.924
 3450POPC   C4A44526   6.552  26.661   7.273
 3450POPC   C1B44527   6.620  27.044   6.208
 3450POPC   C2B44528   6.700  27.103   6.639
 3450POPC   C3B44529   6.635  27.108   7.067
 3450POPC   C4B44530   6.752  27.115   7.499
 3451POPC   NC344531  44.812   6.868   5.487
 3451POPC   PO444532  44.381   6.458   5.076
 3451POPC   GL144533  44.339   6.586   5.608
 3451POPC   GL244534  44.625   6.567   5.845
 3451POPC   C1A44535  44.243   6.639   6.132
 3451POPC   D2A44536  44.560   6.671   6.479
 3451POPC   C3A44537  44.618   6.571   6.939
 3451POPC   C4A44538  44.634   6.767   7.355
 3451POPC   C1B44539  44.903   6.447   6.165
 3451POPC   C2B44540   0.163   6.340   6.483
 3451POPC   C3B44541   0.114   6.352   6.898
 3451POPC   C4B44542   0.102   6.585   7.263
 3452POPC   NC344543  10.531   1.511   5.440
 3452POPC   PO444544  10.217   0.925   5.519
 3452POPC   GL144545  10.213   1.261   5.787
 3452POPC   GL244546  10.589   1.223   5.862
 3452POPC   C1A44547  10.258   1.244   6.228
 3452POPC   D2A44548  10.581   1.336   6.465
 3452POPC   C3A44549  10.344   1.306   6.781
 3452POPC   C4A44550  10.454   1.341   7.146
 3452POPC   C1B44551  10.829   0.983   6.162
 3452POPC   C2B44552  10.974   0.947   6.546
 3452POPC   C3B44553  10.790   1.032   6.885
 3452POPC   C4B44554  10.908   1.123   7.251
 3453POPC   NC344555   9.259  16.115   5.555
 3453POPC   PO444556   8.933  15.570   5.436
 3453POPC   GL144557   8.767  15.767   5.816
 3453POPC   GL244558   8.758  16.135   5.804
 3453POPC   C1A44559   8.889  15.826   6.258
 3453POPC   D2A44560   8.978  16.086   6.602
 3453POPC   C3A44561   9.121  15.876   6.953
 3453POPC   C4A44562   9.375  15.680   7.220
 3453POPC   C1B44563   8.748  16.360   6.219
 3453POPC   C2B44564   8.654  16.491   6.664
 3453POPC   C3B44565   8.799  16.260   7.052
 3453POPC   C4B44566   8.759  16.182   7.540
 3454POPC   NC344567   6.690  44.053   5.522
 3454POPC   PO444568   6.803  43.418   5.457
 3454POPC   GL144569   6.710  43.634   5.849
 3454POPC   GL244570   6.382  43.700   5.826
 3454POPC   C1A44571   6.604  43.829   6.278
 3454POPC   D2A44572   6.922  43.879   6.584
 3454POPC   C3A44573   6.894  44.120   6.917
 3454POPC   C4A44574   6.699  43.959   7.240
 3454POPC   C1B44575   6.325  43.418   6.115
 3454POPC   C2B44576   6.327  43.444   6.530
 3454POPC   C3B44577   6.467  43.743   6.827
 3454POPC   C4B44578   6.351  43.576   7.195
 3455POPC   NC344579  27.378   0.350   5.115
 3455POPC   PO444580  27.720   0.689   5.628
 3455POPC   GL144581  27.602   0.318   5.775
 3455POPC   GL244582  27.981   0.246   5.856
 3455POPC   C1A44583  27.310   0.373   6.148
 3455POPC   D2A44584  27.487   0.557   6.524
 3455POPC   C3A44585  27.522   0.325   6.874
 3455POPC   C4A44586  27.602   0.359   7.322
 3455POPC   C1B44587  27.768   0.175   6.242
 3455POPC   C2B44588  27.836  44.984   6.619
 3455POPC   C3B44589  27.995   0.180   6.975
 3455POPC   C4B44590  28.121   0.290   7.360
 3456POPC   NC344591  34.785   6.594   5.278
 3456POPC   PO444592  34.283   6.868   5.448
 3456POPC   GL144593  34.596   6.777   5.760
 3456POPC   GL244594  34.647   6.447   5.755
 3456POPC   C1A44595  34.685   6.724   6.205
 3456POPC   D2A44596  34.901   6.531   6.555
 3456POPC   C3A44597  34.681   6.640   6.952
 3456POPC   C4A44598  34.500   6.818   7.350
 3456POPC   C1B44599  34.919   6.272   6.089
 3456POPC   C2B44600  34.861   6.021   6.488
 3456POPC   C3B44601  34.858   6.162   6.926
 3456POPC   C4B44602  34.751   6.346   7.380
 3457POPC   NC344603  20.903  12.418   5.556
 3457POPC   PO444604  20.587  11.772   5.598
 3457POPC   GL144605  20.576  12.086   5.923
 3457POPC   GL244606  20.916  12.062   5.926
 3457POPC   C1A44607  20.579  12.358   6.306
 3457POPC   D2A44608  20.733  12.337   6.740
 3457POPC   C3A44609  20.518  12.192   7.097
 3457POPC   C4A44610  20.377  11.918   7.414
 3457POPC   C1B44611  20.989  12.067   6.337
 3457POPC   C2B44612  21.162  11.891   6.666
 3457POPC   C3B44613  20.963  11.861   7.011
 3457POPC   C4B44614  21.007  12.236   7.183
 3458POPC   NC344615  14.312  32.828   5.457
 3458POPC   PO444616  14.706  33.336   5.475
 3458POPC   GL144617  14.536  33.102   5.836
 3458POPC   GL244618  14.179  33.143   5.842
 3458POPC   C1A44619  14.591  33.255   6.283
 3458POPC   D2A44620  14.621  33.048   6.689
 3458POPC   C3A44621  14.622  33.184   7.146
 3458POPC   C4A44622  14.666  33.229   7.619
 3458POPC   C1B44623  14.249  32.889   6.209
 3458POPC   C2B44624  14.138  32.795   6.627
 3458POPC   C3B44625  14.191  32.927   7.055
 3458POPC   C4B44626  14.320  32.883   7.476
 3459POPC   NC344627   3.315  16.742   5.511
 3459POPC   PO444628   3.921  16.484   5.419
 3459POPC   GL144629   3.698  16.559   5.816
 3459POPC   GL244630   3.933  16.756   5.949
 3459POPC   C1A44631   3.442  16.749   6.164
 3459POPC   D2A44632   3.565  16.828   6.563
 3459POPC   C3A44633   3.425  16.924   6.947
 3459POPC   C4A44634   3.486  16.883   7.417
 3459POPC   C1B44635   3.995  16.975   6.336
 3459POPC   C2B44636   3.846  17.219   6.706
 3459POPC   C3B44637   3.868  17.087   7.118
 3459POPC   C4B44638   4.047  16.939   7.471
 3460POPC   NC344639  39.954  11.967   5.375
 3460POPC   PO444640  40.492  12.396   5.467
 3460POPC   GL144641  40.176  12.157   5.802
 3460POPC   GL244642  39.792  12.068   5.850
 3460POPC   C1A44643  40.016  12.269   6.255
 3460POPC   D2A44644  39.836  12.432   6.664
 3460POPC   C3A44645  39.841  12.118   6.970
 3460POPC   C4A44646  40.267  12.074   7.039
 3460POPC   C1B44647  39.977  11.764   6.144
 3460POPC   C2B44648  40.124  11.867   6.576
 3460POPC   C3B44649  40.103  11.611   6.959
 3460POPC   C4B44650  39.769  11.639   7.179
 3461POPC   NC344651   9.660  39.447   5.087
 3461POPC   PO444652   9.595  38.910   5.318
 3461POPC   GL144653   9.788  39.039   5.731
 3461POPC   GL244654  10.072  38.821   5.811
 3461POPC   C1A44655   9.838  39.336   6.142
 3461POPC   D2A44656   9.714  39.589   6.547
 3461POPC   C3A44657   9.781  39.463   6.992
 3461POPC   C4A44658   9.558  39.199   7.277
 3461POPC   C1B44659   9.776  38.837   6.200
 3461POPC   C2B44660   9.839  39.082   6.605
 3461POPC   C3B44661   9.964  38.960   7.004
 3461POPC   C4B44662   9.845  38.637   7.314
 3462POPC   NC344663  28.196  40.262   5.449
 3462POPC   PO444664  28.722  40.005   5.192
 3462POPC   GL144665  28.637  39.960   5.690
 3462POPC   GL244666  28.297  39.912   5.797
 3462POPC   C1A44667  28.576  40.153   6.167
 3462POPC   D2A44668  28.362  40.069   6.591
 3462POPC   C3A44669  28.514  40.188   7.019
 3462POPC   C4A44670  28.742  40.223   7.412
 3462POPC   C1B44671  28.223  39.700   6.189
 3462POPC   C2B44672  28.339  39.549   6.600
 3462POPC   C3B44673  28.293  39.709   7.003
 3462POPC   C4B44674  28.609  39.756   7.282
 3463POPC   NC344675  27.822  32.519   5.604
 3463POPC   PO444676  28.408  32.872   5.363
 3463POPC   GL144677  28.357  32.955   5.758
 3463POPC   GL244678  28.353  33.288   5.720
 3463POPC   C1A44679  28.522  32.838   6.180
 3463POPC   D2A44680  28.418  32.657   6.568
 3463POPC   C3A44681  28.566  32.808   6.938
 3463POPC   C4A44682  28.387  32.966   7.312
 3463POPC   C1B44683  28.265  33.278   6.137
 3463POPC   C2B44684  28.162  33.112   6.529
 3463POPC   C3B44685  28.261  33.249   6.910
 3463POPC   C4B44686  28.268  33.469   7.296
 3464POPC   NC344687  39.435  27.768   5.457
 3464POPC   PO444688  38.856  27.438   5.463
 3464POPC   GL144689  39.096  27.601   5.847
 3464POPC   GL244690  39.391  27.726   5.940
 3464POPC   C1A44691  39.094  27.744   6.332
 3464POPC   D2A44692  39.371  27.709   6.687
 3464POPC   C3A44693  39.232  27.801   7.112
 3464POPC   C4A44694  38.952  27.475   7.240
 3464POPC   C1B44695  39.418  27.303   6.139
 3464POPC   C2B44696  39.449  27.193   6.570
 3464POPC   C3B44697  39.373  27.317   7.004
 3464POPC   C4B44698  39.674  27.571   7.206
 3465POPC   NC344699  21.474   8.636   5.258
 3465POPC   PO444700  21.357   9.245   5.269
 3465POPC   GL144701  21.515   8.983   5.641
 3465POPC   GL244702  21.390   8.623   5.769
 3465POPC   C1A44703  21.476   9.010   6.100
 3465POPC   D2A44704  21.263   8.906   6.506
 3465POPC   C3A44705  21.429   9.018   6.902
 3465POPC   C4A44706  21.236   8.918   7.276
 3465POPC   C1B44707  21.543   8.504   6.212
 3465POPC   C2B44708  21.640   8.604   6.648
 3465POPC   C3B44709  21.524   8.543   7.070
 3465POPC   C4B44710  21.691   8.715   7.454
 3466POPC   NC344711   5.217   2.190   5.557
 3466POPC   PO444712   4.872   2.888   5.464
 3466POPC   GL144713   5.197   2.858   5.815
 3466POPC   GL244714   5.271   2.537   5.930
 3466POPC   C1A44715   5.218   2.951   6.262
 3466POPC   D2A44716   4.930   3.078   6.577
 3466POPC   C3A44717   5.121   3.009   6.984
 3466POPC   C4A44718   4.953   2.907   7.388
 3466POPC   C1B44719   5.136   2.390   6.333
 3466POPC   C2B44720   5.187   2.536   6.733
 3466POPC   C3B44721   4.956   2.491   7.086
 3466POPC   C4B44722   5.130   2.400   7.455
 3467POPC   NC344723  32.570  35.424   5.580
 3467POPC   PO444724  32.074  35.052   5.486
 3467POPC   GL144725  32.130  35.328   5.832
 3467POPC   GL244726  32.217  35.034   5.990
 3467POPC   C1A44727  32.178  35.472   6.291
 3467POPC   D2A44728  32.162  35.688   6.714
 3467POPC   C3A44729  32.538  35.579   6.965
 3467POPC   C4A44730  32.392  35.253   7.218
 3467POPC   C1B44731  31.931  34.905   6.283
 3467POPC   C2B44732  31.991  35.069   6.674
 3467POPC   C3B44733  32.059  34.893   7.062
 3467POPC   C4B44734  31.812  35.016   7.369
 3468POPC   NC344735  19.738  19.778   5.302
 3468POPC   PO444736  20.321  20.041   5.351
 3468POPC   GL144737  20.068  19.864   5.707
 3468POPC   GL244738  19.661  19.882   5.798
 3468POPC   C1A44739  20.023  19.880   6.165
 3468POPC   D2A44740  19.725  19.888   6.515
 3468POPC   C3A44741  19.888  19.894   6.935
 3468POPC   C4A44742  20.032  19.508   7.092
 3468POPC   C1B44743  19.460  19.606   6.118
 3468POPC   C2B44744  19.262  19.640   6.538
 3468POPC   C3B44745  19.385  19.687   6.953
 3468POPC   C4B44746  19.337  19.410   7.283
 3469POPC   NC344747  39.589  37.763   5.386
 3469POPC   PO444748  38.998  37.374   5.526
 3469POPC   GL144749  39.093  37.554   5.907
 3469POPC   GL244750  39.271  37.271   6.037
 3469POPC   C1A44751  39.244  37.821   6.265
 3469POPC   D2A44752  39.576  37.960   6.586
 3469POPC   C3A44753  39.477  37.971   7.033
 3469POPC   C4A44754  39.245  37.822   7.404
 3469POPC   C1B44755  39.031  37.393   6.404
 3469POPC   C2B44756  39.140  37.648   6.768
 3469POPC   C3B44757  39.450  37.468   7.069
 3469POPC   C4B44758  39.474  37.344   7.492
 3470POPC   NC344759   6.895  10.256   5.548
 3470POPC   PO444760   6.583  10.872   5.462
 3470POPC   GL144761   6.562  10.676   5.831
 3470POPC   GL244762   6.431  10.332   5.838
 3470POPC   C1A44763   6.812  10.569   6.176
 3470POPC   D2A44764   6.795  10.206   6.439
 3470POPC   C3A44765   6.745  10.361   6.867
 3470POPC   C4A44766   6.825  10.486   7.307
 3470POPC   C1B44767   6.311  10.501   6.266
 3470POPC   C2B44768   6.371  10.689   6.685
 3470POPC   C3B44769   6.361  10.562   7.156
 3470POPC   C4B44770   6.440  10.551   7.654
 3471POPC   NC344771   2.221   5.956   5.287
 3471POPC   PO444772   1.663   5.637   5.316
 3471POPC   GL144773   1.950   5.735   5.712
 3471POPC   GL244774   2.070   6.104   5.772
 3471POPC   C1A44775   2.001   5.813   6.176
 3471POPC   D2A44776   2.005   5.982   6.588
 3471POPC   C3A44777   2.202   5.718   6.910
 3471POPC   C4A44778   2.057   5.746   7.342
 3471POPC   C1B44779   2.305   6.233   6.196
 3471POPC   C2B44780   2.478   6.104   6.644
 3471POPC   C3B44781   2.321   6.208   7.074
 3471POPC   C4B44782   2.341   6.129   7.537
 3472POPC   NC344783  30.569   6.446   5.389
 3472POPC   PO444784  30.404   7.116   5.422
 3472POPC   GL144785  30.654   6.918   5.783
 3472POPC   GL244786  31.037   7.000   5.824
 3472POPC   C1A44787  30.776   6.600   6.113
 3472POPC   D2A44788  30.515   6.363   6.407
 3472POPC   C3A44789  30.637   6.431   6.829
 3472POPC   C4A44790  30.618   6.383   7.256
 3472POPC   C1B44791  30.876   7.100   6.210
 3472POPC   C2B44792  30.925   6.891   6.565
 3472POPC   C3B44793  31.028   7.065   6.922
 3472POPC   C4B44794  30.923   6.761   7.173
 3473POPC   NC344795  11.006  38.307   5.405
 3473POPC   PO444796  10.327  38.441   5.408
 3473POPC   GL144797  10.563  38.314   5.753
 3473POPC   GL244798  10.588  38.617   5.875
 3473POPC   C1A44799  10.680  38.183   6.212
 3473POPC   D2A44800  10.870  38.105   6.651
 3473POPC   C3A44801  10.596  38.124   7.064
 3473POPC   C4A44802  10.670  38.082   7.563
 3473POPC   C1B44803  10.671  38.720   6.295
 3473POPC   C2B44804  10.531  38.496   6.663
 3473POPC   C3B44805  10.278  38.518   7.066
 3473POPC   C4B44806  10.388  38.541   7.533
 3474POPC   NC344807  19.828  21.990   5.584
 3474POPC   PO444808  19.486  22.397   5.147
 3474POPC   GL144809  19.647  22.450   5.665
 3474POPC   GL244810  19.440  22.221   5.806
 3474POPC   C1A44811  19.742  22.313   6.195
 3474POPC   D2A44812  19.922  22.087   6.627
 3474POPC   C3A44813  19.987  22.372   7.033
 3474POPC   C4A44814  19.635  22.555   7.318
 3474POPC   C1B44815  19.454  21.876   6.175
 3474POPC   C2B44816  19.387  21.975   6.627
 3474POPC   C3B44817  19.530  22.144   7.010
 3474POPC   C4B44818  19.481  22.089   7.466
 3475POPC   NC344819   5.482  21.998   5.364
 3475POPC   PO444820   4.882  22.301   5.381
 3475POPC   GL144821   5.109  22.099   5.736
 3475POPC   GL244822   5.420  22.254   5.811
 3475POPC   C1A44823   5.031  21.973   6.171
 3475POPC   D2A44824   5.058  22.129   6.593
 3475POPC   C3A44825   5.058  21.858   6.962
 3475POPC   C4A44826   5.104  22.118   7.323
 3475POPC   C1B44827   5.572  22.455   6.191
 3475POPC   C2B44828   5.448  22.472   6.617
 3475POPC   C3B44829   5.488  22.233   6.989
 3475POPC   C4B44830   5.644  22.355   7.388
 3476POPC   NC344831  29.806  22.115   5.413
 3476POPC   PO444832  30.300  22.615   5.219
 3476POPC   GL144833  30.152  22.429   5.647
 3476POPC   GL244834  30.069  22.090   5.844
 3476POPC   C1A44835  30.100  22.537   6.100
 3476POPC   D2A44836  29.945  22.299   6.453
 3476POPC   C3A44837  30.139  22.153   6.819
 3476POPC   C4A44838  30.035  22.395   7.177
 3476POPC   C1B44839  29.673  22.074   6.082
 3476POPC   C2B44840  29.557  21.959   6.502
 3476POPC   C3B44841  29.552  21.806   6.924
 3476POPC   C4B44842  29.892  21.898   7.237
 3477POPC   NC344843  28.461  14.668   5.379
 3477POPC   PO444844  28.088  14.117   5.582
 3477POPC   GL144845  28.336  14.379   5.833
 3477POPC   GL244846  28.672  14.343   5.728
 3477POPC   C1A44847  28.356  14.532   6.275
 3477POPC   D2A44848  28.369  14.597   6.726
 3477POPC   C3A44849  28.623  14.520   7.069
 3477POPC   C4A44850  28.355  14.538   7.427
 3477POPC   C1B44851  28.714  14.173   6.150
 3477POPC   C2B44852  28.512  14.111   6.553
 3477POPC   C3B44853  28.721  13.983   6.931
 3477POPC   C4B44854  28.765  14.114   7.365
 3478POPC   NC344855  28.592   7.896   5.520
 3478POPC   PO444856  28.216   8.451   5.442
 3478POPC   GL144857  28.244   8.177   5.808
 3478POPC   GL244858  28.469   8.430   5.926
 3478POPC   C1A44859  28.280   8.134   6.289
 3478POPC   D2A44860  28.061   8.110   6.683
 3478POPC   C3A44861  28.378   8.212   7.004
 3478POPC   C4A44862  28.476   7.917   7.363
 3478POPC   C1B44863  28.060   8.556   6.087
 3478POPC   C2B44864  28.080   8.606   6.536
 3478POPC   C3B44865  27.967   8.551   6.980
 3478POPC   C4B44866  28.212   8.566   7.373
 3479POPC   NC344867  20.255   8.572   5.572
 3479POPC   PO444868  19.717   8.977   5.325
 3479POPC   GL144869  19.806   9.164   5.788
 3479POPC   GL244870  20.187   9.108   5.820
 3479POPC   C1A44871  19.602   9.194   6.211
 3479POPC   D2A44872  19.452   9.272   6.640
 3479POPC   C3A44873  19.573   8.938   6.948
 3479POPC   C4A44874  19.659   8.572   7.203
 3479POPC   C1B44875  20.093   8.996   6.256
 3479POPC   C2B44876  19.974   9.094   6.665
 3479POPC   C3B44877  20.062   8.820   7.012
 3479POPC   C4B44878  20.215   8.793   7.418
 3480POPC   NC344879  24.164  40.278   5.507
 3480POPC   PO444880  24.151  40.891   5.419
 3480POPC   GL144881  24.311  40.901   5.826
 3480POPC   GL244882  24.313  40.580   5.968
 3480POPC   C1A44883  24.157  41.041   6.237
 3480POPC   D2A44884  24.199  40.779   6.621
 3480POPC   C3A44885  24.334  40.932   7.013
 3480POPC   C4A44886  24.644  40.788   7.327
 3480POPC   C1B44887  24.258  40.337   6.361
 3480POPC   C2B44888  24.393  40.204   6.792
 3480POPC   C3B44889  24.376  40.353   7.233
 3480POPC   C4B44890  24.550  40.320   7.663
 3481POPC   NC344891  37.299  34.617   5.402
 3481POPC   PO444892  36.685  34.880   5.281
 3481POPC   GL144893  36.861  34.729   5.765
 3481POPC   GL244894  37.173  34.526   5.875
 3481POPC   C1A44895  36.830  34.542   6.236
 3481POPC   D2A44896  37.078  34.418   6.619
 3481POPC   C3A44897  36.902  34.457   7.085
 3481POPC   C4A44898  36.525  34.569   7.375
 3481POPC   C1B44899  37.312  34.825   6.191
 3481POPC   C2B44900  37.234  34.916   6.624
 3481POPC   C3B44901  37.357  34.654   6.968
 3481POPC   C4B44902  37.315  34.649   7.418
 3482POPC   NC344903   6.139  13.898   5.012
 3482POPC   PO444904   5.992  13.413   5.392
 3482POPC   GL144905   5.895  13.248   5.784
 3482POPC   GL244906   6.136  13.465   5.965
 3482POPC   C1A44907   5.818  13.194   6.225
 3482POPC   D2A44908   6.068  13.355   6.546
 3482POPC   C3A44909   5.860  13.336   6.930
 3482POPC   C4A44910   6.094  13.279   7.326
 3482POPC   C1B44911   6.019  13.795   6.265
 3482POPC   C2B44912   5.969  13.856   6.692
 3482POPC   C3B44913   6.008  13.999   7.067
 3482POPC   C4B44914   5.854  13.716   7.292
 3483POPC   NC344915  22.812  41.945   5.193
 3483POPC   PO444916  23.255  42.320   5.611
 3483POPC   GL144917  23.053  42.112   5.891
 3483POPC   GL244918  22.692  42.177   5.995
 3483POPC   C1A44919  23.117  42.078   6.276
 3483POPC   D2A44920  22.897  42.191   6.622
 3483POPC   C3A44921  23.115  42.096   6.975
 3483POPC   C4A44922  22.992  42.365   7.288
 3483POPC   C1B44923  22.672  42.536   6.292
 3483POPC   C2B44924  22.822  42.732   6.664
 3483POPC   C3B44925  22.637  42.714   7.060
 3483POPC   C4B44926  22.497  42.482   7.417
 3484POPC   NC344927  34.178  15.341   5.403
 3484POPC   PO444928  34.786  15.071   5.259
 3484POPC   GL144929  34.596  15.066   5.695
 3484POPC   GL244930  34.872  14.853   5.824
 3484POPC   C1A44931  34.598  15.286   6.111
 3484POPC   D2A44932  34.797  15.155   6.497
 3484POPC   C3A44933  34.591  15.239   6.896
 3484POPC   C4A44934  34.191  15.332   7.049
 3484POPC   C1B44935  34.929  14.535   6.153
 3484POPC   C2B44936  35.083  14.628   6.557
 3484POPC   C3B44937  34.841  14.792   6.859
 3484POPC   C4B44938  34.738  14.851   7.238
 3485POPC   NC344939  26.620  26.466   5.591
 3485POPC   PO444940  26.991  26.996   5.496
 3485POPC   GL144941  26.758  27.036   5.819
 3485POPC   GL244942  26.916  26.762   5.958
 3485POPC   C1A44943  26.719  27.153   6.218
 3485POPC   D2A44944  26.805  26.851   6.513
 3485POPC   C3A44945  26.810  27.059   6.876
 3485POPC   C4A44946  26.730  27.007   7.277
 3485POPC   C1B44947  27.149  26.534   6.275
 3485POPC   C2B44948  27.010  26.386   6.633
 3485POPC   C3B44949  26.923  26.562   7.004
 3485POPC   C4B44950  27.220  26.446   7.294
 3486POPC   NC344951  15.411  39.971   5.512
 3486POPC   PO444952  14.756  39.681   5.489
 3486POPC   GL144953  15.045  39.714   5.819
 3486POPC   GL244954  15.014  40.077   5.840
 3486POPC   C1A44955  15.086  39.748   6.263
 3486POPC   D2A44956  14.831  39.933   6.554
 3486POPC   C3A44957  14.879  39.840   6.982
 3486POPC   C4A44958  15.046  39.565   7.267
 3486POPC   C1B44959  15.246  40.212   6.212
 3486POPC   C2B44960  15.211  40.291   6.660
 3486POPC   C3B44961  15.245  40.162   7.113
 3486POPC   C4B44962  15.317  40.419   7.487
 3487POPC   NC344963  44.197  24.775   5.509
 3487POPC   PO444964  43.534  24.540   5.367
 3487POPC   GL144965  43.755  24.489   5.776
 3487POPC   GL244966  44.112  24.409   5.860
 3487POPC   C1A44967  43.750  24.279   6.183
 3487POPC   D2A44968  43.731  24.507   6.550
 3487POPC   C3A44969  43.762  24.412   6.975
 3487POPC   C4A44970  43.676  24.715   7.296
 3487POPC   C1B44971  44.060  24.724   6.203
 3487POPC   C2B44972  44.144  24.816   6.646
 3487POPC   C3B44973  44.099  24.903   7.087
 3487POPC   C4B44974  44.363  24.749   7.453
 3488POPC   NC344975  31.124  18.917   5.392
 3488POPC   PO444976  31.673  19.286   5.453
 3488POPC   GL144977  31.394  19.205   5.744
 3488POPC   GL244978  31.650  19.261   5.976
 3488POPC   C1A44979  31.284  18.940   6.084
 3488POPC   D2A44980  31.178  19.178   6.436
 3488POPC   C3A44981  31.140  19.039   6.851
 3488POPC   C4A44982  31.406  19.058   7.229
 3488POPC   C1B44983  31.813  19.019   6.293
 3488POPC   C2B44984  32.065  19.104   6.651
 3488POPC   C3B44985  31.917  18.933   7.011
 3488POPC   C4B44986  31.893  19.209   7.313
 3489POPC   NC344987   4.392  40.733   5.377
 3489POPC   PO444988   3.955  41.220   5.336
 3489POPC   GL144989   4.200  41.039   5.747
 3489POPC   GL244990   4.277  40.663   5.853
 3489POPC   C1A44991   4.333  40.996   6.218
 3489POPC   D2A44992   4.229  40.775   6.641
 3489POPC   C3A44993   4.199  41.011   7.037
 3489POPC   C4A44994   4.007  41.005   7.446
 3489POPC   C1B44995   4.425  40.481   6.269
 3489POPC   C2B44996   4.690  40.493   6.638
 3489POPC   C3B44997   4.563  40.638   7.016
 3489POPC   C4B44998   4.165  40.496   7.164
 3490POPC   NC344999  39.901  41.879   5.465
 3490POPC   PO445000  39.898  42.564   5.451
 3490POPC   GL145001  39.884  42.344   5.826
 3490POPC   GL245002  39.681  41.971   5.894
 3490POPC   C1A45003  40.131  42.429   6.229
 3490POPC   D2A45004  40.402  42.139   6.515
 3490POPC   C3A45005  40.267  42.195   6.942
 3490POPC   C4A45006  40.041  41.896   7.192
 3490POPC   C1B45007  39.712  42.160   6.251
 3490POPC   C2B45008  39.869  42.105   6.631
 3490POPC   C3B45009  39.647  41.840   6.887
 3490POPC   C4B45010  39.535  41.880   7.289
 3491POPC   NC345011  12.066   4.657   5.397
 3491POPC   PO445012  11.664   4.043   5.211
 3491POPC   GL145013  12.028   4.203   5.580
 3491POPC   GL245014  11.768   4.444   5.725
 3491POPC   C1A45015  12.173   4.319   6.048
 3491POPC   D2A45016  12.448   4.364   6.432
 3491POPC   C3A45017  12.310   4.410   6.876
 3491POPC   C4A45018  12.080   4.187   7.154
 3491POPC   C1B45019  11.744   4.593   6.128
 3491POPC   C2B45020  11.929   4.473   6.513
 3491POPC   C3B45021  11.698   4.381   6.883
 3491POPC   C4B45022  11.805   4.585   7.268
 3492POPC   NC345023  13.510  13.767   5.403
 3492POPC   PO445024  13.557  14.498   5.437
 3492POPC   GL145025  13.756  14.390   5.824
 3492POPC   GL245026  13.679  14.060   5.801
 3492POPC   C1A45027  13.910  14.434   6.283
 3492POPC   D2A45028  14.013  14.741   6.626
 3492POPC   C3A45029  13.895  14.661   7.042
 3492POPC   C4A45030  13.671  14.355   7.218
 3492POPC   C1B45031  13.451  14.212   6.218
 3492POPC   C2B45032  13.545  14.334   6.674
 3492POPC   C3B45033  13.271  14.146   7.003
 3492POPC   C4B45034  13.293  14.114   7.436
 3493POPC   NC345035  33.367   8.539   5.487
 3493POPC   PO445036  32.815   9.033   5.530
 3493POPC   GL145037  32.991   8.965   5.903
 3493POPC   GL245038  33.308   8.825   5.906
 3493POPC   C1A45039  33.004   8.915   6.328
 3493POPC   D2A45040  32.831   9.123   6.640
 3493POPC   C3A45041  32.913   8.964   7.024
 3493POPC   C4A45042  32.697   9.138   7.366
 3493POPC   C1B45043  33.467   9.109   6.248
 3493POPC   C2B45044  33.363   9.067   6.703
 3493POPC   C3B45045  33.484   9.091   7.132
 3493POPC   C4B45046  33.186   9.052   7.463
 3494POPC   NC345047  15.928   6.753   5.244
 3494POPC   PO445048  15.915   7.429   5.241
 3494POPC   GL145049  16.061   7.390   5.687
 3494POPC   GL245050  15.757   7.261   5.801
 3494POPC   C1A45051  15.952   7.573   6.133
 3494POPC   D2A45052  16.000   7.431   6.536
 3494POPC   C3A45053  15.866   7.537   6.942
 3494POPC   C4A45054  16.039   7.469   7.329
 3494POPC   C1B45055  15.676   7.123   6.237
 3494POPC   C2B45056  15.386   7.142   6.556
 3494POPC   C3B45057  15.525   7.169   6.926
 3494POPC   C4B45058  15.612   7.049   7.297
 3495POPC   NC345059  18.441  31.721   5.407
 3495POPC   PO445060  18.083  31.143   5.504
 3495POPC   GL145061  18.301  31.418   5.822
 3495POPC   GL245062  18.245  31.787   5.855
 3495POPC   C1A45063  18.476  31.485   6.240
 3495POPC   D2A45064  18.219  31.531   6.647
 3495POPC   C3A45065  18.371  31.550   7.087
 3495POPC   C4A45066  18.215  31.359   7.493
 3495POPC   C1B45067  18.024  31.766   6.201
 3495POPC   C2B45068  17.898  31.928   6.569
 3495POPC   C3B45069  17.913  31.799   6.990
 3495POPC   C4B45070  18.093  31.885   7.387
 3496POPC   NC345071  12.511   1.339   5.355
 3496POPC   PO445072  13.106   1.331   4.986
 3496POPC   GL145073  12.963   1.375   5.562
 3496POPC   GL245074  13.016   1.045   5.794
 3496POPC   C1A45075  12.693   1.385   5.989
 3496POPC   D2A45076  12.526   1.159   6.377
 3496POPC   C3A45077  12.658   1.221   6.810
 3496POPC   C4A45078  12.655   1.269   7.254
 3496POPC   C1B45079  13.196   1.303   6.147
 3496POPC   C2B45080  13.372   1.463   6.545
 3496POPC   C3B45081  13.193   1.221   6.879
 3496POPC   C4B45082  13.186   1.151   7.303
 3497POPC   NC345083  12.401   2.328   5.455
 3497POPC   PO445084  12.101   2.912   5.252
 3497POPC   GL145085  12.155   2.677   5.707
 3497POPC   GL245086  12.513   2.679   5.843
 3497POPC   C1A45087  11.961   2.645   6.140
 3497POPC   D2A45088  11.964   2.887   6.549
 3497POPC   C3A45089  11.840   2.671   6.937
 3497POPC   C4A45090  11.848   2.730   7.370
 3497POPC   C1B45091  12.455   2.768   6.318
 3497POPC   C2B45092  12.391   2.692   6.762
 3497POPC   C3B45093  12.298   2.773   7.190
 3497POPC   C4B45094  12.333   2.582   7.590
 3498POPC   NC345095  10.122   9.803   5.345
 3498POPC   PO445096  10.761   9.952   5.460
 3498POPC   GL145097  10.578  10.053   5.872
 3498POPC   GL245098  10.226  10.008   5.812
 3498POPC   C1A45099  10.683   9.848   6.294
 3498POPC   D2A45100  10.753   9.543   6.657
 3498POPC   C3A45101  10.657   9.786   7.023
 3498POPC   C4A45102  10.642  10.208   7.158
 3498POPC   C1B45103  10.370   9.594   5.983
 3498POPC   C2B45104  10.257   9.541   6.447
 3498POPC   C3B45105  10.140   9.425   6.888
 3498POPC   C4B45106  10.290   9.510   7.305
 3499POPC   NC345107  17.345   5.786   5.446
 3499POPC   PO445108  17.093   6.426   5.472
 3499POPC   GL145109  17.388   6.147   5.809
 3499POPC   GL245110  17.467   5.799   5.933
 3499POPC   C1A45111  17.638   6.187   6.197
 3499POPC   D2A45112  17.485   5.858   6.459
 3499POPC   C3A45113  17.512   5.927   6.860
 3499POPC   C4A45114  17.532   6.174   7.182
 3499POPC   C1B45115  17.165   5.563   6.149
 3499POPC   C2B45116  17.151   5.399   6.570
 3499POPC   C3B45117  17.207   5.542   6.957
 3499POPC   C4B45118  17.540   5.518   7.189
 3500POPC   NC345119  17.412  24.086   5.613
 3500POPC   PO445120  17.605  23.472   5.304
 3500POPC   GL145121  17.443  23.612   5.807
 3500POPC   GL245122  17.180  23.875   5.987
 3500POPC   C1A45123  17.560  23.750   6.285
 3500POPC   D2A45124  17.767  23.833   6.706
 3500POPC   C3A45125  17.512  23.824   7.063
 3500POPC   C4A45126  17.622  23.823   7.510
 3500POPC   C1B45127  17.228  24.213   6.259
 3500POPC   C2B45128  17.309  24.078   6.642
 3500POPC   C3B45129  17.207  24.234   7.007
 3500POPC   C4B45130  17.284  24.151   7.390
 3501POPC   NC345131   7.890  10.533   5.397
 3501POPC   PO445132   7.325  10.406   5.577
 3501POPC   GL145133   7.450  10.596   5.932
 3501POPC   GL245134   7.812  10.687   5.869
 3501POPC   C1A45135   7.279  10.340   6.273
 3501POPC   D2A45136   7.234  10.239   6.710
 3501POPC   C3A45137   7.271  10.580   7.033
 3501POPC   C4A45138   7.138  10.913   7.323
 3501POPC   C1B45139   7.800  10.309   6.138
 3501POPC   C2B45140   7.680  10.519   6.517
 3501POPC   C3B45141   7.786  10.498   6.925
 3501POPC   C4B45142   7.760  10.817   7.220
 3502POPC   NC345143   0.607   3.674   5.421
 3502POPC   PO445144   0.177   3.260   5.503
 3502POPC   GL145145   0.413   3.428   5.845
 3502POPC   GL245146   0.678   3.234   5.726
 3502POPC   C1A45147   0.453   3.345   6.308
 3502POPC   D2A45148   0.527   3.638   6.649
 3502POPC   C3A45149   0.342   3.795   7.031
 3502POPC   C4A45150   0.623   4.062   7.251
 3502POPC   C1B45151   0.901   3.242   6.090
 3502POPC   C2B45152   0.945   3.360   6.527
 3502POPC   C3B45153   0.826   3.270   6.956
 3502POPC   C4B45154   0.380   3.270   7.034
 3503POPC   NC345155   7.276  38.238   5.272
 3503POPC   PO445156   7.392  38.847   5.414
 3503POPC   GL145157   7.430  38.557   5.802
 3503POPC   GL245158   7.259  38.214   5.840
 3503POPC   C1A45159   7.385  38.644   6.276
 3503POPC   D2A45160   7.318  38.791   6.728
 3503POPC   C3A45161   7.302  38.545   7.110
 3503POPC   C4A45162   7.194  38.787   7.473
 3503POPC   C1B45163   7.608  38.204   6.165
 3503POPC   C2B45164   7.737  38.284   6.622
 3503POPC   C3B45165   7.680  38.187   7.063
 3503POPC   C4B45166   7.301  38.023   7.238
 3504POPC   NC345167  27.114  32.883   5.664
 3504POPC   PO445168  26.689  33.233   5.250
 3504POPC   GL145169  26.739  33.286   5.679
 3504POPC   GL245170  26.528  32.992   5.758
 3504POPC   C1A45171  26.669  33.287   6.138
 3504POPC   D2A45172  26.475  33.222   6.531
 3504POPC   C3A45173  26.763  32.999   6.791
 3504POPC   C4A45174  27.065  33.279   7.037
 3504POPC   C1B45175  26.506  32.759   6.174
 3504POPC   C2B45176  26.298  32.742   6.591
 3504POPC   C3B45177  26.328  32.824   7.033
 3504POPC   C4B45178  26.606  33.133   7.250
 3505POPC   NC345179  17.669  36.981   5.436
 3505POPC   PO445180  17.172  36.498   5.395
 3505POPC   GL145181  17.420  36.573   5.749
 3505POPC   GL245182  17.359  36.940   5.846
 3505POPC   C1A45183  17.399  36.560   6.181
 3505POPC   D2A45184  17.372  36.878   6.468
 3505POPC   C3A45185  17.463  36.819   6.914
 3505POPC   C4A45186  17.597  36.595   7.316
 3505POPC   C1B45187  17.707  37.060   6.127
 3505POPC   C2B45188  17.834  37.068   6.571
 3505POPC   C3B45189  17.750  37.266   6.947
 3505POPC   C4B45190  17.571  37.132   7.318
 3506POPC   NC345191  12.146  28.526   5.552
 3506POPC   PO445192  12.168  27.817   5.723
 3506POPC   GL145193  12.158  28.215   5.961
 3506POPC   GL245194  11.871  28.463   5.978
 3506POPC   C1A45195  12.065  28.304   6.405
 3506POPC   D2A45196  11.824  28.159   6.731
 3506POPC   C3A45197  12.036  28.209   7.088
 3506POPC   C4A45198  12.158  28.136   7.487
 3506POPC   C1B45199  12.149  28.772   6.201
 3506POPC   C2B45200  12.367  28.708   6.599
 3506POPC   C3B45201  12.363  28.662   7.048
 3506POPC   C4B45202  12.093  28.637   7.379
 3507POPC   NC345203   3.289  26.644   5.513
 3507POPC   PO445204   3.828  27.032   5.492
 3507POPC   GL145205   3.581  26.900   5.839
 3507POPC   GL245206   3.606  26.530   5.899
 3507POPC   C1A45207   3.620  26.934   6.253
 3507POPC   D2A45208   3.456  27.047   6.603
 3507POPC   C3A45209   3.361  26.855   6.968
 3507POPC   C4A45210   3.652  27.029   7.270
 3507POPC   C1B45211   3.243  26.502   6.211
 3507POPC   C2B45212   3.150  26.282   6.644
 3507POPC   C3B45213   3.241  26.373   7.098
 3507POPC   C4B45214   3.621  26.518   7.273
 3508POPC   NC345215  10.626  41.436   5.498
 3508POPC   PO445216  10.619  42.090   5.484
 3508POPC   GL145217  10.778  41.855   5.797
 3508POPC   GL245218  10.450  41.738   5.894
 3508POPC   C1A45219  10.828  41.850   6.243
 3508POPC   D2A45220  10.840  41.611   6.629
 3508POPC   C3A45221  10.570  41.777   6.954
 3508POPC   C4A45222  10.440  41.482   7.247
 3508POPC   C1B45223  10.393  41.596   6.340
 3508POPC   C2B45224  10.284  41.398   6.734
 3508POPC   C3B45225   9.994  41.574   7.018
 3508POPC   C4B45226  10.124  41.909   7.256
 3509POPC   NC345227  32.252  12.463   5.518
 3509POPC   PO445228  32.289  12.939   5.095
 3509POPC   GL145229  32.128  12.893   5.689
 3509POPC   GL245230  32.386  12.708   5.941
 3509POPC   C1A45231  32.060  13.058   6.133
 3509POPC   D2A45232  32.030  13.229   6.577
 3509POPC   C3A45233  32.047  12.935   6.953
 3509POPC   C4A45234  31.925  12.983   7.385
 3509POPC   C1B45235  32.248  12.485   6.307
 3509POPC   C2B45236  32.069  12.470   6.719
 3509POPC   C3B45237  32.296  12.340   7.060
 3509POPC   C4B45238  32.387  12.649   7.298
 3510POPC   NC345239  27.848  20.441   5.547
 3510POPC   PO445240  27.288  20.680   5.245
 3510POPC   GL145241  27.330  20.780   5.753
 3510POPC   GL245242  27.674  20.726   5.954
 3510POPC   C1A45243  27.230  20.754   6.181
 3510POPC   D2A45244  27.547  20.764   6.522
 3510POPC   C3A45245  27.445  20.603   6.918
 3510POPC   C4A45246  27.312  20.829   7.227
 3510POPC   C1B45247  27.897  20.465   6.250
 3510POPC   C2B45248  27.859  20.373   6.702
 3510POPC   C3B45249  27.799  20.261   7.096
 3510POPC   C4B45250  27.752  20.603   7.357
 3511POPC   NC345251  10.082  15.550   5.483
 3511POPC   PO445252   9.594  14.915   5.490
 3511POPC   GL145253   9.835  14.924   5.861
 3511POPC   GL245254   9.859  15.270   5.839
 3511POPC   C1A45255   9.703  14.978   6.276
 3511POPC   D2A45256   9.638  15.131   6.686
 3511POPC   C3A45257   9.604  14.884   7.057
 3511POPC   C4A45258   9.686  15.278   7.239
 3511POPC   C1B45259  10.181  15.339   6.136
 3511POPC   C2B45260  10.141  15.165   6.537
 3511POPC   C3B45261  10.105  15.339   6.931
 3511POPC   C4B45262  10.173  15.086   7.278
 3512POPC   NC345263  20.107  37.172   5.469
 3512POPC   PO445264  19.638  36.670   5.535
 3512POPC   GL145265  19.745  36.936   5.850
 3512POPC   GL245266  20.084  36.929   5.913
 3512POPC   C1A45267  19.659  36.745   6.267
 3512POPC   D2A45268  19.610  36.832   6.716
 3512POPC   C3A45269  19.559  36.700   7.136
 3512POPC   C4A45270  19.438  36.842   7.545
 3512POPC   C1B45271  20.156  36.751   6.303
 3512POPC   C2B45272  20.087  36.977   6.659
 3512POPC   C3B45273  20.066  36.769   7.014
 3512POPC   C4B45274  19.973  36.889   7.409
 3513POPC   NC345275   0.243  25.236   5.648
 3513POPC   PO445276   0.793  24.881   5.582
 3513POPC   GL145277   0.631  25.166   5.934
 3513POPC   GL245278   0.662  25.531   5.826
 3513POPC   C1A45279   0.410  25.353   6.289
 3513POPC   D2A45280   0.103  25.567   6.568
 3513POPC   C3A45281   0.022  25.276   6.883
 3513POPC   C4A45282   0.245  25.105   7.228
 3513POPC   C1B45283   0.943  25.490   6.180
 3513POPC   C2B45284   0.835  25.297   6.560
 3513POPC   C3B45285   0.549  25.285   6.858
 3513POPC   C4B45286   0.564  25.483   7.252
 3514POPC   NC345287   0.998  41.272   5.574
 3514POPC   PO445288   1.603  41.455   5.425
 3514POPC   GL145289   1.387  41.625   5.773
 3514POPC   GL245290   1.717  41.774   5.826
 3514POPC   C1A45291   1.097  41.667   6.155
 3514POPC   D2A45292   1.224  41.541   6.600
 3514POPC   C3A45293   1.084  41.635   7.038
 3514POPC   C4A45294   1.011  41.402   7.432
 3514POPC   C1B45295   1.588  41.763   6.239
 3514POPC   C2B45296   1.724  41.746   6.620
 3514POPC   C3B45297   1.585  41.584   6.976
 3514POPC   C4B45298   1.487  41.712   7.374
 3515POPC   NC345299  10.986  42.368   5.462
 3515POPC   PO445300  11.644  42.077   5.506
 3515POPC   GL145301  11.528  42.300   5.899
 3515POPC   GL245302  11.293  42.545   5.840
 3515POPC   C1A45303  11.493  42.473   6.340
 3515POPC   D2A45304  11.445  42.451   6.802
 3515POPC   C3A45305  11.267  42.118   7.024
 3515POPC   C4A45306  11.144  41.877   7.409
 3515POPC   C1B45307  11.048  42.298   6.152
 3515POPC   C2B45308  10.878  42.314   6.583
 3515POPC   C3B45309  10.959  42.570   6.955
 3515POPC   C4B45310  11.021  42.378   7.367
 3516POPC   NC345311  40.408  28.337   5.139
 3516POPC   PO445312  40.760  27.855   5.404
 3516POPC   GL145313  40.654  28.208   5.728
 3516POPC   GL245314  40.398  28.483   5.653
 3516POPC   C1A45315  40.794  28.291   6.180
 3516POPC   D2A45316  40.993  28.065   6.529
 3516POPC   C3A45317  40.765  28.125   6.913
 3516POPC   C4A45318  40.896  28.400   7.250
 3516POPC   C1B45319  40.351  28.541   6.119
 3516POPC   C2B45320  40.506  28.649   6.578
 3516POPC   C3B45321  40.453  28.604   7.062
 3516POPC   C4B45322  40.425  28.635   7.527
 3517POPC   NC345323  17.299  26.251   5.308
 3517POPC   PO445324  17.203  25.585   5.392
 3517POPC   GL145325  17.379  25.883   5.726
 3517POPC   GL245326  17.483  26.234   5.778
 3517POPC   C1A45327  17.528  25.912   6.172
 3517POPC   D2A45328  17.280  25.935   6.542
 3517POPC   C3A45329  17.417  25.749   6.919
 3517POPC   C4A45330  17.402  25.954   7.333
 3517POPC   C1B45331  17.643  26.430   6.162
 3517POPC   C2B45332  17.660  26.266   6.563
 3517POPC   C3B45333  17.587  26.438   6.956
 3517POPC   C4B45334  17.404  26.472   7.374
 3518POPC   NC345335  35.486  27.177   5.474
 3518POPC   PO445336  35.240  26.460   5.482
 3518POPC   GL145337  35.427  26.761   5.777
 3518POPC   GL245338  35.138  26.991   5.851
 3518POPC   C1A45339  35.583  26.854   6.224
 3518POPC   D2A45340  35.375  26.893   6.672
 3518POPC   C3A45341  35.616  26.779   7.080
 3518POPC   C4A45342  35.750  26.919   7.532
 3518POPC   C1B45343  35.117  26.648   6.202
 3518POPC   C2B45344  34.971  26.533   6.629
 3518POPC   C3B45345  35.081  26.675   7.059
 3518POPC   C4B45346  35.251  27.037   7.296
 3519POPC   NC345347  35.215  20.082   5.379
 3519POPC   PO445348  35.588  19.527   5.614
 3519POPC   GL145349  35.257  19.616   5.892
 3519POPC   GL245350  35.056  19.946   5.850
 3519POPC   C1A45351  35.322  19.540   6.317
 3519POPC   D2A45352  35.681  19.609   6.563
 3519POPC   C3A45353  35.545  19.718   6.968
 3519POPC   C4A45354  35.699  19.985   7.220
 3519POPC   C1B45355  35.277  20.030   6.231
 3519POPC   C2B45356  35.196  19.931   6.666
 3519POPC   C3B45357  35.156  20.133   7.097
 3519POPC   C4B45358  34.942  20.149   7.526
 3520POPC   NC345359  33.598  41.513   5.568
 3520POPC   PO445360  34.093  41.933   5.481
 3520POPC   GL145361  34.027  41.660   5.840
 3520POPC   GL245362  33.687  41.777   5.988
 3520POPC   C1A45363  33.943  41.383   6.191
 3520POPC   D2A45364  33.804  41.622   6.520
 3520POPC   C3A45365  33.892  41.444   6.882
 3520POPC   C4A45366  33.705  41.245   7.175
 3520POPC   C1B45367  33.367  41.832   6.330
 3520POPC   C2B45368  33.408  41.784   6.815
 3520POPC   C3B45369  33.692  41.812   7.193
 3520POPC   C4B45370  33.901  41.897   7.596
 3521POPC   NC345371  31.786  39.243   5.468
 3521POPC   PO445372  31.118  39.495   5.429
 3521POPC   GL145373  31.358  39.352   5.748
 3521POPC   GL245374  31.147  39.091   5.844
 3521POPC   C1A45375  31.542  39.547   6.090
 3521POPC   D2A45376  31.298  39.611   6.456
 3521POPC   C3A45377  31.473  39.424   6.856
 3521POPC   C4A45378  31.372  39.415   7.296
 3521POPC   C1B45379  31.416  39.067   6.219
 3521POPC   C2B45380  31.495  38.880   6.634
 3521POPC   C3B45381  31.403  38.929   7.076
 3521POPC   C4B45382  31.737  39.063   7.344
 3522POPC   NC345383   3.625   3.400   4.938
 3522POPC   PO445384   3.088   3.482   5.340
 3522POPC   GL145385   3.379   3.560   5.694
 3522POPC   GL245386   3.719   3.413   5.660
 3522POPC   C1A45387   3.344   3.596   6.159
 3522POPC   D2A45388   3.401   3.369   6.564
 3522POPC   C3A45389   3.539   3.572   6.956
 3522POPC   C4A45390   3.254   3.688   7.282
 3522POPC   C1B45391   3.795   3.342   6.106
 3522POPC   C2B45392   3.935   3.328   6.518
 3522POPC   C3B45393   3.781   3.113   6.849
 3522POPC   C4B45394   3.759   3.213   7.279
 3523POPC   NC345395  15.726  34.171   5.371
 3523POPC   PO445396  15.110  33.801   5.492
 3523POPC   GL145397  14.987  33.793   5.876
 3523POPC   GL245398  14.850  34.054   5.948
 3523POPC   C1A45399  14.935  33.646   6.309
 3523POPC   D2A45400  15.190  33.709   6.688
 3523POPC   C3A45401  14.992  33.795   7.079
 3523POPC   C4A45402  14.719  33.708   7.418
 3523POPC   C1B45403  15.267  34.033   6.239
 3523POPC   C2B45404  15.557  34.058   6.629
 3523POPC   C3B45405  15.478  33.979   7.086
 3523POPC   C4B45406  15.419  33.680   7.403
 3524POPC   NC345407  11.286  34.976   5.542
 3524POPC   PO445408  11.682  35.528   5.651
 3524POPC   GL145409  11.383  35.331   5.939
 3524POPC   GL245410  11.035  35.375   5.857
 3524POPC   C1A45411  11.226  35.164   6.346
 3524POPC   D2A45412  11.127  35.236   6.797
 3524POPC   C3A45413  11.398  35.315   7.157
 3524POPC   C4A45414  11.414  35.291   7.591
 3524POPC   C1B45415  11.067  35.647   6.252
 3524POPC   C2B45416  11.039  35.792   6.700
 3524POPC   C3B45417  11.011  35.643   7.099
 3524POPC   C4B45418  10.928  35.232   7.290
 3525POPC   NC345419   7.014   5.096   5.447
 3525POPC   PO445420   6.365   4.951   5.487
 3525POPC   GL145421   6.676   5.086   5.829
 3525POPC   GL245422   6.708   5.456   5.692
 3525POPC   C1A45423   6.974   4.915   6.219
 3525POPC   D2A45424   6.956   4.853   6.717
 3525POPC   C3A45425   6.563   5.026   6.903
 3525POPC   C4A45426   6.331   4.810   7.219
 3525POPC   C1B45427   6.772   5.482   6.122
 3525POPC   C2B45428   6.915   5.330   6.516
 3525POPC   C3B45429   6.978   5.347   6.954
 3525POPC   C4B45430   6.689   5.371   7.279
 3526POPC   NC345431  21.458  30.810   5.466
 3526POPC   PO445432  21.458  30.237   5.260
 3526POPC   GL145433  21.356  30.444   5.786
 3526POPC   GL245434  21.304  30.771   5.943
 3526POPC   C1A45435  21.626  30.500   6.238
 3526POPC   D2A45436  21.650  30.714   6.700
 3526POPC   C3A45437  21.723  30.526   7.111
 3526POPC   C4A45438  21.719  30.197   7.450
 3526POPC   C1B45439  21.229  30.808   6.380
 3526POPC   C2B45440  21.080  31.178   6.591
 3526POPC   C3B45441  21.036  31.175   7.024
 3526POPC   C4B45442  21.286  30.829   7.170
 3527POPC   NC345443  12.397  10.399   5.451
 3527POPC   PO445444  11.768  10.696   5.405
 3527POPC   GL145445  11.882  10.580   5.820
 3527POPC   GL245446  12.228  10.588   5.892
 3527POPC   C1A45447  11.833  10.694   6.239
 3527POPC   D2A45448  11.803  10.460   6.589
 3527POPC   C3A45449  11.935  10.617   6.943
 3527POPC   C4A45450  11.885  10.336   7.263
 3527POPC   C1B45451  12.418  10.530   6.289
 3527POPC   C2B45452  12.336  10.378   6.697
 3527POPC   C3B45453  12.360  10.452   7.144
 3527POPC   C4B45454  12.315  10.276   7.582
 3528POPC   NC345455  38.536  12.363   5.503
 3528POPC   PO445456  38.168  11.795   5.558
 3528POPC   GL145457  38.367  12.033   5.865
 3528POPC   GL245458  38.692  11.938   5.742
 3528POPC   C1A45459  38.500  12.253   6.248
 3528POPC   D2A45460  38.511  11.973   6.576
 3528POPC   C3A45461  38.505  12.157   6.961
 3528POPC   C4A45462  38.469  11.788   7.176
 3528POPC   C1B45463  38.853  11.885   6.126
 3528POPC   C2B45464  39.014  11.784   6.510
 3528POPC   C3B45465  38.916  11.852   6.924
 3528POPC   C4B45466  38.870  12.061   7.336
 3529POPC   NC345467  22.650  30.198   5.373
 3529POPC   PO445468  23.027  29.695   5.447
 3529POPC   GL145469  22.990  29.830   5.851
 3529POPC   GL245470  22.993  30.195   5.788
 3529POPC   C1A45471  22.781  29.771   6.257
 3529POPC   D2A45472  22.773  29.925   6.692
 3529POPC   C3A45473  23.019  29.968   7.047
 3529POPC   C4A45474  23.182  29.948   7.456
 3529POPC   C1B45475  22.775  30.280   6.183
 3529POPC   C2B45476  22.576  30.498   6.546
 3529POPC   C3B45477  22.693  30.368   6.947
 3529POPC   C4B45478  22.593  30.056   7.295
 3530POPC   NC345479   8.327   2.024   5.089
 3530POPC   PO445480   7.807   2.035   5.535
 3530POPC   GL145481   7.992   1.870   5.947
 3530POPC   GL245482   8.328   1.723   5.930
 3530POPC   C1A45483   8.254   2.073   6.276
 3530POPC   D2A45484   8.192   1.943   6.673
 3530POPC   C3A45485   8.379   2.094   7.032
 3530POPC   C4A45486   8.246   2.074   7.468
 3530POPC   C1B45487   8.304   1.522   6.322
 3530POPC   C2B45488   8.521   1.548   6.700
 3530POPC   C3B45489   8.297   1.594   7.057
 3530POPC   C4B45490   8.531   1.675   7.353
 3531POPC   NC345491   7.608  20.450   5.486
 3531POPC   PO445492   7.491  21.022   5.245
 3531POPC   GL145493   7.421  20.839   5.753
 3531POPC   GL245494   7.124  20.591   5.801
 3531POPC   C1A45495   7.631  20.730   6.152
 3531POPC   D2A45496   7.675  20.632   6.590
 3531POPC   C3A45497   7.343  20.690   6.883
 3531POPC   C4A45498   7.596  20.692   7.169
 3531POPC   C1B45499   7.319  20.308   6.129
 3531POPC   C2B45500   7.318  20.237   6.567
 3531POPC   C3B45501   7.487  20.197   6.976
 3531POPC   C4B45502   7.444  20.283   7.419
 3532POPC   NC345503  17.020  33.769   5.472
 3532POPC   PO445504  16.542  33.374   5.320
 3532POPC   GL145505  16.659  33.551   5.765
 3532POPC   GL245506  16.849  33.862   5.925
 3532POPC   C1A45507  16.750  33.487   6.221
 3532POPC   D2A45508  16.906  33.563   6.596
 3532POPC   C3A45509  16.729  33.432   6.942
 3532POPC   C4A45510  16.675  33.627   7.353
 3532POPC   C1B45511  16.564  33.979   6.235
 3532POPC   C2B45512  16.523  33.883   6.645
 3532POPC   C3B45513  16.692  33.999   7.005
 3532POPC   C4B45514  16.431  34.136   7.305
 3533POPC   NC345515  33.983  42.775   5.644
 3533POPC   PO445516  34.459  42.484   5.340
 3533POPC   GL145517  34.355  42.418   5.808
 3533POPC   GL245518  34.371  42.044   5.893
 3533POPC   C1A45519  34.445  42.350   6.273
 3533POPC   D2A45520  34.283  42.325   6.659
 3533POPC   C3A45521  34.590  42.402   6.960
 3533POPC   C4A45522  34.532  42.536   7.347
 3533POPC   C1B45523  34.222  41.879   6.323
 3533POPC   C2B45524  34.227  41.812   6.784
 3533POPC   C3B45525  34.177  42.092   7.139
 3533POPC   C4B45526  34.392  42.066   7.542
 3534POPC   NC345527  15.318   4.173   5.136
 3534POPC   PO445528  15.299   4.716   5.593
 3534POPC   GL145529  15.138   4.953   5.895
 3534POPC   GL245530  15.246   5.295   5.848
 3534POPC   C1A45531  15.070   5.023   6.299
 3534POPC   D2A45532  15.283   5.206   6.625
 3534POPC   C3A45533  15.128   5.048   6.995
 3534POPC   C4A45534  14.735   4.818   7.086
 3534POPC   C1B45535  15.321   5.589   6.220
 3534POPC   C2B45536  15.534   5.662   6.645
 3534POPC   C3B45537  15.562   5.377   7.035
 3534POPC   C4B45538  15.225   5.373   7.358
 3535POPC   NC345539  18.670  32.368   5.280
 3535POPC   PO445540  18.088  32.142   5.455
 3535POPC   GL145541  18.185  32.289   5.850
 3535POPC   GL245542  18.522  32.290   5.776
 3535POPC   C1A45543  18.164  32.272   6.278
 3535POPC   D2A45544  18.428  32.384   6.592
 3535POPC   C3A45545  18.227  32.207   6.917
 3535POPC   C4A45546  18.225  32.388   7.303
 3535POPC   C1B45547  18.585  32.058   6.145
 3535POPC   C2B45548  18.588  31.888   6.542
 3535POPC   C3B45549  18.799  31.929   6.910
 3535POPC   C4B45550  18.562  31.997   7.248
 3536POPC   NC345551   0.746  43.533   5.242
 3536POPC   PO445552   0.434  44.141   5.450
 3536POPC   GL145553   0.265  43.941   5.867
 3536POPC   GL245554   0.133  43.685   5.859
 3536POPC   C1A45555   0.481  43.839   6.290
 3536POPC   D2A45556   0.698  44.118   6.593
 3536POPC   C3A45557   0.618  44.026   7.030
 3536POPC   C4A45558   0.576  43.697   7.348
 3536POPC   C1B45559  44.985  43.683   6.255
 3536POPC   C2B45560   0.135  43.580   6.617
 3536POPC   C3B45561   0.009  43.825   6.930
 3536POPC   C4B45562   0.164  43.984   7.273
 3537POPC   NC345563  28.485  12.587   5.314
 3537POPC   PO445564  28.410  13.270   5.311
 3537POPC   GL145565  28.600  13.149   5.767
 3537POPC   GL245566  28.740  12.781   5.742
 3537POPC   C1A45567  28.456  13.165   6.239
 3537POPC   D2A45568  28.077  12.976   6.503
 3537POPC   C3A45569  28.061  12.923   6.983
 3537POPC   C4A45570  28.412  12.879   7.272
 3537POPC   C1B45571  28.543  12.665   6.151
 3537POPC   C2B45572  28.544  12.762   6.605
 3537POPC   C3B45573  28.492  12.484   6.959
 3537POPC   C4B45574  28.165  12.394   7.253
 3538POPC   NC345575  21.799  35.199   5.426
 3538POPC   PO445576  21.194  35.030   5.470
 3538POPC   GL145577  21.328  35.348   5.827
 3538POPC   GL245578  21.687  35.324   5.894
 3538POPC   C1A45579  21.184  35.627   6.189
 3538POPC   D2A45580  21.096  35.284   6.539
 3538POPC   C3A45581  21.068  35.361   6.972
 3538POPC   C4A45582  21.208  35.306   7.442
 3538POPC   C1B45583  21.542  35.315   6.300
 3538POPC   C2B45584  21.498  35.535   6.702
 3538POPC   C3B45585  21.562  35.284   7.067
 3538POPC   C4B45586  21.707  35.443   7.465
 3539POPC   NC345587   6.293  21.067   5.602
 3539POPC   PO445588   6.866  21.418   5.358
 3539POPC   GL145589   6.694  21.329   5.785
 3539POPC   GL245590   6.800  21.004   5.902
 3539POPC   C1A45591   6.487  21.321   6.219
 3539POPC   D2A45592   6.647  21.518   6.608
 3539POPC   C3A45593   6.608  21.268   6.964
 3539POPC   C4A45594   6.439  21.366   7.373
 3539POPC   C1B45595   6.971  21.160   6.291
 3539POPC   C2B45596   7.017  21.065   6.721
 3539POPC   C3B45597   7.135  21.177   7.125
 3539POPC   C4B45598   6.899  21.549   7.270
 3540POPC   NC345599  12.081  35.344   5.441
 3540POPC   PO445600  11.706  34.741   5.391
 3540POPC   GL145601  11.833  35.009   5.742
 3540POPC   GL245602  12.235  35.053   5.797
 3540POPC   C1A45603  11.810  35.168   6.168
 3540POPC   D2A45604  11.935  35.450   6.471
 3540POPC   C3A45605  11.819  35.315   6.882
 3540POPC   C4A45606  11.861  35.504   7.297
 3540POPC   C1B45607  12.302  35.290   6.160
 3540POPC   C2B45608  12.325  35.150   6.569
 3540POPC   C3B45609  12.300  35.283   6.986
 3540POPC   C4B45610  12.273  35.003   7.294
 3541POPC   NC345611   6.111   2.934   5.506
 3541POPC   PO445612   5.493   2.556   5.457
 3541POPC   GL145613   5.766   2.681   5.816
 3541POPC   GL245614   5.713   3.001   5.875
 3541POPC   C1A45615   6.124   2.616   6.136
 3541POPC   D2A45616   6.342   2.677   6.557
 3541POPC   C3A45617   6.086   2.884   6.836
 3541POPC   C4A45618   5.915   2.709   7.193
 3541POPC   C1B45619   5.718   2.873   6.324
 3541POPC   C2B45620   5.571   2.888   6.740
 3541POPC   C3B45621   5.670   3.145   7.087
 3541POPC   C4B45622   5.782   3.083   7.544
 3542POPC   NC345623  37.042  25.811   5.751
 3542POPC   PO445624  36.802  26.297   5.412
 3542POPC   GL145625  36.908  26.303   5.851
 3542POPC   GL245626  36.577  26.306   5.976
 3542POPC   C1A45627  36.945  26.171   6.319
 3542POPC   D2A45628  37.188  26.096   6.739
 3542POPC   C3A45629  37.065  25.758   7.031
 3542POPC   C4A45630  37.031  25.828   7.482
 3542POPC   C1B45631  36.486  26.446   6.391
 3542POPC   C2B45632  36.749  26.525   6.747
 3542POPC   C3B45633  36.924  26.317   7.133
 3542POPC   C4B45634  36.685  26.191   7.514
 3543POPC   NC345635  24.495  28.871   5.475
 3543POPC   PO445636  23.994  29.452   5.516
 3543POPC   GL145637  24.203  29.099   5.816
 3543POPC   GL245638  24.599  29.144   5.894
 3543POPC   C1A45639  24.334  28.928   6.248
 3543POPC   D2A45640  24.470  29.108   6.616
 3543POPC   C3A45641  24.454  28.943   7.008
 3543POPC   C4A45642  24.135  29.168   7.237
 3543POPC   C1B45643  24.848  29.080   6.286
 3543POPC   C2B45644  24.973  29.041   6.736
 3543POPC   C3B45645  24.812  29.302   7.072
 3543POPC   C4B45646  24.745  29.339   7.481
 3544POPC   NC345647  28.029  31.611   5.385
 3544POPC   PO445648  28.593  31.247   5.455
 3544POPC   GL145649  28.568  31.518   5.854
 3544POPC   GL245650  28.312  31.780   5.785
 3544POPC   C1A45651  28.524  31.384   6.298
 3544POPC   D2A45652  28.495  31.164   6.684
 3544POPC   C3A45653  28.557  31.408   7.029
 3544POPC   C4A45654  28.894  31.710   7.135
 3544POPC   C1B45655  28.394  31.881   6.225
 3544POPC   C2B45656  28.459  31.766   6.665
 3544POPC   C3B45657  28.192  31.763   7.030
 3544POPC   C4B45658  28.058  31.454   7.347
 3545POPC   NC345659  16.969  14.577   5.602
 3545POPC   PO445660  16.454  14.046   5.487
 3545POPC   GL145661  16.658  14.265   5.840
 3545POPC   GL245662  16.958  14.132   5.924
 3545POPC   C1A45663  16.661  14.591   6.196
 3545POPC   D2A45664  16.368  14.677   6.556
 3545POPC   C3A45665  16.366  14.428   6.944
 3545POPC   C4A45666  16.466  14.255   7.404
 3545POPC   C1B45667  16.728  14.069   6.317
 3545POPC   C2B45668  16.768  14.339   6.652
 3545POPC   C3B45669  16.855  14.404   7.082
 3545POPC   C4B45670  16.951  14.006   7.221
 3546POPC   NC345671  14.810  43.092   5.707
 3546POPC   PO445672  14.285  43.208   5.318
 3546POPC   GL145673  14.284  43.180   5.766
 3546POPC   GL245674  14.097  42.895   5.793
 3546POPC   C1A45675  14.395  43.058   6.214
 3546POPC   D2A45676  14.528  43.214   6.610
 3546POPC   C3A45677  14.174  43.439   6.775
 3546POPC   C4A45678  14.158  43.455   7.211
 3546POPC   C1B45679  14.042  42.692   6.204
 3546POPC   C2B45680  14.109  42.620   6.616
 3546POPC   C3B45681  14.231  42.896   6.897
 3546POPC   C4B45682  14.380  42.842   7.270
 3547POPC   NC345683  35.809  30.112   5.062
 3547POPC   PO445684  36.372  29.877   5.318
 3547POPC   GL145685  36.175  29.740   5.723
 3547POPC   GL245686  35.849  29.941   5.801
 3547POPC   C1A45687  36.043  29.637   6.160
 3547POPC   D2A45688  35.975  29.841   6.539
 3547POPC   C3A45689  36.105  29.680   6.926
 3547POPC   C4A45690  35.788  29.508   7.198
 3547POPC   C1B45691  35.691  30.133   6.227
 3547POPC   C2B45692  35.820  30.316   6.638
 3547POPC   C3B45693  36.023  30.210   7.015
 3547POPC   C4B45694  35.943  30.175   7.442
 3548POPC   NC345695  29.330  25.070   5.403
 3548POPC   PO445696  29.033  25.612   5.583
 3548POPC   GL145697  29.292  25.356   5.834
 3548POPC   GL245698  29.076  25.081   5.885
 3548POPC   C1A45699  29.264  25.432   6.248
 3548POPC   D2A45700  29.099  25.298   6.609
 3548POPC   C3A45701  29.271  25.401   6.967
 3548POPC   C4A45702  29.075  25.252   7.360
 3548POPC   C1B45703  29.188  24.886   6.303
 3548POPC   C2B45704  29.493  24.933   6.679
 3548POPC   C3B45705  29.461  24.962   7.145
 3548POPC   C4B45706  29.421  25.034   7.638
 3549POPC   NC345707  31.492  15.428   5.540
 3549POPC   PO445708  31.353  14.804   5.602
 3549POPC   GL145709  31.593  15.047   5.928
 3549POPC   GL245710  31.774  15.400   5.973
 3549POPC   C1A45711  31.402  15.124   6.340
 3549POPC   D2A45712  31.128  15.262   6.672
 3549POPC   C3A45713  31.316  15.201   7.098
 3549POPC   C4A45714  31.697  14.962   7.243
 3549POPC   C1B45715  31.909  15.115   6.325
 3549POPC   C2B45716  31.818  15.065   6.765
 3549POPC   C3B45717  31.821  15.417   7.088
 3549POPC   C4B45718  31.717  15.394   7.531
 3550POPC   NC345719  35.913   8.513   5.139
 3550POPC   PO445720  36.299   7.970   5.276
 3550POPC   GL145721  36.187   8.245   5.598
 3550POPC   GL245722  36.193   7.981   5.815
 3550POPC   C1A45723  36.215   8.421   6.049
 3550POPC   D2A45724  36.130   8.403   6.501
 3550POPC   C3A45725  36.309   8.570   6.887
 3550POPC   C4A45726  36.216   8.395   7.259
 3550POPC   C1B45727  36.463   7.971   6.188
 3550POPC   C2B45728  36.262   7.908   6.534
 3550POPC   C3B45729  36.231   8.039   6.906
 3550POPC   C4B45730  36.218   7.823   7.286
 3551POPC   NC345731  15.588   1.314   5.340
 3551POPC   PO445732  16.232   1.433   5.566
 3551POPC   GL145733  15.924   1.269   5.845
 3551POPC   GL245734  15.627   1.071   5.784
 3551POPC   C1A45735  16.069   1.248   6.258
 3551POPC   D2A45736  16.179   1.549   6.536
 3551POPC   C3A45737  16.039   1.428   6.923
 3551POPC   C4A45738  16.190   1.205   7.302
 3551POPC   C1B45739  15.725   0.896   6.170
 3551POPC   C2B45740  15.905   0.809   6.587
 3551POPC   C3B45741  15.798   0.979   6.984
 3551POPC   C4B45742  15.682   1.318   7.255
 3552POPC   NC345743  33.495  25.426   5.575
 3552POPC   PO445744  34.088  25.150   5.610
 3552POPC   GL145745  33.844  25.180   5.935
 3552POPC   GL245746  33.537  25.006   5.862
 3552POPC   C1A45747  33.734  25.491   6.233
 3552POPC   D2A45748  33.733  25.410   6.655
 3552POPC   C3A45749  34.005  25.587   6.924
 3552POPC   C4A45750  33.759  25.491   7.287
 3552POPC   C1B45751  33.391  25.104   6.283
 3552POPC   C2B45752  33.278  25.191   6.707
 3552POPC   C3B45753  33.452  25.132   7.088
 3552POPC   C4B45754  33.595  25.025   7.484
 3553POPC   NC345755  35.711  15.772   5.637
 3553POPC   PO445756  36.304  16.162   5.510
 3553POPC   GL145757  36.146  16.030   5.876
 3553POPC   GL245758  35.844  16.199   5.914
 3553POPC   C1A45759  36.275  16.128   6.299
 3553POPC   D2A45760  36.142  16.223   6.703
 3553POPC   C3A45761  36.254  16.003   7.074
 3553POPC   C4A45762  36.002  16.094   7.410
 3553POPC   C1B45763  35.808  15.907   6.267
 3553POPC   C2B45764  35.674  15.996   6.665
 3553POPC   C3B45765  35.774  15.822   7.047
 3553POPC   C4B45766  35.655  15.587   7.398
 3554POPC   NC345767  27.278  20.341   5.556
 3554POPC   PO445768  26.648  20.465   5.353
 3554POPC   GL145769  26.809  20.495   5.765
 3554POPC   GL245770  26.641  20.782   5.883
 3554POPC   C1A45771  26.903  20.370   6.206
 3554POPC   D2A45772  27.026  20.584   6.614
 3554POPC   C3A45773  26.896  20.516   7.044
 3554POPC   C4A45774  27.116  20.344   7.371
 3554POPC   C1B45775  26.724  20.885   6.314
 3554POPC   C2B45776  26.672  20.917   6.774
 3554POPC   C3B45777  26.810  20.996   7.178
 3554POPC   C4B45778  26.944  20.817   7.578
 3555POPC   NC345779   1.643  43.954   5.378
 3555POPC   PO445780   2.222  43.741   5.092
 3555POPC   GL145781   2.103  43.762   5.558
 3555POPC   GL245782   2.064  44.116   5.688
 3555POPC   C1A45783   1.984  43.683   6.029
 3555POPC   D2A45784   2.052  43.806   6.502
 3555POPC   C3A45785   1.921  43.650   6.926
 3555POPC   C4A45786   1.858  43.486   7.329
 3555POPC   C1B45787   1.808  44.187   6.108
 3555POPC   C2B45788   1.767  44.350   6.543
 3555POPC   C3B45789   1.898  44.181   6.940
 3555POPC   C4B45790   1.764  44.006   7.304
 3556POPC   NC345791   4.404  31.826   5.597
 3556POPC   PO445792   4.138  32.503   5.636
 3556POPC   GL145793   4.446  32.373   5.895
 3556POPC   GL245794   4.193  32.111   5.995
 3556POPC   C1A45795   4.463  32.501   6.329
 3556POPC   D2A45796   4.192  32.328   6.625
 3556POPC   C3A45797   4.323  32.252   7.049
 3556POPC   C4A45798   4.094  32.193   7.454
 3556POPC   C1B45799   4.527  31.988   6.238
 3556POPC   C2B45800   4.665  32.077   6.626
 3556POPC   C3B45801   4.680  31.856   7.006
 3556POPC   C4B45802   4.532  31.937   7.412
 3557POPC   NC345803   9.795   3.856   5.656
 3557POPC   PO445804  10.126   3.394   5.441
 3557POPC   GL145805   9.879   3.310   5.828
 3557POPC   GL245806   9.511   3.431   5.859
 3557POPC   C1A45807   9.841   3.443   6.249
 3557POPC   D2A45808  10.058   3.716   6.504
 3557POPC   C3A45809  10.008   3.605   6.923
 3557POPC   C4A45810   9.923   3.384   7.262
 3557POPC   C1B45811   9.416   3.742   6.215
 3557POPC   C2B45812   9.550   3.744   6.665
 3557POPC   C3B45813   9.469   3.498   7.048
 3557POPC   C4B45814   9.249   3.535   7.447
 3558POPC   NC345815  17.754  19.350   5.666
 3558POPC   PO445816  17.395  19.829   5.390
 3558POPC   GL145817  17.454  19.947   5.787
 3558POPC   GL245818  17.795  19.872   5.783
 3558POPC   C1A45819  17.321  19.781   6.192
 3558POPC   D2A45820  17.521  19.748   6.574
 3558POPC   C3A45821  17.273  19.776   6.906
 3558POPC   C4A45822  17.406  19.714   7.311
 3558POPC   C1B45823  17.863  19.655   6.190
 3558POPC   C2B45824  17.914  19.419   6.533
 3558POPC   C3B45825  17.922  19.604   6.918
 3558POPC   C4B45826  17.886  19.845   7.274
 3559POPC   NC345827  20.226  42.202   5.225
 3559POPC   PO445828  20.863  42.169   5.270
 3559POPC   GL145829  20.814  42.250   5.730
 3559POPC   GL245830  21.042  42.007   5.808
 3559POPC   C1A45831  20.597  42.276   6.185
 3559POPC   D2A45832  20.515  42.085   6.615
 3559POPC   C3A45833  20.380  42.326   6.998
 3559POPC   C4A45834  20.531  42.728   7.241
 3559POPC   C1B45835  21.117  42.206   6.213
 3559POPC   C2B45836  20.984  42.273   6.637
 3559POPC   C3B45837  20.888  42.407   7.069
 3559POPC   C4B45838  21.034  42.176   7.404
 3560POPC   NC345839  35.638  24.522   5.385
 3560POPC   PO445840  35.058  24.907   5.592
 3560POPC   GL145841  35.269  24.553   5.818
 3560POPC   GL245842  35.348  24.190   5.805
 3560POPC   C1A45843  35.413  24.491   6.250
 3560POPC   D2A45844  35.288  24.689   6.633
 3560POPC   C3A45845  35.491  24.510   6.988
 3560POPC   C4A45846  35.343  24.591   7.387
 3560POPC   C1B45847  35.119  24.065   6.213
 3560POPC   C2B45848  35.139  24.177   6.675
 3560POPC   C3B45849  35.084  24.247   7.131
 3560POPC   C4B45850  35.120  24.202   7.645
 3561POPC   NC345851  35.803  10.997   5.413
 3561POPC   PO445852  35.131  11.342   5.361
 3561POPC   GL145853  35.074  11.516   5.787
 3561POPC   GL245854  35.401  11.680   5.850
 3561POPC   C1A45855  35.044  11.339   6.220
 3561POPC   D2A45856  35.282  11.181   6.598
 3561POPC   C3A45857  35.112  11.343   7.002
 3561POPC   C4A45858  35.045  11.367   7.458
 3561POPC   C1B45859  35.599  11.414   6.162
 3561POPC   C2B45860  35.809  11.293   6.539
 3561POPC   C3B45861  35.649  11.356   6.913
 3561POPC   C4B45862  35.542  11.500   7.283
 3562POPC   NC345863   8.760  18.539   5.392
 3562POPC   PO445864   8.696  17.940   5.313
 3562POPC   GL145865   8.792  18.125   5.748
 3562POPC   GL245866   8.643  18.451   5.865
 3562POPC   C1A45867   8.912  18.176   6.206
 3562POPC   D2A45868   8.815  18.326   6.629
 3562POPC   C3A45869   9.219  18.375   6.874
 3562POPC   C4A45870   9.441  18.113   7.210
 3562POPC   C1B45871   8.639  18.670   6.242
 3562POPC   C2B45872   8.652  18.810   6.664
 3562POPC   C3B45873   8.765  18.610   7.053
 3562POPC   C4B45874   9.064  18.448   7.340
 3563POPC   NC345875  43.535  15.338   5.684
 3563POPC   PO445876  43.807  14.810   5.416
 3563POPC   GL145877  43.964  15.105   5.791
 3563POPC   GL245878  44.227  15.378   5.720
 3563POPC   C1A45879  43.837  15.151   6.266
 3563POPC   D2A45880  43.910  14.970   6.702
 3563POPC   C3A45881  43.696  15.174   7.070
 3563POPC   C4A45882  43.621  15.081   7.505
 3563POPC   C1B45883  44.322  15.259   6.151
 3563POPC   C2B45884  44.183  15.399   6.586
 3563POPC   C3B45885  44.191  15.271   7.034
 3563POPC   C4B45886  44.003  15.415   7.440
 3564POPC   NC345887  18.042  10.890   5.073
 3564POPC   PO445888  18.316  10.417   5.420
 3564POPC   GL145889  18.388  10.642   5.763
 3564POPC   GL245890  18.607  10.389   5.836
 3564POPC   C1A45891  18.207  10.862   6.088
 3564POPC   D2A45892  18.334  10.899   6.502
 3564POPC   C3A45893  18.012  10.918   6.830
 3564POPC   C4A45894  18.153  10.868   7.242
 3564POPC   C1B45895  18.424  10.421   6.244
 3564POPC   C2B45896  18.627  10.502   6.626
 3564POPC   C3B45897  18.460  10.512   7.009
 3564POPC   C4B45898  18.323  10.195   7.193
 3565POPC   NC345899  43.958  16.179   5.362
 3565POPC   PO445900  43.846  15.567   5.441
 3565POPC   GL145901  43.727  15.802   5.797
 3565POPC   GL245902  43.663  16.166   5.772
 3565POPC   C1A45903  43.892  15.680   6.197
 3565POPC   D2A45904  43.930  15.869   6.592
 3565POPC   C3A45905  43.761  15.671   6.946
 3565POPC   C4A45906  43.827  15.870   7.335
 3565POPC   C1B45907  43.677  16.151   6.193
 3565POPC   C2B45908  43.551  16.324   6.557
 3565POPC   C3B45909  43.651  16.188   6.934
 3565POPC   C4B45910  43.653  16.331   7.322
 3566POPC   NC345911   4.715  17.684   5.309
 3566POPC   PO445912   5.321  17.391   5.376
 3566POPC   GL145913   5.105  17.663   5.688
 3566POPC   GL245914   4.957  17.384   5.775
 3566POPC   C1A45915   5.033  17.793   6.132
 3566POPC   D2A45916   5.063  17.878   6.575
 3566POPC   C3A45917   5.204  17.583   6.880
 3566POPC   C4A45918   4.883  17.524   7.184
 3566POPC   C1B45919   4.904  17.316   6.166
 3566POPC   C2B45920   4.854  17.370   6.576
 3566POPC   C3B45921   4.744  17.102   6.905
 3566POPC   C4B45922   4.975  17.041   7.276
 3567POPC   NC345923   3.232   7.553   5.493
 3567POPC   PO445924   3.735   7.119   5.507
 3567POPC   GL145925   3.574   7.328   5.837
 3567POPC   GL245926   3.285   7.079   5.808
 3567POPC   C1A45927   3.724   7.389   6.266
 3567POPC   D2A45928   4.006   7.195   6.547
 3567POPC   C3A45929   3.755   7.293   6.892
 3567POPC   C4A45930   3.722   7.432   7.302
 3567POPC   C1B45931   3.227   7.283   6.212
 3567POPC   C2B45932   3.273   7.391   6.645
 3567POPC   C3B45933   3.263   7.289   7.096
 3567POPC   C4B45934   3.266   7.189   7.557
 3568POPC   NC345935  20.598  28.451   4.970
 3568POPC   PO445936  20.870  27.973   5.398
 3568POPC   GL145937  20.837  28.242   5.774
 3568POPC   GL245938  20.550  28.435   5.758
 3568POPC   C1A45939  20.909  28.464   6.185
 3568POPC   D2A45940  20.698  28.592   6.606
 3568POPC   C3A45941  20.918  28.521   7.036
 3568POPC   C4A45942  20.927  28.557   7.510
 3568POPC   C1B45943  20.402  28.456   6.177
 3568POPC   C2B45944  20.335  28.202   6.532
 3568POPC   C3B45945  20.463  28.246   6.923
 3568POPC   C4B45946  20.475  28.393   7.319
 3569POPC   NC345947   1.240   5.762   5.240
 3569POPC   PO445948   0.832   6.178   5.450
 3569POPC   GL145949   1.084   5.892   5.744
 3569POPC   GL245950   1.277   5.563   5.697
 3569POPC   C1A45951   1.005   5.696   6.141
 3569POPC   D2A45952   0.900   5.800   6.544
 3569POPC   C3A45953   1.145   5.768   6.892
 3569POPC   C4A45954   0.859   5.835   7.208
 3569POPC   C1B45955   1.511   5.742   6.062
 3569POPC   C2B45956   1.524   5.865   6.519
 3569POPC   C3B45957   1.678   5.751   6.961
 3569POPC   C4B45958   1.577   5.540   7.370
 3570POPC   NC345959  12.234  31.879   5.485
 3570POPC   PO445960  11.850  31.343   5.368
 3570POPC   GL145961  12.023  31.380   5.772
 3570POPC   GL245962  11.696  31.533   5.842
 3570POPC   C1A45963  12.299  31.305   6.149
 3570POPC   D2A45964  12.333  31.422   6.606
 3570POPC   C3A45965  12.025  31.218   6.884
 3570POPC   C4A45966  12.022  31.291   7.306
 3570POPC   C1B45967  11.766  31.367   6.270
 3570POPC   C2B45968  11.813  31.640   6.618
 3570POPC   C3B45969  11.869  31.691   7.037
 3570POPC   C4B45970  11.855  31.742   7.461
 3571POPC   NC345971  27.985  42.888   5.473
 3571POPC   PO445972  27.420  43.161   5.252
 3571POPC   GL145973  27.610  43.149   5.695
 3571POPC   GL245974  27.927  43.337   5.782
 3571POPC   C1A45975  27.691  42.998   6.162
 3571POPC   D2A45976  27.471  42.896   6.592
 3571POPC   C3A45977  27.490  43.158   6.973
 3571POPC   C4A45978  27.513  43.445   7.285
 3571POPC   C1B45979  27.812  43.487   6.206
 3571POPC   C2B45980  27.866  43.235   6.627
 3571POPC   C3B45981  28.010  43.288   7.087
 3571POPC   C4B45982  27.968  43.423   7.527
 3572POPC   NC345983  37.569  22.045   5.513
 3572POPC   PO445984  38.140  22.347   5.823
 3572POPC   GL145985  37.712  22.282   5.954
 3572POPC   GL245986  37.785  21.961   5.971
 3572POPC   C1A45987  37.514  22.327   6.371
 3572POPC   D2A45988  37.494  22.147   6.812
 3572POPC   C3A45989  37.698  22.370   7.191
 3572POPC   C4A45990  37.773  22.233   7.628
 3572POPC   C1B45991  37.475  21.847   6.237
 3572POPC   C2B45992  37.415  21.656   6.624
 3572POPC   C3B45993  37.309  21.643   7.042
 3572POPC   C4B45994  37.514  21.924   7.306
 3573POPC   NC345995  23.763  13.218   5.397
 3573POPC   PO445996  23.605  12.566   5.578
 3573POPC   GL145997  23.806  12.891   5.826
 3573POPC   GL245998  23.533  13.121   5.843
 3573POPC   C1A45999  23.899  12.840   6.269
 3573POPC   D2A46000  23.720  12.615   6.634
 3573POPC   C3A46001  23.921  12.634   7.061
 3573POPC   C4A46002  23.875  12.668   7.505
 3573POPC   C1B46003  23.638  13.302   6.223
 3573POPC   C2B46004  23.682  13.165   6.628
 3573POPC   C3B46005  23.596  13.042   7.021
 3573POPC   C4B46006  23.890  13.157   7.271
 3574POPC   NC346007  37.817  41.358   5.729
 3574POPC   PO446008  37.739  41.924   5.442
 3574POPC   GL146009  37.419  41.829   5.763
 3574POPC   GL246010  37.339  41.475   5.845
 3574POPC   C1A46011  37.361  41.825   6.211
 3574POPC   D2A46012  37.662  41.737   6.533
 3574POPC   C3A46013  37.551  41.679   6.977
 3574POPC   C4A46014  37.815  41.392   7.189
 3574POPC   C1B46015  37.500  41.315   6.271
 3574POPC   C2B46016  37.634  41.232   6.657
 3574POPC   C3B46017  37.343  41.199   6.983
 3574POPC   C4B46018  37.374  41.253   7.400
 3575POPC   NC346019  31.456  31.964   5.491
 3575POPC   PO446020  31.855  32.542   5.631
 3575POPC   GL146021  31.595  32.455   5.963
 3575POPC   GL246022  31.319  32.341   5.877
 3575POPC   C1A46023  31.421  32.465   6.373
 3575POPC   D2A46024  31.703  32.211   6.606
 3575POPC   C3A46025  31.572  32.231   6.986
 3575POPC   C4A46026  31.350  32.576   7.099
 3575POPC   C1B46027  31.362  32.002   6.168
 3575POPC   C2B46028  31.223  32.020   6.589
 3575POPC   C3B46029  31.255  31.824   6.976
 3575POPC   C4B46030  31.132  32.134   7.288
 3576POPC   NC346031  37.538  21.047   5.466
 3576POPC   PO446032  37.675  21.613   5.327
 3576POPC   GL146033  37.650  21.505   5.783
 3576POPC   GL246034  37.628  21.186   5.926
 3576POPC   C1A46035  37.876  21.512   6.203
 3576POPC   D2A46036  37.867  21.371   6.618
 3576POPC   C3A46037  37.808  21.632   6.966
 3576POPC   C4A46038  37.726  21.479   7.406
 3576POPC   C1B46039  37.361  21.350   6.222
 3576POPC   C2B46040  37.389  21.142   6.610
 3576POPC   C3B46041  37.536  21.184   7.012
 3576POPC   C4B46042  37.437  21.013   7.402
 3577POPC   NC346043  14.014  18.542   5.406
 3577POPC   PO446044  14.713  18.492   5.399
 3577POPC   GL146045  14.542  18.307   5.778
 3577POPC   GL246046  14.299  18.513   5.841
 3577POPC   C1A46047  14.592  18.278   6.210
 3577POPC   D2A46048  14.384  18.473   6.548
 3577POPC   C3A46049  14.278  18.247   6.914
 3577POPC   C4A46050  14.609  18.161   7.204
 3577POPC   C1B46051  14.144  18.751   6.176
 3577POPC   C2B46052  13.932  18.711   6.575
 3577POPC   C3B46053  14.184  18.779   6.939
 3577POPC   C4B46054  14.355  18.622   7.290
 3578POPC   NC346055   2.525   5.121   5.387
 3578POPC   PO446056   3.158   5.113   5.636
 3578POPC   GL146057   2.824   5.224   5.889
 3578POPC   GL246058   2.486   5.298   5.852
 3578POPC   C1A46059   2.869   5.286   6.294
 3578POPC   D2A46060   3.157   5.149   6.582
 3578POPC   C3A46061   2.983   5.053   6.987
 3578POPC   C4A46062   3.072   4.881   7.379
 3578POPC   C1B46063   2.377   5.051   6.224
 3578POPC   C2B46064   2.559   5.062   6.646
 3578POPC   C3B46065   2.439   5.041   7.083
 3578POPC   C4B46066   2.355   5.315   7.401
 3579POPC   NC346067  44.444  26.506   5.412
 3579POPC   PO446068  44.799  27.033   5.591
 3579POPC   GL146069  44.527  26.868   5.877
 3579POPC   GL246070  44.617  26.515   5.933
 3579POPC   C1A46071  44.515  27.057   6.275
 3579POPC   D2A46072  44.619  26.835   6.614
 3579POPC   C3A46073  44.465  26.989   6.967
 3579POPC   C4A46074  44.440  26.700   7.291
 3579POPC   C1B46075  44.937  26.759   6.197
 3579POPC   C2B46076   0.123  26.643   6.603
 3579POPC   C3B46077  44.930  26.685   7.014
 3579POPC   C4B46078  44.934  27.089   7.155
 3580POPC   NC346079  44.762   3.473   5.466
 3580POPC   PO446080  44.126   3.617   5.502
 3580POPC   GL146081  44.466   3.697   5.834
 3580POPC   GL246082  44.854   3.674   5.908
 3580POPC   C1A46083  44.528   3.881   6.235
 3580POPC   D2A46084  44.800   3.795   6.582
 3580POPC   C3A46085  44.545   3.882   6.936
 3580POPC   C4A46086  44.504   3.576   7.279
 3580POPC   C1B46087  44.966   3.294   6.157
 3580POPC   C2B46088   0.044   3.168   6.608
 3580POPC   C3B46089  44.893   3.366   7.024
 3580POPC   C4B46090   0.092   3.417   7.449
 3581POPC   NC346091  14.408  29.077   5.389
 3581POPC   PO446092  14.340  29.743   5.558
 3581POPC   GL146093  14.307  29.385   5.810
 3581POPC   GL246094  14.676  29.328   5.782
 3581POPC   C1A46095  14.212  29.063   6.135
 3581POPC   D2A46096  14.026  28.960   6.557
 3581POPC   C3A46097  14.184  29.209   6.872
 3581POPC   C4A46098  14.230  28.951   7.190
 3581POPC   C1B46099  14.745  29.200   6.221
 3581POPC   C2B46100  14.766  29.474   6.595
 3581POPC   C3B46101  14.783  29.488   7.061
 3581POPC   C4B46102  14.736  29.089   7.275
 3582POPC   NC346103  34.913  35.705   5.430
 3582POPC   PO446104  34.436  35.288   5.543
 3582POPC   GL146105  34.664  35.478   5.879
 3582POPC   GL246106  34.379  35.286   6.050
 3582POPC   C1A46107  34.613  35.618   6.321
 3582POPC   D2A46108  34.312  35.400   6.577
 3582POPC   C3A46109  34.329  35.570   6.983
 3582POPC   C4A46110  34.670  35.567   7.292
 3582POPC   C1B46111  34.774  35.130   6.227
 3582POPC   C2B46112  34.777  34.928   6.629
 3582POPC   C3B46113  34.696  35.185   6.940
 3582POPC   C4B46114  34.419  35.124   7.217
 3583POPC   NC346115   3.249   4.105   4.979
 3583POPC   PO446116   3.679   4.289   5.484
 3583POPC   GL146117   3.583   4.421   5.880
 3583POPC   GL246118   3.279   4.207   5.874
 3583POPC   C1A46119   3.652   4.292   6.293
 3583POPC   D2A46120   3.428   4.256   6.669
 3583POPC   C3A46121   3.683   4.439   6.978
 3583POPC   C4A46122   3.770   4.135   7.246
 3583POPC   C1B46123   3.175   4.459   6.225
 3583POPC   C2B46124   3.139   4.659   6.611
 3583POPC   C3B46125   3.160   4.547   7.014
 3583POPC   C4B46126   3.350   4.432   7.356
 3584POPC   NC346127  33.189  27.897   5.486
 3584POPC   PO446128  32.863  27.275   5.407
 3584POPC   GL146129  33.043  27.498   5.778
 3584POPC   GL246130  33.410  27.430   5.768
 3584POPC   C1A46131  32.928  27.518   6.225
 3584POPC   D2A46132  32.804  27.228   6.580
 3584POPC   C3A46133  32.695  27.453   6.954
 3584POPC   C4A46134  32.980  27.728   7.138
 3584POPC   C1B46135  33.438  27.403   6.228
 3584POPC   C2B46136  33.258  27.526   6.633
 3584POPC   C3B46137  33.451  27.611   7.028
 3584POPC   C4B46138  33.387  27.391   7.446
 3585POPC   NC346139  11.911  39.495   5.451
 3585POPC   PO446140  12.282  39.062   5.193
 3585POPC   GL146141  12.308  39.200   5.660
 3585POPC   GL246142  12.288  39.536   5.801
 3585POPC   C1A46143  12.089  39.175   6.081
 3585POPC   D2A46144  12.106  39.066   6.496
 3585POPC   C3A46145  11.813  39.016   6.803
 3585POPC   C4A46146  11.914  39.318   7.153
 3585POPC   C1B46147  12.162  39.641   6.249
 3585POPC   C2B46148  12.060  39.554   6.688
 3585POPC   C3B46149  12.141  39.785   7.076
 3585POPC   C4B46150  12.388  39.617   7.383
 3586POPC   NC346151  16.896  30.415   5.405
 3586POPC   PO446152  16.466  29.846   5.456
 3586POPC   GL146153  16.563  30.030   5.814
 3586POPC   GL246154  16.928  30.038   5.785
 3586POPC   C1A46155  16.634  29.891   6.225
 3586POPC   D2A46156  16.770  29.615   6.532
 3586POPC   C3A46157  16.793  29.840   6.928
 3586POPC   C4A46158  16.434  29.921   7.220
 3586POPC   C1B46159  17.038  30.211   6.168
 3586POPC   C2B46160  16.841  30.221   6.552
 3586POPC   C3B46161  17.100  30.311   6.888
 3586POPC   C4B46162  17.299  30.331   7.294
 3587POPC   NC346163  40.519  25.317   5.461
 3587POPC   PO446164  39.828  25.575   5.498
 3587POPC   GL146165  39.949  25.261   5.832
 3587POPC   GL246166  40.258  25.430   5.885
 3587POPC   C1A46167  39.931  25.035   6.271
 3587POPC   D2A46168  40.118  25.228   6.649
 3587POPC   C3A46169  39.914  25.299   6.961
 3587POPC   C4A46170  40.156  25.097   7.197
 3587POPC   C1B46171  40.050  25.537   6.271
 3587POPC   C2B46172  40.155  25.765   6.654
 3587POPC   C3B46173  40.128  25.744   7.066
 3587POPC   C4B46174  40.386  25.533   7.262
 3588POPC   NC346175   5.532  29.376   5.489
 3588POPC   PO446176   6.235  29.228   5.469
 3588POPC   GL146177   6.034  29.045   5.827
 3588POPC   GL246178   5.694  29.126   5.886
 3588POPC   C1A46179   6.109  29.207   6.221
 3588POPC   D2A46180   6.206  29.572   6.447
 3588POPC   C3A46181   6.137  29.411   6.855
 3588POPC   C4A46182   5.971  29.129   7.148
 3588POPC   C1B46183   5.665  28.937   6.274
 3588POPC   C2B46184   5.704  29.160   6.656
 3588POPC   C3B46185   5.543  28.944   6.990
 3588POPC   C4B46186   5.593  28.565   7.233
 3589POPC   NC346187  19.345  37.025   5.391
 3589POPC   PO446188  18.767  37.300   5.491
 3589POPC   GL146189  18.984  37.024   5.772
 3589POPC   GL246190  19.287  37.175   5.882
 3589POPC   C1A46191  19.040  36.743   6.127
 3589POPC   D2A46192  18.781  36.644   6.490
 3589POPC   C3A46193  18.969  36.520   6.879
 3589POPC   C4A46194  19.024  36.644   7.270
 3589POPC   C1B46195  19.334  37.125   6.319
 3589POPC   C2B46196  19.139  36.963   6.674
 3589POPC   C3B46197  19.217  37.091   7.098
 3589POPC   C4B46198  19.114  37.256   7.511
 3590POPC   NC346199  15.457  43.508   5.425
 3590POPC   PO446200  15.197  42.870   5.551
 3590POPC   GL146201  15.280  43.080   5.958
 3590POPC   GL246202  15.464  43.390   5.924
 3590POPC   C1A46203  15.277  42.934   6.389
 3590POPC   D2A46204  14.895  42.836   6.598
 3590POPC   C3A46205  14.818  42.943   7.024
 3590POPC   C4A46206  15.133  42.863   7.333
 3590POPC   C1B46207  15.275  43.453   6.345
 3590POPC   C2B46208  15.146  43.283   6.772
 3590POPC   C3B46209  15.403  43.269   7.177
 3590POPC   C4B46210  15.282  43.402   7.611
 3591POPC   NC346211  40.626  22.233   5.403
 3591POPC   PO446212  39.945  22.093   5.341
 3591POPC   GL146213  39.898  22.143   5.778
 3591POPC   GL246214  39.729  21.848   5.824
 3591POPC   C1A46215  40.179  22.301   6.138
 3591POPC   D2A46216  40.249  22.450   6.576
 3591POPC   C3A46217  39.901  22.555   6.847
 3591POPC   C4A46218  39.826  22.372   7.241
 3591POPC   C1B46219  39.985  21.772   6.160
 3591POPC   C2B46220  40.227  21.911   6.498
 3591POPC   C3B46221  40.033  22.059   6.846
 3591POPC   C4B46222  40.083  21.928   7.223
 3592POPC   NC346223  29.804  31.222   5.426
 3592POPC   PO446224  30.133  31.854   5.241
 3592POPC   GL146225  30.037  31.584   5.688
 3592POPC   GL246226  29.698  31.381   5.896
 3592POPC   C1A46227  30.120  31.506   6.125
 3592POPC   D2A46228  29.868  31.564   6.484
 3592POPC   C3A46229  29.888  31.249   6.799
 3592POPC   C4A46230  29.895  31.405   7.206
 3592POPC   C1B46231  29.503  31.064   6.224
 3592POPC   C2B46232  29.530  30.869   6.662
 3592POPC   C3B46233  29.483  31.032   7.099
 3592POPC   C4B46234  29.636  31.144   7.560
 3593POPC   NC346235  43.479  25.954   5.273
 3593POPC   PO446236  44.076  26.209   5.429
 3593POPC   GL146237  43.760  26.181   5.723
 3593POPC   GL246238  43.717  25.856   5.708
 3593POPC   C1A46239  43.707  26.286   6.153
 3593POPC   D2A46240  43.534  26.157   6.562
 3593POPC   C3A46241  43.767  26.242   6.880
 3593POPC   C4A46242  43.631  26.424   7.225
 3593POPC   C1B46243  43.822  25.786   6.123
 3593POPC   C2B46244  43.840  25.746   6.550
 3593POPC   C3B46245  43.617  25.703   6.912
 3593POPC   C4B46246  43.776  25.906   7.270
 3594POPC   NC346247  17.424  22.036   5.189
 3594POPC   PO446248  17.904  22.165   5.645
 3594POPC   GL146249  17.816  22.106   6.030
 3594POPC   GL246250  17.646  22.404   6.067
 3594POPC   C1A46251  17.703  21.837   6.348
 3594POPC   D2A46252  17.503  22.044   6.671
 3594POPC   C3A46253  17.806  22.021   6.967
 3594POPC   C4A46254  17.815  21.825   7.325
 3594POPC   C1B46255  17.277  22.449   6.321
 3594POPC   C2B46256  17.206  22.491   6.750
 3594POPC   C3B46257  17.531  22.455   7.024
 3594POPC   C4B46258  17.533  22.463   7.500
 3595POPC   NC346259  44.561  25.514   5.451
 3595POPC   PO446260  44.904  24.947   5.536
 3595POPC   GL146261  44.697  25.209   5.864
 3595POPC   GL246262  44.826  25.574   5.887
 3595POPC   C1A46263  44.483  25.066   6.264
 3595POPC   D2A46264  44.389  25.282   6.658
 3595POPC   C3A46265  44.569  25.103   7.013
 3595POPC   C4A46266  44.796  25.280   7.393
 3595POPC   C1B46267  44.500  25.587   6.227
 3595POPC   C2B46268  44.579  25.779   6.634
 3595POPC   C3B46269  44.665  25.683   7.066
 3595POPC   C4B46270   0.105  25.668   7.184
 3596POPC   NC346271  10.648   0.731   5.595
 3596POPC   PO446272  10.284   0.146   5.451
 3596POPC   GL146273  10.323   0.411   5.812
 3596POPC   GL246274  10.630   0.369   5.991
 3596POPC   C1A46275  10.209   0.527   6.250
 3596POPC   D2A46276  10.427   0.838   6.532
 3596POPC   C3A46277  10.340   0.815   6.981
 3596POPC   C4A46278  10.611   0.683   7.304
 3596POPC   C1B46279  10.891   0.484   6.342
 3596POPC   C2B46280  10.782   0.516   6.758
 3596POPC   C3B46281  10.494   0.322   6.946
 3596POPC   C4B46282  10.439   0.156   7.324
 3597POPC   NC346283  42.880   9.342   5.508
 3597POPC   PO446284  43.441   8.911   5.476
 3597POPC   GL146285  43.249   9.089   5.840
 3597POPC   GL246286  42.908   8.999   5.883
 3597POPC   C1A46287  43.245   9.298   6.252
 3597POPC   D2A46288  43.506   9.264   6.606
 3597POPC   C3A46289  43.331   9.012   6.908
 3597POPC   C4A46290  43.247   9.130   7.315
 3597POPC   C1B46291  43.034   8.835   6.263
 3597POPC   C2B46292  42.905   9.082   6.629
 3597POPC   C3B46293  42.856   8.919   7.056
 3597POPC   C4B46294  43.146   8.620   7.258
 3598POPC   NC346295   8.420  33.253   5.444
 3598POPC   PO446296   7.886  32.862   5.468
 3598POPC   GL146297   8.149  32.994   5.825
 3598POPC   GL246298   8.501  32.878   5.808
 3598POPC   C1A46299   8.285  33.241   6.178
 3598POPC   D2A46300   8.248  33.433   6.566
 3598POPC   C3A46301   8.300  33.230   6.973
 3598POPC   C4A46302   8.052  33.060   7.296
 3598POPC   C1B46303   8.408  32.748   6.236
 3598POPC   C2B46304   8.199  32.860   6.622
 3598POPC   C3B46305   8.326  32.715   7.037
 3598POPC   C4B46306   8.439  32.787   7.514
 3599POPC   NC346307  29.633  20.384   5.473
 3599POPC   PO446308  30.082  20.870   5.518
 3599POPC   GL146309  29.992  20.578   5.810
 3599POPC   GL246310  30.284  20.371   5.852
 3599POPC   C1A46311  29.931  20.564   6.233
 3599POPC   D2A46312  29.734  20.728   6.564
 3599POPC   C3A46313  29.967  20.536   6.914
 3599POPC   C4A46314  30.007  20.372   7.327
 3599POPC   C1B46315  30.404  20.727   6.149
 3599POPC   C2B46316  30.300  20.738   6.587
 3599POPC   C3B46317  30.338  20.892   7.027
 3599POPC   C4B46318  30.190  20.834   7.461
 3600POPC   NC346319  35.308   5.278   5.444
 3600POPC   PO446320  35.429   4.666   5.665
 3600POPC   GL146321  35.256   4.785   6.035
 3600POPC   GL246322  35.311   5.124   5.930
 3600POPC   C1A46323  35.291   5.071   6.431
 3600POPC   D2A46324  35.133   5.277   6.786
 3600POPC   C3A46325  35.180   4.941   7.002
 3600POPC   C4A46326  35.487   4.793   7.201
 3600POPC   C1B46327  35.629   5.360   6.152
 3600POPC   C2B46328  35.825   5.387   6.549
 3600POPC   C3B46329  35.698   5.191   6.921
 3600POPC   C4B46330  35.468   5.313   7.244
 3601POPC   NC346331  26.198   4.654   5.126
 3601POPC   PO446332  26.032   5.275   5.436
 3601POPC   GL146333  25.919   5.155   5.853
 3601POPC   GL246334  25.786   4.833   5.858
 3601POPC   C1A46335  25.838   5.144   6.278
 3601POPC   D2A46336  26.162   5.004   6.573
 3601POPC   C3A46337  25.998   5.045   6.993
 3601POPC   C4A46338  26.027   5.226   7.402
 3601POPC   C1B46339  25.946   4.643   6.264
 3601POPC   C2B46340  25.792   4.688   6.654
 3601POPC   C3B46341  25.632   4.604   6.999
 3601POPC   C4B46342  25.777   4.743   7.403
 3602POPC   NC346343  18.451   2.509   5.373
 3602POPC   PO446344  18.178   3.124   5.400
 3602POPC   GL146345  18.401   2.930   5.696
 3602POPC   GL246346  18.178   2.640   5.798
 3602POPC   C1A46347  18.475   2.924   6.126
 3602POPC   D2A46348  18.348   2.645   6.446
 3602POPC   C3A46349  18.418   2.935   6.789
 3602POPC   C4A46350  18.470   2.883   7.197
 3602POPC   C1B46351  17.921   2.792   6.155
 3602POPC   C2B46352  17.962   2.942   6.567
 3602POPC   C3B46353  17.968   2.734   6.963
 3602POPC   C4B46354  17.996   2.885   7.377
 3603POPC   NC346355   2.887  40.284   5.359
 3603POPC   PO446356   2.431  39.878   5.620
 3603POPC   GL146357   2.676  40.110   5.899
 3603POPC   GL246358   3.024  40.132   5.833
 3603POPC   C1A46359   2.618  40.197   6.332
 3603POPC   D2A46360   2.694  40.413   6.716
 3603POPC   C3A46361   2.550  40.069   6.962
 3603POPC   C4A46362   2.553  39.869   7.378
 3603POPC   C1B46363   3.106  39.946   6.228
 3603POPC   C2B46364   2.984  39.988   6.673
 3603POPC   C3B46365   3.036  40.042   7.128
 3603POPC   C4B46366   2.967  40.067   7.608
 3604POPC   NC346367  40.641   8.672   5.534
 3604POPC   PO446368  41.001   9.203   5.310
 3604POPC   GL146369  40.962   9.055   5.756
 3604POPC   GL246370  40.619   9.091   5.848
 3604POPC   C1A46371  40.975   9.068   6.246
 3604POPC   D2A46372  40.951   8.742   6.604
 3604POPC   C3A46373  41.107   8.846   7.018
 3604POPC   C4A46374  40.883   8.999   7.379
 3604POPC   C1B46375  40.579   8.754   6.184
 3604POPC   C2B46376  40.456   8.853   6.618
 3604POPC   C3B46377  40.546   8.829   7.042
 3604POPC   C4B46378  40.783   8.504   7.260
 3605POPC   NC346379  25.300  17.672   5.429
 3605POPC   PO446380  25.196  17.001   5.444
 3605POPC   GL146381  25.278  17.213   5.866
 3605POPC   GL246382  25.195  17.566   5.923
 3605POPC   C1A46383  25.523  17.348   6.252
 3605POPC   D2A46384  25.433  17.264   6.690
 3605POPC   C3A46385  25.491  17.563   7.002
 3605POPC   C4A46386  25.558  17.845   7.366
 3605POPC   C1B46387  25.004  17.423   6.344
 3605POPC   C2B46388  24.660  17.577   6.653
 3605POPC   C3B46389  24.760  17.804   7.029
 3605POPC   C4B46390  25.077  17.610   7.279
 3606POPC   NC346391  16.893  16.006   5.435
 3606POPC   PO446392  16.237  15.771   5.310
 3606POPC   GL146393  16.486  15.834   5.747
 3606POPC   GL246394  16.727  16.139   5.895
 3606POPC   C1A46395  16.676  15.672   6.160
 3606POPC   D2A46396  16.594  15.885   6.550
 3606POPC   C3A46397  16.624  15.763   6.979
 3606POPC   C4A46398  17.032  15.696   7.115
 3606POPC   C1B46399  17.030  16.092   6.247
 3606POPC   C2B46400  17.086  15.988   6.674
 3606POPC   C3B46401  16.936  16.204   7.025
 3606POPC   C4B46402  17.270  16.327   7.267
 3607POPC   NC346403   4.214   8.824   5.188
 3607POPC   PO446404   4.708   9.172   5.416
 3607POPC   GL146405   4.387   8.926   5.687
 3607POPC   GL246406   4.095   9.080   5.743
 3607POPC   C1A46407   4.301   8.766   6.120
 3607POPC   D2A46408   4.103   8.840   6.535
 3607POPC   C3A46409   4.205   8.743   6.973
 3607POPC   C4A46410   4.486   8.972   7.209
 3607POPC   C1B46411   4.011   9.200   6.172
 3607POPC   C2B46412   4.005   9.349   6.616
 3607POPC   C3B46413   4.094   9.253   7.052
 3607POPC   C4B46414   4.290   9.386   7.478
 3608POPC   NC346415  41.883   2.213   5.465
 3608POPC   PO446416  41.592   1.704   5.193
 3608POPC   GL146417  41.519   1.855   5.648
 3608POPC   GL246418  41.189   2.036   5.705
 3608POPC   C1A46419  41.595   1.751   6.135
 3608POPC   D2A46420  41.829   1.708   6.553
 3608POPC   C3A46421  41.715   1.845   6.972
 3608POPC   C4A46422  41.903   1.852   7.392
 3608POPC   C1B46423  41.475   2.223   6.017
 3608POPC   C2B46424  41.665   2.195   6.408
 3608POPC   C3B46425  41.668   2.371   6.793
 3608POPC   C4B46426  41.575   2.298   7.197
 3609POPC   NC346427  28.251  13.733   5.390
 3609POPC   PO446428  28.869  13.954   5.475
 3609POPC   GL146429  28.524  13.830   5.810
 3609POPC   GL246430  28.224  13.556   5.852
 3609POPC   C1A46431  28.459  13.708   6.259
 3609POPC   D2A46432  28.175  13.473   6.517
 3609POPC   C3A46433  28.405  13.262   6.831
 3609POPC   C4A46434  28.440  13.570   7.119
 3609POPC   C1B46435  27.962  13.814   6.155
 3609POPC   C2B46436  27.808  13.831   6.577
 3609POPC   C3B46437  28.170  13.872   6.831
 3609POPC   C4B46438  28.287  14.097   7.187
 3610POPC   NC346439  39.619  34.983   5.290
 3610POPC   PO446440  40.272  34.707   5.466
 3610POPC   GL146441  39.957  34.680   5.809
 3610POPC   GL246442  39.812  34.990   5.783
 3610POPC   C1A46443  39.923  34.436   6.209
 3610POPC   D2A46444  40.149  34.502   6.598
 3610POPC   C3A46445  39.966  34.647   6.983
 3610POPC   C4A46446  39.912  34.295   7.222
 3610POPC   C1B46447  39.542  34.783   6.126
 3610POPC   C2B46448  39.561  34.620   6.568
 3610POPC   C3B46449  39.469  34.611   7.019
 3610POPC   C4B46450  39.657  34.653   7.465
 3611POPC   NC346451   0.562  40.690   5.250
 3611POPC   PO446452   0.235  41.157   5.580
 3611POPC   GL146453   0.596  41.027   5.800
 3611POPC   GL246454   0.685  40.678   5.757
 3611POPC   C1A46455   0.618  40.905   6.222
 3611POPC   D2A46456   0.368  40.712   6.520
 3611POPC   C3A46457   0.573  40.810   6.849
 3611POPC   C4A46458   0.444  40.786   7.245
 3611POPC   C1B46459   0.517  40.417   6.115
 3611POPC   C2B46460   0.691  40.327   6.517
 3611POPC   C3B46461   0.494  40.318   6.911
 3611POPC   C4B46462   0.709  40.320   7.288
 3612POPC   NC346463  42.972  30.270   5.682
 3612POPC   PO446464  42.911  30.822   5.313
 3612POPC   GL146465  43.042  30.886   5.801
 3612POPC   GL246466  43.042  30.611   6.036
 3612POPC   C1A46467  43.029  31.062   6.232
 3612POPC   D2A46468  43.011  30.884   6.645
 3612POPC   C3A46469  43.205  30.870   7.079
 3612POPC   C4A46470  42.986  30.981   7.471
 3612POPC   C1B46471  43.400  30.698   6.303
 3612POPC   C2B46472  43.383  30.554   6.707
 3612POPC   C3B46473  43.492  30.321   7.046
 3612POPC   C4B46474  43.584  30.417   7.446
 3613POPC   NC346475  33.540  13.455   5.131
 3613POPC   PO446476  34.078  13.509   5.579
 3613POPC   GL146477  33.793  13.629   5.879
 3613POPC   GL246478  33.588  13.887   5.833
 3613POPC   C1A46479  33.840  13.698   6.299
 3613POPC   D2A46480  33.852  13.418   6.626
 3613POPC   C3A46481  33.632  13.603   6.957
 3613POPC   C4A46482  33.933  13.659   7.246
 3613POPC   C1B46483  33.306  13.833   6.145
 3613POPC   C2B46484  33.368  13.803   6.550
 3613POPC   C3B46485  33.247  14.032   6.899
 3613POPC   C4B46486  33.248  13.773   7.260
 3614POPC   NC346487  24.790  44.019   5.342
 3614POPC   PO446488  24.202  43.863   5.277
 3614POPC   GL146489  24.434  43.951   5.704
 3614POPC   GL246490  24.393  43.630   5.883
 3614POPC   C1A46491  24.662  44.062   6.108
 3614POPC   D2A46492  24.582  44.202   6.548
 3614POPC   C3A46493  24.754  43.994   6.896
 3614POPC   C4A46494  24.763  44.019   7.308
 3614POPC   C1B46495  24.269  43.772   6.305
 3614POPC   C2B46496  24.306  43.815   6.756
 3614POPC   C3B46497  24.336  43.754   7.218
 3614POPC   C4B46498  24.164  43.518   7.594
 3615POPC   NC346499   3.806  19.994   5.505
 3615POPC   PO446500   3.135  19.649   5.380
 3615POPC   GL146501   3.288  19.851   5.736
 3615POPC   GL246502   3.565  19.615   5.781
 3615POPC   C1A46503   3.350  19.855   6.188
 3615POPC   D2A46504   3.580  19.864   6.570
 3615POPC   C3A46505   3.312  19.865   6.924
 3615POPC   C4A46506   3.315  19.569   7.239
 3615POPC   C1B46507   3.825  19.573   6.152
 3615POPC   C2B46508   4.028  19.312   6.481
 3615POPC   C3B46509   4.037  19.510   6.884
 3615POPC   C4B46510   3.780  19.772   7.134
 3616POPC   NC346511  33.913   7.058   5.633
 3616POPC   PO446512  33.555   6.535   5.356
 3616POPC   GL146513  33.712   6.583   5.795
 3616POPC   GL246514  34.095   6.590   5.843
 3616POPC   C1A46515  33.672   6.786   6.212
 3616POPC   D2A46516  33.817   6.906   6.629
 3616POPC   C3A46517  33.666   6.698   6.959
 3616POPC   C4A46518  33.479   6.653   7.310
 3616POPC   C1B46519  34.189   6.877   6.206
 3616POPC   C2B46520  34.354   6.872   6.616
 3616POPC   C3B46521  34.174   6.693   6.974
 3616POPC   C4B46522  33.976   6.847   7.340
 3617POPC   NC346523  43.543  37.806   5.599
 3617POPC   PO446524  44.166  37.573   5.402
 3617POPC   GL146525  44.098  37.400   5.843
 3617POPC   GL246526  43.829  37.603   5.993
 3617POPC   C1A46527  44.197  37.387   6.316
 3617POPC   D2A46528  43.876  37.559   6.542
 3617POPC   C3A46529  43.854  37.504   6.986
 3617POPC   C4A46530  44.050  37.795   7.222
 3617POPC   C1B46531  43.496  37.824   6.253
 3617POPC   C2B46532  43.482  38.070   6.624
 3617POPC   C3B46533  43.580  37.990   7.051
 3617POPC   C4B46534  43.571  37.766   7.418
 3618POPC   NC346535  44.316  16.734   5.465
 3618POPC   PO446536  43.668  16.551   5.416
 3618POPC   GL146537  43.891  16.653   5.796
 3618POPC   GL246538  44.143  16.419   5.849
 3618POPC   C1A46539  43.883  16.631   6.259
 3618POPC   D2A46540  43.747  16.844   6.636
 3618POPC   C3A46541  43.857  16.697   7.041
 3618POPC   C4A46542  43.740  16.779   7.513
 3618POPC   C1B46543  44.179  16.196   6.246
 3618POPC   C2B46544  44.067  16.352   6.660
 3618POPC   C3B46545  44.127  16.232   7.088
 3618POPC   C4B46546  44.179  16.519   7.391
 3619POPC   NC346547  15.247   3.263   5.502
 3619POPC   PO446548  15.010   3.918   5.427
 3619POPC   GL146549  15.058   3.641   5.801
 3619POPC   GL246550  14.898   3.307   5.871
 3619POPC   C1A46551  15.362   3.490   6.138
 3619POPC   D2A46552  15.333   3.681   6.564
 3619POPC   C3A46553  15.263   3.570   7.000
 3619POPC   C4A46554  15.486   3.796   7.279
 3619POPC   C1B46555  14.890   3.508   6.271
 3619POPC   C2B46556  14.952   3.343   6.667
 3619POPC   C3B46557  14.859   3.265   7.082
 3619POPC   C4B46558  14.953   3.524   7.480
 3620POPC   NC346559  32.223  14.010   5.451
 3620POPC   PO446560  32.588  14.526   5.466
 3620POPC   GL146561  32.429  14.307   5.810
 3620POPC   GL246562  32.081  14.376   5.822
 3620POPC   C1A46563  32.421  14.418   6.236
 3620POPC   D2A46564  32.402  14.312   6.643
 3620POPC   C3A46565  32.528  14.514   7.016
 3620POPC   C4A46566  32.219  14.217   7.134
 3620POPC   C1B46567  31.913  14.575   6.225
 3620POPC   C2B46568  31.673  14.578   6.622
 3620POPC   C3B46569  31.784  14.495   7.060
 3620POPC   C4B46570  32.117  14.647   7.357
 3621POPC   NC346571  30.837   3.684   5.390
 3621POPC   PO446572  30.352   3.290   5.513
 3621POPC   GL146573  30.606   3.500   5.839
 3621POPC   GL246574  30.909   3.383   5.793
 3621POPC   C1A46575  30.722   3.688   6.252
 3621POPC   D2A46576  31.053   3.821   6.587
 3621POPC   C3A46577  30.888   3.865   6.984
 3621POPC   C4A46578  30.511   3.673   7.106
 3621POPC   C1B46579  30.911   3.185   6.192
 3621POPC   C2B46580  30.747   3.292   6.609
 3621POPC   C3B46581  30.889   3.324   7.014
 3621POPC   C4B46582  30.875   3.546   7.433
 3622POPC   NC346583  41.183  17.369   5.479
 3622POPC   PO446584  41.816  17.407   5.477
 3622POPC   GL146585  41.753  17.612   5.846
 3622POPC   GL246586  41.449  17.745   5.738
 3622POPC   C1A46587  41.866  17.495   6.264
 3622POPC   D2A46588  41.682  17.307   6.619
 3622POPC   C3A46589  41.692  17.436   7.039
 3622POPC   C4A46590  41.265  17.409   7.176
 3622POPC   C1B46591  41.328  17.695   6.150
 3622POPC   C2B46592  41.176  17.641   6.557
 3622POPC   C3B46593  41.382  17.831   6.877
 3622POPC   C4B46594  41.528  17.855   7.275
 3623POPC   NC346595  38.177  36.055   5.366
 3623POPC   PO446596  38.781  35.788   5.505
 3623POPC   GL146597  38.527  36.112   5.762
 3623POPC   GL246598  38.172  36.252   5.806
 3623POPC   C1A46599  38.577  36.255   6.184
 3623POPC   D2A46600  38.770  36.063   6.559
 3623POPC   C3A46601  38.783  36.252   6.967
 3623POPC   C4A46602  38.494  36.349   7.305
 3623POPC   C1B46603  38.164  35.902   6.061
 3623POPC   C2B46604  38.232  36.011   6.479
 3623POPC   C3B46605  38.280  36.118   6.899
 3623POPC   C4B46606  38.099  36.005   7.272
 3624POPC   NC346607  18.175  21.830   5.483
 3624POPC   PO446608  18.496  21.270   5.526
 3624POPC   GL146609  18.446  21.552   5.836
 3624POPC   GL246610  18.529  21.268   6.053
 3624POPC   C1A46611  18.139  21.576   6.185
 3624POPC   D2A46612  18.276  21.436   6.588
 3624POPC   C3A46613  18.040  21.541   6.938
 3624POPC   C4A46614  18.288  21.554   7.300
 3624POPC   C1B46615  18.182  21.062   6.236
 3624POPC   C2B46616  18.086  20.929   6.623
 3624POPC   C3B46617  18.272  21.068   6.970
 3624POPC   C4B46618  18.054  21.133   7.295
 3625POPC   NC346619  36.255  11.869   5.410
 3625POPC   PO446620  36.245  12.449   5.678
 3625POPC   GL146621  36.207  12.084   5.871
 3625POPC   GL246622  35.884  11.935   5.782
 3625POPC   C1A46623  36.155  12.124   6.263
 3625POPC   D2A46624  36.089  12.018   6.625
 3625POPC   C3A46625  36.221  12.316   6.883
 3625POPC   C4A46626  36.177  12.232   7.310
 3625POPC   C1B46627  35.683  11.935   6.187
 3625POPC   C2B46628  35.663  11.767   6.601
 3625POPC   C3B46629  35.868  11.818   7.033
 3625POPC   C4B46630  35.785  11.925   7.456
 3626POPC   NC346631   7.973  21.577   5.533
 3626POPC   PO446632   8.470  21.114   5.428
 3626POPC   GL146633   8.316  21.313   5.814
 3626POPC   GL246634   8.353  21.671   5.900
 3626POPC   C1A46635   8.381  21.321   6.263
 3626POPC   D2A46636   8.528  21.199   6.637
 3626POPC   C3A46637   8.450  21.493   6.986
 3626POPC   C4A46638   8.161  21.354   7.312
 3626POPC   C1B46639   7.941  21.573   6.174
 3626POPC   C2B46640   7.737  21.593   6.561
 3626POPC   C3B46641   7.933  21.582   6.932
 3626POPC   C4B46642   8.073  21.840   7.274
 3627POPC   NC346643  35.579   7.137   5.412
 3627POPC   PO446644  35.133   7.687   5.539
 3627POPC   GL146645  35.283   7.322   5.775
 3627POPC   GL246646  35.598   7.521   5.756
 3627POPC   C1A46647  35.531   7.162   6.133
 3627POPC   D2A46648  35.371   7.339   6.496
 3627POPC   C3A46649  35.206   7.276   6.865
 3627POPC   C4A46650  35.308   7.226   7.250
 3627POPC   C1B46651  35.450   7.692   6.117
 3627POPC   C2B46652  35.330   7.856   6.476
 3627POPC   C3B46653  35.410   7.737   6.860
 3627POPC   C4B46654  35.308   7.762   7.248
 3628POPC   NC346655  11.986  42.958   5.228
 3628POPC   PO446656  12.399  43.510   5.351
 3628POPC   GL146657  12.247  43.300   5.794
 3628POPC   GL246658  12.237  42.950   6.005
 3628POPC   C1A46659  11.906  43.281   6.146
 3628POPC   D2A46660  12.011  42.973   6.489
 3628POPC   C3A46661  11.960  42.915   6.951
 3628POPC   C4A46662  11.682  42.679   7.228
 3628POPC   C1B46663  12.497  42.785   6.318
 3628POPC   C2B46664  12.453  42.771   6.761
 3628POPC   C3B46665  12.448  43.020   7.152
 3628POPC   C4B46666  12.481  43.464   7.307
 3629POPC   NC346667  27.814  33.941   5.526
 3629POPC   PO446668  27.290  33.508   5.424
 3629POPC   GL146669  27.545  33.551   5.781
 3629POPC   GL246670  27.891  33.480   5.766
 3629POPC   C1A46671  27.525  33.807   6.146
 3629POPC   D2A46672  27.267  33.813   6.510
 3629POPC   C3A46673  27.468  33.824   6.898
 3629POPC   C4A46674  27.378  33.679   7.291
 3629POPC   C1B46675  27.780  33.369   6.211
 3629POPC   C2B46676  27.841  33.542   6.630
 3629POPC   C3B46677  27.785  33.384   7.063
 3629POPC   C4B46678  27.795  33.475   7.502
 3630POPC   NC346679   3.412  12.999   5.255
 3630POPC   PO446680   3.772  12.426   5.434
 3630POPC   GL146681   3.614  12.825   5.736
 3630POPC   GL246682   3.232  12.955   5.738
 3630POPC   C1A46683   3.716  13.015   6.195
 3630POPC   D2A46684   3.732  12.794   6.633
 3630POPC   C3A46685   3.911  12.896   7.066
 3630POPC   C4A46686   3.965  12.680   7.476
 3630POPC   C1B46687   3.166  13.130   6.165
 3630POPC   C2B46688   3.381  13.159   6.588
 3630POPC   C3B46689   3.397  12.960   6.977
 3630POPC   C4B46690   3.297  13.166   7.305
 3631POPC   NC346691   2.506   6.913   5.346
 3631POPC   PO446692   3.005   6.493   5.231
 3631POPC   GL146693   2.992   6.630   5.698
 3631POPC   GL246694   2.781   6.885   5.786
 3631POPC   C1A46695   2.975   6.595   6.165
 3631POPC   D2A46696   2.663   6.544   6.492
 3631POPC   C3A46697   2.830   6.501   6.892
 3631POPC   C4A46698   2.966   6.866   7.160
 3631POPC   C1B46699   2.474   6.800   6.089
 3631POPC   C2B46700   2.348   6.961   6.502
 3631POPC   C3B46701   2.459   6.825   6.902
 3631POPC   C4B46702   2.467   7.027   7.254
 3632POPC   NC346703  23.025  34.022   5.335
 3632POPC   PO446704  23.410  33.532   5.541
 3632POPC   GL146705  23.219  33.865   5.816
 3632POPC   GL246706  23.164  34.248   5.811
 3632POPC   C1A46707  23.060  33.868   6.244
 3632POPC   D2A46708  22.692  33.864   6.545
 3632POPC   C3A46709  22.791  33.679   6.954
 3632POPC   C4A46710  22.701  33.889   7.353
 3632POPC   C1B46711  23.077  34.391   6.253
 3632POPC   C2B46712  23.100  34.175   6.668
 3632POPC   C3B46713  23.116  34.049   7.124
 3632POPC   C4B46714  23.052  34.153   7.598
 3633POPC   NC346715  13.857  11.158   5.347
 3633POPC   PO446716  13.328  11.520   5.323
 3633POPC   GL146717  13.588  11.420   5.719
 3633POPC   GL246718  13.643  11.052   5.815
 3633POPC   C1A46719  13.553  11.439   6.181
 3633POPC   D2A46720  13.732  11.343   6.580
 3633POPC   C3A46721  13.488  11.264   6.945
 3633POPC   C4A46722  13.605  11.517   7.273
 3633POPC   C1B46723  13.705  10.932   6.249
 3633POPC   C2B46724  13.723  10.844   6.695
 3633POPC   C3B46725  14.021  11.058   6.972
 3633POPC   C4B46726  14.009  11.208   7.384
 3634POPC   NC346727   0.836   6.610   5.582
 3634POPC   PO446728   1.340   7.010   5.344
 3634POPC   GL146729   1.273   6.784   5.800
 3634POPC   GL246730   1.249   6.397   5.812
 3634POPC   C1A46731   1.002   6.668   6.219
 3634POPC   D2A46732   0.980   6.690   6.686
 3634POPC   C3A46733   1.399   6.670   6.839
 3634POPC   C4A46734   1.507   6.599   7.233
 3634POPC   C1B46735   1.204   6.172   6.214
 3634POPC   C2B46736   1.192   6.226   6.654
 3634POPC   C3B46737   1.180   6.250   7.069
 3634POPC   C4B46738   1.401   6.022   7.312
 3635POPC   NC346739  40.354  39.637   5.199
 3635POPC   PO446740  39.773  39.261   5.265
 3635POPC   GL146741  40.030  39.225   5.672
 3635POPC   GL246742  39.704  39.115   5.811
 3635POPC   C1A46743  40.159  39.425   6.097
 3635POPC   D2A46744  40.318  39.250   6.516
 3635POPC   C3A46745  40.180  39.408   6.927
 3635POPC   C4A46746  40.282  39.170   7.300
 3635POPC   C1B46747  39.654  39.309   6.226
 3635POPC   C2B46748  39.727  39.242   6.672
 3635POPC   C3B46749  39.783  39.153   7.108
 3635POPC   C4B46750  39.785  39.467   7.420
 3636POPC   NC346751  29.136  24.188   5.510
 3636POPC   PO446752  28.946  24.805   5.395
 3636POPC   GL146753  28.970  24.598   5.765
 3636POPC   GL246754  29.338  24.651   5.758
 3636POPC   C1A46755  28.889  24.385   6.133
 3636POPC   D2A46756  28.857  24.525   6.550
 3636POPC   C3A46757  29.072  24.717   6.878
 3636POPC   C4A46758  29.060  24.419   7.197
 3636POPC   C1B46759  29.390  24.433   6.139
 3636POPC   C2B46760  29.382  24.437   6.573
 3636POPC   C3B46761  29.544  24.438   7.011
 3636POPC   C4B46762  29.478  24.562   7.444
 3637POPC   NC346763  44.044  30.922   5.572
 3637POPC   PO446764  43.386  30.489   5.688
 3637POPC   GL146765  43.782  30.583   5.846
 3637POPC   GL246766  43.814  30.921   6.012
 3637POPC   C1A46767  43.990  30.488   6.225
 3637POPC   D2A46768  43.822  30.361   6.588
 3637POPC   C3A46769  43.842  30.690   6.893
 3637POPC   C4A46770  44.032  30.452   7.190
 3637POPC   C1B46771  44.219  30.953   6.262
 3637POPC   C2B46772  44.320  30.891   6.714
 3637POPC   C3B46773  44.257  30.901   7.158
 3637POPC   C4B46774  44.248  30.905   7.615
 3638POPC   NC346775  31.647  28.388   5.312
 3638POPC   PO446776  31.103  28.551   5.674
 3638POPC   GL146777  31.443  28.355   5.814
 3638POPC   GL246778  31.676  28.613   5.751
 3638POPC   C1A46779  31.473  28.227   6.248
 3638POPC   D2A46780  31.506  28.003   6.642
 3638POPC   C3A46781  31.317  28.317   6.884
 3638POPC   C4A46782  31.285  28.565   7.232
 3638POPC   C1B46783  31.792  28.646   6.140
 3638POPC   C2B46784  31.590  28.670   6.516
 3638POPC   C3B46785  31.791  28.617   6.854
 3638POPC   C4B46786  31.802  28.732   7.257
 3639POPC   NC346787  34.363   4.843   5.549
 3639POPC   PO446788  34.790   5.452   5.391
 3639POPC   GL146789  34.605   5.247   5.772
 3639POPC   GL246790  34.829   4.909   5.761
 3639POPC   C1A46791  34.374   5.272   6.217
 3639POPC   D2A46792  34.280   5.497   6.638
 3639POPC   C3A46793  34.208   5.287   7.048
 3639POPC   C4A46794  34.401   5.080   7.381
 3639POPC   C1B46795  34.856   5.082   6.171
 3639POPC   C2B46796  34.715   4.985   6.568
 3639POPC   C3B46797  34.687   5.069   6.979
 3639POPC   C4B46798  34.854   4.852   7.375
 3640POPC   NC346799   4.586  15.296   5.402
 3640POPC   PO446800   4.038  14.871   5.534
 3640POPC   GL146801   4.198  15.210   5.802
 3640POPC   GL246802   4.529  15.339   5.924
 3640POPC   C1A46803   4.059  15.401   6.205
 3640POPC   D2A46804   4.106  15.196   6.626
 3640POPC   C3A46805   4.148  15.283   7.087
 3640POPC   C4A46806   3.914  15.215   7.500
 3640POPC   C1B46807   4.562  15.024   6.270
 3640POPC   C2B46808   4.575  14.991   6.705
 3640POPC   C3B46809   4.528  14.930   7.122
 3640POPC   C4B46810   4.839  14.829   7.407
 3641POPC   NC346811  19.019  41.235   5.621
 3641POPC   PO446812  18.942  41.909   5.435
 3641POPC   GL146813  19.077  41.718   5.834
 3641POPC   GL246814  18.730  41.594   5.867
 3641POPC   C1A46815  19.232  41.454   6.211
 3641POPC   D2A46816  19.078  41.285   6.620
 3641POPC   C3A46817  19.316  41.423   6.986
 3641POPC   C4A46818  19.178  41.559   7.424
 3641POPC   C1B46819  18.775  41.661   6.307
 3641POPC   C2B46820  19.093  41.815   6.580
 3641POPC   C3B46821  19.078  41.878   7.012
 3641POPC   C4B46822  19.124  42.144   7.335
 3642POPC   NC346823  28.730  37.912   5.528
 3642POPC   PO446824  28.041  37.843   5.450
 3642POPC   GL146825  28.263  37.934   5.833
 3642POPC   GL246826  28.580  37.780   5.996
 3642POPC   C1A46827  28.150  37.899   6.266
 3642POPC   D2A46828  27.995  37.796   6.676
 3642POPC   C3A46829  28.307  37.834   6.982
 3642POPC   C4A46830  28.461  37.757   7.380
 3642POPC   C1B46831  28.443  37.430   6.272
 3642POPC   C2B46832  28.366  37.378   6.705
 3642POPC   C3B46833  28.604  37.361   7.080
 3642POPC   C4B46834  28.463  37.262   7.483
 3643POPC   NC346835  15.429  19.519   5.096
 3643POPC   PO446836  15.095  19.005   5.399
 3643POPC   GL146837  15.287  18.927   5.798
 3643POPC   GL246838  15.024  19.114   5.891
 3643POPC   C1A46839  15.250  18.891   6.281
 3643POPC   D2A46840  15.092  19.127   6.680
 3643POPC   C3A46841  15.170  18.858   7.047
 3643POPC   C4A46842  15.552  18.645   7.125
 3643POPC   C1B46843  15.191  19.391   6.215
 3643POPC   C2B46844  15.524  19.488   6.508
 3643POPC   C3B46845  15.450  19.535   6.941
 3643POPC   C4B46846  15.142  19.347   7.198
 3644POPC   NC346847   8.549   8.553   5.372
 3644POPC   PO446848   7.852   8.415   5.476
 3644POPC   GL146849   8.098   8.161   5.787
 3644POPC   GL246850   8.384   7.878   5.710
 3644POPC   C1A46851   8.031   8.234   6.200
 3644POPC   D2A46852   8.256   8.424   6.476
 3644POPC   C3A46853   8.153   8.278   6.893
 3644POPC   C4A46854   8.052   8.305   7.328
 3644POPC   C1B46855   8.464   7.969   6.150
 3644POPC   C2B46856   8.276   7.888   6.542
 3644POPC   C3B46857   8.401   7.837   6.952
 3644POPC   C4B46858   8.518   8.059   7.310
 3645POPC   NC346859  20.387  22.732   5.631
 3645POPC   PO446860  20.999  22.892   5.330
 3645POPC   GL146861  20.784  23.091   5.791
 3645POPC   GL246862  20.444  23.113   5.942
 3645POPC   C1A46863  20.837  23.114   6.275
 3645POPC   D2A46864  20.928  23.234   6.725
 3645POPC   C3A46865  20.805  23.066   7.143
 3645POPC   C4A46866  20.750  23.258   7.575
 3645POPC   C1B46867  20.472  22.760   6.256
 3645POPC   C2B46868  20.653  22.783   6.656
 3645POPC   C3B46869  20.434  22.717   7.014
 3645POPC   C4B46870  20.303  22.609   7.396
 3646POPC   NC346871   2.713  24.107   5.371
 3646POPC   PO446872   2.766  23.522   5.319
 3646POPC   GL146873   2.815  23.729   5.722
 3646POPC   GL246874   2.481  23.698   5.790
 3646POPC   C1A46875   2.971  23.808   6.164
 3646POPC   D2A46876   2.838  23.700   6.603
 3646POPC   C3A46877   3.052  23.667   7.010
 3646POPC   C4A46878   2.832  23.669   7.406
 3646POPC   C1B46879   2.466  23.720   6.235
 3646POPC   C2B46880   2.301  23.582   6.645
 3646POPC   C3B46881   2.489  23.620   7.053
 3646POPC   C4B46882   2.307  23.697   7.485
 3647POPC   NC346883  12.519  37.212   5.429
 3647POPC   PO446884  12.117  36.621   5.429
 3647POPC   GL146885  12.050  36.895   5.818
 3647POPC   GL246886  12.234  37.224   5.870
 3647POPC   C1A46887  11.841  36.886   6.223
 3647POPC   D2A46888  11.994  37.060   6.638
 3647POPC   C3A46889  11.788  37.115   6.990
 3647POPC   C4A46890  11.903  36.794   7.191
 3647POPC   C1B46891  12.336  37.014   6.262
 3647POPC   C2B46892  12.478  36.896   6.667
 3647POPC   C3B46893  12.384  37.020   7.114
 3647POPC   C4B46894  12.575  37.136   7.569
 3648POPC   NC346895  30.313  26.283   5.704
 3648POPC   PO446896  29.734  26.088   5.384
 3648POPC   GL146897  29.855  25.987   5.809
 3648POPC   GL246898  30.069  25.671   5.818
 3648POPC   C1A46899  29.670  25.851   6.224
 3648POPC   D2A46900  29.901  25.899   6.625
 3648POPC   C3A46901  29.718  26.197   6.871
 3648POPC   C4A46902  29.600  25.902   7.159
 3648POPC   C1B46903  30.172  25.930   6.192
 3648POPC   C2B46904  30.398  26.054   6.514
 3648POPC   C3B46905  30.372  25.921   6.913
 3648POPC   C4B46906  30.101  26.060   7.220
 3649POPC   NC346907   5.951  37.249   5.381
 3649POPC   PO446908   5.985  36.666   5.703
 3649POPC   GL146909   5.970  36.956   5.943
 3649POPC   GL246910   6.280  37.074   5.876
 3649POPC   C1A46911   5.911  36.832   6.344
 3649POPC   D2A46912   5.698  36.715   6.659
 3649POPC   C3A46913   5.718  37.021   6.942
 3649POPC   C4A46914   5.523  37.050   7.324
 3649POPC   C1B46915   6.198  37.243   6.282
 3649POPC   C2B46916   6.216  37.057   6.676
 3649POPC   C3B46917   6.177  37.231   7.028
 3649POPC   C4B46918   6.037  37.052   7.375
 3650POPC   NC346919  32.398   6.173   5.457
 3650POPC   PO446920  32.414   5.575   5.747
 3650POPC   GL146921  32.188   5.889   5.899
 3650POPC   GL246922  31.921   5.665   6.027
 3650POPC   C1A46923  32.318   5.954   6.305
 3650POPC   D2A46924  32.166   5.794   6.670
 3650POPC   C3A46925  32.366   5.963   6.996
 3650POPC   C4A46926  32.316   6.219   7.368
 3650POPC   C1B46927  31.764   5.897   6.355
 3650POPC   C2B46928  31.653   5.797   6.764
 3650POPC   C3B46929  31.872   5.943   7.091
 3650POPC   C4B46930  32.136   5.749   7.400
 3651POPC   NC346931  37.919  23.719   5.428
 3651POPC   PO446932  37.282  23.987   5.428
 3651POPC   GL146933  37.577  23.958   5.809
 3651POPC   GL246934  37.679  23.596   5.850
 3651POPC   C1A46935  37.667  23.840   6.269
 3651POPC   D2A46936  37.685  23.575   6.612
 3651POPC   C3A46937  37.742  23.873   6.935
 3651POPC   C4A46938  37.771  24.036   7.359
 3651POPC   C1B46939  37.958  23.400   6.181
 3651POPC   C2B46940  38.007  23.175   6.585
 3651POPC   C3B46941  38.068  23.380   6.971
 3651POPC   C4B46942  38.264  23.615   7.306
 3652POPC   NC346943  22.286  23.914   5.396
 3652POPC   PO446944  21.802  23.484   5.390
 3652POPC   GL146945  21.985  23.718   5.766
 3652POPC   GL246946  22.016  24.099   5.807
 3652POPC   C1A46947  21.902  23.798   6.205
 3652POPC   D2A46948  22.121  23.600   6.518
 3652POPC   C3A46949  22.167  23.670   6.943
 3652POPC   C4A46950  21.980  23.561   7.295
 3652POPC   C1B46951  22.258  24.152   6.225
 3652POPC   C2B46952  22.159  24.118   6.658
 3652POPC   C3B46953  22.278  24.183   7.071
 3652POPC   C4B46954  22.328  23.899   7.406
 3653POPC   NC346955  36.260  36.171   5.531
 3653POPC   PO446956  36.015  35.681   5.248
 3653POPC   GL146957  35.854  35.949   5.733
 3653POPC   GL246958  35.887  36.298   5.851
 3653POPC   C1A46959  36.090  36.028   6.217
 3653POPC   D2A46960  36.309  35.877   6.609
 3653POPC   C3A46961  36.068  35.897   7.013
 3653POPC   C4A46962  35.986  35.831   7.465
 3653POPC   C1B46963  36.280  36.498   6.077
 3653POPC   C2B46964  36.462  36.388   6.485
 3653POPC   C3B46965  36.306  36.347   6.903
 3653POPC   C4B46966  36.169  36.287   7.343
 3654POPC   NC346967  19.750   3.613   5.498
 3654POPC   PO446968  20.266   3.226   5.493
 3654POPC   GL146969  20.018   3.391   5.852
 3654POPC   GL246970  20.055   3.780   5.867
 3654POPC   C1A46971  19.838   3.332   6.275
 3654POPC   D2A46972  19.964   3.557   6.650
 3654POPC   C3A46973  19.657   3.549   6.979
 3654POPC   C4A46974  19.604   3.596   7.421
 3654POPC   C1B46975  19.760   3.835   6.175
 3654POPC   C2B46976  19.762   4.034   6.578
 3654POPC   C3B46977  19.978   4.027   6.951
 3654POPC   C4B46978  19.840   4.057   7.362
 3655POPC   NC346979  31.733  29.385   5.354
 3655POPC   PO446980  31.076  29.381   5.487
 3655POPC   GL146981  31.382  29.057   5.683
 3655POPC   GL246982  31.753  29.122   5.788
 3655POPC   C1A46983  31.390  28.970   6.139
 3655POPC   D2A46984  31.419  29.215   6.537
 3655POPC   C3A46985  31.640  29.101   6.921
 3655POPC   C4A46986  31.424  29.044   7.341
 3655POPC   C1B46987  31.846  29.263   6.217
 3655POPC   C2B46988  31.819  29.532   6.613
 3655POPC   C3B46989  31.784  29.623   7.057
 3655POPC   C4B46990  31.623  29.483   7.478
 3656POPC   NC346991  30.705  24.083   5.451
 3656POPC   PO446992  30.695  23.442   5.407
 3656POPC   GL146993  30.894  23.660   5.734
 3656POPC   GL246994  30.589  23.825   5.885
 3656POPC   C1A46995  31.005  23.729   6.172
 3656POPC   D2A46996  30.721  23.756   6.519
 3656POPC   C3A46997  30.896  23.785   6.922
 3656POPC   C4A46998  30.704  23.574   7.257
 3656POPC   C1B46999  30.275  24.047   6.148
 3656POPC   C2B47000  30.276  24.029   6.572
 3656POPC   C3B47001  30.383  23.828   6.945
 3656POPC   C4B47002  30.312  23.974   7.351
 3657POPC   NC347003  33.269  26.261   5.518
 3657POPC   PO447004  33.182  25.637   5.280
 3657POPC   GL147005  32.976  25.849   5.646
 3657POPC   GL247006  32.621  25.819   5.665
 3657POPC   C1A47007  32.942  26.045   6.072
 3657POPC   D2A47008  33.128  26.176   6.481
 3657POPC   C3A47009  32.935  26.084   6.864
 3657POPC   C4A47010  33.139  26.102   7.248
 3657POPC   C1B47011  32.674  25.607   6.050
 3657POPC   C2B47012  32.763  25.750   6.465
 3657POPC   C3B47013  32.750  25.593   6.864
 3657POPC   C4B47014  32.793  25.721   7.272
 3658POPC   NC347015  42.284   5.906   5.330
 3658POPC   PO447016  42.812   5.561   5.202
 3658POPC   GL147017  42.654   5.557   5.692
 3658POPC   GL247018  42.288   5.467   5.804
 3658POPC   C1A47019  42.581   5.800   6.110
 3658POPC   D2A47020  42.359   5.853   6.547
 3658POPC   C3A47021  42.419   6.005   6.994
 3658POPC   C4A47022  42.458   5.712   7.367
 3658POPC   C1B47023  42.056   5.670   6.151
 3658POPC   C2B47024  41.891   5.637   6.571
 3658POPC   C3B47025  42.074   5.654   6.949
 3658POPC   C4B47026  41.984   5.885   7.293
 3659POPC   NC347027   4.722  20.340   5.301
 3659POPC   PO447028   5.132  20.812   5.451
 3659POPC   GL147029   5.127  20.679   5.844
 3659POPC   GL247030   4.861  20.499   5.781
 3659POPC   C1A47031   5.052  20.815   6.282
 3659POPC   D2A47032   5.132  20.644   6.691
 3659POPC   C3A47033   5.225  20.907   7.016
 3659POPC   C4A47034   5.393  20.932   7.410
 3659POPC   C1B47035   4.892  20.343   6.191
 3659POPC   C2B47036   4.797  20.283   6.616
 3659POPC   C3B47037   4.984  20.249   7.009
 3659POPC   C4B47038   5.088  20.518   7.350
 3660POPC   NC347039   3.823  39.942   5.452
 3660POPC   PO447040   3.175  39.899   5.411
 3660POPC   GL147041   3.420  39.792   5.782
 3660POPC   GL247042   3.538  40.107   5.841
 3660POPC   C1A47043   3.574  39.723   6.216
 3660POPC   D2A47044   3.318  39.617   6.596
 3660POPC   C3A47045   3.474  39.729   7.039
 3660POPC   C4A47046   3.856  39.535   7.243
 3660POPC   C1B47047   3.543  40.245   6.242
 3660POPC   C2B47048   3.636  40.061   6.640
 3660POPC   C3B47049   3.597  40.252   7.028
 3660POPC   C4B47050   3.415  40.187   7.419
 3661POPC   NC347051  34.448  12.376   5.420
 3661POPC   PO447052  34.811  11.836   5.475
 3661POPC   GL147053  34.615  12.044   5.820
 3661POPC   GL247054  34.667  12.410   5.878
 3661POPC   C1A47055  34.412  12.050   6.214
 3661POPC   D2A47056  34.538  12.155   6.622
 3661POPC   C3A47057  34.256  12.164   6.975
 3661POPC   C4A47058  34.165  11.851   7.253
 3661POPC   C1B47059  34.874  12.352   6.271
 3661POPC   C2B47060  34.972  12.408   6.722
 3661POPC   C3B47061  34.879  12.097   7.005
 3661POPC   C4B47062  34.626  12.137   7.336
 3662POPC   NC347063  38.983  36.219   5.552
 3662POPC   PO447064  39.517  35.901   5.292
 3662POPC   GL147065  39.569  35.940   5.724
 3662POPC   GL247066  39.242  35.853   5.810
 3662POPC   C1A47067  39.574  36.024   6.181
 3662POPC   D2A47068  39.284  35.957   6.531
 3662POPC   C3A47069  39.434  36.038   6.934
 3662POPC   C4A47070  39.164  36.106   7.269
 3662POPC   C1B47071  38.946  35.801   6.150
 3662POPC   C2B47072  38.962  35.567   6.555
 3662POPC   C3B47073  38.972  35.753   6.956
 3662POPC   C4B47074  38.656  35.845   7.287
 3663POPC   NC347075  24.100  20.494   4.889
 3663POPC   PO447076  23.638  20.738   5.352
 3663POPC   GL147077  23.678  20.666   5.798
 3663POPC   GL247078  23.509  20.340   5.837
 3663POPC   C1A47079  23.704  20.618   6.269
 3663POPC   D2A47080  24.003  20.481   6.597
 3663POPC   C3A47081  23.922  20.671   6.999
 3663POPC   C4A47082  23.506  20.730   7.165
 3663POPC   C1B47083  23.635  20.113   6.210
 3663POPC   C2B47084  23.563  20.215   6.656
 3663POPC   C3B47085  23.717  20.199   7.081
 3663POPC   C4B47086  23.555  20.135   7.481
 3664POPC   NC347087   9.171  44.883   5.332
 3664POPC   PO447088   8.664  44.615   5.633
 3664POPC   GL147089   9.018  44.735   5.892
 3664POPC   GL247090   9.381  44.823   5.820
 3664POPC   C1A47091   9.017  44.762   6.344
 3664POPC   D2A47092   8.973  44.473   6.703
 3664POPC   C3A47093   8.867  44.762   7.026
 3664POPC   C4A47094   8.792  44.959   7.444
 3664POPC   C1B47095   9.494  44.639   6.243
 3664POPC   C2B47096   9.403  44.776   6.697
 3664POPC   C3B47097   9.321  44.491   7.066
 3664POPC   C4B47098   9.089  44.549   7.467
 3665POPC   NC347099  11.345   3.692   5.431
 3665POPC   PO447100  11.481   3.060   5.233
 3665POPC   GL147101  11.454   3.268   5.722
 3665POPC   GL247102  11.140   3.205   5.896
 3665POPC   C1A47103  11.402   3.535   6.180
 3665POPC   D2A47104  11.512   3.745   6.586
 3665POPC   C3A47105  11.363   3.558   7.011
 3665POPC   C4A47106  11.450   3.542   7.445
 3665POPC   C1B47107  10.909   3.452   6.179
 3665POPC   C2B47108  11.051   3.468   6.600
 3665POPC   C3B47109  10.883   3.695   6.950
 3665POPC   C4B47110  10.890   3.501   7.344
 3666POPC   NC347111  42.535  32.778   5.584
 3666POPC   PO447112  42.227  33.372   5.481
 3666POPC   GL147113  42.254  33.129   5.851
 3666POPC   GL247114  42.025  32.847   5.722
 3666POPC   C1A47115  42.515  32.961   6.235
 3666POPC   D2A47116  42.528  32.726   6.652
 3666POPC   C3A47117  42.397  33.044   6.967
 3666POPC   C4A47118  42.147  33.419   6.989
 3666POPC   C1B47119  42.019  32.816   6.160
 3666POPC   C2B47120  41.977  32.912   6.579
 3666POPC   C3B47121  42.057  32.599   6.834
 3666POPC   C4B47122  42.291  32.590   7.189
 3667POPC   NC347123  41.621  24.603   5.305
 3667POPC   PO447124  41.331  24.104   5.636
 3667POPC   GL147125  41.649  24.370   5.805
 3667POPC   GL247126  41.432  24.618   5.822
 3667POPC   C1A47127  41.873  24.224   6.159
 3667POPC   D2A47128  41.647  24.204   6.527
 3667POPC   C3A47129  41.793  24.225   6.928
 3667POPC   C4A47130  41.841  24.511   7.272
 3667POPC   C1B47131  41.321  24.483   6.251
 3667POPC   C2B47132  41.476  24.657   6.682
 3667POPC   C3B47133  41.412  24.776   7.130
 3667POPC   C4B47134  41.174  24.769   7.571
 3668POPC   NC347135  16.712  39.940   5.126
 3668POPC   PO447136  16.408  40.281   5.620
 3668POPC   GL147137  16.818  40.089   5.744
 3668POPC   GL247138  16.909  39.740   5.798
 3668POPC   C1A47139  17.008  40.117   6.143
 3668POPC   D2A47140  16.713  40.091   6.461
 3668POPC   C3A47141  16.793  40.040   6.866
 3668POPC   C4A47142  16.543  40.165   7.221
 3668POPC   C1B47143  16.824  39.596   6.235
 3668POPC   C2B47144  16.563  39.598   6.635
 3668POPC   C3B47145  16.492  39.691   7.075
 3668POPC   C4B47146  16.863  39.776   7.336
 3669POPC   NC347147  21.139   2.400   5.664
 3669POPC   PO447148  20.783   2.868   5.242
 3669POPC   GL147149  20.743   2.811   5.727
 3669POPC   GL247150  20.783   3.127   5.924
 3669POPC   C1A47151  20.814   2.610   6.187
 3669POPC   D2A47152  20.565   2.582   6.604
 3669POPC   C3A47153  20.764   2.569   7.036
 3669POPC   C4A47154  20.972   2.730   7.422
 3669POPC   C1B47155  20.650   3.062   6.344
 3669POPC   C2B47156  20.745   3.041   6.787
 3669POPC   C3B47157  20.526   3.195   7.120
 3669POPC   C4B47158  20.353   2.831   7.211
 3670POPC   NC347159  18.556  41.672   5.355
 3670POPC   PO447160  17.934  41.353   5.367
 3670POPC   GL147161  18.038  41.463   5.785
 3670POPC   GL247162  18.242  41.738   5.754
 3670POPC   C1A47163  18.333  41.403   6.145
 3670POPC   D2A47164  18.546  41.251   6.521
 3670POPC   C3A47165  18.355  41.394   6.895
 3670POPC   C4A47166  18.647  41.607   7.174
 3670POPC   C1B47167  18.350  41.940   6.146
 3670POPC   C2B47168  18.361  41.804   6.608
 3670POPC   C3B47169  18.200  41.883   7.061
 3670POPC   C4B47170  18.188  41.989   7.535
 3671POPC   NC347171  24.614   8.369   5.364
 3671POPC   PO447172  24.444   7.801   5.426
 3671POPC   GL147173  24.552   8.102   5.807
 3671POPC   GL247174  24.706   8.466   5.857
 3671POPC   C1A47175  24.339   8.176   6.221
 3671POPC   D2A47176  24.095   8.104   6.600
 3671POPC   C3A47177  24.245   8.039   7.028
 3671POPC   C4A47178  24.688   7.978   7.132
 3671POPC   C1B47179  24.765   8.442   6.293
 3671POPC   C2B47180  24.632   8.235   6.685
 3671POPC   C3B47181  24.537   8.455   7.086
 3671POPC   C4B47182  24.685   8.675   7.452
 3672POPC   NC347183  41.130  10.395   5.468
 3672POPC   PO447184  40.478  10.755   5.443
 3672POPC   GL147185  40.766  10.731   5.815
 3672POPC   GL247186  41.118  10.688   5.876
 3672POPC   C1A47187  40.818  10.570   6.269
 3672POPC   D2A47188  40.541  10.552   6.626
 3672POPC   C3A47189  40.687  10.693   7.034
 3672POPC   C4A47190  40.832  10.437   7.385
 3672POPC   C1B47191  41.282  10.816   6.233
 3672POPC   C2B47192  41.154  10.785   6.610
 3672POPC   C3B47193  41.382  10.843   6.968
 3672POPC   C4B47194  41.152  10.818   7.301
 3673POPC   NC347195  29.042  40.445   5.444
 3673POPC   PO447196  29.101  41.069   5.135
 3673POPC   GL147197  29.239  40.912   5.567
 3673POPC   GL247198  28.927  40.828   5.779
 3673POPC   C1A47199  29.402  40.992   5.992
 3673POPC   D2A47200  29.272  40.994   6.437
 3673POPC   C3A47201  29.487  40.879   6.825
 3673POPC   C4A47202  29.269  40.931   7.209
 3673POPC   C1B47203  28.826  40.665   6.215
 3673POPC   C2B47204  28.728  40.447   6.611
 3673POPC   C3B47205  28.899  40.553   7.031
 3673POPC   C4B47206  28.897  40.701   7.472
 3674POPC   NC347207  15.352   5.950   5.398
 3674POPC   PO447208  14.854   5.522   5.436
 3674POPC   GL147209  14.971   5.745   5.832
 3674POPC   GL247210  15.088   6.092   5.816
 3674POPC   C1A47211  14.883   5.899   6.269
 3674POPC   D2A47212  15.010   5.635   6.632
 3674POPC   C3A47213  15.183   5.736   7.004
 3674POPC   C4A47214  14.882   5.851   7.248
 3674POPC   C1B47215  15.335   6.173   6.187
 3674POPC   C2B47216  15.216   6.112   6.611
 3674POPC   C3B47217  15.140   6.240   7.023
 3674POPC   C4B47218  15.530   6.175   7.202
 3675POPC   NC347219  18.940  26.890   5.469
 3675POPC   PO447220  18.575  26.398   5.794
 3675POPC   GL147221  18.958  26.688   5.958
 3675POPC   GL247222  19.223  26.990   5.877
 3675POPC   C1A47223  19.041  26.921   6.344
 3675POPC   D2A47224  18.899  27.033   6.744
 3675POPC   C3A47225  18.889  26.714   7.077
 3675POPC   C4A47226  19.141  26.563   7.423
 3675POPC   C1B47227  19.526  27.101   6.229
 3675POPC   C2B47228  19.525  27.085   6.695
 3675POPC   C3B47229  19.265  27.101   7.100
 3675POPC   C4B47230  19.360  27.411   7.412
 3676POPC   NC347231  25.730  15.446   5.406
 3676POPC   PO447232  26.368  15.137   5.571
 3676POPC   GL147233  26.294  15.428   5.864
 3676POPC   GL247234  25.937  15.377   5.863
 3676POPC   C1A47235  26.313  15.248   6.260
 3676POPC   D2A47236  26.077  14.968   6.493
 3676POPC   C3A47237  26.205  15.025   6.888
 3676POPC   C4A47238  25.965  14.945   7.221
 3676POPC   C1B47239  25.928  15.587   6.243
 3676POPC   C2B47240  26.081  15.505   6.656
 3676POPC   C3B47241  25.939  15.440   7.063
 3676POPC   C4B47242  26.032  15.594   7.451
 3677POPC   NC347243  17.685  18.476   5.339
 3677POPC   PO447244  17.229  18.007   5.486
 3677POPC   GL147245  17.531  18.206   5.774
 3677POPC   GL247246  17.348  18.507   5.853
 3677POPC   C1A47247  17.793  18.155   6.166
 3677POPC   D2A47248  17.678  18.393   6.567
 3677POPC   C3A47249  17.897  18.370   6.934
 3677POPC   C4A47250  17.783  18.076   7.200
 3677POPC   C1B47251  17.065  18.583   6.228
 3677POPC   C2B47252  17.166  18.592   6.694
 3677POPC   C3B47253  17.369  18.384   7.067
 3677POPC   C4B47254  17.348  18.465   7.524
 3678POPC   NC347255  27.321  22.530   5.411
 3678POPC   PO447256  27.346  23.156   5.459
 3678POPC   GL147257  27.381  22.937   5.890
 3678POPC   GL247258  27.121  22.667   5.863
 3678POPC   C1A47259  27.618  22.966   6.333
 3678POPC   D2A47260  27.923  23.002   6.721
 3678POPC   C3A47261  27.813  23.218   7.115
 3678POPC   C4A47262  27.569  23.259   7.523
 3678POPC   C1B47263  27.262  22.589   6.264
 3678POPC   C2B47264  27.253  22.706   6.671
 3678POPC   C3B47265  27.292  22.595   7.088
 3678POPC   C4B47266  27.583  22.799   7.330
 3679POPC   NC347267  27.136  41.590   5.406
 3679POPC   PO447268  26.711  42.015   5.698
 3679POPC   GL147269  26.966  41.687   5.911
 3679POPC   GL247270  27.028  41.317   5.812
 3679POPC   C1A47271  26.899  41.708   6.362
 3679POPC   D2A47272  27.003  41.804   6.781
 3679POPC   C3A47273  26.722  41.574   7.022
 3679POPC   C4A47274  26.561  41.637   7.418
 3679POPC   C1B47275  27.051  41.187   6.229
 3679POPC   C2B47276  27.035  41.304   6.658
 3679POPC   C3B47277  27.009  41.081   7.020
 3679POPC   C4B47278  26.805  41.184   7.360
 3680POPC   NC347279  25.780  32.124   5.444
 3680POPC   PO447280  26.398  32.580   5.493
 3680POPC   GL147281  26.044  32.423   5.755
 3680POPC   GL247282  26.272  32.277   5.962
 3680POPC   C1A47283  25.815  32.216   6.131
 3680POPC   D2A47284  26.108  32.265   6.482
 3680POPC   C3A47285  25.959  32.409   6.855
 3680POPC   C4A47286  25.824  32.135   7.206
 3680POPC   C1B47287  26.353  31.914   6.189
 3680POPC   C2B47288  26.537  31.960   6.560
 3680POPC   C3B47289  26.265  31.945   6.883
 3680POPC   C4B47290  26.322  31.805   7.256
 3681POPC   NC347291  40.387   4.862   5.528
 3681POPC   PO447292  40.251   5.451   5.520
 3681POPC   GL147293  40.000   5.232   5.811
 3681POPC   GL247294  39.773   5.511   5.903
 3681POPC   C1A47295  40.021   4.901   6.157
 3681POPC   D2A47296  40.011   4.678   6.573
 3681POPC   C3A47297  40.281   4.791   6.898
 3681POPC   C4A47298  40.085   5.038   7.197
 3681POPC   C1B47299  40.048   5.414   6.294
 3681POPC   C2B47300  40.062   5.292   6.751
 3681POPC   C3B47301  39.792   5.459   7.127
 3681POPC   C4B47302  39.686   5.656   7.549
 3682POPC   NC347303  18.095  33.413   5.619
 3682POPC   PO447304  18.570  34.000   5.521
 3682POPC   GL147305  18.358  33.805   5.815
 3682POPC   GL247306  18.564  33.521   5.805
 3682POPC   C1A47307  18.214  33.715   6.231
 3682POPC   D2A47308  18.307  33.839   6.654
 3682POPC   C3A47309  18.058  33.753   7.024
 3682POPC   C4A47310  17.919  33.853   7.443
 3682POPC   C1B47311  18.715  33.581   6.211
 3682POPC   C2B47312  18.608  33.415   6.613
 3682POPC   C3B47313  18.542  33.603   7.035
 3682POPC   C4B47314  18.353  33.566   7.445
 3683POPC   NC347315  28.904  30.786   5.406
 3683POPC   PO447316  29.485  30.953   5.604
 3683POPC   GL147317  29.257  30.744   5.900
 3683POPC   GL247318  28.920  30.860   5.913
 3683POPC   C1A47319  29.156  30.632   6.342
 3683POPC   D2A47320  29.040  30.340   6.687
 3683POPC   C3A47321  29.280  30.533   7.032
 3683POPC   C4A47322  29.508  30.401   7.396
 3683POPC   C1B47323  28.720  30.883   6.324
 3683POPC   C2B47324  28.887  30.817   6.761
 3683POPC   C3B47325  28.808  30.636   7.179
 3683POPC   C4B47326  28.727  30.763   7.608
 3684POPC   NC347327  11.180  32.462   5.227
 3684POPC   PO447328  11.550  32.837   5.683
 3684POPC   GL147329  11.334  32.476   5.910
 3684POPC   GL247330  11.158  32.237   5.699
 3684POPC   C1A47331  11.332  32.286   6.332
 3684POPC   D2A47332  11.549  32.100   6.693
 3684POPC   C3A47333  11.774  32.346   6.981
 3684POPC   C4A47334  11.613  32.640   7.273
 3684POPC   C1B47335  10.946  32.052   6.039
 3684POPC   C2B47336  10.881  32.006   6.479
 3684POPC   C3B47337  11.055  32.118   6.877
 3684POPC   C4B47338  11.186  32.279   7.292
 3685POPC   NC347339  31.025   7.935   5.377
 3685POPC   PO447340  30.561   8.352   5.151
 3685POPC   GL147341  30.608   8.177   5.657
 3685POPC   GL247342  30.849   7.938   5.853
 3685POPC   C1A47343  30.521   8.181   6.145
 3685POPC   D2A47344  30.676   8.025   6.582
 3685POPC   C3A47345  30.602   8.315   6.952
 3685POPC   C4A47346  30.236   8.586   7.094
 3685POPC   C1B47347  31.119   8.053   6.203
 3685POPC   C2B47348  31.201   8.103   6.627
 3685POPC   C3B47349  31.037   8.043   7.031
 3685POPC   C4B47350  30.797   8.097   7.401
 3686POPC   NC347351   9.209  33.246   5.413
 3686POPC   PO447352   9.887  32.962   5.344
 3686POPC   GL147353   9.891  32.960   5.924
 3686POPC   GL247354   9.560  32.852   6.072
 3686POPC   C1A47355   9.662  33.284   6.296
 3686POPC   D2A47356   9.218  33.163   6.448
 3686POPC   C3A47357   9.251  32.865   6.779
 3686POPC   C4A47358   9.452  33.103   7.120
 3686POPC   C1B47359   9.915  32.877   6.429
 3686POPC   C2B47360  10.111  33.231   6.666
 3686POPC   C3B47361   9.936  33.249   7.056
 3686POPC   C4B47362   9.830  32.800   7.224
 3687POPC   NC347363  37.845  28.239   5.373
 3687POPC   PO447364  37.262  28.416   5.447
 3687POPC   GL147365  37.603  28.524   5.800
 3687POPC   GL247366  37.921  28.358   5.856
 3687POPC   C1A47367  37.612  28.347   6.266
 3687POPC   D2A47368  37.413  28.239   6.665
 3687POPC   C3A47369  37.659  28.297   7.043
 3687POPC   C4A47370  37.553  28.316   7.511
 3687POPC   C1B47371  37.814  27.932   6.068
 3687POPC   C2B47372  37.989  27.829   6.477
 3687POPC   C3B47373  37.848  27.832   6.903
 3687POPC   C4B47374  37.860  27.941   7.337
 3688POPC   NC347375  29.463  25.772   5.580
 3688POPC   PO447376  28.880  26.187   5.434
 3688POPC   GL147377  29.089  26.079   5.800
 3688POPC   GL247378  29.389  26.243   5.796
 3688POPC   C1A47379  29.124  25.930   6.224
 3688POPC   D2A47380  29.319  25.852   6.628
 3688POPC   C3A47381  29.004  25.843   6.945
 3688POPC   C4A47382  29.143  25.753   7.338
 3688POPC   C1B47383  29.307  26.402   6.211
 3688POPC   C2B47384  29.181  26.388   6.648
 3688POPC   C3B47385  29.248  26.282   7.083
 3688POPC   C4B47386  29.270  26.436   7.502
 3689POPC   NC347387  10.142  37.946   5.485
 3689POPC   PO447388  10.815  37.804   5.480
 3689POPC   GL147389  10.457  37.830   5.845
 3689POPC   GL247390  10.342  37.512   6.032
 3689POPC   C1A47391  10.209  37.999   6.166
 3689POPC   D2A47392  10.308  38.046   6.591
 3689POPC   C3A47393  10.487  37.688   6.810
 3689POPC   C4A47394  10.436  37.686   7.252
 3689POPC   C1B47395  10.763  37.640   6.175
 3689POPC   C2B47396  10.938  37.613   6.517
 3689POPC   C3B47397  11.003  37.664   6.904
 3689POPC   C4B47398  10.901  37.507   7.263
 3690POPC   NC347399  28.615  25.820   5.589
 3690POPC   PO447400  28.243  26.396   5.474
 3690POPC   GL147401  28.264  26.188   5.837
 3690POPC   GL247402  27.915  26.296   5.887
 3690POPC   C1A47403  28.487  26.080   6.208
 3690POPC   D2A47404  28.750  26.132   6.570
 3690POPC   C3A47405  28.533  26.102   6.958
 3690POPC   C4A47406  28.612  25.878   7.337
 3690POPC   C1B47407  27.955  25.963   6.204
 3690POPC   C2B47408  28.071  25.914   6.637
 3690POPC   C3B47409  28.064  25.860   7.095
 3690POPC   C4B47410  28.068  26.068   7.510
 3691POPC   NC347411  14.720  29.997   5.520
 3691POPC   PO447412  14.014  30.237   5.494
 3691POPC   GL147413  14.284  30.150   5.875
 3691POPC   GL247414  14.552  29.865   5.985
 3691POPC   C1A47415  14.140  29.966   6.269
 3691POPC   D2A47416  13.861  29.943   6.626
 3691POPC   C3A47417  14.014  30.034   7.052
 3691POPC   C4A47418  14.321  29.955   7.337
 3691POPC   C1B47419  14.740  29.974   6.355
 3691POPC   C2B47420  14.592  29.930   6.785
 3691POPC   C3B47421  14.790  29.999   7.159
 3691POPC   C4B47422  14.740  29.809   7.579
 3692POPC   NC347423  33.659   0.053   5.487
 3692POPC   PO447424  33.717  44.386   5.375
 3692POPC   GL147425  33.691  44.586   5.770
 3692POPC   GL247426  33.997  44.688   5.844
 3692POPC   C1A47427  33.483  44.510   6.163
 3692POPC   D2A47428  33.553  44.336   6.578
 3692POPC   C3A47429  33.520  44.545   7.001
 3692POPC   C4A47430  33.652  44.374   7.420
 3692POPC   C1B47431  33.886  44.836   6.226
 3692POPC   C2B47432  33.926  44.685   6.614
 3692POPC   C3B47433  34.003  44.886   6.955
 3692POPC   C4B47434  33.933  44.766   7.341
 3693POPC   NC347435  39.148  33.300   5.527
 3693POPC   PO447436  38.571  33.087   5.184
 3693POPC   GL147437  38.670  33.116   5.632
 3693POPC   GL247438  38.608  32.805   5.776
 3693POPC   C1A47439  38.589  33.171   6.117
 3693POPC   D2A47440  38.696  33.050   6.573
 3693POPC   C3A47441  38.471  33.231   6.934
 3693POPC   C4A47442  38.123  33.117   7.219
 3693POPC   C1B47443  38.790  32.639   6.153
 3693POPC   C2B47444  38.892  32.547   6.589
 3693POPC   C3B47445  38.723  32.706   6.973
 3693POPC   C4B47446  38.576  32.906   7.349
 3694POPC   NC347447   3.226  24.743   5.334
 3694POPC   PO447448   3.532  24.146   5.478
 3694POPC   GL147449   3.565  24.561   5.694
 3694POPC   GL247450   3.910  24.664   5.739
 3694POPC   C1A47451   3.438  24.757   6.088
 3694POPC   D2A47452   3.368  24.542   6.473
 3694POPC   C3A47453   3.456  24.780   6.851
 3694POPC   C4A47454   3.390  24.714   7.270
 3694POPC   C1B47455   3.835  24.446   6.126
 3694POPC   C2B47456   3.862  24.691   6.476
 3694POPC   C3B47457   3.943  24.592   6.862
 3694POPC   C4B47458   3.782  24.417   7.189
 3695POPC   NC347459  43.020  28.518   5.432
 3695POPC   PO447460  43.528  28.064   5.414
 3695POPC   GL147461  43.231  28.181   5.777
 3695POPC   GL247462  42.852  28.270   5.848
 3695POPC   C1A47463  43.164  28.169   6.228
 3695POPC   D2A47464  43.186  28.260   6.627
 3695POPC   C3A47465  43.321  27.942   6.878
 3695POPC   C4A47466  43.386  28.248   7.161
 3695POPC   C1B47467  42.839  28.566   6.208
 3695POPC   C2B47468  42.773  28.564   6.669
 3695POPC   C3B47469  42.865  28.329   7.045
 3695POPC   C4B47470  42.631  28.240   7.418
 3696POPC   NC347471   4.925  13.077   4.971
 3696POPC   PO447472   5.413  12.720   5.284
 3696POPC   GL147473   5.183  12.867   5.726
 3696POPC   GL247474   4.967  13.169   5.768
 3696POPC   C1A47475   5.062  12.710   6.174
 3696POPC   D2A47476   5.177  12.592   6.605
 3696POPC   C3A47477   4.959  12.768   6.963
 3696POPC   C4A47478   5.215  12.828   7.294
 3696POPC   C1B47479   5.305  13.171   6.108
 3696POPC   C2B47480   5.191  13.266   6.522
 3696POPC   C3B47481   5.272  13.207   6.941
 3696POPC   C4B47482   4.952  13.244   7.266
 3697POPC   NC347483  21.282  28.189   5.514
 3697POPC   PO447484  21.667  28.777   5.443
 3697POPC   GL147485  21.717  28.508   5.838
 3697POPC   GL247486  21.627  28.137   5.903
 3697POPC   C1A47487  21.464  28.491   6.233
 3697POPC   D2A47488  21.204  28.513   6.591
 3697POPC   C3A47489  21.429  28.418   6.903
 3697POPC   C4A47490  21.381  28.363   7.312
 3697POPC   C1B47491  21.242  28.022   6.163
 3697POPC   C2B47492  21.332  28.002   6.605
 3697POPC   C3B47493  21.436  27.925   7.002
 3697POPC   C4B47494  21.263  27.877   7.357
 3698POPC   NC347495  27.947  41.833   5.587
 3698POPC   PO447496  27.450  41.243   5.483
 3698POPC   GL147497  27.527  41.468   5.814
 3698POPC   GL247498  27.834  41.338   5.819
 3698POPC   C1A47499  27.382  41.638   6.215
 3698POPC   D2A47500  27.486  41.893   6.601
 3698POPC   C3A47501  27.480  41.702   7.016
 3698POPC   C4A47502  27.235  41.462   7.283
 3698POPC   C1B47503  27.888  41.535   6.232
 3698POPC   C2B47504  27.963  41.654   6.658
 3698POPC   C3B47505  27.963  41.521   7.089
 3698POPC   C4B47506  27.793  41.660   7.472
 3699POPC   NC347507  10.555  38.856   5.429
 3699POPC   PO447508  10.728  39.502   5.578
 3699POPC   GL147509  10.787  39.344   5.965
 3699POPC   GL247510  10.504  39.122   5.907
 3699POPC   C1A47511  10.601  39.382   6.377
 3699POPC   D2A47512  10.235  39.460   6.664
 3699POPC   C3A47513  10.438  39.435   7.071
 3699POPC   C4A47514  10.890  39.389   7.196
 3699POPC   C1B47515  10.251  39.027   6.269
 3699POPC   C2B47516  10.421  38.988   6.675
 3699POPC   C3B47517  10.578  38.926   7.056
 3699POPC   C4B47518  10.276  39.004   7.404
 3700POPC   NC347519  24.364   4.573   5.417
 3700POPC   PO447520  24.834   4.076   5.459
 3700POPC   GL147521  24.624   4.289   5.814
 3700POPC   GL247522  24.783   4.606   5.800
 3700POPC   C1A47523  24.525   4.142   6.250
 3700POPC   D2A47524  24.453   4.341   6.659
 3700POPC   C3A47525  24.089   4.278   6.931
 3700POPC   C4A47526  24.246   4.323   7.331
 3700POPC   C1B47527  24.911   4.650   6.237
 3700POPC   C2B47528  24.748   4.771   6.667
 3700POPC   C3B47529  24.614   4.615   7.091
 3700POPC   C4B47530  24.769   4.645   7.517
 3701POPC   NC347531  34.992  16.139   5.387
 3701POPC   PO447532  34.300  15.917   5.406
 3701POPC   GL147533  34.451  16.080   5.812
 3701POPC   GL247534  34.823  16.094   5.876
 3701POPC   C1A47535  34.509  15.899   6.237
 3701POPC   D2A47536  34.500  15.622   6.573
 3701POPC   C3A47537  34.406  15.821   6.960
 3701POPC   C4A47538  34.399  16.220   7.195
 3701POPC   C1B47539  34.884  16.238   6.313
 3701POPC   C2B47540  34.688  16.250   6.743
 3701POPC   C3B47541  34.871  16.129   7.145
 3701POPC   C4B47542  34.987  16.101   7.613
 3702POPC   NC347543  16.863  44.218   5.513
 3702POPC   PO447544  16.682  43.583   5.262
 3702POPC   GL147545  16.759  43.768   5.724
 3702POPC   GL247546  16.524  43.893   5.880
 3702POPC   C1A47547  16.870  43.819   6.233
 3702POPC   D2A47548  17.103  43.990   6.618
 3702POPC   C3A47549  16.844  44.106   6.973
 3702POPC   C4A47550  16.498  44.355   7.073
 3702POPC   C1B47551  16.389  44.050   6.247
 3702POPC   C2B47552  16.505  43.906   6.644
 3702POPC   C3B47553  16.491  43.727   7.048
 3702POPC   C4B47554  16.279  43.618   7.421
 3703POPC   NC347555  38.188  21.223   5.306
 3703POPC   PO447556  38.661  21.665   5.490
 3703POPC   GL147557  38.460  21.420   5.856
 3703POPC   GL247558  38.130  21.226   5.830
 3703POPC   C1A47559  38.456  21.434   6.330
 3703POPC   D2A47560  38.411  21.805   6.654
 3703POPC   C3A47561  38.325  21.603   7.012
 3703POPC   C4A47562  38.574  21.226   7.180
 3703POPC   C1B47563  38.121  21.051   6.269
 3703POPC   C2B47564  38.300  21.117   6.718
 3703POPC   C3B47565  38.041  21.195   7.102
 3703POPC   C4B47566  37.979  21.018   7.518
 3704POPC   NC347567   6.893  22.698   5.145
 3704POPC   PO447568   6.648  23.375   5.233
 3704POPC   GL147569   6.600  22.985   5.532
 3704POPC   GL247570   6.869  22.764   5.652
 3704POPC   C1A47571   6.441  22.878   5.969
 3704POPC   D2A47572   6.282  23.082   6.385
 3704POPC   C3A47573   6.312  22.897   6.809
 3704POPC   C4A47574   6.443  22.678   7.186
 3704POPC   C1B47575   6.916  22.743   6.089
 3704POPC   C2B47576   6.691  22.758   6.474
 3704POPC   C3B47577   6.839  22.784   6.890
 3704POPC   C4B47578   6.955  22.561   7.272
 3705POPC   NC347579  11.394   6.868   5.496
 3705POPC   PO447580  11.136   7.472   5.316
 3705POPC   GL147581  11.174   7.285   5.708
 3705POPC   GL247582  11.509   7.310   5.812
 3705POPC   C1A47583  11.053   7.321   6.124
 3705POPC   D2A47584  11.234   7.249   6.515
 3705POPC   C3A47585  11.006   7.210   6.909
 3705POPC   C4A47586  11.348   7.214   7.157
 3705POPC   C1B47587  11.571   7.601   6.177
 3705POPC   C2B47588  11.766   7.795   6.549
 3705POPC   C3B47589  11.681   7.817   6.979
 3705POPC   C4B47590  11.717   7.548   7.332
 3706POPC   NC347591  43.875  39.575   5.691
 3706POPC   PO447592  44.043  38.934   5.534
 3706POPC   GL147593  43.883  39.090   5.900
 3706POPC   GL247594  43.522  39.189   5.819
 3706POPC   C1A47595  43.972  39.209   6.342
 3706POPC   D2A47596  43.929  38.962   6.740
 3706POPC   C3A47597  43.998  39.145   7.152
 3706POPC   C4A47598  43.893  39.552   7.360
 3706POPC   C1B47599  43.500  39.002   6.227
 3706POPC   C2B47600  43.525  39.245   6.596
 3706POPC   C3B47601  43.531  39.194   6.999
 3706POPC   C4B47602  43.468  38.848   7.224
 3707POPC   NC347603  23.767  25.769   5.321
 3707POPC   PO447604  23.254  26.192   5.404
 3707POPC   GL147605  23.640  26.235   5.694
 3707POPC   GL247606  23.854  25.924   5.779
 3707POPC   C1A47607  23.702  26.180   6.164
 3707POPC   D2A47608  23.572  25.854   6.449
 3707POPC   C3A47609  23.494  26.051   6.808
 3707POPC   C4A47610  23.727  26.196   7.155
 3707POPC   C1B47611  24.016  25.756   6.150
 3707POPC   C2B47612  23.996  25.544   6.521
 3707POPC   C3B47613  23.823  25.668   6.908
 3707POPC   C4B47614  23.972  25.768   7.294
 3708POPC   NC347615  31.033   2.998   5.408
 3708POPC   PO447616  30.449   2.910   5.136
 3708POPC   GL147617  30.691   2.718   5.610
 3708POPC   GL247618  30.581   2.978   5.845
 3708POPC   C1A47619  30.914   2.680   6.062
 3708POPC   D2A47620  30.670   2.823   6.435
 3708POPC   C3A47621  30.679   2.745   6.882
 3708POPC   C4A47622  30.962   2.856   7.204
 3708POPC   C1B47623  30.383   3.193   6.228
 3708POPC   C2B47624  30.192   2.960   6.603
 3708POPC   C3B47625  30.236   2.945   7.031
 3708POPC   C4B47626  30.505   3.190   7.304
 3709POPC   NC347627  38.281   4.938   5.432
 3709POPC   PO447628  38.616   5.463   5.369
 3709POPC   GL147629  38.414   5.302   5.792
 3709POPC   GL247630  38.054   5.142   5.879
 3709POPC   C1A47631  38.539   5.082   6.190
 3709POPC   D2A47632  38.643   4.761   6.528
 3709POPC   C3A47633  38.588   4.879   6.962
 3709POPC   C4A47634  38.865   5.095   7.302
 3709POPC   C1B47635  38.053   5.054   6.353
 3709POPC   C2B47636  38.372   5.250   6.653
 3709POPC   C3B47637  38.403   5.323   7.086
 3709POPC   C4B47638  38.115   5.132   7.355
 3710POPC   NC347639  39.306  10.426   5.517
 3710POPC   PO447640  38.846  11.059   5.550
 3710POPC   GL147641  39.009  10.726   5.820
 3710POPC   GL247642  39.383  10.685   5.941
 3710POPC   C1A47643  39.006  10.452   6.181
 3710POPC   D2A47644  39.195  10.485   6.588
 3710POPC   C3A47645  38.902  10.349   6.872
 3710POPC   C4A47646  38.814  10.509   7.273
 3710POPC   C1B47647  39.594  10.742   6.324
 3710POPC   C2B47648  39.775  10.705   6.729
 3710POPC   C3B47649  39.612  10.756   7.108
 3710POPC   C4B47650  39.302  10.470   7.167
 3711POPC   NC347651  30.190  33.912   5.413
 3711POPC   PO447652  30.576  34.565   5.416
 3711POPC   GL147653  30.688  34.696   5.829
 3711POPC   GL247654  31.002  34.524   5.963
 3711POPC   C1A47655  30.544  34.638   6.232
 3711POPC   D2A47656  30.693  34.418   6.546
 3711POPC   C3A47657  30.510  34.611   6.887
 3711POPC   C4A47658  30.584  34.411   7.259
 3711POPC   C1B47659  30.991  34.905   6.232
 3711POPC   C2B47660  30.951  34.849   6.669
 3711POPC   C3B47661  31.018  34.583   7.029
 3711POPC   C4B47662  31.000  34.721   7.450
 3712POPC   NC347663  16.637  38.186   5.500
 3712POPC   PO447664  17.028  38.779   5.499
 3712POPC   GL147665  16.837  38.691   5.911
 3712POPC   GL247666  16.526  38.512   5.883
 3712POPC   C1A47667  16.853  38.344   6.243
 3712POPC   D2A47668  17.112  38.270   6.629
 3712POPC   C3A47669  16.781  38.320   6.915
 3712POPC   C4A47670  16.711  38.690   7.131
 3712POPC   C1B47671  16.335  38.202   6.166
 3712POPC   C2B47672  16.357  38.017   6.589
 3712POPC   C3B47673  16.275  38.194   6.996
 3712POPC   C4B47674  16.539  38.091   7.317
 3713POPC   NC347675   0.137  35.420   5.556
 3713POPC   PO447676   0.680  35.751   5.493
 3713POPC   GL147677   0.510  35.561   5.905
 3713POPC   GL247678   0.314  35.229   6.037
 3713POPC   C1A47679   0.472  35.574   6.359
 3713POPC   D2A47680   0.497  35.180   6.598
 3713POPC   C3A47681   0.265  35.083   6.951
 3713POPC   C4A47682   0.242  35.413   7.224
 3713POPC   C1B47683   0.781  35.163   6.176
 3713POPC   C2B47684   0.986  34.986   6.548
 3713POPC   C3B47685   0.832  35.039   6.955
 3713POPC   C4B47686   0.671  35.165   7.318
 3714POPC   NC347687  15.114  10.917   5.442
 3714POPC   PO447688  14.936  11.480   5.308
 3714POPC   GL147689  14.982  11.338   5.758
 3714POPC   GL247690  14.881  10.994   5.889
 3714POPC   C1A47691  15.207  11.473   6.131
 3714POPC   D2A47692  15.154  11.661   6.543
 3714POPC   C3A47693  15.296  11.469   6.919
 3714POPC   C4A47694  15.035  11.435   7.256
 3714POPC   C1B47695  15.117  10.984   6.290
 3714POPC   C2B47696  15.343  10.910   6.672
 3714POPC   C3B47697  15.204  10.979   7.086
 3714POPC   C4B47698  14.892  10.816   7.345
 3715POPC   NC347699  17.690  14.009   5.530
 3715POPC   PO447700  17.758  13.343   5.552
 3715POPC   GL147701  17.558  13.574   5.872
 3715POPC   GL247702  17.459  13.942   5.962
 3715POPC   C1A47703  17.614  13.448   6.271
 3715POPC   D2A47704  17.537  13.649   6.623
 3715POPC   C3A47705  17.735  13.474   6.945
 3715POPC   C4A47706  17.659  13.562   7.355
 3715POPC   C1B47707  17.194  13.830   6.277
 3715POPC   C2B47708  17.091  13.929   6.707
 3715POPC   C3B47709  17.411  13.900   7.062
 3715POPC   C4B47710  17.390  13.975   7.557
 3716POPC   NC347711   5.697   2.183   5.248
 3716POPC   PO447712   5.920   1.654   5.520
 3716POPC   GL147713   5.730   1.866   5.855
 3716POPC   GL247714   5.657   2.186   5.810
 3716POPC   C1A47715   5.783   1.881   6.276
 3716POPC   D2A47716   5.708   1.725   6.694
 3716POPC   C3A47717   5.820   1.936   7.086
 3716POPC   C4A47718   5.637   2.280   7.283
 3716POPC   C1B47719   5.649   2.369   6.235
 3716POPC   C2B47720   5.889   2.408   6.631
 3716POPC   C3B47721   6.177   2.288   6.975
 3716POPC   C4B47722   6.155   2.341   7.461
 3717POPC   NC347723  33.813  14.061   5.418
 3717POPC   PO447724  34.097  14.816   5.430
 3717POPC   GL147725  33.970  14.642   5.852
 3717POPC   GL247726  34.001  14.256   5.912
 3717POPC   C1A47727  33.806  14.707   6.287
 3717POPC   D2A47728  33.602  14.551   6.692
 3717POPC   C3A47729  33.923  14.483   7.002
 3717POPC   C4A47730  33.948  14.499   7.474
 3717POPC   C1B47731  33.714  14.188   6.295
 3717POPC   C2B47732  33.785  14.049   6.742
 3717POPC   C3B47733  33.674  14.086   7.202
 3717POPC   C4B47734  33.765  13.986   7.642
 3718POPC   NC347735   2.354  36.117   5.433
 3718POPC   PO447736   1.823  35.921   5.114
 3718POPC   GL147737   1.768  35.889   5.596
 3718POPC   GL247738   1.905  36.205   5.683
 3718POPC   C1A47739   1.620  35.947   6.048
 3718POPC   D2A47740   1.784  35.782   6.448
 3718POPC   C3A47741   1.645  35.883   6.872
 3718POPC   C4A47742   1.928  35.937   7.213
 3718POPC   C1B47743   1.779  36.456   6.050
 3718POPC   C2B47744   1.990  36.602   6.437
 3718POPC   C3B47745   1.939  36.392   6.825
 3718POPC   C4B47746   1.883  36.520   7.231
 3719POPC   NC347747   9.823   9.202   5.263
 3719POPC   PO447748   9.259   9.168   5.529
 3719POPC   GL147749   9.623   9.048   5.791
 3719POPC   GL247750   9.974   9.027   5.726
 3719POPC   C1A47751   9.642   8.838   6.175
 3719POPC   D2A47752   9.449   8.969   6.563
 3719POPC   C3A47753   9.643   9.194   6.911
 3719POPC   C4A47754   9.541   9.075   7.302
 3719POPC   C1B47755  10.055   9.200   6.107
 3719POPC   C2B47756   9.951   9.092   6.517
 3719POPC   C3B47757  10.079   8.886   6.897
 3719POPC   C4B47758  10.051   9.061   7.286
 3720POPC   NC347759  18.687  17.677   5.406
 3720POPC   PO447760  19.412  17.828   5.315
 3720POPC   GL147761  19.239  17.581   5.706
 3720POPC   GL247762  18.986  17.751   5.831
 3720POPC   C1A47763  19.130  17.400   6.158
 3720POPC   D2A47764  19.149  17.578   6.598
 3720POPC   C3A47765  19.164  17.302   6.981
 3720POPC   C4A47766  19.154  17.206   7.451
 3720POPC   C1B47767  19.020  17.927   6.223
 3720POPC   C2B47768  18.815  18.025   6.604
 3720POPC   C3B47769  19.006  17.907   6.976
 3720POPC   C4B47770  19.069  17.684   7.341
 3721POPC   NC347771   9.623  23.834   5.384
 3721POPC   PO447772  10.120  23.372   5.531
 3721POPC   GL147773  10.001  23.739   5.796
 3721POPC   GL247774   9.687  23.693   5.846
 3721POPC   C1A47775   9.909  23.976   6.201
 3721POPC   D2A47776   9.795  23.797   6.612
 3721POPC   C3A47777   9.897  23.841   7.039
 3721POPC   C4A47778   9.898  23.414   7.159
 3721POPC   C1B47779   9.649  23.524   6.204
 3721POPC   C2B47780   9.369  23.470   6.547
 3721POPC   C3B47781   9.415  23.626   6.978
 3721POPC   C4B47782   9.425  23.358   7.329
 3722POPC   NC347783  29.217  28.064   5.385
 3722POPC   PO447784  29.014  28.658   5.081
 3722POPC   GL147785  29.038  28.541   5.605
 3722POPC   GL247786  29.209  28.251   5.854
 3722POPC   C1A47787  29.033  28.663   6.081
 3722POPC   D2A47788  29.260  28.480   6.442
 3722POPC   C3A47789  29.060  28.623   6.817
 3722POPC   C4A47790  29.050  28.489   7.217
 3722POPC   C1B47791  29.031  27.965   6.187
 3722POPC   C2B47792  28.925  28.102   6.577
 3722POPC   C3B47793  29.217  28.133   6.884
 3722POPC   C4B47794  29.233  28.004   7.280
 3723POPC   NC347795  18.941  33.225   5.410
 3723POPC   PO447796  18.990  32.610   5.482
 3723POPC   GL147797  18.994  32.895   5.798
 3723POPC   GL247798  19.347  32.893   5.784
 3723POPC   C1A47799  18.828  33.058   6.180
 3723POPC   D2A47800  18.795  32.767   6.513
 3723POPC   C3A47801  18.657  32.952   6.865
 3723POPC   C4A47802  18.826  32.933   7.260
 3723POPC   C1B47803  19.298  32.842   6.215
 3723POPC   C2B47804  19.207  33.060   6.591
 3723POPC   C3B47805  19.228  32.888   6.960
 3723POPC   C4B47806  19.316  33.150   7.281
 3724POPC   NC347807  35.894  10.215   5.530
 3724POPC   PO447808  36.214  10.725   5.402
 3724POPC   GL147809  35.981  10.668   5.783
 3724POPC   GL247810  36.213  10.428   5.883
 3724POPC   C1A47811  35.834  10.478   6.179
 3724POPC   D2A47812  36.185  10.362   6.507
 3724POPC   C3A47813  36.052  10.381   6.937
 3724POPC   C4A47814  35.781  10.596   7.244
 3724POPC   C1B47815  36.400  10.748   6.180
 3724POPC   C2B47816  36.466  11.031   6.578
 3724POPC   C3B47817  36.447  11.007   7.053
 3724POPC   C4B47818  36.266  10.686   7.311
 3725POPC   NC347819  36.696   4.518   5.479
 3725POPC   PO447820  37.226   4.110   5.399
 3725POPC   GL147821  37.036   4.259   5.772
 3725POPC   GL247822  36.718   4.089   5.795
 3725POPC   C1A47823  36.886   4.495   6.116
 3725POPC   D2A47824  36.759   4.363   6.524
 3725POPC   C3A47825  36.904   4.557   6.888
 3725POPC   C4A47826  36.966   4.458   7.286
 3725POPC   C1B47827  36.870   3.982   6.201
 3725POPC   C2B47828  36.953   3.896   6.649
 3725POPC   C3B47829  36.808   4.029   7.067
 3725POPC   C4B47830  36.737   3.814   7.525
 3726POPC   NC347831   4.684  11.035   5.593
 3726POPC   PO447832   4.132  11.457   5.472
 3726POPC   GL147833   4.248  11.310   5.869
 3726POPC   GL247834   4.592  11.338   5.997
 3726POPC   C1A47835   4.139  11.150   6.265
 3726POPC   D2A47836   4.035  11.399   6.636
 3726POPC   C3A47837   4.290  11.288   6.983
 3726POPC   C4A47838   4.116  11.139   7.366
 3726POPC   C1B47839   4.374  11.596   6.277
 3726POPC   C2B47840   4.523  11.629   6.651
 3726POPC   C3B47841   4.622  11.757   7.015
 3726POPC   C4B47842   4.452  11.594   7.349
 3727POPC   NC347843  20.709  39.541   5.415
 3727POPC   PO447844  20.220  39.125   5.353
 3727POPC   GL147845  20.481  39.178   5.712
 3727POPC   GL247846  20.845  39.105   5.689
 3727POPC   C1A47847  20.642  39.406   6.083
 3727POPC   D2A47848  20.628  39.233   6.505
 3727POPC   C3A47849  20.693  39.479   6.864
 3727POPC   C4A47850  20.887  39.421   7.249
 3727POPC   C1B47851  20.720  38.893   6.092
 3727POPC   C2B47852  20.895  38.801   6.504
 3727POPC   C3B47853  20.900  38.998   6.908
 3727POPC   C4B47854  20.851  38.939   7.345
 3728POPC   NC347855  21.748  13.855   5.530
 3728POPC   PO447856  20.962  13.768   5.503
 3728POPC   GL147857  21.305  13.765   5.782
 3728POPC   GL247858  21.396  13.458   5.931
 3728POPC   C1A47859  21.531  13.875   6.181
 3728POPC   D2A47860  21.637  13.559   6.505
 3728POPC   C3A47861  21.414  13.598   6.900
 3728POPC   C4A47862  21.564  13.719   7.302
 3728POPC   C1B47863  21.099  13.413   6.256
 3728POPC   C2B47864  21.001  13.070   6.555
 3728POPC   C3B47865  21.052  13.241   6.950
 3728POPC   C4B47866  21.167  13.391   7.356
 3729POPC   NC347867   0.944  37.842   5.365
 3729POPC   PO447868   1.359  37.364   5.550
 3729POPC   GL147869   1.074  37.382   5.815
 3729POPC   GL247870   1.107  37.735   5.833
 3729POPC   C1A47871   1.165  37.278   6.209
 3729POPC   D2A47872   1.383  37.342   6.596
 3729POPC   C3A47873   1.133  37.386   6.970
 3729POPC   C4A47874   1.177  37.447   7.422
 3729POPC   C1B47875   1.310  37.759   6.224
 3729POPC   C2B47876   1.095  37.780   6.618
 3729POPC   C3B47877   1.407  37.813   6.927
 3729POPC   C4B47878   1.574  38.033   7.270
 3730POPC   NC347879  35.932  29.392   5.433
 3730POPC   PO447880  36.061  28.741   5.272
 3730POPC   GL147881  36.104  28.942   5.719
 3730POPC   GL247882  36.332  29.229   5.706
 3730POPC   C1A47883  36.025  29.125   6.166
 3730POPC   D2A47884  35.926  29.318   6.569
 3730POPC   C3A47885  36.102  29.147   6.955
 3730POPC   C4A47886  35.984  29.044   7.375
 3730POPC   C1B47887  36.461  29.365   6.104
 3730POPC   C2B47888  36.473  29.322   6.560
 3730POPC   C3B47889  36.545  29.390   7.011
 3730POPC   C4B47890  36.419  29.291   7.436
 3731POPC   NC347891  41.305  20.669   5.545
 3731POPC   PO447892  41.756  20.230   5.300
 3731POPC   GL147893  41.734  20.510   5.737
 3731POPC   GL247894  41.821  20.888   5.744
 3731POPC   C1A47895  41.464  20.488   6.159
 3731POPC   D2A47896  41.631  20.533   6.598
 3731POPC   C3A47897  41.460  20.824   6.910
 3731POPC   C4A47898  41.454  20.565   7.277
 3731POPC   C1B47899  41.841  20.847   6.216
 3731POPC   C2B47900  41.965  20.928   6.682
 3731POPC   C3B47901  41.919  20.713   7.083
 3731POPC   C4B47902  41.880  20.669   7.526
 3732POPC   NC347903   6.093  26.996   5.483
 3732POPC   PO447904   5.666  26.572   5.751
 3732POPC   GL147905   5.734  26.968   5.930
 3732POPC   GL247906   6.069  27.082   5.988
 3732POPC   C1A47907   5.699  27.029   6.371
 3732POPC   D2A47908   5.723  27.154   6.792
 3732POPC   C3A47909   5.601  26.783   6.979
 3732POPC   C4A47910   5.788  26.563   7.260
 3732POPC   C1B47911   6.175  26.807   6.334
 3732POPC   C2B47912   6.227  26.935   6.771
 3732POPC   C3B47913   6.134  26.946   7.215
 3732POPC   C4B47914   6.259  27.085   7.649
 3733POPC   NC347915   7.382  11.741   5.430
 3733POPC   PO447916   7.559  12.375   5.485
 3733POPC   GL147917   7.545  12.069   5.826
 3733POPC   GL247918   7.669  11.701   5.872
 3733POPC   C1A47919   7.334  11.965   6.215
 3733POPC   D2A47920   7.493  11.833   6.620
 3733POPC   C3A47921   7.337  12.087   6.932
 3733POPC   C4A47922   7.145  11.980   7.323
 3733POPC   C1B47923   7.851  11.939   6.235
 3733POPC   C2B47924   8.012  11.854   6.629
 3733POPC   C3B47925   7.851  11.927   7.022
 3733POPC   C4B47926   7.522  11.672   7.139
 3734POPC   NC347927  19.988   6.962   5.530
 3734POPC   PO447928  19.740   7.628   5.480
 3734POPC   GL147929  19.657   7.320   5.802
 3734POPC   GL247930  19.996   7.318   5.877
 3734POPC   C1A47931  19.664   7.404   6.273
 3734POPC   D2A47932  19.886   7.716   6.582
 3734POPC   C3A47933  19.647   7.713   6.949
 3734POPC   C4A47934  19.557   7.328   7.098
 3734POPC   C1B47935  20.174   7.410   6.246
 3734POPC   C2B47936  20.252   7.318   6.634
 3734POPC   C3B47937  20.064   7.366   7.004
 3734POPC   C4B47938  20.136   7.125   7.346
 3735POPC   NC347939  34.170  30.054   5.329
 3735POPC   PO447940  33.568  30.294   5.435
 3735POPC   GL147941  33.867  30.361   5.818
 3735POPC   GL247942  33.945  30.024   5.809
 3735POPC   C1A47943  34.051  30.200   6.265
 3735POPC   D2A47944  33.964  29.882   6.612
 3735POPC   C3A47945  33.886  29.968   7.051
 3735POPC   C4A47946  33.984  30.322   7.332
 3735POPC   C1B47947  33.777  29.732   6.129
 3735POPC   C2B47948  33.565  29.539   6.485
 3735POPC   C3B47949  33.434  29.695   6.901
 3735POPC   C4B47950  33.501  29.471   7.279
 3736POPC   NC347951  35.901  13.423   5.393
 3736POPC   PO447952  36.453  13.738   5.606
 3736POPC   GL147953  36.166  13.862   5.873
 3736POPC   GL247954  35.876  13.697   5.834
 3736POPC   C1A47955  36.094  13.814   6.306
 3736POPC   D2A47956  35.751  13.860   6.579
 3736POPC   C3A47957  35.935  13.697   6.965
 3736POPC   C4A47958  36.309  13.676   7.239
 3736POPC   C1B47959  35.971  13.346   6.127
 3736POPC   C2B47960  36.100  13.383   6.572
 3736POPC   C3B47961  36.267  13.269   6.957
 3736POPC   C4B47962  36.595  13.191   7.251
 3737POPC   NC347963  14.909  26.989   5.644
 3737POPC   PO447964  14.267  26.731   5.586
 3737POPC   GL147965  14.197  26.734   5.977
 3737POPC   GL247966  14.002  27.029   6.000
 3737POPC   C1A47967  14.531  26.812   6.263
 3737POPC   D2A47968  14.531  26.996   6.651
 3737POPC   C3A47969  14.497  26.712   6.971
 3737POPC   C4A47970  14.595  26.835   7.387
 3737POPC   C1B47971  14.057  26.966   6.415
 3737POPC   C2B47972  14.153  26.613   6.598
 3737POPC   C3B47973  14.011  26.835   6.935
 3737POPC   C4B47974  14.111  26.759   7.321
 3738POPC   NC347975  24.778   0.640   5.660
 3738POPC   PO447976  24.181   0.440   5.441
 3738POPC   GL147977  24.280   0.525   5.862
 3738POPC   GL247978  24.529   0.317   5.982
 3738POPC   C1A47979  24.235   0.614   6.315
 3738POPC   D2A47980  24.020   0.499   6.680
 3738POPC   C3A47981  24.242   0.387   7.019
 3738POPC   C4A47982  24.363   0.695   7.247
 3738POPC   C1B47983  24.747   0.558   6.337
 3738POPC   C2B47984  24.697   0.662   6.788
 3738POPC   C3B47985  24.796   0.448   7.164
 3738POPC   C4B47986  24.996   0.285   7.538
 3739POPC   NC347987  19.276  15.661   5.060
 3739POPC   PO447988  19.122  16.261   5.369
 3739POPC   GL147989  19.109  16.223   5.840
 3739POPC   GL247990  19.034  15.863   5.929
 3739POPC   C1A47991  18.872  16.285   6.240
 3739POPC   D2A47992  18.600  16.112   6.541
 3739POPC   C3A47993  18.896  16.061   6.861
 3739POPC   C4A47994  18.817  16.274   7.206
 3739POPC   C1B47995  19.240  15.949   6.340
 3739POPC   C2B47996  19.393  16.311   6.610
 3739POPC   C3B47997  19.515  16.333   7.038
 3739POPC   C4B47998  19.267  16.070   7.257
 3740POPC   NC347999  40.123  38.927   5.258
 3740POPC   PO448000  40.196  38.275   5.439
 3740POPC   GL148001  40.191  38.496   5.822
 3740POPC   GL248002  40.352  38.793   5.714
 3740POPC   C1A48003  40.251  38.424   6.273
 3740POPC   D2A48004  40.245  38.242   6.701
 3740POPC   C3A48005  39.897  38.326   6.967
 3740POPC   C4A48006  39.853  38.229   7.386
 3740POPC   C1B48007  40.103  38.917   6.095
 3740POPC   C2B48008  40.027  38.825   6.528
 3740POPC   C3B48009  40.183  38.814   6.927
 3740POPC   C4B48010  40.058  38.692   7.331
 3741POPC   NC348011   1.630   3.341   5.643
 3741POPC   PO448012   0.995   3.435   5.387
 3741POPC   GL148013   0.960   3.682   5.780
 3741POPC   GL248014   1.246   3.559   5.883
 3741POPC   C1A48015   0.828   3.792   6.207
 3741POPC   D2A48016   0.970   3.952   6.629
 3741POPC   C3A48017   1.202   3.625   6.878
 3741POPC   C4A48018   1.185   3.512   7.341
 3741POPC   C1B48019   1.372   3.341   6.255
 3741POPC   C2B48020   1.455   3.188   6.662
 3741POPC   C3B48021   1.604   3.349   7.053
 3741POPC   C4B48022   1.602   3.256   7.483
 3742POPC   NC348023  27.056   7.681   5.307
 3742POPC   PO448024  26.702   7.147   5.497
 3742POPC   GL148025  26.798   7.431   5.820
 3742POPC   GL248026  26.622   7.753   5.775
 3742POPC   C1A48027  27.035   7.463   6.208
 3742POPC   D2A48028  26.863   7.442   6.624
 3742POPC   C3A48029  27.124   7.440   7.000
 3742POPC   C4A48030  27.201   7.157   7.350
 3742POPC   C1B48031  26.509   7.677   6.233
 3742POPC   C2B48032  26.539   7.844   6.686
 3742POPC   C3B48033  26.607   7.553   7.067
 3742POPC   C4B48034  26.417   7.599   7.480
 3743POPC   NC348035   3.783  15.364   5.539
 3743POPC   PO448036   3.290  15.048   5.257
 3743POPC   GL148037   3.368  15.090   5.707
 3743POPC   GL248038   3.676  14.938   5.860
 3743POPC   C1A48039   3.442  15.306   6.110
 3743POPC   D2A48040   3.368  15.232   6.558
 3743POPC   C3A48041   3.660  15.099   6.882
 3743POPC   C4A48042   3.459  15.359   7.189
 3743POPC   C1B48043   3.416  14.819   6.223
 3743POPC   C2B48044   3.281  14.724   6.625
 3743POPC   C3B48045   3.244  14.841   7.047
 3743POPC   C4B48046   3.531  14.902   7.351
 3744POPC   NC348047  22.162  40.134   5.365
 3744POPC   PO448048  22.093  39.573   5.777
 3744POPC   GL148049  22.053  40.049   5.858
 3744POPC   GL248050  22.313  40.296   5.969
 3744POPC   C1A48051  21.887  40.276   6.210
 3744POPC   D2A48052  22.004  40.075   6.592
 3744POPC   C3A48053  21.851  40.216   6.958
 3744POPC   C4A48054  21.648  40.015   7.268
 3744POPC   C1B48055  22.375  39.961   6.246
 3744POPC   C2B48056  22.496  39.917   6.647
 3744POPC   C3B48057  22.263  39.862   7.000
 3744POPC   C4B48058  22.461  40.026   7.321
 3745POPC   NC348059  22.375  41.103   5.510
 3745POPC   PO448060  22.148  40.550   5.572
 3745POPC   GL148061  21.996  40.803   5.895
 3745POPC   GL248062  22.217  41.070   5.985
 3745POPC   C1A48063  22.012  40.769   6.343
 3745POPC   D2A48064  22.189  40.825   6.730
 3745POPC   C3A48065  22.017  40.685   7.075
 3745POPC   C4A48066  22.073  40.812   7.485
 3745POPC   C1B48067  22.475  40.751   6.161
 3745POPC   C2B48068  22.375  40.422   6.468
 3745POPC   C3B48069  22.395  40.365   6.918
 3745POPC   C4B48070  22.492  40.643   7.274
 3746POPC   NC348071  33.201  26.910   5.326
 3746POPC   PO448072  32.731  26.505   5.490
 3746POPC   GL148073  33.010  26.629   5.789
 3746POPC   GL248074  33.092  26.978   5.818
 3746POPC   C1A48075  32.890  26.543   6.192
 3746POPC   D2A48076  32.758  26.677   6.569
 3746POPC   C3A48077  33.096  26.596   6.825
 3746POPC   C4A48078  33.101  26.617   7.252
 3746POPC   C1B48079  33.165  26.971   6.258
 3746POPC   C2B48080  33.384  27.018   6.632
 3746POPC   C3B48081  33.178  27.137   6.992
 3746POPC   C4B48082  32.778  26.948   7.022
 3747POPC   NC348083  15.481  19.376   5.607
 3747POPC   PO448084  15.149  19.889   5.228
 3747POPC   GL148085  15.184  19.870   5.688
 3747POPC   GL248086  14.961  19.602   5.747
 3747POPC   C1A48087  15.437  19.850   6.117
 3747POPC   D2A48088  15.563  20.003   6.568
 3747POPC   C3A48089  15.429  20.074   7.000
 3747POPC   C4A48090  15.356  19.827   7.387
 3747POPC   C1B48091  14.901  19.812   6.140
 3747POPC   C2B48092  15.103  19.817   6.527
 3747POPC   C3B48093  14.999  19.802   6.935
 3747POPC   C4B48094  14.836  19.727   7.321
 3748POPC   NC348095   0.184  27.317   5.511
 3748POPC   PO448096   0.856  27.602   5.619
 3748POPC   GL148097   0.545  27.444   5.855
 3748POPC   GL248098   0.507  27.787   5.985
 3748POPC   C1A48099   0.252  27.378   6.174
 3748POPC   D2A48100   0.244  27.567   6.553
 3748POPC   C3A48101   0.277  27.347   6.881
 3748POPC   C4A48102   0.414  27.386   7.256
 3748POPC   C1B48103   0.133  27.909   6.189
 3748POPC   C2B48104  44.967  27.964   6.645
 3748POPC   C3B48105   0.197  27.855   7.033
 3748POPC   C4B48106   0.394  27.862   7.457
 3749POPC   NC348107  26.866  35.845   5.470
 3749POPC   PO448108  27.032  36.565   5.373
 3749POPC   GL148109  26.797  36.314   5.708
 3749POPC   GL248110  27.026  36.090   5.876
 3749POPC   C1A48111  26.521  36.267   6.111
 3749POPC   D2A48112  26.478  36.100   6.579
 3749POPC   C3A48113  26.743  36.324   6.921
 3749POPC   C4A48114  27.073  36.309   7.240
 3749POPC   C1B48115  26.921  36.006   6.299
 3749POPC   C2B48116  27.145  35.800   6.597
 3749POPC   C3B48117  27.007  35.884   6.965
 3749POPC   C4B48118  27.177  35.804   7.339
 3750POPC   NC348119   9.159  19.536   5.370
 3750POPC   PO448120   8.910  18.946   5.281
 3750POPC   GL148121   8.802  19.043   5.724
 3750POPC   GL248122   8.782  19.403   5.793
 3750POPC   C1A48123   8.968  19.074   6.172
 3750POPC   D2A48124   9.319  19.072   6.494
 3750POPC   C3A48125   9.184  18.920   6.906
 3750POPC   C4A48126   9.206  19.052   7.324
 3750POPC   C1B48127   8.709  19.509   6.245
 3750POPC   C2B48128   8.856  19.282   6.642
 3750POPC   C3B48129   8.726  19.112   7.065
 3750POPC   C4B48130   8.383  19.218   7.355
 3751POPC   NC348131  11.998   3.700   5.473
 3751POPC   PO448132  12.278   3.143   5.831
 3751POPC   GL148133  12.192   3.544   5.919
 3751POPC   GL248134  11.869   3.578   6.012
 3751POPC   C1A48135  12.286   3.654   6.314
 3751POPC   D2A48136  12.116   3.488   6.681
 3751POPC   C3A48137  12.281   3.648   7.068
 3751POPC   C4A48138  12.015   3.334   7.301
 3751POPC   C1B48139  11.887   3.971   6.295
 3751POPC   C2B48140  12.062   3.994   6.681
 3751POPC   C3B48141  11.812   3.792   6.997
 3751POPC   C4B48142  11.642   4.003   7.304
 3752POPC   NC348143  15.639  31.712   5.690
 3752POPC   PO448144  15.257  31.315   5.245
 3752POPC   GL148145  15.260  31.327   5.696
 3752POPC   GL248146  15.098  31.630   5.783
 3752POPC   C1A48147  15.131  31.223   6.129
 3752POPC   D2A48148  14.972  31.230   6.538
 3752POPC   C3A48149  15.262  31.224   6.847
 3752POPC   C4A48150  15.004  31.396   7.128
 3752POPC   C1B48151  15.197  31.744   6.222
 3752POPC   C2B48152  15.026  31.721   6.639
 3752POPC   C3B48153  15.193  31.854   7.039
 3752POPC   C4B48154  15.503  31.947   7.341
 3753POPC   NC348155  10.862   7.081   5.341
 3753POPC   PO448156  11.201   6.457   5.339
 3753POPC   GL148157  11.374   6.490   5.829
 3753POPC   GL248158  11.338   6.863   6.008
 3753POPC   C1A48159  11.633   6.537   6.234
 3753POPC   D2A48160  11.516   6.817   6.558
 3753POPC   C3A48161  11.530   6.656   6.935
 3753POPC   C4A48162  11.566   6.785   7.343
 3753POPC   C1B48163  10.998   6.827   6.327
 3753POPC   C2B48164  11.028   6.639   6.721
 3753POPC   C3B48165  11.090   6.718   7.149
 3753POPC   C4B48166  11.121   6.878   7.529
 3754POPC   NC348167   8.262   2.090   5.593
 3754POPC   PO448168   8.967   2.014   5.445
 3754POPC   GL148169   8.798   1.907   5.820
 3754POPC   GL248170   8.639   2.152   5.905
 3754POPC   C1A48171   8.778   1.745   6.234
 3754POPC   D2A48172   9.024   1.716   6.599
 3754POPC   C3A48173   8.882   1.852   7.006
 3754POPC   C4A48174   8.771   2.112   7.356
 3754POPC   C1B48175   9.054   2.299   6.053
 3754POPC   C2B48176   9.376   2.391   6.351
 3754POPC   C3B48177   9.227   2.199   6.729
 3754POPC   C4B48178   9.173   2.289   7.138
 3755POPC   NC348179  17.813  20.909   5.337
 3755POPC   PO448180  17.605  21.593   5.255
 3755POPC   GL148181  17.595  21.260   5.667
 3755POPC   GL248182  17.275  21.324   5.884
 3755POPC   C1A48183  17.686  21.116   6.110
 3755POPC   D2A48184  17.786  21.338   6.512
 3755POPC   C3A48185  17.699  21.149   6.919
 3755POPC   C4A48186  17.565  21.073   7.327
 3755POPC   C1B48187  17.316  21.424   6.336
 3755POPC   C2B48188  17.358  21.533   6.770
 3755POPC   C3B48189  17.334  21.548   7.216
 3755POPC   C4B48190  17.138  21.733   7.615
 3756POPC   NC348191  16.810   2.443   5.609
 3756POPC   PO448192  16.510   3.033   5.548
 3756POPC   GL148193  16.559   2.774   5.916
 3756POPC   GL248194  16.919   2.861   5.909
 3756POPC   C1A48195  16.484   2.416   6.219
 3756POPC   D2A48196  16.637   2.329   6.630
 3756POPC   C3A48197  16.510   2.608   6.951
 3756POPC   C4A48198  16.542   2.567   7.395
 3756POPC   C1B48199  16.974   2.583   6.267
 3756POPC   C2B48200  17.124   2.725   6.660
 3756POPC   C3B48201  17.018   2.772   7.061
 3756POPC   C4B48202  16.680   3.019   7.210
 3757POPC   NC348203   2.750  41.906   5.113
 3757POPC   PO448204   2.778  42.609   5.295
 3757POPC   GL148205   2.868  42.561   5.729
 3757POPC   GL248206   2.601  42.368   5.847
 3757POPC   C1A48207   3.007  42.487   6.148
 3757POPC   D2A48208   2.966  42.172   6.428
 3757POPC   C3A48209   2.960  42.206   6.883
 3757POPC   C4A48210   3.013  42.317   7.322
 3757POPC   C1B48211   2.434  42.312   6.264
 3757POPC   C2B48212   2.485  42.156   6.678
 3757POPC   C3B48213   2.498  42.214   7.130
 3757POPC   C4B48214   2.368  42.097   7.572
 3758POPC   NC348215  41.163  25.386   5.245
 3758POPC   PO448216  40.778  25.498   5.805
 3758POPC   GL148217  40.861  25.138   6.000
 3758POPC   GL248218  40.559  25.008   5.861
 3758POPC   C1A48219  40.877  25.191   6.444
 3758POPC   D2A48220  40.609  25.472   6.695
 3758POPC   C3A48221  40.834  25.525   7.065
 3758POPC   C4A48222  40.774  25.210   7.363
 3758POPC   C1B48223  40.423  25.129   6.253
 3758POPC   C2B48224  40.465  24.861   6.585
 3758POPC   C3B48225  40.592  24.907   6.982
 3758POPC   C4B48226  40.486  24.791   7.409
 3759POPC   NC348227  43.577  44.575   5.426
 3759POPC   PO448228  42.990  44.903   5.534
 3759POPC   GL148229  43.254  44.668   5.804
 3759POPC   GL248230  43.522  44.925   5.805
 3759POPC   C1A48231  43.198  44.481   6.195
 3759POPC   D2A48232  42.903  44.709   6.461
 3759POPC   C3A48233  42.966  44.638   6.894
 3759POPC   C4A48234  43.248  44.422   7.162
 3759POPC   C1B48235  43.502  44.894   6.238
 3759POPC   C2B48236  43.387  44.723   6.631
 3759POPC   C3B48237  43.354  44.935   7.013
 3759POPC   C4B48238  43.637  44.843   7.292
 3760POPC   NC348239  11.281  29.875   4.917
 3760POPC   PO448240  11.185  29.945   5.549
 3760POPC   GL148241  11.478  30.006   5.843
 3760POPC   GL248242  11.504  30.368   5.870
 3760POPC   C1A48243  11.550  29.879   6.230
 3760POPC   D2A48244  11.370  30.046   6.621
 3760POPC   C3A48245  11.466  29.836   7.012
 3760POPC   C4A48246  11.089  29.674   7.137
 3760POPC   C1B48247  11.645  30.377   6.294
 3760POPC   C2B48248  11.747  30.353   6.729
 3760POPC   C3B48249  11.492  30.346   7.087
 3760POPC   C4B48250  11.304  30.125   7.458
 3761POPC   NC348251  38.174  22.798   5.725
 3761POPC   PO448252  38.645  23.225   5.414
 3761POPC   GL148253  38.498  23.180   5.821
 3761POPC   GL248254  38.678  22.901   5.901
 3761POPC   C1A48255  38.448  23.113   6.294
 3761POPC   D2A48256  38.487  22.730   6.571
 3761POPC   C3A48257  38.370  22.763   7.019
 3761POPC   C4A48258  38.477  23.157   7.214
 3761POPC   C1B48259  38.884  22.669   6.219
 3761POPC   C2B48260  38.993  22.545   6.618
 3761POPC   C3B48261  38.871  22.729   6.998
 3761POPC   C4B48262  38.694  22.542   7.377
 3762POPC   NC348263  19.646   2.070   5.116
 3762POPC   PO448264  20.152   2.233   5.480
 3762POPC   GL148265  19.930   2.021   5.784
 3762POPC   GL248266  19.573   2.025   5.671
 3762POPC   C1A48267  20.014   1.983   6.233
 3762POPC   D2A48268  19.693   1.809   6.495
 3762POPC   C3A48269  19.691   1.698   6.889
 3762POPC   C4A48270  19.685   1.836   7.287
 3762POPC   C1B48271  19.528   2.122   6.111
 3762POPC   C2B48272  19.717   2.316   6.490
 3762POPC   C3B48273  19.694   2.204   6.908
 3762POPC   C4B48274  19.512   2.304   7.293
 3763POPC   NC348275  18.191  16.814   5.389
 3763POPC   PO448276  18.654  16.430   5.673
 3763POPC   GL148277  18.340  16.645   5.884
 3763POPC   GL248278  18.371  16.964   5.836
 3763POPC   C1A48279  18.044  16.671   6.217
 3763POPC   D2A48280  18.044  16.459   6.621
 3763POPC   C3A48281  18.038  16.686   7.021
 3763POPC   C4A48282  18.026  16.609   7.524
 3763POPC   C1B48283  18.312  17.113   6.234
 3763POPC   C2B48284  18.368  16.854   6.600
 3763POPC   C3B48285  18.495  16.544   6.906
 3763POPC   C4B48286  18.446  16.806   7.303
 3764POPC   NC348287  15.367  30.181   5.389
 3764POPC   PO448288  15.020  29.644   5.489
 3764POPC   GL148289  15.060  29.808   5.882
 3764POPC   GL248290  15.392  29.874   5.852
 3764POPC   C1A48291  15.174  29.678   6.306
 3764POPC   D2A48292  15.110  29.852   6.698
 3764POPC   C3A48293  15.444  29.776   6.933
 3764POPC   C4A48294  15.205  29.732   7.307
 3764POPC   C1B48295  15.346  30.156   6.190
 3764POPC   C2B48296  15.354  30.296   6.613
 3764POPC   C3B48297  15.257  30.212   7.064
 3764POPC   C4B48298  15.487  30.292   7.424
 3765POPC   NC348299   7.638   2.439   5.374
 3765POPC   PO448300   7.553   3.118   5.385
 3765POPC   GL148301   7.383   2.910   5.783
 3765POPC   GL248302   7.392   2.566   5.815
 3765POPC   C1A48303   7.570   2.807   6.207
 3765POPC   D2A48304   7.654   2.612   6.602
 3765POPC   C3A48305   7.321   2.722   6.882
 3765POPC   C4A48306   7.172   3.010   7.176
 3765POPC   C1B48307   7.230   2.369   6.199
 3765POPC   C2B48308   7.259   2.255   6.593
 3765POPC   C3B48309   7.489   2.261   6.963
 3765POPC   C4B48310   7.334   2.460   7.314
 3766POPC   NC348311  16.899   3.156   5.318
 3766POPC   PO448312  16.752   3.951   5.248
 3766POPC   GL148313  16.859   3.903   5.736
 3766POPC   GL248314  16.937   3.579   5.615
 3766POPC   C1A48315  16.693   3.854   6.197
 3766POPC   D2A48316  16.717   3.622   6.599
 3766POPC   C3A48317  16.423   3.614   6.957
 3766POPC   C4A48318  16.412   3.408   7.398
 3766POPC   C1B48319  16.980   3.431   6.021
 3766POPC   C2B48320  17.110   3.327   6.418
 3766POPC   C3B48321  17.075   3.263   6.845
 3766POPC   C4B48322  16.874   3.487   7.164
 3767POPC   NC348323   2.150  40.212   5.417
 3767POPC   PO448324   1.519  39.942   5.257
 3767POPC   GL148325   1.826  39.859   5.669
 3767POPC   GL248326   1.936  40.156   5.854
 3767POPC   C1A48327   1.842  39.831   6.196
 3767POPC   D2A48328   2.143  39.983   6.550
 3767POPC   C3A48329   2.031  39.881   7.005
 3767POPC   C4A48330   1.598  39.777   7.154
 3767POPC   C1B48331   2.016  40.426   6.171
 3767POPC   C2B48332   2.204  40.519   6.535
 3767POPC   C3B48333   2.075  40.371   6.898
 3767POPC   C4B48334   2.240  40.290   7.278
 3768POPC   NC348335  30.900  14.765   5.509
 3768POPC   PO448336  30.981  15.457   5.391
 3768POPC   GL148337  30.698  15.292   5.729
 3768POPC   GL248338  30.371  15.093   5.667
 3768POPC   C1A48339  30.757  15.182   6.176
 3768POPC   D2A48340  30.609  15.387   6.541
 3768POPC   C3A48341  30.718  15.277   6.961
 3768POPC   C4A48342  30.493  15.203   7.284
 3768POPC   C1B48343  30.409  14.828   6.056
 3768POPC   C2B48344  30.553  14.829   6.513
 3768POPC   C3B48345  30.362  14.756   6.903
 3768POPC   C4B48346  30.538  14.696   7.262
 3769POPC   NC348347  13.122   3.546   5.115
 3769POPC   PO448348  12.556   3.624   5.383
 3769POPC   GL148349  12.911   3.522   5.647
 3769POPC   GL248350  12.688   3.465   5.890
 3769POPC   C1A48351  13.111   3.668   6.056
 3769POPC   D2A48352  13.149   3.882   6.464
 3769POPC   C3A48353  13.017   3.700   6.847
 3769POPC   C4A48354  12.777   3.645   7.192
 3769POPC   C1B48355  12.749   3.333   6.305
 3769POPC   C2B48356  12.624   3.406   6.726
 3769POPC   C3B48357  12.535   3.196   7.095
 3769POPC   C4B48358  12.642   3.004   7.504
 3770POPC   NC348359  36.410  28.543   5.504
 3770POPC   PO448360  35.860  28.179   5.640
 3770POPC   GL148361  35.849  28.341   6.030
 3770POPC   GL248362  35.761  28.683   6.046
 3770POPC   C1A48363  36.064  28.291   6.425
 3770POPC   D2A48364  36.441  28.342   6.656
 3770POPC   C3A48365  36.281  28.185   7.041
 3770POPC   C4A48366  35.896  28.179   7.248
 3770POPC   C1B48367  36.232  28.675   6.140
 3770POPC   C2B48368  36.275  28.831   6.540
 3770POPC   C3B48369  36.049  28.637   6.872
 3770POPC   C4B48370  36.305  28.675   7.197
 3771POPC   NC348371   4.746  34.067   5.532
 3771POPC   PO448372   4.846  34.719   5.657
 3771POPC   GL148373   4.936  34.395   5.900
 3771POPC   GL248374   5.286  34.423   5.989
 3771POPC   C1A48375   4.927  34.471   6.330
 3771POPC   D2A48376   5.018  34.232   6.625
 3771POPC   C3A48377   5.049  34.456   7.004
 3771POPC   C4A48378   5.327  34.425   7.340
 3771POPC   C1B48379   5.272  34.850   6.214
 3771POPC   C2B48380   5.142  34.915   6.641
 3771POPC   C3B48381   5.358  34.926   7.042
 3771POPC   C4B48382   5.086  34.885   7.380
 3772POPC   NC348383   0.919  35.340   5.522
 3772POPC   PO448384   1.337  35.721   5.388
 3772POPC   GL148385   1.398  35.531   5.830
 3772POPC   GL248386   1.347  35.180   5.894
 3772POPC   C1A48387   1.191  35.435   6.284
 3772POPC   D2A48388   0.915  35.503   6.636
 3772POPC   C3A48389   1.162  35.608   6.983
 3772POPC   C4A48390   1.143  35.332   7.276
 3772POPC   C1B48391   1.397  34.906   6.260
 3772POPC   C2B48392   1.513  34.893   6.684
 3772POPC   C3B48393   1.300  34.884   7.079
 3772POPC   C4B48394   1.147  34.896   7.513
 3773POPC   NC348395  44.520  34.065   5.432
 3773POPC   PO448396  44.690  33.439   5.423
 3773POPC   GL148397  44.724  33.617   5.836
 3773POPC   GL248398  44.768  33.971   5.857
 3773POPC   C1A48399  44.810  33.695   6.284
 3773POPC   D2A48400  44.584  33.831   6.640
 3773POPC   C3A48401  44.677  33.569   6.955
 3773POPC   C4A48402  44.427  33.478   7.254
 3773POPC   C1B48403  44.612  34.179   6.239
 3773POPC   C2B48404  44.774  34.314   6.602
 3773POPC   C3B48405  44.567  34.268   6.923
 3773POPC   C4B48406  44.481  33.989   7.228
 3774POPC   NC348407   1.212  21.736   5.487
 3774POPC   PO448408   1.009  22.410   5.366
 3774POPC   GL148409   1.280  22.217   5.728
 3774POPC   GL248410   0.978  22.166   5.915
 3774POPC   C1A48411   1.395  22.201   6.204
 3774POPC   D2A48412   1.169  22.074   6.599
 3774POPC   C3A48413   1.320  22.175   6.994
 3774POPC   C4A48414   1.223  22.017   7.378
 3774POPC   C1B48415   0.889  22.404   6.295
 3774POPC   C2B48416   0.781  22.408   6.736
 3774POPC   C3B48417   0.903  22.434   7.147
 3774POPC   C4B48418   0.859  22.311   7.576
 3775POPC   NC348419  36.486  26.622   5.569
 3775POPC   PO448420  35.935  27.050   5.600
 3775POPC   GL148421  36.108  26.765   5.890
 3775POPC   GL248422  36.418  26.977   5.944
 3775POPC   C1A48423  35.977  26.484   6.248
 3775POPC   D2A48424  35.835  26.634   6.631
 3775POPC   C3A48425  35.955  26.405   6.998
 3775POPC   C4A48426  35.854  26.443   7.422
 3775POPC   C1B48427  36.255  26.918   6.358
 3775POPC   C2B48428  36.286  26.792   6.784
 3775POPC   C3B48429  36.112  26.877   7.182
 3775POPC   C4B48430  36.416  26.980   7.479
 3776POPC   NC348431  25.233  34.891   5.406
 3776POPC   PO448432  25.583  34.265   5.435
 3776POPC   GL148433  25.474  34.585   5.773
 3776POPC   GL248434  25.136  34.602   5.880
 3776POPC   C1A48435  25.511  34.571   6.250
 3776POPC   D2A48436  25.410  34.472   6.682
 3776POPC   C3A48437  25.633  34.620   7.069
 3776POPC   C4A48438  25.495  34.771   7.480
 3776POPC   C1B48439  24.907  34.604   6.267
 3776POPC   C2B48440  24.945  34.769   6.663
 3776POPC   C3B48441  25.141  34.724   7.052
 3776POPC   C4B48442  25.075  34.496   7.420
 3777POPC   NC348443  15.551   0.053   5.538
 3777POPC   PO448444  15.732   0.756   5.390
 3777POPC   GL148445  15.917   0.508   5.775
 3777POPC   GL248446  16.196   0.274   5.746
 3777POPC   C1A48447  15.792   0.407   6.253
 3777POPC   D2A48448  15.632   0.377   6.735
 3777POPC   C3A48449  15.785   0.490   7.136
 3777POPC   C4A48450  16.179   0.716   7.181
 3777POPC   C1B48451  16.271   0.125   6.155
 3777POPC   C2B48452  16.072   0.102   6.549
 3777POPC   C3B48453  16.188   0.304   6.905
 3777POPC   C4B48454  16.145   0.171   7.336
 3778POPC   NC348455   4.810  35.918   5.417
 3778POPC   PO448456   5.103  36.544   5.384
 3778POPC   GL148457   5.014  36.303   5.737
 3778POPC   GL248458   5.348  36.180   5.845
 3778POPC   C1A48459   4.882  36.170   6.175
 3778POPC   D2A48460   5.135  35.952   6.516
 3778POPC   C3A48461   4.936  36.032   6.951
 3778POPC   C4A48462   4.822  35.977   7.413
 3778POPC   C1B48463   5.318  36.426   6.238
 3778POPC   C2B48464   5.302  36.396   6.681
 3778POPC   C3B48465   5.477  36.094   6.961
 3778POPC   C4B48466   5.300  36.143   7.349
 3779POPC   NC348467  15.400  26.856   5.090
 3779POPC   PO448468  14.946  26.503   5.481
 3779POPC   GL148469  15.266  26.639   5.792
 3779POPC   GL248470  15.601  26.574   5.680
 3779POPC   C1A48471  15.317  26.855   6.207
 3779POPC   D2A48472  15.048  27.047   6.548
 3779POPC   C3A48473  14.962  26.879   6.963
 3779POPC   C4A48474  15.078  26.984   7.341
 3779POPC   C1B48475  15.577  26.359   6.100
 3779POPC   C2B48476  15.582  26.565   6.521
 3779POPC   C3B48477  15.432  26.807   6.810
 3779POPC   C4B48478  15.379  26.592   7.186
 3780POPC   NC348479  19.995  36.464   5.747
 3780POPC   PO448480  20.001  35.928   5.421
 3780POPC   GL148481  19.915  35.953   5.845
 3780POPC   GL248482  19.573  35.934   5.757
 3780POPC   C1A48483  20.043  36.117   6.286
 3780POPC   D2A48484  19.879  36.407   6.635
 3780POPC   C3A48485  19.888  36.273   7.094
 3780POPC   C4A48486  19.776  36.440   7.531
 3780POPC   C1B48487  19.429  35.797   6.151
 3780POPC   C2B48488  19.621  35.960   6.528
 3780POPC   C3B48489  19.595  35.854   6.954
 3780POPC   C4B48490  19.699  35.738   7.343
 3781POPC   NC348491  26.283  20.772   5.493
 3781POPC   PO448492  25.868  20.340   5.375
 3781POPC   GL148493  25.933  20.480   5.792
 3781POPC   GL248494  26.284  20.395   5.858
 3781POPC   C1A48495  25.974  20.774   6.143
 3781POPC   D2A48496  26.268  20.773   6.498
 3781POPC   C3A48497  26.181  20.735   6.927
 3781POPC   C4A48498  25.983  20.707   7.291
 3781POPC   C1B48499  26.412  20.330   6.304
 3781POPC   C2B48500  26.487  20.354   6.771
 3781POPC   C3B48501  26.359  20.328   7.229
 3781POPC   C4B48502  26.505  20.322   7.702
 3782POPC   NC348503  13.034   0.306   5.659
 3782POPC   PO448504  12.611   0.865   5.485
 3782POPC   GL148505  12.633   0.570   5.818
 3782POPC   GL248506  12.546   0.213   5.759
 3782POPC   C1A48507  12.826   0.539   6.232
 3782POPC   D2A48508  12.993   0.881   6.484
 3782POPC   C3A48509  13.016   0.703   6.882
 3782POPC   C4A48510  12.837   0.773   7.246
 3782POPC   C1B48511  12.428   0.179   6.157
 3782POPC   C2B48512  12.618   0.143   6.546
 3782POPC   C3B48513  12.518   0.289   6.936
 3782POPC   C4B48514  12.785   0.262   7.254
 3783POPC   NC348515  22.345  31.116   5.121
 3783POPC   PO448516  21.958  31.556   5.313
 3783POPC   GL148517  22.136  31.440   5.741
 3783POPC   GL248518  22.390  31.685   5.838
 3783POPC   C1A48519  22.001  31.203   6.152
 3783POPC   D2A48520  22.087  31.132   6.621
 3783POPC   C3A48521  22.063  31.450   6.924
 3783POPC   C4A48522  22.192  31.389   7.359
 3783POPC   C1B48523  22.409  31.485   6.241
 3783POPC   C2B48524  22.538  31.507   6.655
 3783POPC   C3B48525  22.504  31.675   7.062
 3783POPC   C4B48526  22.439  31.816   7.484
 3784POPC   NC348527  39.039  17.971   5.342
 3784POPC   PO448528  39.429  17.517   5.059
 3784POPC   GL148529  39.309  17.508   5.562
 3784POPC   GL248530  39.405  17.776   5.768
 3784POPC   C1A48531  39.258  17.376   6.060
 3784POPC   D2A48532  39.071  17.206   6.480
 3784POPC   C3A48533  39.324  17.271   6.867
 3784POPC   C4A48534  39.372  17.432   7.244
 3784POPC   C1B48535  39.608  17.775   6.180
 3784POPC   C2B48536  39.576  17.554   6.529
 3784POPC   C3B48537  39.561  17.760   6.920
 3784POPC   C4B48538  39.809  17.672   7.286
 3785POPC   NC348539  41.442  40.277   5.293
 3785POPC   PO448540  41.341  39.670   5.609
 3785POPC   GL148541  41.629  39.891   5.888
 3785POPC   GL248542  41.652  40.245   5.763
 3785POPC   C1A48543  41.637  39.904   6.334
 3785POPC   D2A48544  41.360  39.917   6.668
 3785POPC   C3A48545  41.524  39.783   7.007
 3785POPC   C4A48546  41.410  39.935   7.359
 3785POPC   C1B48547  41.653  40.401   6.178
 3785POPC   C2B48548  41.468  40.415   6.592
 3785POPC   C3B48549  41.631  40.384   7.014
 3785POPC   C4B48550  41.649  40.366   7.476
 3786POPC   NC348551  30.021  23.735   5.401
 3786POPC   PO448552  29.588  24.233   5.550
 3786POPC   GL148553  29.780  23.916   5.865
 3786POPC   GL248554  30.087  23.690   5.887
 3786POPC   C1A48555  29.783  23.751   6.298
 3786POPC   D2A48556  29.549  23.636   6.711
 3786POPC   C3A48557  29.627  23.870   7.122
 3786POPC   C4A48558  29.851  23.803   7.510
 3786POPC   C1B48559  30.285  23.544   6.278
 3786POPC   C2B48560  30.059  23.534   6.677
 3786POPC   C3B48561  30.001  23.528   7.119
 3786POPC   C4B48562  30.250  23.496   7.531
 3787POPC   NC348563  14.186  14.280   5.443
 3787POPC   PO448564  14.850  14.031   5.550
 3787POPC   GL148565  14.583  14.303   5.853
 3787POPC   GL248566  14.226  14.182   5.924
 3787POPC   C1A48567  14.436  14.535   6.235
 3787POPC   D2A48568  14.381  14.390   6.646
 3787POPC   C3A48569  14.421  14.619   7.008
 3787POPC   C4A48570  14.262  14.571   7.426
 3787POPC   C1B48571  14.233  14.020   6.309
 3787POPC   C2B48572  13.991  14.046   6.675
 3787POPC   C3B48573  14.124  14.173   7.072
 3787POPC   C4B48574  14.362  14.023   7.380
 3788POPC   NC348575  18.353  27.378   5.314
 3788POPC   PO448576  17.852  27.865   5.276
 3788POPC   GL148577  18.033  27.651   5.645
 3788POPC   GL248578  18.289  27.866   5.805
 3788POPC   C1A48579  18.190  27.383   6.030
 3788POPC   D2A48580  18.183  27.141   6.443
 3788POPC   C3A48581  18.376  27.286   6.819
 3788POPC   C4A48582  18.267  27.392   7.234
 3788POPC   C1B48583  18.481  27.767   6.249
 3788POPC   C2B48584  18.470  27.786   6.747
 3788POPC   C3B48585  18.515  27.825   7.204
 3788POPC   C4B48586  18.323  27.954   7.608
 3789POPC   NC348587  40.612  29.301   5.306
 3789POPC   PO448588  40.753  28.625   5.296
 3789POPC   GL148589  40.751  28.933   5.693
 3789POPC   GL248590  40.647  29.311   5.812
 3789POPC   C1A48591  40.742  28.926   6.158
 3789POPC   D2A48592  40.978  28.963   6.552
 3789POPC   C3A48593  40.822  29.106   6.949
 3789POPC   C4A48594  40.828  28.910   7.325
 3789POPC   C1B48595  40.839  29.485   6.199
 3789POPC   C2B48596  40.699  29.668   6.604
 3789POPC   C3B48597  40.525  29.531   6.992
 3789POPC   C4B48598  40.736  29.418   7.411
 3790POPC   NC348599  38.855  26.170   5.410
 3790POPC   PO448600  38.246  26.081   5.231
 3790POPC   GL148601  38.420  26.142   5.692
 3790POPC   GL248602  38.679  25.916   5.814
 3790POPC   C1A48603  38.380  26.208   6.145
 3790POPC   D2A48604  38.331  25.942   6.525
 3790POPC   C3A48605  38.213  26.147   6.931
 3790POPC   C4A48606  38.282  26.261   7.358
 3790POPC   C1B48607  38.666  25.692   6.196
 3790POPC   C2B48608  38.655  25.526   6.574
 3790POPC   C3B48609  38.619  25.769   6.911
 3790POPC   C4B48610  38.629  25.866   7.298
 3791POPC   NC348611  20.220   7.549   5.452
 3791POPC   PO448612  20.825   7.425   5.567
 3791POPC   GL148613  20.513   7.352   5.851
 3791POPC   GL248614  20.374   7.720   5.892
 3791POPC   C1A48615  20.592   7.130   6.243
 3791POPC   D2A48616  20.777   7.233   6.641
 3791POPC   C3A48617  20.541   7.093   6.998
 3791POPC   C4A48618  20.787   7.268   7.295
 3791POPC   C1B48619  20.251   7.911   6.267
 3791POPC   C2B48620  20.423   7.819   6.634
 3791POPC   C3B48621  20.547   7.602   6.973
 3791POPC   C4B48622  20.357   7.567   7.382
 3792POPC   NC348623  19.715  26.381   5.603
 3792POPC   PO448624  19.666  26.950   5.306
 3792POPC   GL148625  19.786  26.890   5.791
 3792POPC   GL248626  19.579  26.638   6.008
 3792POPC   C1A48627  20.046  27.126   6.138
 3792POPC   D2A48628  20.252  27.241   6.554
 3792POPC   C3A48629  20.031  27.070   6.900
 3792POPC   C4A48630  19.759  27.064   7.213
 3792POPC   C1B48631  19.463  26.629   6.434
 3792POPC   C2B48632  19.417  26.630   6.891
 3792POPC   C3B48633  19.623  26.563   7.245
 3792POPC   C4B48634  19.633  26.409   7.631
 3793POPC   NC348635  19.497  25.564   5.449
 3793POPC   PO448636  19.921  25.012   5.399
 3793POPC   GL148637  19.983  25.145   5.814
 3793POPC   GL248638  20.086  25.503   5.741
 3793POPC   C1A48639  19.756  25.090   6.237
 3793POPC   D2A48640  19.781  25.251   6.662
 3793POPC   C3A48641  19.816  24.994   7.050
 3793POPC   C4A48642  19.646  24.835   7.453
 3793POPC   C1B48643  19.928  25.581   6.183
 3793POPC   C2B48644  19.873  25.753   6.611
 3793POPC   C3B48645  19.963  25.559   7.034
 3793POPC   C4B48646  19.962  25.597   7.480
 3794POPC   NC348647  22.314  26.968   5.072
 3794POPC   PO448648  22.027  26.499   5.494
 3794POPC   GL148649  22.031  26.815   5.793
 3794POPC   GL248650  21.850  27.128   5.792
 3794POPC   C1A48651  22.123  26.768   6.201
 3794POPC   D2A48652  22.293  26.600   6.572
 3794POPC   C3A48653  22.094  26.763   6.897
 3794POPC   C4A48654  22.176  26.935   7.277
 3794POPC   C1B48655  21.709  27.206   6.231
 3794POPC   C2B48656  21.781  27.067   6.636
 3794POPC   C3B48657  21.748  27.113   7.082
 3794POPC   C4B48658  21.782  27.172   7.534
 3795POPC   NC348659  14.591  27.788   5.302
 3795POPC   PO448660  14.468  28.414   5.462
 3795POPC   GL148661  14.193  28.599   5.784
 3795POPC   GL248662  14.343  28.312   5.968
 3795POPC   C1A48663  14.023  28.589   6.209
 3795POPC   D2A48664  14.268  28.384   6.512
 3795POPC   C3A48665  14.196  28.480   6.920
 3795POPC   C4A48666  14.404  28.231   7.257
 3795POPC   C1B48667  14.554  28.673   6.191
 3795POPC   C2B48668  14.560  28.812   6.639
 3795POPC   C3B48669  14.646  28.649   7.071
 3795POPC   C4B48670  14.485  28.681   7.524
 3796POPC   NC348671  40.256  37.796   5.447
 3796POPC   PO448672  39.666  37.485   5.749
 3796POPC   GL148673  40.036  37.729   5.919
 3796POPC   GL248674  40.418  37.638   5.937
 3796POPC   C1A48675  40.154  37.786   6.351
 3796POPC   D2A48676  40.102  37.526   6.722
 3796POPC   C3A48677  39.982  37.803   7.049
 3796POPC   C4A48678  39.742  37.750   7.416
 3796POPC   C1B48679  40.568  37.409   6.348
 3796POPC   C2B48680  40.567  37.303   6.818
 3796POPC   C3B48681  40.391  37.506   7.201
 3796POPC   C4B48682  40.458  37.472   7.687
 3797POPC   NC348683  13.507  14.978   5.364
 3797POPC   PO448684  14.019  15.490   5.346
 3797POPC   GL148685  13.809  15.322   5.721
 3797POPC   GL248686  13.495  15.130   5.848
 3797POPC   C1A48687  13.763  15.406   6.177
 3797POPC   D2A48688  13.638  15.071   6.459
 3797POPC   C3A48689  13.686  15.138   6.876
 3797POPC   C4A48690  13.816  15.443   7.186
 3797POPC   C1B48691  13.434  14.734   6.123
 3797POPC   C2B48692  13.245  14.731   6.575
 3797POPC   C3B48693  13.378  14.711   7.024
 3797POPC   C4B48694  13.516  15.034   7.343
 3798POPC   NC348695   3.071  42.970   5.430
 3798POPC   PO448696   2.765  43.603   5.411
 3798POPC   GL148697   2.927  43.451   5.817
 3798POPC   GL248698   2.832  43.087   5.858
 3798POPC   C1A48699   2.868  43.358   6.279
 3798POPC   D2A48700   2.711  43.131   6.660
 3798POPC   C3A48701   2.933  43.303   7.022
 3798POPC   C4A48702   2.743  43.570   7.305
 3798POPC   C1B48703   2.680  42.859   6.202
 3798POPC   C2B48704   2.719  42.613   6.583
 3798POPC   C3B48705   2.759  42.682   7.010
 3798POPC   C4B48706   3.115  42.824   7.244
 3799POPC   NC348707  23.279  21.931   5.471
 3799POPC   PO448708  22.592  21.876   5.572
 3799POPC   GL148709  22.783  22.115   5.870
 3799POPC   GL248710  23.101  22.297   5.777
 3799POPC   C1A48711  22.845  22.041   6.294
 3799POPC   D2A48712  22.932  22.333   6.586
 3799POPC   C3A48713  22.858  22.117   6.909
 3799POPC   C4A48714  23.010  22.167   7.276
 3799POPC   C1B48715  23.248  22.340   6.189
 3799POPC   C2B48716  23.442  22.496   6.591
 3799POPC   C3B48717  23.448  22.416   7.039
 3799POPC   C4B48718  23.363  22.443   7.505
 3800POPC   NC348719   7.246  43.363   5.304
 3800POPC   PO448720   7.459  44.033   5.266
 3800POPC   GL148721   7.497  43.874   5.711
 3800POPC   GL248722   7.232  43.611   5.755
 3800POPC   C1A48723   7.581  44.015   6.147
 3800POPC   D2A48724   7.791  43.959   6.557
 3800POPC   C3A48725   7.611  44.052   6.967
 3800POPC   C4A48726   7.611  43.774   7.320
 3800POPC   C1B48727   7.168  43.697   6.171
 3800POPC   C2B48728   7.301  43.537   6.573
 3800POPC   C3B48729   7.239  43.687   6.996
 3800POPC   C4B48730   7.209  43.538   7.461
 3801POPC   NC348731   9.967  28.529   5.287
 3801POPC   PO448732  10.687  28.421   5.358
 3801POPC   GL148733  10.745  28.500   5.781
 3801POPC   GL248734  10.907  28.180   5.788
 3801POPC   C1A48735  10.602  28.483   6.217
 3801POPC   D2A48736  10.274  28.264   6.474
 3801POPC   C3A48737  10.404  28.387   6.875
 3801POPC   C4A48738  10.542  28.430   7.298
 3801POPC   C1B48739  10.987  28.056   6.189
 3801POPC   C2B48740  10.789  28.147   6.560
 3801POPC   C3B48741  10.805  28.082   6.971
 3801POPC   C4B48742  10.807  28.000   7.396
 3802POPC   NC348743  43.479  27.639   5.562
 3802POPC   PO448744  42.853  27.830   5.587
 3802POPC   GL148745  43.028  27.731   5.971
 3802POPC   GL248746  43.367  27.748   6.032
 3802POPC   C1A48747  43.032  27.552   6.387
 3802POPC   D2A48748  42.794  27.357   6.724
 3802POPC   C3A48749  42.973  27.556   7.051
 3802POPC   C4A48750  43.006  27.902   7.291
 3802POPC   C1B48751  43.508  27.322   6.148
 3802POPC   C2B48752  43.689  27.309   6.522
 3802POPC   C3B48753  43.474  27.423   6.868
 3802POPC   C4B48754  43.388  27.420   7.284
 3803POPC   NC348755   4.745   2.437   5.419
 3803POPC   PO448756   4.115   2.617   5.417
 3803POPC   GL148757   4.210   2.553   5.818
 3803POPC   GL248758   4.516   2.706   5.812
 3803POPC   C1A48759   4.161   2.741   6.222
 3803POPC   D2A48760   4.258   2.930   6.620
 3803POPC   C3A48761   4.133   2.829   7.047
 3803POPC   C4A48762   4.063   2.825   7.499
 3803POPC   C1B48763   4.763   2.698   6.162
 3803POPC   C2B48764   4.701   2.615   6.593
 3803POPC   C3B48765   4.630   2.864   6.967
 3803POPC   C4B48766   4.514   2.690   7.365
 3804POPC   NC348767  43.219  31.151   5.415
 3804POPC   PO448768  42.886  31.771   5.353
 3804POPC   GL148769  42.898  31.536   5.748
 3804POPC   GL248770  43.249  31.450   5.870
 3804POPC   C1A48771  42.807  31.513   6.182
 3804POPC   D2A48772  43.136  31.461   6.526
 3804POPC   C3A48773  42.925  31.314   6.891
 3804POPC   C4A48774  42.983  31.432   7.263
 3804POPC   C1B48775  43.497  31.247   6.208
 3804POPC   C2B48776  43.505  31.082   6.635
 3804POPC   C3B48777  43.429  31.328   6.990
 3804POPC   C4B48778  43.438  31.241   7.421
 3805POPC   NC348779  19.358  18.936   5.644
 3805POPC   PO448780  19.807  19.298   5.293
 3805POPC   GL148781  19.839  19.161   5.757
 3805POPC   GL248782  19.952  18.821   5.888
 3805POPC   C1A48783  19.667  19.119   6.197
 3805POPC   D2A48784  19.687  18.889   6.578
 3805POPC   C3A48785  19.642  19.198   6.898
 3805POPC   C4A48786  19.679  19.040   7.272
 3805POPC   C1B48787  20.162  18.906   6.276
 3805POPC   C2B48788  20.359  18.975   6.655
 3805POPC   C3B48789  20.118  19.002   7.014
 3805POPC   C4B48790  20.127  19.134   7.443
 3806POPC   NC348791   6.274  29.709   5.416
 3806POPC   PO448792   5.643  29.814   5.569
 3806POPC   GL148793   5.992  29.911   5.830
 3806POPC   GL248794   6.075  29.572   5.871
 3806POPC   C1A48795   5.975  30.016   6.280
 3806POPC   D2A48796   5.841  30.275   6.627
 3806POPC   C3A48797   5.924  30.028   6.989
 3806POPC   C4A48798   5.713  30.005   7.378
 3806POPC   C1B48799   5.753  29.570   6.186
 3806POPC   C2B48800   5.699  29.685   6.616
 3806POPC   C3B48801   5.674  29.574   7.035
 3806POPC   C4B48802   6.015  29.606   7.305
 3807POPC   NC348803  13.253  38.750   5.407
 3807POPC   PO448804  12.658  38.444   5.552
 3807POPC   GL148805  12.742  38.498   5.921
 3807POPC   GL248806  13.022  38.258   5.868
 3807POPC   C1A48807  12.783  38.368   6.327
 3807POPC   D2A48808  13.044  38.278   6.653
 3807POPC   C3A48809  12.727  38.331   6.966
 3807POPC   C4A48810  12.447  38.554   7.219
 3807POPC   C1B48811  13.197  38.606   6.123
 3807POPC   C2B48812  13.078  38.788   6.511
 3807POPC   C3B48813  13.078  38.716   6.946
 3807POPC   C4B48814  13.101  38.469   7.327
 3808POPC   NC348815  35.571  27.874   5.422
 3808POPC   PO448816  35.092  27.446   5.555
 3808POPC   GL148817  35.285  27.674   5.856
 3808POPC   GL248818  35.537  27.925   5.949
 3808POPC   C1A48819  35.113  27.887   6.215
 3808POPC   D2A48820  35.309  27.945   6.604
 3808POPC   C3A48821  35.029  27.843   6.944
 3808POPC   C4A48822  35.110  27.504   7.199
 3808POPC   C1B48823  35.540  27.581   6.292
 3808POPC   C2B48824  35.640  27.390   6.710
 3808POPC   C3B48825  35.741  27.287   7.140
 3808POPC   C4B48826  36.051  27.336   7.459
 3809POPC   NC348827  34.106  28.563   5.507
 3809POPC   PO448828  33.544  28.167   5.359
 3809POPC   GL148829  33.741  28.357   5.776
 3809POPC   GL248830  33.481  28.450   5.944
 3809POPC   C1A48831  33.997  28.320   6.185
 3809POPC   D2A48832  34.058  28.581   6.571
 3809POPC   C3A48833  34.184  28.437   6.938
 3809POPC   C4A48834  34.118  28.367   7.343
 3809POPC   C1B48835  33.511  28.326   6.369
 3809POPC   C2B48836  33.462  28.519   6.752
 3809POPC   C3B48837  33.673  28.517   7.117
 3809POPC   C4B48838  33.656  28.375   7.530
 3810POPC   NC348839  28.210  19.201   5.298
 3810POPC   PO448840  28.519  18.522   5.408
 3810POPC   GL148841  28.408  18.788   5.821
 3810POPC   GL248842  28.325  19.155   5.800
 3810POPC   C1A48843  28.646  19.015   6.187
 3810POPC   D2A48844  28.674  19.273   6.586
 3810POPC   C3A48845  28.598  19.031   6.967
 3810POPC   C4A48846  28.203  18.814   7.105
 3810POPC   C1B48847  28.218  19.294   6.248
 3810POPC   C2B48848  28.190  19.201   6.725
 3810POPC   C3B48849  28.098  19.281   7.199
 3810POPC   C4B48850  27.969  18.976   7.537
 3811POPC   NC348851  19.708   5.479   5.397
 3811POPC   PO448852  19.694   4.827   5.565
 3811POPC   GL148853  19.946   5.093   5.829
 3811POPC   GL248854  20.064   5.414   5.786
 3811POPC   C1A48855  20.172   5.071   6.206
 3811POPC   D2A48856  20.097   4.889   6.602
 3811POPC   C3A48857  20.109   5.101   6.970
 3811POPC   C4A48858  19.702   5.074   7.150
 3811POPC   C1B48859  19.839   5.495   6.167
 3811POPC   C2B48860  19.953   5.448   6.610
 3811POPC   C3B48861  19.826   5.574   7.046
 3811POPC   C4B48862  19.994   5.406   7.443
 3812POPC   NC348863  12.860  19.198   5.560
 3812POPC   PO448864  13.448  18.892   5.517
 3812POPC   GL148865  13.586  19.106   5.826
 3812POPC   GL248866  13.254  19.234   5.876
 3812POPC   C1A48867  13.721  19.049   6.237
 3812POPC   D2A48868  13.845  19.329   6.558
 3812POPC   C3A48869  13.755  19.080   6.891
 3812POPC   C4A48870  13.797  18.977   7.295
 3812POPC   C1B48871  13.224  18.985   6.263
 3812POPC   C2B48872  13.378  18.814   6.675
 3812POPC   C3B48873  13.315  18.970   7.123
 3812POPC   C4B48874  13.424  19.163   7.564
 3813POPC   NC348875  12.803  30.258   5.367
 3813POPC   PO448876  12.734  30.906   5.356
 3813POPC   GL148877  12.870  30.635   5.736
 3813POPC   GL248878  12.622  30.383   5.841
 3813POPC   C1A48879  13.009  30.572   6.192
 3813POPC   D2A48880  13.140  30.751   6.595
 3813POPC   C3A48881  12.950  30.700   6.969
 3813POPC   C4A48882  12.837  30.997   7.263
 3813POPC   C1B48883  12.621  30.236   6.261
 3813POPC   C2B48884  12.583  30.517   6.612
 3813POPC   C3B48885  12.493  30.480   7.034
 3813POPC   C4B48886  12.681  30.533   7.403
 3814POPC   NC348887  21.048  27.470   5.395
 3814POPC   PO448888  21.631  27.893   5.464
 3814POPC   GL148889  21.475  27.642   5.794
 3814POPC   GL248890  21.823  27.631   5.926
 3814POPC   C1A48891  21.231  27.437   6.129
 3814POPC   D2A48892  21.002  27.635   6.452
 3814POPC   C3A48893  21.101  27.559   6.875
 3814POPC   C4A48894  21.354  27.406   7.237
 3814POPC   C1B48895  21.631  27.715   6.311
 3814POPC   C2B48896  21.608  27.528   6.739
 3814POPC   C3B48897  21.839  27.622   7.136
 3814POPC   C4B48898  21.762  27.996   7.389
 3815POPC   NC348899  31.119  23.219   5.459
 3815POPC   PO448900  31.663  23.696   5.433
 3815POPC   GL148901  31.428  23.732   5.795
 3815POPC   GL248902  31.340  23.422   5.883
 3815POPC   C1A48903  31.482  23.942   6.179
 3815POPC   D2A48904  31.666  23.945   6.580
 3815POPC   C3A48905  31.490  23.648   6.843
 3815POPC   C4A48906  31.323  23.803   7.204
 3815POPC   C1B48907  31.405  23.424   6.330
 3815POPC   C2B48908  31.101  23.385   6.651
 3815POPC   C3B48909  31.140  23.337   7.131
 3815POPC   C4B48910  31.192  23.187   7.588
 3816POPC   NC348911  44.371  29.985   5.446
 3816POPC   PO448912  43.711  29.676   5.452
 3816POPC   GL148913  43.843  29.854   5.871
 3816POPC   GL248914  44.074  30.143   5.855
 3816POPC   C1A48915  43.672  29.810   6.307
 3816POPC   D2A48916  43.638  29.558   6.683
 3816POPC   C3A48917  43.550  29.800   7.020
 3816POPC   C4A48918  43.843  29.995   7.281
 3816POPC   C1B48919  44.155  29.996   6.298
 3816POPC   C2B48920  44.037  29.917   6.729
 3816POPC   C3B48921  44.304  30.017   7.065
 3816POPC   C4B48922  44.326  29.843   7.444
 3817POPC   NC348923  43.810  43.391   5.480
 3817POPC   PO448924  43.139  43.229   5.502
 3817POPC   GL148925  43.165  43.051   5.875
 3817POPC   GL248926  43.510  43.065   5.970
 3817POPC   C1A48927  43.016  42.855   6.236
 3817POPC   D2A48928  43.225  42.868   6.607
 3817POPC   C3A48929  42.951  42.754   6.889
 3817POPC   C4A48930  43.021  42.589   7.246
 3817POPC   C1B48931  43.347  43.286   6.343
 3817POPC   C2B48932  43.317  43.331   6.825
 3817POPC   C3B48933  43.295  43.248   7.268
 3817POPC   C4B48934  43.295  43.440   7.679
 3818POPC   NC348935  41.123  31.880   5.369
 3818POPC   PO448936  40.739  31.322   5.483
 3818POPC   GL148937  40.935  31.537   5.771
 3818POPC   GL248938  41.064  31.234   5.915
 3818POPC   C1A48939  40.994  31.680   6.195
 3818POPC   D2A48940  41.110  31.608   6.631
 3818POPC   C3A48941  40.888  31.671   7.004
 3818POPC   C4A48942  40.457  31.625   7.126
 3818POPC   C1B48943  40.728  31.225   6.225
 3818POPC   C2B48944  40.627  31.344   6.664
 3818POPC   C3B48945  40.710  31.180   7.087
 3818POPC   C4B48946  40.973  31.201   7.459
 3819POPC   NC348947  27.107   4.615   5.540
 3819POPC   PO448948  27.116   3.877   5.517
 3819POPC   GL148949  26.860   3.998   5.879
 3819POPC   GL248950  27.093   4.235   5.915
 3819POPC   C1A48951  26.684   4.083   6.314
 3819POPC   D2A48952  26.473   3.948   6.704
 3819POPC   C3A48953  26.526   4.227   7.038
 3819POPC   C4A48954  26.643   4.670   7.115
 3819POPC   C1B48955  27.029   4.471   6.263
 3819POPC   C2B48956  26.847   4.453   6.665
 3819POPC   C3B48957  27.037   4.345   7.033
 3819POPC   C4B48958  26.915   4.094   7.338
 3820POPC   NC348959   3.493  31.599   5.489
 3820POPC   PO448960   3.952  31.193   5.205
 3820POPC   GL148961   3.677  31.165   5.688
 3820POPC   GL248962   3.296  31.168   5.753
 3820POPC   C1A48963   3.647  31.325   6.128
 3820POPC   D2A48964   3.507  31.269   6.545
 3820POPC   C3A48965   3.724  31.546   6.835
 3820POPC   C4A48966   3.775  31.467   7.260
 3820POPC   C1B48967   3.147  31.438   6.131
 3820POPC   C2B48968   3.196  31.656   6.532
 3820POPC   C3B48969   3.238  31.433   6.956
 3820POPC   C4B48970   3.334  31.701   7.315
 3821POPC   NC348971  34.845   9.678   5.487
 3821POPC   PO448972  34.316   9.248   5.415
 3821POPC   GL148973  34.467   9.479   5.791
 3821POPC   GL248974  34.513   9.863   5.823
 3821POPC   C1A48975  34.386   9.528   6.231
 3821POPC   D2A48976  34.365   9.376   6.646
 3821POPC   C3A48977  34.751   9.455   6.848
 3821POPC   C4A48978  34.495   9.676   7.111
 3821POPC   C1B48979  34.498  10.040   6.232
 3821POPC   C2B48980  34.688   9.908   6.600
 3821POPC   C3B48981  34.756  10.091   6.972
 3821POPC   C4B48982  34.559  10.169   7.307
 3822POPC   NC348983  35.850  37.895   5.379
 3822POPC   PO448984  35.835  37.248   5.578
 3822POPC   GL148985  36.145  37.506   5.785
 3822POPC   GL248986  36.025  37.819   5.850
 3822POPC   C1A48987  36.452  37.584   6.114
 3822POPC   D2A48988  36.379  37.809   6.505
 3822POPC   C3A48989  36.490  37.629   6.898
 3822POPC   C4A48990  36.317  37.646   7.333
 3822POPC   C1B48991  35.754  37.921   6.188
 3822POPC   C2B48992  35.859  37.991   6.630
 3822POPC   C3B48993  35.894  37.821   7.079
 3822POPC   C4B48994  35.912  37.840   7.569
 3823POPC   NC348995   2.172   3.550   5.470
 3823POPC   PO448996   1.565   3.785   5.493
 3823POPC   GL148997   1.838   3.739   5.886
 3823POPC   GL248998   2.193   3.614   5.967
 3823POPC   C1A48999   1.835   3.531   6.298
 3823POPC   D2A49000   1.675   3.675   6.665
 3823POPC   C3A49001   1.977   3.753   6.968
 3823POPC   C4A49002   2.067   3.410   7.228
 3823POPC   C1B49003   2.180   3.941   6.301
 3823POPC   C2B49004   2.388   4.140   6.660
 3823POPC   C3B49005   2.391   4.105   7.117
 3823POPC   C4B49006   2.204   3.837   7.448
 3824POPC   NC349007  28.940  16.121   5.506
 3824POPC   PO449008  29.441  15.672   5.510
 3824POPC   GL149009  29.262  15.903   5.873
 3824POPC   GL249010  28.889  15.872   5.917
 3824POPC   C1A49011  29.345  15.967   6.313
 3824POPC   D2A49012  29.423  15.664   6.623
 3824POPC   C3A49013  29.306  15.747   7.058
 3824POPC   C4A49014  29.469  15.899   7.444
 3824POPC   C1B49015  28.942  16.253   6.160
 3824POPC   C2B49016  29.090  16.460   6.512
 3824POPC   C3B49017  28.818  16.379   6.854
 3824POPC   C4B49018  28.890  16.062   7.174
 3825POPC   NC349019  13.835  19.356   5.405
 3825POPC   PO449020  13.456  19.882   5.376
 3825POPC   GL149021  13.645  19.932   5.762
 3825POPC   GL249022  13.572  19.623   5.840
 3825POPC   C1A49023  13.696  19.973   6.214
 3825POPC   D2A49024  13.547  19.842   6.612
 3825POPC   C3A49025  13.413  20.142   6.889
 3825POPC   C4A49026  13.514  19.922   7.237
 3825POPC   C1B49027  13.445  19.487   6.259
 3825POPC   C2B49028  13.341  19.346   6.682
 3825POPC   C3B49029  13.479  19.449   7.099
 3825POPC   C4B49030  13.808  19.487   7.415
 3826POPC   NC349031  24.755  41.956   5.462
 3826POPC   PO449032  24.279  42.451   5.323
 3826POPC   GL149033  24.313  42.276   5.708
 3826POPC   GL249034  24.393  42.595   5.879
 3826POPC   C1A49035  24.370  42.188   6.152
 3826POPC   D2A49036  24.450  42.323   6.575
 3826POPC   C3A49037  24.368  42.022   6.920
 3826POPC   C4A49038  24.573  42.119   7.298
 3826POPC   C1B49039  24.164  42.684   6.277
 3826POPC   C2B49040  24.233  42.795   6.728
 3826POPC   C3B49041  24.307  42.526   7.122
 3826POPC   C4B49042  24.224  42.367   7.584
 3827POPC   NC349043   6.930   1.166   5.134
 3827POPC   PO449044   7.484   1.235   5.506
 3827POPC   GL149045   7.400   1.334   5.913
 3827POPC   GL249046   7.090   1.436   5.823
 3827POPC   C1A49047   7.385   1.025   6.252
 3827POPC   D2A49048   7.681   0.820   6.493
 3827POPC   C3A49049   7.541   0.910   6.892
 3827POPC   C4A49050   7.687   0.844   7.275
 3827POPC   C1B49051   6.963   1.355   6.239
 3827POPC   C2B49052   7.269   1.436   6.557
 3827POPC   C3B49053   7.442   1.424   6.951
 3827POPC   C4B49054   7.409   1.242   7.326
 3828POPC   NC349055  42.697  41.470   5.492
 3828POPC   PO449056  42.086  41.798   5.487
 3828POPC   GL149057  42.366  41.710   5.807
 3828POPC   GL249058  42.384  41.338   5.869
 3828POPC   C1A49059  42.474  41.825   6.213
 3828POPC   D2A49060  42.259  41.782   6.589
 3828POPC   C3A49061  42.446  41.839   6.970
 3828POPC   C4A49062  42.461  41.707   7.383
 3828POPC   C1B49063  42.675  41.356   6.205
 3828POPC   C2B49064  42.586  41.370   6.641
 3828POPC   C3B49065  42.511  41.316   7.066
 3828POPC   C4B49066  42.633  41.223   7.507
 3829POPC   NC349067   3.022   1.310   5.374
 3829POPC   PO449068   2.578   0.818   5.497
 3829POPC   GL149069   2.710   1.045   5.860
 3829POPC   GL249070   2.724   1.398   5.769
 3829POPC   C1A49071   2.750   1.013   6.323
 3829POPC   D2A49072   2.480   0.971   6.706
 3829POPC   C3A49073   2.631   1.044   7.138
 3829POPC   C4A49074   2.884   0.966   7.516
 3829POPC   C1B49075   2.543   1.476   6.157
 3829POPC   C2B49076   2.671   1.452   6.574
 3829POPC   C3B49077   2.468   1.488   6.930
 3829POPC   C4B49078   2.623   1.534   7.332
 3830POPC   NC349079   7.556  44.493   5.284
 3830POPC   PO449080   7.178  44.981   5.117
 3830POPC   GL149081   7.481  44.941   5.546
 3830POPC   GL249082   7.236  44.755   5.743
 3830POPC   C1A49083   7.651  44.832   6.046
 3830POPC   D2A49084   7.402  44.673   6.479
 3830POPC   C3A49085   7.439  44.573   6.966
 3830POPC   C4A49086   7.399  44.557   7.448
 3830POPC   C1B49087   7.179  44.986   6.138
 3830POPC   C2B49088   7.123   0.109   6.548
 3830POPC   C3B49089   7.254   0.066   6.957
 3830POPC   C4B49090   7.146   0.032   7.365
 3831POPC   NC349091  10.205  32.604   5.396
 3831POPC   PO449092  10.800  32.209   5.288
 3831POPC   GL149093  10.638  32.307   5.697
 3831POPC   GL249094  10.550  31.945   5.712
 3831POPC   C1A49095  10.754  32.519   6.123
 3831POPC   D2A49096  10.923  32.566   6.546
 3831POPC   C3A49097  10.636  32.370   6.818
 3831POPC   C4A49098  10.642  32.243   7.257
 3831POPC   C1B49099  10.463  31.834   6.137
 3831POPC   C2B49100  10.372  32.024   6.532
 3831POPC   C3B49101  10.554  31.857   6.896
 3831POPC   C4B49102  10.327  31.842   7.263
 3832POPC   NC349103  20.429   4.002   5.458
 3832POPC   PO449104  20.676   4.642   5.541
 3832POPC   GL149105  20.762   4.266   5.829
 3832POPC   GL249106  20.452   4.110   5.958
 3832POPC   C1A49107  20.878   4.065   6.227
 3832POPC   D2A49108  20.742   3.896   6.629
 3832POPC   C3A49109  20.509   4.164   6.929
 3832POPC   C4A49110  20.706   4.315   7.269
 3832POPC   C1B49111  20.465   4.546   6.174
 3832POPC   C2B49112  20.570   4.731   6.583
 3832POPC   C3B49113  20.470   4.696   7.026
 3832POPC   C4B49114  20.550   4.755   7.481
 3833POPC   NC349115  21.289  17.837   5.307
 3833POPC   PO449116  21.290  17.281   5.591
 3833POPC   GL149117  21.347  17.578   5.848
 3833POPC   GL249118  21.677  17.415   5.928
 3833POPC   C1A49119  21.303  17.499   6.265
 3833POPC   D2A49120  21.117  17.616   6.582
 3833POPC   C3A49121  21.353  17.502   6.912
 3833POPC   C4A49122  21.571  17.771   7.238
 3833POPC   C1B49123  21.569  17.062   6.232
 3833POPC   C2B49124  21.664  16.921   6.667
 3833POPC   C3B49125  21.835  16.939   7.061
 3833POPC   C4B49126  21.828  16.922   7.489
 3834POPC   NC349127  20.174  18.888   5.437
 3834POPC   PO449128  20.785  19.255   5.496
 3834POPC   GL149129  20.489  19.244   5.803
 3834POPC   GL249130  20.487  18.910   5.876
 3834POPC   C1A49131  20.550  19.269   6.257
 3834POPC   D2A49132  20.850  19.185   6.605
 3834POPC   C3A49133  20.748  19.363   7.001
 3834POPC   C4A49134  20.890  19.297   7.466
 3834POPC   C1B49135  20.764  18.786   6.212
 3834POPC   C2B49136  20.937  18.673   6.595
 3834POPC   C3B49137  20.706  18.717   6.923
 3834POPC   C4B49138  20.565  18.973   7.233
 3835POPC   NC349139  40.675  34.519   5.334
 3835POPC   PO449140  40.894  35.162   5.363
 3835POPC   GL149141  40.827  34.891   5.769
 3835POPC   GL249142  40.686  34.539   5.842
 3835POPC   C1A49143  40.704  34.902   6.253
 3835POPC   D2A49144  40.628  34.754   6.728
 3835POPC   C3A49145  40.967  34.755   7.102
 3835POPC   C4A49146  41.155  34.533   7.527
 3835POPC   C1B49147  40.484  34.287   6.193
 3835POPC   C2B49148  40.529  34.155   6.653
 3835POPC   C3B49149  40.396  34.372   7.032
 3835POPC   C4B49150  40.440  34.822   7.220
 3836POPC   NC349151  37.659  42.365   5.276
 3836POPC   PO449152  37.269  42.841   5.521
 3836POPC   GL149153  37.514  42.630   5.843
 3836POPC   GL249154  37.648  42.305   5.776
 3836POPC   C1A49155  37.414  42.343   6.233
 3836POPC   D2A49156  37.349  42.124   6.652
 3836POPC   C3A49157  37.588  42.358   6.956
 3836POPC   C4A49158  37.438  42.688   7.237
 3836POPC   C1B49159  37.823  42.039   6.105
 3836POPC   C2B49160  37.871  42.192   6.521
 3836POPC   C3B49161  37.956  41.964   6.892
 3836POPC   C4B49162  37.832  42.071   7.301
 3837POPC   NC349163  37.010  24.106   5.070
 3837POPC   PO449164  36.853  24.576   5.522
 3837POPC   GL149165  36.804  24.532   5.949
 3837POPC   GL249166  37.124  24.603   6.087
 3837POPC   C1A49167  36.624  24.718   6.343
 3837POPC   D2A49168  36.646  24.978   6.746
 3837POPC   C3A49169  36.692  24.684   7.113
 3837POPC   C4A49170  36.787  24.703   7.581
 3837POPC   C1B49171  37.367  24.257   6.243
 3837POPC   C2B49172  37.387  24.080   6.639
 3837POPC   C3B49173  37.356  24.212   7.058
 3837POPC   C4B49174  37.003  24.317   7.320
 3838POPC   NC349175  28.845  43.395   5.546
 3838POPC   PO449176  29.277  42.907   5.418
 3838POPC   GL149177  29.170  43.085   5.801
 3838POPC   GL249178  28.841  42.889   5.793
 3838POPC   C1A49179  29.288  43.228   6.221
 3838POPC   D2A49180  29.247  43.042   6.651
 3838POPC   C3A49181  29.499  43.206   7.005
 3838POPC   C4A49182  29.399  43.253   7.444
 3838POPC   C1B49183  29.041  42.730   6.180
 3838POPC   C2B49184  28.935  42.600   6.606
 3838POPC   C3B49185  28.888  42.754   7.041
 3838POPC   C4B49186  28.928  43.176   7.184
 3839POPC   NC349187  36.758  19.620   5.456
 3839POPC   PO449188  37.419  19.847   5.454
 3839POPC   GL149189  37.209  19.718   5.826
 3839POPC   GL249190  36.872  19.857   5.878
 3839POPC   C1A49191  37.184  19.887   6.283
 3839POPC   D2A49192  37.191  19.939   6.729
 3839POPC   C3A49193  37.047  19.674   7.028
 3839POPC   C4A49194  37.066  19.993   7.299
 3839POPC   C1B49195  36.786  19.567   6.213
 3839POPC   C2B49196  36.719  19.704   6.619
 3839POPC   C3B49197  36.629  19.958   6.955
 3839POPC   C4B49198  36.619  19.759   7.345
 3840POPC   NC349199  14.998  28.534   5.368
 3840POPC   PO449200  15.359  28.032   5.275
 3840POPC   GL149201  15.395  28.245   5.669
 3840POPC   GL249202  15.052  28.310   5.837
 3840POPC   C1A49203  15.485  28.351   6.104
 3840POPC   D2A49204  15.214  28.367   6.428
 3840POPC   C3A49205  15.358  28.347   6.800
 3840POPC   C4A49206  15.445  28.323   7.194
 3840POPC   C1B49207  14.784  28.210   6.214
 3840POPC   C2B49208  14.757  28.299   6.667
 3840POPC   C3B49209  14.929  28.236   7.082
 3840POPC   C4B49210  14.857  28.341   7.516
 3841POPC   NC349211  41.356  36.796   5.550
 3841POPC   PO449212  41.959  36.494   5.658
 3841POPC   GL149213  41.719  36.763   5.905
 3841POPC   GL249214  41.683  37.117   5.842
 3841POPC   C1A49215  41.514  36.852   6.266
 3841POPC   D2A49216  41.730  36.873   6.660
 3841POPC   C3A49217  41.426  36.821   6.981
 3841POPC   C4A49218  41.452  36.582   7.411
 3841POPC   C1B49219  41.568  37.359   6.181
 3841POPC   C2B49220  41.375  37.236   6.555
 3841POPC   C3B49221  41.598  37.322   6.880
 3841POPC   C4B49222  41.578  37.181   7.283
 3842POPC   NC349223  10.480  24.758   5.467
 3842POPC   PO449224  10.784  24.077   5.450
 3842POPC   GL149225  10.449  24.276   5.724
 3842POPC   GL249226  10.697  24.479   5.840
 3842POPC   C1A49227  10.224  24.409   6.147
 3842POPC   D2A49228  10.298  24.626   6.587
 3842POPC   C3A49229  10.311  24.392   6.997
 3842POPC   C4A49230  10.680  24.243   7.233
 3842POPC   C1B49231  10.894  24.813   6.060
 3842POPC   C2B49232  10.809  24.882   6.488
 3842POPC   C3B49233  10.793  24.672   6.894
 3842POPC   C4B49234  10.557  24.792   7.242
 3843POPC   NC349235  13.097   1.998   5.394
 3843POPC   PO449236  12.464   1.853   5.461
 3843POPC   GL149237  12.756   2.034   5.797
 3843POPC   GL249238  13.104   2.207   5.863
 3843POPC   C1A49239  13.002   1.788   6.120
 3843POPC   D2A49240  12.865   1.537   6.465
 3843POPC   C3A49241  12.964   1.680   6.861
 3843POPC   C4A49242  12.746   1.865   7.170
 3843POPC   C1B49243  13.382   2.141   6.210
 3843POPC   C2B49244  13.338   2.012   6.635
 3843POPC   C3B49245  13.098   2.223   6.972
 3843POPC   C4B49246  13.079   2.171   7.411
 3844POPC   NC349247  44.271  19.130   5.330
 3844POPC   PO449248  43.821  18.587   5.372
 3844POPC   GL149249  43.812  18.850   5.764
 3844POPC   GL249250  43.928  19.221   5.751
 3844POPC   C1A49251  43.833  18.981   6.211
 3844POPC   D2A49252  44.110  18.897   6.565
 3844POPC   C3A49253  43.926  19.093   6.948
 3844POPC   C4A49254  43.763  19.061   7.410
 3844POPC   C1B49255  44.238  19.314   6.105
 3844POPC   C2B49256  44.220  19.430   6.557
 3844POPC   C3B49257  44.416  19.314   6.952
 3844POPC   C4B49258  44.178  19.342   7.320
 3845POPC   NC349259  37.553  17.922   5.538
 3845POPC   PO449260  37.180  18.471   5.420
 3845POPC   GL149261  37.535  18.402   5.777
 3845POPC   GL249262  37.826  18.138   5.888
 3845POPC   C1A49263  37.687  18.507   6.215
 3845POPC   D2A49264  37.449  18.517   6.584
 3845POPC   C3A49265  37.541  18.488   7.007
 3845POPC   C4A49266  37.353  18.407   7.389
 3845POPC   C1B49267  37.819  17.995   6.323
 3845POPC   C2B49268  37.781  18.068   6.766
 3845POPC   C3B49269  37.816  18.111   7.219
 3845POPC   C4B49270  37.968  18.138   7.665
 3846POPC   NC349271  32.231  42.037   5.464
 3846POPC   PO449272  31.924  42.639   5.388
 3846POPC   GL149273  32.069  42.397   5.802
 3846POPC   GL249274  32.405  42.204   5.969
 3846POPC   C1A49275  31.965  42.222   6.190
 3846POPC   D2A49276  31.893  42.424   6.527
 3846POPC   C3A49277  32.163  42.437   6.858
 3846POPC   C4A49278  32.220  42.318   7.277
 3846POPC   C1B49279  32.366  42.538   6.260
 3846POPC   C2B49280  32.624  42.628   6.606
 3846POPC   C3B49281  32.727  42.789   6.968
 3846POPC   C4B49282  32.417  42.762   7.181
 3847POPC   NC349283  34.057   3.324   5.137
 3847POPC   PO449284  33.660   2.864   5.543
 3847POPC   GL149285  33.914   2.728   5.919
 3847POPC   GL249286  34.125   2.952   6.055
 3847POPC   C1A49287  34.075   2.504   6.269
 3847POPC   D2A49288  33.837   2.673   6.606
 3847POPC   C3A49289  34.037   2.823   6.973
 3847POPC   C4A49290  34.020   2.721   7.372
 3847POPC   C1B49291  33.824   3.123   6.292
 3847POPC   C2B49292  33.811   3.187   6.703
 3847POPC   C3B49293  33.698   3.227   7.080
 3847POPC   C4B49294  34.015   3.251   7.321
 3848POPC   NC349295  10.143   2.222   5.399
 3848POPC   PO449296  10.727   1.871   5.237
 3848POPC   GL149297  10.522   1.953   5.672
 3848POPC   GL249298  10.746   2.108   5.905
 3848POPC   C1A49299  10.451   1.702   6.087
 3848POPC   D2A49300  10.581   1.867   6.503
 3848POPC   C3A49301  10.463   1.816   6.938
 3848POPC   C4A49302  10.683   2.042   7.293
 3848POPC   C1B49303  10.305   2.182   6.095
 3848POPC   C2B49304  10.219   2.250   6.532
 3848POPC   C3B49305  10.418   2.345   6.913
 3848POPC   C4B49306  10.253   2.358   7.323
 3849POPC   NC349307  33.112  31.814   5.482
 3849POPC   PO449308  32.670  31.279   5.385
 3849POPC   GL149309  32.899  31.431   5.745
 3849POPC   GL249310  32.586  31.639   5.749
 3849POPC   C1A49311  33.144  31.359   6.156
 3849POPC   D2A49312  33.165  31.186   6.614
 3849POPC   C3A49313  33.175  31.525   6.944
 3849POPC   C4A49314  33.224  31.446   7.384
 3849POPC   C1B49315  32.697  31.628   6.162
 3849POPC   C2B49316  32.842  31.610   6.564
 3849POPC   C3B49317  32.664  31.605   6.962
 3849POPC   C4B49318  32.763  31.670   7.358
 3850POPC   NC349319  35.265   3.535   4.997
 3850POPC   PO449320  35.394   3.199   5.566
 3850POPC   GL149321  35.276   3.404   5.919
 3850POPC   GL249322  35.194   3.742   5.841
 3850POPC   C1A49323  35.351   3.305   6.306
 3850POPC   D2A49324  35.532   3.475   6.639
 3850POPC   C3A49325  35.280   3.368   6.987
 3850POPC   C4A49326  35.225   3.610   7.322
 3850POPC   C1B49327  35.348   3.832   6.241
 3850POPC   C2B49328  35.459   4.005   6.623
 3850POPC   C3B49329  35.560   3.850   7.014
 3850POPC   C4B49330  35.844   3.836   7.324
 3851POPC   NC349331  14.624  23.980   5.244
 3851POPC   PO449332  14.278  23.489   5.585
 3851POPC   GL149333  14.431  23.733   5.895
 3851POPC   GL249334  14.704  23.893   5.759
 3851POPC   C1A49335  14.485  23.626   6.314
 3851POPC   D2A49336  14.658  23.523   6.685
 3851POPC   C3A49337  14.317  23.599   6.961
 3851POPC   C4A49338  14.452  23.603   7.360
 3851POPC   C1B49339  14.721  24.075   6.189
 3851POPC   C2B49340  14.576  24.051   6.627
 3851POPC   C3B49341  14.698  23.918   7.040
 3851POPC   C4B49342  14.732  24.017   7.489
 3852POPC   NC349343  24.319  24.584   5.346
 3852POPC   PO449344  24.923  24.451   5.608
 3852POPC   GL149345  24.481  24.469   5.830
 3852POPC   GL249346  24.280  24.182   5.763
 3852POPC   C1A49347  24.253  24.592   6.230
 3852POPC   D2A49348  24.414  24.806   6.596
 3852POPC   C3A49349  24.603  24.601   6.955
 3852POPC   C4A49350  24.628  24.738   7.384
 3852POPC   C1B49351  24.332  24.076   6.229
 3852POPC   C2B49352  24.368  24.157   6.703
 3852POPC   C3B49353  24.621  24.114   7.095
 3852POPC   C4B49354  24.536  24.292   7.557
 3853POPC   NC349355   1.870   8.278   5.620
 3853POPC   PO449356   2.431   8.574   5.429
 3853POPC   GL149357   2.268   8.412   5.898
 3853POPC   GL249358   2.152   8.036   6.004
 3853POPC   C1A49359   2.010   8.383   6.310
 3853POPC   D2A49360   2.037   8.181   6.755
 3853POPC   C3A49361   1.920   8.494   7.101
 3853POPC   C4A49362   1.669   8.597   7.499
 3853POPC   C1B49363   1.786   7.911   6.303
 3853POPC   C2B49364   1.575   7.935   6.741
 3853POPC   C3B49365   1.719   8.044   7.154
 3853POPC   C4B49366   2.129   8.029   7.314
 3854POPC   NC349367  33.070  17.589   5.132
 3854POPC   PO449368  33.194  17.007   5.469
 3854POPC   GL149369  33.244  17.314   5.794
 3854POPC   GL249370  33.009  17.588   5.761
 3854POPC   C1A49371  33.105  17.358   6.232
 3854POPC   D2A49372  33.102  17.593   6.625
 3854POPC   C3A49373  33.159  17.327   6.980
 3854POPC   C4A49374  32.866  17.160   7.256
 3854POPC   C1B49375  32.737  17.715   6.101
 3854POPC   C2B49376  32.619  17.734   6.520
 3854POPC   C3B49377  32.624  17.462   6.879
 3854POPC   C4B49378  32.816  17.662   7.211
 3855POPC   NC349379   0.389  36.941   5.276
 3855POPC   PO449380   0.141  36.428   5.324
 3855POPC   GL149381   0.429  36.606   5.701
 3855POPC   GL249382   0.454  37.000   5.767
 3855POPC   C1A49383   0.393  36.700   6.172
 3855POPC   D2A49384   0.328  37.045   6.512
 3855POPC   C3A49385   0.258  36.978   6.955
 3855POPC   C4A49386   0.482  36.714   7.256
 3855POPC   C1B49387   0.659  37.178   6.120
 3855POPC   C2B49388   0.812  37.244   6.549
 3855POPC   C3B49389   0.770  37.004   6.902
 3855POPC   C4B49390   0.903  37.014   7.311
 3856POPC   NC349391  19.323  14.813   5.162
 3856POPC   PO449392  18.930  15.367   5.193
 3856POPC   GL149393  18.991  15.268   5.701
 3856POPC   GL249394  19.267  15.000   5.706
 3856POPC   C1A49395  19.246  15.398   6.147
 3856POPC   D2A49396  19.491  15.244   6.562
 3856POPC   C3A49397  19.316  15.298   6.992
 3856POPC   C4A49398  19.039  15.631   7.164
 3856POPC   C1B49399  19.068  14.934   6.113
 3856POPC   C2B49400  19.073  14.911   6.562
 3856POPC   C3B49401  18.935  14.895   6.990
 3856POPC   C4B49402  19.169  14.879   7.380
 3857POPC   NC349403  25.871  36.231   5.530
 3857POPC   PO449404  26.404  35.804   5.542
 3857POPC   GL149405  26.138  35.929   5.882
 3857POPC   GL249406  25.795  35.831   5.848
 3857POPC   C1A49407  25.981  36.081   6.303
 3857POPC   D2A49408  25.917  36.430   6.628
 3857POPC   C3A49409  26.254  36.441   6.912
 3857POPC   C4A49410  26.378  36.067   7.180
 3857POPC   C1B49411  25.523  35.812   6.190
 3857POPC   C2B49412  25.555  35.840   6.625
 3857POPC   C3B49413  25.889  35.953   6.902
 3857POPC   C4B49414  25.856  36.291   7.157
 3858POPC   NC349415  24.095  28.124   5.522
 3858POPC   PO449416  24.746  28.461   5.441
 3858POPC   GL149417  24.628  28.362   5.835
 3858POPC   GL249418  24.333  28.569   5.890
 3858POPC   C1A49419  24.776  28.585   6.185
 3858POPC   D2A49420  24.667  28.632   6.614
 3858POPC   C3A49421  24.416  28.338   6.855
 3858POPC   C4A49422  24.504  28.468   7.262
 3858POPC   C1B49423  24.329  28.359   6.300
 3858POPC   C2B49424  24.182  28.006   6.521
 3858POPC   C3B49425  24.047  27.937   6.912
 3858POPC   C4B49426  24.109  28.165   7.263
 3859POPC   NC349427  30.347  37.111   5.447
 3859POPC   PO449428  30.868  36.754   5.164
 3859POPC   GL149429  30.837  36.626   5.642
 3859POPC   GL249430  30.603  36.859   5.816
 3859POPC   C1A49431  30.867  36.558   6.142
 3859POPC   D2A49432  30.768  36.788   6.559
 3859POPC   C3A49433  30.705  36.573   6.977
 3859POPC   C4A49434  30.438  36.621   7.349
 3859POPC   C1B49435  30.355  36.969   6.211
 3859POPC   C2B49436  30.343  37.116   6.654
 3859POPC   C3B49437  30.560  37.067   7.072
 3859POPC   C4B49438  30.379  37.103   7.525
 3860POPC   NC349439   2.016  17.338   5.137
 3860POPC   PO449440   1.828  17.712   5.750
 3860POPC   GL149441   1.883  17.475   6.092
 3860POPC   GL249442   2.185  17.322   5.925
 3860POPC   C1A49443   1.691  17.598   6.491
 3860POPC   D2A49444   1.705  17.949   6.779
 3860POPC   C3A49445   1.846  17.690   7.102
 3860POPC   C4A49446   1.791  17.281   7.082
 3860POPC   C1B49447   2.387  17.229   6.323
 3860POPC   C2B49448   2.261  17.325   6.757
 3860POPC   C3B49449   2.272  17.361   7.210
 3860POPC   C4B49450   2.388  17.256   7.639
 3861POPC   NC349451  14.114  27.206   5.530
 3861POPC   PO449452  14.735  27.452   5.572
 3861POPC   GL149453  14.398  27.566   5.806
 3861POPC   GL249454  14.451  27.234   5.948
 3861POPC   C1A49455  14.420  27.847   6.152
 3861POPC   D2A49456  14.673  27.775   6.505
 3861POPC   C3A49457  14.538  27.887   6.903
 3861POPC   C4A49458  14.279  27.718   7.217
 3861POPC   C1B49459  14.194  27.424   6.275
 3861POPC   C2B49460  14.271  27.455   6.720
 3861POPC   C3B49461  14.339  27.212   7.092
 3861POPC   C4B49462  14.250  27.204   7.521
 3862POPC   NC349463  18.210  40.868   5.343
 3862POPC   PO449464  18.047  40.193   5.532
 3862POPC   GL149465  18.230  40.573   5.796
 3862POPC   GL249466  18.227  40.971   5.831
 3862POPC   C1A49467  18.094  40.645   6.200
 3862POPC   D2A49468  17.796  40.553   6.497
 3862POPC   C3A49469  17.937  40.752   6.869
 3862POPC   C4A49470  18.264  40.676   7.164
 3862POPC   C1B49471  18.551  40.877   6.144
 3862POPC   C2B49472  18.491  40.744   6.567
 3862POPC   C3B49473  18.670  40.898   6.942
 3862POPC   C4B49474  18.477  41.118   7.280
 3863POPC   NC349475  17.917  15.891   5.368
 3863POPC   PO449476  17.326  16.183   5.345
 3863POPC   GL149477  17.285  16.015   5.786
 3863POPC   GL249478  17.238  16.353   5.861
 3863POPC   C1A49479  17.463  15.757   6.183
 3863POPC   D2A49480  17.767  15.474   6.462
 3863POPC   C3A49481  17.804  15.639   6.896
 3863POPC   C4A49482  17.507  15.858   7.160
 3863POPC   C1B49483  17.593  16.253   6.159
 3863POPC   C2B49484  17.554  16.275   6.614
 3863POPC   C3B49485  17.767  16.259   7.008
 3863POPC   C4B49486  17.781  16.188   7.436
 3864POPC   NC349487  17.717   4.886   5.219
 3864POPC   PO449488  17.336   4.382   5.482
 3864POPC   GL149489  17.696   4.360   5.796
 3864POPC   GL249490  17.908   4.673   5.863
 3864POPC   C1A49491  17.570   4.178   6.197
 3864POPC   D2A49492  17.350   4.291   6.568
 3864POPC   C3A49493  17.514   4.105   6.939
 3864POPC   C4A49494  17.372   4.151   7.349
 3864POPC   C1B49495  17.728   4.684   6.290
 3864POPC   C2B49496  17.777   4.774   6.745
 3864POPC   C3B49497  17.499   4.606   7.089
 3864POPC   C4B49498  17.690   4.580   7.506
 3865POPC   NC349499  32.401   1.393   5.412
 3865POPC   PO449500  32.695   0.730   5.531
 3865POPC   GL149501  32.318   1.008   5.763
 3865POPC   GL249502  32.302   1.395   5.900
 3865POPC   C1A49503  32.021   1.088   6.153
 3865POPC   D2A49504  32.240   1.202   6.528
 3865POPC   C3A49505  32.258   0.943   6.865
 3865POPC   C4A49506  31.986   1.056   7.198
 3865POPC   C1B49507  32.602   1.417   6.241
 3865POPC   C2B49508  32.552   1.595   6.666
 3865POPC   C3B49509  32.374   1.440   7.030
 3865POPC   C4B49510  32.615   1.542   7.420
 3866POPC   NC349511  33.152  39.349   5.178
 3866POPC   PO449512  32.914  38.805   5.384
 3866POPC   GL149513  33.122  39.091   5.700
 3866POPC   GL249514  33.124  39.476   5.694
 3866POPC   C1A49515  33.070  39.180   6.147
 3866POPC   D2A49516  32.944  38.947   6.504
 3866POPC   C3A49517  33.069  39.159   6.866
 3866POPC   C4A49518  32.883  39.326   7.231
 3866POPC   C1B49519  33.375  39.591   6.082
 3866POPC   C2B49520  33.381  39.439   6.535
 3866POPC   C3B49521  33.276  39.633   6.960
 3866POPC   C4B49522  33.224  39.646   7.433
 3867POPC   NC349523  41.740  19.044   5.346
 3867POPC   PO449524  41.228  19.388   5.193
 3867POPC   GL149525  41.424  19.047   5.707
 3867POPC   GL249526  41.796  18.939   5.834
 3867POPC   C1A49527  41.393  18.951   6.151
 3867POPC   D2A49528  41.574  18.761   6.539
 3867POPC   C3A49529  41.464  18.865   6.981
 3867POPC   C4A49530  41.500  19.226   7.258
 3867POPC   C1B49531  41.834  19.241   6.179
 3867POPC   C2B49532  41.769  19.290   6.627
 3867POPC   C3B49533  41.939  19.151   7.013
 3867POPC   C4B49534  41.992  19.336   7.429
 3868POPC   NC349535  39.155  38.686   5.336
 3868POPC   PO449536  39.228  38.093   5.267
 3868POPC   GL149537  39.133  38.304   5.723
 3868POPC   GL249538  39.253  38.662   5.821
 3868POPC   C1A49539  39.264  38.316   6.201
 3868POPC   D2A49540  39.115  38.229   6.637
 3868POPC   C3A49541  39.387  38.452   6.951
 3868POPC   C4A49542  39.374  38.331   7.397
 3868POPC   C1B49543  38.933  38.683   6.124
 3868POPC   C2B49544  39.133  38.750   6.499
 3868POPC   C3B49545  38.955  38.694   6.853
 3868POPC   C4B49546  39.081  38.725   7.246
 3869POPC   NC349547  23.531  14.921   5.615
 3869POPC   PO449548  23.879  15.608   5.514
 3869POPC   GL149549  23.766  15.318   5.849
 3869POPC   GL249550  23.956  14.985   5.914
 3869POPC   C1A49551  23.845  15.346   6.306
 3869POPC   D2A49552  23.631  15.340   6.711
 3869POPC   C3A49553  23.886  15.306   7.080
 3869POPC   C4A49554  23.787  15.516   7.472
 3869POPC   C1B49555  23.587  14.921   6.240
 3869POPC   C2B49556  23.345  14.919   6.624
 3869POPC   C3B49557  23.519  14.909   7.057
 3869POPC   C4B49558  23.395  15.043   7.474
 3870POPC   NC349559  40.914  16.402   5.313
 3870POPC   PO449560  40.896  17.015   5.481
 3870POPC   GL149561  40.684  16.839   5.858
 3870POPC   GL249562  40.726  16.479   5.792
 3870POPC   C1A49563  40.742  16.773   6.337
 3870POPC   D2A49564  40.582  16.817   6.777
 3870POPC   C3A49565  40.922  16.960   7.062
 3870POPC   C4A49566  41.069  16.727   7.424
 3870POPC   C1B49567  40.503  16.332   6.157
 3870POPC   C2B49568  40.370  16.391   6.576
 3870POPC   C3B49569  40.390  16.382   7.013
 3870POPC   C4B49570  40.435  15.998   7.221
 3871POPC   NC349571  35.466   1.815   5.435
 3871POPC   PO449572  35.005   2.291   5.368
 3871POPC   GL149573  35.189   2.101   5.792
 3871POPC   GL249574  35.319   1.747   5.918
 3871POPC   C1A49575  35.288   2.128   6.248
 3871POPC   D2A49576  35.278   2.105   6.684
 3871POPC   C3A49577  35.211   1.938   7.072
 3871POPC   C4A49578  35.195   2.312   7.363
 3871POPC   C1B49579  35.652   1.738   6.249
 3871POPC   C2B49580  35.584   1.675   6.678
 3871POPC   C3B49581  35.671   1.580   7.079
 3871POPC   C4B49582  35.513   1.714   7.449
 3872POPC   NC349583  18.675   8.352   5.382
 3872POPC   PO449584  19.284   8.076   5.313
 3872POPC   GL149585  19.254   8.019   5.788
 3872POPC   GL249586  19.195   8.369   5.820
 3872POPC   C1A49587  19.043   7.905   6.238
 3872POPC   D2A49588  18.994   8.225   6.625
 3872POPC   C3A49589  18.963   8.303   7.118
 3872POPC   C4A49590  18.880   8.142   7.554
 3872POPC   C1B49591  19.348   8.309   6.234
 3872POPC   C2B49592  19.442   7.996   6.554
 3872POPC   C3B49593  19.423   8.175   6.940
 3872POPC   C4B49594  19.618   8.078   7.319
 3873POPC   NC349595  20.235  30.430   5.577
 3873POPC   PO449596  20.906  30.442   5.504
 3873POPC   GL149597  20.818  30.654   5.870
 3873POPC   GL249598  20.467  30.694   5.950
 3873POPC   C1A49599  20.804  30.988   6.175
 3873POPC   D2A49600  20.679  30.727   6.495
 3873POPC   C3A49601  20.941  30.697   6.807
 3873POPC   C4A49602  20.794  30.662   7.199
 3873POPC   C1B49603  20.207  30.624   6.307
 3873POPC   C2B49604  20.225  30.731   6.754
 3873POPC   C3B49605  20.265  30.626   7.185
 3873POPC   C4B49606  20.438  30.846   7.533
 3874POPC   NC349607  18.092   1.593   5.551
 3874POPC   PO449608  18.033   2.251   5.433
 3874POPC   GL149609  18.286   2.115   5.834
 3874POPC   GL249610  18.315   1.745   5.965
 3874POPC   C1A49611  18.411   2.098   6.303
 3874POPC   D2A49612  18.246   1.794   6.609
 3874POPC   C3A49613  18.327   1.940   7.010
 3874POPC   C4A49614  18.381   2.387   7.083
 3874POPC   C1B49615  17.922   1.749   6.207
 3874POPC   C2B49616  17.786   1.547   6.584
 3874POPC   C3B49617  17.855   1.704   6.977
 3874POPC   C4B49618  18.028   1.623   7.370
 3875POPC   NC349619  21.103  19.135   5.182
 3875POPC   PO449620  21.562  19.005   5.674
 3875POPC   GL149621  21.266  19.300   5.736
 3875POPC   GL249622  20.984  19.191   5.984
 3875POPC   C1A49623  21.378  19.498   6.113
 3875POPC   D2A49624  21.384  19.458   6.568
 3875POPC   C3A49625  21.249  19.341   6.939
 3875POPC   C4A49626  21.350  19.418   7.328
 3875POPC   C1B49627  21.253  19.025   6.322
 3875POPC   C2B49628  21.533  18.982   6.699
 3875POPC   C3B49629  21.474  18.898   7.125
 3875POPC   C4B49630  21.072  18.927   7.182
 3876POPC   NC349631  36.730  30.163   5.448
 3876POPC   PO449632  36.825  30.767   5.259
 3876POPC   GL149633  36.851  30.823   5.783
 3876POPC   GL249634  37.198  30.790   5.965
 3876POPC   C1A49635  36.794  30.882   6.264
 3876POPC   D2A49636  36.779  30.662   6.682
 3876POPC   C3A49637  37.005  30.805   7.065
 3876POPC   C4A49638  37.127  31.060   7.430
 3876POPC   C1B49639  37.157  30.508   6.307
 3876POPC   C2B49640  37.408  30.497   6.681
 3876POPC   C3B49641  37.311  30.392   7.059
 3876POPC   C4B49642  36.893  30.316   7.161
 3877POPC   NC349643  34.226  35.661   5.694
 3877POPC   PO449644  33.701  35.355   5.276
 3877POPC   GL149645  33.854  35.267   5.749
 3877POPC   GL249646  34.067  34.955   5.804
 3877POPC   C1A49647  33.710  35.484   6.158
 3877POPC   D2A49648  33.473  35.672   6.511
 3877POPC   C3A49649  33.661  35.601   6.926
 3877POPC   C4A49650  33.927  35.621   7.302
 3877POPC   C1B49651  33.950  35.053   6.251
 3877POPC   C2B49652  33.787  35.177   6.663
 3877POPC   C3B49653  33.922  35.158   7.109
 3877POPC   C4B49654  34.095  34.964   7.554
 3878POPC   NC349655  13.229  24.404   5.447
 3878POPC   PO449656  12.719  24.797   5.205
 3878POPC   GL149657  12.758  24.679   5.686
 3878POPC   GL249658  12.820  24.306   5.757
 3878POPC   C1A49659  12.957  24.595   6.136
 3878POPC   D2A49660  13.088  24.355   6.526
 3878POPC   C3A49661  12.775  24.374   6.852
 3878POPC   C4A49662  12.813  24.675   7.147
 3878POPC   C1B49663  12.789  24.081   6.196
 3878POPC   C2B49664  12.852  23.900   6.629
 3878POPC   C3B49665  13.116  24.008   7.002
 3878POPC   C4B49666  12.902  24.213   7.354
 3879POPC   NC349667  38.113   8.790   5.600
 3879POPC   PO449668  38.382   9.405   5.416
 3879POPC   GL149669  38.469   9.136   5.802
 3879POPC   GL249670  38.816   9.007   5.814
 3879POPC   C1A49671  38.560   9.035   6.271
 3879POPC   D2A49672  38.580   8.737   6.655
 3879POPC   C3A49673  38.366   8.775   7.059
 3879POPC   C4A49674  38.153   8.815   7.459
 3879POPC   C1B49675  38.919   8.696   6.184
 3879POPC   C2B49676  39.049   8.564   6.628
 3879POPC   C3B49677  39.281   8.706   7.006
 3879POPC   C4B49678  39.212   8.868   7.433
 3880POPC   NC349679   9.972  34.910   5.419
 3880POPC   PO449680   9.890  35.598   5.465
 3880POPC   GL149681   9.741  35.552   5.855
 3880POPC   GL249682   9.706  35.166   5.834
 3880POPC   C1A49683   9.634  35.442   6.263
 3880POPC   D2A49684   9.818  35.279   6.612
 3880POPC   C3A49685   9.631  35.465   6.945
 3880POPC   C4A49686   9.412  35.458   7.302
 3880POPC   C1B49687  10.018  35.035   6.150
 3880POPC   C2B49688  10.292  35.093   6.479
 3880POPC   C3B49689  10.186  35.014   6.872
 3880POPC   C4B49690   9.850  35.022   7.132
 3881POPC   NC349691  41.489  34.122   5.339
 3881POPC   PO449692  41.297  33.511   5.510
 3881POPC   GL149693  41.550  33.705   5.852
 3881POPC   GL249694  41.549  34.090   5.846
 3881POPC   C1A49695  41.559  33.733   6.325
 3881POPC   D2A49696  41.841  33.710   6.696
 3881POPC   C3A49697  41.635  33.806   7.119
 3881POPC   C4A49698  41.268  33.873   7.411
 3881POPC   C1B49699  41.734  34.247   6.218
 3881POPC   C2B49700  41.705  34.205   6.650
 3881POPC   C3B49701  41.890  34.261   7.034
 3881POPC   C4B49702  41.560  34.288   7.327
 3882POPC   NC349703  36.977  44.252   5.610
 3882POPC   PO449704  36.614  44.832   5.483
 3882POPC   GL149705  36.789  44.709   5.867
 3882POPC   GL249706  36.705  44.396   6.025
 3882POPC   C1A49707  36.942  44.945   6.248
 3882POPC   D2A49708  36.984  44.868   6.694
 3882POPC   C3A49709  36.622  44.647   6.880
 3882POPC   C4A49710  36.622  44.619   7.312
 3882POPC   C1B49711  37.115  44.467   6.231
 3882POPC   C2B49712  37.312  44.463   6.651
 3882POPC   C3B49713  37.070  44.453   7.031
 3882POPC   C4B49714  37.047  44.360   7.450
 3883POPC   NC349715  34.773  22.437   5.524
 3883POPC   PO449716  34.407  21.977   5.560
 3883POPC   GL149717  34.516  22.187   5.916
 3883POPC   GL249718  34.304  22.442   5.928
 3883POPC   C1A49719  34.792  22.349   6.241
 3883POPC   D2A49720  34.716  22.451   6.679
 3883POPC   C3A49721  34.547  22.076   6.848
 3883POPC   C4A49722  34.606  21.905   7.239
 3883POPC   C1B49723  34.242  22.305   6.356
 3883POPC   C2B49724  34.206  22.452   6.775
 3883POPC   C3B49725  34.326  22.365   7.216
 3883POPC   C4B49726  34.214  22.375   7.683
 3884POPC   NC349727  32.491  32.492   5.641
 3884POPC   PO449728  32.009  32.179   5.253
 3884POPC   GL149729  32.051  32.091   5.741
 3884POPC   GL249730  32.379  32.078   5.909
 3884POPC   C1A49731  32.031  32.279   6.204
 3884POPC   D2A49732  32.254  32.447   6.566
 3884POPC   C3A49733  32.005  32.509   6.907
 3884POPC   C4A49734  32.026  32.200   7.232
 3884POPC   C1B49735  32.570  32.109   6.308
 3884POPC   C2B49736  32.567  32.051   6.743
 3884POPC   C3B49737  32.533  32.134   7.194
 3884POPC   C4B49738  32.434  31.977   7.627
 3885POPC   NC349739  35.259  11.793   5.370
 3885POPC   PO449740  35.600  12.323   5.235
 3885POPC   GL149741  35.478  12.265   5.697
 3885POPC   GL249742  35.135  12.121   5.796
 3885POPC   C1A49743  35.474  12.403   6.139
 3885POPC   D2A49744  35.345  12.167   6.491
 3885POPC   C3A49745  35.574  12.222   6.856
 3885POPC   C4A49746  35.418  12.246   7.269
 3885POPC   C1B49747  35.025  11.867   6.171
 3885POPC   C2B49748  35.144  11.694   6.581
 3885POPC   C3B49749  35.307  11.811   6.962
 3885POPC   C4B49750  35.147  11.836   7.354
 3886POPC   NC349751  11.636  38.536   5.387
 3886POPC   PO449752  11.012  38.784   5.452
 3886POPC   GL149753  11.279  38.561   5.757
 3886POPC   GL249754  11.047  38.394   5.916
 3886POPC   C1A49755  11.561  38.563   6.127
 3886POPC   D2A49756  11.572  38.293   6.496
 3886POPC   C3A49757  11.537  38.556   6.847
 3886POPC   C4A49758  11.351  38.469   7.215
 3886POPC   C1B49759  11.108  38.454   6.322
 3886POPC   C2B49760  11.051  38.656   6.651
 3886POPC   C3B49761  10.915  38.498   6.976
 3886POPC   C4B49762  10.847  38.532   7.347
 3887POPC   NC349763  26.021  28.664   5.394
 3887POPC   PO449764  26.130  28.032   5.233
 3887POPC   GL149765  26.124  28.193   5.704
 3887POPC   GL249766  26.135  28.548   5.872
 3887POPC   C1A49767  25.984  28.180   6.156
 3887POPC   D2A49768  26.039  28.465   6.485
 3887POPC   C3A49769  25.697  28.502   6.791
 3887POPC   C4A49770  25.835  28.315   7.165
 3887POPC   C1B49771  26.450  28.590   6.194
 3887POPC   C2B49772  26.575  28.489   6.616
 3887POPC   C3B49773  26.300  28.518   6.959
 3887POPC   C4B49774  26.323  28.702   7.346
 3888POPC   NC349775  42.929  34.657   5.470
 3888POPC   PO449776  43.495  34.341   5.465
 3888POPC   GL149777  43.405  34.556   5.844
 3888POPC   GL249778  43.225  34.848   5.826
 3888POPC   C1A49779  43.381  34.557   6.267
 3888POPC   D2A49780  43.084  34.398   6.539
 3888POPC   C3A49781  43.269  34.530   6.916
 3888POPC   C4A49782  43.221  34.389   7.305
 3888POPC   C1B49783  42.965  34.828   6.185
 3888POPC   C2B49784  43.092  34.898   6.595
 3888POPC   C3B49785  42.851  34.970   6.947
 3888POPC   C4B49786  43.012  34.852   7.294
 3889POPC   NC349787  43.163  32.140   5.277
 3889POPC   PO449788  43.003  32.744   5.551
 3889POPC   GL149789  43.114  32.373   5.819
 3889POPC   GL249790  43.194  32.001   5.758
 3889POPC   C1A49791  43.029  32.368   6.256
 3889POPC   D2A49792  42.902  32.316   6.676
 3889POPC   C3A49793  43.262  32.446   6.855
 3889POPC   C4A49794  43.251  32.593   7.244
 3889POPC   C1B49795  43.154  31.875   6.169
 3889POPC   C2B49796  43.313  31.958   6.570
 3889POPC   C3B49797  43.260  31.816   6.965
 3889POPC   C4B49798  43.022  32.104   7.175
 3890POPC   NC349799   7.384  12.818   5.410
 3890POPC   PO449800   7.891  13.250   5.579
 3890POPC   GL149801   7.501  13.074   5.840
 3890POPC   GL249802   7.446  12.663   5.886
 3890POPC   C1A49803   7.392  12.950   6.268
 3890POPC   D2A49804   7.326  12.660   6.579
 3890POPC   C3A49805   7.590  12.896   6.805
 3890POPC   C4A49806   7.383  12.968   7.170
 3890POPC   C1B49807   7.624  12.410   6.229
 3890POPC   C2B49808   7.735  12.293   6.670
 3890POPC   C3B49809   7.626  12.463   7.075
 3890POPC   C4B49810   7.186  12.494   7.199
 3891POPC   NC349811  11.150  25.646   5.383
 3891POPC   PO449812  11.673  26.163   5.474
 3891POPC   GL149813  11.389  26.168   5.850
 3891POPC   GL249814  11.094  25.926   5.824
 3891POPC   C1A49815  11.272  26.052   6.292
 3891POPC   D2A49816  11.128  25.970   6.702
 3891POPC   C3A49817  11.489  26.085   6.960
 3891POPC   C4A49818  11.566  26.250   7.369
 3891POPC   C1B49819  10.806  26.177   6.125
 3891POPC   C2B49820  10.840  26.411   6.535
 3891POPC   C3B49821  10.878  26.339   6.987
 3891POPC   C4B49822  10.841  26.036   7.352
 3892POPC   NC349823  32.045  20.351   5.412
 3892POPC   PO449824  32.562  20.778   5.393
 3892POPC   GL149825  32.390  20.525   5.796
 3892POPC   GL249826  32.045  20.630   5.877
 3892POPC   C1A49827  32.314  20.547   6.300
 3892POPC   D2A49828  32.146  20.872   6.593
 3892POPC   C3A49829  32.062  20.881   7.025
 3892POPC   C4A49830  32.253  20.675   7.383
 3892POPC   C1B49831  31.805  20.655   6.276
 3892POPC   C2B49832  31.806  20.443   6.691
 3892POPC   C3B49833  32.163  20.376   6.970
 3892POPC   C4B49834  32.182  20.164   7.407
 3893POPC   NC349835  23.208   5.987   5.390
 3893POPC   PO449836  22.734   5.570   5.328
 3893POPC   GL149837  22.987   5.655   5.741
 3893POPC   GL249838  23.171   5.966   5.900
 3893POPC   C1A49839  22.754   5.791   6.132
 3893POPC   D2A49840  22.799   5.671   6.571
 3893POPC   C3A49841  22.808   5.881   6.974
 3893POPC   C4A49842  23.005   5.676   7.300
 3893POPC   C1B49843  23.240   5.784   6.328
 3893POPC   C2B49844  23.268   5.736   6.795
 3893POPC   C3B49845  23.353   6.010   7.121
 3893POPC   C4B49846  23.639   6.062   7.443
 3894POPC   NC349847  29.291  23.366   5.525
 3894POPC   PO449848  28.816  23.852   5.436
 3894POPC   GL149849  29.034  23.747   5.779
 3894POPC   GL249850  28.940  23.429   5.871
 3894POPC   C1A49851  29.235  23.917   6.132
 3894POPC   D2A49852  29.029  24.038   6.485
 3894POPC   C3A49853  29.230  24.043   6.858
 3894POPC   C4A49854  29.102  23.903   7.242
 3894POPC   C1B49855  28.720  23.429   6.241
 3894POPC   C2B49856  28.621  23.666   6.607
 3894POPC   C3B49857  28.707  23.626   7.033
 3894POPC   C4B49858  28.949  23.448   7.366
 3895POPC   NC349859  31.045  17.132   5.397
 3895POPC   PO449860  31.507  17.497   5.363
 3895POPC   GL149861  31.593  17.515   5.789
 3895POPC   GL249862  31.760  17.189   5.861
 3895POPC   C1A49863  31.700  17.591   6.225
 3895POPC   D2A49864  31.814  17.744   6.625
 3895POPC   C3A49865  31.486  17.709   6.904
 3895POPC   C4A49866  31.177  17.832   7.167
 3895POPC   C1B49867  31.898  17.120   6.303
 3895POPC   C2B49868  31.642  17.252   6.669
 3895POPC   C3B49869  31.584  17.225   7.107
 3895POPC   C4B49870  31.638  17.153   7.536
 3896POPC   NC349871  38.995  24.522   5.374
 3896POPC   PO449872  39.537  24.866   5.329
 3896POPC   GL149873  39.522  24.569   5.715
 3896POPC   GL249874  39.158  24.490   5.845
 3896POPC   C1A49875  39.481  24.709   6.168
 3896POPC   D2A49876  39.185  24.736   6.506
 3896POPC   C3A49877  39.376  24.703   6.899
 3896POPC   C4A49878  39.252  24.620   7.298
 3896POPC   C1B49879  39.190  24.266   6.235
 3896POPC   C2B49880  38.990  24.224   6.623
 3896POPC   C3B49881  39.044  24.187   7.060
 3896POPC   C4B49882  39.410  24.149   7.306
 3897POPC   NC349883   3.629  22.746   5.324
 3897POPC   PO449884   3.029  22.654   5.596
 3897POPC   GL149885   3.402  22.840   5.775
 3897POPC   GL249886   3.724  22.650   5.814
 3897POPC   C1A49887   3.523  23.065   6.126
 3897POPC   D2A49888   3.392  22.966   6.528
 3897POPC   C3A49889   3.623  23.079   6.879
 3897POPC   C4A49890   3.354  23.228   7.178
 3897POPC   C1B49891   3.580  22.533   6.216
 3897POPC   C2B49892   3.677  22.550   6.652
 3897POPC   C3B49893   3.443  22.618   7.033
 3897POPC   C4B49894   3.684  22.845   7.336
 3898POPC   NC349895   5.430  26.230   5.546
 3898POPC   PO449896   4.894  25.834   5.440
 3898POPC   GL149897   5.048  25.833   5.859
 3898POPC   GL249898   5.382  25.739   5.818
 3898POPC   C1A49899   5.134  26.170   6.179
 3898POPC   D2A49900   5.329  26.179   6.616
 3898POPC   C3A49901   5.020  25.986   6.885
 3898POPC   C4A49902   4.763  26.178   7.142
 3898POPC   C1B49903   5.443  25.791   6.262
 3898POPC   C2B49904   5.342  25.650   6.655
 3898POPC   C3B49905   5.486  25.829   7.022
 3898POPC   C4B49906   5.428  26.216   7.195
 3899POPC   NC349907   6.773  32.851   5.537
 3899POPC   PO449908   7.036  33.384   5.401
 3899POPC   GL149909   6.688  33.359   5.703
 3899POPC   GL249910   6.379  33.111   5.767
 3899POPC   C1A49911   6.748  33.217   6.118
 3899POPC   D2A49912   6.800  33.027   6.531
 3899POPC   C3A49913   6.771  33.271   6.898
 3899POPC   C4A49914   6.838  33.109   7.314
 3899POPC   C1B49915   6.418  32.824   6.159
 3899POPC   C2B49916   6.458  32.649   6.591
 3899POPC   C3B49917   6.534  32.824   6.968
 3899POPC   C4B49918   6.460  32.758   7.349
 3900POPC   NC349919  37.124   2.765   5.477
 3900POPC   PO449920  36.449   2.595   5.702
 3900POPC   GL149921  36.850   2.634   5.891
 3900POPC   GL249922  36.830   2.985   5.899
 3900POPC   C1A49923  37.248   2.750   6.123
 3900POPC   D2A49924  37.293   2.924   6.532
 3900POPC   C3A49925  36.982   2.734   6.801
 3900POPC   C4A49926  37.007   2.654   7.225
 3900POPC   C1B49927  36.816   2.981   6.335
 3900POPC   C2B49928  36.716   3.166   6.717
 3900POPC   C3B49929  36.629   3.010   7.130
 3900POPC   C4B49930  36.508   2.615   7.280
 3901POPC   NC349931  19.332  40.649   5.460
 3901POPC   PO449932  18.660  40.982   5.489
 3901POPC   GL149933  18.964  40.789   5.837
 3901POPC   GL249934  19.181  40.510   5.938
 3901POPC   C1A49935  19.170  40.926   6.222
 3901POPC   D2A49936  19.050  40.759   6.609
 3901POPC   C3A49937  19.219  40.892   6.987
 3901POPC   C4A49938  18.996  41.110   7.276
 3901POPC   C1B49939  18.829  40.435   6.257
 3901POPC   C2B49940  18.753  40.349   6.726
 3901POPC   C3B49941  18.930  40.445   7.137
 3901POPC   C4B49942  19.172  40.208   7.447
 3902POPC   NC349943   7.528   3.574   5.308
 3902POPC   PO449944   7.003   3.975   5.429
 3902POPC   GL149945   7.331   3.779   5.735
 3902POPC   GL249946   7.346   3.419   5.759
 3902POPC   C1A49947   7.525   3.629   6.180
 3902POPC   D2A49948   7.622   3.625   6.651
 3902POPC   C3A49949   7.419   3.905   6.993
 3902POPC   C4A49950   7.520   3.823   7.444
 3902POPC   C1B49951   7.153   3.283   6.151
 3902POPC   C2B49952   7.288   3.095   6.535
 3902POPC   C3B49953   7.600   3.136   6.854
 3902POPC   C4B49954   7.500   3.427   7.152
 3903POPC   NC349955  42.152  44.008   5.389
 3903POPC   PO449956  42.734  43.735   5.367
 3903POPC   GL149957  42.478  43.786   5.783
 3903POPC   GL249958  42.132  43.951   5.891
 3903POPC   C1A49959  42.441  43.732   6.243
 3903POPC   D2A49960  42.729  43.768   6.592
 3903POPC   C3A49961  42.534  43.651   6.964
 3903POPC   C4A49962  42.514  43.734   7.380
 3903POPC   C1B49963  41.925  43.945   6.293
 3903POPC   C2B49964  41.979  43.633   6.608
 3903POPC   C3B49965  42.030  43.677   7.070
 3903POPC   C4B49966  42.053  43.935   7.467
 3904POPC   NC349967  35.144  42.667   5.422
 3904POPC   PO449968  35.270  41.995   5.343
 3904POPC   GL149969  35.187  42.236   5.727
 3904POPC   GL249970  34.839  42.337   5.684
 3904POPC   C1A49971  35.397  42.471   6.069
 3904POPC   D2A49972  35.506  42.346   6.476
 3904POPC   C3A49973  35.451  42.570   6.879
 3904POPC   C4A49974  35.482  42.320   7.230
 3904POPC   C1B49975  34.890  42.533   6.085
 3904POPC   C2B49976  34.992  42.327   6.473
 3904POPC   C3B49977  35.091  42.186   6.896
 3904POPC   C4B49978  34.964  42.262   7.309
 3905POPC   NC349979  11.413  14.730   5.233
 3905POPC   PO449980  11.085  15.200   5.453
 3905POPC   GL149981  11.376  15.180   5.788
 3905POPC   GL249982  11.574  14.865   5.825
 3905POPC   C1A49983  11.181  15.145   6.210
 3905POPC   D2A49984  11.077  15.446   6.540
 3905POPC   C3A49985  11.210  15.543   6.971
 3905POPC   C4A49986  11.011  15.411   7.348
 3905POPC   C1B49987  11.687  15.098   6.205
 3905POPC   C2B49988  11.467  15.099   6.633
 3905POPC   C3B49989  11.168  15.048   6.984
 3905POPC   C4B49990  11.514  15.166   7.244
 3906POPC   NC349991   6.064  22.296   5.533
 3906POPC   PO449992   5.881  21.768   5.246
 3906POPC   GL149993   5.840  21.901   5.743
 3906POPC   GL249994   5.564  21.724   5.804
 3906POPC   C1A49995   6.009  22.160   6.165
 3906POPC   D2A49996   6.264  22.397   6.523
 3906POPC   C3A49997   6.100  22.395   6.930
 3906POPC   C4A49998   6.023  22.077   7.199
 3906POPC   C1B49999   5.547  21.946   6.182
 3906POPC   C2B50000   5.736  22.018   6.586
 3906POPC   C3B50001   5.687  21.748   6.934
 3906POPC   C4B50002   5.534  21.840   7.331
 3907POPC   NC350003   5.499  17.882   5.439
 3907POPC   PO450004   4.863  18.164   5.494
 3907POPC   GL150005   4.925  18.204   5.884
 3907POPC   GL250006   5.291  18.164   5.820
 3907POPC   C1A50007   5.136  18.294   6.270
 3907POPC   D2A50008   5.430  18.331   6.587
 3907POPC   C3A50009   5.117  18.316   6.838
 3907POPC   C4A50010   4.891  18.039   7.078
 3907POPC   C1B50011   5.516  17.941   6.158
 3907POPC   C2B50012   5.570  17.850   6.614
 3907POPC   C3B50013   5.476  18.024   7.029
 3907POPC   C4B50014   5.279  17.806   7.343
 3908POPC   NC350015  32.631  11.814   4.988
 3908POPC   PO450016  33.175  12.072   5.306
 3908POPC   GL150017  32.918  12.091   5.699
 3908POPC   GL250018  32.758  12.418   5.692
 3908POPC   C1A50019  33.023  11.988   6.142
 3908POPC   D2A50020  32.976  11.868   6.583
 3908POPC   C3A50021  33.248  11.900   6.971
 3908POPC   C4A50022  33.201  12.064   7.386
 3908POPC   C1B50023  32.825  12.468   6.145
 3908POPC   C2B50024  32.956  12.429   6.591
 3908POPC   C3B50025  32.793  12.541   7.010
 3908POPC   C4B50026  33.014  12.545   7.367
 3909POPC   NC350027  15.117  15.593   5.479
 3909POPC   PO450028  15.427  16.220   5.328
 3909POPC   GL150029  15.350  15.980   5.721
 3909POPC   GL250030  14.993  15.943   5.843
 3909POPC   C1A50031  15.392  15.959   6.193
 3909POPC   D2A50032  15.098  16.033   6.571
 3909POPC   C3A50033  15.155  15.983   7.043
 3909POPC   C4A50034  14.910  16.243   7.358
 3909POPC   C1B50035  14.991  15.577   6.139
 3909POPC   C2B50036  14.803  15.410   6.497
 3909POPC   C3B50037  14.943  15.509   6.887
 3909POPC   C4B50038  14.928  15.352   7.312
 3910POPC   NC350039   5.108   6.408   5.400
 3910POPC   PO450040   5.216   7.048   5.436
 3910POPC   GL150041   5.004   6.807   5.781
 3910POPC   GL250042   4.881   6.451   5.846
 3910POPC   C1A50043   5.082   6.776   6.218
 3910POPC   D2A50044   4.985   6.915   6.640
 3910POPC   C3A50045   4.986   6.587   6.941
 3910POPC   C4A50046   5.077   6.652   7.361
 3910POPC   C1B50047   4.751   6.317   6.230
 3910POPC   C2B50048   4.464   6.309   6.569
 3910POPC   C3B50049   4.516   6.103   6.968
 3910POPC   C4B50050   4.881   6.144   7.223
 3911POPC   NC350051  26.958  31.439   5.282
 3911POPC   PO450052  26.398  31.250   5.366
 3911POPC   GL150053  26.603  31.552   5.682
 3911POPC   GL250054  26.747  31.253   5.818
 3911POPC   C1A50055  26.817  31.703   6.101
 3911POPC   D2A50056  26.823  31.482   6.522
 3911POPC   C3A50057  26.694  31.627   6.929
 3911POPC   C4A50058  26.782  31.561   7.367
 3911POPC   C1B50059  27.055  31.170   6.175
 3911POPC   C2B50060  27.021  30.997   6.618
 3911POPC   C3B50061  26.828  31.123   7.013
 3911POPC   C4B50062  26.983  31.093   7.417
 3912POPC   NC350063   2.414  43.354   5.245
 3912POPC   PO450064   1.897  43.059   5.444
 3912POPC   GL150065   2.072  43.214   5.829
 3912POPC   GL250066   2.402  43.401   5.799
 3912POPC   C1A50067   1.870  43.117   6.238
 3912POPC   D2A50068   1.759  42.868   6.622
 3912POPC   C3A50069   1.838  43.051   7.043
 3912POPC   C4A50070   1.972  43.032   7.506
 3912POPC   C1B50071   2.359  43.262   6.253
 3912POPC   C2B50072   2.161  43.259   6.667
 3912POPC   C3B50073   2.305  43.300   7.101
 3912POPC   C4B50074   2.324  43.411   7.547
 3913POPC   NC350075  28.160  30.951   5.493
 3913POPC   PO450076  28.605  30.407   5.505
 3913POPC   GL150077  28.430  30.666   5.853
 3913POPC   GL250078  28.426  31.029   5.919
 3913POPC   C1A50079  28.290  30.589   6.271
 3913POPC   D2A50080  28.405  30.650   6.704
 3913POPC   C3A50081  28.091  30.550   6.993
 3913POPC   C4A50082  28.320  30.657   7.313
 3913POPC   C1B50083  28.035  31.004   6.164
 3913POPC   C2B50084  27.993  30.917   6.603
 3913POPC   C3B50085  28.124  31.054   7.024
 3913POPC   C4B50086  27.942  30.960   7.444
 3914POPC   NC350087  19.389  44.640   5.359
 3914POPC   PO450088  18.771  44.609   5.327
 3914POPC   GL150089  18.995  44.801   5.693
 3914POPC   GL250090  18.757   0.103   5.750
 3914POPC   C1A50091  19.239  44.660   6.107
 3914POPC   D2A50092  19.335  44.656   6.574
 3914POPC   C3A50093  19.062  44.475   6.878
 3914POPC   C4A50094  19.170  44.631   7.267
 3914POPC   C1B50095  18.912   0.047   6.156
 3914POPC   C2B50096  18.848  44.828   6.513
 3914POPC   C3B50097  18.898  44.966   6.913
 3914POPC   C4B50098  18.962   0.075   7.356
 3915POPC   NC350099  19.071   6.797   5.460
 3915POPC   PO450100  19.251   6.247   5.191
 3915POPC   GL150101  19.306   6.418   5.709
 3915POPC   GL250102  18.960   6.528   5.904
 3915POPC   C1A50103  19.347   6.474   6.186
 3915POPC   D2A50104  19.040   6.522   6.549
 3915POPC   C3A50105  19.218   6.642   6.941
 3915POPC   C4A50106  19.356   6.481   7.327
 3915POPC   C1B50107  18.755   6.812   6.211
 3915POPC   C2B50108  18.502   6.741   6.572
 3915POPC   C3B50109  18.697   6.565   6.933
 3915POPC   C4B50110  18.873   6.607   7.352
 3916POPC   NC350111  39.156   4.493   5.272
 3916POPC   PO450112  39.524   3.879   5.374
 3916POPC   GL150113  39.267   4.062   5.722
 3916POPC   GL250114  39.231   4.392   5.795
 3916POPC   C1A50115  39.063   3.931   6.098
 3916POPC   D2A50116  39.283   3.903   6.496
 3916POPC   C3A50117  39.130   4.066   6.856
 3916POPC   C4A50118  39.256   4.403   7.107
 3916POPC   C1B50119  39.297   4.362   6.251
 3916POPC   C2B50120  39.097   4.515   6.619
 3916POPC   C3B50121  39.106   4.843   6.928
 3916POPC   C4B50122  39.371   4.895   7.321
 3917POPC   NC350123  15.388  42.518   5.303
 3917POPC   PO450124  15.039  42.103   5.062
 3917POPC   GL150125  15.037  42.316   5.600
 3917POPC   GL250126  15.376  42.426   5.798
 3917POPC   C1A50127  14.994  42.415   6.112
 3917POPC   D2A50128  14.971  42.250   6.565
 3917POPC   C3A50129  15.075  42.485   6.964
 3917POPC   C4A50130  15.026  42.344   7.409
 3917POPC   C1B50131  15.583  42.548   6.216
 3917POPC   C2B50132  15.735  42.683   6.610
 3917POPC   C3B50133  15.707  42.457   7.002
 3917POPC   C4B50134  15.494  42.500   7.360
 3918POPC   NC350135  23.438  15.742   5.588
 3918POPC   PO450136  22.819  15.776   5.520
 3918POPC   GL150137  22.815  15.744   5.950
 3918POPC   GL250138  23.098  15.943   5.937
 3918POPC   C1A50139  22.680  16.030   6.301
 3918POPC   D2A50140  22.586  16.338   6.666
 3918POPC   C3A50141  22.498  16.077   7.031
 3918POPC   C4A50142  22.774  15.659   7.167
 3918POPC   C1B50143  23.194  15.811   6.352
 3918POPC   C2B50144  23.377  16.020   6.718
 3918POPC   C3B50145  23.235  15.980   7.158
 3918POPC   C4B50146  23.316  15.975   7.597
 3919POPC   NC350147  28.618  17.358   5.083
 3919POPC   PO450148  28.748  17.538   5.694
 3919POPC   GL150149  28.331  17.539   5.945
 3919POPC   GL250150  27.966  17.381   5.871
 3919POPC   C1A50151  28.206  17.520   6.360
 3919POPC   D2A50152  28.484  17.548   6.697
 3919POPC   C3A50153  28.276  17.594   7.065
 3919POPC   C4A50154  28.551  17.374   7.342
 3919POPC   C1B50155  27.940  17.106   6.255
 3919POPC   C2B50156  27.989  17.192   6.720
 3919POPC   C3B50157  28.110  17.125   7.153
 3919POPC   C4B50158  28.085  17.311   7.569
 3920POPC   NC350159   8.307  17.716   5.408
 3920POPC   PO450160   8.289  18.479   5.445
 3920POPC   GL150161   8.150  18.340   5.853
 3920POPC   GL250162   8.300  18.048   5.828
 3920POPC   C1A50163   7.922  18.270   6.260
 3920POPC   D2A50164   7.750  18.300   6.642
 3920POPC   C3A50165   7.825  18.106   6.999
 3920POPC   C4A50166   8.082  18.263   7.314
 3920POPC   C1B50167   8.415  18.203   6.258
 3920POPC   C2B50168   8.281  18.178   6.661
 3920POPC   C3B50169   8.500  18.176   7.042
 3920POPC   C4B50170   8.559  18.352   7.467
 3921POPC   NC350171  17.860   8.659   5.168
 3921POPC   PO450172  17.467   9.080   5.429
 3921POPC   GL150173  17.418   9.023   5.870
 3921POPC   GL250174  17.136   8.823   5.938
 3921POPC   C1A50175  17.605   9.188   6.260
 3921POPC   D2A50176  17.834   9.178   6.681
 3921POPC   C3A50177  17.865   9.464   7.012
 3921POPC   C4A50178  17.611   9.525   7.370
 3921POPC   C1B50179  17.092   9.071   6.307
 3921POPC   C2B50180  17.311   9.150   6.680
 3921POPC   C3B50181  17.488   9.100   7.065
 3921POPC   C4B50182  17.502   8.723   7.277
 3922POPC   NC350183  31.515  30.938   5.517
 3922POPC   PO450184  31.036  30.378   5.559
 3922POPC   GL150185  31.374  30.480   5.854
 3922POPC   GL250186  31.346  30.802   5.970
 3922POPC   C1A50187  31.563  30.441   6.256
 3922POPC   D2A50188  31.690  30.591   6.671
 3922POPC   C3A50189  31.375  30.732   6.966
 3922POPC   C4A50190  31.515  30.918   7.368
 3922POPC   C1B50191  31.527  30.949   6.318
 3922POPC   C2B50192  31.787  31.129   6.577
 3922POPC   C3B50193  31.780  31.070   6.972
 3922POPC   C4B50194  31.921  31.331   7.292
 3923POPC   NC350195   1.692   1.589   5.364
 3923POPC   PO450196   2.043   2.168   5.464
 3923POPC   GL150197   1.986   1.855   5.716
 3923POPC   GL250198   2.315   1.718   5.716
 3923POPC   C1A50199   1.800   1.983   6.102
 3923POPC   D2A50200   1.918   1.935   6.517
 3923POPC   C3A50201   1.807   2.260   6.808
 3923POPC   C4A50202   1.665   2.222   7.235
 3923POPC   C1B50203   2.329   1.945   6.103
 3923POPC   C2B50204   2.427   1.894   6.523
 3923POPC   C3B50205   2.267   1.987   6.908
 3923POPC   C4B50206   2.317   1.961   7.325
 3924POPC   NC350207  19.246  23.976   5.482
 3924POPC   PO450208  18.547  23.778   5.437
 3924POPC   GL150209  18.744  23.614   5.820
 3924POPC   GL250210  19.116  23.674   5.882
 3924POPC   C1A50211  18.766  23.813   6.240
 3924POPC   D2A50212  18.850  24.042   6.619
 3924POPC   C3A50213  18.813  23.863   6.997
 3924POPC   C4A50214  18.939  23.660   7.338
 3924POPC   C1B50215  19.263  23.939   6.227
 3924POPC   C2B50216  19.360  23.940   6.662
 3924POPC   C3B50217  19.319  24.064   7.098
 3924POPC   C4B50218  19.374  23.863   7.512
 3925POPC   NC350219  41.617  22.363   5.416
 3925POPC   PO450220  41.892  21.826   5.550
 3925POPC   GL150221  41.737  22.175   5.896
 3925POPC   GL250222  41.797  22.569   5.818
 3925POPC   C1A50223  41.470  22.129   6.296
 3925POPC   D2A50224  41.200  22.065   6.666
 3925POPC   C3A50225  41.456  22.163   7.013
 3925POPC   C4A50226  41.586  21.942   7.374
 3925POPC   C1B50227  42.002  22.573   6.174
 3925POPC   C2B50228  41.841  22.390   6.523
 3925POPC   C3B50229  41.935  22.470   6.902
 3925POPC   C4B50230  41.863  22.361   7.288
 3926POPC   NC350231  34.430  19.946   5.466
 3926POPC   PO450232  35.051  19.655   5.414
 3926POPC   GL150233  34.761  19.523   5.771
 3926POPC   GL250234  34.409  19.442   5.747
 3926POPC   C1A50235  34.815  19.482   6.225
 3926POPC   D2A50236  34.696  19.775   6.563
 3926POPC   C3A50237  34.842  19.740   6.987
 3926POPC   C4A50238  34.629  19.781   7.357
 3926POPC   C1B50239  34.416  19.761   6.092
 3926POPC   C2B50240  34.269  20.056   6.397
 3926POPC   C3B50241  34.175  20.019   6.805
 3926POPC   C4B50242  34.174  19.984   7.222
 3927POPC   NC350243  24.108  10.394   5.410
 3927POPC   PO450244  24.787  10.516   5.408
 3927POPC   GL150245  24.443  10.543   5.758
 3927POPC   GL250246  24.236  10.213   5.855
 3927POPC   C1A50247  24.353  10.526   6.221
 3927POPC   D2A50248  24.547  10.685   6.567
 3927POPC   C3A50249  24.399  10.481   6.898
 3927POPC   C4A50250  24.368  10.652   7.354
 3927POPC   C1B50251  24.657  10.167   6.052
 3927POPC   C2B50252  24.670  10.144   6.533
 3927POPC   C3B50253  24.761  10.115   6.993
 3927POPC   C4B50254  24.807  10.214   7.445
 3928POPC   NC350255  44.394   5.071   5.307
 3928POPC   PO450256  43.736   5.103   5.352
 3928POPC   GL150257  43.975   5.105   5.729
 3928POPC   GL250258  44.159   4.759   5.669
 3928POPC   C1A50259  43.864   5.207   6.185
 3928POPC   D2A50260  43.783   4.982   6.602
 3928POPC   C3A50261  43.601   5.208   6.936
 3928POPC   C4A50262  43.828   5.347   7.306
 3928POPC   C1B50263  44.169   4.800   6.127
 3928POPC   C2B50264  44.194   4.657   6.563
 3928POPC   C3B50265  44.161   4.821   6.988
 3928POPC   C4B50266  44.492   4.783   7.296
 3929POPC   NC350267  27.985  13.323   5.089
 3929POPC   PO450268  27.424  13.088   5.291
 3929POPC   GL150269  27.422  12.932   5.726
 3929POPC   GL250270  27.113  13.086   5.787
 3929POPC   C1A50271  27.550  12.866   6.206
 3929POPC   D2A50272  27.622  12.837   6.679
 3929POPC   C3A50273  27.348  12.584   6.932
 3929POPC   C4A50274  27.638  12.371   7.186
 3929POPC   C1B50275  27.211  13.255   6.219
 3929POPC   C2B50276  27.207  13.118   6.684
 3929POPC   C3B50277  27.416  13.080   7.119
 3929POPC   C4B50278  27.179  12.947   7.512
 3930POPC   NC350279  23.625  24.331   5.104
 3930POPC   PO450280  23.943  24.650   5.609
 3930POPC   GL150281  23.773  24.266   5.730
 3930POPC   GL250282  23.443  24.236   5.891
 3930POPC   C1A50283  23.857  24.250   6.177
 3930POPC   D2A50284  23.700  24.347   6.566
 3930POPC   C3A50285  24.025  24.551   6.786
 3930POPC   C4A50286  24.172  24.784   7.144
 3930POPC   C1B50287  23.524  24.635   6.159
 3930POPC   C2B50288  23.477  24.798   6.610
 3930POPC   C3B50289  23.576  24.630   7.016
 3930POPC   C4B50290  23.396  24.222   7.123
 3931POPC   NC350291  17.010   9.163   5.472
 3931POPC   PO450292  16.305   9.349   5.415
 3931POPC   GL150293  16.370   9.135   5.824
 3931POPC   GL250294  16.636   8.944   5.760
 3931POPC   C1A50295  16.587   9.168   6.228
 3931POPC   D2A50296  16.408   8.955   6.594
 3931POPC   C3A50297  16.608   8.910   6.968
 3931POPC   C4A50298  16.635   9.190   7.327
 3931POPC   C1B50299  16.674   8.633   6.086
 3931POPC   C2B50300  16.908   8.618   6.463
 3931POPC   C3B50301  17.124   8.684   6.843
 3931POPC   C4B50302  17.039   8.899   7.218
 3932POPC   NC350303  15.470   7.556   5.083
 3932POPC   PO450304  15.387   7.055   5.507
 3932POPC   GL150305  15.267   7.146   5.908
 3932POPC   GL250306  14.977   7.314   5.869
 3932POPC   C1A50307  15.358   7.517   6.177
 3932POPC   D2A50308  15.293   7.668   6.599
 3932POPC   C3A50309  15.110   7.458   6.911
 3932POPC   C4A50310  15.384   7.510   7.297
 3932POPC   C1B50311  14.847   7.612   6.207
 3932POPC   C2B50312  14.781   7.752   6.616
 3932POPC   C3B50313  14.622   7.646   7.014
 3932POPC   C4B50314  14.876   7.524   7.379
 3933POPC   NC350315  34.399  13.761   5.794
 3933POPC   PO450316  34.847  13.443   5.466
 3933POPC   GL150317  34.779  13.406   5.873
 3933POPC   GL250318  34.928  13.726   5.910
 3933POPC   C1A50319  34.681  13.489   6.331
 3933POPC   D2A50320  34.308  13.662   6.538
 3933POPC   C3A50321  34.272  13.472   6.922
 3933POPC   C4A50322  34.483  13.453   7.290
 3933POPC   C1B50323  34.935  14.011   6.218
 3933POPC   C2B50324  34.727  13.951   6.573
 3933POPC   C3B50325  34.673  13.812   6.972
 3933POPC   C4B50326  35.045  13.921   7.184
 3934POPC   NC350327  40.849  26.196   5.424
 3934POPC   PO450328  40.750  25.584   5.147
 3934POPC   GL150329  40.491  25.849   5.617
 3934POPC   GL250330  40.680  26.116   5.869
 3934POPC   C1A50331  40.411  25.856   6.165
 3934POPC   D2A50332  40.511  26.145   6.522
 3934POPC   C3A50333  40.680  25.996   6.928
 3934POPC   C4A50334  40.541  26.025   7.366
 3934POPC   C1B50335  41.016  26.239   6.146
 3934POPC   C2B50336  41.055  26.147   6.574
 3934POPC   C3B50337  41.115  26.311   6.951
 3934POPC   C4B50338  41.058  26.149   7.338
 3935POPC   NC350339  25.574   5.297   5.506
 3935POPC   PO450340  25.044   4.883   5.440
 3935POPC   GL150341  25.031   5.079   5.891
 3935POPC   GL250342  25.393   5.162   5.954
 3935POPC   C1A50343  25.120   5.130   6.383
 3935POPC   D2A50344  25.511   5.133   6.674
 3935POPC   C3A50345  25.366   5.013   7.089
 3935POPC   C4A50346  24.937   5.027   7.134
 3935POPC   C1B50347  25.417   5.525   6.201
 3935POPC   C2B50348  25.076   5.656   6.477
 3935POPC   C3B50349  25.236   5.543   6.875
 3935POPC   C4B50350  25.661   5.423   7.081
 3936POPC   NC350351   7.083  21.011   5.443
 3936POPC   PO450352   6.612  20.635   5.611
 3936POPC   GL150353   6.611  20.428   5.971
 3936POPC   GL250354   6.268  20.437   5.982
 3936POPC   C1A50355   6.838  20.321   6.307
 3936POPC   D2A50356   6.933  20.569   6.622
 3936POPC   C3A50357   6.653  20.725   6.905
 3936POPC   C4A50358   6.522  20.496   7.242
 3936POPC   C1B50359   6.414  20.698   6.360
 3936POPC   C2B50360   6.225  20.954   6.703
 3936POPC   C3B50361   6.248  20.959   7.155
 3936POPC   C4B50362   6.310  20.781   7.606
 3937POPC   NC350363  16.404   7.256   5.275
 3937POPC   PO450364  16.792   7.704   5.511
 3937POPC   GL150365  16.850   7.394   5.831
 3937POPC   GL250366  16.559   7.188   5.773
 3937POPC   C1A50367  16.971   7.250   6.268
 3937POPC   D2A50368  16.943   7.368   6.702
 3937POPC   C3A50369  16.990   7.198   7.109
 3937POPC   C4A50370  16.876   7.535   7.349
 3937POPC   C1B50371  16.447   7.353   6.184
 3937POPC   C2B50372  16.459   7.229   6.619
 3937POPC   C3B50373  16.468   7.413   7.022
 3937POPC   C4B50374  16.481   7.205   7.392
 3938POPC   NC350375  13.998  42.075   5.555
 3938POPC   PO450376  14.409  41.588   5.311
 3938POPC   GL150377  14.303  41.695   5.766
 3938POPC   GL250378  14.046  41.459   5.816
 3938POPC   C1A50379  14.509  41.791   6.205
 3938POPC   D2A50380  14.745  41.779   6.604
 3938POPC   C3A50381  14.483  41.697   6.912
 3938POPC   C4A50382  14.417  41.892   7.260
 3938POPC   C1B50383  14.353  41.305   6.108
 3938POPC   C2B50384  14.511  41.336   6.508
 3938POPC   C3B50385  14.453  41.192   6.906
 3938POPC   C4B50386  14.317  41.299   7.284
 3939POPC   NC350387  11.923   7.998   5.350
 3939POPC   PO450388  12.449   8.363   5.523
 3939POPC   GL150389  12.222   8.040   5.794
 3939POPC   GL250390  11.834   7.976   5.842
 3939POPC   C1A50391  12.155   8.029   6.246
 3939POPC   D2A50392  12.196   8.303   6.607
 3939POPC   C3A50393  12.148   8.080   6.966
 3939POPC   C4A50394  12.395   8.206   7.271
 3939POPC   C1B50395  11.832   8.376   6.034
 3939POPC   C2B50396  11.727   8.292   6.449
 3939POPC   C3B50397  11.701   8.337   6.879
 3939POPC   C4B50398  11.913   8.464   7.247
 3940POPC   NC350399   9.639  28.701   5.697
 3940POPC   PO450400   9.944  28.103   5.475
 3940POPC   GL150401   9.912  28.294   5.892
 3940POPC   GL250402  10.188  28.473   5.945
 3940POPC   C1A50403   9.664  28.446   6.294
 3940POPC   D2A50404   9.322  28.334   6.610
 3940POPC   C3A50405   9.356  28.451   7.048
 3940POPC   C4A50406   9.592  28.307   7.403
 3940POPC   C1B50407  10.114  28.737   6.286
 3940POPC   C2B50408   9.949  28.638   6.690
 3940POPC   C3B50409   9.948  28.422   7.064
 3940POPC   C4B50410  10.056  28.505   7.490
 3941POPC   NC350411  14.166  37.120   5.305
 3941POPC   PO450412  14.226  36.571   5.611
 3941POPC   GL150413  14.466  36.882   5.844
 3941POPC   GL250414  14.674  37.216   5.799
 3941POPC   C1A50415  14.299  36.848   6.257
 3941POPC   D2A50416  14.197  36.540   6.569
 3941POPC   C3A50417  14.297  36.740   6.950
 3941POPC   C4A50418  14.481  36.816   7.342
 3941POPC   C1B50419  14.780  37.010   6.206
 3941POPC   C2B50420  14.672  36.845   6.607
 3941POPC   C3B50421  14.754  37.029   6.978
 3941POPC   C4B50422  14.677  37.277   7.314
 3942POPC   NC350423  21.777  36.842   5.585
 3942POPC   PO450424  22.368  37.028   5.376
 3942POPC   GL150425  22.207  37.048   5.827
 3942POPC   GL250426  21.850  37.252   5.929
 3942POPC   C1A50427  22.445  37.067   6.230
 3942POPC   D2A50428  22.433  37.263   6.640
 3942POPC   C3A50429  22.325  36.994   6.986
 3942POPC   C4A50430  22.316  36.546   7.057
 3942POPC   C1B50431  21.942  37.004   6.266
 3942POPC   C2B50432  22.089  36.719   6.573
 3942POPC   C3B50433  21.862  36.771   6.941
 3942POPC   C4B50434  21.851  37.222   7.081
 3943POPC   NC350435  44.589  12.484   5.365
 3943POPC   PO450436  44.492  11.818   5.205
 3943POPC   GL150437  44.557  11.963   5.663
 3943POPC   GL250438  44.759  12.261   5.793
 3943POPC   C1A50439  44.644  11.882   6.111
 3943POPC   D2A50440  44.826  11.998   6.509
 3943POPC   C3A50441  44.552  11.866   6.848
 3943POPC   C4A50442  44.443  11.526   7.135
 3943POPC   C1B50443  44.770  12.480   6.202
 3943POPC   C2B50444  44.629  12.453   6.628
 3943POPC   C3B50445  44.797  12.295   7.024
 3943POPC   C4B50446  44.530  12.460   7.344
 3944POPC   NC350447  17.449   4.812   5.651
 3944POPC   PO450448  17.473   5.388   5.259
 3944POPC   GL150449  17.422   5.306   5.766
 3944POPC   GL250450  17.702   5.135   5.957
 3944POPC   C1A50451  17.260   5.061   6.198
 3944POPC   D2A50452  17.271   4.830   6.601
 3944POPC   C3A50453  17.417   5.083   6.938
 3944POPC   C4A50454  17.547   5.045   7.372
 3944POPC   C1B50455  17.649   5.414   6.272
 3944POPC   C2B50456  17.708   5.446   6.703
 3944POPC   C3B50457  17.905   5.208   7.029
 3944POPC   C4B50458  17.972   5.341   7.441
 3945POPC   NC350459  30.351   4.579   5.285
 3945POPC   PO450460  30.798   4.149   5.446
 3945POPC   GL150461  30.638   4.332   5.802
 3945POPC   GL250462  30.424   4.621   5.783
 3945POPC   C1A50463  30.453   4.210   6.186
 3945POPC   D2A50464  30.617   4.086   6.570
 3945POPC   C3A50465  30.486   4.224   6.944
 3945POPC   C4A50466  30.554   4.110   7.364
 3945POPC   C1B50467  30.655   4.695   6.157
 3945POPC   C2B50468  30.474   4.607   6.536
 3945POPC   C3B50469  30.565   4.745   6.921
 3945POPC   C4B50470  30.518   4.599   7.303
 3946POPC   NC350471  29.501  38.515   5.730
 3946POPC   PO450472  28.861  38.387   5.626
 3946POPC   GL150473  29.080  38.279   5.929
 3946POPC   GL250474  29.325  38.049   5.761
 3946POPC   C1A50475  29.154  38.553   6.282
 3946POPC   D2A50476  29.381  38.381   6.600
 3946POPC   C3A50477  29.116  38.265   6.934
 3946POPC   C4A50478  28.958  38.561   7.221
 3946POPC   C1B50479  29.350  37.947   6.215
 3946POPC   C2B50480  29.388  37.879   6.667
 3946POPC   C3B50481  29.599  38.097   6.988
 3946POPC   C4B50482  29.375  38.243   7.373
 3947POPC   NC350483   6.390   7.246   5.601
 3947POPC   PO450484   7.039   7.250   5.860
 3947POPC   GL150485   6.706   7.496   5.978
 3947POPC   GL250486   6.351   7.573   5.982
 3947POPC   C1A50487   6.709   7.770   6.340
 3947POPC   D2A50488   6.859   7.867   6.764
 3947POPC   C3A50489   6.739   7.482   6.984
 3947POPC   C4A50490   6.747   7.187   7.318
 3947POPC   C1B50491   6.403   7.227   6.265
 3947POPC   C2B50492   6.532   7.082   6.659
 3947POPC   C3B50493   6.319   7.100   7.033
 3947POPC   C4B50494   6.274   7.523   7.202
 3948POPC   NC350495   9.764  44.136   5.398
 3948POPC   PO450496   9.950  43.450   5.414
 3948POPC   GL150497   9.771  43.604   5.781
 3948POPC   GL250498   9.976  43.897   5.808
 3948POPC   C1A50499   9.577  43.816   6.126
 3948POPC   D2A50500   9.652  43.732   6.541
 3948POPC   C3A50501   9.744  44.087   6.786
 3948POPC   C4A50502   9.576  44.049   7.168
 3948POPC   C1B50503  10.114  43.777   6.234
 3948POPC   C2B50504  10.120  43.746   6.698
 3948POPC   C3B50505   9.921  43.659   7.057
 3948POPC   C4B50506  10.080  43.884   7.371
 3949POPC   NC350507   7.893  42.927   5.571
 3949POPC   PO450508   8.221  43.481   5.447
 3949POPC   GL150509   8.187  43.239   5.833
 3949POPC   GL250510   8.350  42.900   5.829
 3949POPC   C1A50511   7.962  43.072   6.226
 3949POPC   D2A50512   7.717  42.970   6.660
 3949POPC   C3A50513   7.963  42.973   7.070
 3949POPC   C4A50514   8.254  42.759   7.369
 3949POPC   C1B50515   8.500  43.131   6.205
 3949POPC   C2B50516   8.298  43.163   6.618
 3949POPC   C3B50517   8.486  43.001   6.976
 3949POPC   C4B50518   8.832  43.094   7.201
 3950POPC   NC350519  24.464   6.265   5.115
 3950POPC   PO450520  24.558   5.703   5.566
 3950POPC   GL150521  24.681   5.881   5.906
 3950POPC   GL250522  24.546   6.197   5.753
 3950POPC   C1A50523  24.574   5.771   6.366
 3950POPC   D2A50524  24.241   5.914   6.702
 3950POPC   C3A50525  24.314   5.658   7.065
 3950POPC   C4A50526  24.770   5.554   7.118
 3950POPC   C1B50527  24.328   6.170   6.153
 3950POPC   C2B50528  24.595   6.251   6.519
 3950POPC   C3B50529  24.801   5.981   6.810
 3950POPC   C4B50530  24.635   6.048   7.207
 3951POPC   NC350531  37.855  11.460   5.381
 3951POPC   PO450532  37.201  11.256   5.441
 3951POPC   GL150533  37.479  11.250   5.797
 3951POPC   GL250534  37.821  11.100   5.745
 3951POPC   C1A50535  37.514  11.419   6.232
 3951POPC   D2A50536  37.593  11.702   6.599
 3951POPC   C3A50537  37.325  11.551   6.920
 3951POPC   C4A50538  37.352  11.217   7.239
 3951POPC   C1B50539  37.995  11.239   6.171
 3951POPC   C2B50540  37.849  11.224   6.627
 3951POPC   C3B50541  37.853  11.273   7.101
 3951POPC   C4B50542  38.055  11.120   7.538
 3952POPC   NC350543  18.009  42.652   5.464
 3952POPC   PO450544  18.286  42.041   5.326
 3952POPC   GL150545  18.169  42.239   5.712
 3952POPC   GL250546  18.459  42.395   5.833
 3952POPC   C1A50547  17.963  42.319   6.100
 3952POPC   D2A50548  18.033  42.163   6.497
 3952POPC   C3A50549  18.279  42.339   6.812
 3952POPC   C4A50550  18.102  42.387   7.225
 3952POPC   C1B50551  18.404  42.540   6.256
 3952POPC   C2B50552  18.625  42.672   6.602
 3952POPC   C3B50553  18.609  42.827   6.983
 3952POPC   C4B50554  18.359  42.869   7.353
 3953POPC   NC350555  20.579  19.667   5.475
 3953POPC   PO450556  20.957  20.240   5.293
 3953POPC   GL150557  20.890  20.019   5.733
 3953POPC   GL250558  20.943  19.675   5.850
 3953POPC   C1A50559  20.591  19.908   6.109
 3953POPC   D2A50560  20.645  20.024   6.505
 3953POPC   C3A50561  20.451  19.824   6.851
 3953POPC   C4A50562  20.537  19.997   7.222
 3953POPC   C1B50563  20.942  19.615   6.323
 3953POPC   C2B50564  20.979  19.741   6.754
 3953POPC   C3B50565  20.982  19.768   7.215
 3953POPC   C4B50566  21.078  19.725   7.661
 3954POPC   NC350567  21.099   4.408   5.468
 3954POPC   PO450568  21.700   4.048   5.631
 3954POPC   GL150569  21.309   4.150   5.855
 3954POPC   GL250570  21.235   4.550   5.927
 3954POPC   C1A50571  21.369   4.220   6.272
 3954POPC   D2A50572  21.408   4.510   6.581
 3954POPC   C3A50573  21.474   4.242   6.912
 3954POPC   C4A50574  21.267   4.271   7.284
 3954POPC   C1B50575  20.970   4.563   6.314
 3954POPC   C2B50576  20.942   4.461   6.794
 3954POPC   C3B50577  20.987   4.715   7.182
 3954POPC   C4B50578  21.032   4.569   7.625
 3955POPC   NC350579  29.640  17.804   5.038
 3955POPC   PO450580  29.685  17.271   5.471
 3955POPC   GL150581  29.939  17.457   5.808
 3955POPC   GL250582  30.223  17.694   5.797
 3955POPC   C1A50583  29.772  17.509   6.228
 3955POPC   D2A50584  29.739  17.225   6.570
 3955POPC   C3A50585  29.680  17.426   6.968
 3955POPC   C4A50586  29.952  17.423   7.304
 3955POPC   C1B50587  30.271  17.477   6.210
 3955POPC   C2B50588  30.144  17.570   6.626
 3955POPC   C3B50589  30.351  17.607   7.010
 3955POPC   C4B50590  30.275  17.785   7.453
 3956POPC   NC350591  36.868  15.527   5.243
 3956POPC   PO450592  36.620  14.988   5.516
 3956POPC   GL150593  36.741  15.019   5.895
 3956POPC   GL250594  36.994  15.265   5.844
 3956POPC   C1A50595  37.004  14.895   6.231
 3956POPC   D2A50596  37.197  14.921   6.625
 3956POPC   C3A50597  36.896  14.808   6.921
 3956POPC   C4A50598  36.975  15.169   7.126
 3956POPC   C1B50599  36.724  15.417   6.197
 3956POPC   C2B50600  36.514  15.357   6.599
 3956POPC   C3B50601  36.621  15.492   6.979
 3956POPC   C4B50602  36.736  15.530   7.371
 3957POPC   NC350603  17.679  37.854   5.637
 3957POPC   PO450604  18.227  37.618   5.300
 3957POPC   GL150605  18.222  37.755   5.726
 3957POPC   GL250606  18.507  37.548   5.874
 3957POPC   C1A50607  18.105  37.691   6.168
 3957POPC   D2A50608  18.230  37.377   6.490
 3957POPC   C3A50609  18.222  37.543   6.917
 3957POPC   C4A50610  18.072  37.920   7.164
 3957POPC   C1B50611  18.603  37.839   6.213
 3957POPC   C2B50612  18.656  37.683   6.639
 3957POPC   C3B50613  18.740  37.477   7.011
 3957POPC   C4B50614  18.504  37.579   7.358
 3958POPC   NC350615  37.886  14.958   5.528
 3958POPC   PO450616  37.302  15.458   5.455
 3958POPC   GL150617  37.500  15.400   5.864
 3958POPC   GL250618  37.482  15.025   5.887
 3958POPC   C1A50619  37.740  15.351   6.280
 3958POPC   D2A50620  38.045  15.362   6.648
 3958POPC   C3A50621  37.860  15.432   7.057
 3958POPC   C4A50622  37.485  15.332   7.277
 3958POPC   C1B50623  37.821  14.836   6.152
 3958POPC   C2B50624  37.712  14.761   6.555
 3958POPC   C3B50625  37.846  14.931   6.928
 3958POPC   C4B50626  37.838  14.926   7.344
 3959POPC   NC350627   8.861  26.216   5.018
 3959POPC   PO450628   9.075  26.223   5.604
 3959POPC   GL150629   8.902  26.001   5.886
 3959POPC   GL250630   8.659  26.234   5.948
 3959POPC   C1A50631   8.932  25.807   6.231
 3959POPC   D2A50632   8.985  25.946   6.623
 3959POPC   C3A50633   8.838  25.661   6.912
 3959POPC   C4A50634   8.954  25.913   7.219
 3959POPC   C1B50635   9.025  26.362   6.241
 3959POPC   C2B50636   9.210  26.412   6.653
 3959POPC   C3B50637   9.247  26.292   7.075
 3959POPC   C4B50638   9.067  26.373   7.508
 3960POPC   NC350639  40.497  17.240   5.475
 3960POPC   PO450640  41.000  17.805   5.486
 3960POPC   GL150641  40.752  17.710   5.842
 3960POPC   GL250642  40.799  17.371   5.861
 3960POPC   C1A50643  40.674  17.702   6.296
 3960POPC   D2A50644  40.498  17.727   6.712
 3960POPC   C3A50645  40.848  17.686   7.011
 3960POPC   C4A50646  41.058  18.019   7.210
 3960POPC   C1B50647  40.535  17.230   6.190
 3960POPC   C2B50648  40.687  17.273   6.608
 3960POPC   C3B50649  40.526  17.285   7.033
 3960POPC   C4B50650  40.815  17.324   7.415
 3961POPC   NC350651  42.657   2.164   5.211
 3961POPC   PO450652  42.450   1.570   5.463
 3961POPC   GL150653  42.283   1.966   5.700
 3961POPC   GL250654  42.563   2.112   5.893
 3961POPC   C1A50655  42.061   2.194   6.096
 3961POPC   D2A50656  42.140   2.111   6.578
 3961POPC   C3A50657  42.096   2.195   7.033
 3961POPC   C4A50658  42.525   2.160   7.161
 3961POPC   C1B50659  42.346   1.797   6.177
 3961POPC   C2B50660  42.356   1.608   6.569
 3961POPC   C3B50661  42.256   1.690   7.003
 3961POPC   C4B50662  42.404   1.743   7.428
 3962POPC   NC350663  11.719  27.859   5.639
 3962POPC   PO450664  12.235  27.521   5.176
 3962POPC   GL150665  11.969  27.346   5.655
 3962POPC   GL250666  12.196  27.228   5.975
 3962POPC   C1A50667  11.771  27.431   6.113
 3962POPC   D2A50668  11.904  27.787   6.388
 3962POPC   C3A50669  12.106  27.664   6.777
 3962POPC   C4A50670  12.158  27.698   7.210
 3962POPC   C1B50671  11.901  26.963   6.273
 3962POPC   C2B50672  11.816  27.002   6.731
 3962POPC   C3B50673  11.923  27.175   7.149
 3962POPC   C4B50674  11.930  27.414   7.557
 3963POPC   NC350675   0.865  32.986   5.451
 3963POPC   PO450676   1.443  33.358   5.679
 3963POPC   GL150677   1.308  33.177   6.067
 3963POPC   GL250678   1.041  32.996   5.927
 3963POPC   C1A50679   1.333  33.001   6.492
 3963POPC   D2A50680   0.999  32.899   6.804
 3963POPC   C3A50681   1.036  33.113   7.153
 3963POPC   C4A50682   1.438  33.313   7.153
 3963POPC   C1B50683   0.904  32.805   6.295
 3963POPC   C2B50684   1.109  32.476   6.546
 3963POPC   C3B50685   1.310  32.520   6.954
 3963POPC   C4B50686   1.134  32.627   7.385
 3964POPC   NC350687   9.190  13.042   5.516
 3964POPC   PO450688   8.534  12.480   5.507
 3964POPC   GL150689   8.864  12.728   5.810
 3964POPC   GL250690   8.898  13.074   5.905
 3964POPC   C1A50691   9.194  12.784   6.186
 3964POPC   D2A50692   9.244  13.049   6.607
 3964POPC   C3A50693   9.013  12.905   7.034
 3964POPC   C4A50694   8.873  12.604   7.361
 3964POPC   C1B50695   8.788  13.085   6.328
 3964POPC   C2B50696   8.491  13.206   6.622
 3964POPC   C3B50697   8.528  13.120   7.031
 3964POPC   C4B50698   8.739  13.103   7.438
 3965POPC   NC350699  12.113   9.594   5.614
 3965POPC   PO450700  11.931   9.100   5.137
 3965POPC   GL150701  11.939   9.088   5.628
 3965POPC   GL250702  12.216   8.880   5.771
 3965POPC   C1A50703  11.891   9.062   6.119
 3965POPC   D2A50704  11.906   8.756   6.478
 3965POPC   C3A50705  11.855   8.862   6.895
 3965POPC   C4A50706  12.070   9.174   7.113
 3965POPC   C1B50707  12.377   8.877   6.216
 3965POPC   C2B50708  12.346   8.934   6.661
 3965POPC   C3B50709  12.332   8.646   6.986
 3965POPC   C4B50710  12.288   8.772   7.396
 3966POPC   NC350711   9.572  10.372   5.296
 3966POPC   PO450712   9.734   9.652   5.146
 3966POPC   GL150713   9.801   9.535   5.646
 3966POPC   GL250714   9.499   9.548   5.814
 3966POPC   C1A50715   9.899   9.708   6.089
 3966POPC   D2A50716  10.038  10.038   6.394
 3966POPC   C3A50717  10.194   9.957   6.827
 3966POPC   C4A50718  10.050  10.017   7.260
 3966POPC   C1B50719   9.567   9.354   6.227
 3966POPC   C2B50720   9.738   9.587   6.566
 3966POPC   C3B50721   9.730   9.750   6.968
 3966POPC   C4B50722   9.780   9.532   7.345
 3967POPC   NC350723  21.988   4.806   5.462
 3967POPC   PO450724  21.884   5.454   5.621
 3967POPC   GL150725  22.173   5.201   5.868
 3967POPC   GL250726  22.215   4.845   5.930
 3967POPC   C1A50727  22.453   5.270   6.164
 3967POPC   D2A50728  22.343   5.455   6.494
 3967POPC   C3A50729  22.435   5.267   6.843
 3967POPC   C4A50730  22.164   5.330   7.148
 3967POPC   C1B50731  21.823   4.984   6.166
 3967POPC   C2B50732  21.734   4.896   6.607
 3967POPC   C3B50733  21.951   4.864   7.014
 3967POPC   C4B50734  22.371   4.875   7.168
 3968POPC   NC350735   3.454  25.624   5.566
 3968POPC   PO450736   3.665  24.927   5.345
 3968POPC   GL150737   3.687  25.161   5.712
 3968POPC   GL250738   3.350  25.122   5.737
 3968POPC   C1A50739   3.861  25.126   6.162
 3968POPC   D2A50740   3.664  25.179   6.585
 3968POPC   C3A50741   3.878  25.076   6.986
 3968POPC   C4A50742   3.729  25.162   7.386
 3968POPC   C1B50743   3.375  25.268   6.152
 3968POPC   C2B50744   3.140  25.432   6.456
 3968POPC   C3B50745   3.201  25.431   6.867
 3968POPC   C4B50746   3.363  25.506   7.265
 3969POPC   NC350747  22.144  32.907   5.251
 3969POPC   PO450748  22.417  33.483   5.435
 3969POPC   GL150749  22.363  33.060   5.701
 3969POPC   GL250750  22.000  32.955   5.737
 3969POPC   C1A50751  22.336  32.847   6.139
 3969POPC   D2A50752  22.477  32.930   6.597
 3969POPC   C3A50753  22.186  32.909   6.934
 3969POPC   C4A50754  22.119  32.802   7.368
 3969POPC   C1B50755  21.989  33.303   6.010
 3969POPC   C2B50756  22.118  33.235   6.424
 3969POPC   C3B50757  22.091  33.417   6.823
 3969POPC   C4B50758  21.958  33.263   7.216
 3970POPC   NC350759  17.390  11.350   5.609
 3970POPC   PO450760  17.936  11.040   5.488
 3970POPC   GL150761  17.740  10.973   5.855
 3970POPC   GL250762  17.808  11.287   5.963
 3970POPC   C1A50763  17.484  10.918   6.208
 3970POPC   D2A50764  17.521  10.932   6.651
 3970POPC   C3A50765  17.248  11.230   6.846
 3970POPC   C4A50766  17.228  11.120   7.253
 3970POPC   C1B50767  18.017  11.271   6.358
 3970POPC   C2B50768  17.802  11.382   6.731
 3970POPC   C3B50769  17.666  11.350   7.125
 3970POPC   C4B50770  17.333  11.610   7.263
 3971POPC   NC350771  25.175  26.359   5.493
 3971POPC   PO450772  25.599  25.871   5.435
 3971POPC   GL150773  25.361  25.914   5.835
 3971POPC   GL250774  25.322  26.251   5.944
 3971POPC   C1A50775  25.307  25.909   6.311
 3971POPC   D2A50776  25.092  25.951   6.714
 3971POPC   C3A50777  25.197  26.101   7.128
 3971POPC   C4A50778  25.126  26.191   7.571
 3971POPC   C1B50779  25.603  26.390   6.213
 3971POPC   C2B50780  25.596  26.218   6.594
 3971POPC   C3B50781  25.582  26.392   6.963
 3971POPC   C4B50782  25.310  26.610   7.271
 3972POPC   NC350783   7.904  28.299   5.372
 3972POPC   PO450784   8.568  28.547   5.090
 3972POPC   GL150785   8.336  28.522   5.549
 3972POPC   GL250786   8.500  28.522   5.822
 3972POPC   C1A50787   8.046  28.439   5.980
 3972POPC   D2A50788   8.014  28.299   6.443
 3972POPC   C3A50789   8.314  28.499   6.751
 3972POPC   C4A50790   8.298  28.471   7.215
 3972POPC   C1B50791   8.452  28.167   6.134
 3972POPC   C2B50792   8.558  28.075   6.555
 3972POPC   C3B50793   8.304  27.957   6.889
 3972POPC   C4B50794   8.354  27.964   7.302
 3973POPC   NC350795  15.816  42.006   5.011
 3973POPC   PO450796  15.824  42.504   5.462
 3973POPC   GL150797  15.870  42.310   5.872
 3973POPC   GL250798  16.188  42.416   5.980
 3973POPC   C1A50799  15.916  42.099   6.289
 3973POPC   D2A50800  15.793  41.820   6.626
 3973POPC   C3A50801  15.901  41.966   7.017
 3973POPC   C4A50802  15.821  42.118   7.411
 3973POPC   C1B50803  16.321  42.464   6.378
 3973POPC   C2B50804  16.148  42.325   6.723
 3973POPC   C3B50805  16.197  42.535   7.073
 3973POPC   C4B50806  15.988  42.588   7.432
 3974POPC   NC350807  28.562   2.915   5.154
 3974POPC   PO450808  28.150   2.384   5.156
 3974POPC   GL150809  28.225   2.573   5.609
 3974POPC   GL250810  28.237   2.966   5.706
 3974POPC   C1A50811  28.297   2.506   6.083
 3974POPC   D2A50812  28.244   2.682   6.510
 3974POPC   C3A50813  28.496   2.694   6.883
 3974POPC   C4A50814  28.338   2.522   7.229
 3974POPC   C1B50815  28.379   3.026   6.157
 3974POPC   C2B50816  28.380   3.157   6.637
 3974POPC   C3B50817  28.398   3.160   7.090
 3974POPC   C4B50818  28.233   2.990   7.470
 3975POPC   NC350819  38.259   3.159   5.279
 3975POPC   PO450820  38.656   3.576   5.541
 3975POPC   GL150821  38.450   3.641   5.918
 3975POPC   GL250822  38.123   3.575   5.815
 3975POPC   C1A50823  38.500   3.816   6.311
 3975POPC   D2A50824  38.823   3.713   6.581
 3975POPC   C3A50825  38.681   3.786   6.979
 3975POPC   C4A50826  38.705   3.435   7.244
 3975POPC   C1B50827  38.129   3.430   6.260
 3975POPC   C2B50828  38.232   3.569   6.687
 3975POPC   C3B50829  38.214   3.510   7.112
 3975POPC   C4B50830  38.173   3.189   7.393
 3976POPC   NC350831  34.616  14.656   5.387
 3976POPC   PO450832  34.537  14.024   5.457
 3976POPC   GL150833  34.648  14.219   5.845
 3976POPC   GL250834  34.471  14.515   5.839
 3976POPC   C1A50835  34.432  14.262   6.281
 3976POPC   D2A50836  34.348  14.238   6.749
 3976POPC   C3A50837  34.772  14.305   6.949
 3976POPC   C4A50838  34.885  14.370   7.382
 3976POPC   C1B50839  34.474  14.779   6.182
 3976POPC   C2B50840  34.256  14.709   6.549
 3976POPC   C3B50841  34.308  14.813   6.949
 3976POPC   C4B50842  34.390  14.484   7.208
 3977POPC   NC350843   6.679   8.519   5.353
 3977POPC   PO450844   6.426   7.807   5.528
 3977POPC   GL150845   6.635   7.988   5.883
 3977POPC   GL250846   6.733   8.295   5.867
 3977POPC   C1A50847   6.414   8.172   6.262
 3977POPC   D2A50848   6.594   8.352   6.633
 3977POPC   C3A50849   6.462   8.327   7.044
 3977POPC   C4A50850   6.623   7.935   7.231
 3977POPC   C1B50851   6.964   8.378   6.238
 3977POPC   C2B50852   7.025   8.608   6.633
 3977POPC   C3B50853   6.950   8.489   7.074
 3977POPC   C4B50854   6.732   8.371   7.481
 3978POPC   NC350855   1.661  25.193   5.311
 3978POPC   PO450856   2.288  25.505   5.267
 3978POPC   GL150857   2.220  25.355   5.731
 3978POPC   GL250858   1.915  25.201   5.897
 3978POPC   C1A50859   2.327  25.216   6.177
 3978POPC   D2A50860   2.339  25.000   6.594
 3978POPC   C3A50861   2.265  25.184   6.989
 3978POPC   C4A50862   1.917  25.450   7.135
 3978POPC   C1B50863   1.915  24.954   6.299
 3978POPC   C2B50864   1.836  25.138   6.711
 3978POPC   C3B50865   1.647  25.009   7.115
 3978POPC   C4B50866   1.539  25.017   7.598
 3979POPC   NC350867  18.500  25.519   5.401
 3979POPC   PO450868  18.307  24.842   5.396
 3979POPC   GL150869  18.277  25.151   5.752
 3979POPC   GL250870  18.092  25.456   5.738
 3979POPC   C1A50871  18.359  25.155   6.216
 3979POPC   D2A50872  18.238  25.044   6.657
 3979POPC   C3A50873  18.344  25.108   7.097
 3979POPC   C4A50874  18.029  25.160   7.371
 3979POPC   C1B50875  18.122  25.603   6.171
 3979POPC   C2B50876  18.368  25.540   6.583
 3979POPC   C3B50877  18.209  25.593   7.021
 3979POPC   C4B50878  17.813  25.634   7.269
 3980POPC   NC350879  28.563  29.293   5.409
 3980POPC   PO450880  27.980  29.582   5.415
 3980POPC   GL150881  28.191  29.314   5.781
 3980POPC   GL250882  28.545  29.416   5.884
 3980POPC   C1A50883  28.089  29.052   6.172
 3980POPC   D2A50884  28.123  28.825   6.593
 3980POPC   C3A50885  28.113  29.039   6.978
 3980POPC   C4A50886  28.410  28.904   7.274
 3980POPC   C1B50887  28.624  29.138   6.171
 3980POPC   C2B50888  28.438  29.222   6.553
 3980POPC   C3B50889  28.607  29.247   6.934
 3980POPC   C4B50890  28.736  29.407   7.298
 3981POPC   NC350891  24.231  21.750   5.557
 3981POPC   PO450892  24.445  22.286   5.232
 3981POPC   GL150893  24.367  22.226   5.742
 3981POPC   GL250894  24.193  22.523   5.921
 3981POPC   C1A50895  24.502  21.962   6.140
 3981POPC   D2A50896  24.656  21.691   6.490
 3981POPC   C3A50897  24.577  21.893   6.895
 3981POPC   C4A50898  24.483  22.018   7.336
 3981POPC   C1B50899  24.419  22.454   6.276
 3981POPC   C2B50900  24.375  22.324   6.707
 3981POPC   C3B50901  24.661  22.406   7.070
 3981POPC   C4B50902  24.725  22.415   7.546
 3982POPC   NC350903   8.814  31.884   5.085
 3982POPC   PO450904   9.023  32.403   5.503
 3982POPC   GL150905   8.858  32.279   5.876
 3982POPC   GL250906   8.542  32.372   5.931
 3982POPC   C1A50907   8.958  32.200   6.290
 3982POPC   D2A50908   9.266  32.389   6.544
 3982POPC   C3A50909   9.250  32.313   6.944
 3982POPC   C4A50910   9.226  32.283   7.361
 3982POPC   C1B50911   8.498  31.997   6.165
 3982POPC   C2B50912   8.589  31.875   6.573
 3982POPC   C3B50913   8.656  31.688   6.954
 3982POPC   C4B50914   8.837  32.054   7.143
 3983POPC   NC350915  13.423  22.187   5.449
 3983POPC   PO450916  13.973  22.536   5.656
 3983POPC   GL150917  13.728  22.148   5.865
 3983POPC   GL250918  13.356  22.016   5.921
 3983POPC   C1A50919  13.763  22.020   6.288
 3983POPC   D2A50920  14.051  22.268   6.541
 3983POPC   C3A50921  13.948  22.316   6.954
 3983POPC   C4A50922  13.913  22.062   7.326
 3983POPC   C1B50923  13.289  22.250   6.291
 3983POPC   C2B50924  13.472  22.325   6.649
 3983POPC   C3B50925  13.459  22.195   7.014
 3983POPC   C4B50926  13.463  22.260   7.436
 3984POPC   NC350927  15.861  27.053   5.345
 3984POPC   PO450928  16.365  26.639   5.548
 3984POPC   GL150929  16.053  26.801   5.779
 3984POPC   GL250930  16.091  27.120   5.837
 3984POPC   C1A50931  15.931  26.721   6.185
 3984POPC   D2A50932  16.062  26.646   6.626
 3984POPC   C3A50933  15.863  26.659   7.039
 3984POPC   C4A50934  15.855  26.826   7.493
 3984POPC   C1B50935  15.721  27.189   6.073
 3984POPC   C2B50936  15.749  27.082   6.489
 3984POPC   C3B50937  15.817  27.148   6.897
 3984POPC   C4B50938  15.533  27.133   7.204
 3985POPC   NC350939  33.998  39.771   5.427
 3985POPC   PO450940  33.592  40.344   5.482
 3985POPC   GL150941  33.720  40.031   5.790
 3985POPC   GL250942  34.065  40.117   5.871
 3985POPC   C1A50943  33.702  39.987   6.225
 3985POPC   D2A50944  34.014  40.064   6.540
 3985POPC   C3A50945  33.868  39.903   6.909
 3985POPC   C4A50946  33.718  39.642   7.227
 3985POPC   C1B50947  34.013  40.468   6.187
 3985POPC   C2B50948  33.922  40.555   6.652
 3985POPC   C3B50949  34.219  40.342   6.982
 3985POPC   C4B50950  34.061  40.043   7.349
 3986POPC   NC350951  31.884  23.233   5.287
 3986POPC   PO450952  31.247  22.924   5.134
 3986POPC   GL150953  31.495  22.957   5.637
 3986POPC   GL250954  31.772  23.162   5.767
 3986POPC   C1A50955  31.375  22.961   6.085
 3986POPC   D2A50956  31.517  22.868   6.485
 3986POPC   C3A50957  31.281  22.937   6.831
 3986POPC   C4A50958  31.326  22.838   7.252
 3986POPC   C1B50959  31.911  23.060   6.165
 3986POPC   C2B50960  31.865  23.252   6.552
 3986POPC   C3B50961  31.752  23.081   6.929
 3986POPC   C4B50962  31.624  23.295   7.274
 3987POPC   NC350963  24.130   7.463   5.403
 3987POPC   PO450964  24.769   7.224   5.492
 3987POPC   GL150965  24.515   7.462   5.819
 3987POPC   GL250966  24.748   7.669   6.002
 3987POPC   C1A50967  24.290   7.607   6.230
 3987POPC   D2A50968  24.372   7.684   6.684
 3987POPC   C3A50969  24.078   7.516   7.040
 3987POPC   C4A50970  24.221   7.226   7.420
 3987POPC   C1B50971  24.779   7.282   6.232
 3987POPC   C2B50972  24.664   7.176   6.658
 3987POPC   C3B50973  24.581   7.395   7.050
 3987POPC   C4B50974  24.884   7.536   7.248
 3988POPC   NC350975  18.533  30.882   5.478
 3988POPC   PO450976  18.114  30.310   5.384
 3988POPC   GL150977  18.176  30.575   5.730
 3988POPC   GL250978  18.490  30.361   5.750
 3988POPC   C1A50979  18.133  30.832   6.148
 3988POPC   D2A50980  18.339  31.041   6.527
 3988POPC   C3A50981  18.170  31.082   6.972
 3988POPC   C4A50982  18.324  30.886   7.346
 3988POPC   C1B50983  18.336  30.358   6.154
 3988POPC   C2B50984  18.456  30.537   6.501
 3988POPC   C3B50985  18.320  30.590   6.889
 3988POPC   C4B50986  18.429  30.380   7.241
 3989POPC   NC350987   0.028  33.183   5.583
 3989POPC   PO450988   0.372  32.673   5.425
 3989POPC   GL150989   0.504  32.888   5.806
 3989POPC   GL250990   0.204  32.799   5.923
 3989POPC   C1A50991   0.593  33.210   6.120
 3989POPC   D2A50992   0.669  33.185   6.561
 3989POPC   C3A50993   0.481  33.097   6.961
 3989POPC   C4A50994   0.607  33.340   7.340
 3989POPC   C1B50995   0.199  32.939   6.342
 3989POPC   C2B50996   0.032  32.753   6.695
 3989POPC   C3B50997   0.175  32.692   7.104
 3989POPC   C4B50998   0.342  32.923   7.453
 3990POPC   NC350999  36.488  43.542   5.452
 3990POPC   PO451000  37.150  43.830   5.443
 3990POPC   GL151001  37.135  43.793   5.858
 3990POPC   GL251002  36.848  43.616   5.820
 3990POPC   C1A51003  36.907  43.969   6.216
 3990POPC   D2A51004  36.779  44.253   6.544
 3990POPC   C3A51005  36.792  44.038   6.895
 3990POPC   C4A51006  36.610  44.125   7.259
 3990POPC   C1B51007  36.643  43.539   6.174
 3990POPC   C2B51008  36.831  43.601   6.583
 3990POPC   C3B51009  37.099  43.521   6.913
 3990POPC   C4B51010  36.881  43.642   7.246
 3991POPC   NC351011   7.766   8.918   5.549
 3991POPC   PO451012   8.405   9.057   5.328
 3991POPC   GL151013   8.304   9.170   5.732
 3991POPC   GL251014   8.495   8.877   5.828
 3991POPC   C1A51015   8.017   9.203   6.097
 3991POPC   D2A51016   7.923   9.024   6.510
 3991POPC   C3A51017   8.001   9.147   6.920
 3991POPC   C4A51018   7.775   9.127   7.300
 3991POPC   C1B51019   8.409   8.887   6.264
 3991POPC   C2B51020   8.364   8.862   6.708
 3991POPC   C3B51021   8.370   8.694   7.106
 3991POPC   C4B51022   8.727   8.828   7.347
 3992POPC   NC351023  39.823  22.810   5.543
 3992POPC   PO451024  40.491  22.712   5.478
 3992POPC   GL151025  40.283  22.862   5.878
 3992POPC   GL251026  39.967  23.099   5.944
 3992POPC   C1A51027  40.276  22.910   6.323
 3992POPC   D2A51028  40.008  23.064   6.649
 3992POPC   C3A51029  40.166  22.943   7.054
 3992POPC   C4A51030  40.083  23.101   7.449
 3992POPC   C1B51031  39.644  23.291   6.242
 3992POPC   C2B51032  39.533  23.371   6.686
 3992POPC   C3B51033  39.715  23.228   7.072
 3992POPC   C4B51034  39.674  22.846   7.329
 3993POPC   NC351035  32.667  33.276   5.045
 3993POPC   PO451036  32.704  32.635   5.251
 3993POPC   GL151037  32.931  32.778   5.724
 3993POPC   GL251038  33.307  32.756   5.758
 3993POPC   C1A51039  32.895  33.062   6.123
 3993POPC   D2A51040  32.958  33.303   6.536
 3993POPC   C3A51041  32.886  33.052   6.935
 3993POPC   C4A51042  33.123  32.938   7.283
 3993POPC   C1B51043  33.300  32.729   6.168
 3993POPC   C2B51044  33.157  32.827   6.550
 3993POPC   C3B51045  33.235  32.616   6.909
 3993POPC   C4B51046  33.301  32.419   7.282
 3994POPC   NC351047   9.704  36.039   5.379
 3994POPC   PO451048  10.343  36.179   5.460
 3994POPC   GL151049   9.933  36.250   5.783
 3994POPC   GL251050   9.508  36.289   5.773
 3994POPC   C1A51051   9.749  36.105   6.188
 3994POPC   D2A51052   9.809  35.857   6.551
 3994POPC   C3A51053   9.681  35.994   6.955
 3994POPC   C4A51054   9.777  35.810   7.337
 3994POPC   C1B51055   9.323  36.423   6.172
 3994POPC   C2B51056   9.406  36.262   6.590
 3994POPC   C3B51057   9.316  36.359   7.013
 3994POPC   C4B51058   9.575  36.354   7.369
 3995POPC   NC351059  12.264  14.534   5.423
 3995POPC   PO451060  11.932  13.993   5.418
 3995POPC   GL151061  12.093  14.185   5.786
 3995POPC   GL251062  11.952  14.501   5.846
 3995POPC   C1A51063  12.305  14.359   6.160
 3995POPC   D2A51064  12.573  14.379   6.507
 3995POPC   C3A51065  12.480  14.251   6.919
 3995POPC   C4A51066  12.474  14.608   7.197
 3995POPC   C1B51067  11.853  14.622   6.272
 3995POPC   C2B51068  11.726  14.663   6.712
 3995POPC   C3B51069  11.956  14.682   7.092
 3995POPC   C4B51070  12.067  14.288   7.230
 3996POPC   NC351071  10.870  11.375   5.453
 3996POPC   PO451072  11.543  11.400   5.355
 3996POPC   GL151073  11.538  11.352   5.855
 3996POPC   GL251074  11.599  11.628   6.110
 3996POPC   C1A51075  11.265  11.230   6.213
 3996POPC   D2A51076  11.234  11.400   6.645
 3996POPC   C3A51077  11.051  11.114   6.927
 3996POPC   C4A51078  11.142  10.934   7.304
 3996POPC   C1B51079  11.787  11.233   6.306
 3996POPC   C2B51080  11.821  11.067   6.734
 3996POPC   C3B51081  11.539  11.164   7.080
 3996POPC   C4B51082  11.446  11.560   7.350
 3997POPC   NC351083  38.803  15.429   5.412
 3997POPC   PO451084  38.356  14.959   5.498
 3997POPC   GL151085  38.444  15.031   5.874
 3997POPC   GL251086  38.724  14.821   5.900
 3997POPC   C1A51087  38.372  15.268   6.246
 3997POPC   D2A51088  38.604  15.316   6.636
 3997POPC   C3A51089  38.418  15.494   7.008
 3997POPC   C4A51090  38.239  15.205   7.294
 3997POPC   C1B51091  38.773  14.948   6.317
 3997POPC   C2B51092  38.772  14.807   6.726
 3997POPC   C3B51093  38.683  15.060   7.087
 3997POPC   C4B51094  38.536  14.807   7.435
 3998POPC   NC351095  14.319  16.949   5.594
 3998POPC   PO451096  14.003  16.348   5.446
 3998POPC   GL151097  14.237  16.486   5.839
 3998POPC   GL251098  14.593  16.534   5.909
 3998POPC   C1A51099  14.175  16.627   6.290
 3998POPC   D2A51100  14.184  16.905   6.672
 3998POPC   C3A51101  14.296  16.696   7.077
 3998POPC   C4A51102  14.460  16.269   7.110
 3998POPC   C1B51103  14.674  16.794   6.294
 3998POPC   C2B51104  14.664  16.655   6.714
 3998POPC   C3B51105  14.801  16.784   7.101
 3998POPC   C4B51106  14.608  17.018   7.397
 3999POPC   NC351107  24.007  35.955   5.174
 3999POPC   PO451108  23.639  36.345   5.588
 3999POPC   GL151109  23.688  36.034   5.869
 3999POPC   GL251110  23.648  35.710   5.673
 3999POPC   C1A51111  23.810  36.183   6.280
 3999POPC   D2A51112  23.560  36.407   6.585
 3999POPC   C3A51113  23.685  36.245   6.972
 3999POPC   C4A51114  23.699  36.243   7.397
 3999POPC   C1B51115  23.794  35.604   6.098
 3999POPC   C2B51116  23.701  35.740   6.511
 3999POPC   C3B51117  23.644  35.693   6.922
 3999POPC   C4B51118  23.691  35.749   7.329
 4000POPC   NC351119  23.447  12.045   5.560
 4000POPC   PO451120  22.841  12.383   5.298
 4000POPC   GL151121  22.807  12.263   5.723
 4000POPC   GL251122  22.858  11.897   5.704
 4000POPC   C1A51123  22.708  12.421   6.121
 4000POPC   D2A51124  22.979  12.466   6.474
 4000POPC   C3A51125  23.002  12.258   6.878
 4000POPC   C4A51126  23.158  12.031   7.252
 4000POPC   C1B51127  22.595  11.894   6.087
 4000POPC   C2B51128  22.634  12.051   6.513
 4000POPC   C3B51129  22.642  11.879   6.929
 4000POPC   C4B51130  22.650  11.991   7.338
 4001POPC   NC351131  43.949   0.339   5.214
 4001POPC   PO451132  44.027  44.694   5.369
 4001POPC   GL151133  44.163  44.653   5.774
 4001POPC   GL251134  43.870  44.480   5.854
 4001POPC   C1A51135  44.048  44.820   6.181
 4001POPC   D2A51136  43.883  44.775   6.581
 4001POPC   C3A51137  44.097  44.855   6.951
 4001POPC   C4A51138  44.129  44.756   7.332
 4001POPC   C1B51139  43.712  44.421   6.234
 4001POPC   C2B51140  43.597  44.255   6.598
 4001POPC   C3B51141  43.727  44.459   6.966
 4001POPC   C4B51142  43.718  44.333   7.373
 4002POPC   NC351143  34.457  38.155   5.463
 4002POPC   PO451144  34.858  38.691   5.304
 4002POPC   GL151145  34.744  38.640   5.768
 4002POPC   GL251146  34.377  38.711   5.781
 4002POPC   C1A51147  34.707  38.338   6.140
 4002POPC   D2A51148  34.587  38.178   6.572
 4002POPC   C3A51149  34.647  38.390   6.967
 4002POPC   C4A51150  34.494  38.298   7.368
 4002POPC   C1B51151  34.325  38.660   6.226
 4002POPC   C2B51152  34.430  38.739   6.669
 4002POPC   C3B51153  34.222  38.683   7.103
 4002POPC   C4B51154  34.187  38.647   7.601
 4003POPC   NC351155   0.145  15.373   5.360
 4003POPC   PO451156   0.887  15.440   5.398
 4003POPC   GL151157   0.591  15.332   5.782
 4003POPC   GL251158   0.415  15.002   5.821
 4003POPC   C1A51159   0.486  15.254   6.254
 4003POPC   D2A51160   0.425  15.076   6.691
 4003POPC   C3A51161   0.427  15.282   7.121
 4003POPC   C4A51162   0.725  15.488   7.433
 4003POPC   C1B51163   0.174  14.781   6.160
 4003POPC   C2B51164  44.957  14.866   6.572
 4003POPC   C3B51165   0.005  14.991   7.011
 4003POPC   C4B51166   0.232  14.847   7.374
 4004POPC   NC351167  32.883  21.077   5.551
 4004POPC   PO451168  33.287  21.475   5.329
 4004POPC   GL151169  33.151  21.447   5.773
 4004POPC   GL251170  32.803  21.576   5.780
 4004POPC   C1A51171  33.083  21.202   6.181
 4004POPC   D2A51172  33.043  21.327   6.616
 4004POPC   C3A51173  32.961  21.220   7.042
 4004POPC   C4A51174  33.258  21.401   7.300
 4004POPC   C1B51175  32.625  21.500   6.201
 4004POPC   C2B51176  32.500  21.672   6.602
 4004POPC   C3B51177  32.702  21.671   6.995
 4004POPC   C4B51178  32.681  21.646   7.427
 4005POPC   NC351179  15.112  37.426   5.414
 4005POPC   PO451180  15.513  37.981   5.497
 4005POPC   GL151181  15.390  37.660   5.807
 4005POPC   GL251182  15.065  37.597   5.887
 4005POPC   C1A51183  15.504  37.643   6.221
 4005POPC   D2A51184  15.312  37.785   6.584
 4005POPC   C3A51185  15.486  37.633   6.946
 4005POPC   C4A51186  15.327  37.641   7.314
 4005POPC   C1B51187  14.844  37.520   6.207
 4005POPC   C2B51188  14.836  37.351   6.587
 4005POPC   C3B51189  14.996  37.477   6.961
 4005POPC   C4B51190  14.849  37.738   7.295
 4006POPC   NC351191  24.095  12.551   5.549
 4006POPC   PO451192  23.911  11.878   5.349
 4006POPC   GL151193  23.899  12.093   5.762
 4006POPC   GL251194  23.880  11.716   5.842
 4006POPC   C1A51195  23.736  12.321   6.176
 4006POPC   D2A51196  23.439  12.171   6.552
 4006POPC   C3A51197  23.538  12.279   6.990
 4006POPC   C4A51198  23.811  12.201   7.355
 4006POPC   C1B51199  23.661  11.810   6.205
 4006POPC   C2B51200  23.674  11.672   6.604
 4006POPC   C3B51201  23.478  11.760   6.942
 4006POPC   C4B51202  23.619  11.740   7.301
 4007POPC   NC351203  33.651  19.329   5.359
 4007POPC   PO451204  33.940  18.696   5.191
 4007POPC   GL151205  33.881  18.805   5.664
 4007POPC   GL251206  33.951  19.172   5.736
 4007POPC   C1A51207  33.852  18.729   6.133
 4007POPC   D2A51208  34.032  18.936   6.526
 4007POPC   C3A51209  34.001  18.800   6.972
 4007POPC   C4A51210  33.876  19.050   7.327
 4007POPC   C1B51211  33.806  19.249   6.140
 4007POPC   C2B51212  33.732  19.389   6.545
 4007POPC   C3B51213  33.917  19.336   6.910
 4007POPC   C4B51214  33.934  19.555   7.260
 4008POPC   NC351215  26.837   5.222   5.439
 4008POPC   PO451216  26.536   4.666   5.447
 4008POPC   GL151217  26.787   4.896   5.858
 4008POPC   GL251218  26.811   5.292   5.937
 4008POPC   C1A51219  27.088   4.981   6.245
 4008POPC   D2A51220  27.001   5.253   6.586
 4008POPC   C3A51221  26.928   5.079   6.966
 4008POPC   C4A51222  27.122   4.807   7.261
 4008POPC   C1B51223  26.597   5.130   6.313
 4008POPC   C2B51224  26.500   5.333   6.743
 4008POPC   C3B51225  26.477   5.184   7.193
 4008POPC   C4B51226  26.447   5.236   7.676
 4009POPC   NC351227  10.571  37.425   5.583
 4009POPC   PO451228  10.528  36.892   5.195
 4009POPC   GL151229  10.593  36.927   5.690
 4009POPC   GL251230  10.928  37.123   5.797
 4009POPC   C1A51231  10.326  36.976   6.106
 4009POPC   D2A51232  10.093  36.896   6.527
 4009POPC   C3A51233  10.390  36.757   6.855
 4009POPC   C4A51234  10.458  36.668   7.293
 4009POPC   C1B51235  10.854  37.133   6.255
 4009POPC   C2B51236  10.679  37.191   6.678
 4009POPC   C3B51237  10.783  37.044   7.090
 4009POPC   C4B51238  10.823  37.012   7.539
 4010POPC   NC351239  44.998  43.999   5.436
 4010POPC   PO451240  44.454  43.617   5.363
 4010POPC   GL151241  44.652  43.751   5.725
 4010POPC   GL251242  44.678  43.479   5.905
 4010POPC   C1A51243  44.719  44.071   6.061
 4010POPC   D2A51244  44.720  44.352   6.425
 4010POPC   C3A51245  44.614  44.173   6.805
 4010POPC   C4A51246  44.689  44.140   7.227
 4010POPC   C1B51247  44.454  43.644   6.227
 4010POPC   C2B51248  44.587  43.703   6.633
 4010POPC   C3B51249  44.439  43.728   7.044
 4010POPC   C4B51250  44.766  43.647   7.342
 4011POPC   NC351251   8.440  19.942   5.251
 4011POPC   PO451252   7.990  20.242   5.626
 4011POPC   GL151253   7.939  19.958   5.988
 4011POPC   GL251254   7.908  19.581   5.946
 4011POPC   C1A51255   8.063  20.042   6.415
 4011POPC   D2A51256   8.342  19.832   6.707
 4011POPC   C3A51257   8.263  19.971   7.118
 4011POPC   C4A51258   8.479  20.161   7.409
 4011POPC   C1B51259   8.135  19.552   6.311
 4011POPC   C2B51260   7.936  19.528   6.710
 4011POPC   C3B51261   8.049  19.521   7.141
 4011POPC   C4B51262   7.958  19.512   7.595
 4012POPC   NC351263  44.529  44.882   5.421
 4012POPC   PO451264  44.571  44.207   5.420
 4012POPC   GL151265  44.674  44.501   5.777
 4012POPC   GL251266  44.887  44.820   5.772
 4012POPC   C1A51267  44.545  44.751   6.141
 4012POPC   D2A51268  44.408  44.769   6.570
 4012POPC   C3A51269  44.595  44.633   7.008
 4012POPC   C4A51270  44.568  44.546   7.483
 4012POPC   C1B51271   0.038  44.721   6.195
 4012POPC   C2B51272  44.906  44.797   6.611
 4012POPC   C3B51273   0.060  44.946   6.971
 4012POPC   C4B51274   0.049  44.889   7.373
 4013POPC   NC351275   1.148   9.549   5.223
 4013POPC   PO451276   1.359  10.183   5.241
 4013POPC   GL151277   1.272   9.981   5.661
 4013POPC   GL251278   1.028   9.704   5.723
 4013POPC   C1A51279   1.401   9.919   6.102
 4013POPC   D2A51280   1.218   9.976   6.525
 4013POPC   C3A51281   1.301   9.851   6.953
 4013POPC   C4A51282   1.415   9.968   7.381
 4013POPC   C1B51283   0.871   9.882   6.136
 4013POPC   C2B51284   0.784   9.714   6.560
 4013POPC   C3B51285   0.899   9.497   6.951
 4013POPC   C4B51286   0.977   9.703   7.335
 4014POPC   NC351287  41.171   4.405   5.461
 4014POPC   PO451288  41.813   4.133   5.534
 4014POPC   GL151289  41.656   4.485   5.784
 4014POPC   GL251290  41.337   4.549   5.914
 4014POPC   C1A51291  41.759   4.669   6.174
 4014POPC   D2A51292  41.867   4.338   6.457
 4014POPC   C3A51293  41.694   4.376   6.821
 4014POPC   C4A51294  41.662   4.726   7.064
 4014POPC   C1B51295  41.335   4.440   6.370
 4014POPC   C2B51296  41.241   4.598   6.774
 4014POPC   C3B51297  41.295   4.363   7.128
 4014POPC   C4B51298  41.428   3.921   7.016
 4015POPC   NC351299  12.528  34.881   5.312
 4015POPC   PO451300  12.993  34.401   5.596
 4015POPC   GL151301  13.004  34.691   5.948
 4015POPC   GL251302  12.732  34.851   5.766
 4015POPC   C1A51303  13.168  34.589   6.357
 4015POPC   D2A51304  13.093  34.567   6.780
 4015POPC   C3A51305  12.743  34.358   6.927
 4015POPC   C4A51306  12.900  34.270   7.313
 4015POPC   C1B51307  12.545  34.836   6.142
 4015POPC   C2B51308  12.698  34.777   6.522
 4015POPC   C3B51309  12.586  34.845   6.901
 4015POPC   C4B51310  12.726  34.739   7.310
 4016POPC   NC351311  28.892  31.631   5.469
 4016POPC   PO451312  29.563  31.683   5.478
 4016POPC   GL151313  29.278  31.667   5.821
 4016POPC   GL251314  29.166  31.315   5.792
 4016POPC   C1A51315  29.384  31.651   6.262
 4016POPC   D2A51316  29.409  31.370   6.599
 4016POPC   C3A51317  29.458  31.532   6.959
 4016POPC   C4A51318  29.316  31.469   7.331
 4016POPC   C1B51319  29.013  31.308   6.200
 4016POPC   C2B51320  28.922  31.513   6.606
 4016POPC   C3B51321  29.035  31.259   6.939
 4016POPC   C4B51322  28.912  31.151   7.324
 4017POPC   NC351323  30.422  24.648   5.470
 4017POPC   PO451324  31.073  24.366   5.457
 4017POPC   GL151325  30.839  24.575   5.768
 4017POPC   GL251326  30.560  24.360   5.862
 4017POPC   C1A51327  30.804  24.699   6.197
 4017POPC   D2A51328  31.076  24.785   6.569
 4017POPC   C3A51329  30.901  24.714   7.003
 4017POPC   C4A51330  30.687  24.588   7.427
 4017POPC   C1B51331  30.732  24.195   6.241
 4017POPC   C2B51332  30.705  24.391   6.629
 4017POPC   C3B51333  30.604  24.279   7.030
 4017POPC   C4B51334  30.851  24.083   7.365
 4018POPC   NC351335  31.807   7.654   5.388
 4018POPC   PO451336  31.354   7.198   5.373
 4018POPC   GL151337  31.561   7.349   5.741
 4018POPC   GL251338  31.475   7.705   5.764
 4018POPC   C1A51339  31.570   7.224   6.168
 4018POPC   D2A51340  31.319   7.209   6.524
 4018POPC   C3A51341  31.534   7.193   6.916
 4018POPC   C4A51342  31.333   7.249   7.310
 4018POPC   C1B51343  31.577   7.812   6.154
 4018POPC   C2B51344  31.544   7.661   6.534
 4018POPC   C3B51345  31.719   7.712   6.906
 4018POPC   C4B51346  31.802   7.473   7.271
 4019POPC   NC351347   1.146  23.951   5.168
 4019POPC   PO451348   1.318  24.563   5.378
 4019POPC   GL151349   1.301  24.716   5.800
 4019POPC   GL251350   1.376  24.346   5.855
 4019POPC   C1A51351   1.358  24.641   6.256
 4019POPC   D2A51352   1.529  24.757   6.610
 4019POPC   C3A51353   1.528  24.491   6.923
 4019POPC   C4A51354   1.469  24.597   7.349
 4019POPC   C1B51355   1.101  24.211   6.215
 4019POPC   C2B51356   1.104  24.310   6.652
 4019POPC   C3B51357   1.041  24.514   7.049
 4019POPC   C4B51358   1.136  24.244   7.379
 4020POPC   NC351359  31.122  16.150   5.222
 4020POPC   PO451360  31.669  15.857   5.510
 4020POPC   GL151361  31.420  15.861   5.860
 4020POPC   GL251362  31.344  16.216   5.838
 4020POPC   C1A51363  31.452  15.679   6.278
 4020POPC   D2A51364  31.594  15.502   6.641
 4020POPC   C3A51365  31.437  15.707   6.980
 4020POPC   C4A51366  31.056  15.671   7.101
 4020POPC   C1B51367  31.194  16.144   6.256
 4020POPC   C2B51368  31.381  16.064   6.636
 4020POPC   C3B51369  31.470  16.240   7.035
 4020POPC   C4B51370  31.846  16.341   7.254
 4021POPC   NC351371  36.181  41.953   5.379
 4021POPC   PO451372  36.053  41.443   5.057
 4021POPC   GL151373  36.303  41.475   5.569
 4021POPC   GL251374  36.266  41.777   5.837
 4021POPC   C1A51375  36.126  41.332   6.040
 4021POPC   D2A51376  35.995  41.235   6.485
 4021POPC   C3A51377  36.338  41.213   6.782
 4021POPC   C4A51378  36.242  41.297   7.195
 4021POPC   C1B51379  36.089  41.784   6.286
 4021POPC   C2B51380  36.081  41.683   6.740
 4021POPC   C3B51381  36.096  41.800   7.173
 4021POPC   C4B51382  35.889  42.053   7.410
 4022POPC   NC351383  40.474  10.276   5.464
 4022POPC   PO451384  39.779  10.360   5.605
 4022POPC   GL151385  39.929  10.583   5.956
 4022POPC   GL251386  40.285  10.585   5.893
 4022POPC   C1A51387  40.069  10.518   6.363
 4022POPC   D2A51388  40.134  10.245   6.670
 4022POPC   C3A51389  40.061  10.358   7.024
 4022POPC   C4A51390  39.761  10.312   7.301
 4022POPC   C1B51391  40.397  10.863   6.224
 4022POPC   C2B51392  40.212  10.975   6.634
 4022POPC   C3B51393  40.171  10.847   7.072
 4022POPC   C4B51394  40.307  10.554   7.421
 4023POPC   NC351395  43.707   5.528   5.547
 4023POPC   PO451396  44.451   5.536   5.456
 4023POPC   GL151397  44.173   5.590   5.842
 4023POPC   GL251398  43.932   5.869   5.842
 4023POPC   C1A51399  44.112   5.708   6.300
 4023POPC   D2A51400  44.187   6.028   6.620
 4023POPC   C3A51401  44.143   6.008   7.072
 4023POPC   C4A51402  44.323   6.355   7.315
 4023POPC   C1B51403  43.626   5.707   6.155
 4023POPC   C2B51404  43.684   5.528   6.560
 4023POPC   C3B51405  43.681   5.715   6.976
 4023POPC   C4B51406  43.700   5.960   7.353
 4024POPC   NC351407   1.965  37.026   5.388
 4024POPC   PO451408   2.497  36.566   5.474
 4024POPC   GL151409   2.129  36.674   5.709
 4024POPC   GL251410   2.261  36.627   5.977
 4024POPC   C1A51411   1.906  36.968   6.061
 4024POPC   D2A51412   1.848  37.147   6.486
 4024POPC   C3A51413   1.894  36.960   6.897
 4024POPC   C4A51414   2.120  37.130   7.285
 4024POPC   C1B51415   2.511  36.523   6.299
 4024POPC   C2B51416   2.444  36.432   6.723
 4024POPC   C3B51417   2.312  36.713   7.037
 4024POPC   C4B51418   2.292  36.708   7.497
 4025POPC   NC351419  35.159  25.378   5.577
 4025POPC   PO451420  35.441  24.902   5.205
 4025POPC   GL151421  35.563  24.967   5.711
 4025POPC   GL251422  35.584  25.328   5.821
 4025POPC   C1A51423  35.414  25.003   6.185
 4025POPC   D2A51424  35.141  25.196   6.551
 4025POPC   C3A51425  35.230  25.056   6.989
 4025POPC   C4A51426  34.972  24.923   7.312
 4025POPC   C1B51427  35.429  25.522   6.209
 4025POPC   C2B51428  35.262  25.727   6.553
 4025POPC   C3B51429  35.051  25.604   6.923
 4025POPC   C4B51430  35.296  25.772   7.234
 4026POPC   NC351431   7.475   9.968   5.588
 4026POPC   PO451432   7.526   9.327   5.443
 4026POPC   GL151433   7.464   9.519   5.853
 4026POPC   GL251434   7.118   9.583   5.788
 4026POPC   C1A51435   7.431   9.840   6.230
 4026POPC   D2A51436   7.717  10.020   6.572
 4026POPC   C3A51437   7.573  10.030   7.007
 4026POPC   C4A51438   7.163  10.106   7.217
 4026POPC   C1B51439   7.092   9.433   6.211
 4026POPC   C2B51440   7.285   9.550   6.624
 4026POPC   C3B51441   7.259   9.619   7.067
 4026POPC   C4B51442   6.979   9.646   7.433
 4027POPC   NC351443  36.189  14.006   5.361
 4027POPC   PO451444  35.987  14.583   5.344
 4027POPC   GL151445  35.949  14.300   5.689
 4027POPC   GL251446  36.090  14.565   5.874
 4027POPC   C1A51447  35.832  14.181   6.099
 4027POPC   D2A51448  36.097  14.325   6.471
 4027POPC   C3A51449  35.968  14.210   6.896
 4027POPC   C4A51450  36.034  14.088   7.325
 4027POPC   C1B51451  36.462  14.647   6.115
 4027POPC   C2B51452  36.533  14.856   6.509
 4027POPC   C3B51453  36.425  14.604   6.857
 4027POPC   C4B51454  36.204  14.550   7.225
 4028POPC   NC351455  13.394  10.442   5.510
 4028POPC   PO451456  12.764  10.704   5.447
 4028POPC   GL151457  12.844  10.455   5.851
 4028POPC   GL251458  13.188  10.283   5.941
 4028POPC   C1A51459  12.915  10.475   6.310
 4028POPC   D2A51460  12.793  10.646   6.660
 4028POPC   C3A51461  12.877  10.338   6.941
 4028POPC   C4A51462  12.782  10.304   7.349
 4028POPC   C1B51463  13.277  10.728   6.074
 4028POPC   C2B51464  13.230  10.929   6.475
 4028POPC   C3B51465  13.227  10.810   6.896
 4028POPC   C4B51466  13.173  10.999   7.299
 4029POPC   NC351467  19.379  36.092   5.301
 4029POPC   PO451468  18.856  36.407   5.254
 4029POPC   GL151469  18.909  36.357   5.724
 4029POPC   GL251470  19.085  36.065   5.789
 4029POPC   C1A51471  18.859  36.239   6.202
 4029POPC   D2A51472  19.114  35.988   6.505
 4029POPC   C3A51473  19.065  35.917   6.950
 4029POPC   C4A51474  18.851  36.143   7.262
 4029POPC   C1B51475  19.355  36.314   6.065
 4029POPC   C2B51476  19.299  36.468   6.481
 4029POPC   C3B51477  19.419  36.311   6.850
 4029POPC   C4B51478  19.363  36.230   7.270
 4030POPC   NC351479  13.946  12.656   5.631
 4030POPC   PO451480  14.438  13.116   5.377
 4030POPC   GL151481  14.419  12.859   5.719
 4030POPC   GL251482  14.445  12.498   5.609
 4030POPC   C1A51483  14.453  12.979   6.162
 4030POPC   D2A51484  14.237  13.135   6.531
 4030POPC   C3A51485  14.421  13.071   6.875
 4030POPC   C4A51486  14.625  13.151   7.270
 4030POPC   C1B51487  14.365  12.481   6.081
 4030POPC   C2B51488  14.196  12.632   6.484
 4030POPC   C3B51489  14.335  12.555   6.891
 4030POPC   C4B51490  14.264  12.757   7.249
 4031POPC   NC351491  14.485  10.847   5.534
 4031POPC   PO451492  14.661  10.326   5.218
 4031POPC   GL151493  14.354  10.347   5.650
 4031POPC   GL251494  14.533  10.531   5.935
 4031POPC   C1A51495  14.222  10.202   6.130
 4031POPC   D2A51496  14.449  10.371   6.573
 4031POPC   C3A51497  14.347  10.203   7.007
 4031POPC   C4A51498  14.258  10.348   7.453
 4031POPC   C1B51499  14.660  10.741   6.288
 4031POPC   C2B51500  14.444  10.902   6.637
 4031POPC   C3B51501  14.437  10.707   7.024
 4031POPC   C4B51502  14.372  10.845   7.409
 4032POPC   NC351503  35.881  43.888   5.088
 4032POPC   PO451504  35.266  43.986   5.332
 4032POPC   GL151505  35.438  44.022   5.755
 4032POPC   GL251506  35.623  43.701   5.802
 4032POPC   C1A51507  35.290  44.133   6.183
 4032POPC   D2A51508  35.083  43.935   6.543
 4032POPC   C3A51509  35.256  44.042   6.932
 4032POPC   C4A51510  35.360  44.118   7.355
 4032POPC   C1B51511  35.374  43.645   6.187
 4032POPC   C2B51512  35.534  43.687   6.617
 4032POPC   C3B51513  35.313  43.464   6.945
 4032POPC   C4B51514  35.132  43.654   7.253
 4033POPC   NC351515  10.756  14.812   5.503
 4033POPC   PO451516  10.140  15.091   5.414
 4033POPC   GL151517  10.365  15.056   5.766
 4033POPC   GL251518  10.563  15.348   5.672
 4033POPC   C1A51519  10.476  14.930   6.209
 4033POPC   D2A51520  10.778  14.966   6.565
 4033POPC   C3A51521  10.584  14.898   6.980
 4033POPC   C4A51522  10.666  15.026   7.400
 4033POPC   C1B51523  10.721  15.353   6.093
 4033POPC   C2B51524  10.565  15.439   6.506
 4033POPC   C3B51525  10.712  15.388   6.904
 4033POPC   C4B51526  10.509  15.479   7.232
 4034POPC   NC351527   5.230   4.999   5.181
 4034POPC   PO451528   5.419   4.787   5.713
 4034POPC   GL151529   5.164   5.112   5.892
 4034POPC   GL251530   4.848   4.928   6.005
 4034POPC   C1A51531   4.998   5.357   6.252
 4034POPC   D2A51532   5.171   5.376   6.658
 4034POPC   C3A51533   5.040   5.209   7.019
 4034POPC   C4A51534   4.850   5.124   7.378
 4034POPC   C1B51535   5.159   4.851   6.319
 4034POPC   C2B51536   5.181   4.804   6.703
 4034POPC   C3B51537   5.455   4.865   6.986
 4034POPC   C4B51538   5.351   4.982   7.395
 4035POPC   NC351539  28.438  35.715   5.375
 4035POPC   PO451540  27.957  36.115   5.490
 4035POPC   GL151541  28.241  35.943   5.776
 4035POPC   GL251542  28.589  36.045   5.750
 4035POPC   C1A51543  28.321  35.850   6.186
 4035POPC   D2A51544  28.088  36.034   6.547
 4035POPC   C3A51545  28.315  36.003   6.917
 4035POPC   C4A51546  28.307  35.921   7.351
 4035POPC   C1B51547  28.419  36.335   6.072
 4035POPC   C2B51548  28.496  36.342   6.502
 4035POPC   C3B51549  28.614  36.449   6.913
 4035POPC   C4B51550  28.607  36.286   7.264
 4036POPC   NC351551  26.002  30.158   5.501
 4036POPC   PO451552  25.917  29.481   5.457
 4036POPC   GL151553  25.902  29.747   5.810
 4036POPC   GL251554  26.246  29.800   5.833
 4036POPC   C1A51555  25.960  29.765   6.276
 4036POPC   D2A51556  25.689  29.853   6.611
 4036POPC   C3A51557  25.833  29.963   6.993
 4036POPC   C4A51558  25.874  30.116   7.390
 4036POPC   C1B51559  26.242  30.159   6.139
 4036POPC   C2B51560  26.335  30.115   6.612
 4036POPC   C3B51561  26.310  30.142   7.075
 4036POPC   C4B51562  26.374  30.028   7.507
 4037POPC   NC351563   8.841  17.535   5.182
 4037POPC   PO451564   9.391  17.248   5.120
 4037POPC   GL151565   9.054  17.303   5.598
 4037POPC   GL251566   8.721  17.537   5.704
 4037POPC   C1A51567   8.947  17.261   6.111
 4037POPC   D2A51568   9.170  17.093   6.527
 4037POPC   C3A51569   9.025  17.234   6.945
 4037POPC   C4A51570   8.893  17.506   7.273
 4037POPC   C1B51571   8.626  17.735   6.135
 4037POPC   C2B51572   8.662  17.838   6.621
 4037POPC   C3B51573   8.946  17.952   7.024
 4037POPC   C4B51574   9.018  17.963   7.493
 4038POPC   NC351575   0.046   0.576   5.267
 4038POPC   PO451576   0.664   0.862   5.379
 4038POPC   GL151577   0.518   0.576   5.727
 4038POPC   GL251578   0.764   0.338   5.861
 4038POPC   C1A51579   0.318   0.455   6.144
 4038POPC   D2A51580   0.365   0.638   6.559
 4038POPC   C3A51581   0.416   0.345   6.896
 4038POPC   C4A51582   0.162   0.375   7.237
 4038POPC   C1B51583   0.761   0.661   6.208
 4038POPC   C2B51584   0.880   0.714   6.649
 4038POPC   C3B51585   0.633   0.769   7.044
 4038POPC   C4B51586   0.686   0.468   7.399
 4039POPC   NC351587   3.531  11.990   5.400
 4039POPC   PO451588   2.861  12.026   5.537
 4039POPC   GL151589   3.210  11.816   5.798
 4039POPC   GL251590   3.592  11.675   5.792
 4039POPC   C1A51591   3.454  11.978   6.171
 4039POPC   D2A51592   3.346  12.111   6.589
 4039POPC   C3A51593   3.483  12.403   6.872
 4039POPC   C4A51594   3.629  12.352   7.271
 4039POPC   C1B51595   3.842  11.621   6.190
 4039POPC   C2B51596   3.847  11.906   6.578
 4039POPC   C3B51597   3.644  11.883   6.978
 4039POPC   C4B51598   3.858  11.562   7.215
 4040POPC   NC351599  18.768  28.448   5.307
 4040POPC   PO451600  19.312  28.148   5.421
 4040POPC   GL151601  19.131  28.377   5.820
 4040POPC   GL251602  18.812  28.567   5.809
 4040POPC   C1A51603  18.937  28.364   6.264
 4040POPC   D2A51604  18.936  28.593   6.642
 4040POPC   C3A51605  19.017  28.447   7.075
 4040POPC   C4A51606  18.812  28.174   7.430
 4040POPC   C1B51607  18.619  28.812   6.168
 4040POPC   C2B51608  18.699  29.021   6.563
 4040POPC   C3B51609  18.682  28.830   7.017
 4040POPC   C4B51610  18.726  28.678   7.446
 4041POPC   NC351611  16.956  29.647   5.464
 4041POPC   PO451612  16.999  29.011   5.586
 4041POPC   GL151613  17.095  29.224   5.953
 4041POPC   GL251614  16.883  29.522   5.989
 4041POPC   C1A51615  16.975  29.041   6.330
 4041POPC   D2A51616  16.716  29.105   6.655
 4041POPC   C3A51617  16.862  29.112   7.061
 4041POPC   C4A51618  16.531  28.895   7.218
 4041POPC   C1B51619  16.453  29.392   6.180
 4041POPC   C2B51620  16.242  29.308   6.583
 4041POPC   C3B51621  16.410  29.382   6.996
 4041POPC   C4B51622  16.262  29.385   7.419
 4042POPC   NC351623  36.556  12.667   5.416
 4042POPC   PO451624  37.046  13.079   5.474
 4042POPC   GL151625  36.990  12.887   5.871
 4042POPC   GL251626  36.892  12.548   5.810
 4042POPC   C1A51627  36.832  12.831   6.307
 4042POPC   D2A51628  36.693  13.035   6.717
 4042POPC   C3A51629  36.973  12.897   7.041
 4042POPC   C4A51630  37.146  12.470   7.098
 4042POPC   C1B51631  36.662  12.333   6.137
 4042POPC   C2B51632  36.453  12.502   6.446
 4042POPC   C3B51633  36.717  12.507   6.789
 4042POPC   C4B51634  36.658  12.358   7.196
 4043POPC   NC351635  24.150   5.887   5.520
 4043POPC   PO451636  23.499   5.591   5.392
 4043POPC   GL151637  23.644   5.810   5.749
 4043POPC   GL251638  23.878   5.551   5.802
 4043POPC   C1A51639  23.733   6.055   6.155
 4043POPC   D2A51640  23.574   6.095   6.592
 4043POPC   C3A51641  23.845   6.147   6.955
 4043POPC   C4A51642  24.126   6.082   7.308
 4043POPC   C1B51643  23.675   5.544   6.211
 4043POPC   C2B51644  23.765   5.634   6.658
 4043POPC   C3B51645  23.760   5.671   7.107
 4043POPC   C4B51646  23.473   5.547   7.430
 4044POPC   NC351647  27.415  43.586   5.408
 4044POPC   PO451648  27.200  44.269   5.547
 4044POPC   GL151649  27.401  43.957   5.794
 4044POPC   GL251650  27.736  43.827   5.741
 4044POPC   C1A51651  27.352  43.861   6.202
 4044POPC   D2A51652  27.430  44.180   6.490
 4044POPC   C3A51653  27.363  44.045   6.886
 4044POPC   C4A51654  27.156  43.733   7.056
 4044POPC   C1B51655  27.819  44.043   6.126
 4044POPC   C2B51656  27.822  43.873   6.531
 4044POPC   C3B51657  27.718  43.666   6.869
 4044POPC   C4B51658  27.778  43.882   7.229
 4045POPC   NC351659   0.698  43.826   5.680
 4045POPC   PO451660   1.203  43.913   5.251
 4045POPC   GL151661   1.283  43.934   5.733
 4045POPC   GL251662   1.151  43.643   5.831
 4045POPC   C1A51663   1.340  43.980   6.214
 4045POPC   D2A51664   1.559  43.889   6.637
 4045POPC   C3A51665   1.323  43.974   7.039
 4045POPC   C4A51666   0.988  43.969   7.411
 4045POPC   C1B51667   0.997  43.558   6.238
 4045POPC   C2B51668   1.073  43.763   6.615
 4045POPC   C3B51669   0.953  43.644   6.997
 4045POPC   C4B51670   0.990  43.395   7.291
 4046POPC   NC351671  10.352   7.739   5.542
 4046POPC   PO451672  10.385   7.125   5.354
 4046POPC   GL151673  10.642   7.323   5.719
 4046POPC   GL251674  10.820   7.664   5.737
 4046POPC   C1A51675  10.577   7.129   6.115
 4046POPC   D2A51676  10.686   7.260   6.516
 4046POPC   C3A51677  10.460   7.220   6.904
 4046POPC   C4A51678  10.392   7.382   7.346
 4046POPC   C1B51679  10.616   7.687   6.172
 4046POPC   C2B51680  10.457   7.724   6.631
 4046POPC   C3B51681  10.680   7.675   7.024
 4046POPC   C4B51682  10.730   7.821   7.455
 4047POPC   NC351683   1.234  10.610   5.339
 4047POPC   PO451684   0.704  10.762   5.636
 4047POPC   GL151685   1.035  10.463   5.811
 4047POPC   GL251686   1.425  10.469   5.778
 4047POPC   C1A51687   1.176  10.450   6.249
 4047POPC   D2A51688   1.090  10.781   6.565
 4047POPC   C3A51689   0.985  10.646   6.973
 4047POPC   C4A51690   1.067  10.289   7.208
 4047POPC   C1B51691   1.555  10.786   6.048
 4047POPC   C2B51692   1.587  10.733   6.473
 4047POPC   C3B51693   1.497  10.774   6.907
 4047POPC   C4B51694   1.568  10.437   7.166
 4048POPC   NC351695  43.672  23.231   5.499
 4048POPC   PO451696  43.650  22.591   5.662
 4048POPC   GL151697  43.830  22.900   5.914
 4048POPC   GL251698  44.071  23.191   6.017
 4048POPC   C1A51699  43.703  23.024   6.299
 4048POPC   D2A51700  43.957  23.162   6.611
 4048POPC   C3A51701  43.842  22.941   6.948
 4048POPC   C4A51702  44.148  23.092   7.223
 4048POPC   C1B51703  44.172  22.791   6.279
 4048POPC   C2B51704  44.242  22.494   6.631
 4048POPC   C3B51705  44.194  22.581   7.078
 4048POPC   C4B51706  44.150  22.680   7.520
 4049POPC   NC351707   5.170  22.679   5.397
 4049POPC   PO451708   4.922  23.333   5.457
 4049POPC   GL151709   5.213  23.145   5.805
 4049POPC   GL251710   5.312  22.765   5.867
 4049POPC   C1A51711   5.094  23.049   6.239
 4049POPC   D2A51712   4.889  23.169   6.593
 4049POPC   C3A51713   5.064  23.116   6.993
 4049POPC   C4A51714   5.337  22.998   7.289
 4049POPC   C1B51715   5.069  22.533   6.220
 4049POPC   C2B51716   4.971  22.661   6.668
 4049POPC   C3B51717   5.127  22.587   7.096
 4049POPC   C4B51718   5.213  22.575   7.561
 4050POPC   NC351719  43.654   2.103   5.160
 4050POPC   PO451720  44.129   1.692   5.346
 4050POPC   GL151721  43.968   1.976   5.669
 4050POPC   GL251722  43.618   2.030   5.680
 4050POPC   C1A51723  43.870   1.941   6.119
 4050POPC   D2A51724  44.021   2.073   6.510
 4050POPC   C3A51725  43.768   1.996   6.859
 4050POPC   C4A51726  43.931   1.927   7.249
 4050POPC   C1B51727  43.536   2.318   6.035
 4050POPC   C2B51728  43.598   2.362   6.472
 4050POPC   C3B51729  43.530   2.501   6.864
 4050POPC   C4B51730  43.562   2.291   7.234
 4051POPC   NC351731  30.595  30.611   5.408
 4051POPC   PO451732  31.238  30.731   5.190
 4051POPC   GL151733  30.990  30.888   5.600
 4051POPC   GL251734  30.709  31.149   5.695
 4051POPC   C1A51735  30.860  30.824   6.068
 4051POPC   D2A51736  31.067  30.785   6.502
 4051POPC   C3A51737  30.857  30.895   6.915
 4051POPC   C4A51738  31.013  30.834   7.337
 4051POPC   C1B51739  30.589  31.264   6.170
 4051POPC   C2B51740  30.398  31.204   6.607
 4051POPC   C3B51741  30.350  31.183   7.055
 4051POPC   C4B51742  30.663  31.214   7.335
 4052POPC   NC351743   6.264  28.712   5.495
 4052POPC   PO451744   5.786  28.258   5.366
 4052POPC   GL151745   5.878  28.463   5.753
 4052POPC   GL251746   5.572  28.628   5.848
 4052POPC   C1A51747   6.077  28.639   6.146
 4052POPC   D2A51748   6.113  28.833   6.559
 4052POPC   C3A51749   5.899  28.599   6.829
 4052POPC   C4A51750   6.061  28.325   7.132
 4052POPC   C1B51751   5.652  28.308   6.167
 4052POPC   C2B51752   5.747  28.197   6.542
 4052POPC   C3B51753   5.647  28.110   6.949
 4052POPC   C4B51754   5.518  28.076   7.358
 4053POPC   NC351755  19.961   9.364   5.353
 4053POPC   PO451756  19.710   9.981   5.401
 4053POPC   GL151757  19.741   9.716   5.780
 4053POPC   GL251758  20.073   9.621   5.812
 4053POPC   C1A51759  19.651   9.837   6.233
 4053POPC   D2A51760  19.739  10.105   6.604
 4053POPC   C3A51761  19.666  10.036   7.045
 4053POPC   C4A51762  19.788   9.793   7.426
 4053POPC   C1B51763  20.036   9.501   6.252
 4053POPC   C2B51764  19.940   9.630   6.683
 4053POPC   C3B51765  19.719   9.466   7.039
 4053POPC   C4B51766  19.849   9.165   7.356
 4054POPC   NC351767  42.128  28.968   5.463
 4054POPC   PO451768  42.454  29.489   5.194
 4054POPC   GL151769  42.424  29.511   5.675
 4054POPC   GL251770  42.507  29.166   5.772
 4054POPC   C1A51771  42.563  29.508   6.128
 4054POPC   D2A51772  42.738  29.291   6.505
 4054POPC   C3A51773  42.481  29.276   6.850
 4054POPC   C4A51774  42.297  29.372   7.208
 4054POPC   C1B51775  42.477  28.952   6.195
 4054POPC   C2B51776  42.332  28.821   6.625
 4054POPC   C3B51777  42.153  28.914   7.015
 4054POPC   C4B51778  42.118  28.978   7.447
 4055POPC   NC351779  42.625  35.343   5.246
 4055POPC   PO451780  43.274  35.035   5.349
 4055POPC   GL151781  42.990  35.276   5.617
 4055POPC   GL251782  43.226  35.364   5.895
 4055POPC   C1A51783  42.751  35.269   6.017
 4055POPC   D2A51784  42.709  35.184   6.453
 4055POPC   C3A51785  43.057  35.393   6.716
 4055POPC   C4A51786  43.077  35.377   7.177
 4055POPC   C1B51787  43.419  35.101   6.212
 4055POPC   C2B51788  43.593  34.985   6.599
 4055POPC   C3B51789  43.416  35.065   7.003
 4055POPC   C4B51790  43.363  35.165   7.521
 4056POPC   NC351791  15.635  15.156   5.215
 4056POPC   PO451792  14.981  15.179   5.308
 4056POPC   GL151793  15.009  15.171   5.765
 4056POPC   GL251794  15.370  15.239   5.787
 4056POPC   C1A51795  15.119  15.040   6.204
 4056POPC   D2A51796  15.269  15.163   6.599
 4056POPC   C3A51797  15.203  15.034   7.010
 4056POPC   C4A51798  15.252  14.966   7.457
 4056POPC   C1B51799  15.491  15.441   6.190
 4056POPC   C2B51800  15.434  15.635   6.600
 4056POPC   C3B51801  15.428  15.518   7.027
 4056POPC   C4B51802  15.413  15.456   7.455
 4057POPC   NC351803  16.183  26.276   5.315
 4057POPC   PO451804  15.670  25.835   5.504
 4057POPC   GL151805  15.910  25.958   5.815
 4057POPC   GL251806  16.032  26.287   5.818
 4057POPC   C1A51807  15.974  25.868   6.216
 4057POPC   D2A51808  15.779  26.106   6.520
 4057POPC   C3A51809  15.867  26.109   6.956
 4057POPC   C4A51810  15.613  26.152   7.314
 4057POPC   C1B51811  16.256  26.309   6.216
 4057POPC   C2B51812  16.292  26.194   6.649
 4057POPC   C3B51813  16.308  26.405   7.047
 4057POPC   C4B51814  16.047  26.372   7.423
 4058POPC   NC351815  14.885  40.848   5.485
 4058POPC   PO451816  15.419  40.423   5.581
 4058POPC   GL151817  15.089  40.599   5.894
 4058POPC   GL251818  15.031  40.975   5.939
 4058POPC   C1A51819  15.065  40.676   6.345
 4058POPC   D2A51820  15.322  40.855   6.663
 4058POPC   C3A51821  15.246  40.657   7.027
 4058POPC   C4A51822  14.931  40.690   7.291
 4058POPC   C1B51823  15.221  41.169   6.265
 4058POPC   C2B51824  15.006  41.297   6.635
 4058POPC   C3B51825  15.011  41.121   7.036
 4058POPC   C4B51826  15.378  41.123   7.205
 4059POPC   NC351827  41.650  27.835   5.249
 4059POPC   PO451828  41.297  27.330   5.138
 4059POPC   GL151829  41.358  27.591   5.597
 4059POPC   GL251830  41.678  27.480   5.748
 4059POPC   C1A51831  41.384  27.697   6.104
 4059POPC   D2A51832  41.630  27.537   6.505
 4059POPC   C3A51833  41.603  27.726   6.944
 4059POPC   C4A51834  41.693  27.822   7.392
 4059POPC   C1B51835  41.494  27.204   6.103
 4059POPC   C2B51836  41.200  27.247   6.479
 4059POPC   C3B51837  41.375  27.252   6.905
 4059POPC   C4B51838  41.627  27.339   7.293
 4060POPC   NC351839  16.977  19.988   5.537
 4060POPC   PO451840  16.611  19.500   5.343
 4060POPC   GL151841  16.486  19.650   5.780
 4060POPC   GL251842  16.476  19.993   5.887
 4060POPC   C1A51843  16.590  19.669   6.253
 4060POPC   D2A51844  16.852  19.858   6.570
 4060POPC   C3A51845  16.718  19.692   6.962
 4060POPC   C4A51846  16.929  19.885   7.287
 4060POPC   C1B51847  16.311  20.120   6.260
 4060POPC   C2B51848  16.362  19.970   6.662
 4060POPC   C3B51849  16.562  20.163   6.995
 4060POPC   C4B51850  16.421  20.087   7.386
 4061POPC   NC351851  30.525  17.983   5.468
 4061POPC   PO451852  30.813  18.597   5.478
 4061POPC   GL151853  30.738  18.348   5.847
 4061POPC   GL251854  30.392  18.233   5.896
 4061POPC   C1A51855  30.825  18.270   6.282
 4061POPC   D2A51856  30.965  18.497   6.635
 4061POPC   C3A51857  30.821  18.283   6.957
 4061POPC   C4A51858  30.637  17.995   7.182
 4061POPC   C1B51859  30.364  18.480   6.272
 4061POPC   C2B51860  30.400  18.404   6.708
 4061POPC   C3B51861  30.334  18.521   7.116
 4061POPC   C4B51862  30.381  18.312   7.455
 4062POPC   NC351863   6.718  29.269   5.446
 4062POPC   PO451864   6.679  28.608   5.649
 4062POPC   GL151865   6.550  28.969   5.855
 4062POPC   GL251866   6.526  29.338   5.909
 4062POPC   C1A51867   6.540  28.948   6.266
 4062POPC   D2A51868   6.512  29.186   6.604
 4062POPC   C3A51869   6.617  29.053   6.996
 4062POPC   C4A51870   6.311  28.777   7.070
 4062POPC   C1B51871   6.775  29.471   6.267
 4062POPC   C2B51872   6.893  29.481   6.720
 4062POPC   C3B51873   6.719  29.543   7.139
 4062POPC   C4B51874   6.435  29.481   7.546
 4063POPC   NC351875  32.949  43.629   5.145
 4063POPC   PO451876  32.860  42.987   5.343
 4063POPC   GL151877  32.926  42.992   5.805
 4063POPC   GL251878  33.223  42.851   5.928
 4063POPC   C1A51879  32.989  43.279   6.178
 4063POPC   D2A51880  33.217  43.330   6.568
 4063POPC   C3A51881  33.048  43.196   6.969
 4063POPC   C4A51882  33.124  43.188   7.422
 4063POPC   C1B51883  32.986  42.796   6.291
 4063POPC   C2B51884  33.131  42.762   6.674
 4063POPC   C3B51885  33.213  42.682   7.131
 4063POPC   C4B51886  33.318  42.755   7.572
 4064POPC   NC351887  35.914  18.626   5.482
 4064POPC   PO451888  35.640  17.915   5.310
 4064POPC   GL151889  35.909  18.139   5.646
 4064POPC   GL251890  35.955  17.907   5.864
 4064POPC   C1A51891  36.216  18.315   6.006
 4064POPC   D2A51892  36.287  18.290   6.447
 4064POPC   C3A51893  36.036  18.526   6.746
 4064POPC   C4A51894  36.270  18.518   7.118
 4064POPC   C1B51895  35.802  18.064   6.255
 4064POPC   C2B51896  35.580  17.995   6.647
 4064POPC   C3B51897  35.722  18.017   7.079
 4064POPC   C4B51898  36.049  18.153   7.366
 4065POPC   NC351899  42.189  26.566   5.625
 4065POPC   PO451900  42.612  27.035   5.442
 4065POPC   GL151901  42.472  26.942   5.812
 4065POPC   GL251902  42.686  26.651   5.803
 4065POPC   C1A51903  42.342  27.002   6.221
 4065POPC   D2A51904  42.081  27.037   6.565
 4065POPC   C3A51905  42.376  27.012   6.886
 4065POPC   C4A51906  42.169  27.062   7.280
 4065POPC   C1B51907  42.862  26.934   6.135
 4065POPC   C2B51908  42.772  26.852   6.569
 4065POPC   C3B51909  42.780  26.669   6.971
 4065POPC   C4B51910  42.488  26.672   7.276
 4066POPC   NC351911  27.195  40.853   5.475
 4066POPC   PO451912  26.712  41.305   5.376
 4066POPC   GL151913  26.623  41.010   5.762
 4066POPC   GL251914  26.904  40.808   5.875
 4066POPC   C1A51915  26.569  40.899   6.225
 4066POPC   D2A51916  26.817  40.855   6.583
 4066POPC   C3A51917  26.666  40.606   6.916
 4066POPC   C4A51918  26.472  40.733   7.297
 4066POPC   C1B51919  27.144  40.648   6.218
 4066POPC   C2B51920  27.131  40.456   6.633
 4066POPC   C3B51921  27.217  40.620   7.005
 4066POPC   C4B51922  26.978  40.618   7.327
 4067POPC   NC351923  35.152   1.100   5.650
 4067POPC   PO451924  35.729   1.046   5.333
 4067POPC   GL151925  35.640   1.102   5.801
 4067POPC   GL251926  35.450   0.831   6.000
 4067POPC   C1A51927  35.442   1.295   6.209
 4067POPC   D2A51928  35.180   1.348   6.601
 4067POPC   C3A51929  35.406   1.178   6.955
 4067POPC   C4A51930  35.510   1.180   7.415
 4067POPC   C1B51931  35.061   0.965   6.268
 4067POPC   C2B51932  34.830   0.942   6.660
 4067POPC   C3B51933  35.019   0.893   7.066
 4067POPC   C4B51934  35.022   1.006   7.497
 4068POPC   NC351935  29.863  22.665   5.038
 4068POPC   PO451936  29.705  23.357   5.297
 4068POPC   GL151937  29.792  23.293   5.776
 4068POPC   GL251938  30.178  23.194   5.830
 4068POPC   C1A51939  29.878  23.219   6.253
 4068POPC   D2A51940  29.946  22.834   6.525
 4068POPC   C3A51941  29.895  22.995   6.948
 4068POPC   C4A51942  29.533  23.265   7.095
 4068POPC   C1B51943  30.356  23.016   6.213
 4068POPC   C2B51944  30.349  23.119   6.653
 4068POPC   C3B51945  30.362  23.189   7.116
 4068POPC   C4B51946  30.353  22.995   7.517
 4069POPC   NC351947  24.900  27.850   5.494
 4069POPC   PO451948  24.232  27.672   5.391
 4069POPC   GL151949  24.423  27.739   5.769
 4069POPC   GL251950  24.455  27.418   5.970
 4069POPC   C1A51951  24.536  27.872   6.172
 4069POPC   D2A51952  24.569  27.609   6.551
 4069POPC   C3A51953  24.549  27.815   6.950
 4069POPC   C4A51954  24.767  27.889   7.346
 4069POPC   C1B51955  24.303  27.219   6.281
 4069POPC   C2B51956  24.430  27.100   6.646
 4069POPC   C3B51957  24.756  27.262   6.917
 4069POPC   C4B51958  24.660  27.402   7.303
 4070POPC   NC351959  38.554   2.159   5.243
 4070POPC   PO451960  38.489   1.543   5.511
 4070POPC   GL151961  38.439   1.894   5.841
 4070POPC   GL251962  38.401   2.242   5.721
 4070POPC   C1A51963  38.494   2.065   6.291
 4070POPC   D2A51964  38.256   2.030   6.712
 4070POPC   C3A51965  38.466   1.702   7.048
 4070POPC   C4A51966  38.907   1.555   7.233
 4070POPC   C1B51967  38.210   2.482   6.055
 4070POPC   C2B51968  38.194   2.535   6.497
 4070POPC   C3B51969  38.361   2.488   6.909
 4070POPC   C4B51970  38.290   2.148   7.215
 4071POPC   NC351971   8.484  16.732   5.421
 4071POPC   PO451972   7.849  16.747   5.617
 4071POPC   GL151973   8.174  16.805   5.890
 4071POPC   GL251974   8.389  16.507   5.877
 4071POPC   C1A51975   8.088  16.872   6.322
 4071POPC   D2A51976   8.225  16.769   6.739
 4071POPC   C3A51977   8.103  17.044   7.074
 4071POPC   C4A51978   8.240  17.028   7.537
 4071POPC   C1B51979   8.073  16.343   6.181
 4071POPC   C2B51980   7.969  16.234   6.622
 4071POPC   C3B51981   8.239  16.302   6.996
 4071POPC   C4B51982   8.115  16.589   7.319
 4072POPC   NC351983  17.194   3.958   5.371
 4072POPC   PO451984  17.584   3.431   5.301
 4072POPC   GL151985  17.422   3.440   5.738
 4072POPC   GL251986  17.365   3.779   5.878
 4072POPC   C1A51987  17.556   3.375   6.167
 4072POPC   D2A51988  17.567   3.589   6.564
 4072POPC   C3A51989  17.790   3.390   6.885
 4072POPC   C4A51990  17.744   3.331   7.318
 4072POPC   C1B51991  17.188   3.838   6.315
 4072POPC   C2B51992  17.156   3.783   6.780
 4072POPC   C3B51993  17.370   3.648   7.141
 4072POPC   C4B51994  17.175   3.660   7.547
 4073POPC   NC351995   6.945   7.571   5.527
 4073POPC   PO451996   7.622   7.442   5.509
 4073POPC   GL151997   7.440   7.560   5.884
 4073POPC   GL251998   7.141   7.768   5.945
 4073POPC   C1A51999   7.402   7.447   6.318
 4073POPC   D2A52000   7.392   7.068   6.511
 4073POPC   C3A52001   7.130   7.138   6.865
 4073POPC   C4A52002   7.268   7.241   7.264
 4073POPC   C1B52003   7.201   7.902   6.350
 4073POPC   C2B52004   7.392   7.734   6.730
 4073POPC   C3B52005   7.380   7.726   7.140
 4073POPC   C4B52006   7.027   7.677   7.367
 4074POPC   NC352007   6.570  12.252   5.148
 4074POPC   PO452008   6.637  12.760   5.527
 4074POPC   GL152009   6.985  12.892   5.781
 4074POPC   GL252010   6.973  13.246   5.890
 4074POPC   C1A52011   6.923  12.776   6.202
 4074POPC   D2A52012   6.667  12.878   6.534
 4074POPC   C3A52013   6.839  12.675   6.850
 4074POPC   C4A52014   6.587  12.646   7.173
 4074POPC   C1B52015   7.000  13.264   6.349
 4074POPC   C2B52016   7.083  13.143   6.765
 4074POPC   C3B52017   6.834  13.116   7.151
 4074POPC   C4B52018   6.903  13.306   7.595
 4075POPC   NC352019   6.235  36.307   5.548
 4075POPC   PO452020   6.711  36.473   5.044
 4075POPC   GL152021   6.626  36.071   5.703
 4075POPC   GL252022   6.602  36.341   5.987
 4075POPC   C1A52023   6.373  35.936   6.110
 4075POPC   D2A52024   6.597  36.144   6.464
 4075POPC   C3A52025   6.632  36.065   6.877
 4075POPC   C4A52026   6.452  36.330   7.156
 4075POPC   C1B52027   6.933  36.536   6.218
 4075POPC   C2B52028   7.135  36.558   6.578
 4075POPC   C3B52029   7.151  36.248   6.832
 4075POPC   C4B52030   6.954  36.310   7.185
 4076POPC   NC352031   2.231  42.430   5.388
 4076POPC   PO452032   1.577  42.428   5.490
 4076POPC   GL152033   1.747  42.286   5.871
 4076POPC   GL252034   2.093  42.285   5.850
 4076POPC   C1A52035   1.867  42.435   6.278
 4076POPC   D2A52036   1.735  42.323   6.643
 4076POPC   C3A52037   2.016  42.090   6.851
 4076POPC   C4A52038   2.004  42.267   7.228
 4076POPC   C1B52039   2.209  42.714   6.004
 4076POPC   C2B52040   2.236  42.788   6.438
 4076POPC   C3B52041   2.200  42.582   6.813
 4076POPC   C4B52042   2.263  42.758   7.195
 4077POPC   NC352043  32.842  23.515   5.232
 4077POPC   PO452044  32.975  24.086   5.526
 4077POPC   GL152045  32.968  23.678   5.721
 4077POPC   GL252046  32.642  23.533   5.788
 4077POPC   C1A52047  33.199  23.570   6.087
 4077POPC   D2A52048  33.094  23.639   6.529
 4077POPC   C3A52049  33.374  23.742   6.873
 4077POPC   C4A52050  33.284  23.750   7.328
 4077POPC   C1B52051  32.713  23.779   6.182
 4077POPC   C2B52052  32.649  23.863   6.624
 4077POPC   C3B52053  32.870  23.865   7.026
 4077POPC   C4B52054  32.742  23.808   7.467
 4078POPC   NC352055  14.176  15.930   5.445
 4078POPC   PO452056  14.670  15.612   5.563
 4078POPC   GL152057  14.436  15.811   5.878
 4078POPC   GL252058  14.042  15.755   5.897
 4078POPC   C1A52059  14.626  15.998   6.220
 4078POPC   D2A52060  14.489  16.164   6.590
 4078POPC   C3A52061  14.467  15.800   6.847
 4078POPC   C4A52062  14.686  15.796   7.218
 4078POPC   C1B52063  14.113  16.123   6.168
 4078POPC   C2B52064  13.974  16.185   6.589
 4078POPC   C3B52065  13.929  15.824   6.852
 4078POPC   C4B52066  14.144  15.884   7.242
 4079POPC   NC352067  15.090  38.045   5.647
 4079POPC   PO452068  15.052  38.726   5.501
 4079POPC   GL152069  15.252  38.576   5.846
 4079POPC   GL252070  15.513  38.371   5.814
 4079POPC   C1A52071  15.317  38.645   6.258
 4079POPC   D2A52072  15.149  38.555   6.635
 4079POPC   C3A52073  15.364  38.725   6.966
 4079POPC   C4A52074  15.157  38.657   7.317
 4079POPC   C1B52075  15.421  38.152   6.197
 4079POPC   C2B52076  15.556  38.259   6.593
 4079POPC   C3B52077  15.398  38.172   6.959
 4079POPC   C4B52078  15.163  38.143   7.300
 4080POPC   NC352079  25.189  24.826   5.498
 4080POPC   PO452080  25.515  24.347   5.205
 4080POPC   GL152081  25.488  24.379   5.716
 4080POPC   GL252082  25.414  24.687   5.930
 4080POPC   C1A52083  25.262  24.263   6.138
 4080POPC   D2A52084  25.386  24.226   6.558
 4080POPC   C3A52085  25.112  24.195   6.912
 4080POPC   C4A52086  25.000  24.419   7.270
 4080POPC   C1B52087  25.622  24.684   6.328
 4080POPC   C2B52088  25.426  24.756   6.722
 4080POPC   C3B52089  25.434  24.694   7.145
 4080POPC   C4B52090  25.619  24.942   7.494
 4081POPC   NC352091   9.281  14.559   5.560
 4081POPC   PO452092   8.681  14.357   5.313
 4081POPC   GL152093   8.881  14.265   5.741
 4081POPC   GL252094   8.618  14.036   5.759
 4081POPC   C1A52095   9.069  14.393   6.163
 4081POPC   D2A52096   8.991  14.584   6.565
 4081POPC   C3A52097   9.200  14.525   6.946
 4081POPC   C4A52098   9.109  14.716   7.366
 4081POPC   C1B52099   8.531  14.331   6.101
 4081POPC   C2B52100   8.651  14.208   6.496
 4081POPC   C3B52101   8.550  14.389   6.848
 4081POPC   C4B52102   8.769  14.388   7.189
 4082POPC   NC352103  39.757  39.637   5.554
 4082POPC   PO452104  40.406  39.914   5.575
 4082POPC   GL152105  40.171  40.031   5.923
 4082POPC   GL252106  39.826  40.137   5.833
 4082POPC   C1A52107  40.174  40.230   6.321
 4082POPC   D2A52108  40.368  40.209   6.727
 4082POPC   C3A52109  40.115  39.971   6.977
 4082POPC   C4A52110  40.142  39.800   7.354
 4082POPC   C1B52111  39.749  39.844   6.184
 4082POPC   C2B52112  39.890  39.719   6.579
 4082POPC   C3B52113  39.682  39.683   6.974
 4082POPC   C4B52114  39.687  40.007   7.272
 4083POPC   NC352115  44.497  34.811   5.439
 4083POPC   PO452116   0.005  34.272   5.451
 4083POPC   GL152117  44.793  34.496   5.799
 4083POPC   GL252118  44.466  34.399   5.823
 4083POPC   C1A52119  44.861  34.656   6.234
 4083POPC   D2A52120  44.789  34.840   6.667
 4083POPC   C3A52121  44.900  34.646   7.050
 4083POPC   C4A52122  44.917  34.673   7.526
 4083POPC   C1B52123  44.373  34.708   6.149
 4083POPC   C2B52124  44.325  34.614   6.576
 4083POPC   C3B52125  44.367  34.753   6.996
 4083POPC   C4B52126  44.484  34.514   7.341
 4084POPC   NC352127  24.427  22.673   5.492
 4084POPC   PO452128  24.257  23.286   5.613
 4084POPC   GL152129  24.389  23.072   5.913
 4084POPC   GL252130  24.631  22.918   5.867
 4084POPC   C1A52131  24.407  23.040   6.337
 4084POPC   D2A52132  24.114  23.052   6.645
 4084POPC   C3A52133  24.151  23.259   7.005
 4084POPC   C4A52134  24.150  23.035   7.342
 4084POPC   C1B52135  24.841  22.758   6.204
 4084POPC   C2B52136  24.677  22.721   6.638
 4084POPC   C3B52137  24.520  22.891   7.029
 4084POPC   C4B52138  24.615  22.889   7.486
 4085POPC   NC352139  37.200   8.678   5.467
 4085POPC   PO452140  36.834   9.301   5.380
 4085POPC   GL152141  36.794   9.108   5.818
 4085POPC   GL252142  37.040   8.838   5.953
 4085POPC   C1A52143  36.607   9.016   6.235
 4085POPC   D2A52144  36.666   8.833   6.626
 4085POPC   C3A52145  36.548   9.052   6.996
 4085POPC   C4A52146  36.664   8.791   7.329
 4085POPC   C1B52147  37.083   9.184   6.268
 4085POPC   C2B52148  37.020   9.213   6.719
 4085POPC   C3B52149  37.115   9.164   7.155
 4085POPC   C4B52150  37.127   8.938   7.533
 4086POPC   NC352151   7.539   0.252   5.010
 4086POPC   PO452152   7.932   0.538   5.465
 4086POPC   GL152153   7.582   0.440   5.780
 4086POPC   GL252154   7.217   0.324   5.765
 4086POPC   C1A52155   7.584   0.336   6.231
 4086POPC   D2A52156   7.641   0.116   6.612
 4086POPC   C3A52157   7.642   0.402   6.962
 4086POPC   C4A52158   7.510   0.390   7.388
 4086POPC   C1B52159   7.109   0.506   6.178
 4086POPC   C2B52160   7.246   0.586   6.616
 4086POPC   C3B52161   7.139   0.566   7.063
 4086POPC   C4B52162   7.192   0.749   7.478
 4087POPC   NC352163  28.393  20.026   5.449
 4087POPC   PO452164  28.651  19.349   5.386
 4087POPC   GL152165  28.624  19.604   5.751
 4087POPC   GL252166  28.265  19.680   5.830
 4087POPC   C1A52167  28.616  19.617   6.206
 4087POPC   D2A52168  28.329  19.668   6.583
 4087POPC   C3A52169  28.475  19.565   7.014
 4087POPC   C4A52170  28.769  19.589   7.378
 4087POPC   C1B52171  28.370  20.054   6.100
 4087POPC   C2B52172  28.244  20.152   6.495
 4087POPC   C3B52173  28.291  20.090   6.914
 4087POPC   C4B52174  28.488  20.021   7.300
 4088POPC   NC352175   9.288  38.580   5.420
 4088POPC   PO452176   8.832  38.269   5.236
 4088POPC   GL152177   8.874  38.304   5.739
 4088POPC   GL252178   9.195  38.416   5.910
 4088POPC   C1A52179   8.823  38.384   6.256
 4088POPC   D2A52180   8.980  38.479   6.726
 4088POPC   C3A52181   8.737  38.601   7.129
 4088POPC   C4A52182   8.784  38.863   7.532
 4088POPC   C1B52183   9.313  38.609   6.334
 4088POPC   C2B52184   9.378  38.822   6.752
 4088POPC   C3B52185   9.160  38.910   7.152
 4088POPC   C4B52186   9.385  38.794   7.534
 4089POPC   NC352187  24.005   1.721   5.630
 4089POPC   PO452188  23.708   2.188   5.203
 4089POPC   GL152189  23.701   2.118   5.726
 4089POPC   GL252190  23.396   1.935   5.821
 4089POPC   C1A52191  23.949   2.013   6.194
 4089POPC   D2A52192  23.981   1.728   6.588
 4089POPC   C3A52193  23.921   1.973   7.000
 4089POPC   C4A52194  23.979   2.379   7.220
 4089POPC   C1B52195  23.559   1.691   6.201
 4089POPC   C2B52196  23.512   1.519   6.625
 4089POPC   C3B52197  23.508   1.663   7.050
 4089POPC   C4B52198  23.709   1.790   7.446
 4090POPC   NC352199  17.290  16.670   5.363
 4090POPC   PO452200  17.836  17.001   5.610
 4090POPC   GL152201  17.511  16.791   5.837
 4090POPC   GL252202  17.156  16.878   5.811
 4090POPC   C1A52203  17.531  16.737   6.272
 4090POPC   D2A52204  17.780  17.014   6.513
 4090POPC   C3A52205  17.611  16.947   6.893
 4090POPC   C4A52206  17.598  16.702   7.259
 4090POPC   C1B52207  17.017  16.663   6.203
 4090POPC   C2B52208  17.098  16.538   6.628
 4090POPC   C3B52209  17.135  16.754   7.022
 4090POPC   C4B52210  17.149  16.782   7.510
 4091POPC   NC352211  10.903  39.993   5.373
 4091POPC   PO452212  11.480  39.667   5.453
 4091POPC   GL152213  11.306  39.940   5.734
 4091POPC   GL252214  11.214  39.646   5.919
 4091POPC   C1A52215  11.278  40.099   6.166
 4091POPC   D2A52216  11.070  40.155   6.577
 4091POPC   C3A52217  11.300  40.246   6.957
 4091POPC   C4A52218  11.389  40.271   7.414
 4091POPC   C1B52219  11.192  39.480   6.337
 4091POPC   C2B52220  11.095  39.672   6.754
 4091POPC   C3B52221  11.192  39.809   7.193
 4091POPC   C4B52222  11.207  39.817   7.609
 4092POPC   NC352223   0.727  11.138   5.346
 4092POPC   PO452224   0.341  10.516   5.225
 4092POPC   GL152225   0.190  10.447   5.754
 4092POPC   GL252226   0.329  10.705   5.992
 4092POPC   C1A52227   0.163  10.286   6.200
 4092POPC   D2A52228   0.348  10.567   6.561
 4092POPC   C3A52229   0.499  10.446   7.007
 4092POPC   C4A52230   0.269  10.503   7.419
 4092POPC   C1B52231   0.657  10.392   6.185
 4092POPC   C2B52232   0.803  10.263   6.606
 4092POPC   C3B52233   0.736   9.991   6.983
 4092POPC   C4B52234   0.633  10.122   7.412
 4093POPC   NC352235  41.231  38.017   5.424
 4093POPC   PO452236  41.394  37.293   5.464
 4093POPC   GL152237  41.605  37.658   5.758
 4093POPC   GL252238  41.451  37.998   5.854
 4093POPC   C1A52239  41.822  37.816   6.140
 4093POPC   D2A52240  41.991  37.560   6.486
 4093POPC   C3A52241  41.895  37.759   6.884
 4093POPC   C4A52242  41.674  37.668   7.232
 4093POPC   C1B52243  41.301  37.901   6.206
 4093POPC   C2B52244  41.490  37.731   6.549
 4093POPC   C3B52245  41.315  37.833   6.919
 4093POPC   C4B52246  41.191  37.760   7.321
 4094POPC   NC352247  27.279   3.387   5.514
 4094POPC   PO452248  27.678   3.609   5.157
 4094POPC   GL152249  27.696   3.598   5.717
 4094POPC   GL252250  27.446   3.791   5.875
 4094POPC   C1A52251  27.856   3.796   6.147
 4094POPC   D2A52252  27.619   3.790   6.545
 4094POPC   C3A52253  27.866   3.748   6.913
 4094POPC   C4A52254  27.750   3.708   7.333
 4094POPC   C1B52255  27.464   3.445   6.176
 4094POPC   C2B52256  27.326   3.365   6.593
 4094POPC   C3B52257  27.432   3.403   7.019
 4094POPC   C4B52258  27.457   3.287   7.455
 4095POPC   NC352259   2.370   7.613   5.610
 4095POPC   PO452260   2.874   7.236   5.421
 4095POPC   GL152261   2.869   7.383   5.841
 4095POPC   GL252262   2.781   7.679   5.925
 4095POPC   C1A52263   2.727   7.222   6.234
 4095POPC   D2A52264   2.889   7.001   6.605
 4095POPC   C3A52265   2.752   7.292   6.920
 4095POPC   C4A52266   2.863   7.589   7.231
 4095POPC   C1B52267   2.957   7.724   6.320
 4095POPC   C2B52268   2.676   7.801   6.637
 4095POPC   C3B52269   2.431   7.776   6.993
 4095POPC   C4B52270   2.346   7.517   7.329
 4096POPC   NC352271  29.993  39.562   5.493
 4096POPC   PO452272  29.716  38.905   5.604
 4096POPC   GL152273  29.908  39.070   5.960
 4096POPC   GL252274  29.589  38.874   6.100
 4096POPC   C1A52275  29.921  39.508   6.172
 4096POPC   D2A52276  29.786  39.614   6.615
 4096POPC   C3A52277  30.010  39.508   7.023
 4096POPC   C4A52278  30.063  39.239   7.413
 4096POPC   C1B52279  29.642  39.170   6.399
 4096POPC   C2B52280  30.066  39.156   6.541
 4096POPC   C3B52281  30.075  38.997   6.915
 4096POPC   C4B52282  29.711  39.098   7.087
 4097POPC   NC352283  40.935  37.322   5.369
 4097POPC   PO452284  40.746  37.923   5.481
 4097POPC   GL152285  40.904  37.881   5.863
 4097POPC   GL252286  41.100  37.611   5.772
 4097POPC   C1A52287  40.746  37.905   6.289
 4097POPC   D2A52288  40.536  37.811   6.685
 4097POPC   C3A52289  40.784  37.784   7.014
 4097POPC   C4A52290  40.724  37.979   7.358
 4097POPC   C1B52291  41.058  37.465   6.189
 4097POPC   C2B52292  40.995  37.555   6.611
 4097POPC   C3B52293  41.104  37.365   7.009
 4097POPC   C4B52294  40.839  37.358   7.363
 4098POPC   NC352295  40.854  27.444   5.199
 4098POPC   PO452296  40.239  27.388   5.458
 4098POPC   GL152297  40.545  27.521   5.789
 4098POPC   GL252298  40.884  27.429   5.746
 4098POPC   C1A52299  40.741  27.765   6.150
 4098POPC   D2A52300  40.790  27.591   6.583
 4098POPC   C3A52301  41.072  27.705   6.936
 4098POPC   C4A52302  40.856  27.745   7.339
 4098POPC   C1B52303  40.762  27.248   6.172
 4098POPC   C2B52304  40.715  27.075   6.595
 4098POPC   C3B52305  40.755  27.301   7.015
 4098POPC   C4B52306  41.085  27.223   7.329
 4099POPC   NC352307  15.598  38.760   5.483
 4099POPC   PO452308  16.272  38.477   5.434
 4099POPC   GL152309  16.026  38.386   5.775
 4099POPC   GL252310  16.007  38.715   5.809
 4099POPC   C1A52311  15.835  38.458   6.200
 4099POPC   D2A52312  16.045  38.419   6.589
 4099POPC   C3A52313  15.826  38.484   6.978
 4099POPC   C4A52314  15.609  38.412   7.360
 4099POPC   C1B52315  16.238  38.765   6.203
 4099POPC   C2B52316  16.496  38.680   6.568
 4099POPC   C3B52317  16.245  38.771   6.926
 4099POPC   C4B52318  16.211  38.653   7.313
 4100POPC   NC352319  43.834  34.358   5.168
 4100POPC   PO452320  43.972  33.745   5.335
 4100POPC   GL152321  44.214  33.772   5.728
 4100POPC   GL252322  43.897  33.870   5.877
 4100POPC   C1A52323  44.290  33.756   6.193
 4100POPC   D2A52324  44.019  33.610   6.540
 4100POPC   C3A52325  44.114  33.729   6.959
 4100POPC   C4A52326  43.990  33.764   7.393
 4100POPC   C1B52327  43.587  34.103   6.104
 4100POPC   C2B52328  43.492  34.103   6.524
 4100POPC   C3B52329  43.637  33.885   6.859
 4100POPC   C4B52330  43.616  34.081   7.240
 4101POPC   NC352331  10.365  25.524   5.358
 4101POPC   PO452332  10.993  25.244   5.538
 4101POPC   GL152333  10.567  25.213   5.733
 4101POPC   GL252334  10.232  25.410   5.848
 4101POPC   C1A52335  10.639  25.271   6.168
 4101POPC   D2A52336  10.759  25.431   6.578
 4101POPC   C3A52337  10.583  25.162   6.873
 4101POPC   C4A52338  10.282  25.240   7.160
 4101POPC   C1B52339  10.166  25.369   6.317
 4101POPC   C2B52340  10.236  25.542   6.738
 4101POPC   C3B52341  10.150  25.734   7.183
 4101POPC   C4B52342  10.124  25.514   7.620
 4102POPC   NC352343  26.383   3.020   5.600
 4102POPC   PO452344  25.952   2.578   5.327
 4102POPC   GL152345  25.848   2.629   5.798
 4102POPC   GL252346  26.094   2.842   5.956
 4102POPC   C1A52347  25.774   2.669   6.283
 4102POPC   D2A52348  26.026   2.864   6.618
 4102POPC   C3A52349  26.012   2.653   7.045
 4102POPC   C4A52350  25.653   2.394   7.160
 4102POPC   C1B52351  26.344   2.606   6.255
 4102POPC   C2B52352  26.418   2.546   6.689
 4102POPC   C3B52353  26.435   2.921   6.920
 4102POPC   C4B52354  26.317   3.036   7.337
 4103POPC   NC352355   9.136  36.941   5.242
 4103POPC   PO452356   8.595  36.564   5.498
 4103POPC   GL152357   8.882  36.713   5.812
 4103POPC   GL252358   9.209  36.851   5.743
 4103POPC   C1A52359   8.932  36.767   6.255
 4103POPC   D2A52360   9.092  36.667   6.662
 4103POPC   C3A52361   8.856  36.624   7.030
 4103POPC   C4A52362   8.701  36.732   7.439
 4103POPC   C1B52363   9.310  37.102   6.112
 4103POPC   C2B52364   9.175  37.163   6.534
 4103POPC   C3B52365   9.011  37.124   6.954
 4103POPC   C4B52366   9.126  37.030   7.375
 4104POPC   NC352367  38.251  24.662   5.428
 4104POPC   PO452368  38.258  24.029   5.374
 4104POPC   GL152369  38.544  24.152   5.727
 4104POPC   GL252370  38.636  24.512   5.751
 4104POPC   C1A52371  38.668  24.135   6.170
 4104POPC   D2A52372  38.395  24.296   6.495
 4104POPC   C3A52373  38.513  24.397   6.914
 4104POPC   C4A52374  38.255  24.423   7.284
 4104POPC   C1B52375  38.782  24.645   6.165
 4104POPC   C2B52376  38.675  24.761   6.586
 4104POPC   C3B52377  38.859  24.750   7.007
 4104POPC   C4B52378  38.780  24.464   7.395
 4105POPC   NC352379  16.386  12.555   5.507
 4105POPC   PO452380  17.047  12.654   5.537
 4105POPC   GL152381  16.741  12.673   5.850
 4105POPC   GL252382  16.490  12.956   5.822
 4105POPC   C1A52383  16.525  12.561   6.224
 4105POPC   D2A52384  16.496  12.759   6.614
 4105POPC   C3A52385  16.734  12.677   6.987
 4105POPC   C4A52386  16.626  12.704   7.421
 4105POPC   C1B52387  16.742  13.025   6.206
 4105POPC   C2B52388  16.832  13.128   6.622
 4105POPC   C3B52389  16.603  13.165   6.992
 4105POPC   C4B52390  16.865  13.159   7.335
 4106POPC   NC352391  36.809  37.889   5.401
 4106POPC   PO452392  36.693  37.196   5.353
 4106POPC   GL152393  36.803  37.430   5.727
 4106POPC   GL252394  36.944  37.766   5.866
 4106POPC   C1A52395  36.964  37.343   6.144
 4106POPC   D2A52396  36.872  37.611   6.490
 4106POPC   C3A52397  36.981  37.441   6.907
 4106POPC   C4A52398  36.749  37.397   7.291
 4106POPC   C1B52399  36.634  38.064   6.044
 4106POPC   C2B52400  36.730  38.165   6.441
 4106POPC   C3B52401  36.905  38.000   6.822
 4106POPC   C4B52402  36.749  37.922   7.222
 4107POPC   NC352403   4.034  44.838   5.458
 4107POPC   PO452404   4.639  44.417   5.498
 4107POPC   GL152405   4.408  44.649   5.781
 4107POPC   GL252406   4.106  44.456   5.861
 4107POPC   C1A52407   4.487  44.812   6.181
 4107POPC   D2A52408   4.309  44.683   6.545
 4107POPC   C3A52409   4.417  44.596   6.947
 4107POPC   C4A52410   4.443  44.215   7.217
 4107POPC   C1B52411   3.980  44.810   6.115
 4107POPC   C2B52412   3.910  44.971   6.504
 4107POPC   C3B52413   4.112   0.064   6.856
 4107POPC   C4B52414   3.989  44.944   7.247
 4108POPC   NC352415  19.842  17.946   5.468
 4108POPC   PO452416  19.650  18.592   5.532
 4108POPC   GL152417  19.868  18.317   5.804
 4108POPC   GL252418  20.200  18.261   5.690
 4108POPC   C1A52419  19.898  18.121   6.176
 4108POPC   D2A52420  19.820  18.353   6.571
 4108POPC   C3A52421  19.880  18.139   6.953
 4108POPC   C4A52422  19.764  18.116   7.374
 4108POPC   C1B52423  20.328  18.470   6.073
 4108POPC   C2B52424  20.456  18.473   6.511
 4108POPC   C3B52425  20.241  18.507   6.906
 4108POPC   C4B52426  19.915  18.578   7.238
 4109POPC   NC352427  39.643  40.987   5.319
 4109POPC   PO452428  39.064  40.749   5.435
 4109POPC   GL152429  39.424  40.731   5.707
 4109POPC   GL252430  39.478  41.069   5.804
 4109POPC   C1A52431  39.585  40.556   6.079
 4109POPC   D2A52432  39.484  40.525   6.522
 4109POPC   C3A52433  39.169  40.598   6.868
 4109POPC   C4A52434  39.309  40.742   7.261
 4109POPC   C1B52435  39.225  40.927   6.153
 4109POPC   C2B52436  39.312  41.029   6.583
 4109POPC   C3B52437  39.106  41.108   6.964
 4109POPC   C4B52438  39.154  41.196   7.415
 4110POPC   NC352439  43.378  18.705   5.479
 4110POPC   PO452440  43.144  19.307   5.360
 4110POPC   GL152441  43.092  19.086   5.798
 4110POPC   GL252442  42.745  19.025   5.933
 4110POPC   C1A52443  43.242  18.965   6.227
 4110POPC   D2A52444  43.467  18.792   6.606
 4110POPC   C3A52445  43.403  18.973   7.027
 4110POPC   C4A52446  43.307  18.808   7.429
 4110POPC   C1B52447  42.776  18.733   6.231
 4110POPC   C2B52448  42.937  18.702   6.609
 4110POPC   C3B52449  42.871  18.909   6.963
 4110POPC   C4B52450  42.810  18.743   7.317
 4111POPC   NC352451  38.253  18.036   5.591
 4111POPC   PO452452  38.560  18.532   5.294
 4111POPC   GL152453  38.479  18.438   5.730
 4111POPC   GL252454  38.767  18.382   5.793
 4111POPC   C1A52455  38.202  18.356   6.153
 4111POPC   D2A52456  38.258  18.220   6.582
 4111POPC   C3A52457  38.072  18.477   6.924
 4111POPC   C4A52458  38.290  18.319   7.278
 4111POPC   C1B52459  38.671  18.168   6.179
 4111POPC   C2B52460  38.827  18.134   6.565
 4111POPC   C3B52461  38.704  18.064   6.968
 4111POPC   C4B52462  38.818  18.297   7.286
 4112POPC   NC352463   5.166  25.444   5.459
 4112POPC   PO452464   4.566  25.310   5.549
 4112POPC   GL152465   4.868  25.273   5.873
 4112POPC   GL252466   5.037  24.992   5.736
 4112POPC   C1A52467   4.954  25.303   6.335
 4112POPC   D2A52468   4.896  25.224   6.782
 4112POPC   C3A52469   5.113  25.458   7.075
 4112POPC   C4A52470   5.278  25.385   7.462
 4112POPC   C1B52471   5.289  24.991   6.093
 4112POPC   C2B52472   5.195  24.867   6.524
 4112POPC   C3B52473   5.310  24.940   6.945
 4112POPC   C4B52474   5.147  24.900   7.337
 4113POPC   NC352475   0.732  14.816   5.446
 4113POPC   PO452476   0.123  14.908   5.418
 4113POPC   GL152477   0.292  14.517   5.674
 4113POPC   GL252478   0.641  14.483   5.810
 4113POPC   C1A52479   0.302  14.268   6.106
 4113POPC   D2A52480   0.250  14.417   6.536
 4113POPC   C3A52481   0.371  14.197   6.887
 4113POPC   C4A52482   0.260  14.314   7.301
 4113POPC   C1B52483   0.801  14.447   6.239
 4113POPC   C2B52484   0.698  14.632   6.618
 4113POPC   C3B52485   0.525  14.671   6.999
 4113POPC   C4B52486   0.746  14.480   7.319
 4114POPC   NC352487  14.964   6.868   5.482
 4114POPC   PO452488  15.442   6.398   5.509
 4114POPC   GL152489  15.182   6.601   5.852
 4114POPC   GL252490  14.811   6.541   5.852
 4114POPC   C1A52491  15.267   6.759   6.244
 4114POPC   D2A52492  15.582   6.624   6.528
 4114POPC   C3A52493  15.477   6.658   6.954
 4114POPC   C4A52494  15.297   6.606   7.344
 4114POPC   C1B52495  14.895   6.417   6.285
 4114POPC   C2B52496  15.040   6.593   6.672
 4114POPC   C3B52497  14.886   6.720   7.067
 4114POPC   C4B52498  15.108   7.061   7.218
 4115POPC   NC352499   9.751   7.251   5.581
 4115POPC   PO452500   9.763   6.615   5.425
 4115POPC   GL152501   9.860   6.792   5.816
 4115POPC   GL252502   9.538   6.973   5.960
 4115POPC   C1A52503  10.003   6.964   6.207
 4115POPC   D2A52504   9.714   7.008   6.542
 4115POPC   C3A52505   9.693   6.771   6.928
 4115POPC   C4A52506   9.508   6.926   7.348
 4115POPC   C1B52507   9.592   6.599   6.232
 4115POPC   C2B52508   9.524   6.373   6.625
 4115POPC   C3B52509   9.684   6.254   7.015
 4115POPC   C4B52510   9.767   6.508   7.377
 4116POPC   NC352511  23.894  44.198   5.339
 4116POPC   PO452512  23.777  44.760   5.405
 4116POPC   GL152513  23.905  44.536   5.758
 4116POPC   GL252514  23.623  44.315   5.771
 4116POPC   C1A52515  23.866  44.625   6.201
 4116POPC   D2A52516  23.652  44.521   6.586
 4116POPC   C3A52517  23.758  44.655   7.003
 4116POPC   C4A52518  24.126  44.792   7.246
 4116POPC   C1B52519  23.451  44.293   6.159
 4116POPC   C2B52520  23.315  44.149   6.578
 4116POPC   C3B52521  23.375  44.276   7.007
 4116POPC   C4B52522  23.465  44.409   7.412
 4117POPC   NC352523  44.087  25.755   5.341
 4117POPC   PO452524  44.782  25.889   5.258
 4117POPC   GL152525  44.564  26.000   5.679
 4117POPC   GL252526  44.285  25.793   5.800
 4117POPC   C1A52527  44.698  26.039   6.139
 4117POPC   D2A52528  44.680  26.344   6.491
 4117POPC   C3A52529  44.643  26.237   6.953
 4117POPC   C4A52530  44.596  26.233   7.435
 4117POPC   C1B52531  44.205  26.124   6.068
 4117POPC   C2B52532  44.198  26.100   6.489
 4117POPC   C3B52533  44.194  25.971   6.921
 4117POPC   C4B52534  44.141  26.272   7.239
 4118POPC   NC352535  22.705  35.190   5.367
 4118POPC   PO452536  23.286  35.498   5.310
 4118POPC   GL152537  23.077  35.270   5.703
 4118POPC   GL252538  22.805  35.508   5.765
 4118POPC   C1A52539  22.911  35.200   6.166
 4118POPC   D2A52540  22.796  35.287   6.608
 4118POPC   C3A52541  22.831  35.082   7.003
 4118POPC   C4A52542  22.988  35.367   7.309
 4118POPC   C1B52543  22.840  35.714   6.161
 4118POPC   C2B52544  22.809  35.873   6.553
 4118POPC   C3B52545  22.912  35.703   6.929
 4118POPC   C4B52546  22.757  35.837   7.344
 4119POPC   NC352547  41.108  39.010   5.403
 4119POPC   PO452548  40.497  39.220   5.317
 4119POPC   GL152549  40.594  39.231   5.765
 4119POPC   GL252550  40.951  39.265   5.884
 4119POPC   C1A52551  40.608  38.984   6.163
 4119POPC   D2A52552  40.851  39.076   6.523
 4119POPC   C3A52553  40.683  39.202   6.922
 4119POPC   C4A52554  40.865  39.144   7.330
 4119POPC   C1B52555  40.675  39.498   6.202
 4119POPC   C2B52556  40.405  39.749   6.467
 4119POPC   C3B52557  40.566  39.724   6.865
 4119POPC   C4B52558  40.580  39.571   7.301
 4120POPC   NC352559  32.387  41.225   5.098
 4120POPC   PO452560  32.023  40.717   5.384
 4120POPC   GL152561  32.282  40.679   5.750
 4120POPC   GL252562  32.447  40.985   5.762
 4120POPC   C1A52563  32.378  40.500   6.151
 4120POPC   D2A52564  32.478  40.654   6.561
 4120POPC   C3A52565  32.282  40.607   6.975
 4120POPC   C4A52566  32.431  40.624   7.399
 4120POPC   C1B52567  32.231  40.977   6.181
 4120POPC   C2B52568  32.236  41.232   6.514
 4120POPC   C3B52569  32.488  41.090   6.849
 4120POPC   C4B52570  32.273  41.070   7.230
 4121POPC   NC352571  14.889  39.179   5.427
 4121POPC   PO452572  15.538  39.161   5.270
 4121POPC   GL152573  15.293  39.123   5.738
 4121POPC   GL252574  14.953  38.994   5.913
 4121POPC   C1A52575  15.285  39.279   6.175
 4121POPC   D2A52576  15.353  39.063   6.558
 4121POPC   C3A52577  15.284  39.263   6.925
 4121POPC   C4A52578  15.334  39.139   7.342
 4121POPC   C1B52579  14.885  38.928   6.369
 4121POPC   C2B52580  14.887  38.941   6.842
 4121POPC   C3B52581  14.846  39.061   7.271
 4121POPC   C4B52582  14.831  38.852   7.691
 4122POPC   NC352583  30.877  39.878   5.507
 4122POPC   PO452584  30.362  40.168   5.535
 4122POPC   GL152585  30.631  40.203   5.845
 4122POPC   GL252586  30.568  39.855   5.925
 4122POPC   C1A52587  30.575  40.244   6.277
 4122POPC   D2A52588  30.544  40.052   6.659
 4122POPC   C3A52589  30.786  40.193   6.949
 4122POPC   C4A52590  30.643  40.148   7.328
 4122POPC   C1B52591  30.740  39.760   6.297
 4122POPC   C2B52592  30.828  39.607   6.664
 4122POPC   C3B52593  30.731  39.706   7.050
 4122POPC   C4B52594  30.901  39.597   7.422
 4123POPC   NC352595  25.264   7.027   5.392
 4123POPC   PO452596  24.805   6.485   5.346
 4123POPC   GL152597  24.867   6.602   5.791
 4123POPC   GL252598  24.934   6.916   5.855
 4123POPC   C1A52599  25.279   6.600   6.099
 4123POPC   D2A52600  25.539   6.714   6.480
 4123POPC   C3A52601  25.468   6.833   6.899
 4123POPC   C4A52602  25.210   6.701   7.214
 4123POPC   C1B52603  24.843   6.777   6.283
 4123POPC   C2B52604  24.983   6.746   6.686
 4123POPC   C3B52605  24.847   6.467   6.950
 4123POPC   C4B52606  24.758   6.500   7.379
 4124POPC   NC352607   3.535  30.985   5.253
 4124POPC   PO452608   3.994  30.524   5.480
 4124POPC   GL152609   3.638  30.638   5.707
 4124POPC   GL252610   3.877  30.772   5.930
 4124POPC   C1A52611   3.288  30.510   5.991
 4124POPC   D2A52612   3.334  30.379   6.433
 4124POPC   C3A52613   3.438  30.610   6.821
 4124POPC   C4A52614   3.268  30.570   7.201
 4124POPC   C1B52615   3.582  30.838   6.223
 4124POPC   C2B52616   3.785  30.863   6.560
 4124POPC   C3B52617   3.825  31.041   6.934
 4124POPC   C4B52618   3.492  31.024   7.172
 4125POPC   NC352619  36.580  15.821   5.664
 4125POPC   PO452620  37.181  16.169   5.479
 4125POPC   GL152621  36.955  16.110   5.845
 4125POPC   GL252622  37.091  15.781   5.845
 4125POPC   C1A52623  36.779  15.936   6.275
 4125POPC   D2A52624  36.581  15.893   6.675
 4125POPC   C3A52625  36.772  15.975   7.098
 4125POPC   C4A52626  36.872  16.072   7.544
 4125POPC   C1B52627  37.209  15.616   6.240
 4125POPC   C2B52628  37.023  15.498   6.632
 4125POPC   C3B52629  37.134  15.634   7.035
 4125POPC   C4B52630  37.212  15.723   7.461
 4126POPC   NC352631  41.196  42.586   5.491
 4126POPC   PO452632  41.829  42.317   5.308
 4126POPC   GL152633  41.788  42.344   5.751
 4126POPC   GL252634  41.706  42.687   5.677
 4126POPC   C1A52635  41.535  42.197   6.139
 4126POPC   D2A52636  41.313  42.286   6.537
 4126POPC   C3A52637  41.435  42.153   6.948
 4126POPC   C4A52638  41.639  42.202   7.357
 4126POPC   C1B52639  41.747  42.695   6.133
 4126POPC   C2B52640  41.850  42.444   6.512
 4126POPC   C3B52641  41.823  42.510   6.966
 4126POPC   C4B52642  41.566  42.724   7.292
 4127POPC   NC352643  18.393   9.979   5.290
 4127POPC   PO452644  18.071   9.433   5.399
 4127POPC   GL152645  18.204   9.701   5.750
 4127POPC   GL252646  18.169  10.084   5.793
 4127POPC   C1A52647  18.229   9.550   6.175
 4127POPC   D2A52648  18.028   9.646   6.553
 4127POPC   C3A52649  18.299   9.773   6.872
 4127POPC   C4A52650  18.345   9.650   7.278
 4127POPC   C1B52651  18.533   9.956   6.061
 4127POPC   C2B52652  18.700   9.941   6.479
 4127POPC   C3B52653  18.762  10.058   6.898
 4127POPC   C4B52654  18.749   9.952   7.325
 4128POPC   NC352655   1.072  28.020   5.530
 4128POPC   PO452656   1.647  28.365   5.633
 4128POPC   GL152657   1.413  28.096   5.925
 4128POPC   GL252658   1.115  28.294   5.984
 4128POPC   C1A52659   1.405  28.130   6.386
 4128POPC   D2A52660   1.366  28.441   6.737
 4128POPC   C3A52661   1.616  28.407   7.121
 4128POPC   C4A52662   1.641  28.294   7.578
 4128POPC   C1B52663   0.965  27.924   6.191
 4128POPC   C2B52664   1.052  27.842   6.604
 4128POPC   C3B52665   1.079  28.066   6.969
 4128POPC   C4B52666   1.233  28.047   7.397
 4129POPC   NC352667  34.872   5.870   5.197
 4129POPC   PO452668  35.498   6.018   5.228
 4129POPC   GL152669  35.364   5.901   5.647
 4129POPC   GL252670  35.617   5.642   5.732
 4129POPC   C1A52671  35.147   5.810   6.049
 4129POPC   D2A52672  35.275   5.614   6.429
 4129POPC   C3A52673  35.206   5.799   6.837
 4129POPC   C4A52674  35.238   5.771   7.291
 4129POPC   C1B52675  35.643   5.880   6.139
 4129POPC   C2B52676  35.671   5.878   6.589
 4129POPC   C3B52677  35.685   5.716   7.005
 4129POPC   C4B52678  35.710   5.721   7.435
 4130POPC   NC352679  15.280   0.866   5.452
 4130POPC   PO452680  15.032   0.219   5.515
 4130POPC   GL152681  15.234   0.261   5.916
 4130POPC   GL252682  15.420   0.554   5.839
 4130POPC   C1A52683  15.286   0.309   6.373
 4130POPC   D2A52684  15.082   0.369   6.789
 4130POPC   C3A52685  15.330   0.214   7.158
 4130POPC   C4A52686  15.294   0.153   7.653
 4130POPC   C1B52687  15.240   0.779   6.173
 4130POPC   C2B52688  15.381   0.796   6.589
 4130POPC   C3B52689  15.338   0.736   7.036
 4130POPC   C4B52690  15.386   0.631   7.459
 4131POPC   NC352691  16.371  16.984   5.460
 4131POPC   PO452692  16.885  16.507   5.504
 4131POPC   GL152693  16.654  16.667   5.831
 4131POPC   GL252694  16.663  17.004   5.866
 4131POPC   C1A52695  16.489  16.617   6.249
 4131POPC   D2A52696  16.585  16.394   6.629
 4131POPC   C3A52697  16.405  16.512   7.015
 4131POPC   C4A52698  16.725  16.609   7.287
 4131POPC   C1B52699  16.826  17.149   6.214
 4131POPC   C2B52700  16.727  16.922   6.576
 4131POPC   C3B52701  16.641  17.007   6.953
 4131POPC   C4B52702  16.859  17.104   7.273
 4132POPC   NC352703  23.478   8.014   5.621
 4132POPC   PO452704  22.946   8.203   5.333
 4132POPC   GL152705  23.003   8.247   5.756
 4132POPC   GL252706  22.702   8.085   5.797
 4132POPC   C1A52707  23.131   8.137   6.182
 4132POPC   D2A52708  22.994   7.932   6.548
 4132POPC   C3A52709  23.191   7.975   6.941
 4132POPC   C4A52710  23.098   8.195   7.267
 4132POPC   C1B52711  22.609   8.231   6.172
 4132POPC   C2B52712  22.481   8.109   6.554
 4132POPC   C3B52713  22.680   8.140   6.937
 4132POPC   C4B52714  22.553   8.351   7.333
 4133POPC   NC352715  29.610   6.716   5.468
 4133POPC   PO452716  30.130   6.279   5.283
 4133POPC   GL152717  29.985   6.456   5.700
 4133POPC   GL252718  30.068   6.822   5.717
 4133POPC   C1A52719  29.759   6.610   6.109
 4133POPC   D2A52720  29.867   6.802   6.537
 4133POPC   C3A52721  29.873   6.531   6.907
 4133POPC   C4A52722  29.734   6.529   7.334
 4133POPC   C1B52723  30.268   6.756   6.130
 4133POPC   C2B52724  30.413   6.838   6.560
 4133POPC   C3B52725  30.303   6.819   6.997
 4133POPC   C4B52726  29.879   6.985   7.123
 4134POPC   NC352727   0.601  42.889   5.565
 4134POPC   PO452728   0.299  43.520   5.418
 4134POPC   GL152729   0.396  43.264   5.828
 4134POPC   GL252730   0.383  42.896   5.996
 4134POPC   C1A52731   0.471  43.318   6.274
 4134POPC   D2A52732   0.645  43.475   6.640
 4134POPC   C3A52733   0.542  43.281   7.028
 4134POPC   C4A52734   0.190  43.367   7.253
 4134POPC   C1B52735   0.279  42.783   6.382
 4134POPC   C2B52736   0.196  43.062   6.684
 4134POPC   C3B52737   0.108  42.903   7.062
 4134POPC   C4B52738   0.347  42.870   7.393
 4135POPC   NC352739  36.863  21.049   5.354
 4135POPC   PO452740  36.679  21.691   5.318
 4135POPC   GL152741  36.804  21.408   5.727
 4135POPC   GL252742  37.131  21.188   5.783
 4135POPC   C1A52743  36.818  21.263   6.197
 4135POPC   D2A52744  36.937  21.423   6.628
 4135POPC   C3A52745  36.609  21.381   6.915
 4135POPC   C4A52746  36.741  21.403   7.326
 4135POPC   C1B52747  37.167  20.890   6.186
 4135POPC   C2B52748  36.929  20.913   6.604
 4135POPC   C3B52749  37.025  21.051   7.055
 4135POPC   C4B52750  36.919  20.982   7.517
 4136POPC   NC352751  11.078  32.842   5.647
 4136POPC   PO452752  11.373  33.242   5.210
 4136POPC   GL152753  11.251  33.353   5.677
 4136POPC   GL252754  10.883  33.309   5.789
 4136POPC   C1A52755  11.318  33.310   6.150
 4136POPC   D2A52756  11.368  32.929   6.438
 4136POPC   C3A52757  11.370  32.962   6.910
 4136POPC   C4A52758  11.512  33.287   7.186
 4136POPC   C1B52759  10.805  33.262   6.250
 4136POPC   C2B52760  10.940  33.109   6.669
 4136POPC   C3B52761  10.948  33.214   7.128
 4136POPC   C4B52762  11.130  33.279   7.535
 4137POPC   NC352763   5.126  37.789   5.394
 4137POPC   PO452764   4.790  37.128   5.388
 4137POPC   GL152765   5.001  37.362   5.736
 4137POPC   GL252766   5.361  37.461   5.817
 4137POPC   C1A52767   5.071  37.292   6.199
 4137POPC   D2A52768   5.132  37.543   6.598
 4137POPC   C3A52769   5.255  37.373   7.013
 4137POPC   C4A52770   5.212  37.405   7.487
 4137POPC   C1B52771   5.185  37.792   6.125
 4137POPC   C2B52772   5.174  38.049   6.527
 4137POPC   C3B52773   5.172  37.910   6.965
 4137POPC   C4B52774   5.402  37.842   7.366
 4138POPC   NC352775  37.662  10.199   5.378
 4138POPC   PO452776  37.787   9.604   5.351
 4138POPC   GL152777  37.674   9.696   5.776
 4138POPC   GL252778  37.817  10.009   5.900
 4138POPC   C1A52779  37.721   9.471   6.175
 4138POPC   D2A52780  37.902   9.452   6.611
 4138POPC   C3A52781  37.614   9.421   6.981
 4138POPC   C4A52782  37.706   9.707   7.293
 4138POPC   C1B52783  37.883   9.913   6.362
 4138POPC   C2B52784  37.784   9.926   6.800
 4138POPC   C3B52785  38.024  10.076   7.135
 4138POPC   C4B52786  37.929  10.105   7.569
 4139POPC   NC352787  29.212  15.193   4.979
 4139POPC   PO452788  28.688  15.054   5.476
 4139POPC   GL152789  28.917  15.387   5.729
 4139POPC   GL252790  28.893  15.142   5.959
 4139POPC   C1A52791  29.055  15.526   6.207
 4139POPC   D2A52792  28.818  15.350   6.535
 4139POPC   C3A52793  29.125  15.303   6.842
 4139POPC   C4A52794  29.132  15.322   7.287
 4139POPC   C1B52795  29.205  15.022   6.271
 4139POPC   C2B52796  29.191  14.840   6.666
 4139POPC   C3B52797  29.069  14.848   7.100
 4139POPC   C4B52798  29.271  14.895   7.522
 4140POPC   NC352799  11.612  41.601   5.515
 4140POPC   PO452800  11.053  41.272   5.564
 4140POPC   GL152801  11.338  41.378   5.886
 4140POPC   GL252802  11.683  41.199   5.828
 4140POPC   C1A52803  11.364  41.768   6.140
 4140POPC   D2A52804  11.250  41.953   6.534
 4140POPC   C3A52805  11.291  41.640   6.894
 4140POPC   C4A52806  10.961  41.468   7.143
 4140POPC   C1B52807  11.518  41.075   6.236
 4140POPC   C2B52808  11.400  41.224   6.613
 4140POPC   C3B52809  11.329  41.122   7.031
 4140POPC   C4B52810  11.521  41.355   7.317
 4141POPC   NC352811   5.218  39.300   5.213
 4141POPC   PO452812   4.727  38.991   5.447
 4141POPC   GL152813   5.117  39.092   5.682
 4141POPC   GL252814   5.211  39.462   5.722
 4141POPC   C1A52815   5.166  39.014   6.116
 4141POPC   D2A52816   4.847  39.142   6.399
 4141POPC   C3A52817   4.900  39.161   6.834
 4141POPC   C4A52818   4.835  39.293   7.223
 4141POPC   C1B52819   5.376  39.463   6.158
 4141POPC   C2B52820   5.326  39.270   6.580
 4141POPC   C3B52821   5.314  39.412   7.030
 4141POPC   C4B52822   5.555  39.552   7.391
 4142POPC   NC352823  43.554  35.366   5.142
 4142POPC   PO452824  44.106  35.133   5.468
 4142POPC   GL152825  43.805  35.204   5.833
 4142POPC   GL252826  43.714  35.527   5.837
 4142POPC   C1A52827  43.897  35.279   6.276
 4142POPC   D2A52828  44.118  35.085   6.616
 4142POPC   C3A52829  43.984  35.242   7.014
 4142POPC   C4A52830  43.861  35.188   7.433
 4142POPC   C1B52831  43.516  35.626   6.254
 4142POPC   C2B52832  43.591  35.494   6.699
 4142POPC   C3B52833  43.557  35.529   7.154
 4142POPC   C4B52834  43.319  35.719   7.500
 4143POPC   NC352835   0.022  24.504   5.399
 4143POPC   PO452836  44.326  24.244   5.424
 4143POPC   GL152837  44.614  24.313   5.739
 4143POPC   GL252838  44.886  24.082   5.664
 4143POPC   C1A52839  44.520  24.398   6.189
 4143POPC   D2A52840  44.649  24.619   6.571
 4143POPC   C3A52841  44.517  24.575   6.999
 4143POPC   C4A52842  44.839  24.775   7.290
 4143POPC   C1B52843   0.017  24.230   6.088
 4143POPC   C2B52844   0.133  24.389   6.505
 4143POPC   C3B52845  44.959  24.335   6.947
 4143POPC   C4B52846  44.900  24.301   7.425
 4144POPC   NC352847  28.538  23.451   5.379
 4144POPC   PO452848  28.009  23.904   5.443
 4144POPC   GL152849  28.160  23.645   5.781
 4144POPC   GL252850  28.496  23.685   5.821
 4144POPC   C1A52851  28.223  23.584   6.250
 4144POPC   D2A52852  28.103  23.791   6.645
 4144POPC   C3A52853  28.185  23.674   7.083
 4144POPC   C4A52854  28.121  23.900   7.467
 4144POPC   C1B52855  28.645  23.927   6.138
 4144POPC   C2B52856  28.508  24.155   6.486
 4144POPC   C3B52857  28.722  24.134   6.880
 4144POPC   C4B52858  28.601  24.078   7.276
 4145POPC   NC352859  12.825  25.232   5.324
 4145POPC   PO452860  13.110  25.830   5.377
 4145POPC   GL152861  12.877  25.581   5.759
 4145POPC   GL252862  12.948  25.180   5.805
 4145POPC   C1A52863  12.886  25.424   6.227
 4145POPC   D2A52864  13.063  25.204   6.588
 4145POPC   C3A52865  13.003  25.386   6.985
 4145POPC   C4A52866  12.985  25.539   7.390
 4145POPC   C1B52867  12.633  24.987   6.124
 4145POPC   C2B52868  12.708  24.825   6.547
 4145POPC   C3B52869  12.624  25.081   6.893
 4145POPC   C4B52870  12.482  25.092   7.298
 4146POPC   NC352871  12.145  33.805   4.776
 4146POPC   PO452872  11.862  33.753   5.360
 4146POPC   GL152873  11.977  33.806   5.761
 4146POPC   GL252874  12.062  33.495   5.825
 4146POPC   C1A52875  12.110  33.880   6.190
 4146POPC   D2A52876  12.243  34.119   6.567
 4146POPC   C3A52877  12.044  34.038   6.956
 4146POPC   C4A52878  12.044  34.146   7.407
 4146POPC   C1B52879  11.829  33.438   6.186
 4146POPC   C2B52880  11.749  33.280   6.593
 4146POPC   C3B52881  11.964  33.360   6.959
 4146POPC   C4B52882  11.969  33.643   7.286
 4147POPC   NC352883  41.577   3.731   5.519
 4147POPC   PO452884  41.147   3.118   5.460
 4147POPC   GL152885  41.353   3.366   5.797
 4147POPC   GL252886  41.669   3.315   5.948
 4147POPC   C1A52887  41.250   3.632   6.159
 4147POPC   D2A52888  41.142   3.682   6.592
 4147POPC   C3A52889  41.402   3.420   6.832
 4147POPC   C4A52890  41.424   3.444   7.262
 4147POPC   C1B52891  41.701   3.472   6.367
 4147POPC   C2B52892  41.710   3.866   6.581
 4147POPC   C3B52893  41.955   3.973   6.938
 4147POPC   C4B52894  41.872   3.731   7.266
 4148POPC   NC352895  25.587  21.177   5.516
 4148POPC   PO452896  25.156  21.722   5.459
 4148POPC   GL152897  25.224  21.427   5.802
 4148POPC   GL252898  25.377  21.676   5.959
 4148POPC   C1A52899  25.287  21.085   6.121
 4148POPC   D2A52900  25.551  21.026   6.470
 4148POPC   C3A52901  25.384  21.216   6.840
 4148POPC   C4A52902  25.073  21.187   7.156
 4148POPC   C1B52903  25.219  21.547   6.367
 4148POPC   C2B52904  25.091  21.640   6.787
 4148POPC   C3B52905  25.308  21.663   7.186
 4148POPC   C4B52906  25.300  21.774   7.630
 4149POPC   NC352907  28.383  15.407   5.495
 4149POPC   PO452908  28.019  14.847   5.350
 4149POPC   GL152909  28.232  14.900   5.770
 4149POPC   GL252910  28.118  15.194   5.859
 4149POPC   C1A52911  28.454  15.026   6.178
 4149POPC   D2A52912  28.332  15.080   6.589
 4149POPC   C3A52913  28.616  15.052   6.951
 4149POPC   C4A52914  28.467  15.037   7.387
 4149POPC   C1B52915  28.079  15.399   6.243
 4149POPC   C2B52916  28.295  15.577   6.575
 4149POPC   C3B52917  28.287  15.443   6.972
 4149POPC   C4B52918  28.110  15.414   7.338
 4150POPC   NC352919  18.496  44.991   5.318
 4150POPC   PO452920  18.073  44.515   5.441
 4150POPC   GL152921  18.230  44.762   5.783
 4150POPC   GL252922  18.531  44.625   5.798
 4150POPC   C1A52923  18.361  44.894   6.225
 4150POPC   D2A52924  18.395   0.022   6.657
 4150POPC   C3A52925  18.333  44.785   7.009
 4150POPC   C4A52926  18.677  44.619   7.216
 4150POPC   C1B52927  18.429  44.383   6.176
 4150POPC   C2B52928  18.500  44.452   6.628
 4150POPC   C3B52929  18.372  44.259   7.005
 4150POPC   C4B52930  18.232  44.434   7.383
 4151POPC   NC352931  44.094  44.230   5.464
 4151POPC   PO452932  43.712  43.745   5.199
 4151POPC   GL152933  43.910  43.803   5.738
 4151POPC   GL252934  44.233  43.974   5.864
 4151POPC   C1A52935  43.888  43.947   6.205
 4151POPC   D2A52936  44.116  43.858   6.559
 4151POPC   C3A52937  43.896  43.960   6.898
 4151POPC   C4A52938  43.965  43.876   7.293
 4151POPC   C1B52939  44.246  44.312   6.207
 4151POPC   C2B52940  44.145  44.352   6.672
 4151POPC   C3B52941  44.209  44.297   7.145
 4151POPC   C4B52942  44.146  44.309   7.639
 4152POPC   NC352943  36.879  13.611   5.477
 4152POPC   PO452944  37.560  13.620   5.498
 4152POPC   GL152945  37.268  13.673   5.858
 4152POPC   GL252946  36.965  13.910   5.886
 4152POPC   C1A52947  36.984  13.443   6.159
 4152POPC   D2A52948  36.595  13.500   6.421
 4152POPC   C3A52949  36.681  13.550   6.857
 4152POPC   C4A52950  36.788  13.807   7.166
 4152POPC   C1B52951  36.955  13.938   6.338
 4152POPC   C2B52952  37.149  13.711   6.668
 4152POPC   C3B52953  37.278  13.829   7.087
 4152POPC   C4B52954  37.125  13.909   7.512
 4153POPC   NC352955  35.361  34.528   5.415
 4153POPC   PO452956  35.855  34.757   5.595
 4153POPC   GL152957  35.475  34.716   5.918
 4153POPC   GL252958  35.112  34.749   5.793
 4153POPC   C1A52959  35.444  34.511   6.369
 4153POPC   D2A52960  35.119  34.506   6.729
 4153POPC   C3A52961  35.338  34.528   7.142
 4153POPC   C4A52962  35.613  34.886   7.293
 4153POPC   C1B52963  34.999  34.687   6.213
 4153POPC   C2B52964  35.252  34.963   6.489
 4153POPC   C3B52965  35.227  34.977   6.927
 4153POPC   C4B52966  34.900  34.800   7.183
 4154POPC   NC352967  35.785  25.187   5.312
 4154POPC   PO452968  36.382  25.445   5.372
 4154POPC   GL152969  36.302  25.383   5.820
 4154POPC   GL252970  36.060  25.176   5.803
 4154POPC   C1A52971  36.362  25.149   6.235
 4154POPC   D2A52972  36.150  25.100   6.586
 4154POPC   C3A52973  36.089  25.358   6.904
 4154POPC   C4A52974  36.250  25.104   7.208
 4154POPC   C1B52975  35.913  25.367   6.204
 4154POPC   C2B52976  35.653  25.244   6.580
 4154POPC   C3B52977  35.566  25.435   6.958
 4154POPC   C4B52978  35.811  25.470   7.317
 4155POPC   NC352979  16.558   5.203   5.341
 4155POPC   PO452980  17.000   4.798   5.575
 4155POPC   GL152981  16.827   5.152   5.813
 4155POPC   GL252982  16.447   5.192   5.847
 4155POPC   C1A52983  16.781   5.244   6.246
 4155POPC   D2A52984  16.777   4.992   6.591
 4155POPC   C3A52985  16.915   5.112   6.954
 4155POPC   C4A52986  17.067   4.859   7.251
 4155POPC   C1B52987  16.309   5.391   6.237
 4155POPC   C2B52988  16.498   5.417   6.678
 4155POPC   C3B52989  16.431   5.143   7.100
 4155POPC   C4B52990  16.580   5.291   7.532
 4156POPC   NC352991  39.428  30.274   5.540
 4156POPC   PO452992  38.962  30.727   5.400
 4156POPC   GL152993  39.244  30.787   5.792
 4156POPC   GL252994  39.220  30.479   5.970
 4156POPC   C1A52995  39.411  30.869   6.255
 4156POPC   D2A52996  39.363  30.713   6.704
 4156POPC   C3A52997  39.361  30.952   7.117
 4156POPC   C4A52998  39.171  31.117   7.492
 4156POPC   C1B52999  39.666  30.421   6.130
 4156POPC   C2B53000  39.806  30.238   6.513
 4156POPC   C3B53001  39.757  30.419   6.869
 4156POPC   C4B53002  39.470  30.453   7.150
 4157POPC   NC353003  27.941  34.936   5.464
 4157POPC   PO453004  28.035  34.321   5.618
 4157POPC   GL153005  27.660  34.581   5.745
 4157POPC   GL253006  27.405  34.317   5.761
 4157POPC   C1A53007  27.359  34.745   6.082
 4157POPC   D2A53008  27.518  34.787   6.507
 4157POPC   C3A53009  27.326  34.852   6.895
 4157POPC   C4A53010  27.528  34.812   7.269
 4157POPC   C1B53011  27.590  34.313   6.204
 4157POPC   C2B53012  27.402  34.304   6.623
 4157POPC   C3B53013  27.437  34.322   7.066
 4157POPC   C4B53014  27.446  34.370   7.525
 4158POPC   NC353015  34.372  34.849   5.400
 4158POPC   PO453016  34.981  34.543   5.159
 4158POPC   GL153017  34.692  34.504   5.617
 4158POPC   GL253018  34.596  34.824   5.854
 4158POPC   C1A53019  34.531  34.374   6.099
 4158POPC   D2A53020  34.304  34.404   6.554
 4158POPC   C3A53021  34.577  34.526   6.895
 4158POPC   C4A53022  34.873  34.284   7.136
 4158POPC   C1B53023  34.398  34.827   6.288
 4158POPC   C2B53024  34.245  34.913   6.711
 4158POPC   C3B53025  34.144  34.708   7.085
 4158POPC   C4B53026  34.464  34.640   7.401
 4159POPC   NC353027   4.555  16.000   5.532
 4159POPC   PO453028   4.169  15.518   5.339
 4159POPC   GL153029   4.131  15.733   5.760
 4159POPC   GL253030   4.035  16.105   5.779
 4159POPC   C1A53031   4.389  15.794   6.146
 4159POPC   D2A53032   4.509  15.507   6.475
 4159POPC   C3A53033   4.551  15.716   6.851
 4159POPC   C4A53034   4.359  15.753   7.218
 4159POPC   C1B53035   3.900  15.952   6.198
 4159POPC   C2B53036   4.107  15.929   6.609
 4159POPC   C3B53037   3.953  16.074   7.034
 4159POPC   C4B53038   4.121  16.088   7.487
 4160POPC   NC353039  12.765  36.522   5.564
 4160POPC   PO453040  12.971  37.135   5.468
 4160POPC   GL153041  12.958  37.031   5.853
 4160POPC   GL253042  12.626  36.907   5.864
 4160POPC   C1A53043  12.899  37.043   6.274
 4160POPC   D2A53044  12.984  36.788   6.576
 4160POPC   C3A53045  12.904  37.081   6.903
 4160POPC   C4A53046  12.952  36.928   7.302
 4160POPC   C1B53047  12.598  36.572   6.210
 4160POPC   C2B53048  12.650  36.394   6.624
 4160POPC   C3B53049  12.741  36.597   6.994
 4160POPC   C4B53050  12.544  36.647   7.408
 4161POPC   NC353051  23.537   2.584   5.438
 4161POPC   PO453052  24.110   3.038   5.545
 4161POPC   GL153053  23.845   2.946   5.923
 4161POPC   GL253054  23.802   2.596   5.889
 4161POPC   C1A53055  23.533   2.887   6.308
 4161POPC   D2A53056  23.254   2.975   6.698
 4161POPC   C3A53057  23.362   2.906   7.094
 4161POPC   C4A53058  23.775   2.870   7.164
 4161POPC   C1B53059  23.589   2.364   6.216
 4161POPC   C2B53060  23.748   2.351   6.667
 4161POPC   C3B53061  23.509   2.403   7.060
 4161POPC   C4B53062  23.508   2.585   7.486
 4162POPC   NC353063   7.706   5.365   5.434
 4162POPC   PO453064   7.335   4.763   5.414
 4162POPC   GL153065   7.405   5.124   5.777
 4162POPC   GL253066   7.755   5.221   5.906
 4162POPC   C1A53067   7.336   5.301   6.198
 4162POPC   D2A53068   7.370   5.111   6.587
 4162POPC   C3A53069   7.494   5.324   6.963
 4162POPC   C4A53070   7.305   5.082   7.267
 4162POPC   C1B53071   7.678   4.902   6.201
 4162POPC   C2B53072   7.818   4.867   6.610
 4162POPC   C3B53073   7.618   4.842   6.956
 4162POPC   C4B53074   7.731   4.789   7.352
 4163POPC   NC353075  29.568  17.706   5.550
 4163POPC   PO453076  29.145  17.160   5.266
 4163POPC   GL153077  29.220  17.391   5.722
 4163POPC   GL253078  29.152  17.792   5.792
 4163POPC   C1A53079  29.251  17.433   6.209
 4163POPC   D2A53080  29.241  17.291   6.677
 4163POPC   C3A53081  29.100  17.417   7.094
 4163POPC   C4A53082  29.377  17.677   7.359
 4163POPC   C1B53083  29.047  17.914   6.202
 4163POPC   C2B53084  29.244  17.872   6.610
 4163POPC   C3B53085  29.063  17.909   7.017
 4163POPC   C4B53086  29.044  18.118   7.433
 4164POPC   NC353087  37.978  40.591   5.408
 4164POPC   PO453088  37.544  41.004   5.712
 4164POPC   GL153089  37.764  40.754   5.863
 4164POPC   GL253090  37.532  40.467   5.747
 4164POPC   C1A53091  37.899  40.904   6.267
 4164POPC   D2A53092  37.992  40.765   6.655
 4164POPC   C3A53093  37.628  40.795   6.904
 4164POPC   C4A53094  37.750  40.903   7.331
 4164POPC   C1B53095  37.606  40.423   6.206
 4164POPC   C2B53096  37.774  40.311   6.619
 4164POPC   C3B53097  37.876  40.406   7.054
 4164POPC   C4B53098  37.571  40.448   7.461
 4165POPC   NC353099  39.531  23.712   5.506
 4165POPC   PO453100  38.938  24.066   5.415
 4165POPC   GL153101  39.091  23.951   5.810
 4165POPC   GL253102  39.441  24.067   5.841
 4165POPC   C1A53103  39.027  23.754   6.201
 4165POPC   D2A53104  39.007  23.532   6.566
 4165POPC   C3A53105  39.189  23.736   6.870
 4165POPC   C4A53106  39.222  23.651   7.268
 4165POPC   C1B53107  39.524  23.829   6.217
 4165POPC   C2B53108  39.632  23.876   6.658
 4165POPC   C3B53109  39.674  23.750   7.112
 4165POPC   C4B53110  39.593  23.818   7.623
 4166POPC   NC353111   2.607  13.301   5.408
 4166POPC   PO453112   2.501  14.035   5.611
 4166POPC   GL153113   2.777  13.716   5.736
 4166POPC   GL253114   2.491  13.583   5.862
 4166POPC   C1A53115   2.941  13.628   6.164
 4166POPC   D2A53116   2.748  13.755   6.580
 4166POPC   C3A53117   2.979  13.642   6.946
 4166POPC   C4A53118   3.060  13.792   7.341
 4166POPC   C1B53119   2.319  13.734   6.238
 4166POPC   C2B53120   2.262  13.529   6.640
 4166POPC   C3B53121   2.474  13.551   7.008
 4166POPC   C4B53122   2.703  13.431   7.338
 4167POPC   NC353123  13.181  41.752   5.192
 4167POPC   PO453124  13.539  41.264   5.580
 4167POPC   GL153125  13.558  41.380   5.949
 4167POPC   GL253126  13.639  41.728   5.949
 4167POPC   C1A53127  13.648  41.421   6.373
 4167POPC   D2A53128  13.576  41.772   6.573
 4167POPC   C3A53129  13.472  41.707   6.964
 4167POPC   C4A53130  13.510  41.370   7.186
 4167POPC   C1B53131  13.990  41.756   6.230
 4167POPC   C2B53132  14.065  41.631   6.649
 4167POPC   C3B53133  13.976  41.627   7.104
 4167POPC   C4B53134  14.051  41.754   7.561
 4168POPC   NC353135  31.161  11.888   5.649
 4168POPC   PO453136  31.544  12.312   5.321
 4168POPC   GL153137  31.390  12.312   5.792
 4168POPC   GL253138  31.561  11.970   5.935
 4168POPC   C1A53139  31.267  12.215   6.257
 4168POPC   D2A53140  31.552  12.188   6.593
 4168POPC   C3A53141  31.415  11.986   6.948
 4168POPC   C4A53142  31.467  12.184   7.314
 4168POPC   C1B53143  31.397  11.731   6.282
 4168POPC   C2B53144  31.667  11.676   6.615
 4168POPC   C3B53145  31.648  11.549   7.006
 4168POPC   C4B53146  31.578  11.694   7.393
 4169POPC   NC353147   6.550   3.780   5.464
 4169POPC   PO453148   6.559   3.080   5.488
 4169POPC   GL153149   6.773   3.229   5.831
 4169POPC   GL253150   6.867   3.561   5.775
 4169POPC   C1A53151   6.643   3.483   6.219
 4169POPC   D2A53152   6.639   3.869   6.486
 4169POPC   C3A53153   6.455   3.760   6.860
 4169POPC   C4A53154   6.573   3.472   7.186
 4169POPC   C1B53155   7.039   3.794   6.145
 4169POPC   C2B53156   7.109   3.612   6.548
 4169POPC   C3B53157   7.028   3.453   6.940
 4169POPC   C4B53158   7.004   3.739   7.280
 4170POPC   NC353159   8.037  24.944   5.517
 4170POPC   PO453160   8.450  25.458   5.446
 4170POPC   GL153161   8.276  25.312   5.838
 4170POPC   GL253162   7.935  25.454   5.878
 4170POPC   C1A53163   8.257  25.482   6.276
 4170POPC   D2A53164   8.161  25.305   6.656
 4170POPC   C3A53165   8.483  25.210   6.925
 4170POPC   C4A53166   8.211  25.341   7.211
 4170POPC   C1B53167   7.952  25.077   6.182
 4170POPC   C2B53168   7.778  24.968   6.600
 4170POPC   C3B53169   7.819  25.061   7.031
 4170POPC   C4B53170   7.726  24.869   7.419
 4171POPC   NC353171  30.727  35.023   5.428
 4171POPC   PO453172  31.273  35.423   5.287
 4171POPC   GL153173  30.978  35.446   5.711
 4171POPC   GL253174  30.616  35.443   5.708
 4171POPC   C1A53175  30.778  35.585   6.158
 4171POPC   D2A53176  30.765  35.357   6.557
 4171POPC   C3A53177  30.735  35.523   7.014
 4171POPC   C4A53178  30.730  35.099   7.264
 4171POPC   C1B53179  30.536  35.142   6.068
 4171POPC   C2B53180  30.292  35.158   6.450
 4171POPC   C3B53181  30.398  35.157   6.877
 4171POPC   C4B53182  30.301  35.389   7.272
 4172POPC   NC353183  28.345  27.648   5.357
 4172POPC   PO453184  28.797  28.077   5.607
 4172POPC   GL153185  28.593  27.728   5.858
 4172POPC   GL253186  28.221  27.640   5.854
 4172POPC   C1A53187  28.587  27.550   6.288
 4172POPC   D2A53188  28.488  27.328   6.681
 4172POPC   C3A53189  28.404  27.636   7.027
 4172POPC   C4A53190  28.432  27.589   7.472
 4172POPC   C1B53191  28.119  27.317   6.160
 4172POPC   C2B53192  27.980  27.329   6.579
 4172POPC   C3B53193  28.061  27.266   6.993
 4172POPC   C4B53194  27.975  27.538   7.323
 4173POPC   NC353195  37.354  22.725   5.572
 4173POPC   PO453196  36.847  22.419   5.204
 4173POPC   GL153197  36.809  22.575   5.759
 4173POPC   GL253198  36.601  22.822   5.894
 4173POPC   C1A53199  37.025  22.605   6.192
 4173POPC   D2A53200  37.161  22.572   6.656
 4173POPC   C3A53201  36.943  22.813   7.003
 4173POPC   C4A53202  37.055  23.259   7.113
 4173POPC   C1B53203  36.803  23.066   6.230
 4173POPC   C2B53204  36.745  23.100   6.651
 4173POPC   C3B53205  36.549  23.261   7.056
 4173POPC   C4B53206  36.576  23.420   7.439
 4174POPC   NC353207  14.521   4.734   5.309
 4174POPC   PO453208  14.092   4.155   5.391
 4174POPC   GL153209  14.342   4.388   5.704
 4174POPC   GL253210  14.265   4.104   5.895
 4174POPC   C1A53211  14.518   4.455   6.154
 4174POPC   D2A53212  14.464   4.267   6.589
 4174POPC   C3A53213  14.657   4.316   7.012
 4174POPC   C4A53214  14.352   4.481   7.350
 4174POPC   C1B53215  14.058   3.915   6.248
 4174POPC   C2B53216  14.181   3.818   6.662
 4174POPC   C3B53217  14.261   4.005   7.018
 4174POPC   C4B53218  14.052   4.012   7.384
 4175POPC   NC353219   4.976   4.612   5.628
 4175POPC   PO453220   5.518   4.536   5.212
 4175POPC   GL153221   5.385   4.282   5.676
 4175POPC   GL253222   5.044   4.136   5.775
 4175POPC   C1A53223   5.286   4.353   6.164
 4175POPC   D2A53224   5.447   4.360   6.568
 4175POPC   C3A53225   5.248   4.381   6.984
 4175POPC   C4A53226   5.002   4.674   7.184
 4175POPC   C1B53227   4.961   3.969   6.211
 4175POPC   C2B53228   4.978   4.126   6.645
 4175POPC   C3B53229   4.995   3.919   7.071
 4175POPC   C4B53230   4.711   3.904   7.442
 4176POPC   NC353231   6.482  27.703   5.470
 4176POPC   PO453232   7.003  27.221   5.528
 4176POPC   GL153233   6.766  27.399   5.808
 4176POPC   GL253234   6.486  27.269   5.763
 4176POPC   C1A53235   6.844  27.494   6.198
 4176POPC   D2A53236   6.946  27.628   6.578
 4176POPC   C3A53237   6.691  27.571   6.886
 4176POPC   C4A53238   6.900  27.531   7.245
 4176POPC   C1B53239   6.326  27.504   6.129
 4176POPC   C2B53240   6.322  27.464   6.550
 4176POPC   C3B53241   6.180  27.407   6.960
 4176POPC   C4B53242   6.394  27.463   7.309
 4177POPC   NC353243  11.960  36.215   5.224
 4177POPC   PO453244  12.259  35.591   5.051
 4177POPC   GL153245  12.263  35.817   5.505
 4177POPC   GL253246  12.305  36.182   5.669
 4177POPC   C1A53247  12.216  35.781   5.997
 4177POPC   D2A53248  12.073  35.958   6.409
 4177POPC   C3A53249  12.120  35.761   6.829
 4177POPC   C4A53250  11.967  36.023   7.107
 4177POPC   C1B53251  12.075  36.391   6.065
 4177POPC   C2B53252  12.038  36.528   6.523
 4177POPC   C3B53253  12.234  36.509   6.923
 4177POPC   C4B53254  12.476  36.185   7.119
 4178POPC   NC353255  13.321  39.655   5.627
 4178POPC   PO453256  13.488  40.298   5.554
 4178POPC   GL153257  13.640  40.065   5.892
 4178POPC   GL253258  13.801  39.750   5.819
 4178POPC   C1A53259  13.504  40.074   6.327
 4178POPC   D2A53260  13.420  40.336   6.691
 4178POPC   C3A53261  13.496  40.148   7.101
 4178POPC   C4A53262  13.413  39.716   7.177
 4178POPC   C1B53263  14.001  39.798   6.207
 4178POPC   C2B53264  13.906  39.669   6.635
 4178POPC   C3B53265  13.916  39.843   7.013
 4178POPC   C4B53266  14.049  40.281   7.121
 4179POPC   NC353267  14.284  32.067   5.266
 4179POPC   PO453268  14.685  32.557   5.364
 4179POPC   GL153269  14.453  32.360   5.716
 4179POPC   GL253270  14.373  32.005   5.756
 4179POPC   C1A53271  14.329  32.359   6.171
 4179POPC   D2A53272  14.580  32.573   6.463
 4179POPC   C3A53273  14.562  32.599   6.910
 4179POPC   C4A53274  14.354  32.440   7.260
 4179POPC   C1B53275  14.309  31.835   6.140
 4179POPC   C2B53276  14.352  31.944   6.577
 4179POPC   C3B53277  14.196  32.011   7.015
 4179POPC   C4B53278  14.432  31.973   7.415
 4180POPC   NC353279   2.199  11.602   5.444
 4180POPC   PO453280   1.613  11.245   5.347
 4180POPC   GL153281   1.805  11.278   5.760
 4180POPC   GL253282   2.190  11.285   5.834
 4180POPC   C1A53283   1.635  11.338   6.165
 4180POPC   D2A53284   1.717  11.282   6.614
 4180POPC   C3A53285   1.813  11.673   6.899
 4180POPC   C4A53286   2.072  11.655   7.317
 4180POPC   C1B53287   2.337  11.408   6.234
 4180POPC   C2B53288   2.202  11.437   6.639
 4180POPC   C3B53289   2.102  11.266   7.009
 4180POPC   C4B53290   2.300  11.187   7.380
 4181POPC   NC353291  26.309  13.481   5.424
 4181POPC   PO453292  26.820  13.710   5.259
 4181POPC   GL153293  26.814  13.677   5.745
 4181POPC   GL253294  26.678  13.354   5.766
 4181POPC   C1A53295  26.911  13.858   6.219
 4181POPC   D2A53296  27.014  14.068   6.661
 4181POPC   C3A53297  26.901  13.852   7.039
 4181POPC   C4A53298  27.033  13.429   7.071
 4181POPC   C1B53299  26.592  13.448   6.198
 4181POPC   C2B53300  26.696  13.594   6.613
 4181POPC   C3B53301  26.514  13.514   6.993
 4181POPC   C4B53302  26.640  13.505   7.424
 4182POPC   NC353303  32.797  20.446   5.150
 4182POPC   PO453304  33.256  20.779   5.504
 4182POPC   GL153305  32.915  20.584   5.765
 4182POPC   GL253306  32.983  20.305   6.057
 4182POPC   C1A53307  32.753  20.728   6.157
 4182POPC   D2A53308  32.787  20.530   6.585
 4182POPC   C3A53309  32.601  20.740   6.956
 4182POPC   C4A53310  32.751  20.764   7.391
 4182POPC   C1B53311  33.243  20.683   6.161
 4182POPC   C2B53312  33.326  20.883   6.552
 4182POPC   C3B53313  33.141  20.758   6.942
 4182POPC   C4B53314  33.112  20.432   7.225
 4183POPC   NC353315  16.687  27.168   5.502
 4183POPC   PO453316  17.013  26.562   5.486
 4183POPC   GL153317  16.802  26.757   5.863
 4183POPC   GL253318  16.768  27.058   6.003
 4183POPC   C1A53319  16.713  26.573   6.273
 4183POPC   D2A53320  16.559  26.666   6.653
 4183POPC   C3A53321  16.799  26.632   6.977
 4183POPC   C4A53322  16.912  26.908   7.292
 4183POPC   C1B53323  16.387  26.980   6.232
 4183POPC   C2B53324  16.269  27.109   6.642
 4183POPC   C3B53325  16.304  26.957   7.063
 4183POPC   C4B53326  16.499  27.182   7.421
 4184POPC   NC353327  25.524  25.449   5.269
 4184POPC   PO453328  25.672  24.853   5.535
 4184POPC   GL153329  25.423  25.209   5.745
 4184POPC   GL253330  25.663  25.485   5.786
 4184POPC   C1A53331  25.006  25.350   6.008
 4184POPC   D2A53332  24.892  25.583   6.427
 4184POPC   C3A53333  24.925  25.466   6.901
 4184POPC   C4A53334  25.270  25.191   7.137
 4184POPC   C1B53335  25.458  25.433   6.206
 4184POPC   C2B53336  25.367  25.494   6.648
 4184POPC   C3B53337  25.418  25.665   7.041
 4184POPC   C4B53338  25.081  25.676   7.380
 4185POPC   NC353339  20.799  22.223   5.536
 4185POPC   PO453340  20.152  22.338   5.673
 4185POPC   GL153341  20.363  22.013   5.835
 4185POPC   GL253342  20.571  22.294   5.994
 4185POPC   C1A53343  20.383  21.892   6.259
 4185POPC   D2A53344  20.553  22.139   6.585
 4185POPC   C3A53345  20.380  21.994   6.959
 4185POPC   C4A53346  20.434  22.131   7.358
 4185POPC   C1B53347  20.892  22.027   6.173
 4185POPC   C2B53348  21.073  21.978   6.573
 4185POPC   C3B53349  20.890  21.987   6.969
 4185POPC   C4B53350  20.943  22.315   7.285
 4186POPC   NC353351  15.862  11.508   5.527
 4186POPC   PO453352  15.557  10.835   5.515
 4186POPC   GL153353  15.684  11.106   5.832
 4186POPC   GL253354  16.028  11.074   5.852
 4186POPC   C1A53355  15.727  11.209   6.267
 4186POPC   D2A53356  15.847  10.999   6.629
 4186POPC   C3A53357  15.715  11.141   7.021
 4186POPC   C4A53358  15.815  11.586   7.104
 4186POPC   C1B53359  16.268  11.159   6.221
 4186POPC   C2B53360  16.209  11.429   6.553
 4186POPC   C3B53361  16.214  11.287   6.944
 4186POPC   C4B53362  16.438  11.049   7.202
 4187POPC   NC353363  24.274  23.588   5.266
 4187POPC   PO453364  23.621  23.855   5.092
 4187POPC   GL153365  23.751  23.577   5.487
 4187POPC   GL253366  24.000  23.750   5.690
 4187POPC   C1A53367  23.638  23.370   5.934
 4187POPC   D2A53368  23.507  23.500   6.388
 4187POPC   C3A53369  23.708  23.505   6.819
 4187POPC   C4A53370  23.611  23.725   7.211
 4187POPC   C1B53371  23.894  23.757   6.131
 4187POPC   C2B53372  23.944  23.884   6.563
 4187POPC   C3B53373  23.867  24.092   6.966
 4187POPC   C4B53374  24.155  24.284   7.224
 4188POPC   NC353375  18.681  24.201   5.248
 4188POPC   PO453376  19.284  24.435   5.363
 4188POPC   GL153377  19.144  24.355   5.812
 4188POPC   GL253378  19.088  24.692   5.879
 4188POPC   C1A53379  18.973  24.379   6.256
 4188POPC   D2A53380  19.159  24.435   6.682
 4188POPC   C3A53381  18.896  24.381   7.068
 4188POPC   C4A53382  18.973  24.334   7.522
 4188POPC   C1B53383  19.294  24.864   6.239
 4188POPC   C2B53384  19.496  24.818   6.657
 4188POPC   C3B53385  19.302  24.727   7.085
 4188POPC   C4B53386  19.138  24.944   7.472
 4189POPC   NC353387  12.077   5.566   5.396
 4189POPC   PO453388  11.716   4.993   5.457
 4189POPC   GL153389  11.956   4.968   5.834
 4189POPC   GL253390  12.076   5.306   5.856
 4189POPC   C1A53391  12.056   4.971   6.293
 4189POPC   D2A53392  12.332   4.852   6.643
 4189POPC   C3A53393  12.186   4.880   7.082
 4189POPC   C4A53394  11.894   5.116   7.348
 4189POPC   C1B53395  12.422   5.322   6.161
 4189POPC   C2B53396  12.355   5.360   6.584
 4189POPC   C3B53397  12.140   5.378   6.959
 4189POPC   C4B53398  12.367   5.334   7.324
 4190POPC   NC353399  31.202  33.464   5.440
 4190POPC   PO453400  30.570  33.683   5.270
 4190POPC   GL153401  30.700  33.713   5.676
 4190POPC   GL253402  30.403  33.553   5.798
 4190POPC   C1A53403  30.686  34.008   6.061
 4190POPC   D2A53404  30.558  33.878   6.500
 4190POPC   C3A53405  30.838  34.011   6.837
 4190POPC   C4A53406  30.914  34.024   7.272
 4190POPC   C1B53407  30.742  33.515   6.145
 4190POPC   C2B53408  30.870  33.445   6.558
 4190POPC   C3B53409  30.638  33.512   6.907
 4190POPC   C4B53410  30.492  33.559   7.320
 4191POPC   NC353411  42.894   7.811   5.197
 4191POPC   PO453412  42.249   8.020   5.408
 4191POPC   GL153413  42.156   8.062   5.840
 4191POPC   GL253414  42.502   8.126   5.952
 4191POPC   C1A53415  42.091   8.355   6.193
 4191POPC   D2A53416  42.200   8.425   6.650
 4191POPC   C3A53417  42.181   8.104   7.006
 4191POPC   C4A53418  42.503   7.821   7.180
 4191POPC   C1B53419  42.613   8.425   6.291
 4191POPC   C2B53420  42.810   8.566   6.646
 4191POPC   C3B53421  42.600   8.478   6.977
 4191POPC   C4B53422  42.400   8.458   7.354
 4192POPC   NC353423   8.531  30.459   5.358
 4192POPC   PO453424   9.151  30.757   5.514
 4192POPC   GL153425   9.035  30.671   5.911
 4192POPC   GL253426   8.727  30.570   5.845
 4192POPC   C1A53427   9.159  30.654   6.345
 4192POPC   D2A53428   9.164  30.307   6.629
 4192POPC   C3A53429   9.175  30.315   7.109
 4192POPC   C4A53430   8.963  30.377   7.499
 4192POPC   C1B53431   8.643  30.804   6.240
 4192POPC   C2B53432   8.778  30.838   6.676
 4192POPC   C3B53433   8.760  30.644   7.091
 4192POPC   C4B53434   8.515  30.624   7.509
 4193POPC   NC353435   6.952  38.822   5.248
 4193POPC   PO453436   6.859  38.145   5.519
 4193POPC   GL153437   6.725  38.368   5.869
 4193POPC   GL253438   6.944  38.638   5.920
 4193POPC   C1A53439   6.466  38.341   6.246
 4193POPC   D2A53440   6.214  38.177   6.585
 4193POPC   C3A53441   6.430  38.253   6.942
 4193POPC   C4A53442   6.359  38.552   7.279
 4193POPC   C1B53443   6.985  38.352   6.290
 4193POPC   C2B53444   6.812  38.480   6.655
 4193POPC   C3B53445   6.808  38.599   7.063
 4193POPC   C4B53446   6.900  38.320   7.364
 4194POPC   NC353447  26.843  24.734   5.483
 4194POPC   PO453448  26.434  24.140   5.541
 4194POPC   GL153449  26.732  24.366   5.866
 4194POPC   GL253450  26.990  24.681   5.977
 4194POPC   C1A53451  26.612  24.499   6.270
 4194POPC   D2A53452  26.548  24.635   6.656
 4194POPC   C3A53453  26.504  24.327   6.966
 4194POPC   C4A53454  26.591  24.697   7.226
 4194POPC   C1B53455  27.106  24.340   6.251
 4194POPC   C2B53456  26.964  24.260   6.655
 4194POPC   C3B53457  26.983  24.411   7.082
 4194POPC   C4B53458  26.785  24.286   7.464
 4195POPC   NC353459  20.328  33.212   5.506
 4195POPC   PO453460  20.592  32.655   5.443
 4195POPC   GL153461  20.729  32.832   5.842
 4195POPC   GL253462  20.729  33.167   5.855
 4195POPC   C1A53463  20.876  32.971   6.269
 4195POPC   D2A53464  20.636  32.974   6.612
 4195POPC   C3A53465  20.800  33.059   6.966
 4195POPC   C4A53466  20.613  33.162   7.315
 4195POPC   C1B53467  20.546  33.404   6.227
 4195POPC   C2B53468  20.121  33.422   6.449
 4195POPC   C3B53469  20.084  33.357   6.903
 4195POPC   C4B53470  20.445  33.559   7.074
 4196POPC   NC353471   8.724  10.832   5.560
 4196POPC   PO453472   9.111  10.255   5.391
 4196POPC   GL153473   8.916  10.372   5.835
 4196POPC   GL253474   8.823  10.666   6.024
 4196POPC   C1A53475   9.128  10.346   6.276
 4196POPC   D2A53476   9.040  10.078   6.635
 4196POPC   C3A53477   8.634  10.130   6.830
 4196POPC   C4A53478   8.727  10.347   7.220
 4196POPC   C1B53479   8.630  10.485   6.376
 4196POPC   C2B53480   8.850  10.581   6.742
 4196POPC   C3B53481   8.805  10.828   7.097
 4196POPC   C4B53482   9.203  10.902   7.180
 4197POPC   NC353483  40.890  24.398   5.339
 4197POPC   PO453484  41.236  24.992   5.511
 4197POPC   GL153485  40.929  24.684   5.756
 4197POPC   GL253486  40.573  24.494   5.732
 4197POPC   C1A53487  40.770  24.672   6.184
 4197POPC   D2A53488  40.975  24.717   6.576
 4197POPC   C3A53489  41.061  24.399   6.846
 4197POPC   C4A53490  40.898  24.563   7.202
 4197POPC   C1B53491  40.415  24.188   6.055
 4197POPC   C2B53492  40.416  24.090   6.489
 4197POPC   C3B53493  40.552  24.374   6.793
 4197POPC   C4B53494  40.429  24.326   7.196
 4198POPC   NC353495   9.486  43.306   5.441
 4198POPC   PO453496   9.861  42.735   5.580
 4198POPC   GL153497   9.735  43.056   5.806
 4198POPC   GL253498   9.370  42.963   5.813
 4198POPC   C1A53499   9.756  43.073   6.223
 4198POPC   D2A53500   9.996  43.318   6.456
 4198POPC   C3A53501   9.866  43.203   6.817
 4198POPC   C4A53502   9.818  43.154   7.214
 4198POPC   C1B53503   9.369  43.345   6.102
 4198POPC   C2B53504   9.403  43.291   6.560
 4198POPC   C3B53505   9.434  43.445   6.999
 4198POPC   C4B53506   9.363  43.200   7.422
 4199POPC   NC353507  30.523  31.639   5.336
 4199POPC   PO453508  31.020  31.346   5.311
 4199POPC   GL153509  30.905  31.659   5.685
 4199POPC   GL253510  30.547  31.637   5.826
 4199POPC   C1A53511  30.903  31.752   6.162
 4199POPC   D2A53512  30.951  31.593   6.578
 4199POPC   C3A53513  30.735  31.505   6.919
 4199POPC   C4A53514  30.891  31.670   7.315
 4199POPC   C1B53515  30.406  31.923   6.134
 4199POPC   C2B53516  30.365  31.718   6.531
 4199POPC   C3B53517  30.297  31.877   6.913
 4199POPC   C4B53518  30.360  31.654   7.247
 4200POPC   NC353519  17.686  20.189   5.311
 4200POPC   PO453520  17.355  20.828   5.393
 4200POPC   GL153521  17.574  20.710   5.772
 4200POPC   GL253522  17.748  20.392   5.799
 4200POPC   C1A53523  17.462  20.656   6.204
 4200POPC   D2A53524  17.451  20.920   6.548
 4200POPC   C3A53525  17.393  20.685   6.913
 4200POPC   C4A53526  17.349  20.625   7.340
 4200POPC   C1B53527  17.646  20.179   6.209
 4200POPC   C2B53528  17.433  20.247   6.627
 4200POPC   C3B53529  17.520  20.199   7.098
 4200POPC   C4B53530  17.290  20.161   7.525
 4201POPC   NC353531  29.367   1.359   5.352
 4201POPC   PO453532  30.030   1.399   5.361
 4201POPC   GL153533  29.995   1.294   5.755
 4201POPC   GL253534  30.094   0.942   5.728
 4201POPC   C1A53535  29.888   1.416   6.172
 4201POPC   D2A53536  30.022   1.211   6.533
 4201POPC   C3A53537  29.738   1.124   6.847
 4201POPC   C4A53538  30.043   1.216   7.135
 4201POPC   C1B53539  29.899   0.900   6.115
 4201POPC   C2B53540  29.992   0.694   6.497
 4201POPC   C3B53541  30.128   0.768   6.904
 4201POPC   C4B53542  30.011   0.682   7.328
 4202POPC   NC353543  13.943  40.422   5.467
 4202POPC   PO453544  13.671  40.944   5.164
 4202POPC   GL153545  13.701  40.796   5.710
 4202POPC   GL253546  13.382  40.890   5.898
 4202POPC   C1A53547  13.683  40.586   6.178
 4202POPC   D2A53548  13.658  40.788   6.637
 4202POPC   C3A53549  13.650  40.623   7.061
 4202POPC   C4A53550  13.711  40.442   7.488
 4202POPC   C1B53551  13.381  41.005   6.288
 4202POPC   C2B53552  13.315  41.185   6.689
 4202POPC   C3B53553  13.262  40.956   7.072
 4202POPC   C4B53554  13.534  40.925   7.457
 4203POPC   NC353555  18.836  23.235   5.442
 4203POPC   PO453556  19.227  22.703   5.564
 4203POPC   GL153557  18.939  22.850   5.826
 4203POPC   GL253558  19.087  23.158   5.865
 4203POPC   C1A53559  19.031  22.795   6.257
 4203POPC   D2A53560  18.907  22.986   6.621
 4203POPC   C3A53561  18.999  22.808   7.014
 4203POPC   C4A53562  19.153  22.430   7.192
 4203POPC   C1B53563  18.907  23.318   6.223
 4203POPC   C2B53564  18.955  23.513   6.624
 4203POPC   C3B53565  18.770  23.333   6.975
 4203POPC   C4B53566  18.840  23.161   7.373
 4204POPC   NC353567  23.601  10.833   5.563
 4204POPC   PO453568  23.669  10.250   5.303
 4204POPC   GL153569  23.751  10.393   5.789
 4204POPC   GL253570  23.962  10.679   5.904
 4204POPC   C1A53571  23.856  10.368   6.269
 4204POPC   D2A53572  24.016  10.688   6.588
 4204POPC   C3A53573  23.919  10.594   7.021
 4204POPC   C4A53574  23.702  10.261   7.214
 4204POPC   C1B53575  23.675  10.865   6.226
 4204POPC   C2B53576  23.343  10.825   6.562
 4204POPC   C3B53577  23.402  10.795   7.023
 4204POPC   C4B53578  23.424  10.651   7.452
 4205POPC   NC353579  20.951  15.311   5.449
 4205POPC   PO453580  21.452  14.891   5.370
 4205POPC   GL153581  21.450  15.071   5.765
 4205POPC   GL253582  21.479  15.426   5.729
 4205POPC   C1A53583  21.421  14.994   6.207
 4205POPC   D2A53584  21.293  15.164   6.611
 4205POPC   C3A53585  21.562  15.100   6.975
 4205POPC   C4A53586  21.367  15.069   7.374
 4205POPC   C1B53587  21.274  15.489   6.150
 4205POPC   C2B53588  21.341  15.666   6.599
 4205POPC   C3B53589  21.259  15.510   7.049
 4205POPC   C4B53590  21.500  15.541   7.447
 4206POPC   NC353591  19.618  33.871   5.257
 4206POPC   PO453592  19.998  33.499   5.630
 4206POPC   GL153593  19.887  33.901   5.784
 4206POPC   GL253594  19.511  33.891   5.755
 4206POPC   C1A53595  20.023  34.009   6.236
 4206POPC   D2A53596  20.291  33.930   6.618
 4206POPC   C3A53597  20.027  33.863   6.979
 4206POPC   C4A53598  19.646  34.007   7.172
 4206POPC   C1B53599  19.603  33.732   6.174
 4206POPC   C2B53600  19.589  33.750   6.616
 4206POPC   C3B53601  19.543  33.435   6.911
 4206POPC   C4B53602  19.762  33.478   7.294
 4207POPC   NC353603  42.100  32.057   5.251
 4207POPC   PO453604  42.270  31.391   5.418
 4207POPC   GL153605  42.388  31.354   5.820
 4207POPC   GL253606  42.139  31.578   5.928
 4207POPC   C1A53607  42.352  31.178   6.211
 4207POPC   D2A53608  42.527  31.335   6.575
 4207POPC   C3A53609  42.319  31.311   6.938
 4207POPC   C4A53610  42.478  31.176   7.333
 4207POPC   C1B53611  42.313  31.688   6.254
 4207POPC   C2B53612  42.239  31.776   6.630
 4207POPC   C3B53613  42.020  31.752   6.974
 4207POPC   C4B53614  42.217  31.648   7.312
 4208POPC   NC353615   6.813   9.218   5.581
 4208POPC   PO453616   6.323   8.716   5.580
 4208POPC   GL153617   6.709   8.791   5.837
 4208POPC   GL253618   6.547   9.053   5.970
 4208POPC   C1A53619   7.004   8.914   6.202
 4208POPC   D2A53620   6.995   9.114   6.636
 4208POPC   C3A53621   6.672   8.897   6.866
 4208POPC   C4A53622   6.556   8.815   7.279
 4208POPC   C1B53623   6.530   9.101   6.385
 4208POPC   C2B53624   6.187   9.051   6.641
 4208POPC   C3B53625   6.295   9.213   7.006
 4208POPC   C4B53626   6.717   9.367   7.103
 4209POPC   NC353627  18.613   4.163   5.403
 4209POPC   PO453628  18.070   4.594   5.367
 4209POPC   GL153629  18.293   4.368   5.743
 4209POPC   GL253630  18.227   4.007   5.818
 4209POPC   C1A53631  18.492   4.528   6.139
 4209POPC   D2A53632  18.322   4.559   6.558
 4209POPC   C3A53633  18.347   4.198   6.845
 4209POPC   C4A53634  18.446   4.407   7.208
 4209POPC   C1B53635  18.071   4.253   6.203
 4209POPC   C2B53636  17.876   4.295   6.622
 4209POPC   C3B53637  17.937   4.361   7.087
 4209POPC   C4B53638  17.991   4.180   7.511
 4210POPC   NC353639  40.652  11.252   5.341
 4210POPC   PO453640  41.187  10.843   5.400
 4210POPC   GL153641  41.014  11.169   5.716
 4210POPC   GL253642  40.764  11.443   5.784
 4210POPC   C1A53643  40.849  11.098   6.159
 4210POPC   D2A53644  40.715  11.036   6.579
 4210POPC   C3A53645  40.959  11.127   6.921
 4210POPC   C4A53646  40.919  11.279   7.301
 4210POPC   C1B53647  40.895  11.605   6.157
 4210POPC   C2B53648  40.965  11.504   6.577
 4210POPC   C3B53649  40.832  11.672   6.987
 4210POPC   C4B53650  40.972  11.753   7.447
 4211POPC   NC353651   1.456   7.526   5.365
 4211POPC   PO453652   2.120   7.184   5.465
 4211POPC   GL153653   1.913   7.295   5.822
 4211POPC   GL253654   1.865   7.650   5.832
 4211POPC   C1A53655   1.781   7.194   6.245
 4211POPC   D2A53656   1.819   6.961   6.638
 4211POPC   C3A53657   2.087   7.162   6.931
 4211POPC   C4A53658   1.997   7.160   7.376
 4211POPC   C1B53659   2.152   7.560   6.226
 4211POPC   C2B53660   2.044   7.632   6.672
 4211POPC   C3B53661   1.860   7.576   7.082
 4211POPC   C4B53662   1.885   7.645   7.532
 4212POPC   NC353663  36.338   6.774   4.994
 4212POPC   PO453664  35.933   6.832   5.512
 4212POPC   GL153665  36.045   6.685   5.855
 4212POPC   GL253666  36.388   6.566   5.852
 4212POPC   C1A53667  35.794   6.708   6.203
 4212POPC   D2A53668  35.766   6.463   6.533
 4212POPC   C3A53669  35.795   6.651   6.948
 4212POPC   C4A53670  35.515   6.672   7.250
 4212POPC   C1B53671  36.303   6.595   6.299
 4212POPC   C2B53672  36.239   6.562   6.719
 4212POPC   C3B53673  36.360   6.365   7.058
 4212POPC   C4B53674  36.167   6.436   7.402
 4213POPC   NC353675  36.616   6.193   5.496
 4213POPC   PO453676  37.119   5.748   5.460
 4213POPC   GL153677  36.972   5.818   5.840
 4213POPC   GL253678  36.612   5.843   5.895
 4213POPC   C1A53679  37.033   5.626   6.214
 4213POPC   D2A53680  36.868   5.668   6.607
 4213POPC   C3A53681  37.095   5.621   6.986
 4213POPC   C4A53682  37.033   5.430   7.362
 4213POPC   C1B53683  36.530   6.144   6.187
 4213POPC   C2B53684  36.588   6.203   6.604
 4213POPC   C3B53685  36.607   5.945   6.937
 4213POPC   C4B53686  36.811   5.923   7.276
 4214POPC   NC353687  41.636  41.934   5.470
 4214POPC   PO453688  41.331  41.402   5.358
 4214POPC   GL153689  41.517  41.423   5.782
 4214POPC   GL253690  41.879  41.504   5.838
 4214POPC   C1A53691  41.537  41.623   6.192
 4214POPC   D2A53692  41.314  41.750   6.530
 4214POPC   C3A53693  41.492  41.648   6.914
 4214POPC   C4A53694  41.422  41.283   7.150
 4214POPC   C1B53695  42.033  41.415   6.267
 4214POPC   C2B53696  41.910  41.407   6.718
 4214POPC   C3B53697  41.937  41.509   7.177
 4214POPC   C4B53698  41.975  41.843   7.502
 4215POPC   NC353699  35.909  38.705   5.598
 4215POPC   PO453700  36.324  38.112   5.460
 4215POPC   GL153701  36.195  38.300   5.822
 4215POPC   GL253702  36.208  38.611   5.975
 4215POPC   C1A53703  36.174  38.207   6.263
 4215POPC   D2A53704  36.052  38.502   6.576
 4215POPC   C3A53705  35.948  38.361   6.991
 4215POPC   C4A53706  35.644  38.527   7.288
 4215POPC   C1B53707  36.497  38.620   6.281
 4215POPC   C2B53708  36.450  38.821   6.647
 4215POPC   C3B53709  36.153  38.825   6.993
 4215POPC   C4B53710  36.138  38.604   7.423
 4216POPC   NC353711  38.647  40.934   5.393
 4216POPC   PO453712  37.991  41.085   5.391
 4216POPC   GL153713  38.283  40.804   5.765
 4216POPC   GL253714  38.665  40.670   5.818
 4216POPC   C1A53715  38.388  40.756   6.242
 4216POPC   D2A53716  38.377  41.101   6.546
 4216POPC   C3A53717  38.224  41.066   6.995
 4216POPC   C4A53718  38.278  40.760   7.317
 4216POPC   C1B53719  38.886  40.519   6.166
 4216POPC   C2B53720  38.857  40.796   6.509
 4216POPC   C3B53721  38.678  40.835   6.908
 4216POPC   C4B53722  38.818  40.746   7.318
 4217POPC   NC353723  26.456  40.178   5.557
 4217POPC   PO453724  27.123  40.400   5.479
 4217POPC   GL153725  26.873  40.286   5.854
 4217POPC   GL253726  26.776  39.918   5.881
 4217POPC   C1A53727  26.783  40.248   6.299
 4217POPC   D2A53728  26.973  39.984   6.625
 4217POPC   C3A53729  26.912  40.162   7.068
 4217POPC   C4A53730  26.935  40.187   7.577
 4217POPC   C1B53731  26.652  39.732   6.287
 4217POPC   C2B53732  26.353  39.698   6.610
 4217POPC   C3B53733  26.283  39.828   7.069
 4217POPC   C4B53734  26.440  40.214   7.278
 4218POPC   NC353735   6.371  17.471   5.483
 4218POPC   PO453736   6.957  17.195   5.670
 4218POPC   GL153737   6.775  17.612   5.781
 4218POPC   GL253738   6.397  17.734   5.899
 4218POPC   C1A53739   6.819  17.732   6.189
 4218POPC   D2A53740   6.531  17.673   6.500
 4218POPC   C3A53741   6.744  17.557   6.846
 4218POPC   C4A53742   6.648  17.735   7.247
 4218POPC   C1B53743   6.329  17.335   6.144
 4218POPC   C2B53744   6.191  17.248   6.579
 4218POPC   C3B53745   6.280  17.384   7.003
 4218POPC   C4B53746   6.613  17.204   7.172
 4219POPC   NC353747  29.344  11.109   5.497
 4219POPC   PO453748  29.067  11.508   5.767
 4219POPC   GL153749  29.415  11.345   5.988
 4219POPC   GL253750  29.258  11.038   6.000
 4219POPC   C1A53751  29.465  11.180   6.437
 4219POPC   D2A53752  29.466  11.163   6.893
 4219POPC   C3A53753  29.106  11.412   7.088
 4219POPC   C4A53754  28.997  11.367   7.544
 4219POPC   C1B53755  29.081  10.820   6.373
 4219POPC   C2B53756  28.994  10.976   6.806
 4219POPC   C3B53757  29.042  10.931   7.268
 4219POPC   C4B53758  28.687  10.958   7.584
 4220POPC   NC353759  32.375   3.135   5.404
 4220POPC   PO453760  32.093   2.567   5.526
 4220POPC   GL153761  32.256   2.855   5.817
 4220POPC   GL253762  32.020   3.114   5.870
 4220POPC   C1A53763  32.430   2.918   6.214
 4220POPC   D2A53764  32.256   3.027   6.604
 4220POPC   C3A53765  32.479   2.799   6.916
 4220POPC   C4A53766  32.471   2.795   7.354
 4220POPC   C1B53767  31.912   2.823   6.203
 4220POPC   C2B53768  31.775   2.694   6.611
 4220POPC   C3B53769  31.975   2.790   6.993
 4220POPC   C4B53770  31.989   2.606   7.399
 4221POPC   NC353771  28.512  24.965   5.428
 4221POPC   PO453772  28.127  25.537   5.536
 4221POPC   GL153773  28.453  25.331   5.790
 4221POPC   GL253774  28.222  25.086   5.926
 4221POPC   C1A53775  28.691  25.228   6.201
 4221POPC   D2A53776  28.689  25.002   6.617
 4221POPC   C3A53777  28.693  25.218   7.005
 4221POPC   C4A53778  28.358  25.439   7.211
 4221POPC   C1B53779  28.216  25.477   6.223
 4221POPC   C2B53780  28.279  25.440   6.669
 4221POPC   C3B53781  28.202  25.071   6.874
 4221POPC   C4B53782  28.261  24.893   7.248
 4222POPC   NC353783  16.578  32.887   5.307
 4222POPC   PO453784  17.096  33.294   5.518
 4222POPC   GL153785  16.984  33.176   5.898
 4222POPC   GL253786  16.666  33.018   5.806
 4222POPC   C1A53787  16.904  33.000   6.276
 4222POPC   D2A53788  16.617  33.116   6.555
 4222POPC   C3A53789  16.754  32.908   6.874
 4222POPC   C4A53790  16.893  32.752   7.211
 4222POPC   C1B53791  16.426  32.824   6.144
 4222POPC   C2B53792  16.166  32.889   6.536
 4222POPC   C3B53793  16.265  33.069   6.957
 4222POPC   C4B53794  16.558  33.120   7.291
 4223POPC   NC353795  39.377  31.086   5.387
 4223POPC   PO453796  39.177  31.673   5.431
 4223POPC   GL153797  39.291  31.508   5.807
 4223POPC   GL253798  39.536  31.248   5.840
 4223POPC   C1A53799  39.215  31.346   6.232
 4223POPC   D2A53800  39.355  31.233   6.649
 4223POPC   C3A53801  39.098  31.372   7.001
 4223POPC   C4A53802  38.785  31.395   7.304
 4223POPC   C1B53803  39.689  31.545   6.139
 4223POPC   C2B53804  39.652  31.728   6.548
 4223POPC   C3B53805  39.639  31.552   6.950
 4223POPC   C4B53806  39.459  31.532   7.342
 4224POPC   NC353807  30.072  28.745   5.423
 4224POPC   PO453808  29.694  28.126   5.338
 4224POPC   GL153809  29.729  28.196   5.788
 4224POPC   GL253810  29.905  27.879   5.833
 4224POPC   C1A53811  29.864  28.536   6.127
 4224POPC   D2A53812  30.066  28.478   6.540
 4224POPC   C3A53813  29.817  28.503   6.900
 4224POPC   C4A53814  30.039  28.588   7.291
 4224POPC   C1B53815  29.990  28.047   6.215
 4224POPC   C2B53816  29.676  28.136   6.508
 4224POPC   C3B53817  29.699  27.961   6.889
 4224POPC   C4B53818  29.764  28.148   7.269
 4225POPC   NC353819  42.595  39.023   5.538
 4225POPC   PO453820  42.331  39.628   5.476
 4225POPC   GL153821  42.281  39.466   5.899
 4225POPC   GL253822  42.177  39.110   5.870
 4225POPC   C1A53823  42.367  39.469   6.364
 4225POPC   D2A53824  42.178  39.298   6.738
 4225POPC   C3A53825  42.254  39.400   7.177
 4225POPC   C4A53826  42.077  39.213   7.567
 4225POPC   C1B53827  42.484  39.012   6.179
 4225POPC   C2B53828  42.635  39.051   6.592
 4225POPC   C3B53829  42.597  39.053   7.006
 4225POPC   C4B53830  42.547  39.041   7.429
 4226POPC   NC353831  23.727  11.452   5.405
 4226POPC   PO453832  24.074  10.877   5.464
 4226POPC   GL153833  23.932  11.197   5.808
 4226POPC   GL253834  23.589  11.234   5.887
 4226POPC   C1A53835  23.901  11.359   6.261
 4226POPC   D2A53836  23.764  11.156   6.647
 4226POPC   C3A53837  23.907  11.273   7.046
 4226POPC   C4A53838  23.823  10.949   7.367
 4226POPC   C1B53839  23.397  11.324   6.311
 4226POPC   C2B53840  23.298  11.302   6.763
 4226POPC   C3B53841  23.406  11.266   7.230
 4226POPC   C4B53842  23.419  11.137   7.690
 4227POPC   NC353843   8.070  20.860   5.498
 4227POPC   PO453844   8.453  20.364   5.425
 4227POPC   GL153845   8.378  20.555   5.807
 4227POPC   GL253846   8.509  20.844   5.848
 4227POPC   C1A53847   8.518  20.507   6.255
 4227POPC   D2A53848   8.216  20.627   6.577
 4227POPC   C3A53849   8.200  20.469   6.981
 4227POPC   C4A53850   7.932  20.335   7.269
 4227POPC   C1B53851   8.151  20.880   6.138
 4227POPC   C2B53852   7.978  21.092   6.494
 4227POPC   C3B53853   8.128  21.024   6.915
 4227POPC   C4B53854   8.057  20.856   7.323
 4228POPC   NC353855  33.603   4.841   5.585
 4228POPC   PO453856  34.097   5.220   5.607
 4228POPC   GL153857  33.833   5.183   5.894
 4228POPC   GL253858  33.985   4.845   5.976
 4228POPC   C1A53859  33.680   5.146   6.278
 4228POPC   D2A53860  33.939   5.106   6.618
 4228POPC   C3A53861  33.702   5.289   6.931
 4228POPC   C4A53862  33.533   5.123   7.282
 4228POPC   C1B53863  34.281   4.773   6.331
 4228POPC   C2B53864  34.287   4.778   6.804
 4228POPC   C3B53865  33.937   4.812   7.103
 4228POPC   C4B53866  33.533   4.608   7.278
 4229POPC   NC353867  26.348  35.322   5.509
 4229POPC   PO453868  25.646  35.157   5.467
 4229POPC   GL153869  25.885  35.330   5.767
 4229POPC   GL253870  26.097  35.057   5.871
 4229POPC   C1A53871  26.054  35.498   6.148
 4229POPC   D2A53872  26.120  35.649   6.550
 4229POPC   C3A53873  26.249  35.318   6.819
 4229POPC   C4A53874  26.254  35.367   7.233
 4229POPC   C1B53875  25.735  35.021   6.139
 4229POPC   C2B53876  25.618  35.345   6.374
 4229POPC   C3B53877  25.735  35.397   6.787
 4229POPC   C4B53878  25.685  35.560   7.179
 4230POPC   NC353879   7.908  43.924   5.395
 4230POPC   PO453880   8.553  43.895   5.195
 4230POPC   GL153881   8.310  43.993   5.670
 4230POPC   GL253882   8.063  43.743   5.839
 4230POPC   C1A53883   8.085  44.110   6.142
 4230POPC   D2A53884   8.256  44.161   6.525
 4230POPC   C3A53885   8.115  44.185   6.912
 4230POPC   C4A53886   8.079  43.896   7.173
 4230POPC   C1B53887   8.198  43.574   6.248
 4230POPC   C2B53888   8.233  43.680   6.711
 4230POPC   C3B53889   8.223  43.423   7.081
 4230POPC   C4B53890   8.012  43.506   7.475
 4231POPC   NC353891  44.202  35.652   5.612
 4231POPC   PO453892  44.726  35.232   5.404
 4231POPC   GL153893  44.603  35.118   5.828
 4231POPC   GL253894  44.297  35.243   5.936
 4231POPC   C1A53895  44.691  35.156   6.257
 4231POPC   D2A53896   0.004  35.288   6.541
 4231POPC   C3A53897  44.832  35.390   6.936
 4231POPC   C4A53898  44.833  35.106   7.277
 4231POPC   C1B53899  44.341  35.546   6.288
 4231POPC   C2B53900  44.391  35.544   6.743
 4231POPC   C3B53901  44.363  35.555   7.219
 4231POPC   C4B53902  44.220  35.505   7.693
 4232POPC   NC353903   4.472  14.734   5.576
 4232POPC   PO453904   4.008  14.352   5.255
 4232POPC   GL153905   4.119  14.379   5.732
 4232POPC   GL253906   4.465  14.283   5.862
 4232POPC   C1A53907   4.223  14.623   6.147
 4232POPC   D2A53908   4.437  14.537   6.521
 4232POPC   C3A53909   4.154  14.711   6.818
 4232POPC   C4A53910   4.014  14.786   7.224
 4232POPC   C1B53911   4.231  14.122   6.266
 4232POPC   C2B53912   4.094  14.180   6.709
 4232POPC   C3B53913   4.224  14.308   7.115
 4232POPC   C4B53914   4.639  14.454   7.006
 4233POPC   NC353915  28.670  26.607   5.399
 4233POPC   PO453916  28.382  27.187   5.420
 4233POPC   GL153917  28.610  27.016   5.780
 4233POPC   GL253918  28.446  26.703   5.847
 4233POPC   C1A53919  28.563  27.026   6.242
 4233POPC   D2A53920  28.236  26.899   6.547
 4233POPC   C3A53921  28.328  26.844   6.953
 4233POPC   C4A53922  28.568  27.156   7.174
 4233POPC   C1B53923  28.226  26.556   6.186
 4233POPC   C2B53924  28.285  26.389   6.571
 4233POPC   C3B53925  28.071  26.359   6.922
 4233POPC   C4B53926  28.312  26.447   7.273
 4234POPC   NC353927  37.180   9.664   5.339
 4234POPC   PO453928  36.526   9.778   5.320
 4234POPC   GL153929  36.835   9.771   5.689
 4234POPC   GL253930  37.194   9.889   5.787
 4234POPC   C1A53931  36.924   9.638   6.111
 4234POPC   D2A53932  36.955   9.854   6.478
 4234POPC   C3A53933  36.826   9.668   6.848
 4234POPC   C4A53934  36.844   9.950   7.186
 4234POPC   C1B53935  37.402   9.870   6.177
 4234POPC   C2B53936  37.418   9.665   6.557
 4234POPC   C3B53937  37.295   9.816   6.950
 4234POPC   C4B53938  37.210   9.637   7.343
 4235POPC   NC353939  12.700  23.516   5.436
 4235POPC   PO453940  13.182  23.932   5.402
 4235POPC   GL153941  12.956  23.792   5.804
 4235POPC   GL253942  12.555  23.872   5.783
 4235POPC   C1A53943  13.063  23.603   6.250
 4235POPC   D2A53944  13.266  23.592   6.692
 4235POPC   C3A53945  12.992  23.508   7.054
 4235POPC   C4A53946  13.000  23.262   7.434
 4235POPC   C1B53947  12.572  23.534   6.064
 4235POPC   C2B53948  12.556  23.504   6.474
 4235POPC   C3B53949  12.513  23.532   6.887
 4235POPC   C4B53950  12.615  23.894   7.098
 4236POPC   NC353951  12.086  42.005   5.337
 4236POPC   PO453952  12.022  41.418   5.391
 4236POPC   GL153953  12.035  41.620   5.789
 4236POPC   GL253954  12.354  41.759   5.756
 4236POPC   C1A53955  11.851  41.521   6.195
 4236POPC   D2A53956  12.021  41.599   6.593
 4236POPC   C3A53957  11.817  41.609   6.984
 4236POPC   C4A53958  12.036  41.572   7.355
 4236POPC   C1B53959  12.264  41.875   6.189
 4236POPC   C2B53960  12.225  42.065   6.591
 4236POPC   C3B53961  12.237  41.923   7.022
 4236POPC   C4B53962  12.484  41.832   7.407
 4237POPC   NC353963   9.246   5.509   5.726
 4237POPC   PO453964   9.217   4.854   5.425
 4237POPC   GL153965   9.173   5.009   5.837
 4237POPC   GL253966   8.839   5.126   5.807
 4237POPC   C1A53967   9.093   5.124   6.280
 4237POPC   D2A53968   8.846   5.027   6.643
 4237POPC   C3A53969   9.105   5.022   6.998
 4237POPC   C4A53970   9.165   5.138   7.417
 4237POPC   C1B53971   8.610   5.180   6.184
 4237POPC   C2B53972   8.453   5.358   6.551
 4237POPC   C3B53973   8.553   5.388   6.957
 4237POPC   C4B53974   8.671   5.547   7.342
 4238POPC   NC353975  32.304  30.996   5.363
 4238POPC   PO453976  31.860  30.549   5.520
 4238POPC   GL153977  31.982  30.510   5.892
 4238POPC   GL253978  32.309  30.599   5.776
 4238POPC   C1A53979  31.991  30.741   6.266
 4238POPC   D2A53980  32.257  30.945   6.552
 4238POPC   C3A53981  32.246  30.860   6.952
 4238POPC   C4A53982  32.067  30.849   7.350
 4238POPC   C1B53983  32.486  30.666   6.165
 4238POPC   C2B53984  32.659  30.639   6.544
 4238POPC   C3B53985  32.727  30.682   6.952
 4238POPC   C4B53986  32.571  30.731   7.358
 4239POPC   NC353987  27.560  40.330   5.386
 4239POPC   PO453988  27.948  39.795   5.416
 4239POPC   GL153989  27.785  39.967   5.798
 4239POPC   GL253990  27.854  40.318   5.818
 4239POPC   C1A53991  27.673  39.877   6.254
 4239POPC   D2A53992  27.698  39.815   6.713
 4239POPC   C3A53993  27.346  39.872   6.979
 4239POPC   C4A53994  27.369  40.216   7.280
 4239POPC   C1B53995  28.056  40.203   6.173
 4239POPC   C2B53996  27.901  40.298   6.579
 4239POPC   C3B53997  27.948  40.146   7.000
 4239POPC   C4B53998  27.791  39.810   7.245
 4240POPC   NC353999   9.854  44.950   5.506
 4240POPC   PO454000   9.448  44.475   5.350
 4240POPC   GL154001   9.679  44.410   5.803
 4240POPC   GL254002   9.909  44.691   5.929
 4240POPC   C1A54003   9.892  44.270   6.201
 4240POPC   D2A54004  10.024  44.629   6.470
 4240POPC   C3A54005   9.837  44.591   6.880
 4240POPC   C4A54006   9.973  44.365   7.230
 4240POPC   C1B54007  10.229  44.992   6.093
 4240POPC   C2B54008  10.364   0.050   6.506
 4240POPC   C3B54009  10.281  44.859   6.912
 4240POPC   C4B54010  10.009  44.886   7.254
 4241POPC   NC354011  32.158  32.648   5.290
 4241POPC   PO454012  32.628  33.094   5.468
 4241POPC   GL154013  32.469  32.974   5.837
 4241POPC   GL254014  32.143  33.020   5.758
 4241POPC   C1A54015  32.290  32.806   6.200
 4241POPC   D2A54016  32.150  32.965   6.609
 4241POPC   C3A54017  32.363  32.899   6.965
 4241POPC   C4A54018  32.320  32.627   7.282
 4241POPC   C1B54019  31.973  33.265   6.158
 4241POPC   C2B54020  31.844  33.364   6.597
 4241POPC   C3B54021  32.050  33.375   6.992
 4241POPC   C4B54022  32.156  33.135   7.348
 4242POPC   NC354023  28.994   1.516   5.661
 4242POPC   PO454024  29.278   0.914   5.212
 4242POPC   GL154025  29.561   1.003   5.721
 4242POPC   GL254026  29.492   1.315   5.865
 4242POPC   C1A54027  29.399   0.988   6.235
 4242POPC   D2A54028  29.060   0.919   6.593
 4242POPC   C3A54029  29.196   1.059   7.030
 4242POPC   C4A54030  29.171   1.021   7.492
 4242POPC   C1B54031  29.341   1.530   6.236
 4242POPC   C2B54032  29.331   1.373   6.631
 4242POPC   C3B54033  29.228   1.567   7.001
 4242POPC   C4B54034  29.363   1.468   7.398
 4243POPC   NC354035  29.819   4.970   5.450
 4243POPC   PO454036  29.568   5.523   5.288
 4243POPC   GL154037  29.844   5.299   5.807
 4243POPC   GL254038  30.060   4.985   5.884
 4243POPC   C1A54039  29.722   5.058   6.240
 4243POPC   D2A54040  29.732   4.903   6.680
 4243POPC   C3A54041  29.790   5.261   6.967
 4243POPC   C4A54042  29.787   5.483   7.363
 4243POPC   C1B54043  30.267   5.036   6.310
 4243POPC   C2B54044  30.425   5.294   6.673
 4243POPC   C3B54045  30.449   5.207   7.107
 4243POPC   C4B54046  30.128   4.933   7.208
 4244POPC   NC354047   5.792  41.889   5.499
 4244POPC   PO454048   6.100  41.333   5.643
 4244POPC   GL154049   5.748  41.550   5.883
 4244POPC   GL254050   5.710  41.927   6.000
 4244POPC   C1A54051   5.636  41.498   6.293
 4244POPC   D2A54052   5.620  41.667   6.708
 4244POPC   C3A54053   5.808  41.378   6.999
 4244POPC   C4A54054   5.714  41.327   7.409
 4244POPC   C1B54055   6.096  41.780   6.231
 4244POPC   C2B54056   6.393  41.891   6.596
 4244POPC   C3B54057   6.349  41.801   7.056
 4244POPC   C4B54058   5.893  41.845   7.195
 4245POPC   NC354059  14.464  43.631   5.403
 4245POPC   PO454060  14.678  44.301   5.394
 4245POPC   GL154061  14.584  44.009   5.739
 4245POPC   GL254062  14.293  44.076   5.892
 4245POPC   C1A54063  14.665  43.744   6.128
 4245POPC   D2A54064  14.826  43.644   6.570
 4245POPC   C3A54065  14.589  43.685   6.961
 4245POPC   C4A54066  14.612  44.052   7.193
 4245POPC   C1B54067  14.243  43.953   6.329
 4245POPC   C2B54068  14.266  44.102   6.749
 4245POPC   C3B54069  14.102  43.951   7.111
 4245POPC   C4B54070  14.165  44.133   7.477
 4246POPC   NC354071  36.054  23.632   5.199
 4246POPC   PO454072  36.670  23.945   5.338
 4246POPC   GL154073  36.346  23.808   5.658
 4246POPC   GL254074  36.129  23.553   5.678
 4246POPC   C1A54075  36.256  23.726   6.137
 4246POPC   D2A54076  36.399  23.879   6.580
 4246POPC   C3A54077  36.313  23.727   7.022
 4246POPC   C4A54078  35.975  23.897   7.297
 4246POPC   C1B54079  35.820  23.343   5.896
 4246POPC   C2B54080  35.854  23.402   6.327
 4246POPC   C3B54081  35.718  23.345   6.724
 4246POPC   C4B54082  35.875  23.436   7.113
 4247POPC   NC354083  15.305  26.193   5.470
 4247POPC   PO454084  14.929  25.644   5.461
 4247POPC   GL154085  15.196  25.804   5.804
 4247POPC   GL254086  15.101  26.161   5.921
 4247POPC   C1A54087  15.384  25.877   6.215
 4247POPC   D2A54088  15.240  26.198   6.481
 4247POPC   C3A54089  15.324  26.078   6.898
 4247POPC   C4A54090  15.143  25.943   7.290
 4247POPC   C1B54091  14.799  26.341   6.195
 4247POPC   C2B54092  14.835  26.532   6.599
 4247POPC   C3B54093  14.866  26.336   7.000
 4247POPC   C4B54094  14.952  26.467   7.416
 4248POPC   NC354095  38.597  23.724   5.405
 4248POPC   PO454096  38.029  23.284   5.504
 4248POPC   GL154097  38.254  23.641   5.797
 4248POPC   GL254098  38.625  23.666   5.897
 4248POPC   C1A54099  38.170  23.922   6.159
 4248POPC   D2A54100  38.142  23.760   6.599
 4248POPC   C3A54101  38.225  23.996   6.979
 4248POPC   C4A54102  38.598  24.013   7.263
 4248POPC   C1B54103  38.549  23.629   6.321
 4248POPC   C2B54104  38.637  23.862   6.698
 4248POPC   C3B54105  38.716  23.588   7.023
 4248POPC   C4B54106  38.773  23.531   7.448
 4249POPC   NC354107  41.061  35.565   5.175
 4249POPC   PO454108  40.670  35.575   5.730
 4249POPC   GL154109  40.836  35.352   5.995
 4249POPC   GL254110  41.130  35.329   5.849
 4249POPC   C1A54111  40.929  35.413   6.407
 4249POPC   D2A54112  40.617  35.276   6.661
 4249POPC   C3A54113  40.595  35.382   7.106
 4249POPC   C4A54114  40.445  35.295   7.542
 4249POPC   C1B54115  41.200  35.024   6.171
 4249POPC   C2B54116  41.101  34.968   6.606
 4249POPC   C3B54117  41.067  35.285   6.907
 4249POPC   C4B54118  41.147  35.214   7.300
 4250POPC   NC354119  41.695  43.441   5.350
 4250POPC   PO454120  41.204  43.076   5.489
 4250POPC   GL154121  41.351  43.021   5.879
 4250POPC   GL254122  41.679  43.182   5.807
 4250POPC   C1A54123  41.411  43.045   6.318
 4250POPC   D2A54124  41.619  43.285   6.616
 4250POPC   C3A54125  41.542  43.481   6.976
 4250POPC   C4A54126  41.676  43.435   7.397
 4250POPC   C1B54127  41.896  43.197   6.199
 4250POPC   C2B54128  41.998  42.953   6.598
 4250POPC   C3B54129  41.858  43.084   7.052
 4250POPC   C4B54130  41.906  43.025   7.552
 4251POPC   NC354131   1.729  26.508   5.506
 4251POPC   PO454132   2.041  27.096   5.430
 4251POPC   GL154133   2.202  26.943   5.817
 4251POPC   GL254134   2.404  26.638   5.747
 4251POPC   C1A54135   2.245  26.919   6.263
 4251POPC   D2A54136   2.001  26.910   6.613
 4251POPC   C3A54137   2.130  27.018   6.997
 4251POPC   C4A54138   1.925  27.036   7.365
 4251POPC   C1B54139   2.138  26.459   6.075
 4251POPC   C2B54140   2.061  26.423   6.494
 4251POPC   C3B54141   2.055  26.490   6.931
 4251POPC   C4B54142   2.367  26.613   7.215
 4252POPC   NC354143   6.375  21.698   5.279
 4252POPC   PO454144   6.632  22.386   5.382
 4252POPC   GL154145   6.510  22.366   5.786
 4252POPC   GL254146   6.379  22.002   5.825
 4252POPC   C1A54147   6.635  22.315   6.188
 4252POPC   D2A54148   6.774  22.087   6.542
 4252POPC   C3A54149   6.650  22.294   6.901
 4252POPC   C4A54150   6.522  22.223   7.314
 4252POPC   C1B54151   6.380  21.834   6.263
 4252POPC   C2B54152   6.256  21.895   6.701
 4252POPC   C3B54153   6.457  21.786   7.092
 4252POPC   C4B54154   6.356  21.833   7.565
 4253POPC   NC354155  44.375   8.560   5.460
 4253POPC   PO454156  44.209   9.165   5.645
 4253POPC   GL154157  43.871   8.891   5.829
 4253POPC   GL254158  44.004   8.598   5.843
 4253POPC   C1A54159  43.654   8.945   6.220
 4253POPC   D2A54160  43.855   8.847   6.616
 4253POPC   C3A54161  43.822   9.069   6.987
 4253POPC   C4A54162  43.633   8.815   7.269
 4253POPC   C1B54163  44.213   8.775   6.214
 4253POPC   C2B54164  44.401   8.842   6.646
 4253POPC   C3B54165  44.287   8.868   7.075
 4253POPC   C4B54166  44.094   9.143   7.421
 4254POPC   NC354167   3.270  43.791   5.419
 4254POPC   PO454168   3.795  44.328   5.416
 4254POPC   GL154169   3.736  44.072   5.762
 4254POPC   GL254170   3.377  44.063   5.865
 4254POPC   C1A54171   3.775  43.946   6.197
 4254POPC   D2A54172   3.477  44.059   6.506
 4254POPC   C3A54173   3.659  44.128   6.899
 4254POPC   C4A54174   3.451  44.177   7.265
 4254POPC   C1B54175   3.374  43.617   6.071
 4254POPC   C2B54176   3.430  43.427   6.482
 4254POPC   C3B54177   3.396  43.647   6.923
 4254POPC   C4B54178   3.249  43.716   7.368
 4255POPC   NC354179  16.186  35.624   5.284
 4255POPC   PO454180  16.341  35.056   5.467
 4255POPC   GL154181  16.066  35.308   5.707
 4255POPC   GL254182  15.742  35.181   5.785
 4255POPC   C1A54183  16.101  35.387   6.159
 4255POPC   D2A54184  16.247  35.609   6.556
 4255POPC   C3A54185  16.062  35.594   6.967
 4255POPC   C4A54186  16.197  35.501   7.389
 4255POPC   C1B54187  15.776  34.978   6.205
 4255POPC   C2B54188  16.102  34.987   6.547
 4255POPC   C3B54189  16.105  35.095   6.980
 4255POPC   C4B54190  15.772  35.261   7.255
 4256POPC   NC354191  15.335  30.857   5.476
 4256POPC   PO454192  14.873  30.396   5.343
 4256POPC   GL154193  15.102  30.402   5.772
 4256POPC   GL254194  14.784  30.329   5.906
 4256POPC   C1A54195  15.333  30.659   6.141
 4256POPC   D2A54196  15.185  30.779   6.576
 4256POPC   C3A54197  15.335  30.714   7.003
 4256POPC   C4A54198  15.226  30.731   7.460
 4256POPC   C1B54199  14.869  30.480   6.307
 4256POPC   C2B54200  14.875  30.361   6.742
 4256POPC   C3B54201  14.869  30.506   7.167
 4256POPC   C4B54202  14.992  30.277   7.541
 4257POPC   NC354203  15.966  37.944   5.453
 4257POPC   PO454204  15.608  37.317   5.504
 4257POPC   GL154205  15.887  37.595   5.875
 4257POPC   GL254206  15.810  37.945   5.927
 4257POPC   C1A54207  16.252  37.663   6.191
 4257POPC   D2A54208  16.300  37.472   6.614
 4257POPC   C3A54209  16.174  37.583   7.016
 4257POPC   C4A54210  16.262  37.672   7.423
 4257POPC   C1B54211  15.893  37.976   6.331
 4257POPC   C2B54212  15.874  37.862   6.716
 4257POPC   C3B54213  15.830  37.964   7.142
 4257POPC   C4B54214  15.639  37.945   7.549
 4258POPC   NC354215  39.710   9.908   5.530
 4258POPC   PO454216  40.360   9.810   5.390
 4258POPC   GL154217  40.223   9.778   5.797
 4258POPC   GL254218  40.153  10.099   5.827
 4258POPC   C1A54219  40.062   9.537   6.150
 4258POPC   D2A54220  39.824   9.269   6.516
 4258POPC   C3A54221  39.740   9.476   6.918
 4258POPC   C4A54222  39.839   9.892   7.049
 4258POPC   C1B54223  39.992  10.030   6.226
 4258POPC   C2B54224  40.031   9.758   6.602
 4258POPC   C3B54225  40.309   9.716   6.983
 4258POPC   C4B54226  40.222   9.993   7.358
 4259POPC   NC354227   0.516  10.172   5.493
 4259POPC   PO454228   0.702   9.585   5.273
 4259POPC   GL154229   0.502   9.597   5.732
 4259POPC   GL254230   0.401   9.907   5.909
 4259POPC   C1A54231   0.332   9.391   6.129
 4259POPC   D2A54232   0.154   9.308   6.548
 4259POPC   C3A54233   0.389   9.554   6.844
 4259POPC   C4A54234   0.404   9.685   7.250
 4259POPC   C1B54235   0.363   9.847   6.336
 4259POPC   C2B54236   0.329  10.075   6.700
 4259POPC   C3B54237   0.113  10.082   7.087
 4259POPC   C4B54238   0.158  10.015   7.542
 4260POPC   NC354239   9.329   6.768   5.489
 4260POPC   PO454240   8.712   6.457   5.354
 4260POPC   GL154241   8.889   6.621   5.765
 4260POPC   GL254242   8.880   6.985   5.645
 4260POPC   C1A54243   9.063   6.570   6.236
 4260POPC   D2A54244   9.239   6.812   6.613
 4260POPC   C3A54245   9.237   6.583   7.017
 4260POPC   C4A54246   8.884   6.442   7.193
 4260POPC   C1B54247   8.962   7.045   6.084
 4260POPC   C2B54248   8.713   6.919   6.454
 4260POPC   C3B54249   8.773   6.896   6.894
 4260POPC   C4B54250   9.124   7.074   7.076
 4261POPC   NC354251  42.045  10.815   5.491
 4261POPC   PO454252  42.702  10.541   5.395
 4261POPC   GL154253  42.524  10.518   5.811
 4261POPC   GL254254  42.133  10.428   5.830
 4261POPC   C1A54255  42.467  10.432   6.248
 4261POPC   D2A54256  42.208  10.596   6.569
 4261POPC   C3A54257  42.419  10.689   6.953
 4261POPC   C4A54258  42.237  10.649   7.361
 4261POPC   C1B54259  42.016  10.197   6.236
 4261POPC   C2B54260  42.292  10.086   6.619
 4261POPC   C3B54261  42.309  10.204   7.075
 4261POPC   C4B54262  42.621  10.307   7.387
 4262POPC   NC354263   3.401   5.498   5.544
 4262POPC   PO454264   3.261   6.156   5.626
 4262POPC   GL154265   3.372   5.906   5.919
 4262POPC   GL254266   3.698   5.739   5.945
 4262POPC   C1A54267   3.448   5.997   6.327
 4262POPC   D2A54268   3.668   5.777   6.615
 4262POPC   C3A54269   3.444   5.953   6.956
 4262POPC   C4A54270   3.606   5.793   7.315
 4262POPC   C1B54271   3.346   5.513   6.231
 4262POPC   C2B54272   3.170   5.645   6.621
 4262POPC   C3B54273   3.364   5.442   6.962
 4262POPC   C4B54274   3.356   5.318   7.366
 4263POPC   NC354275  33.717  20.120   5.366
 4263POPC   PO454276  34.061  19.645   5.403
 4263POPC   GL154277  33.986  19.832   5.769
 4263POPC   GL254278  33.685  19.640   5.780
 4263POPC   C1A54279  33.919  19.748   6.207
 4263POPC   D2A54280  33.704  19.941   6.509
 4263POPC   C3A54281  33.713  19.822   6.893
 4263POPC   C4A54282  33.718  20.161   7.144
 4263POPC   C1B54283  33.424  19.592   6.176
 4263POPC   C2B54284  33.292  19.661   6.589
 4263POPC   C3B54285  33.348  19.465   6.948
 4263POPC   C4B54286  33.477  19.396   7.366
 4264POPC   NC354287  38.869  26.978   5.585
 4264POPC   PO454288  39.601  26.960   5.484
 4264POPC   GL154289  39.334  26.758   5.807
 4264POPC   GL254290  39.048  26.873   6.035
 4264POPC   C1A54291  39.451  26.685   6.270
 4264POPC   D2A54292  39.204  26.753   6.614
 4264POPC   C3A54293  39.452  26.826   6.966
 4264POPC   C4A54294  39.280  26.634   7.298
 4264POPC   C1B54295  38.914  27.278   6.235
 4264POPC   C2B54296  38.919  27.357   6.692
 4264POPC   C3B54297  38.959  27.009   7.009
 4264POPC   C4B54298  38.985  27.024   7.474
 4265POPC   NC354299  34.661  11.405   5.440
 4265POPC   PO454300  34.518  10.798   5.483
 4265POPC   GL154301  34.509  11.063   5.842
 4265POPC   GL254302  34.274  11.339   5.821
 4265POPC   C1A54303  34.553  11.115   6.278
 4265POPC   D2A54304  34.794  10.986   6.624
 4265POPC   C3A54305  34.613  11.176   6.972
 4265POPC   C4A54306  34.553  11.130   7.402
 4265POPC   C1B54307  34.589  11.575   6.060
 4265POPC   C2B54308  34.641  11.628   6.477
 4265POPC   C3B54309  34.487  11.701   6.868
 4265POPC   C4B54310  34.668  11.625   7.230
 4266POPC   NC354311  10.389  28.168   5.603
 4266POPC   PO454312  10.417  27.466   5.604
 4266POPC   GL154313  10.635  27.729   5.891
 4266POPC   GL254314  10.478  28.009   6.072
 4266POPC   C1A54315  10.737  27.615   6.300
 4266POPC   D2A54316  10.576  27.689   6.703
 4266POPC   C3A54317  10.744  27.596   7.090
 4266POPC   C4A54318  10.903  27.486   7.502
 4266POPC   C1B54319  10.226  27.745   6.338
 4266POPC   C2B54320  10.072  27.675   6.749
 4266POPC   C3B54321  10.299  27.906   7.076
 4266POPC   C4B54322  10.398  27.733   7.465
 4267POPC   NC354323  11.817  30.180   5.515
 4267POPC   PO454324  11.959  29.575   5.270
 4267POPC   GL154325  11.943  29.759   5.799
 4267POPC   GL254326  11.980  30.142   5.974
 4267POPC   C1A54327  12.064  29.784   6.281
 4267POPC   D2A54328  11.835  29.821   6.642
 4267POPC   C3A54329  12.058  29.588   6.879
 4267POPC   C4A54330  12.342  29.627   7.150
 4267POPC   C1B54331  12.141  30.333   6.374
 4267POPC   C2B54332  12.242  30.124   6.765
 4267POPC   C3B54333  11.957  30.035   7.099
 4267POPC   C4B54334  11.804  30.129   7.534
 4268POPC   NC354335  43.128   8.598   5.309
 4268POPC   PO454336  43.213   7.938   5.512
 4268POPC   GL154337  43.093   8.155   5.902
 4268POPC   GL254338  43.097   8.520   5.827
 4268POPC   C1A54339  43.056   8.200   6.375
 4268POPC   D2A54340  42.765   8.006   6.728
 4268POPC   C3A54341  43.005   7.736   7.056
 4268POPC   C4A54342  43.356   7.951   7.276
 4268POPC   C1B54343  43.422   8.497   6.156
 4268POPC   C2B54344  43.338   8.601   6.610
 4268POPC   C3B54345  43.169   8.270   6.896
 4268POPC   C4B54346  42.878   8.178   7.249
 4269POPC   NC354347  35.214  23.748   5.244
 4269POPC   PO454348  35.855  24.055   5.335
 4269POPC   GL154349  35.614  23.753   5.634
 4269POPC   GL254350  35.240  23.681   5.731
 4269POPC   C1A54351  35.554  23.762   6.106
 4269POPC   D2A54352  35.407  23.735   6.529
 4269POPC   C3A54353  35.558  23.890   6.918
 4269POPC   C4A54354  35.333  23.849   7.279
 4269POPC   C1B54355  35.003  23.574   6.094
 4269POPC   C2B54356  34.916  23.631   6.503
 4269POPC   C3B54357  34.986  23.753   6.911
 4269POPC   C4B54358  34.980  23.477   7.257
 4270POPC   NC354359  28.116  16.493   5.079
 4270POPC   PO454360  28.490  15.969   5.421
 4270POPC   GL154361  28.366  15.813   5.844
 4270POPC   GL254362  28.512  15.529   6.021
 4270POPC   C1A54363  28.117  15.917   6.206
 4270POPC   D2A54364  28.070  16.041   6.633
 4270POPC   C3A54365  28.455  15.987   6.834
 4270POPC   C4A54366  28.396  15.880   7.202
 4270POPC   C1B54367  28.639  15.864   6.341
 4270POPC   C2B54368  28.927  15.844   6.685
 4270POPC   C3B54369  28.772  15.588   7.040
 4270POPC   C4B54370  28.595  15.514   7.465
 4271POPC   NC354371  21.867   6.985   5.552
 4271POPC   PO454372  21.244   6.645   5.401
 4271POPC   GL154373  21.291   6.764   5.803
 4271POPC   GL254374  20.978   6.958   5.825
 4271POPC   C1A54375  21.500   6.574   6.181
 4271POPC   D2A54376  21.622   6.249   6.467
 4271POPC   C3A54377  21.501   6.335   6.911
 4271POPC   C4A54378  21.413   6.647   7.252
 4271POPC   C1B54379  21.060   6.871   6.261
 4271POPC   C2B54380  21.232   6.864   6.675
 4271POPC   C3B54381  20.990   6.868   7.050
 4271POPC   C4B54382  21.006   6.812   7.530
 4272POPC   NC354383  24.992  15.086   5.381
 4272POPC   PO454384  25.645  14.937   5.607
 4272POPC   GL154385  25.433  15.260   5.812
 4272POPC   GL254386  25.081  15.189   5.874
 4272POPC   C1A54387  25.408  15.462   6.236
 4272POPC   D2A54388  25.304  15.379   6.692
 4272POPC   C3A54389  25.469  15.138   7.056
 4272POPC   C4A54390  25.091  15.305   7.253
 4272POPC   C1B54391  25.307  14.924   6.184
 4272POPC   C2B54392  25.309  14.854   6.621
 4272POPC   C3B54393  25.042  14.861   6.950
 4272POPC   C4B54394  25.134  14.710   7.316
 4273POPC   NC354395  17.310   1.325   5.290
 4273POPC   PO454396  17.958   1.181   5.409
 4273POPC   GL154397  17.657   1.296   5.733
 4273POPC   GL254398  17.268   1.295   5.787
 4273POPC   C1A54399  17.599   1.336   6.166
 4273POPC   D2A54400  17.404   1.161   6.522
 4273POPC   C3A54401  17.654   1.149   6.870
 4273POPC   C4A54402  17.455   0.980   7.192
 4273POPC   C1B54403  17.068   1.345   6.182
 4273POPC   C2B54404  17.070   1.586   6.562
 4273POPC   C3B54405  17.314   1.516   6.909
 4273POPC   C4B54406  17.525   1.494   7.298
 4274POPC   NC354407  30.556  23.019   5.262
 4274POPC   PO454408  31.024  22.711   5.582
 4274POPC   GL154409  30.758  23.018   5.761
 4274POPC   GL254410  30.492  22.793   5.729
 4274POPC   C1A54411  30.855  23.194   6.161
 4274POPC   D2A54412  30.869  22.886   6.496
 4274POPC   C3A54413  30.789  23.058   6.880
 4274POPC   C4A54414  30.811  22.976   7.282
 4274POPC   C1B54415  30.613  22.584   6.125
 4274POPC   C2B54416  30.409  22.598   6.543
 4274POPC   C3B54417  30.419  22.695   6.978
 4274POPC   C4B54418  30.481  22.535   7.388
 4275POPC   NC354419  22.364   1.409   5.413
 4275POPC   PO454420  21.978   0.982   5.636
 4275POPC   GL154421  22.134   1.258   5.975
 4275POPC   GL254422  22.377   1.510   5.948
 4275POPC   C1A54423  22.249   1.260   6.437
 4275POPC   D2A54424  22.309   0.924   6.749
 4275POPC   C3A54425  22.200   0.961   7.196
 4275POPC   C4A54426  22.003   0.656   7.505
 4275POPC   C1B54427  22.570   1.652   6.346
 4275POPC   C2B54428  22.321   1.748   6.725
 4275POPC   C3B54429  22.113   1.470   7.031
 4275POPC   C4B54430  22.226   1.398   7.463
 4276POPC   NC354431  16.735   1.516   5.509
 4276POPC   PO454432  16.398   2.154   5.609
 4276POPC   GL154433  16.718   2.026   5.918
 4276POPC   GL254434  16.950   1.739   5.907
 4276POPC   C1A54435  16.939   2.049   6.311
 4276POPC   D2A54436  17.166   2.223   6.633
 4276POPC   C3A54437  16.953   2.263   7.042
 4276POPC   C4A54438  16.530   2.117   7.117
 4276POPC   C1B54439  16.634   1.622   6.249
 4276POPC   C2B54440  16.614   1.804   6.679
 4276POPC   C3B54441  16.873   1.752   7.050
 4276POPC   C4B54442  16.742   1.800   7.514
 4277POPC   NC354443  17.719  30.388   5.172
 4277POPC   PO454444  17.249  30.810   5.351
 4277POPC   GL154445  17.329  30.797   5.823
 4277POPC   GL254446  17.691  30.746   5.868
 4277POPC   C1A54447  17.438  30.961   6.265
 4277POPC   D2A54448  17.273  30.732   6.623
 4277POPC   C3A54449  17.340  30.792   7.056
 4277POPC   C4A54450  17.638  30.937   7.314
 4277POPC   C1B54451  17.623  30.464   6.207
 4277POPC   C2B54452  17.931  30.488   6.511
 4277POPC   C3B54453  17.820  30.698   6.871
 4277POPC   C4B54454  17.952  30.567   7.254
 4278POPC   NC354455   2.964  44.698   5.568
 4278POPC   PO454456   2.342  44.509   5.403
 4278POPC   GL154457   2.504  44.548   5.816
 4278POPC   GL254458   2.596  44.910   5.834
 4278POPC   C1A54459   2.828  44.377   6.116
 4278POPC   D2A54460   2.990  44.267   6.535
 4278POPC   C3A54461   2.682  44.333   6.862
 4278POPC   C4A54462   2.763  44.619   7.194
 4278POPC   C1B54463   2.771  44.865   6.268
 4278POPC   C2B54464   2.900  44.787   6.713
 4278POPC   C3B54465   2.728   0.090   7.046
 4278POPC   C4B54466   2.558   0.043   7.443
 4279POPC   NC354467   6.581   6.508   5.538
 4279POPC   PO454468   6.783   7.133   5.382
 4279POPC   GL154469   6.702   6.891   5.856
 4279POPC   GL254470   6.852   6.550   5.950
 4279POPC   C1A54471   6.508   6.724   6.275
 4279POPC   D2A54472   6.569   6.575   6.697
 4279POPC   C3A54473   6.764   6.779   7.018
 4279POPC   C4A54474   6.629   6.668   7.396
 4279POPC   C1B54475   7.037   6.748   6.286
 4279POPC   C2B54476   7.092   6.590   6.675
 4279POPC   C3B54477   6.937   6.284   6.971
 4279POPC   C4B54478   7.005   6.169   7.404
 4280POPC   NC354479  33.173  29.263   4.906
 4280POPC   PO454480  32.905  28.930   5.456
 4280POPC   GL154481  32.924  29.096   5.871
 4280POPC   GL254482  33.152  28.835   5.910
 4280POPC   C1A54483  32.958  29.185   6.318
 4280POPC   D2A54484  33.075  29.445   6.654
 4280POPC   C3A54485  33.069  29.318   7.082
 4280POPC   C4A54486  32.900  28.940   7.142
 4280POPC   C1B54487  33.232  28.757   6.324
 4280POPC   C2B54488  33.203  28.952   6.717
 4280POPC   C3B54489  33.449  28.980   7.077
 4280POPC   C4B54490  33.318  28.956   7.478
 4281POPC   NC354491  10.736  29.143   5.448
 4281POPC   PO454492  10.094  28.835   5.599
 4281POPC   GL154493  10.447  28.932   5.880
 4281POPC   GL254494  10.536  29.298   5.888
 4281POPC   C1A54495  10.594  29.005   6.312
 4281POPC   D2A54496  10.741  29.284   6.658
 4281POPC   C3A54497  10.661  29.103   7.070
 4281POPC   C4A54498  10.273  28.861   7.182
 4281POPC   C1B54499  10.200  29.458   6.139
 4281POPC   C2B54500  10.244  29.613   6.548
 4281POPC   C3B54501  10.242  29.392   6.924
 4281POPC   C4B54502  10.075  29.350   7.309
 4282POPC   NC354503  20.519  17.213   5.395
 4282POPC   PO454504  20.894  17.696   5.117
 4282POPC   GL154505  20.883  17.649   5.599
 4282POPC   GL254506  20.819  17.320   5.783
 4282POPC   C1A54507  20.894  17.749   6.077
 4282POPC   D2A54508  20.658  17.778   6.491
 4282POPC   C3A54509  20.735  17.624   6.897
 4282POPC   C4A54510  20.456  17.455   7.216
 4282POPC   C1B54511  20.544  17.369   6.137
 4282POPC   C2B54512  20.698  17.226   6.520
 4282POPC   C3B54513  20.757  17.121   6.927
 4282POPC   C4B54514  20.987  17.329   7.241
 4283POPC   NC354515  17.734  37.929   5.122
 4283POPC   PO454516  17.538  37.424   5.489
 4283POPC   GL154517  17.390  37.470   5.862
 4283POPC   GL254518  17.191  37.774   5.909
 4283POPC   C1A54519  17.599  37.582   6.251
 4283POPC   D2A54520  17.533  37.901   6.555
 4283POPC   C3A54521  17.532  37.756   6.977
 4283POPC   C4A54522  17.234  37.757   7.299
 4283POPC   C1B54523  17.110  37.441   6.267
 4283POPC   C2B54524  17.341  37.351   6.636
 4283POPC   C3B54525  17.201  37.337   7.023
 4283POPC   C4B54526  17.094  37.280   7.436
 4284POPC   NC354527   3.515  17.664   5.842
 4284POPC   PO454528   3.215  17.193   5.508
 4284POPC   GL154529   3.480  17.145   5.863
 4284POPC   GL254530   3.816  17.256   5.909
 4284POPC   C1A54531   3.368  17.233   6.305
 4284POPC   D2A54532   3.138  17.269   6.679
 4284POPC   C3A54533   3.433  17.461   6.938
 4284POPC   C4A54534   3.547  17.391   7.352
 4284POPC   C1B54535   3.961  17.496   6.283
 4284POPC   C2B54536   3.811  17.735   6.643
 4284POPC   C3B54537   3.900  17.655   7.080
 4284POPC   C4B54538   4.020  17.456   7.484
 4285POPC   NC354539  17.978  24.735   5.716
 4285POPC   PO454540  18.634  24.439   5.639
 4285POPC   GL154541  18.425  24.534   6.004
 4285POPC   GL254542  18.102  24.370   6.039
 4285POPC   C1A54543  18.460  24.298   6.390
 4285POPC   D2A54544  18.653  24.554   6.650
 4285POPC   C3A54545  18.387  24.629   6.938
 4285POPC   C4A54546  18.355  24.301   7.177
 4285POPC   C1B54547  18.054  24.671   6.359
 4285POPC   C2B54548  17.770  24.828   6.652
 4285POPC   C3B54549  17.889  24.746   7.084
 4285POPC   C4B54550  18.072  24.595   7.465
 4286POPC   NC354551  43.528  33.857   5.452
 4286POPC   PO454552  42.892  33.547   5.394
 4286POPC   GL154553  43.097  33.735   5.773
 4286POPC   GL254554  43.423  33.621   5.896
 4286POPC   C1A54555  43.081  33.961   6.170
 4286POPC   D2A54556  42.984  33.802   6.562
 4286POPC   C3A54557  43.141  34.005   6.913
 4286POPC   C4A54558  43.103  33.911   7.329
 4286POPC   C1B54559  43.453  33.629   6.346
 4286POPC   C2B54560  43.252  33.383   6.620
 4286POPC   C3B54561  43.185  33.475   7.016
 4286POPC   C4B54562  43.490  33.596   7.292
 4287POPC   NC354563   2.870  11.578   5.443
 4287POPC   PO454564   2.316  12.044   5.302
 4287POPC   GL154565   2.382  12.051   5.736
 4287POPC   GL254566   2.363  12.318   5.829
 4287POPC   C1A54567   2.736  12.219   6.127
 4287POPC   D2A54568   2.830  12.242   6.563
 4287POPC   C3A54569   2.967  11.866   6.802
 4287POPC   C4A54570   3.164  12.041   7.176
 4287POPC   C1B54571   2.335  11.961   6.228
 4287POPC   C2B54572   2.439  11.900   6.637
 4287POPC   C3B54573   2.574  12.120   6.991
 4287POPC   C4B54574   2.469  11.983   7.339
 4288POPC   NC354575  30.656  32.626   5.418
 4288POPC   PO454576  31.040  32.192   5.493
 4288POPC   GL154577  30.809  32.322   5.827
 4288POPC   GL254578  30.905  32.667   5.862
 4288POPC   C1A54579  30.924  32.321   6.252
 4288POPC   D2A54580  30.703  32.084   6.528
 4288POPC   C3A54581  30.794  32.008   6.919
 4288POPC   C4A54582  30.608  32.107   7.299
 4288POPC   C1B54583  30.494  32.642   6.096
 4288POPC   C2B54584  30.560  32.594   6.507
 4288POPC   C3B54585  30.511  32.427   6.887
 4288POPC   C4B54586  30.355  32.582   7.250
 4289POPC   NC354587  43.944  36.378   5.303
 4289POPC   PO454588  43.836  35.681   5.331
 4289POPC   GL154589  43.824  36.000   5.711
 4289POPC   GL254590  43.922  36.356   5.807
 4289POPC   C1A54591  43.956  35.923   6.162
 4289POPC   D2A54592  43.785  35.981   6.591
 4289POPC   C3A54593  43.983  35.771   6.936
 4289POPC   C4A54594  43.928  35.784   7.381
 4289POPC   C1B54595  44.134  36.410   6.196
 4289POPC   C2B54596  44.239  36.299   6.614
 4289POPC   C3B54597  44.025  36.285   7.008
 4289POPC   C4B54598  43.675  36.546   7.144
 4290POPC   NC354599   0.433  34.466   5.506
 4290POPC   PO454600   0.508  35.126   5.584
 4290POPC   GL154601   0.592  34.788   5.892
 4290POPC   GL254602   0.279  34.587   5.962
 4290POPC   C1A54603   0.556  34.731   6.359
 4290POPC   D2A54604   0.240  34.510   6.541
 4290POPC   C3A54605   0.353  34.438   6.919
 4290POPC   C4A54606   0.380  34.689   7.255
 4290POPC   C1B54607   0.596  34.295   6.106
 4290POPC   C2B54608   0.645  34.197   6.517
 4290POPC   C3B54609   0.660  34.045   6.939
 4290POPC   C4B54610   0.586  34.217   7.342
 4291POPC   NC354611   9.065  34.889   5.224
 4291POPC   PO454612   8.627  34.477   5.367
 4291POPC   GL154613   9.022  34.591   5.663
 4291POPC   GL254614   9.116  34.953   5.742
 4291POPC   C1A54615   9.216  34.469   6.095
 4291POPC   D2A54616   9.200  34.605   6.564
 4291POPC   C3A54617   9.155  34.334   6.954
 4291POPC   C4A54618   9.183  34.289   7.413
 4291POPC   C1B54619   9.064  34.964   6.208
 4291POPC   C2B54620   9.328  35.113   6.580
 4291POPC   C3B54621   9.342  35.011   7.036
 4291POPC   C4B54622   9.085  34.753   7.272
 4292POPC   NC354623  24.002  32.402   5.396
 4292POPC   PO454624  24.441  31.884   5.521
 4292POPC   GL154625  24.468  32.181   5.869
 4292POPC   GL254626  24.380  32.503   5.789
 4292POPC   C1A54627  24.729  32.388   6.213
 4292POPC   D2A54628  25.007  32.240   6.581
 4292POPC   C3A54629  24.892  32.341   6.994
 4292POPC   C4A54630  24.733  32.215   7.387
 4292POPC   C1B54631  24.198  32.456   6.229
 4292POPC   C2B54632  24.413  32.432   6.660
 4292POPC   C3B54633  24.389  32.508   7.108
 4292POPC   C4B54634  24.258  32.318   7.509
 4293POPC   NC354635  17.116  39.428   5.387
 4293POPC   PO454636  17.695  39.123   5.304
 4293POPC   GL154637  17.606  39.062   5.725
 4293POPC   GL254638  17.622  39.395   5.803
 4293POPC   C1A54639  17.496  39.067   6.171
 4293POPC   D2A54640  17.362  39.333   6.513
 4293POPC   C3A54641  17.497  39.240   6.924
 4293POPC   C4A54642  17.714  38.898   7.122
 4293POPC   C1B54643  17.324  39.626   6.085
 4293POPC   C2B54644  17.195  39.812   6.508
 4293POPC   C3B54645  17.092  39.600   6.900
 4293POPC   C4B54646  17.314  39.532   7.307
 4294POPC   NC354647  17.444  28.986   5.659
 4294POPC   PO454648  17.704  29.504   5.678
 4294POPC   GL154649  17.667  29.258   6.036
 4294POPC   GL254650  17.761  28.870   6.007
 4294POPC   C1A54651  17.374  29.366   6.371
 4294POPC   D2A54652  17.162  29.407   6.765
 4294POPC   C3A54653  17.472  29.430   7.040
 4294POPC   C4A54654  17.698  29.264   7.376
 4294POPC   C1B54655  17.684  28.942   6.438
 4294POPC   C2B54656  17.317  28.927   6.698
 4294POPC   C3B54657  17.372  28.943   7.115
 4294POPC   C4B54658  17.767  28.785   7.227
 4295POPC   NC354659  32.335  26.301   5.606
 4295POPC   PO454660  32.195  25.658   5.436
 4295POPC   GL154661  32.123  25.879   5.838
 4295POPC   GL254662  31.865  26.133   5.876
 4295POPC   C1A54663  32.272  25.839   6.273
 4295POPC   D2A54664  32.454  26.139   6.592
 4295POPC   C3A54665  32.432  25.994   7.012
 4295POPC   C4A54666  32.182  25.973   7.361
 4295POPC   C1B54667  31.877  26.142   6.335
 4295POPC   C2B54668  31.948  26.137   6.777
 4295POPC   C3B54669  32.046  26.394   7.123
 4295POPC   C4B54670  31.913  26.474   7.538
 4296POPC   NC354671  12.879   4.785   5.478
 4296POPC   PO454672  12.489   5.340   5.463
 4296POPC   GL154673  12.490   4.995   5.747
 4296POPC   GL254674  12.827   5.143   5.874
 4296POPC   C1A54675  12.549   4.808   6.166
 4296POPC   D2A54676  12.823   4.994   6.514
 4296POPC   C3A54677  12.672   5.124   6.946
 4296POPC   C4A54678  12.643   4.856   7.329
 4296POPC   C1B54679  13.138   5.380   6.158
 4296POPC   C2B54680  13.353   5.290   6.564
 4296POPC   C3B54681  13.194   5.050   6.908
 4296POPC   C4B54682  13.096   5.155   7.336
 4297POPC   NC354683  22.664  23.087   5.593
 4297POPC   PO454684  23.290  23.212   5.404
 4297POPC   GL154685  23.156  23.094   5.856
 4297POPC   GL254686  22.887  23.342   5.963
 4297POPC   C1A54687  23.049  22.810   6.247
 4297POPC   D2A54688  22.757  22.810   6.630
 4297POPC   C3A54689  22.980  22.654   7.008
 4297POPC   C4A54690  23.279  22.890   7.247
 4297POPC   C1B54691  22.865  23.257   6.377
 4297POPC   C2B54692  23.196  23.206   6.676
 4297POPC   C3B54693  23.174  23.358   7.068
 4297POPC   C4B54694  22.778  23.130   7.086
 4298POPC   NC354695   2.683  32.824   5.449
 4298POPC   PO454696   3.060  33.366   5.207
 4298POPC   GL154697   2.899  33.352   5.642
 4298POPC   GL254698   2.563  33.235   5.748
 4298POPC   C1A54699   2.879  33.495   6.091
 4298POPC   D2A54700   2.966  33.339   6.518
 4298POPC   C3A54701   2.765  33.132   6.869
 4298POPC   C4A54702   2.907  32.731   7.026
 4298POPC   C1B54703   2.741  33.017   6.141
 4298POPC   C2B54704   2.526  32.837   6.500
 4298POPC   C3B54705   2.418  32.683   6.892
 4298POPC   C4B54706   2.476  32.769   7.334
 4299POPC   NC354707  15.659  27.754   5.043
 4299POPC   PO454708  16.136  27.426   5.447
 4299POPC   GL154709  15.960  27.622   5.821
 4299POPC   GL254710  16.230  27.746   5.909
 4299POPC   C1A54711  15.697  27.707   6.233
 4299POPC   D2A54712  15.665  27.946   6.647
 4299POPC   C3A54713  15.729  27.675   7.039
 4299POPC   C4A54714  15.653  27.675   7.468
 4299POPC   C1B54715  16.135  27.440   6.250
 4299POPC   C2B54716  16.005  27.550   6.634
 4299POPC   C3B54717  16.200  27.478   7.032
 4299POPC   C4B54718  15.985  27.287   7.361
 4300POPC   NC354719  19.533  16.388   5.548
 4300POPC   PO454720  19.947  15.896   5.329
 4300POPC   GL154721  19.935  16.018   5.771
 4300POPC   GL254722  19.579  15.982   5.851
 4300POPC   C1A54723  20.105  15.847   6.175
 4300POPC   D2A54724  20.203  15.961   6.590
 4300POPC   C3A54725  19.920  15.997   6.948
 4300POPC   C4A54726  19.891  16.173   7.357
 4300POPC   C1B54727  19.713  16.165   6.228
 4300POPC   C2B54728  19.706  15.827   6.518
 4300POPC   C3B54729  19.446  15.789   6.860
 4300POPC   C4B54730  19.599  15.699   7.274
 4301POPC   NC354731  17.910  17.423   5.372
 4301POPC   PO454732  18.571  17.137   5.366
 4301POPC   GL154733  18.325  17.428   5.663
 4301POPC   GL254734  18.588  17.439   5.875
 4301POPC   C1A54735  18.110  17.574   6.063
 4301POPC   D2A54736  18.153  17.498   6.524
 4301POPC   C3A54737  17.919  17.370   6.885
 4301POPC   C4A54738  18.104  17.632   7.215
 4301POPC   C1B54739  18.635  17.576   6.284
 4301POPC   C2B54740  18.650  17.289   6.615
 4301POPC   C3B54741  18.403  17.217   6.983
 4301POPC   C4B54742  18.719  17.324   7.250
 4302POPC   NC354743   7.160  28.525   5.100
 4302POPC   PO454744   6.770  28.056   5.382
 4302POPC   GL154745   6.531  28.143   5.796
 4302POPC   GL254746   6.804  28.077   5.952
 4302POPC   C1A54747   6.536  28.415   6.235
 4302POPC   D2A54748   6.578  28.617   6.649
 4302POPC   C3A54749   6.549  28.357   7.014
 4302POPC   C4A54750   6.462  28.453   7.475
 4302POPC   C1B54751   6.592  27.917   6.293
 4302POPC   C2B54752   6.729  28.072   6.635
 4302POPC   C3B54753   6.914  28.000   7.002
 4302POPC   C4B54754   6.958  28.303   7.275
 4303POPC   NC354755   9.340   8.705   5.563
 4303POPC   PO454756   8.991   8.109   5.291
 4303POPC   GL154757   9.063   8.118   5.779
 4303POPC   GL254758   9.138   8.412   6.047
 4303POPC   C1A54759   8.972   7.940   6.199
 4303POPC   D2A54760   9.156   7.861   6.597
 4303POPC   C3A54761   8.916   7.930   6.960
 4303POPC   C4A54762   9.185   8.117   7.241
 4303POPC   C1B54763   8.736   8.408   6.278
 4303POPC   C2B54764   8.656   8.249   6.695
 4303POPC   C3B54765   8.802   8.409   7.102
 4303POPC   C4B54766   8.931   8.421   7.580
 4304POPC   NC354767  40.360  20.462   5.290
 4304POPC   PO454768  41.026  20.347   5.392
 4304POPC   GL154769  40.872  20.536   5.775
 4304POPC   GL254770  40.575  20.431   5.771
 4304POPC   C1A54771  40.912  20.439   6.220
 4304POPC   D2A54772  41.090  20.681   6.568
 4304POPC   C3A54773  41.010  20.611   7.007
 4304POPC   C4A54774  40.986  20.797   7.408
 4304POPC   C1B54775  40.429  20.589   6.178
 4304POPC   C2B54776  40.526  20.689   6.614
 4304POPC   C3B54777  40.543  20.434   6.992
 4304POPC   C4B54778  40.601  20.431   7.456
 4305POPC   NC354779   7.069  25.199   5.399
 4305POPC   PO454780   6.385  25.288   5.431
 4305POPC   GL154781   6.608  25.254   5.783
 4305POPC   GL254782   6.735  25.573   5.824
 4305POPC   C1A54783   6.662  25.142   6.203
 4305POPC   D2A54784   6.485  25.007   6.628
 4305POPC   C3A54785   6.457  25.255   7.042
 4305POPC   C4A54786   6.549  25.161   7.512
 4305POPC   C1B54787   6.541  25.647   6.246
 4305POPC   C2B54788   6.388  25.666   6.686
 4305POPC   C3B54789   6.487  25.756   7.111
 4305POPC   C4B54790   6.570  25.654   7.548
 4306POPC   NC354791   6.414  19.272   5.311
 4306POPC   PO454792   6.901  18.878   5.371
 4306POPC   GL154793   6.838  19.002   5.813
 4306POPC   GL254794   6.491  19.031   5.778
 4306POPC   C1A54795   6.774  18.994   6.296
 4306POPC   D2A54796   6.385  18.895   6.573
 4306POPC   C3A54797   6.435  19.086   6.992
 4306POPC   C4A54798   6.834  19.038   7.204
 4306POPC   C1B54799   6.573  19.393   6.080
 4306POPC   C2B54800   6.536  19.392   6.514
 4306POPC   C3B54801   6.645  19.597   6.886
 4306POPC   C4B54802   6.627  19.492   7.308
 4307POPC   NC354803  20.099  16.673   5.406
 4307POPC   PO454804  20.093  17.305   5.570
 4307POPC   GL154805  19.868  16.930   5.854
 4307POPC   GL254806  19.933  16.547   5.868
 4307POPC   C1A54807  19.762  16.731   6.301
 4307POPC   D2A54808  19.771  16.915   6.720
 4307POPC   C3A54809  19.898  16.725   7.102
 4307POPC   C4A54810  19.902  16.924   7.514
 4307POPC   C1B54811  20.175  16.399   6.247
 4307POPC   C2B54812  20.057  16.445   6.677
 4307POPC   C3B54813  20.265  16.388   7.069
 4307POPC   C4B54814  20.224  16.536   7.505
 4308POPC   NC354815  37.956  25.737   5.353
 4308POPC   PO454816  37.584  26.279   5.522
 4308POPC   GL154817  37.478  26.139   5.892
 4308POPC   GL254818  37.864  26.079   5.944
 4308POPC   C1A54819  37.474  26.148   6.324
 4308POPC   D2A54820  37.819  26.008   6.576
 4308POPC   C3A54821  37.724  25.967   6.988
 4308POPC   C4A54822  37.403  26.104   7.231
 4308POPC   C1B54823  37.679  25.721   6.166
 4308POPC   C2B54824  37.416  25.653   6.544
 4308POPC   C3B54825  37.516  25.499   6.952
 4308POPC   C4B54826  37.626  25.620   7.383
 4309POPC   NC354827  44.965  22.047   5.408
 4309POPC   PO454828  44.559  22.579   5.423
 4309POPC   GL154829  44.516  22.339   5.788
 4309POPC   GL254830  44.881  22.310   5.866
 4309POPC   C1A54831  44.494  22.211   6.229
 4309POPC   D2A54832  44.732  22.251   6.607
 4309POPC   C3A54833  44.504  22.182   6.987
 4309POPC   C4A54834  44.559  22.358   7.394
 4309POPC   C1B54835   0.021  22.023   6.198
 4309POPC   C2B54836   0.036  21.834   6.631
 4309POPC   C3B54837  44.974  22.007   7.065
 4309POPC   C4B54838  44.958  21.874   7.515
 4310POPC   NC354839   4.677  27.766   5.369
 4310POPC   PO454840   5.286  27.486   5.380
 4310POPC   GL154841   4.958  27.462   5.702
 4310POPC   GL254842   4.922  27.803   5.818
 4310POPC   C1A54843   4.815  27.399   6.134
 4310POPC   D2A54844   4.890  27.674   6.479
 4310POPC   C3A54845   4.850  27.499   6.879
 4310POPC   C4A54846   4.744  27.639   7.284
 4310POPC   C1B54847   5.290  27.681   6.097
 4310POPC   C2B54848   5.385  27.827   6.537
 4310POPC   C3B54849   5.233  27.820   6.976
 4310POPC   C4B54850   5.284  27.611   7.390
 4311POPC   NC354851  27.192  33.369   4.991
 4311POPC   PO454852  27.647  32.811   5.274
 4311POPC   GL154853  27.607  33.001   5.721
 4311POPC   GL254854  27.884  32.977   5.882
 4311POPC   C1A54855  27.499  32.935   6.213
 4311POPC   D2A54856  27.661  33.069   6.636
 4311POPC   C3A54857  27.470  32.972   7.024
 4311POPC   C4A54858  27.078  32.760   7.149
 4311POPC   C1B54859  27.963  32.734   6.252
 4311POPC   C2B54860  27.911  32.633   6.680
 4311POPC   C3B54861  27.978  32.845   7.026
 4311POPC   C4B54862  27.826  32.935   7.409
 4312POPC   NC354863   5.964  25.357   5.257
 4312POPC   PO454864   5.397  24.972   5.382
 4312POPC   GL154865   5.585  25.255   5.718
 4312POPC   GL254866   5.953  25.255   5.765
 4312POPC   C1A54867   5.657  25.357   6.168
 4312POPC   D2A54868   5.554  25.205   6.580
 4312POPC   C3A54869   5.623  25.342   7.012
 4312POPC   C4A54870   5.627  25.033   7.338
 4312POPC   C1B54871   6.161  25.270   6.185
 4312POPC   C2B54872   6.051  25.273   6.618
 4312POPC   C3B54873   6.009  25.016   6.985
 4312POPC   C4B54874   6.080  25.220   7.395
 4313POPC   NC354875   1.844   4.476   5.470
 4313POPC   PO454876   2.263   3.981   5.605
 4313POPC   GL154877   2.015   4.231   5.887
 4313POPC   GL254878   2.087   4.618   5.895
 4313POPC   C1A54879   1.667   4.356   6.144
 4313POPC   D2A54880   1.743   4.532   6.534
 4313POPC   C3A54881   1.915   4.256   6.832
 4313POPC   C4A54882   1.888   4.201   7.272
 4313POPC   C1B54883   2.209   4.490   6.294
 4313POPC   C2B54884   2.209   4.671   6.700
 4313POPC   C3B54885   2.190   4.587   7.125
 4313POPC   C4B54886   2.225   4.504   7.572
 4314POPC   NC354887   2.730  26.304   5.448
 4314POPC   PO454888   3.193  25.800   5.226
 4314POPC   GL154889   2.919  25.852   5.744
 4314POPC   GL254890   2.832  26.217   5.927
 4314POPC   C1A54891   3.044  25.905   6.254
 4314POPC   D2A54892   2.858  25.849   6.700
 4314POPC   C3A54893   3.073  25.892   7.114
 4314POPC   C4A54894   3.160  25.911   7.595
 4314POPC   C1B54895   2.535  26.117   6.227
 4314POPC   C2B54896   2.563  26.300   6.617
 4314POPC   C3B54897   2.523  26.166   7.020
 4314POPC   C4B54898   2.783  26.285   7.313
 4315POPC   NC354899  35.716  26.345   5.624
 4315POPC   PO454900  35.406  25.771   5.529
 4315POPC   GL154901  35.363  25.970   5.890
 4315POPC   GL254902  35.080  25.756   5.946
 4315POPC   C1A54903  35.465  26.267   6.208
 4315POPC   D2A54904  35.633  26.172   6.563
 4315POPC   C3A54905  35.428  26.375   6.816
 4315POPC   C4A54906  35.449  26.248   7.170
 4315POPC   C1B54907  34.965  26.106   6.212
 4315POPC   C2B54908  34.819  26.015   6.624
 4315POPC   C3B54909  34.984  26.145   7.000
 4315POPC   C4B54910  34.909  26.336   7.400
 4316POPC   NC354911  22.725   4.628   5.415
 4316POPC   PO454912  23.013   4.036   5.626
 4316POPC   GL154913  22.930   4.339   5.954
 4316POPC   GL254914  23.240   4.527   5.870
 4316POPC   C1A54915  22.798   4.358   6.438
 4316POPC   D2A54916  22.528   4.547   6.782
 4316POPC   C3A54917  22.630   4.433   7.218
 4316POPC   C4A54918  22.810   4.033   7.317
 4316POPC   C1B54919  23.325   4.348   6.265
 4316POPC   C2B54920  23.260   4.077   6.588
 4316POPC   C3B54921  23.049   4.244   6.928
 4316POPC   C4B54922  23.227   4.583   7.165
 4317POPC   NC354923  14.809   1.748   5.464
 4317POPC   PO454924  15.036   1.150   5.151
 4317POPC   GL154925  14.884   1.146   5.595
 4317POPC   GL254926  15.159   1.297   5.757
 4317POPC   C1A54927  14.823   1.039   6.072
 4317POPC   D2A54928  14.995   1.133   6.512
 4317POPC   C3A54929  14.836   1.033   6.936
 4317POPC   C4A54930  14.922   0.825   7.326
 4317POPC   C1B54931  15.376   1.324   6.155
 4317POPC   C2B54932  15.631   1.274   6.535
 4317POPC   C3B54933  15.361   1.213   6.876
 4317POPC   C4B54934  15.167   1.281   7.238
 4318POPC   NC354935  22.175  23.232   5.268
 4318POPC   PO454936  22.429  22.709   5.476
 4318POPC   GL154937  22.193  22.870   5.824
 4318POPC   GL254938  22.221  23.251   5.809
 4318POPC   C1A54939  22.120  22.725   6.263
 4318POPC   D2A54940  22.234  22.837   6.693
 4318POPC   C3A54941  22.062  22.695   7.113
 4318POPC   C4A54942  22.153  22.609   7.555
 4318POPC   C1B54943  22.349  23.189   6.260
 4318POPC   C2B54944  22.470  23.288   6.704
 4318POPC   C3B54945  22.242  23.163   7.074
 4318POPC   C4B54946  22.083  23.116   7.511
 4319POPC   NC354947  34.178  16.382   5.394
 4319POPC   PO454948  34.783  16.747   5.364
 4319POPC   GL154949  34.560  16.583   5.720
 4319POPC   GL254950  34.251  16.769   5.762
 4319POPC   C1A54951  34.680  16.674   6.149
 4319POPC   D2A54952  34.899  16.704   6.570
 4319POPC   C3A54953  34.717  16.745   7.000
 4319POPC   C4A54954  34.721  17.022   7.415
 4319POPC   C1B54955  34.162  16.668   6.162
 4319POPC   C2B54956  34.363  16.624   6.550
 4319POPC   C3B54957  34.171  16.554   6.905
 4319POPC   C4B54958  34.021  16.506   7.332
 4320POPC   NC354959  18.786  24.863   5.508
 4320POPC   PO454960  18.957  25.518   5.512
 4320POPC   GL154961  18.678  25.504   5.896
 4320POPC   GL254962  18.765  25.157   5.913
 4320POPC   C1A54963  18.843  25.414   6.347
 4320POPC   D2A54964  19.300  25.312   6.498
 4320POPC   C3A54965  19.337  25.227   6.945
 4320POPC   C4A54966  19.035  25.408   7.199
 4320POPC   C1B54967  18.780  24.869   6.256
 4320POPC   C2B54968  18.985  24.935   6.652
 4320POPC   C3B54969  18.834  24.940   7.049
 4320POPC   C4B54970  18.642  24.725   7.371
 4321POPC   NC354971  16.158  30.250   5.465
 4321POPC   PO454972  15.645  29.765   5.422
 4321POPC   GL154973  15.905  29.906   5.793
 4321POPC   GL254974  15.788  30.227   5.858
 4321POPC   C1A54975  16.127  29.833   6.209
 4321POPC   D2A54976  16.311  29.821   6.639
 4321POPC   C3A54977  16.036  29.733   6.973
 4321POPC   C4A54978  15.922  30.019   7.267
 4321POPC   C1B54979  15.895  30.285   6.269
 4321POPC   C2B54980  15.810  30.074   6.647
 4321POPC   C3B54981  15.732  30.359   6.963
 4321POPC   C4B54982  16.109  30.461   7.096
 4322POPC   NC354983  13.014  19.938   5.319
 4322POPC   PO454984  12.535  19.521   5.521
 4322POPC   GL154985  12.934  19.691   5.753
 4322POPC   GL254986  12.823  20.067   5.789
 4322POPC   C1A54987  13.189  19.907   6.092
 4322POPC   D2A54988  13.074  20.061   6.512
 4322POPC   C3A54989  13.069  19.771   6.870
 4322POPC   C4A54990  12.863  19.854   7.234
 4322POPC   C1B54991  12.668  19.897   6.182
 4322POPC   C2B54992  12.599  19.839   6.635
 4322POPC   C3B54993  12.516  19.559   7.009
 4322POPC   C4B54994  12.698  19.388   7.409
 4323POPC   NC354995  12.444  41.088   5.314
 4323POPC   PO454996  12.130  40.427   5.468
 4323POPC   GL154997  12.027  40.804   5.767
 4323POPC   GL254998  12.229  41.142   5.789
 4323POPC   C1A54999  12.008  40.957   6.216
 4323POPC   D2A55000  11.820  40.898   6.631
 4323POPC   C3A55001  12.071  40.702   6.952
 4323POPC   C4A55002  11.963  40.788   7.372
 4323POPC   C1B55003  12.358  41.345   6.203
 4323POPC   C2B55004  12.291  41.168   6.651
 4323POPC   C3B55005  12.229  41.146   7.133
 4323POPC   C4B55006  12.382  40.977   7.553
 4324POPC   NC355007  15.131  32.550   5.489
 4324POPC   PO455008  15.579  32.120   5.462
 4324POPC   GL155009  15.303  32.120   5.820
 4324POPC   GL255010  14.920  32.125   5.800
 4324POPC   C1A55011  15.231  32.276   6.240
 4324POPC   D2A55012  15.364  32.128   6.639
 4324POPC   C3A55013  15.325  32.365   7.037
 4324POPC   C4A55014  15.613  32.421   7.387
 4324POPC   C1B55015  14.765  32.060   6.247
 4324POPC   C2B55016  14.820  32.179   6.699
 4324POPC   C3B55017  14.830  32.245   7.147
 4324POPC   C4B55018  15.011  32.067   7.475
 4325POPC   NC355019  24.823  12.882   5.430
 4325POPC   PO455020  24.178  13.036   5.452
 4325POPC   GL155021  24.485  13.086   5.776
 4325POPC   GL255022  24.448  12.741   5.878
 4325POPC   C1A55023  24.746  13.019   6.167
 4325POPC   D2A55024  24.653  12.814   6.550
 4325POPC   C3A55025  24.499  13.008   6.901
 4325POPC   C4A55026  24.798  13.130   7.205
 4325POPC   C1B55027  24.295  12.492   6.219
 4325POPC   C2B55028  24.221  12.576   6.642
 4325POPC   C3B55029  24.439  12.510   7.014
 4325POPC   C4B55030  24.284  12.371   7.404
 4326POPC   NC355031  18.490  40.283   5.474
 4326POPC   PO455032  18.534  39.573   5.289
 4326POPC   GL155033  18.469  39.716   5.714
 4326POPC   GL255034  18.134  39.576   5.778
 4326POPC   C1A55035  18.551  39.973   6.125
 4326POPC   D2A55036  18.327  40.259   6.428
 4326POPC   C3A55037  18.123  40.215   6.838
 4326POPC   C4A55038  18.427  40.201   7.156
 4326POPC   C1B55039  18.358  39.497   6.170
 4326POPC   C2B55040  18.292  39.722   6.560
 4326POPC   C3B55041  18.227  39.721   7.000
 4326POPC   C4B55042  18.125  39.873   7.411
 4327POPC   NC355043  42.580  22.852   5.502
 4327POPC   PO455044  42.354  23.434   5.252
 4327POPC   GL155045  42.347  23.228   5.739
 4327POPC   GL255046  42.071  23.001   5.753
 4327POPC   C1A55047  42.368  22.947   6.167
 4327POPC   D2A55048  42.208  22.807   6.588
 4327POPC   C3A55049  42.481  22.806   6.931
 4327POPC   C4A55050  42.500  22.893   7.383
 4327POPC   C1B55051  41.918  23.185   6.159
 4327POPC   C2B55052  42.068  23.333   6.572
 4327POPC   C3B55053  42.166  23.214   6.999
 4327POPC   C4B55054  42.034  22.836   7.218
 4328POPC   NC355055  43.742  29.208   5.399
 4328POPC   PO455056  44.121  28.799   5.743
 4328POPC   GL155057  43.903  29.183   5.877
 4328POPC   GL255058  44.137  29.447   5.742
 4328POPC   C1A55059  43.602  29.260   6.243
 4328POPC   D2A55060  43.638  29.036   6.657
 4328POPC   C3A55061  43.635  29.200   7.066
 4328POPC   C4A55062  43.958  29.079   7.352
 4328POPC   C1B55063  44.075  29.490   6.232
 4328POPC   C2B55064  44.120  29.406   6.701
 4328POPC   C3B55065  44.053  29.533   7.145
 4328POPC   C4B55066  44.086  29.465   7.657
 4329POPC   NC355067  13.251  11.969   5.419
 4329POPC   PO455068  13.694  12.451   5.308
 4329POPC   GL155069  13.725  12.124   5.611
 4329POPC   GL255070  14.014  12.183   5.804
 4329POPC   C1A55071  13.575  11.956   6.025
 4329POPC   D2A55072  13.443  12.054   6.463
 4329POPC   C3A55073  13.496  11.811   6.834
 4329POPC   C4A55074  13.574  12.019   7.227
 4329POPC   C1B55075  13.883  12.313   6.236
 4329POPC   C2B55076  13.944  12.218   6.691
 4329POPC   C3B55077  13.903  12.392   7.125
 4329POPC   C4B55078  13.882  12.211   7.575
 4330POPC   NC355079  16.795  24.532   5.366
 4330POPC   PO455080  16.963  23.963   5.539
 4330POPC   GL155081  16.992  24.327   5.799
 4330POPC   GL255082  16.619  24.291   5.802
 4330POPC   C1A55083  16.852  24.614   6.142
 4330POPC   D2A55084  16.534  24.672   6.497
 4330POPC   C3A55085  16.719  24.677   6.915
 4330POPC   C4A55086  16.504  24.461   7.228
 4330POPC   C1B55087  16.730  24.120   6.202
 4330POPC   C2B55088  16.828  24.247   6.611
 4330POPC   C3B55089  16.730  24.069   6.997
 4330POPC   C4B55090  16.811  24.133   7.436
 4331POPC   NC355091  29.471  16.829   5.080
 4331POPC   PO455092  29.069  16.597   5.594
 4331POPC   GL155093  29.170  16.689   5.995
 4331POPC   GL255094  29.436  16.449   6.025
 4331POPC   C1A55095  29.067  16.950   6.331
 4331POPC   D2A55096  28.898  16.910   6.736
 4331POPC   C3A55097  29.072  16.906   7.122
 4331POPC   C4A55098  28.913  16.559   7.310
 4331POPC   C1B55099  29.571  16.797   6.308
 4331POPC   C2B55100  29.441  16.820   6.737
 4331POPC   C3B55101  29.329  16.484   6.998
 4331POPC   C4B55102  29.544  16.388   7.343
 4332POPC   NC355103  32.769  17.158   5.577
 4332POPC   PO455104  32.959  16.615   5.189
 4332POPC   GL155105  32.861  16.661   5.680
 4332POPC   GL255106  32.857  16.351   5.843
 4332POPC   C1A55107  33.079  16.746   6.134
 4332POPC   D2A55108  33.015  16.949   6.575
 4332POPC   C3A55109  33.117  16.777   6.998
 4332POPC   C4A55110  33.034  16.700   7.440
 4332POPC   C1B55111  32.693  16.323   6.268
 4332POPC   C2B55112  32.713  16.474   6.698
 4332POPC   C3B55113  32.754  16.391   7.150
 4332POPC   C4B55114  32.701  16.356   7.600
 4333POPC   NC355115  18.416  20.121   5.462
 4333POPC   PO455116  18.109  19.522   5.435
 4333POPC   GL155117  18.291  19.734   5.785
 4333POPC   GL255118  18.555  19.483   5.804
 4333POPC   C1A55119  18.152  20.063   6.111
 4333POPC   D2A55120  17.974  19.994   6.550
 4333POPC   C3A55121  18.240  20.020   6.897
 4333POPC   C4A55122  18.153  20.270   7.222
 4333POPC   C1B55123  18.384  19.452   6.194
 4333POPC   C2B55124  18.352  19.654   6.551
 4333POPC   C3B55125  18.430  19.488   6.930
 4333POPC   C4B55126  18.391  19.715   7.264
 4334POPC   NC355127   4.154  42.386   5.402
 4334POPC   PO455128   4.794  42.073   5.415
 4334POPC   GL155129   4.514  42.094   5.819
 4334POPC   GL255130   4.338  42.413   5.863
 4334POPC   C1A55131   4.423  42.202   6.304
 4334POPC   D2A55132   4.515  42.075   6.715
 4334POPC   C3A55133   4.539  42.324   7.063
 4334POPC   C4A55134   4.674  42.259   7.466
 4334POPC   C1B55135   4.019  42.489   6.175
 4334POPC   C2B55136   3.866  42.320   6.553
 4334POPC   C3B55137   4.078  42.279   6.882
 4334POPC   C4B55138   4.011  42.390   7.247
 4335POPC   NC355139  28.448  21.563   5.426
 4335POPC   PO455140  28.533  22.170   5.203
 4335POPC   GL155141  28.392  22.262   5.636
 4335POPC   GL255142  28.365  21.932   5.780
 4335POPC   C1A55143  28.407  22.332   6.117
 4335POPC   D2A55144  28.596  22.180   6.544
 4335POPC   C3A55145  28.329  22.159   6.929
 4335POPC   C4A55146  28.374  22.411   7.280
 4335POPC   C1B55147  28.646  21.861   6.134
 4335POPC   C2B55148  28.624  21.643   6.544
 4335POPC   C3B55149  28.480  21.652   6.957
 4335POPC   C4B55150  28.590  21.900   7.316
 4336POPC   NC355151  20.104  32.384   5.547
 4336POPC   PO455152  19.611  31.916   5.410
 4336POPC   GL155153  19.731  32.127   5.821
 4336POPC   GL255154  19.672  32.482   5.957
 4336POPC   C1A55155  19.830  32.028   6.251
 4336POPC   D2A55156  19.986  32.056   6.655
 4336POPC   C3A55157  19.787  32.353   6.910
 4336POPC   C4A55158  19.781  32.104   7.258
 4336POPC   C1B55159  20.052  32.510   6.251
 4336POPC   C2B55160  20.305  32.459   6.657
 4336POPC   C3B55161  20.261  32.328   7.088
 4336POPC   C4B55162  20.052  32.478   7.466
 4337POPC   NC355163  20.368  26.055   5.419
 4337POPC   PO455164  21.049  26.299   5.403
 4337POPC   GL155165  20.804  26.033   5.754
 4337POPC   GL255166  20.528  25.778   5.817
 4337POPC   C1A55167  20.613  26.106   6.195
 4337POPC   D2A55168  20.348  26.323   6.526
 4337POPC   C3A55169  20.597  26.291   6.913
 4337POPC   C4A55170  20.917  26.271   7.234
 4337POPC   C1B55171  20.450  25.627   6.215
 4337POPC   C2B55172  20.417  25.819   6.605
 4337POPC   C3B55173  20.201  25.992   6.930
 4337POPC   C4B55174  20.416  25.865   7.272
 4338POPC   NC355175  26.328  23.673   5.435
 4338POPC   PO455176  25.718  23.855   5.494
 4338POPC   GL155177  26.033  23.866   5.805
 4338POPC   GL255178  26.130  23.497   5.871
 4338POPC   C1A55179  26.202  23.858   6.225
 4338POPC   D2A55180  26.155  23.565   6.558
 4338POPC   C3A55181  26.255  23.683   6.983
 4338POPC   C4A55182  25.998  23.904   7.271
 4338POPC   C1B55183  25.765  23.512   6.113
 4338POPC   C2B55184  25.666  23.378   6.502
 4338POPC   C3B55185  25.738  23.499   6.916
 4338POPC   C4B55186  25.867  23.230   7.219
 4339POPC   NC355187   3.280  11.027   5.299
 4339POPC   PO455188   2.605  11.181   5.454
 4339POPC   GL155189   2.723  11.309   5.867
 4339POPC   GL255190   2.625  11.644   5.882
 4339POPC   C1A55191   2.863  11.136   6.252
 4339POPC   D2A55192   3.005  10.972   6.649
 4339POPC   C3A55193   2.873  11.141   7.068
 4339POPC   C4A55194   2.784  11.201   7.512
 4339POPC   C1B55195   2.798  11.687   6.288
 4339POPC   C2B55196   2.710  11.440   6.647
 4339POPC   C3B55197   2.530  11.548   7.032
 4339POPC   C4B55198   2.849  11.643   7.258
 4340POPC   NC355199  14.295   2.959   5.449
 4340POPC   PO455200  14.959   2.915   5.526
 4340POPC   GL155201  14.640   2.833   5.843
 4340POPC   GL255202  14.292   2.794   5.919
 4340POPC   C1A55203  14.624   2.680   6.282
 4340POPC   D2A55204  14.622   2.941   6.651
 4340POPC   C3A55205  14.794   2.729   6.984
 4340POPC   C4A55206  14.784   2.743   7.394
 4340POPC   C1B55207  14.039   2.642   6.243
 4340POPC   C2B55208  14.210   2.602   6.637
 4340POPC   C3B55209  14.255   2.833   6.998
 4340POPC   C4B55210  14.270   2.787   7.402
 4341POPC   NC355211  31.671   3.176   5.486
 4341POPC   PO455212  31.379   2.690   5.431
 4341POPC   GL155213  31.518   2.823   5.848
 4341POPC   GL255214  31.313   3.100   5.852
 4341POPC   C1A55215  31.381   2.869   6.302
 4341POPC   D2A55216  31.128   2.851   6.666
 4341POPC   C3A55217  31.253   2.534   6.954
 4341POPC   C4A55218  31.514   2.726   7.229
 4341POPC   C1B55219  31.611   3.292   6.118
 4341POPC   C2B55220  31.766   3.222   6.496
 4341POPC   C3B55221  31.584   3.097   6.866
 4341POPC   C4B55222  31.762   3.180   7.235
 4342POPC   NC355223   7.931  23.824   5.022
 4342POPC   PO455224   8.443  23.752   5.503
 4342POPC   GL155225   8.159  23.659   5.821
 4342POPC   GL255226   7.894  23.374   5.745
 4342POPC   C1A55227   8.331  23.740   6.231
 4342POPC   D2A55228   8.483  23.848   6.615
 4342POPC   C3A55229   8.139  23.910   6.871
 4342POPC   C4A55230   8.144  23.850   7.283
 4342POPC   C1B55231   7.982  23.369   6.210
 4342POPC   C2B55232   8.120  23.452   6.643
 4342POPC   C3B55233   8.073  23.376   7.099
 4342POPC   C4B55234   8.201  23.424   7.551
 4343POPC   NC355235   0.931   1.352   5.404
 4343POPC   PO455236   1.545   1.174   5.224
 4343POPC   GL155237   1.444   1.210   5.721
 4343POPC   GL255238   1.146   1.295   5.866
 4343POPC   C1A55239   1.507   1.337   6.213
 4343POPC   D2A55240   1.274   1.487   6.640
 4343POPC   C3A55241   1.509   1.355   7.011
 4343POPC   C4A55242   1.608   0.986   7.188
 4343POPC   C1B55243   0.972   1.465   6.225
 4343POPC   C2B55244   0.881   1.855   6.469
 4343POPC   C3B55245   0.920   1.815   6.920
 4343POPC   C4B55246   0.977   1.432   7.174
 4344POPC   NC355247  43.699   1.547   5.495
 4344POPC   PO455248  44.056   0.916   5.420
 4344POPC   GL155249  44.000   1.090   5.828
 4344POPC   GL255250  44.071   1.445   5.830
 4344POPC   C1A55251  43.913   0.968   6.254
 4344POPC   D2A55252  43.790   1.205   6.578
 4344POPC   C3A55253  43.749   1.034   6.914
 4344POPC   C4A55254  43.722   1.020   7.296
 4344POPC   C1B55255  43.739   1.449   6.134
 4344POPC   C2B55256  43.636   1.669   6.509
 4344POPC   C3B55257  43.569   1.518   6.974
 4344POPC   C4B55258  43.678   1.533   7.437
 4345POPC   NC355259  18.398  24.069   5.776
 4345POPC   PO455260  17.837  24.312   5.554
 4345POPC   GL155261  17.861  23.946   5.881
 4345POPC   GL255262  18.113  23.651   5.822
 4345POPC   C1A55263  18.078  23.855   6.297
 4345POPC   D2A55264  18.414  23.749   6.596
 4345POPC   C3A55265  18.302  23.829   6.989
 4345POPC   C4A55266  17.977  23.687   7.188
 4345POPC   C1B55267  18.367  23.437   6.158
 4345POPC   C2B55268  18.442  23.241   6.560
 4345POPC   C3B55269  18.247  23.302   6.956
 4345POPC   C4B55270  18.410  23.439   7.327
 4346POPC   NC355271  17.261  43.582   5.293
 4346POPC   PO455272  17.337  44.244   5.411
 4346POPC   GL155273  17.408  43.897   5.695
 4346POPC   GL255274  17.162  44.033   5.886
 4346POPC   C1A55275  17.473  43.672   6.099
 4346POPC   D2A55276  17.612  43.782   6.522
 4346POPC   C3A55277  17.427  43.638   6.897
 4346POPC   C4A55278  17.497  43.727   7.325
 4346POPC   C1B55279  17.393  44.158   6.224
 4346POPC   C2B55280  17.644  44.277   6.564
 4346POPC   C3B55281  17.491  44.137   6.951
 4346POPC   C4B55282  17.202  44.143   7.302
 4347POPC   NC355283  13.430  26.095   5.198
 4347POPC   PO455284  14.036  26.177   5.226
 4347POPC   GL155285  13.655  26.060   5.647
 4347POPC   GL255286  13.614  26.312   5.893
 4347POPC   C1A55287  13.641  25.899   6.160
 4347POPC   D2A55288  13.950  26.000   6.524
 4347POPC   C3A55289  13.863  25.846   6.952
 4347POPC   C4A55290  13.521  25.997   7.191
 4347POPC   C1B55291  13.366  26.301   6.303
 4347POPC   C2B55292  13.336  26.218   6.751
 4347POPC   C3B55293  13.202  26.380   7.164
 4347POPC   C4B55294  13.411  26.301   7.592
 4348POPC   NC355295  32.317  40.312   5.393
 4348POPC   PO455296  31.966  39.717   5.484
 4348POPC   GL155297  32.073  40.037   5.801
 4348POPC   GL255298  32.420  40.077   5.869
 4348POPC   C1A55299  32.056  40.109   6.261
 4348POPC   D2A55300  32.008  40.296   6.673
 4348POPC   C3A55301  32.070  39.981   6.995
 4348POPC   C4A55302  32.062  39.968   7.422
 4348POPC   C1B55303  32.578  40.058   6.314
 4348POPC   C2B55304  32.491  40.172   6.762
 4348POPC   C3B55305  32.490  40.143   7.226
 4348POPC   C4B55306  32.683  39.816   7.532
 4349POPC   NC355307  19.293  29.293   5.401
 4349POPC   PO455308  18.798  28.895   5.393
 4349POPC   GL155309  18.915  29.064   5.814
 4349POPC   GL255310  19.185  29.270   5.884
 4349POPC   C1A55311  19.139  28.840   6.171
 4349POPC   D2A55312  19.372  28.836   6.555
 4349POPC   C3A55313  19.133  29.049   6.866
 4349POPC   C4A55314  19.122  28.944   7.295
 4349POPC   C1B55315  19.290  29.339   6.295
 4349POPC   C2B55316  18.997  29.475   6.568
 4349POPC   C3B55317  18.926  29.714   6.911
 4349POPC   C4B55318  19.049  29.449   7.235
 4350POPC   NC355319   4.127  35.806   5.394
 4350POPC   PO455320   4.023  35.120   5.640
 4350POPC   GL155321   4.246  35.439   5.905
 4350POPC   GL255322   4.511  35.611   5.727
 4350POPC   C1A55323   4.402  35.392   6.346
 4350POPC   D2A55324   4.577  35.120   6.706
 4350POPC   C3A55325   4.228  35.110   7.007
 4350POPC   C4A55326   4.062  35.514   7.126
 4350POPC   C1B55327   4.776  35.665   6.111
 4350POPC   C2B55328   4.674  35.763   6.563
 4350POPC   C3B55329   4.571  35.611   6.960
 4350POPC   C4B55330   4.365  35.936   7.171
 4351POPC   NC355331  27.690  23.483   5.399
 4351POPC   PO455332  27.363  24.113   5.170
 4351POPC   GL155333  27.381  23.910   5.635
 4351POPC   GL255334  27.670  24.023   5.799
 4351POPC   C1A55335  27.502  23.647   6.084
 4351POPC   D2A55336  27.708  23.461   6.485
 4351POPC   C3A55337  27.524  23.584   6.896
 4351POPC   C4A55338  27.695  23.691   7.301
 4351POPC   C1B55339  27.581  24.164   6.200
 4351POPC   C2B55340  27.597  23.961   6.573
 4351POPC   C3B55341  27.740  24.080   6.981
 4351POPC   C4B55342  27.714  24.201   7.420
 4352POPC   NC355343  29.072  39.783   5.402
 4352POPC   PO455344  29.449  40.277   5.624
 4352POPC   GL155345  29.181  40.001   5.878
 4352POPC   GL255346  28.993  39.682   5.911
 4352POPC   C1A55347  29.099  40.116   6.296
 4352POPC   D2A55348  29.238  40.460   6.595
 4352POPC   C3A55349  29.388  40.363   7.024
 4352POPC   C4A55350  29.248  40.260   7.436
 4352POPC   C1B55351  28.768  39.721   6.343
 4352POPC   C2B55352  28.876  39.959   6.729
 4352POPC   C3B55353  29.103  39.892   7.112
 4352POPC   C4B55354  29.027  39.805   7.563
 4353POPC   NC355355  35.015  24.525   5.313
 4353POPC   PO455356  34.333  24.761   5.209
 4353POPC   GL155357  34.317  24.667   5.687
 4353POPC   GL255358  34.388  24.938   5.947
 4353POPC   C1A55359  34.595  24.451   6.014
 4353POPC   D2A55360  34.887  24.517   6.374
 4353POPC   C3A55361  34.828  24.591   6.844
 4353POPC   C4A55362  34.580  24.281   7.054
 4353POPC   C1B55363  34.214  24.679   6.266
 4353POPC   C2B55364  34.378  24.512   6.634
 4353POPC   C3B55365  34.324  24.703   7.047
 4353POPC   C4B55366  34.325  24.704   7.515
 4354POPC   NC355367  43.937  28.248   5.425
 4354POPC   PO455368  44.403  28.553   5.308
 4354POPC   GL155369  44.267  28.281   5.778
 4354POPC   GL255370  43.873  28.361   5.906
 4354POPC   C1A55371  44.169  28.120   6.212
 4354POPC   D2A55372  44.140  28.360   6.585
 4354POPC   C3A55373  44.064  28.172   6.977
 4354POPC   C4A55374  43.837  28.198   7.367
 4354POPC   C1B55375  43.634  28.395   6.317
 4354POPC   C2B55376  43.640  28.495   6.774
 4354POPC   C3B55377  43.656  28.682   7.198
 4354POPC   C4B55378  43.540  28.554   7.629
 4355POPC   NC355379  35.022  37.335   5.413
 4355POPC   PO455380  35.442  37.780   5.127
 4355POPC   GL155381  35.458  37.595   5.559
 4355POPC   GL255382  35.242  37.811   5.673
 4355POPC   C1A55383  35.428  37.547   6.057
 4355POPC   D2A55384  35.551  37.587   6.526
 4355POPC   C3A55385  35.348  37.661   6.931
 4355POPC   C4A55386  34.928  37.569   7.097
 4355POPC   C1B55387  35.109  37.975   6.064
 4355POPC   C2B55388  35.271  38.036   6.469
 4355POPC   C3B55389  35.008  38.035   6.838
 4355POPC   C4B55390  34.970  38.084   7.259
 4356POPC   NC355391  10.116  36.948   5.438
 4356POPC   PO455392   9.542  36.728   5.221
 4356POPC   GL155393   9.704  36.752   5.652
 4356POPC   GL255394   9.687  37.114   5.727
 4356POPC   C1A55395   9.787  36.648   6.102
 4356POPC   D2A55396   9.556  36.770   6.479
 4356POPC   C3A55397   9.681  36.733   6.920
 4356POPC   C4A55398  10.014  36.928   7.166
 4356POPC   C1B55399   9.821  37.160   6.161
 4356POPC   C2B55400   9.686  37.254   6.589
 4356POPC   C3B55401   9.537  37.213   7.016
 4356POPC   C4B55402   9.518  37.352   7.446
 4357POPC   NC355403  32.360  42.842   5.447
 4357POPC   PO455404  32.027  43.465   5.580
 4357POPC   GL155405  32.164  43.203   5.887
 4357POPC   GL255406  32.485  43.235   5.774
 4357POPC   C1A55407  32.159  43.241   6.358
 4357POPC   D2A55408  32.184  42.883   6.639
 4357POPC   C3A55409  31.959  42.924   7.046
 4357POPC   C4A55410  32.037  43.349   7.228
 4357POPC   C1B55411  32.551  42.999   6.146
 4357POPC   C2B55412  32.669  43.131   6.554
 4357POPC   C3B55413  32.450  43.225   6.908
 4357POPC   C4B55414  32.629  43.221   7.275
 4358POPC   NC355415  16.419   9.833   5.452
 4358POPC   PO455416  17.098   9.636   5.486
 4358POPC   GL155417  16.824   9.844   5.773
 4358POPC   GL255418  16.677   9.517   5.774
 4358POPC   C1A55419  16.530   9.796   6.164
 4358POPC   D2A55420  16.474   9.575   6.562
 4358POPC   C3A55421  16.659   9.821   6.871
 4358POPC   C4A55422  16.760   9.720   7.256
 4358POPC   C1B55423  16.964   9.525   6.132
 4358POPC   C2B55424  16.995   9.560   6.552
 4358POPC   C3B55425  16.905   9.344   6.923
 4358POPC   C4B55426  17.117   9.378   7.326
 4359POPC   NC355427  31.646  35.138   5.326
 4359POPC   PO455428  31.109  34.799   5.552
 4359POPC   GL155429  31.325  35.074   5.861
 4359POPC   GL255430  31.690  34.993   5.830
 4359POPC   C1A55431  31.239  35.406   6.230
 4359POPC   D2A55432  31.211  35.578   6.675
 4359POPC   C3A55433  31.136  35.233   6.941
 4359POPC   C4A55434  31.305  35.086   7.297
 4359POPC   C1B55435  31.717  35.334   6.113
 4359POPC   C2B55436  31.690  35.471   6.530
 4359POPC   C3B55437  31.631  35.309   6.930
 4359POPC   C4B55438  31.932  35.469   7.142
 4360POPC   NC355439  44.531  35.578   5.175
 4360POPC   PO455440  44.275  36.118   5.506
 4360POPC   GL155441  44.506  35.996   5.859
 4360POPC   GL255442  44.646  35.641   5.871
 4360POPC   C1A55443  44.605  36.002   6.281
 4360POPC   D2A55444  44.724  36.171   6.655
 4360POPC   C3A55445  44.485  36.016   6.983
 4360POPC   C4A55446  44.711  36.249   7.235
 4360POPC   C1B55447  44.970  35.637   6.172
 4360POPC   C2B55448   0.043  35.787   6.595
 4360POPC   C3B55449   0.023  35.886   7.034
 4360POPC   C4B55450   0.264  35.869   7.412
 4361POPC   NC355451   5.108   9.273   5.203
 4361POPC   PO455452   5.129   9.909   5.493
 4361POPC   GL155453   5.187   9.457   5.737
 4361POPC   GL255454   5.495   9.382   5.891
 4361POPC   C1A55455   5.093   9.273   6.182
 4361POPC   D2A55456   4.921   9.307   6.596
 4361POPC   C3A55457   5.120   9.442   6.974
 4361POPC   C4A55458   4.927   9.837   7.127
 4361POPC   C1B55459   5.281   9.747   6.153
 4361POPC   C2B55460   5.345  10.021   6.507
 4361POPC   C3B55461   5.419   9.871   6.925
 4361POPC   C4B55462   5.382   9.705   7.342
 4362POPC   NC355463  23.601  35.154   5.358
 4362POPC   PO455464  24.111  35.578   5.447
 4362POPC   GL155465  23.971  35.232   5.724
 4362POPC   GL255466  23.594  35.213   5.855
 4362POPC   C1A55467  23.992  35.104   6.155
 4362POPC   D2A55468  23.657  35.229   6.435
 4362POPC   C3A55469  23.790  35.204   6.820
 4362POPC   C4A55470  23.954  35.328   7.170
 4362POPC   C1B55471  23.312  35.506   6.074
 4362POPC   C2B55472  23.219  35.544   6.495
 4362POPC   C3B55473  23.274  35.315   6.857
 4362POPC   C4B55474  23.470  35.313   7.247
 4363POPC   NC355475  35.100   4.415   5.486
 4363POPC   PO455476  35.339   3.816   5.358
 4363POPC   GL155477  35.491   4.143   5.752
 4363POPC   GL255478  35.179   4.259   5.947
 4363POPC   C1A55479  35.580   4.335   6.217
 4363POPC   D2A55480  35.223   4.501   6.467
 4363POPC   C3A55481  35.285   4.425   6.899
 4363POPC   C4A55482  35.642   4.319   7.177
 4363POPC   C1B55483  34.908   4.100   6.229
 4363POPC   C2B55484  34.956   4.088   6.623
 4363POPC   C3B55485  35.076   3.940   6.959
 4363POPC   C4B55486  35.172   4.114   7.287
 4364POPC   NC355487   0.699  21.083   5.497
 4364POPC   PO455488   1.370  21.285   5.546
 4364POPC   GL155489   1.027  21.344   5.819
 4364POPC   GL255490   0.903  21.655   5.871
 4364POPC   C1A55491   1.116  21.243   6.248
 4364POPC   D2A55492   1.381  21.258   6.608
 4364POPC   C3A55493   1.086  21.144   6.905
 4364POPC   C4A55494   1.001  21.006   7.296
 4364POPC   C1B55495   1.104  21.752   6.208
 4364POPC   C2B55496   0.996  21.602   6.598
 4364POPC   C3B55497   1.261  21.642   6.929
 4364POPC   C4B55498   1.097  21.507   7.284
 4365POPC   NC355499  40.120  30.913   5.314
 4365POPC   PO455500  39.504  30.650   5.266
 4365POPC   GL155501  39.752  30.807   5.663
 4365POPC   GL255502  40.080  30.640   5.792
 4365POPC   C1A55503  39.881  30.970   6.095
 4365POPC   D2A55504  39.925  30.757   6.496
 4365POPC   C3A55505  39.837  30.930   6.921
 4365POPC   C4A55506  39.856  30.711   7.322
 4365POPC   C1B55507  40.184  30.350   6.177
 4365POPC   C2B55508  40.283  30.410   6.617
 4365POPC   C3B55509  40.221  30.475   7.047
 4365POPC   C4B55510  40.280  30.502   7.507
 4366POPC   NC355511   1.591  10.926   5.028
 4366POPC   PO455512   2.020  10.512   5.235
 4366POPC   GL155513   1.971  10.469   5.691
 4366POPC   GL255514   2.020  10.808   5.814
 4366POPC   C1A55515   1.971  10.453   6.157
 4366POPC   D2A55516   2.239  10.519   6.489
 4366POPC   C3A55517   2.089  10.391   6.893
 4366POPC   C4A55518   2.233  10.401   7.306
 4366POPC   C1B55519   1.993  10.983   6.276
 4366POPC   C2B55520   1.988  10.874   6.732
 4366POPC   C3B55521   1.953  10.810   7.175
 4366POPC   C4B55522   1.681  10.841   7.496
 4367POPC   NC355523   7.251  17.435   5.428
 4367POPC   PO455524   7.835  17.692   5.464
 4367POPC   GL155525   7.625  17.516   5.838
 4367POPC   GL255526   7.444  17.235   5.856
 4367POPC   C1A55527   7.829  17.336   6.202
 4367POPC   D2A55528   7.682  17.254   6.596
 4367POPC   C3A55529   7.792  17.460   6.957
 4367POPC   C4A55530   7.532  17.675   7.230
 4367POPC   C1B55531   7.294  17.368   6.227
 4367POPC   C2B55532   7.172  17.147   6.563
 4367POPC   C3B55533   7.266  17.383   6.901
 4367POPC   C4B55534   7.064  17.424   7.263
 4368POPC   NC355535  30.569  13.187   5.456
 4368POPC   PO455536  31.010  12.670   5.512
 4368POPC   GL155537  30.946  12.987   5.829
 4368POPC   GL255538  30.605  12.947   5.940
 4368POPC   C1A55539  31.036  13.028   6.269
 4368POPC   D2A55540  30.775  12.889   6.581
 4368POPC   C3A55541  30.947  12.843   6.963
 4368POPC   C4A55542  30.750  12.959   7.338
 4368POPC   C1B55543  30.413  12.651   6.267
 4368POPC   C2B55544  30.185  12.472   6.636
 4368POPC   C3B55545  30.338  12.308   7.054
 4368POPC   C4B55546  30.384  12.543   7.432
 4369POPC   NC355547  43.195  24.293   5.126
 4369POPC   PO455548  42.792  24.189   5.650
 4369POPC   GL155549  43.132  24.497   5.726
 4369POPC   GL255550  43.018  24.835   5.762
 4369POPC   C1A55551  43.346  24.604   6.138
 4369POPC   D2A55552  43.202  24.492   6.593
 4369POPC   C3A55553  43.255  24.557   7.045
 4369POPC   C4A55554  43.216  24.726   7.502
 4369POPC   C1B55555  42.837  24.659   6.190
 4369POPC   C2B55556  42.689  24.412   6.571
 4369POPC   C3B55557  42.828  24.205   6.947
 4369POPC   C4B55558  42.946  24.312   7.350
 4370POPC   NC355559   7.180  36.527   5.340
 4370POPC   PO455560   7.231  37.217   5.463
 4370POPC   GL155561   7.386  37.010   5.813
 4370POPC   GL255562   7.230  36.714   5.815
 4370POPC   C1A55563   7.288  36.955   6.255
 4370POPC   D2A55564   7.383  37.192   6.572
 4370POPC   C3A55565   7.293  36.966   6.912
 4370POPC   C4A55566   7.554  37.122   7.206
 4370POPC   C1B55567   7.444  36.489   6.168
 4370POPC   C2B55568   7.618  36.678   6.600
 4370POPC   C3B55569   7.536  36.526   7.035
 4370POPC   C4B55570   7.276  36.683   7.350
 4371POPC   NC355571  34.175  44.543   5.390
 4371POPC   PO455572  34.858  44.771   5.377
 4371POPC   GL155573  34.754  44.637   5.761
 4371POPC   GL255574  34.485  44.829   5.850
 4371POPC   C1A55575  34.855  44.445   6.154
 4371POPC   D2A55576  34.703  44.282   6.546
 4371POPC   C3A55577  34.868  44.413   6.951
 4371POPC   C4A55578  34.832  44.668   7.327
 4371POPC   C1B55579  34.398  44.696   6.292
 4371POPC   C2B55580  34.432  44.661   6.752
 4371POPC   C3B55581  34.374  44.590   7.182
 4371POPC   C4B55582  34.382  44.901   7.519
 4372POPC   NC355583  33.734  42.157   5.323
 4372POPC   PO455584  33.522  42.751   5.542
 4372POPC   GL155585  33.675  42.532   5.929
 4372POPC   GL255586  33.872  42.240   5.856
 4372POPC   C1A55587  33.981  42.611   6.285
 4372POPC   D2A55588  33.839  42.618   6.701
 4372POPC   C3A55589  34.117  42.625   7.058
 4372POPC   C4A55590  34.041  42.436   7.489
 4372POPC   C1B55591  33.779  42.152   6.315
 4372POPC   C2B55592  33.825  42.106   6.756
 4372POPC   C3B55593  33.676  42.326   7.111
 4372POPC   C4B55594  33.289  42.170   7.225
 4373POPC   NC355595  28.062   3.462   5.383
 4373POPC   PO455596  28.712   3.164   5.524
 4373POPC   GL155597  28.542   3.425   5.857
 4373POPC   GL255598  28.183   3.492   5.880
 4373POPC   C1A55599  28.496   3.507   6.298
 4373POPC   D2A55600  28.684   3.710   6.661
 4373POPC   C3A55601  28.393   3.665   6.987
 4373POPC   C4A55602  28.249   3.563   7.387
 4373POPC   C1B55603  27.956   3.298   6.244
 4373POPC   C2B55604  27.851   3.276   6.701
 4373POPC   C3B55605  27.888   3.227   7.179
 4373POPC   C4B55606  27.922   3.333   7.671
 4374POPC   NC355607  41.472   8.139   5.373
 4374POPC   PO455608  40.806   8.252   5.553
 4374POPC   GL155609  41.202   8.141   5.805
 4374POPC   GL255610  41.359   8.462   5.885
 4374POPC   C1A55611  41.592   8.032   6.098
 4374POPC   D2A55612  41.788   8.110   6.527
 4374POPC   C3A55613  41.632   8.051   6.945
 4374POPC   C4A55614  41.770   7.938   7.320
 4374POPC   C1B55615  41.565   8.545   6.306
 4374POPC   C2B55616  41.460   8.513   6.771
 4374POPC   C3B55617  41.267   8.358   7.181
 4374POPC   C4B55618  41.068   8.308   7.636
 4375POPC   NC355619  26.500  30.803   5.475
 4375POPC   PO455620  25.853  30.596   5.425
 4375POPC   GL155621  26.134  30.609   5.808
 4375POPC   GL255622  26.236  30.965   5.869
 4375POPC   C1A55623  26.193  30.633   6.277
 4375POPC   D2A55624  25.913  30.428   6.573
 4375POPC   C3A55625  26.010  30.535   6.971
 4375POPC   C4A55626  26.152  30.557   7.390
 4375POPC   C1B55627  26.006  31.110   6.234
 4375POPC   C2B55628  26.000  30.967   6.639
 4375POPC   C3B55629  25.780  31.024   6.994
 4375POPC   C4B55630  25.914  31.055   7.369
 4376POPC   NC355631  19.439   4.102   5.346
 4376POPC   PO455632  18.861   4.559   5.500
 4376POPC   GL155633  19.133   4.457   5.806
 4376POPC   GL255634  19.156   4.107   5.759
 4376POPC   C1A55635  18.982   4.341   6.198
 4376POPC   D2A55636  18.719   4.193   6.505
 4376POPC   C3A55637  18.869   4.210   6.932
 4376POPC   C4A55638  19.180   4.404   7.194
 4376POPC   C1B55639  19.251   3.927   6.153
 4376POPC   C2B55640  19.261   4.118   6.592
 4376POPC   C3B55641  19.432   4.008   7.018
 4376POPC   C4B55642  19.259   3.973   7.462
 4377POPC   NC355643  41.769  23.964   5.539
 4377POPC   PO455644  41.402  23.401   5.342
 4377POPC   GL155645  41.495  23.608   5.782
 4377POPC   GL255646  41.169  23.680   5.915
 4377POPC   C1A55647  41.756  23.704   6.216
 4377POPC   D2A55648  41.982  23.839   6.621
 4377POPC   C3A55649  41.788  23.650   6.966
 4377POPC   C4A55650  41.383  23.504   7.090
 4377POPC   C1B55651  41.299  23.930   6.257
 4377POPC   C2B55652  41.375  23.816   6.672
 4377POPC   C3B55653  41.329  24.007   7.031
 4377POPC   C4B55654  41.334  24.330   7.321
 4378POPC   NC355655   5.893   5.809   5.338
 4378POPC   PO455656   5.530   6.373   5.198
 4378POPC   GL155657   5.734   6.170   5.674
 4378POPC   GL255658   5.672   5.790   5.803
 4378POPC   C1A55659   5.913   6.106   6.134
 4378POPC   D2A55660   6.022   5.843   6.529
 4378POPC   C3A55661   5.977   6.013   6.954
 4378POPC   C4A55662   5.634   6.104   7.226
 4378POPC   C1B55663   5.584   5.690   6.260
 4378POPC   C2B55664   5.556   5.695   6.723
 4378POPC   C3B55665   5.597   5.417   7.084
 4378POPC   C4B55666   5.882   5.672   7.329
 4379POPC   NC355667   2.952  31.978   5.378
 4379POPC   PO455668   2.508  32.403   5.326
 4379POPC   GL155669   2.443  32.378   5.758
 4379POPC   GL255670   2.682  32.096   5.806
 4379POPC   C1A55671   2.672  32.483   6.142
 4379POPC   D2A55672   2.942  32.524   6.504
 4379POPC   C3A55673   2.753  32.282   6.809
 4379POPC   C4A55674   2.660  32.327   7.222
 4379POPC   C1B55675   2.771  31.829   6.155
 4379POPC   C2B55676   2.707  31.798   6.580
 4379POPC   C3B55677   2.945  31.838   6.940
 4379POPC   C4B55678   2.891  31.921   7.324
 4380POPC   NC355679  38.442  30.128   5.459
 4380POPC   PO455680  37.993  29.647   5.488
 4380POPC   GL155681  38.187  29.863   5.847
 4380POPC   GL255682  38.475  29.636   5.863
 4380POPC   C1A55683  38.332  30.089   6.252
 4380POPC   D2A55684  38.365  30.290   6.677
 4380POPC   C3A55685  38.573  30.157   7.045
 4380POPC   C4A55686  38.449  29.959   7.411
 4380POPC   C1B55687  38.363  29.582   6.304
 4380POPC   C2B55688  38.382  29.754   6.743
 4380POPC   C3B55689  38.383  29.521   7.147
 4380POPC   C4B55690  38.308  29.538   7.624
 4381POPC   NC355691  12.936   9.761   5.430
 4381POPC   PO455692  12.452   9.295   5.522
 4381POPC   GL155693  12.616   9.603   5.839
 4381POPC   GL255694  12.363   9.780   6.029
 4381POPC   C1A55695  12.899   9.882   6.117
 4381POPC   D2A55696  13.060  10.026   6.536
 4381POPC   C3A55697  12.832   9.816   6.870
 4381POPC   C4A55698  12.953   9.800   7.283
 4381POPC   C1B55699  12.325   9.414   6.318
 4381POPC   C2B55700  12.370   9.445   6.776
 4381POPC   C3B55701  12.530   9.491   7.198
 4381POPC   C4B55702  12.680   9.479   7.624
 4382POPC   NC355703  15.759  12.350   5.416
 4382POPC   PO455704  16.155  11.832   5.695
 4382POPC   GL155705  16.100  12.224   5.827
 4382POPC   GL255706  15.724  12.261   5.895
 4382POPC   C1A55707  16.054  12.370   6.248
 4382POPC   D2A55708  16.093  12.147   6.612
 4382POPC   C3A55709  16.326  12.300   6.940
 4382POPC   C4A55710  16.035  12.062   7.149
 4382POPC   C1B55711  15.615  12.072   6.277
 4382POPC   C2B55712  15.605  12.319   6.645
 4382POPC   C3B55713  15.706  12.453   7.052
 4382POPC   C4B55714  15.558  12.189   7.380
 4383POPC   NC355715  44.750  20.944   5.548
 4383POPC   PO455716  44.729  21.624   5.409
 4383POPC   GL155717  44.694  21.436   5.824
 4383POPC   GL255718  44.472  21.121   5.914
 4383POPC   C1A55719  44.610  21.692   6.228
 4383POPC   D2A55720  44.381  21.790   6.642
 4383POPC   C3A55721  44.577  21.686   7.069
 4383POPC   C4A55722  44.604  21.511   7.502
 4383POPC   C1B55723  44.743  21.175   6.253
 4383POPC   C2B55724  44.734  21.389   6.625
 4383POPC   C3B55725  44.652  21.202   6.966
 4383POPC   C4B55726  44.693  21.061   7.310
 4384POPC   NC355727  21.816  37.072   5.056
 4384POPC   PO455728  21.335  36.916   5.442
 4384POPC   GL155729  21.347  36.762   5.855
 4384POPC   GL255730  21.505  36.438   5.805
 4384POPC   C1A55731  21.385  36.986   6.244
 4384POPC   D2A55732  21.589  37.085   6.626
 4384POPC   C3A55733  21.390  37.004   6.982
 4384POPC   C4A55734  21.397  37.061   7.380
 4384POPC   C1B55735  21.685  36.559   6.187
 4384POPC   C2B55736  21.379  36.518   6.455
 4384POPC   C3B55737  21.343  36.491   6.858
 4384POPC   C4B55738  21.503  36.544   7.226
 4385POPC   NC355739   8.031   3.107   5.412
 4385POPC   PO455740   8.117   2.411   5.277
 4385POPC   GL155741   8.213   2.589   5.708
 4385POPC   GL255742   7.914   2.422   5.854
 4385POPC   C1A55743   8.380   2.926   6.033
 4385POPC   D2A55744   8.515   2.944   6.500
 4385POPC   C3A55745   8.231   2.888   6.905
 4385POPC   C4A55746   8.290   2.623   7.314
 4385POPC   C1B55747   8.069   2.561   6.241
 4385POPC   C2B55748   8.248   2.460   6.630
 4385POPC   C3B55749   7.985   2.436   6.960
 4385POPC   C4B55750   7.757   2.743   7.199
 4386POPC   NC355751   1.999  22.595   5.158
 4386POPC   PO455752   1.920  22.012   5.441
 4386POPC   GL155753   1.849  22.164   5.828
 4386POPC   GL255754   2.146  22.385   5.813
 4386POPC   C1A55755   1.907  22.329   6.266
 4386POPC   D2A55756   1.709  22.240   6.646
 4386POPC   C3A55757   1.903  22.322   7.048
 4386POPC   C4A55758   1.839  22.551   7.422
 4386POPC   C1B55759   2.265  22.021   6.064
 4386POPC   C2B55760   2.247  22.018   6.529
 4386POPC   C3B55761   2.207  21.796   6.905
 4386POPC   C4B55762   2.153  21.940   7.299
 4387POPC   NC355763  18.719  12.440   4.986
 4387POPC   PO455764  18.584  12.988   5.467
 4387POPC   GL155765  18.369  12.914   5.854
 4387POPC   GL255766  18.034  12.929   5.760
 4387POPC   C1A55767  18.343  12.691   6.274
 4387POPC   D2A55768  18.274  12.566   6.703
 4387POPC   C3A55769  18.580  12.798   6.926
 4387POPC   C4A55770  18.589  12.899   7.324
 4387POPC   C1B55771  17.940  13.015   6.197
 4387POPC   C2B55772  17.674  12.851   6.498
 4387POPC   C3B55773  17.775  12.937   6.897
 4387POPC   C4B55774  18.114  12.809   7.128
 4388POPC   NC355775   9.529  12.291   5.738
 4388POPC   PO455776  10.074  12.159   5.402
 4388POPC   GL155777   9.885  11.951   5.800
 4388POPC   GL255778   9.998  12.290   5.895
 4388POPC   C1A55779   9.652  11.882   6.217
 4388POPC   D2A55780   9.535  12.014   6.641
 4388POPC   C3A55781   9.673  11.720   6.945
 4388POPC   C4A55782   9.815  11.778   7.340
 4388POPC   C1B55783   9.845  12.479   6.258
 4388POPC   C2B55784   9.955  12.297   6.601
 4388POPC   C3B55785   9.787  12.290   6.984
 4388POPC   C4B55786   9.845  12.631   7.193
 4389POPC   NC355787  27.573  15.124   5.395
 4389POPC   PO455788  27.965  15.600   5.589
 4389POPC   GL155789  27.650  15.389   5.856
 4389POPC   GL255790  27.639  15.007   5.886
 4389POPC   C1A55791  27.585  15.322   6.309
 4389POPC   D2A55792  27.833  15.326   6.717
 4389POPC   C3A55793  27.594  15.108   7.063
 4389POPC   C4A55794  27.304  15.015   7.445
 4389POPC   C1B55795  27.930  14.877   6.225
 4389POPC   C2B55796  27.892  14.813   6.668
 4389POPC   C3B55797  28.093  14.955   7.039
 4389POPC   C4B55798  27.932  14.952   7.450
 4390POPC   NC355799  41.831  39.664   5.471
 4390POPC   PO455800  41.526  39.107   5.273
 4390POPC   GL155801  41.454  39.174   5.750
 4390POPC   GL255802  41.724  39.360   5.854
 4390POPC   C1A55803  41.358  39.301   6.211
 4390POPC   D2A55804  41.361  39.073   6.598
 4390POPC   C3A55805  41.247  39.223   6.979
 4390POPC   C4A55806  41.352  39.202   7.416
 4390POPC   C1B55807  41.869  39.433   6.248
 4390POPC   C2B55808  41.685  39.456   6.642
 4390POPC   C3B55809  41.753  39.287   7.057
 4390POPC   C4B55810  41.825  39.589   7.366
 4391POPC   NC355811  32.944  14.201   5.427
 4391POPC   PO455812  33.568  14.366   5.650
 4391POPC   GL155813  33.226  14.261   5.884
 4391POPC   GL255814  32.923  14.475   5.872
 4391POPC   C1A55815  33.194  14.295   6.344
 4391POPC   D2A55816  32.900  14.423   6.655
 4391POPC   C3A55817  33.105  14.559   7.016
 4391POPC   C4A55818  33.478  14.556   7.244
 4391POPC   C1B55819  32.795  14.076   6.094
 4391POPC   C2B55820  32.861  13.926   6.510
 4391POPC   C3B55821  32.702  14.004   6.927
 4391POPC   C4B55822  32.885  14.170   7.264
 4392POPC   NC355823  18.811  43.244   5.389
 4392POPC   PO455824  19.460  43.379   5.506
 4392POPC   GL155825  19.214  43.169   5.821
 4392POPC   GL255826  18.866  43.223   5.884
 4392POPC   C1A55827  19.239  43.026   6.247
 4392POPC   D2A55828  19.115  42.835   6.615
 4392POPC   C3A55829  19.132  43.021   6.983
 4392POPC   C4A55830  19.290  43.032   7.369
 4392POPC   C1B55831  18.727  42.986   6.216
 4392POPC   C2B55832  18.731  43.193   6.620
 4392POPC   C3B55833  18.776  43.378   7.024
 4392POPC   C4B55834  18.796  43.130   7.373
 4393POPC   NC355835   6.298   8.253   5.604
 4393POPC   PO455836   5.620   7.963   5.469
 4393POPC   GL155837   5.591   8.196   5.835
 4393POPC   GL255838   5.912   8.203   5.906
 4393POPC   C1A55839   5.579   8.147   6.283
 4393POPC   D2A55840   5.887   8.127   6.611
 4393POPC   C3A55841   5.650   8.176   6.987
 4393POPC   C4A55842   5.753   8.442   7.320
 4393POPC   C1B55843   5.988   7.881   6.141
 4393POPC   C2B55844   6.212   7.715   6.462
 4393POPC   C3B55845   6.309   7.880   6.836
 4393POPC   C4B55846   6.099   8.030   7.233
 4394POPC   NC355847  41.052   5.087   5.193
 4394POPC   PO455848  40.962   5.722   5.443
 4394POPC   GL155849  40.822   5.268   5.631
 4394POPC   GL255850  41.047   4.954   5.765
 4394POPC   C1A55851  40.650   5.107   6.057
 4394POPC   D2A55852  40.430   5.020   6.445
 4394POPC   C3A55853  40.673   5.125   6.805
 4394POPC   C4A55854  40.587   5.120   7.221
 4394POPC   C1B55855  40.929   4.693   6.176
 4394POPC   C2B55856  40.749   4.647   6.613
 4394POPC   C3B55857  40.848   4.688   7.078
 4394POPC   C4B55858  41.220   4.797   7.368
 4395POPC   NC355859  43.192  43.687   5.385
 4395POPC   PO455860  43.627  44.143   5.559
 4395POPC   GL155861  43.311  43.937   5.824
 4395POPC   GL255862  43.411  43.571   5.861
 4395POPC   C1A55863  42.969  43.997   6.179
 4395POPC   D2A55864  42.990  44.228   6.599
 4395POPC   C3A55865  42.857  44.079   7.012
 4395POPC   C4A55866  43.000  43.680   7.192
 4395POPC   C1B55867  43.419  43.791   6.291
 4395POPC   C2B55868  43.301  43.832   6.719
 4395POPC   C3B55869  43.488  43.736   7.105
 4395POPC   C4B55870  43.464  43.875   7.499
 4396POPC   NC355871  40.912  22.899   5.379
 4396POPC   PO455872  40.703  23.515   5.448
 4396POPC   GL155873  40.710  23.195   5.839
 4396POPC   GL255874  40.818  22.814   5.864
 4396POPC   C1A55875  40.829  23.075   6.292
 4396POPC   D2A55876  41.197  23.027   6.587
 4396POPC   C3A55877  41.140  23.016   7.045
 4396POPC   C4A55878  40.696  23.017   7.088
 4396POPC   C1B55879  40.662  22.586   6.214
 4396POPC   C2B55880  40.656  22.740   6.655
 4396POPC   C3B55881  40.512  22.549   7.061
 4396POPC   C4B55882  40.460  22.778   7.492
 4397POPC   NC355883  13.241  44.999   5.176
 4397POPC   PO455884  13.725  44.506   5.364
 4397POPC   GL155885  13.592  44.601   5.781
 4397POPC   GL255886  13.353  44.896   5.843
 4397POPC   C1A55887  13.747  44.785   6.186
 4397POPC   D2A55888  13.498  44.924   6.535
 4397POPC   C3A55889  13.756  44.982   6.883
 4397POPC   C4A55890  13.815  44.929   7.301
 4397POPC   C1B55891  13.307  44.555   6.184
 4397POPC   C2B55892  13.344  44.335   6.564
 4397POPC   C3B55893  13.393  44.593   6.912
 4397POPC   C4B55894  13.486  44.515   7.291
 4398POPC   NC355895  23.271  41.890   5.451
 4398POPC   PO455896  22.674  41.529   5.402
 4398POPC   GL155897  22.765  41.743   5.714
 4398POPC   GL255898  23.063  41.603   5.805
 4398POPC   C1A55899  22.737  41.709   6.182
 4398POPC   D2A55900  22.997  41.672   6.554
 4398POPC   C3A55901  22.864  41.601   6.973
 4398POPC   C4A55902  22.990  41.810   7.387
 4398POPC   C1B55903  23.129  41.359   6.161
 4398POPC   C2B55904  23.138  41.182   6.571
 4398POPC   C3B55905  23.286  41.138   6.935
 4398POPC   C4B55906  23.144  41.339   7.315
 4399POPC   NC355907  10.917   9.474   5.477
 4399POPC   PO455908  10.277   9.188   5.353
 4399POPC   GL155909  10.525   9.110   5.757
 4399POPC   GL255910  10.684   8.758   5.812
 4399POPC   C1A55911  10.636   9.207   6.213
 4399POPC   D2A55912  10.454   9.098   6.614
 4399POPC   C3A55913  10.545   9.096   7.048
 4399POPC   C4A55914  10.421   8.714   7.263
 4399POPC   C1B55915  10.993   8.824   6.149
 4399POPC   C2B55916  10.924   8.880   6.594
 4399POPC   C3B55917  10.861   8.685   6.993
 4399POPC   C4B55918  10.962   8.938   7.374
 4400POPC   NC355919  26.722  15.420   5.530
 4400POPC   PO455920  27.335  15.572   5.439
 4400POPC   GL155921  27.137  15.344   5.833
 4400POPC   GL255922  26.918  15.022   5.808
 4400POPC   C1A55923  26.848  15.376   6.217
 4400POPC   D2A55924  26.588  15.517   6.591
 4400POPC   C3A55925  26.630  15.371   7.018
 4400POPC   C4A55926  26.991  15.412   7.311
 4400POPC   C1B55927  26.681  14.879   6.204
 4400POPC   C2B55928  26.676  14.969   6.677
 4400POPC   C3B55929  26.929  14.925   7.100
 4400POPC   C4B55930  26.797  14.967   7.569
 4401POPC   NC355931  35.242  16.831   5.415
 4401POPC   PO455932  35.666  16.296   5.429
 4401POPC   GL155933  35.491  16.563   5.772
 4401POPC   GL255934  35.616  16.898   5.865
 4401POPC   C1A55935  35.228  16.668   6.129
 4401POPC   D2A55936  35.380  16.868   6.497
 4401POPC   C3A55937  35.290  16.810   6.911
 4401POPC   C4A55938  35.171  16.516   7.185
 4401POPC   C1B55939  35.772  16.630   6.198
 4401POPC   C2B55940  35.711  16.494   6.599
 4401POPC   C3B55941  35.737  16.368   7.016
 4401POPC   C4B55942  35.643  16.606   7.351
 4402POPC   NC355943   6.988  14.081   5.399
 4402POPC   PO455944   6.971  14.710   5.376
 4402POPC   GL155945   6.731  14.520   5.689
 4402POPC   GL255946   6.581  14.191   5.704
 4402POPC   C1A55947   6.824  14.445   6.106
 4402POPC   D2A55948   6.653  14.342   6.479
 4402POPC   C3A55949   6.681  14.576   6.815
 4402POPC   C4A55950   6.608  14.475   7.209
 4402POPC   C1B55951   6.457  14.032   6.114
 4402POPC   C2B55952   6.471  13.872   6.539
 4402POPC   C3B55953   6.499  14.071   6.912
 4402POPC   C4B55954   6.435  13.999   7.346
 4403POPC   NC355955  18.712  10.909   5.472
 4403POPC   PO455956  19.303  10.577   5.384
 4403POPC   GL155957  19.124  10.365   5.769
 4403POPC   GL255958  19.014  10.677   5.834
 4403POPC   C1A55959  18.951  10.346   6.221
 4403POPC   D2A55960  19.134  10.543   6.588
 4403POPC   C3A55961  19.226  10.293   6.917
 4403POPC   C4A55962  18.963  10.406   7.235
 4403POPC   C1B55963  18.761  10.817   6.190
 4403POPC   C2B55964  18.879  10.983   6.587
 4403POPC   C3B55965  18.778  10.899   6.991
 4403POPC   C4B55966  18.658  10.766   7.410
 4404POPC   NC355967   9.565   4.574   5.569
 4404POPC   PO455968  10.127   4.169   5.502
 4404POPC   GL155969   9.872   4.303   5.883
 4404POPC   GL255970   9.872   4.658   5.963
 4404POPC   C1A55971   9.578   4.262   6.243
 4404POPC   D2A55972   9.653   4.390   6.679
 4404POPC   C3A55973   9.529   4.129   7.035
 4404POPC   C4A55974   9.849   3.925   7.303
 4404POPC   C1B55975   9.471   4.767   6.183
 4404POPC   C2B55976   9.314   4.773   6.604
 4404POPC   C3B55977   9.543   4.762   7.020
 4404POPC   C4B55978   9.886   4.502   7.143
 4405POPC   NC355979  22.703  24.614   5.368
 4405POPC   PO455980  23.265  24.309   5.396
 4405POPC   GL155981  23.069  24.551   5.745
 4405POPC   GL255982  22.921  24.244   5.810
 4405POPC   C1A55983  23.037  24.560   6.212
 4405POPC   D2A55984  23.169  24.315   6.570
 4405POPC   C3A55985  23.074  24.578   6.895
 4405POPC   C4A55986  22.868  24.641   7.271
 4405POPC   C1B55987  22.764  24.141   6.230
 4405POPC   C2B55988  22.642  24.309   6.617
 4405POPC   C3B55989  22.796  24.162   7.002
 4405POPC   C4B55990  22.722  24.191   7.427
 4406POPC   NC355991   5.411  28.513   5.286
 4406POPC   PO455992   4.793  28.284   5.482
 4406POPC   GL155993   5.099  28.416   5.821
 4406POPC   GL255994   5.328  28.142   5.819
 4406POPC   C1A55995   5.234  28.542   6.273
 4406POPC   D2A55996   5.383  28.509   6.720
 4406POPC   C3A55997   5.147  28.401   7.089
 4406POPC   C4A55998   5.199  28.452   7.557
 4406POPC   C1B55999   5.036  28.095   6.209
 4406POPC   C2B56000   4.971  28.157   6.642
 4406POPC   C3B56001   4.784  28.061   7.022
 4406POPC   C4B56002   5.013  28.026   7.411
 4407POPC   NC356003  25.880  42.723   5.133
 4407POPC   PO456004  26.177  42.401   5.578
 4407POPC   GL156005  26.131  42.547   5.916
 4407POPC   GL256006  25.754  42.551   5.832
 4407POPC   C1A56007  25.962  42.652   6.272
 4407POPC   D2A56008  25.924  42.379   6.576
 4407POPC   C3A56009  26.239  42.411   6.826
 4407POPC   C4A56010  26.051  42.373   7.193
 4407POPC   C1B56011  25.840  42.163   6.116
 4407POPC   C2B56012  25.575  42.029   6.451
 4407POPC   C3B56013  25.645  42.041   6.877
 4407POPC   C4B56014  25.715  42.014   7.306
 4408POPC   NC356015  42.864  25.226   4.989
 4408POPC   PO456016  43.350  25.522   5.403
 4408POPC   GL156017  43.071  25.349   5.730
 4408POPC   GL256018  43.080  25.626   5.914
 4408POPC   C1A56019  43.086  25.130   6.179
 4408POPC   D2A56020  42.959  24.935   6.615
 4408POPC   C3A56021  43.137  25.048   7.060
 4408POPC   C4A56022  43.039  25.242   7.453
 4408POPC   C1B56023  43.363  25.548   6.287
 4408POPC   C2B56024  43.228  25.380   6.674
 4408POPC   C3B56025  43.103  25.571   7.056
 4408POPC   C4B56026  43.388  25.614   7.389
 4409POPC   NC356027   3.923  36.544   5.698
 4409POPC   PO456028   4.448  36.189   5.339
 4409POPC   GL156029   4.528  36.125   5.794
 4409POPC   GL256030   4.454  36.463   5.824
 4409POPC   C1A56031   4.371  35.979   6.224
 4409POPC   D2A56032   4.024  36.179   6.480
 4409POPC   C3A56033   3.917  36.000   6.890
 4409POPC   C4A56034   3.929  36.224   7.282
 4409POPC   C1B56035   4.465  36.485   6.256
 4409POPC   C2B56036   4.520  36.284   6.652
 4409POPC   C3B56037   4.349  36.428   7.044
 4409POPC   C4B56038   4.461  36.337   7.463
 4410POPC   NC356039  23.853  41.940   5.420
 4410POPC   PO456040  23.371  41.485   5.219
 4410POPC   GL156041  23.545  41.478   5.662
 4410POPC   GL256042  23.878  41.561   5.769
 4410POPC   C1A56043  23.486  41.721   6.075
 4410POPC   D2A56044  23.500  41.838   6.509
 4410POPC   C3A56045  23.374  41.641   6.905
 4410POPC   C4A56046  23.487  41.791   7.308
 4410POPC   C1B56047  23.973  41.592   6.196
 4410POPC   C2B56048  24.014  41.824   6.577
 4410POPC   C3B56049  23.869  41.696   6.970
 4410POPC   C4B56050  23.906  41.502   7.403
 4411POPC   NC356051  31.725   2.277   5.449
 4411POPC   PO456052  31.260   1.730   5.589
 4411POPC   GL156053  31.425   2.013   5.848
 4411POPC   GL256054  31.284   2.353   5.857
 4411POPC   C1A56055  31.455   1.939   6.275
 4411POPC   D2A56056  31.347   2.208   6.582
 4411POPC   C3A56057  31.155   2.014   6.918
 4411POPC   C4A56058  31.246   1.794   7.275
 4411POPC   C1B56059  31.623   2.403   6.181
 4411POPC   C2B56060  31.845   2.178   6.564
 4411POPC   C3B56061  31.664   2.160   6.988
 4411POPC   C4B56062  31.480   2.247   7.391
 4412POPC   NC356063  12.765  34.008   5.534
 4412POPC   PO456064  12.905  33.393   5.577
 4412POPC   GL156065  12.846  33.628   5.909
 4412POPC   GL256066  12.508  33.744   5.880
 4412POPC   C1A56067  12.891  33.683   6.350
 4412POPC   D2A56068  12.698  33.853   6.708
 4412POPC   C3A56069  13.045  33.941   6.958
 4412POPC   C4A56070  13.360  33.910   7.241
 4412POPC   C1B56071  12.421  33.494   6.229
 4412POPC   C2B56072  12.246  33.575   6.610
 4412POPC   C3B56073  12.417  33.586   7.032
 4412POPC   C4B56074  12.503  33.977   7.213
 4413POPC   NC356075  29.039  22.289   5.075
 4413POPC   PO456076  29.602  22.534   5.404
 4413POPC   GL156077  29.248  22.427   5.730
 4413POPC   GL256078  28.910  22.234   5.810
 4413POPC   C1A56079  29.143  22.528   6.164
 4413POPC   D2A56080  29.430  22.475   6.496
 4413POPC   C3A56081  29.282  22.270   6.834
 4413POPC   C4A56082  29.530  22.258   7.183
 4413POPC   C1B56083  29.148  21.989   6.165
 4413POPC   C2B56084  29.107  21.769   6.581
 4413POPC   C3B56085  28.897  21.944   6.913
 4413POPC   C4B56086  29.054  22.120   7.287
 4414POPC   NC356087   6.329  43.446   5.383
 4414POPC   PO456088   6.491  42.796   5.424
 4414POPC   GL156089   6.497  43.083   5.773
 4414POPC   GL256090   6.838  43.138   5.905
 4414POPC   C1A56091   6.452  42.953   6.223
 4414POPC   D2A56092   6.377  42.916   6.659
 4414POPC   C3A56093   6.739  42.935   6.932
 4414POPC   C4A56094   6.506  43.098   7.257
 4414POPC   C1B56095   6.803  43.352   6.296
 4414POPC   C2B56096   6.817  43.393   6.724
 4414POPC   C3B56097   6.829  43.460   7.147
 4414POPC   C4B56098   6.769  43.363   7.598
 4415POPC   NC356099  25.462  29.492   5.423
 4415POPC   PO456100  24.923  29.083   5.486
 4415POPC   GL156101  25.126  28.961   5.882
 4415POPC   GL256102  25.413  29.126   5.794
 4415POPC   C1A56103  25.349  29.045   6.314
 4415POPC   D2A56104  25.491  29.008   6.771
 4415POPC   C3A56105  25.282  29.112   7.180
 4415POPC   C4A56106  25.408  28.955   7.628
 4415POPC   C1B56107  25.658  29.384   6.069
 4415POPC   C2B56108  25.766  29.327   6.470
 4415POPC   C3B56109  25.760  29.442   6.896
 4415POPC   C4B56110  25.545  29.597   7.252
 4416POPC   NC356111  25.862  27.791   5.532
 4416POPC   PO456112  25.228  27.601   5.274
 4416POPC   GL156113  25.325  27.583   5.722
 4416POPC   GL256114  25.373  27.905   5.842
 4416POPC   C1A56115  25.140  27.595   6.165
 4416POPC   D2A56116  25.128  27.393   6.543
 4416POPC   C3A56117  25.042  27.703   6.837
 4416POPC   C4A56118  25.158  27.581   7.209
 4416POPC   C1B56119  25.491  28.041   6.251
 4416POPC   C2B56120  25.325  28.118   6.660
 4416POPC   C3B56121  25.367  28.096   7.102
 4416POPC   C4B56122  25.290  27.986   7.530
 4417POPC   NC356123  34.656  27.472   5.370
 4417POPC   PO456124  34.350  28.115   5.519
 4417POPC   GL156125  34.401  27.724   5.772
 4417POPC   GL256126  34.756  27.710   5.855
 4417POPC   C1A56127  34.426  27.526   6.201
 4417POPC   D2A56128  34.682  27.660   6.566
 4417POPC   C3A56129  34.606  27.546   6.997
 4417POPC   C4A56130  34.709  27.686   7.443
 4417POPC   C1B56131  34.937  27.404   6.177
 4417POPC   C2B56132  35.125  27.386   6.586
 4417POPC   C3B56133  34.940  27.144   6.903
 4417POPC   C4B56134  34.680  27.159   7.295
 4418POPC   NC356135   2.433  10.630   5.436
 4418POPC   PO456136   3.132  10.580   5.407
 4418POPC   GL156137   2.846  10.447   5.743
 4418POPC   GL256138   2.756  10.786   5.816
 4418POPC   C1A56139   2.619  10.386   6.153
 4418POPC   D2A56140   2.733  10.547   6.559
 4418POPC   C3A56141   2.614  10.380   6.930
 4418POPC   C4A56142   2.723  10.285   7.322
 4418POPC   C1B56143   2.452  10.870   6.121
 4418POPC   C2B56144   2.458  10.995   6.557
 4418POPC   C3B56145   2.437  10.855   6.978
 4418POPC   C4B56146   2.593  10.762   7.379
 4419POPC   NC356147  21.510  16.896   5.565
 4419POPC   PO456148  21.321  16.292   5.541
 4419POPC   GL156149  21.277  16.546   5.898
 4419POPC   GL256150  21.072  16.833   5.817
 4419POPC   C1A56151  21.509  16.545   6.291
 4419POPC   D2A56152  21.343  16.544   6.686
 4419POPC   C3A56153  21.626  16.469   7.016
 4419POPC   C4A56154  21.586  16.336   7.441
 4419POPC   C1B56155  21.039  17.059   6.182
 4419POPC   C2B56156  21.193  17.109   6.600
 4419POPC   C3B56157  21.229  16.937   6.989
 4419POPC   C4B56158  21.365  16.773   7.330
 4420POPC   NC356159  18.143  26.423   5.638
 4420POPC   PO456160  18.306  26.924   5.181
 4420POPC   GL156161  18.439  26.912   5.622
 4420POPC   GL256162  18.123  26.924   5.796
 4420POPC   C1A56163  18.551  26.983   6.078
 4420POPC   D2A56164  18.584  26.637   6.373
 4420POPC   C3A56165  18.468  26.776   6.767
 4420POPC   C4A56166  18.327  26.877   7.145
 4420POPC   C1B56167  18.086  26.709   6.202
 4420POPC   C2B56168  18.092  26.515   6.568
 4420POPC   C3B56169  18.081  26.479   6.987
 4420POPC   C4B56170  17.843  26.714   7.320
 4421POPC   NC356171   8.793   9.223   5.558
 4421POPC   PO456172   8.903   8.598   5.652
 4421POPC   GL156173   9.016   8.912   5.923
 4421POPC   GL256174   9.120   9.253   5.995
 4421POPC   C1A56175   9.011   8.851   6.331
 4421POPC   D2A56176   8.865   8.730   6.702
 4421POPC   C3A56177   9.130   8.934   6.977
 4421POPC   C4A56178   9.249   8.647   7.252
 4421POPC   C1B56179   8.780   9.288   6.249
 4421POPC   C2B56180   8.748   9.216   6.687
 4421POPC   C3B56181   8.755   9.257   7.112
 4421POPC   C4B56182   9.072   9.189   7.427
 4422POPC   NC356183   5.585   0.119   5.392
 4422POPC   PO456184   5.773   0.718   5.203
 4422POPC   GL156185   5.609   0.535   5.674
 4422POPC   GL256186   5.872   0.359   5.760
 4422POPC   C1A56187   5.569   0.572   6.177
 4422POPC   D2A56188   5.303   0.527   6.593
 4422POPC   C3A56189   5.469   0.289   6.954
 4422POPC   C4A56190   5.650   0.596   7.280
 4422POPC   C1B56191   5.791   0.101   6.122
 4422POPC   C2B56192   5.759   0.200   6.538
 4422POPC   C3B56193   5.944   0.407   6.884
 4422POPC   C4B56194   6.032   0.284   7.279
 4423POPC   NC356195  29.397  33.831   5.491
 4423POPC   PO456196  29.960  33.454   5.468
 4423POPC   GL156197  29.874  33.708   5.805
 4423POPC   GL256198  29.549  33.553   5.900
 4423POPC   C1A56199  30.103  33.746   6.218
 4423POPC   D2A56200  30.154  33.531   6.632
 4423POPC   C3A56201  30.230  33.824   6.954
 4423POPC   C4A56202  30.119  33.957   7.353
 4423POPC   C1B56203  29.611  33.939   6.189
 4423POPC   C2B56204  29.806  33.949   6.619
 4423POPC   C3B56205  29.715  33.839   7.046
 4423POPC   C4B56206  29.402  33.795   7.351
 4424POPC   NC356207  33.116  30.161   5.374
 4424POPC   PO456208  33.033  29.457   5.320
 4424POPC   GL156209  32.871  29.638   5.741
 4424POPC   GL256210  32.785  30.024   5.795
 4424POPC   C1A56211  32.950  29.699   6.194
 4424POPC   D2A56212  33.063  29.944   6.590
 4424POPC   C3A56213  32.877  29.784   7.000
 4424POPC   C4A56214  32.920  29.831   7.468
 4424POPC   C1B56215  32.718  30.183   6.263
 4424POPC   C2B56216  32.637  30.176   6.757
 4424POPC   C3B56217  32.849  30.269   7.193
 4424POPC   C4B56218  32.650  30.281   7.615
 4425POPC   NC356219  21.381  36.222   5.354
 4425POPC   PO456220  21.608  35.620   5.486
 4425POPC   GL156221  21.536  35.917   5.785
 4425POPC   GL256222  21.200  35.966   5.791
 4425POPC   C1A56223  21.542  36.057   6.205
 4425POPC   D2A56224  21.283  36.012   6.557
 4425POPC   C3A56225  21.457  36.006   6.945
 4425POPC   C4A56226  21.328  35.733   7.220
 4425POPC   C1B56227  21.064  36.252   6.138
 4425POPC   C2B56228  20.893  36.331   6.592
 4425POPC   C3B56229  20.972  36.195   7.039
 4425POPC   C4B56230  20.920  36.398   7.430
 4426POPC   NC356231   1.670   9.114   5.438
 4426POPC   PO456232   1.025   9.110   5.356
 4426POPC   GL156233   1.244   9.205   5.717
 4426POPC   GL256234   1.494   8.985   5.890
 4426POPC   C1A56235   1.307   9.408   6.104
 4426POPC   D2A56236   1.158   9.381   6.509
 4426POPC   C3A56237   1.402   9.328   6.863
 4426POPC   C4A56238   1.455   9.464   7.267
 4426POPC   C1B56239   1.158   8.898   6.150
 4426POPC   C2B56240   1.064   8.880   6.581
 4426POPC   C3B56241   1.009   8.982   6.994
 4426POPC   C4B56242   1.407   8.931   7.210
 4427POPC   NC356243  11.787  22.083   5.442
 4427POPC   PO456244  12.468  22.084   5.550
 4427POPC   GL156245  12.088  22.203   5.846
 4427POPC   GL256246  11.712  22.366   5.851
 4427POPC   C1A56247  12.043  22.048   6.272
 4427POPC   D2A56248  12.186  22.320   6.604
 4427POPC   C3A56249  12.071  22.036   6.889
 4427POPC   C4A56250  12.129  22.035   7.272
 4427POPC   C1B56251  11.825  22.491   6.252
 4427POPC   C2B56252  11.676  22.306   6.651
 4427POPC   C3B56253  11.703  22.315   7.107
 4427POPC   C4B56254  11.851  22.355   7.539
 4428POPC   NC356255  43.929  10.222   5.547
 4428POPC   PO456256  43.844  10.846   5.193
 4428POPC   GL156257  43.854  10.751   5.636
 4428POPC   GL256258  43.537  10.849   5.800
 4428POPC   C1A56259  43.938  10.765   6.109
 4428POPC   D2A56260  43.805  10.613   6.493
 4428POPC   C3A56261  43.984  10.558   6.864
 4428POPC   C4A56262  43.857  10.622   7.258
 4428POPC   C1B56263  43.480  10.487   6.117
 4428POPC   C2B56264  43.508  10.207   6.509
 4428POPC   C3B56265  43.554  10.257   6.947
 4428POPC   C4B56266  43.440  10.308   7.376
 4429POPC   NC356267  24.730   1.199   5.180
 4429POPC   PO456268  24.137   1.312   5.421
 4429POPC   GL156269  24.416   1.168   5.730
 4429POPC   GL256270  24.782   1.264   5.681
 4429POPC   C1A56271  24.406   1.077   6.170
 4429POPC   D2A56272  24.317   1.257   6.558
 4429POPC   C3A56273  24.295   0.978   6.840
 4429POPC   C4A56274  24.236   1.202   7.185
 4429POPC   C1B56275  24.851   1.322   6.104
 4429POPC   C2B56276  24.841   1.199   6.525
 4429POPC   C3B56277  24.732   1.304   6.937
 4429POPC   C4B56278  24.733   1.011   7.234
 4430POPC   NC356279   8.162  29.302   5.339
 4430POPC   PO456280   7.784  29.367   5.857
 4430POPC   GL156281   8.018  28.974   5.906
 4430POPC   GL256282   8.356  29.017   5.748
 4430POPC   C1A56283   8.096  28.826   6.338
 4430POPC   D2A56284   8.069  29.117   6.684
 4430POPC   C3A56285   8.228  28.948   7.039
 4430POPC   C4A56286   8.139  28.893   7.452
 4430POPC   C1B56287   8.468  29.147   6.170
 4430POPC   C2B56288   8.570  28.987   6.564
 4430POPC   C3B56289   8.703  29.095   6.963
 4430POPC   C4B56290   8.590  29.143   7.411
 4431POPC   NC356291  38.588  14.546   5.481
 4431POPC   PO456292  37.997  14.169   5.398
 4431POPC   GL156293  38.220  14.250   5.768
 4431POPC   GL256294  38.179  14.583   5.813
 4431POPC   C1A56295  38.379  14.172   6.199
 4431POPC   D2A56296  38.431  14.384   6.614
 4431POPC   C3A56297  38.348  14.132   6.947
 4431POPC   C4A56298  38.514  14.049   7.360
 4431POPC   C1B56299  38.323  14.683   6.212
 4431POPC   C2B56300  38.264  14.888   6.591
 4431POPC   C3B56301  38.317  14.733   6.982
 4431POPC   C4B56302  38.187  14.485   7.282
 4432POPC   NC356303  15.175   2.487   5.506
 4432POPC   PO456304  15.617   2.996   5.545
 4432POPC   GL156305  15.296   2.980   5.914
 4432POPC   GL256306  15.086   2.640   5.970
 4432POPC   C1A56307  15.034   3.015   6.273
 4432POPC   D2A56308  15.070   2.686   6.542
 4432POPC   C3A56309  15.239   2.954   6.823
 4432POPC   C4A56310  15.241   2.992   7.243
 4432POPC   C1B56311  15.280   2.333   6.193
 4432POPC   C2B56312  15.461   2.333   6.581
 4432POPC   C3B56313  15.274   2.487   6.987
 4432POPC   C4B56314  15.275   2.545   7.451
 4433POPC   NC356315  33.153  44.276   5.114
 4433POPC   PO456316  32.781  44.728   5.458
 4433POPC   GL156317  32.978  44.642   5.829
 4433POPC   GL256318  33.261  44.839   5.730
 4433POPC   C1A56319  33.004  44.700   6.271
 4433POPC   D2A56320  33.068  44.508   6.692
 4433POPC   C3A56321  32.949  44.605   7.136
 4433POPC   C4A56322  33.160  44.447   7.538
 4433POPC   C1B56323  33.426   0.040   6.114
 4433POPC   C2B56324  33.429  44.872   6.537
 4433POPC   C3B56325  33.229  44.994   6.911
 4433POPC   C4B56326  33.570   0.072   7.172
 4434POPC   NC356327  39.434  14.715   5.111
 4434POPC   PO456328  38.995  14.197   5.389
 4434POPC   GL156329  39.039  14.398   5.780
 4434POPC   GL256330  38.751  14.312   5.904
 4434POPC   C1A56331  39.311  14.510   6.138
 4434POPC   D2A56332  39.533  14.696   6.489
 4434POPC   C3A56333  39.376  14.598   6.888
 4434POPC   C4A56334  39.464  14.830   7.291
 4434POPC   C1B56335  38.823  14.446   6.292
 4434POPC   C2B56336  38.940  14.295   6.681
 4434POPC   C3B56337  38.786  14.371   7.056
 4434POPC   C4B56338  38.989  14.690   7.220
 4435POPC   NC356339  23.690  27.320   5.376
 4435POPC   PO456340  23.650  27.969   5.575
 4435POPC   GL156341  23.652  27.570   5.827
 4435POPC   GL256342  23.993  27.403   5.766
 4435POPC   C1A56343  23.571  27.526   6.277
 4435POPC   D2A56344  23.624  27.818   6.605
 4435POPC   C3A56345  23.650  27.640   7.024
 4435POPC   C4A56346  23.524  27.721   7.464
 4435POPC   C1B56347  24.047  27.659   6.154
 4435POPC   C2B56348  24.035  27.511   6.594
 4435POPC   C3B56349  24.209  27.421   6.990
 4435POPC   C4B56350  24.236  27.682   7.344
 4436POPC   NC356351  44.858   5.345   5.593
 4436POPC   PO456352  44.704   4.694   5.387
 4436POPC   GL156353  44.665   4.829   5.808
 4436POPC   GL256354  44.474   5.131   5.824
 4436POPC   C1A56355  44.679   4.861   6.262
 4436POPC   D2A56356  44.805   5.166   6.543
 4436POPC   C3A56357  44.684   5.060   6.934
 4436POPC   C4A56358  44.863   5.186   7.337
 4436POPC   C1B56359  44.387   5.281   6.197
 4436POPC   C2B56360  44.257   5.189   6.590
 4436POPC   C3B56361  44.218   5.430   6.956
 4436POPC   C4B56362  44.346   5.269   7.342
 4437POPC   NC356363  10.985  23.549   5.437
 4437POPC   PO456364  11.487  23.872   5.154
 4437POPC   GL156365  11.475  23.726   5.623
 4437POPC   GL256366  11.600  23.403   5.758
 4437POPC   C1A56367  11.252  23.816   6.037
 4437POPC   D2A56368  11.041  23.773   6.462
 4437POPC   C3A56369  11.259  23.684   6.856
 4437POPC   C4A56370  11.145  23.911   7.238
 4437POPC   C1B56371  11.391  23.352   6.181
 4437POPC   C2B56372  11.583  23.314   6.586
 4437POPC   C3B56373  11.473  23.219   7.006
 4437POPC   C4B56374  11.251  23.427   7.314
 4438POPC   NC356375  13.563   7.756   5.457
 4438POPC   PO456376  13.535   7.047   5.455
 4438POPC   GL156377  13.612   7.319   5.775
 4438POPC   GL256378  13.900   7.514   5.793
 4438POPC   C1A56379  13.555   7.508   6.175
 4438POPC   D2A56380  13.263   7.518   6.516
 4438POPC   C3A56381  13.495   7.434   6.879
 4438POPC   C4A56382  13.658   7.692   7.150
 4438POPC   C1B56383  14.013   7.178   6.089
 4438POPC   C2B56384  13.880   7.245   6.517
 4438POPC   C3B56385  13.900   7.117   6.940
 4438POPC   C4B56386  13.849   7.281   7.369
 4439POPC   NC356387  41.796   6.389   5.542
 4439POPC   PO456388  41.277   6.663   5.321
 4439POPC   GL156389  41.419   6.793   5.766
 4439POPC   GL256390  41.496   6.505   5.971
 4439POPC   C1A56391  41.614   6.937   6.224
 4439POPC   D2A56392  41.768   7.089   6.652
 4439POPC   C3A56393  41.692   6.729   6.943
 4439POPC   C4A56394  41.449   6.724   7.327
 4439POPC   C1B56395  41.883   6.465   6.267
 4439POPC   C2B56396  42.087   6.273   6.652
 4439POPC   C3B56397  42.026   6.361   7.096
 4439POPC   C4B56398  41.650   6.248   7.307
 4440POPC   NC356399  21.751  40.722   5.419
 4440POPC   PO456400  21.145  40.509   5.450
 4440POPC   GL156401  21.292  40.693   5.792
 4440POPC   GL256402  21.288  41.008   5.628
 4440POPC   C1A56403  21.545  40.710   6.164
 4440POPC   D2A56404  21.632  40.514   6.574
 4440POPC   C3A56405  21.508  40.671   6.943
 4440POPC   C4A56406  21.613  40.520   7.334
 4440POPC   C1B56407  21.204  41.098   6.089
 4440POPC   C2B56408  21.195  40.900   6.510
 4440POPC   C3B56409  21.240  41.119   6.915
 4440POPC   C4B56410  21.331  40.964   7.331
 4441POPC   NC356411   8.594  42.494   5.482
 4441POPC   PO456412   9.064  42.135   5.520
 4441POPC   GL156413   8.929  42.239   5.921
 4441POPC   GL256414   8.987  42.560   5.857
 4441POPC   C1A56415   9.095  42.424   6.343
 4441POPC   D2A56416   9.182  42.445   6.809
 4441POPC   C3A56417   9.011  42.070   7.025
 4441POPC   C4A56418   9.091  41.704   7.306
 4441POPC   C1B56419   8.649  42.624   6.173
 4441POPC   C2B56420   8.688  42.642   6.636
 4441POPC   C3B56421   8.746  42.550   7.089
 4441POPC   C4B56422   8.474  42.316   7.391
 4442POPC   NC356423  26.074  42.944   5.611
 4442POPC   PO456424  25.682  43.531   5.466
 4442POPC   GL156425  25.902  43.380   5.821
 4442POPC   GL256426  25.752  43.095   5.958
 4442POPC   C1A56427  26.115  43.286   6.228
 4442POPC   D2A56428  25.987  43.431   6.626
 4442POPC   C3A56429  26.228  43.266   6.960
 4442POPC   C4A56430  26.253  42.846   7.145
 4442POPC   C1B56431  25.670  43.059   6.391
 4442POPC   C2B56432  25.933  42.882   6.721
 4442POPC   C3B56433  25.761  42.833   7.092
 4442POPC   C4B56434  25.777  43.241   7.240
 4443POPC   NC356435  33.118  22.602   5.534
 4443POPC   PO456436  33.166  23.193   5.117
 4443POPC   GL156437  33.174  23.145   5.617
 4443POPC   GL256438  32.857  23.091   5.733
 4443POPC   C1A56439  33.239  23.012   6.113
 4443POPC   D2A56440  33.367  22.847   6.556
 4443POPC   C3A56441  33.096  22.754   6.889
 4443POPC   C4A56442  33.068  22.908   7.292
 4443POPC   C1B56443  32.806  23.258   6.166
 4443POPC   C2B56444  32.941  23.150   6.565
 4443POPC   C3B56445  33.165  23.265   6.918
 4443POPC   C4B56446  32.931  23.391   7.257
 4444POPC   NC356447  16.411  39.734   5.613
 4444POPC   PO456448  15.827  39.950   5.311
 4444POPC   GL156449  15.882  39.995   5.763
 4444POPC   GL256450  15.933  39.672   5.838
 4444POPC   C1A56451  15.917  40.195   6.196
 4444POPC   D2A56452  16.223  40.322   6.563
 4444POPC   C3A56453  16.084  40.164   6.965
 4444POPC   C4A56454  15.716  40.340   7.166
 4444POPC   C1B56455  15.594  39.771   6.147
 4444POPC   C2B56456  15.592  39.976   6.557
 4444POPC   C3B56457  15.654  39.861   6.990
 4444POPC   C4B56458  15.661  39.486   7.205
 4445POPC   NC356459  26.300  21.772   5.493
 4445POPC   PO456460  26.081  21.181   5.537
 4445POPC   GL156461  26.194  21.420   5.866
 4445POPC   GL256462  25.893  21.632   5.805
 4445POPC   C1A56463  26.214  21.237   6.288
 4445POPC   D2A56464  25.989  21.160   6.688
 4445POPC   C3A56465  26.308  21.229   6.989
 4445POPC   C4A56466  26.457  21.255   7.406
 4445POPC   C1B56467  25.740  21.417   6.183
 4445POPC   C2B56468  25.674  21.587   6.582
 4445POPC   C3B56469  25.764  21.540   6.992
 4445POPC   C4B56470  25.862  21.185   7.222
 4446POPC   NC356471  29.083  19.557   5.353
 4446POPC   PO456472  28.857  20.163   5.384
 4446POPC   GL156473  29.041  19.924   5.750
 4446POPC   GL256474  29.400  19.991   5.827
 4446POPC   C1A56475  29.011  20.037   6.201
 4446POPC   D2A56476  28.724  19.976   6.545
 4446POPC   C3A56477  28.853  19.909   6.948
 4446POPC   C4A56478  29.164  20.162   7.040
 4446POPC   C1B56479  29.421  19.737   6.232
 4446POPC   C2B56480  29.230  19.739   6.623
 4446POPC   C3B56481  29.423  19.704   7.020
 4446POPC   C4B56482  29.377  19.904   7.411
 4447POPC   NC356483  13.207  22.851   5.456
 4447POPC   PO456484  12.549  23.069   5.401
 4447POPC   GL156485  12.594  22.935   5.838
 4447POPC   GL256486  12.920  22.793   5.874
 4447POPC   C1A56487  12.701  23.040   6.283
 4447POPC   D2A56488  12.910  23.194   6.669
 4447POPC   C3A56489  12.696  23.052   7.078
 4447POPC   C4A56490  12.648  22.603   7.221
 4447POPC   C1B56491  13.220  22.879   6.212
 4447POPC   C2B56492  13.296  22.840   6.643
 4447POPC   C3B56493  13.212  22.988   7.060
 4447POPC   C4B56494  13.128  22.702   7.424
 4448POPC   NC356495  16.885  20.784   5.378
 4448POPC   PO456496  16.599  20.266   5.498
 4448POPC   GL156497  16.796  20.436   5.834
 4448POPC   GL256498  17.055  20.714   5.852
 4448POPC   C1A56499  16.728  20.531   6.249
 4448POPC   D2A56500  17.004  20.631   6.570
 4448POPC   C3A56501  16.811  20.670   6.950
 4448POPC   C4A56502  16.888  20.394   7.299
 4448POPC   C1B56503  17.056  20.988   6.207
 4448POPC   C2B56504  16.981  21.147   6.633
 4448POPC   C3B56505  17.118  21.084   7.056
 4448POPC   C4B56506  16.906  20.879   7.407
 4449POPC   NC356507  34.767  36.527   5.647
 4449POPC   PO456508  34.411  35.944   5.380
 4449POPC   GL156509  34.613  35.987   5.795
 4449POPC   GL256510  34.398  36.238   5.875
 4449POPC   C1A56511  34.833  36.051   6.203
 4449POPC   D2A56512  34.952  35.901   6.632
 4449POPC   C3A56513  34.683  36.006   6.970
 4449POPC   C4A56514  34.764  36.260   7.344
 4449POPC   C1B56515  34.312  36.080   6.288
 4449POPC   C2B56516  34.352  36.301   6.684
 4449POPC   C3B56517  34.308  36.339   7.118
 4449POPC   C4B56518  34.316  35.955   7.343
 4450POPC   NC356519   2.269   9.028   5.328
 4450POPC   PO456520   1.642   8.670   5.524
 4450POPC   GL156521   1.982   8.810   5.743
 4450POPC   GL256522   2.065   9.170   5.764
 4450POPC   C1A56523   1.910   8.921   6.168
 4450POPC   D2A56524   1.607   9.057   6.469
 4450POPC   C3A56525   1.796   8.973   6.884
 4450POPC   C4A56526   1.972   8.969   7.308
 4450POPC   C1B56527   2.307   9.267   6.129
 4450POPC   C2B56528   2.174   9.138   6.532
 4450POPC   C3B56529   2.219   9.261   6.929
 4450POPC   C4B56530   2.463   9.186   7.264
 4451POPC   NC356531   6.105  13.820   5.602
 4451POPC   PO456532   5.881  14.406   5.368
 4451POPC   GL156533   5.752  14.499   5.797
 4451POPC   GL256534   5.683  14.141   5.925
 4451POPC   C1A56535   5.880  14.506   6.243
 4451POPC   D2A56536   6.155  14.300   6.531
 4451POPC   C3A56537   6.179  14.481   6.930
 4451POPC   C4A56538   5.913  14.465   7.278
 4451POPC   C1B56539   5.587  14.081   6.382
 4451POPC   C2B56540   5.637  14.251   6.812
 4451POPC   C3B56541   5.514  14.108   7.230
 4451POPC   C4B56542   5.408  13.927   7.648
 4452POPC   NC356543  25.801  18.535   5.377
 4452POPC   PO456544  26.031  17.983   5.235
 4452POPC   GL156545  25.893  18.124   5.696
 4452POPC   GL256546  26.032  18.440   5.854
 4452POPC   C1A56547  25.827  18.146   6.181
 4452POPC   D2A56548  25.982  18.496   6.458
 4452POPC   C3A56549  25.794  18.469   6.878
 4452POPC   C4A56550  25.832  18.259   7.266
 4452POPC   C1B56551  26.320  18.758   6.126
 4452POPC   C2B56552  26.445  18.810   6.557
 4452POPC   C3B56553  26.320  18.537   6.889
 4452POPC   C4B56554  26.435  18.500   7.297
 4453POPC   NC356555  44.032   6.264   5.327
 4453POPC   PO456556  43.716   6.840   5.536
 4453POPC   GL156557  43.824   6.679   5.873
 4453POPC   GL256558  43.907   6.376   5.809
 4453POPC   C1A56559  43.778   6.841   6.276
 4453POPC   D2A56560  43.754   6.569   6.604
 4453POPC   C3A56561  44.101   6.507   6.857
 4453POPC   C4A56562  44.181   6.853   7.152
 4453POPC   C1B56563  43.896   6.219   6.217
 4453POPC   C2B56564  43.682   6.050   6.550
 4453POPC   C3B56565  43.634   6.225   6.937
 4453POPC   C4B56566  43.803   6.480   7.281
 4454POPC   NC356567  42.961  10.133   5.449
 4454POPC   PO456568  43.293   9.566   5.629
 4454POPC   GL156569  43.124   9.711   5.981
 4454POPC   GL256570  42.998  10.024   5.944
 4454POPC   C1A56571  43.198   9.825   6.403
 4454POPC   D2A56572  43.457   9.744   6.758
 4454POPC   C3A56573  43.127   9.483   6.959
 4454POPC   C4A56574  42.826   9.639   7.257
 4454POPC   C1B56575  42.712   9.955   6.305
 4454POPC   C2B56576  42.773   9.792   6.722
 4454POPC   C3B56577  43.078  10.001   6.994
 4454POPC   C4B56578  43.014  10.399   7.096
 4455POPC   NC356579  44.501  13.963   5.497
 4455POPC   PO456580   0.090  13.493   5.425
 4455POPC   GL156581  44.884  13.576   5.812
 4455POPC   GL256582  44.520  13.550   5.791
 4455POPC   C1A56583  44.765  13.572   6.262
 4455POPC   D2A56584  44.474  13.555   6.617
 4455POPC   C3A56585  44.662  13.299   6.968
 4455POPC   C4A56586  44.979  13.551   7.181
 4455POPC   C1B56587  44.361  13.868   6.121
 4455POPC   C2B56588  44.326  14.058   6.538
 4455POPC   C3B56589  44.543  14.031   6.914
 4455POPC   C4B56590  44.414  13.717   7.152
 4456POPC   NC356591   1.595  31.550   5.604
 4456POPC   PO456592   2.123  31.189   5.320
 4456POPC   GL156593   2.049  31.280   5.779
 4456POPC   GL256594   1.722  31.176   5.917
 4456POPC   C1A56595   2.134  31.183   6.232
 4456POPC   D2A56596   1.867  31.224   6.599
 4456POPC   C3A56597   2.125  31.208   6.956
 4456POPC   C4A56598   2.096  31.459   7.272
 4456POPC   C1B56599   1.763  31.548   6.210
 4456POPC   C2B56600   1.748  31.827   6.538
 4456POPC   C3B56601   1.892  31.798   6.933
 4456POPC   C4B56602   1.659  31.774   7.301
 4457POPC   NC356603   9.909   6.167   5.356
 4457POPC   PO456604   9.521   5.653   5.391
 4457POPC   GL156605   9.708   5.805   5.801
 4457POPC   GL256606   9.812   6.188   5.849
 4457POPC   C1A56607   9.902   5.600   6.174
 4457POPC   D2A56608   9.997   5.386   6.575
 4457POPC   C3A56609  10.025   5.496   6.983
 4457POPC   C4A56610   9.929   5.705   7.377
 4457POPC   C1B56611   9.731   6.077   6.266
 4457POPC   C2B56612   9.797   5.856   6.642
 4457POPC   C3B56613   9.582   5.749   6.995
 4457POPC   C4B56614   9.503   5.976   7.397
 4458POPC   NC356615  31.431  42.826   5.442
 4458POPC   PO456616  31.372  43.488   5.373
 4458POPC   GL156617  31.579  43.237   5.754
 4458POPC   GL256618  31.775  42.896   5.795
 4458POPC   C1A56619  31.424  43.036   6.152
 4458POPC   D2A56620  31.273  43.206   6.571
 4458POPC   C3A56621  31.575  43.250   6.934
 4458POPC   C4A56622  31.373  43.203   7.329
 4458POPC   C1B56623  31.921  42.819   6.193
 4458POPC   C2B56624  31.669  42.872   6.582
 4458POPC   C3B56625  31.367  42.794   6.914
 4458POPC   C4B56626  31.517  42.713   7.304
 4459POPC   NC356627  41.219  25.396   5.755
 4459POPC   PO456628  41.715  25.353   5.269
 4459POPC   GL156629  41.734  25.412   5.742
 4459POPC   GL256630  41.672  25.071   5.850
 4459POPC   C1A56631  41.673  25.447   6.242
 4459POPC   D2A56632  41.653  25.648   6.686
 4459POPC   C3A56633  41.680  25.398   7.087
 4459POPC   C4A56634  41.698  25.517   7.569
 4459POPC   C1B56635  41.391  24.988   6.221
 4459POPC   C2B56636  41.363  25.168   6.617
 4459POPC   C3B56637  41.087  25.110   6.939
 4459POPC   C4B56638  41.276  25.217   7.335
 4460POPC   NC356639  15.269  20.366   5.385
 4460POPC   PO456640  15.634  20.904   5.548
 4460POPC   GL156641  15.331  20.689   5.838
 4460POPC   GL256642  15.109  20.365   5.869
 4460POPC   C1A56643  15.114  20.795   6.214
 4460POPC   D2A56644  15.282  20.932   6.593
 4460POPC   C3A56645  15.057  20.783   6.889
 4460POPC   C4A56646  15.258  20.568   7.142
 4460POPC   C1B56647  15.298  20.324   6.262
 4460POPC   C2B56648  15.116  20.321   6.652
 4460POPC   C3B56649  14.843  20.287   6.970
 4460POPC   C4B56650  14.981  20.192   7.306
 4461POPC   NC356651  22.843  14.987   5.312
 4461POPC   PO456652  23.390  15.311   5.420
 4461POPC   GL156653  23.217  15.305   5.811
 4461POPC   GL256654  22.887  15.271   5.732
 4461POPC   C1A56655  23.237  15.303   6.261
 4461POPC   D2A56656  22.990  15.409   6.629
 4461POPC   C3A56657  23.110  15.220   7.011
 4461POPC   C4A56658  23.334  15.492   7.242
 4461POPC   C1B56659  22.723  15.268   6.149
 4461POPC   C2B56660  22.643  15.050   6.514
 4461POPC   C3B56661  22.614  15.155   6.922
 4461POPC   C4B56662  22.459  15.269   7.287
 4462POPC   NC356663   4.694   7.085   5.469
 4462POPC   PO456664   4.308   7.502   5.094
 4462POPC   GL156665   4.136   7.510   5.563
 4462POPC   GL256666   4.159   7.840   5.752
 4462POPC   C1A56667   4.177   7.381   6.025
 4462POPC   D2A56668   4.481   7.393   6.364
 4462POPC   C3A56669   4.422   7.387   6.813
 4462POPC   C4A56670   4.187   7.239   7.177
 4462POPC   C1B56671   3.977   7.820   6.211
 4462POPC   C2B56672   4.002   7.714   6.679
 4462POPC   C3B56673   3.941   7.849   7.121
 4462POPC   C4B56674   3.989   7.789   7.595
 4463POPC   NC356675  37.606  29.623   5.244
 4463POPC   PO456676  37.683  29.002   5.561
 4463POPC   GL156677  37.581  29.019   5.979
 4463POPC   GL256678  37.928  29.130   6.024
 4463POPC   C1A56679  37.408  29.288   6.309
 4463POPC   D2A56680  37.459  29.582   6.653
 4463POPC   C3A56681  37.532  29.298   7.000
 4463POPC   C4A56682  37.251  29.018   7.228
 4463POPC   C1B56683  37.939  28.738   6.246
 4463POPC   C2B56684  37.682  28.736   6.625
 4463POPC   C3B56685  37.721  28.803   7.077
 4463POPC   C4B56686  37.942  28.608   7.437
 4464POPC   NC356687  13.592  38.011   5.217
 4464POPC   PO456688  13.901  37.498   5.419
 4464POPC   GL156689  13.619  37.679   5.745
 4464POPC   GL256690  13.624  37.367   5.861
 4464POPC   C1A56691  13.373  37.616   6.202
 4464POPC   D2A56692  13.078  37.480   6.561
 4464POPC   C3A56693  13.335  37.403   6.960
 4464POPC   C4A56694  13.382  37.539   7.412
 4464POPC   C1B56695  13.893  37.615   6.172
 4464POPC   C2B56696  13.831  37.469   6.584
 4464POPC   C3B56697  13.929  37.601   6.973
 4464POPC   C4B56698  13.720  37.863   7.213
 4465POPC   NC356699  35.613  36.913   5.355
 4465POPC   PO456700  34.995  36.889   5.210
 4465POPC   GL156701  35.244  36.759   5.674
 4465POPC   GL256702  35.336  37.107   5.766
 4465POPC   C1A56703  35.240  36.627   6.175
 4465POPC   D2A56704  35.427  36.702   6.633
 4465POPC   C3A56705  35.305  36.831   7.086
 4465POPC   C4A56706  35.159  37.174   7.376
 4465POPC   C1B56707  35.525  37.060   6.163
 4465POPC   C2B56708  35.720  37.102   6.542
 4465POPC   C3B56709  35.642  37.233   6.951
 4465POPC   C4B56710  35.789  37.055   7.306
 4466POPC   NC356711  21.509  34.284   5.363
 4466POPC   PO456712  20.915  34.320   5.567
 4466POPC   GL156713  21.264  34.532   5.800
 4466POPC   GL256714  21.499  34.834   5.837
 4466POPC   C1A56715  21.418  34.480   6.224
 4466POPC   D2A56716  21.210  34.308   6.601
 4466POPC   C3A56717  21.380  34.413   7.021
 4466POPC   C4A56718  21.547  34.182   7.353
 4466POPC   C1B56719  21.149  34.935   6.139
 4466POPC   C2B56720  21.006  34.779   6.529
 4466POPC   C3B56721  21.212  34.879   6.906
 4466POPC   C4B56722  21.401  34.856   7.296
 4467POPC   NC356723   8.739  21.491   5.336
 4467POPC   PO456724   9.148  20.936   5.258
 4467POPC   GL156725   8.981  21.168   5.633
 4467POPC   GL256726   9.154  21.508   5.659
 4467POPC   C1A56727   8.824  21.397   6.023
 4467POPC   D2A56728   8.814  21.599   6.448
 4467POPC   C3A56729   8.988  21.331   6.806
 4467POPC   C4A56730   8.781  21.135   7.166
 4467POPC   C1B56731   9.291  21.637   6.078
 4467POPC   C2B56732   9.306  21.706   6.548
 4467POPC   C3B56733   9.020  21.809   6.903
 4467POPC   C4B56734   9.020  21.584   7.262
 4468POPC   NC356735  12.560  39.449   5.231
 4468POPC   PO456736  13.246  39.257   5.375
 4468POPC   GL156737  12.878  39.150   5.617
 4468POPC   GL256738  12.794  39.480   5.705
 4468POPC   C1A56739  12.872  39.059   6.079
 4468POPC   D2A56740  13.075  39.301   6.425
 4468POPC   C3A56741  12.956  39.194   6.838
 4468POPC   C4A56742  12.738  39.008   7.204
 4468POPC   C1B56743  12.683  39.546   6.139
 4468POPC   C2B56744  12.542  39.311   6.501
 4468POPC   C3B56745  12.511  39.417   6.939
 4468POPC   C4B56746  12.875  39.586   7.171
 4469POPC   NC356747  44.261   1.288   5.169
 4469POPC   PO456748  44.870   1.021   5.337
 4469POPC   GL156749  44.881   1.181   5.770
 4469POPC   GL256750  44.520   1.191   5.782
 4469POPC   C1A56751  44.821   1.442   6.177
 4469POPC   D2A56752  44.666   1.361   6.597
 4469POPC   C3A56753  44.780   1.501   6.986
 4469POPC   C4A56754  44.750   1.228   7.311
 4469POPC   C1B56755  44.385   1.152   6.212
 4469POPC   C2B56756  44.263   1.048   6.646
 4469POPC   C3B56757  44.257   1.161   7.071
 4469POPC   C4B56758  44.354   0.875   7.419
 4470POPC   NC356759   1.152  24.990   5.311
 4470POPC   PO456760   1.473  25.604   5.465
 4470POPC   GL156761   1.430  25.300   5.752
 4470POPC   GL256762   1.115  25.219   5.788
 4470POPC   C1A56763   1.472  25.130   6.141
 4470POPC   D2A56764   1.325  25.229   6.519
 4470POPC   C3A56765   1.459  25.456   6.880
 4470POPC   C4A56766   1.428  25.425   7.318
 4470POPC   C1B56767   0.985  24.962   6.193
 4470POPC   C2B56768   0.993  24.809   6.602
 4470POPC   C3B56769   1.170  24.997   6.942
 4470POPC   C4B56770   0.972  25.192   7.238
 4471POPC   NC356771  38.708  32.637   5.302
 4471POPC   PO456772  38.308  32.147   5.404
 4471POPC   GL156773  38.571  32.291   5.739
 4471POPC   GL256774  38.635  31.983   5.869
 4471POPC   C1A56775  38.397  32.326   6.187
 4471POPC   D2A56776  38.320  32.145   6.605
 4471POPC   C3A56777  38.308  32.384   6.983
 4471POPC   C4A56778  38.355  32.095   7.274
 4471POPC   C1B56779  38.861  32.127   6.218
 4471POPC   C2B56780  38.814  32.037   6.624
 4471POPC   C3B56781  38.796  32.197   7.021
 4471POPC   C4B56782  38.714  32.416   7.406
 4472POPC   NC356783  22.649  39.277   5.304
 4472POPC   PO456784  23.022  39.677   5.695
 4472POPC   GL156785  22.896  39.280   5.923
 4472POPC   GL256786  23.057  39.423   6.213
 4472POPC   C1A56787  22.728  39.008   6.270
 4472POPC   D2A56788  22.794  38.952   6.730
 4472POPC   C3A56789  23.002  39.246   7.066
 4472POPC   C4A56790  23.386  39.263   7.347
 4472POPC   C1B56791  22.640  39.496   6.368
 4472POPC   C2B56792  22.587  39.427   6.774
 4472POPC   C3B56793  22.747  39.673   7.086
 4472POPC   C4B56794  23.181  39.736   7.191
 4473POPC   NC356795  34.471  17.884   5.663
 4473POPC   PO456796  34.767  18.398   5.384
 4473POPC   GL156797  34.840  18.309   5.844
 4473POPC   GL256798  34.541  18.434   5.901
 4473POPC   C1A56799  34.740  18.078   6.266
 4473POPC   D2A56800  34.561  18.159   6.691
 4473POPC   C3A56801  34.742  18.051   7.119
 4473POPC   C4A56802  34.414  18.019   7.460
 4473POPC   C1B56803  34.508  18.547   6.323
 4473POPC   C2B56804  34.463  18.670   6.740
 4473POPC   C3B56805  34.736  18.560   7.070
 4473POPC   C4B56806  34.728  18.408   7.484
 4474POPC   NC356807  32.049  18.588   5.206
 4474POPC   PO456808  31.828  18.007   5.459
 4474POPC   GL156809  32.055  18.119   5.834
 4474POPC   GL256810  32.389  18.008   5.812
 4474POPC   C1A56811  32.162  18.412   6.187
 4474POPC   D2A56812  32.109  18.608   6.604
 4474POPC   C3A56813  32.171  18.395   7.014
 4474POPC   C4A56814  32.128  18.314   7.445
 4474POPC   C1B56815  32.633  18.220   6.138
 4474POPC   C2B56816  32.592  18.459   6.516
 4474POPC   C3B56817  32.650  18.236   6.888
 4474POPC   C4B56818  32.551  18.083   7.289
 4475POPC   NC356819  16.543   6.365   5.447
 4475POPC   PO456820  16.529   5.669   5.435
 4475POPC   GL156821  16.599   5.904   5.822
 4475POPC   GL256822  16.948   5.901   5.805
 4475POPC   C1A56823  16.574   5.829   6.288
 4475POPC   D2A56824  16.348   6.061   6.626
 4475POPC   C3A56825  16.488   5.894   6.999
 4475POPC   C4A56826  16.726   5.555   7.108
 4475POPC   C1B56827  17.043   6.046   6.229
 4475POPC   C2B56828  16.967   5.886   6.655
 4475POPC   C3B56829  17.006   6.002   7.093
 4475POPC   C4B56830  17.017   6.241   7.470
 4476POPC   NC356831  41.783  44.801   5.140
 4476POPC   PO456832  41.250  44.706   5.339
 4476POPC   GL156833  41.620  44.826   5.651
 4476POPC   GL256834  41.653  44.580   5.932
 4476POPC   C1A56835  41.613   0.028   6.106
 4476POPC   D2A56836  41.516  44.826   6.522
 4476POPC   C3A56837  41.806  44.904   6.864
 4476POPC   C4A56838  42.177  44.771   7.098
 4476POPC   C1B56839  41.936  44.620   6.293
 4476POPC   C2B56840  41.991  44.447   6.692
 4476POPC   C3B56841  41.867  44.341   7.091
 4476POPC   C4B56842  41.704  44.671   7.289
 4477POPC   NC356843  41.105  23.754   5.421
 4477POPC   PO456844  40.513  24.091   5.357
 4477POPC   GL156845  40.741  23.962   5.732
 4477POPC   GL256846  40.936  24.192   5.923
 4477POPC   C1A56847  40.729  23.759   6.157
 4477POPC   D2A56848  41.040  23.518   6.400
 4477POPC   C3A56849  40.942  23.432   6.801
 4477POPC   C4A56850  40.900  23.480   7.214
 4477POPC   C1B56851  40.891  24.220   6.355
 4477POPC   C2B56852  40.879  23.936   6.651
 4477POPC   C3B56853  40.670  23.882   6.996
 4477POPC   C4B56854  40.887  24.060   7.305
 4478POPC   NC356855  13.973  41.236   5.364
 4478POPC   PO456856  14.440  40.603   5.479
 4478POPC   GL156857  14.501  40.824   5.848
 4478POPC   GL256858  14.180  40.963   5.762
 4478POPC   C1A56859  14.590  40.864   6.296
 4478POPC   D2A56860  14.765  40.830   6.728
 4478POPC   C3A56861  14.464  40.708   7.075
 4478POPC   C4A56862  14.472  40.641   7.523
 4478POPC   C1B56863  13.913  41.044   6.126
 4478POPC   C2B56864  14.035  41.130   6.558
 4478POPC   C3B56865  13.912  41.102   7.001
 4478POPC   C4B56866  14.032  40.832   7.344
 4479POPC   NC356867   0.941   2.953   5.377
 4479POPC   PO456868   1.578   2.931   5.409
 4479POPC   GL156869   1.284   2.979   5.772
 4479POPC   GL256870   1.083   2.658   5.786
 4479POPC   C1A56871   1.444   2.839   6.164
 4479POPC   D2A56872   1.540   2.522   6.452
 4479POPC   C3A56873   1.456   2.669   6.866
 4479POPC   C4A56874   1.248   3.011   7.120
 4479POPC   C1B56875   0.951   2.749   6.201
 4479POPC   C2B56876   1.052   2.865   6.605
 4479POPC   C3B56877   0.883   2.684   6.967
 4479POPC   C4B56878   0.752   2.678   7.370
 4480POPC   NC356879  20.345  12.157   5.479
 4480POPC   PO456880  19.778  11.782   5.440
 4480POPC   GL156881  19.718  12.021   5.844
 4480POPC   GL256882  20.011  12.228   5.847
 4480POPC   C1A56883  19.634  11.877   6.280
 4480POPC   D2A56884  19.691  12.082   6.680
 4480POPC   C3A56885  19.535  12.012   7.120
 4480POPC   C4A56886  19.696  12.195   7.535
 4480POPC   C1B56887  20.132  12.092   6.256
 4480POPC   C2B56888  20.193  12.164   6.694
 4480POPC   C3B56889  20.021  12.140   7.130
 4480POPC   C4B56890  20.186  12.404   7.501
 4481POPC   NC356891  38.405  22.051   5.577
 4481POPC   PO456892  38.587  22.662   5.473
 4481POPC   GL156893  38.672  22.353   5.890
 4481POPC   GL256894  38.696  21.948   5.962
 4481POPC   C1A56895  38.599  22.232   6.360
 4481POPC   D2A56896  38.608  22.286   6.799
 4481POPC   C3A56897  38.474  22.128   7.141
 4481POPC   C4A56898  38.193  22.406   7.390
 4481POPC   C1B56899  38.258  21.854   6.176
 4481POPC   C2B56900  37.922  21.938   6.499
 4481POPC   C3B56901  38.022  22.103   6.900
 4481POPC   C4B56902  38.036  21.923   7.313
 4482POPC   NC356903  30.178  38.773   5.514
 4482POPC   PO456904  29.632  38.394   5.300
 4482POPC   GL156905  29.896  38.238   5.717
 4482POPC   GL256906  29.976  38.552   5.917
 4482POPC   C1A56907  29.851  38.158   6.196
 4482POPC   D2A56908  30.177  38.232   6.506
 4482POPC   C3A56909  30.084  38.461   6.890
 4482POPC   C4A56910  29.998  38.263   7.269
 4482POPC   C1B56911  29.993  38.687   6.343
 4482POPC   C2B56912  29.702  38.754   6.670
 4482POPC   C3B56913  29.546  38.613   7.058
 4482POPC   C4B56914  29.785  38.694   7.432
 4483POPC   NC356915   2.011  12.377   5.432
 4483POPC   PO456916   1.814  11.768   5.630
 4483POPC   GL156917   1.974  11.744   5.968
 4483POPC   GL256918   1.926  12.117   5.999
 4483POPC   C1A56919   1.886  11.738   6.383
 4483POPC   D2A56920   1.910  12.101   6.565
 4483POPC   C3A56921   2.070  12.137   6.940
 4483POPC   C4A56922   1.958  12.134   7.334
 4483POPC   C1B56923   2.104  12.430   6.234
 4483POPC   C2B56924   2.340  12.419   6.559
 4483POPC   C3B56925   2.253  12.624   6.894
 4483POPC   C4B56926   2.305  12.482   7.259
 4484POPC   NC356927  12.398  27.100   5.536
 4484POPC   PO456928  11.828  26.840   5.428
 4484POPC   GL156929  12.030  26.772   5.817
 4484POPC   GL256930  11.837  26.481   5.882
 4484POPC   C1A56931  12.336  26.692   6.172
 4484POPC   D2A56932  12.387  26.481   6.610
 4484POPC   C3A56933  12.217  26.713   6.974
 4484POPC   C4A56934  12.399  27.019   7.257
 4484POPC   C1B56935  11.745  26.242   6.224
 4484POPC   C2B56936  11.875  26.300   6.618
 4484POPC   C3B56937  12.003  26.233   7.009
 4484POPC   C4B56938  12.030  26.452   7.389
 4485POPC   NC356939  39.250  20.273   5.364
 4485POPC   PO456940  39.310  20.906   5.537
 4485POPC   GL156941  39.318  20.532   5.798
 4485POPC   GL256942  39.630  20.375   5.885
 4485POPC   C1A56943  39.213  20.413   6.214
 4485POPC   D2A56944  38.927  20.456   6.554
 4485POPC   C3A56945  39.100  20.709   6.891
 4485POPC   C4A56946  39.314  20.480   7.207
 4485POPC   C1B56947  39.569  20.799   6.168
 4485POPC   C2B56948  39.476  20.992   6.601
 4485POPC   C3B56949  39.568  20.882   7.026
 4485POPC   C4B56950  39.439  20.856   7.505
 4486POPC   NC356951   5.299  14.334   5.335
 4486POPC   PO456952   4.782  14.713   5.226
 4486POPC   GL156953   4.907  14.492   5.669
 4486POPC   GL256954   5.237  14.447   5.844
 4486POPC   C1A56955   4.827  14.525   6.153
 4486POPC   D2A56956   5.106  14.308   6.438
 4486POPC   C3A56957   5.110  14.226   6.876
 4486POPC   C4A56958   5.051  14.350   7.296
 4486POPC   C1B56959   5.353  14.707   6.212
 4486POPC   C2B56960   5.071  14.942   6.500
 4486POPC   C3B56961   5.024  14.781   6.911
 4486POPC   C4B56962   5.409  14.639   7.114
 4487POPC   NC356963  39.421  42.734   5.499
 4487POPC   PO456964  38.985  42.180   5.459
 4487POPC   GL156965  39.178  42.063   5.808
 4487POPC   GL256966  39.367  42.376   5.878
 4487POPC   C1A56967  39.239  41.943   6.225
 4487POPC   D2A56968  39.352  42.138   6.588
 4487POPC   C3A56969  39.167  42.053   6.935
 4487POPC   C4A56970  38.968  42.101   7.288
 4487POPC   C1B56971  39.650  42.648   6.151
 4487POPC   C2B56972  39.652  42.569   6.562
 4487POPC   C3B56973  39.911  42.580   6.880
 4487POPC   C4B56974  39.603  42.340   7.090
 4488POPC   NC356975  19.454  13.842   5.363
 4488POPC   PO456976  18.747  13.806   5.448
 4488POPC   GL156977  19.004  13.712   5.783
 4488POPC   GL256978  19.182  14.027   5.765
 4488POPC   C1A56979  18.914  13.503   6.209
 4488POPC   D2A56980  18.714  13.507   6.634
 4488POPC   C3A56981  18.963  13.500   7.037
 4488POPC   C4A56982  19.201  13.447   7.429
 4488POPC   C1B56983  18.995  14.033   6.187
 4488POPC   C2B56984  19.143  13.840   6.544
 4488POPC   C3B56985  19.309  13.858   6.945
 4488POPC   C4B56986  19.107  13.947   7.286
 4489POPC   NC356987   7.779  15.585   5.498
 4489POPC   PO456988   7.222  16.023   5.527
 4489POPC   GL156989   7.269  15.842   5.905
 4489POPC   GL256990   7.638  15.921   5.873
 4489POPC   C1A56991   7.346  15.701   6.327
 4489POPC   D2A56992   7.670  15.782   6.643
 4489POPC   C3A56993   7.591  15.714   7.097
 4489POPC   C4A56994   7.536  15.750   7.552
 4489POPC   C1B56995   7.565  16.180   6.245
 4489POPC   C2B56996   7.297  16.137   6.606
 4489POPC   C3B56997   7.144  15.796   6.866
 4489POPC   C4B56998   7.068  15.783   7.313
 4490POPC   NC356999  30.605  43.384   5.364
 4490POPC   PO457000  30.967  42.827   5.612
 4490POPC   GL157001  30.743  42.980   5.950
 4490POPC   GL257002  30.458  43.097   5.795
 4490POPC   C1A57003  30.708  43.209   6.327
 4490POPC   D2A57004  30.811  43.433   6.701
 4490POPC   C3A57005  30.968  43.150   7.020
 4490POPC   C4A57006  31.013  42.779   7.294
 4490POPC   C1B57007  30.207  43.171   6.154
 4490POPC   C2B57008  30.265  43.333   6.568
 4490POPC   C3B57009  30.414  43.199   6.974
 4490POPC   C4B57010  30.460  43.047   7.391
 4491POPC   NC357011   9.523  30.444   5.483
 4491POPC   PO457012   9.517  29.819   5.308
 4491POPC   GL157013   9.629  29.965   5.691
 4491POPC   GL257014   9.910  29.808   5.826
 4491POPC   C1A57015   9.498  30.107   6.076
 4491POPC   D2A57016   9.559  29.987   6.477
 4491POPC   C3A57017   9.616  30.259   6.826
 4491POPC   C4A57018   9.669  30.130   7.237
 4491POPC   C1B57019  10.048  29.993   6.201
 4491POPC   C2B57020  10.027  30.079   6.620
 4491POPC   C3B57021   9.874  29.795   6.899
 4491POPC   C4B57022  10.142  29.851   7.216
 4492POPC   NC357023  22.170  38.720   5.470
 4492POPC   PO457024  22.384  38.024   5.464
 4492POPC   GL157025  22.343  38.372   5.821
 4492POPC   GL257026  22.002  38.397   5.881
 4492POPC   C1A57027  22.235  38.649   6.256
 4492POPC   D2A57028  22.307  38.748   6.727
 4492POPC   C3A57029  22.222  38.431   7.083
 4492POPC   C4A57030  22.032  38.433   7.517
 4492POPC   C1B57031  22.246  38.143   6.258
 4492POPC   C2B57032  22.185  38.104   6.700
 4492POPC   C3B57033  22.451  37.980   7.066
 4492POPC   C4B57034  22.460  38.142   7.456
 4493POPC   NC357035  33.169  28.460   5.502
 4493POPC   PO457036  33.472  27.942   5.836
 4493POPC   GL157037  33.071  28.155   5.983
 4493POPC   GL257038  32.852  28.423   5.905
 4493POPC   C1A57039  32.995  28.303   6.417
 4493POPC   D2A57040  33.227  28.028   6.718
 4493POPC   C3A57041  33.287  28.157   7.112
 4493POPC   C4A57042  33.182  28.525   7.269
 4493POPC   C1B57043  32.719  28.738   6.184
 4493POPC   C2B57044  32.712  28.802   6.620
 4493POPC   C3B57045  32.768  28.470   6.940
 4493POPC   C4B57046  32.640  28.572   7.359
 4494POPC   NC357047  37.233  26.574   5.451
 4494POPC   PO457048  36.725  27.034   5.517
 4494POPC   GL157049  36.889  26.814   5.830
 4494POPC   GL257050  37.152  26.978   5.886
 4494POPC   C1A57051  36.818  26.828   6.280
 4494POPC   D2A57052  36.669  27.096   6.626
 4494POPC   C3A57053  36.752  26.960   7.063
 4494POPC   C4A57054  37.135  27.104   7.258
 4494POPC   C1B57055  37.258  26.585   6.097
 4494POPC   C2B57056  37.205  26.561   6.503
 4494POPC   C3B57057  37.186  26.778   6.848
 4494POPC   C4B57058  37.330  26.625   7.228
 4495POPC   NC357059   2.900  21.400   5.583
 4495POPC   PO457060   2.356  21.120   5.566
 4495POPC   GL157061   2.503  21.329   5.884
 4495POPC   GL257062   2.337  21.168   6.116
 4495POPC   C1A57063   2.820  21.407   6.223
 4495POPC   D2A57064   2.997  21.144   6.545
 4495POPC   C3A57065   3.038  21.382   6.905
 4495POPC   C4A57066   2.911  21.504   7.294
 4495POPC   C1B57067   2.344  21.578   6.289
 4495POPC   C2B57068   2.601  21.603   6.644
 4495POPC   C3B57069   2.499  21.379   7.002
 4495POPC   C4B57070   2.416  21.502   7.429
 4496POPC   NC357071  14.750  10.047   5.576
 4496POPC   PO457072  14.118   9.641   5.457
 4496POPC   GL157073  14.329   9.539   5.835
 4496POPC   GL257074  14.627   9.740   5.954
 4496POPC   C1A57075  14.211   9.687   6.255
 4496POPC   D2A57076  14.086   9.881   6.652
 4496POPC   C3A57077  14.243   9.694   7.040
 4496POPC   C4A57078  14.320   9.848   7.450
 4496POPC   C1B57079  14.631   9.966   6.337
 4496POPC   C2B57080  14.772  10.027   6.746
 4496POPC   C3B57081  14.728   9.877   7.152
 4496POPC   C4B57082  14.749  10.144   7.535
 4497POPC   NC357083  21.504  31.609   5.408
 4497POPC   PO457084  21.149  31.140   5.559
 4497POPC   GL157085  21.157  31.554   5.815
 4497POPC   GL257086  21.522  31.655   5.911
 4497POPC   C1A57087  21.183  31.670   6.279
 4497POPC   D2A57088  21.516  31.662   6.605
 4497POPC   C3A57089  21.401  31.764   7.027
 4497POPC   C4A57090  21.076  31.620   7.280
 4497POPC   C1B57091  21.468  31.259   6.116
 4497POPC   C2B57092  21.596  31.159   6.486
 4497POPC   C3B57093  21.555  31.195   6.911
 4497POPC   C4B57094  21.684  31.391   7.269
 4498POPC   NC357095  24.972  10.012   5.444
 4498POPC   PO457096  24.323   9.910   5.403
 4498POPC   GL157097  24.402   9.742   5.811
 4498POPC   GL257098  24.722   9.704   5.820
 4498POPC   C1A57099  24.389   9.797   6.254
 4498POPC   D2A57100  24.265   9.697   6.652
 4498POPC   C3A57101  24.384   9.790   7.043
 4498POPC   C4A57102  24.236  10.166   7.236
 4498POPC   C1B57103  24.911   9.742   6.211
 4498POPC   C2B57104  24.774   9.629   6.598
 4498POPC   C3B57105  24.777   9.437   6.963
 4498POPC   C4B57106  24.851   9.706   7.290
 4499POPC   NC357107  29.022   3.273   5.184
 4499POPC   PO457108  29.492   3.717   5.232
 4499POPC   GL157109  29.358   3.821   5.684
 4499POPC   GL257110  29.147   3.526   5.846
 4499POPC   C1A57111  29.446   3.825   6.132
 4499POPC   D2A57112  29.421   3.472   6.403
 4499POPC   C3A57113  29.345   3.525   6.821
 4499POPC   C4A57114  29.423   3.520   7.229
 4499POPC   C1B57115  28.962   3.294   6.238
 4499POPC   C2B57116  28.922   3.241   6.711
 4499POPC   C3B57117  28.884   3.478   7.111
 4499POPC   C4B57118  28.698   3.361   7.520
 4500POPC   NC357119  36.841  38.905   5.447
 4500POPC   PO457120  36.998  39.601   5.338
 4500POPC   GL157121  36.838  39.348   5.713
 4500POPC   GL257122  37.084  39.222   5.942
 4500POPC   C1A57123  36.629  39.148   6.116
 4500POPC   D2A57124  36.894  39.102   6.479
 4500POPC   C3A57125  36.719  39.171   6.865
 4500POPC   C4A57126  36.736  39.207   7.260
 4500POPC   C1B57127  37.148  39.519   6.280
 4500POPC   C2B57128  37.134  39.508   6.717
 4500POPC   C3B57129  37.183  39.236   7.036
 4500POPC   C4B57130  37.103  38.830   7.133
 4501POPC   NC357131  14.788  21.631   5.361
 4501POPC   PO457132  14.253  21.284   5.246
 4501POPC   GL157133  14.359  21.377   5.653
 4501POPC   GL257134  14.107  21.275   5.878
 4501POPC   C1A57135  14.552  21.506   6.018
 4501POPC   D2A57136  14.638  21.533   6.430
 4501POPC   C3A57137  14.414  21.423   6.780
 4501POPC   C4A57138  14.575  21.425   7.172
 4501POPC   C1B57139  14.219  21.215   6.319
 4501POPC   C2B57140  14.150  20.981   6.719
 4501POPC   C3B57141  14.101  21.180   7.130
 4501POPC   C4B57142  13.882  21.529   7.339
 4502POPC   NC357143  19.359   2.936   4.959
 4502POPC   PO457144  18.897   2.754   5.416
 4502POPC   GL157145  19.085   3.012   5.756
 4502POPC   GL257146  19.429   2.906   5.817
 4502POPC   C1A57147  19.073   3.007   6.216
 4502POPC   D2A57148  18.834   2.762   6.499
 4502POPC   C3A57149  18.898   2.845   6.934
 4502POPC   C4A57150  18.829   2.545   7.293
 4502POPC   C1B57151  19.334   2.588   6.128
 4502POPC   C2B57152  19.288   2.563   6.553
 4502POPC   C3B57153  19.202   2.448   6.938
 4502POPC   C4B57154  19.298   2.764   7.248
 4503POPC   NC357155  29.505  29.549   5.626
 4503POPC   PO457156  29.783  29.086   5.272
 4503POPC   GL157157  30.005  29.180   5.690
 4503POPC   GL257158  29.734  29.168   5.873
 4503POPC   C1A57159  30.116  29.175   6.181
 4503POPC   D2A57160  29.929  28.970   6.494
 4503POPC   C3A57161  29.949  29.006   6.944
 4503POPC   C4A57162  30.041  29.200   7.358
 4503POPC   C1B57163  29.671  29.388   6.265
 4503POPC   C2B57164  29.493  29.426   6.641
 4503POPC   C3B57165  29.599  29.349   7.053
 4503POPC   C4B57166  29.523  29.148   7.461
 4504POPC   NC357167  42.367  29.935   5.374
 4504POPC   PO457168  41.766  29.940   5.568
 4504POPC   GL157169  42.110  30.036   5.862
 4504POPC   GL257170  42.495  30.005   5.863
 4504POPC   C1A57171  42.179  29.839   6.258
 4504POPC   D2A57172  42.449  29.726   6.588
 4504POPC   C3A57173  42.186  29.794   6.932
 4504POPC   C4A57174  42.315  29.877   7.337
 4504POPC   C1B57175  42.510  30.243   6.232
 4504POPC   C2B57176  42.320  30.224   6.615
 4504POPC   C3B57177  42.445  30.272   7.034
 4504POPC   C4B57178  42.247  30.398   7.389
 4505POPC   NC357179  26.861  33.780   5.357
 4505POPC   PO457180  26.354  33.709   5.749
 4505POPC   GL157181  26.777  33.766   5.916
 4505POPC   GL257182  27.119  33.873   5.779
 4505POPC   C1A57183  26.771  33.749   6.363
 4505POPC   D2A57184  26.499  33.788   6.726
 4505POPC   C3A57185  26.701  33.677   7.127
 4505POPC   C4A57186  26.911  33.474   7.479
 4505POPC   C1B57187  27.093  34.133   6.134
 4505POPC   C2B57188  26.910  34.212   6.515
 4505POPC   C3B57189  26.993  34.052   6.886
 4505POPC   C4B57190  27.041  34.068   7.293
 4506POPC   NC357191  29.313  26.252   5.276
 4506POPC   PO457192  29.179  26.899   5.294
 4506POPC   GL157193  29.125  26.891   5.752
 4506POPC   GL257194  28.965  26.579   5.834
 4506POPC   C1A57195  29.194  26.905   6.217
 4506POPC   D2A57196  29.522  26.762   6.539
 4506POPC   C3A57197  29.312  26.806   6.952
 4506POPC   C4A57198  29.045  27.169   7.020
 4506POPC   C1B57199  28.783  26.556   6.256
 4506POPC   C2B57200  28.799  26.809   6.648
 4506POPC   C3B57201  28.801  26.684   7.067
 4506POPC   C4B57202  28.808  26.354   7.333
 4507POPC   NC357203   3.360  21.845   5.395
 4507POPC   PO457204   3.783  22.256   5.219
 4507POPC   GL157205   3.695  22.158   5.677
 4507POPC   GL257206   3.356  22.268   5.818
 4507POPC   C1A57207   3.760  22.023   6.127
 4507POPC   D2A57208   3.613  21.843   6.546
 4507POPC   C3A57209   3.622  22.106   6.907
 4507POPC   C4A57210   3.808  22.308   7.242
 4507POPC   C1B57211   3.249  22.086   6.258
 4507POPC   C2B57212   3.106  21.821   6.632
 4507POPC   C3B57213   3.211  21.872   7.077
 4507POPC   C4B57214   3.360  21.808   7.508
 4508POPC   NC357215  10.849   2.922   5.508
 4508POPC   PO457216  10.209   2.688   5.444
 4508POPC   GL157217  10.536   2.566   5.765
 4508POPC   GL257218  10.297   2.667   5.980
 4508POPC   C1A57219  10.669   2.516   6.248
 4508POPC   D2A57220  10.387   2.735   6.548
 4508POPC   C3A57221  10.608   2.839   6.929
 4508POPC   C4A57222  10.770   2.550   7.235
 4508POPC   C1B57223  10.117   3.013   6.193
 4508POPC   C2B57224  10.101   3.183   6.619
 4508POPC   C3B57225  10.147   2.997   7.044
 4508POPC   C4B57226  10.404   2.848   7.431
 4509POPC   NC357227   1.686  35.374   5.384
 4509POPC   PO457228   2.242  35.726   5.655
 4509POPC   GL157229   1.989  35.586   5.955
 4509POPC   GL257230   1.862  35.264   5.848
 4509POPC   C1A57231   2.170  35.424   6.315
 4509POPC   D2A57232   2.390  35.461   6.676
 4509POPC   C3A57233   2.099  35.495   7.014
 4509POPC   C4A57234   1.982  35.394   7.455
 4509POPC   C1B57235   1.678  35.322   6.265
 4509POPC   C2B57236   1.526  35.402   6.685
 4509POPC   C3B57237   1.624  35.286   7.112
 4509POPC   C4B57238   1.530  35.232   7.585
 4510POPC   NC357239   9.200  31.954   5.640
 4510POPC   PO457240   9.813  32.260   5.444
 4510POPC   GL157241   9.749  32.427   5.864
 4510POPC   GL257242   9.373  32.377   5.939
 4510POPC   C1A57243   9.737  32.419   6.334
 4510POPC   D2A57244   9.704  32.495   6.795
 4510POPC   C3A57245   9.998  32.187   7.017
 4510POPC   C4A57246   9.987  32.296   7.435
 4510POPC   C1B57247   9.445  32.006   6.257
 4510POPC   C2B57248   9.634  31.998   6.687
 4510POPC   C3B57249   9.570  31.976   7.158
 4510POPC   C4B57250   9.416  31.866   7.589
 4511POPC   NC357251  32.589  29.311   5.458
 4511POPC   PO457252  32.024  28.764   5.348
 4511POPC   GL157253  32.158  28.790   5.795
 4511POPC   GL257254  32.436  28.979   5.819
 4511POPC   C1A57255  32.227  28.877   6.266
 4511POPC   D2A57256  32.224  29.184   6.569
 4511POPC   C3A57257  32.179  28.996   6.963
 4511POPC   C4A57258  32.011  29.208   7.273
 4511POPC   C1B57259  32.509  29.321   6.123
 4511POPC   C2B57260  32.586  29.547   6.524
 4511POPC   C3B57261  32.605  29.314   6.900
 4511POPC   C4B57262  32.603  29.447   7.335
 4512POPC   NC357263   0.516  36.168   5.367
 4512POPC   PO457264  44.818  35.836   5.439
 4512POPC   GL157265   0.130  35.943   5.784
 4512POPC   GL257266   0.493  36.081   5.857
 4512POPC   C1A57267   0.129  36.142   6.217
 4512POPC   D2A57268   0.133  36.473   6.545
 4512POPC   C3A57269   0.513  36.525   6.781
 4512POPC   C4A57270   0.566  36.196   7.123
 4512POPC   C1B57271   0.694  36.217   6.242
 4512POPC   C2B57272   0.499  36.047   6.604
 4512POPC   C3B57273   0.480  35.696   6.861
 4512POPC   C4B57274   0.697  35.672   7.200
 4513POPC   NC357275  34.963  40.837   5.486
 4513POPC   PO457276  34.419  40.404   5.379
 4513POPC   GL157277  34.485  40.647   5.753
 4513POPC   GL257278  34.589  41.013   5.817
 4513POPC   C1A57279  34.613  40.574   6.160
 4513POPC   D2A57280  34.409  40.600   6.543
 4513POPC   C3A57281  34.568  40.816   6.868
 4513POPC   C4A57282  34.553  40.735   7.288
 4513POPC   C1B57283  34.785  41.067   6.255
 4513POPC   C2B57284  34.928  41.135   6.692
 4513POPC   C3B57285  34.898  41.144   7.137
 4513POPC   C4B57286  35.026  40.885   7.458
 4514POPC   NC357287  17.017  15.000   5.290
 4514POPC   PO457288  16.791  15.511   5.504
 4514POPC   GL157289  16.679  15.238   5.839
 4514POPC   GL257290  16.935  15.009   5.853
 4514POPC   C1A57291  16.686  15.144   6.273
 4514POPC   D2A57292  16.802  15.408   6.615
 4514POPC   C3A57293  16.968  15.206   6.959
 4514POPC   C4A57294  16.718  15.319   7.264
 4514POPC   C1B57295  17.101  14.831   6.229
 4514POPC   C2B57296  16.879  14.838   6.629
 4514POPC   C3B57297  16.504  15.048   6.854
 4514POPC   C4B57298  16.410  14.836   7.225
 4515POPC   NC357299  41.043  21.572   5.607
 4515POPC   PO457300  41.017  22.089   5.144
 4515POPC   GL157301  41.011  22.074   5.670
 4515POPC   GL257302  41.278  21.955   5.860
 4515POPC   C1A57303  40.834  22.026   6.156
 4515POPC   D2A57304  40.715  22.224   6.580
 4515POPC   C3A57305  40.525  22.034   6.939
 4515POPC   C4A57306  40.570  21.814   7.311
 4515POPC   C1B57307  41.152  22.408   6.019
 4515POPC   C2B57308  41.118  22.543   6.462
 4515POPC   C3B57309  41.023  22.498   6.919
 4515POPC   C4B57310  40.965  22.140   7.173
 4516POPC   NC357311  35.691  40.422   5.384
 4516POPC   PO457312  35.072  40.382   5.607
 4516POPC   GL157313  35.264  40.035   5.780
 4516POPC   GL257314  35.547  40.246   5.870
 4516POPC   C1A57315  35.342  39.827   6.181
 4516POPC   D2A57316  35.132  39.849   6.569
 4516POPC   C3A57317  35.214  40.185   6.859
 4516POPC   C4A57318  35.153  40.066   7.287
 4516POPC   C1B57319  35.637  40.250   6.320
 4516POPC   C2B57320  35.642  39.897   6.624
 4516POPC   C3B57321  35.464  39.767   7.009
 4516POPC   C4B57322  35.653  40.022   7.320
 4517POPC   NC357323  22.023  25.534   5.421
 4517POPC   PO457324  21.476  25.108   5.296
 4517POPC   GL157325  21.310  25.256   5.709
 4517POPC   GL257326  21.252  25.616   5.729
 4517POPC   C1A57327  21.416  25.186   6.164
 4517POPC   D2A57328  21.550  25.212   6.603
 4517POPC   C3A57329  21.489  24.979   6.987
 4517POPC   C4A57330  21.660  25.139   7.365
 4517POPC   C1B57331  21.510  25.693   6.086
 4517POPC   C2B57332  21.308  25.635   6.458
 4517POPC   C3B57333  21.364  25.668   6.883
 4517POPC   C4B57334  21.232  25.386   7.188
 4518POPC   NC357335  21.369  10.598   5.361
 4518POPC   PO457336  21.916  10.113   5.468
 4518POPC   GL157337  21.549  10.311   5.773
 4518POPC   GL257338  21.399  10.686   5.852
 4518POPC   C1A57339  21.405  10.378   6.237
 4518POPC   D2A57340  21.437  10.727   6.549
 4518POPC   C3A57341  21.453  10.528   6.964
 4518POPC   C4A57342  21.135  10.219   7.148
 4518POPC   C1B57343  21.056  10.757   6.156
 4518POPC   C2B57344  20.977  10.946   6.582
 4518POPC   C3B57345  21.021  10.800   7.013
 4518POPC   C4B57346  21.274  10.930   7.383
 4519POPC   NC357347  30.731  22.382   5.447
 4519POPC   PO457348  30.445  21.802   5.530
 4519POPC   GL157349  30.568  22.115   5.859
 4519POPC   GL257350  30.932  22.177   5.900
 4519POPC   C1A57351  30.431  22.128   6.294
 4519POPC   D2A57352  30.740  22.221   6.605
 4519POPC   C3A57353  30.612  22.200   7.023
 4519POPC   C4A57354  30.799  22.006   7.361
 4519POPC   C1B57355  31.112  22.507   6.199
 4519POPC   C2B57356  31.192  22.472   6.615
 4519POPC   C3B57357  30.942  22.576   6.952
 4519POPC   C4B57358  30.973  22.488   7.362
 4520POPC   NC357359  43.946  27.275   5.194
 4520POPC   PO457360  44.183  27.839   5.470
 4520POPC   GL157361  43.905  27.835   5.819
 4520POPC   GL257362  43.913  27.468   5.818
 4520POPC   C1A57363  43.800  27.762   6.272
 4520POPC   D2A57364  43.962  27.740   6.694
 4520POPC   C3A57365  43.766  27.764   7.097
 4520POPC   C4A57366  43.837  27.542   7.452
 4520POPC   C1B57367  44.044  27.208   6.161
 4520POPC   C2B57368  44.090  27.010   6.578
 4520POPC   C3B57369  43.965  27.230   6.961
 4520POPC   C4B57370  44.148  27.143   7.336
 4521POPC   NC357371  12.927  32.124   5.447
 4521POPC   PO457372  12.324  32.204   5.787
 4521POPC   GL157373  12.761  32.176   5.942
 4521POPC   GL257374  13.073  32.385   5.882
 4521POPC   C1A57375  12.979  32.132   6.335
 4521POPC   D2A57376  12.930  32.323   6.737
 4521POPC   C3A57377  12.586  32.205   7.002
 4521POPC   C4A57378  12.465  31.751   7.108
 4521POPC   C1B57379  13.346  32.463   6.246
 4521POPC   C2B57380  13.375  32.578   6.662
 4521POPC   C3B57381  13.274  32.491   7.081
 4521POPC   C4B57382  13.030  32.168   7.232
 4522POPC   NC357383   6.158  33.568   5.417
 4522POPC   PO457384   5.929  34.076   5.079
 4522POPC   GL157385   5.956  33.997   5.617
 4522POPC   GL257386   5.688  34.101   5.844
 4522POPC   C1A57387   5.877  33.702   6.057
 4522POPC   D2A57388   5.991  33.586   6.518
 4522POPC   C3A57389   5.849  33.553   6.979
 4522POPC   C4A57390   6.131  33.800   7.311
 4522POPC   C1B57391   5.562  34.090   6.281
 4522POPC   C2B57392   5.479  33.993   6.724
 4522POPC   C3B57393   5.744  34.039   7.068
 4522POPC   C4B57394   5.779  34.162   7.464
 4523POPC   NC357395   2.922  23.088   5.405
 4523POPC   PO457396   2.343  22.683   5.449
 4523POPC   GL157397   2.603  22.864   5.814
 4523POPC   GL257398   2.796  23.223   5.863
 4523POPC   C1A57399   2.700  22.883   6.232
 4523POPC   D2A57400   2.930  22.688   6.521
 4523POPC   C3A57401   2.726  22.687   6.903
 4523POPC   C4A57402   2.932  22.400   7.161
 4523POPC   C1B57403   2.991  23.293   6.284
 4523POPC   C2B57404   2.915  23.181   6.733
 4523POPC   C3B57405   2.865  23.210   7.187
 4523POPC   C4B57406   3.009  23.254   7.633
 4524POPC   NC357407  44.399  20.742   5.130
 4524POPC   PO457408   0.029  20.632   5.287
 4524POPC   GL157409  44.813  20.508   5.774
 4524POPC   GL257410  44.489  20.598   5.797
 4524POPC   C1A57411  44.783  20.656   6.213
 4524POPC   D2A57412  44.563  20.816   6.582
 4524POPC   C3A57413  44.790  20.716   6.941
 4524POPC   C4A57414  44.641  20.564   7.326
 4524POPC   C1B57415  44.293  20.415   6.154
 4524POPC   C2B57416  44.118  20.524   6.528
 4524POPC   C3B57417  44.347  20.404   6.882
 4524POPC   C4B57418  44.214  20.291   7.276
 4525POPC   NC357419   7.909  15.154   5.016
 4525POPC   PO457420   7.403  15.232   5.401
 4525POPC   GL157421   7.232  15.258   5.820
 4525POPC   GL257422   7.055  14.946   5.843
 4525POPC   C1A57423   7.269  15.184   6.281
 4525POPC   D2A57424   7.425  15.329   6.692
 4525POPC   C3A57425   7.486  15.043   7.017
 4525POPC   C4A57426   7.285  15.336   7.249
 4525POPC   C1B57427   6.825  14.954   6.255
 4525POPC   C2B57428   7.049  14.885   6.664
 4525POPC   C3B57429   6.978  14.916   7.121
 4525POPC   C4B57430   7.254  14.901   7.502
 4526POPC   NC357431  12.185   0.741   5.358
 4526POPC   PO457432  12.117   1.338   5.119
 4526POPC   GL157433  12.067   1.200   5.595
 4526POPC   GL257434  11.853   0.897   5.691
 4526POPC   C1A57435  12.126   1.224   6.069
 4526POPC   D2A57436  12.054   1.369   6.535
 4526POPC   C3A57437  12.145   1.294   6.980
 4526POPC   C4A57438  11.834   1.324   7.330
 4526POPC   C1B57439  11.839   0.805   6.145
 4526POPC   C2B57440  12.019   0.865   6.573
 4526POPC   C3B57441  11.807   0.925   6.956
 4526POPC   C4B57442  11.913   0.838   7.361
 4527POPC   NC357443   3.365   4.693   5.497
 4527POPC   PO457444   3.801   5.280   5.422
 4527POPC   GL157445   3.699   4.980   5.753
 4527POPC   GL257446   3.606   5.233   5.904
 4527POPC   C1A57447   3.515   4.845   6.185
 4527POPC   D2A57448   3.649   4.743   6.568
 4527POPC   C3A57449   3.488   4.929   6.926
 4527POPC   C4A57450   3.593   4.876   7.313
 4527POPC   C1B57451   3.812   5.296   6.233
 4527POPC   C2B57452   3.667   5.261   6.584
 4527POPC   C3B57453   3.870   5.303   6.937
 4527POPC   C4B57454   3.880   5.366   7.334
 4528POPC   NC357455  12.304  24.778   5.386
 4528POPC   PO457456  11.680  24.523   5.378
 4528POPC   GL157457  11.937  24.449   5.737
 4528POPC   GL257458  12.302  24.352   5.701
 4528POPC   C1A57459  11.903  24.597   6.149
 4528POPC   D2A57460  11.724  24.478   6.530
 4528POPC   C3A57461  11.826  24.700   6.866
 4528POPC   C4A57462  11.927  24.467   7.211
 4528POPC   C1B57463  12.427  24.466   6.137
 4528POPC   C2B57464  12.245  24.617   6.541
 4528POPC   C3B57465  12.331  24.672   6.975
 4528POPC   C4B57466  12.426  24.375   7.307
 4529POPC   NC357467   6.248  25.665   5.660
 4529POPC   PO457468   6.453  26.297   5.543
 4529POPC   GL157469   6.380  26.096   5.928
 4529POPC   GL257470   6.744  26.071   5.964
 4529POPC   C1A57471   6.385  26.110   6.380
 4529POPC   D2A57472   6.743  26.046   6.638
 4529POPC   C3A57473   6.680  26.219   7.041
 4529POPC   C4A57474   6.461  26.135   7.469
 4529POPC   C1B57475   7.103  26.024   6.222
 4529POPC   C2B57476   7.191  25.780   6.570
 4529POPC   C3B57477   7.026  25.711   6.943
 4529POPC   C4B57478   6.949  25.906   7.301
 4530POPC   NC357479  22.261   3.128   5.140
 4530POPC   PO457480  21.818   3.532   5.399
 4530POPC   GL157481  22.047   3.541   5.868
 4530POPC   GL257482  22.107   3.245   6.012
 4530POPC   C1A57483  22.232   3.656   6.257
 4530POPC   D2A57484  22.413   3.577   6.609
 4530POPC   C3A57485  22.214   3.589   6.981
 4530POPC   C4A57486  22.295   3.508   7.393
 4530POPC   C1B57487  21.844   3.305   6.334
 4530POPC   C2B57488  21.907   3.252   6.742
 4530POPC   C3B57489  21.811   3.263   7.142
 4530POPC   C4B57490  21.922   3.178   7.530
 4531POPC   NC357491  24.062  31.606   5.643
 4531POPC   PO457492  24.626  31.456   5.212
 4531POPC   GL157493  24.573  31.421   5.700
 4531POPC   GL257494  24.572  31.107   5.845
 4531POPC   C1A57495  24.669  31.558   6.150
 4531POPC   D2A57496  24.793  31.518   6.628
 4531POPC   C3A57497  24.656  31.880   6.920
 4531POPC   C4A57498  24.318  31.883   7.263
 4531POPC   C1B57499  24.267  31.223   6.155
 4531POPC   C2B57500  24.151  31.317   6.583
 4531POPC   C3B57501  24.446  31.214   6.887
 4531POPC   C4B57502  24.425  31.054   7.298
 4532POPC   NC357503  24.339  34.819   5.536
 4532POPC   PO457504  24.368  34.143   5.576
 4532POPC   GL157505  24.540  34.474   5.871
 4532POPC   GL257506  24.765  34.228   5.952
 4532POPC   C1A57507  24.419  34.768   6.248
 4532POPC   D2A57508  24.454  34.853   6.718
 4532POPC   C3A57509  24.244  34.678   7.078
 4532POPC   C4A57510  24.346  34.290   7.287
 4532POPC   C1B57511  24.507  34.252   6.324
 4532POPC   C2B57512  24.420  34.319   6.740
 4532POPC   C3B57513  24.712  34.476   7.021
 4532POPC   C4B57514  24.681  34.874   7.222
 4533POPC   NC357515  35.940  35.329   5.565
 4533POPC   PO457516  35.336  35.564   5.315
 4533POPC   GL157517  35.429  35.213   5.646
 4533POPC   GL257518  35.119  35.259   5.803
 4533POPC   C1A57519  35.543  35.184   6.117
 4533POPC   D2A57520  35.500  35.408   6.541
 4533POPC   C3A57521  35.656  35.290   6.952
 4533POPC   C4A57522  35.576  35.494   7.350
 4533POPC   C1B57523  35.121  35.479   6.185
 4533POPC   C2B57524  34.998  35.403   6.597
 4533POPC   C3B57525  35.156  35.467   6.983
 4533POPC   C4B57526  35.122  35.253   7.380
 4534POPC   NC357527   3.885   9.478   5.498
 4534POPC   PO457528   3.232   9.758   5.423
 4534POPC   GL157529   3.474   9.794   5.845
 4534POPC   GL257530   3.816   9.769   5.905
 4534POPC   C1A57531   3.528  10.079   6.227
 4534POPC   D2A57532   3.390   9.965   6.651
 4534POPC   C3A57533   3.461  10.033   7.093
 4534POPC   C4A57534   3.365   9.589   7.248
 4534POPC   C1B57535   3.719   9.618   6.279
 4534POPC   C2B57536   3.881   9.850   6.590
 4534POPC   C3B57537   3.766   9.689   6.925
 4534POPC   C4B57538   3.870   9.616   7.294
 4535POPC   NC357539  11.618   8.782   5.306
 4535POPC   PO457540  10.996   9.023   5.483
 4535POPC   GL157541  11.350   9.018   5.764
 4535POPC   GL257542  11.463   8.662   5.775
 4535POPC   C1A57543  11.387   9.251   6.165
 4535POPC   D2A57544  11.428   9.099   6.583
 4535POPC   C3A57545  11.176   9.189   6.949
 4535POPC   C4A57546  11.528   9.112   7.210
 4535POPC   C1B57547  11.492   8.743   6.196
 4535POPC   C2B57548  11.336   8.588   6.561
 4535POPC   C3B57549  11.359   8.716   6.935
 4535POPC   C4B57550  11.406   8.633   7.329
 4536POPC   NC357551  15.574   5.061   5.453
 4536POPC   PO457552  16.250   4.814   5.297
 4536POPC   GL157553  16.037   4.915   5.687
 4536POPC   GL257554  15.728   4.781   5.832
 4536POPC   C1A57555  16.075   4.917   6.162
 4536POPC   D2A57556  16.260   4.986   6.561
 4536POPC   C3A57557  16.139   4.736   6.899
 4536POPC   C4A57558  16.029   4.838   7.291
 4536POPC   C1B57559  15.567   4.964   6.205
 4536POPC   C2B57560  15.746   5.006   6.624
 4536POPC   C3B57561  15.609   4.812   6.994
 4536POPC   C4B57562  15.525   4.965   7.405
 4537POPC   NC357563  16.406  17.835   5.418
 4537POPC   PO457564  16.738  17.262   5.423
 4537POPC   GL157565  16.639  17.508   5.779
 4537POPC   GL257566  16.801  17.793   5.746
 4537POPC   C1A57567  16.588  17.620   6.211
 4537POPC   D2A57568  16.577  17.411   6.597
 4537POPC   C3A57569  16.695  17.531   6.977
 4537POPC   C4A57570  16.587  17.477   7.424
 4537POPC   C1B57571  17.067  17.596   6.050
 4537POPC   C2B57572  17.071  17.562   6.492
 4537POPC   C3B57573  17.152  17.769   6.900
 4537POPC   C4B57574  17.078  17.593   7.299
 4538POPC   NC357575   3.313  10.222   5.634
 4538POPC   PO457576   3.602  10.663   5.212
 4538POPC   GL157577   3.579  10.684   5.696
 4538POPC   GL257578   3.272  10.781   5.849
 4538POPC   C1A57579   3.646  10.593   6.176
 4538POPC   D2A57580   3.753  10.352   6.586
 4538POPC   C3A57581   3.675  10.495   6.979
 4538POPC   C4A57582   3.939  10.618   7.314
 4538POPC   C1B57583   3.125  10.622   6.239
 4538POPC   C2B57584   3.220  10.438   6.653
 4538POPC   C3B57585   3.147  10.442   7.091
 4538POPC   C4B57586   3.440  10.565   7.430
 4539POPC   NC357587  14.223   2.184   5.493
 4539POPC   PO457588  14.372   1.698   5.227
 4539POPC   GL157589  14.495   1.925   5.802
 4539POPC   GL257590  14.525   2.312   5.877
 4539POPC   C1A57591  14.398   1.738   6.261
 4539POPC   D2A57592  14.247   1.901   6.664
 4539POPC   C3A57593  14.244   1.710   7.057
 4539POPC   C4A57594  14.342   1.950   7.445
 4539POPC   C1B57595  14.363   2.243   6.292
 4539POPC   C2B57596  14.592   2.293   6.707
 4539POPC   C3B57597  14.447   2.367   7.152
 4539POPC   C4B57598  14.455   2.391   7.655
 4540POPC   NC357599  13.103  28.032   5.572
 4540POPC   PO457600  12.587  28.430   5.400
 4540POPC   GL157601  12.705  28.508   5.801
 4540POPC   GL257602  13.063  28.448   5.917
 4540POPC   C1A57603  12.676  28.681   6.187
 4540POPC   D2A57604  12.906  28.744   6.531
 4540POPC   C3A57605  12.788  28.473   6.822
 4540POPC   C4A57606  13.022  28.421   7.162
 4540POPC   C1B57607  13.084  28.145   6.297
 4540POPC   C2B57608  12.959  27.987   6.738
 4540POPC   C3B57609  13.034  27.923   7.206
 4540POPC   C4B57610  13.291  28.068   7.590
 4541POPC   NC357611  23.142  12.638   5.548
 4541POPC   PO457612  22.866  13.204   5.361
 4541POPC   GL157613  22.740  12.982   5.737
 4541POPC   GL257614  23.052  12.962   5.956
 4541POPC   C1A57615  22.595  12.960   6.182
 4541POPC   D2A57616  22.841  12.957   6.541
 4541POPC   C3A57617  22.714  12.786   6.945
 4541POPC   C4A57618  22.755  12.928   7.382
 4541POPC   C1B57619  23.336  12.873   6.331
 4541POPC   C2B57620  23.258  12.759   6.766
 4541POPC   C3B57621  23.217  12.715   7.164
 4541POPC   C4B57622  23.373  12.458   7.450
 4542POPC   NC357623  37.274   0.959   5.377
 4542POPC   PO457624  36.605   1.097   5.379
 4542POPC   GL157625  36.865   1.253   5.797
 4542POPC   GL257626  37.133   1.056   5.886
 4542POPC   C1A57627  36.884   1.373   6.299
 4542POPC   D2A57628  36.651   1.375   6.755
 4542POPC   C3A57629  36.863   1.154   7.093
 4542POPC   C4A57630  37.280   1.233   7.223
 4542POPC   C1B57631  37.166   0.921   6.324
 4542POPC   C2B57632  37.206   0.939   6.792
 4542POPC   C3B57633  37.265   0.735   7.214
 4542POPC   C4B57634  37.354   0.773   7.668
 4543POPC   NC357635  16.896  14.014   5.407
 4543POPC   PO457636  16.776  13.355   5.510
 4543POPC   GL157637  16.884  13.619   5.849
 4543POPC   GL257638  16.575  13.771   5.918
 4543POPC   C1A57639  16.793  13.527   6.290
 4543POPC   D2A57640  16.678  13.602   6.686
 4543POPC   C3A57641  17.028  13.501   6.966
 4543POPC   C4A57642  17.142  13.571   7.389
 4543POPC   C1B57643  16.253  13.830   6.224
 4543POPC   C2B57644  16.210  14.018   6.641
 4543POPC   C3B57645  16.511  13.955   6.984
 4543POPC   C4B57646  16.609  13.603   7.247
 4544POPC   NC357647  27.555  37.929   5.412
 4544POPC   PO457648  27.559  37.275   5.565
 4544POPC   GL157649  27.725  37.599   5.801
 4544POPC   GL257650  27.396  37.741   5.870
 4544POPC   C1A57651  27.792  37.545   6.231
 4544POPC   D2A57652  27.520  37.646   6.549
 4544POPC   C3A57653  27.673  37.454   6.915
 4544POPC   C4A57654  28.071  37.385   7.144
 4544POPC   C1B57655  27.613  38.011   6.131
 4544POPC   C2B57656  27.595  38.154   6.533
 4544POPC   C3B57657  27.512  37.997   6.934
 4544POPC   C4B57658  27.834  37.836   7.201
 4545POPC   NC357659  41.717  30.406   5.568
 4545POPC   PO457660  41.488  31.076   5.634
 4545POPC   GL157661  41.415  30.721   5.882
 4545POPC   GL257662  41.377  30.914   6.154
 4545POPC   C1A57663  41.614  30.497   6.208
 4545POPC   D2A57664  41.692  30.738   6.576
 4545POPC   C3A57665  41.529  30.640   6.966
 4545POPC   C4A57666  41.769  30.634   7.317
 4545POPC   C1B57667  41.828  31.074   6.199
 4545POPC   C2B57668  41.945  31.358   6.516
 4545POPC   C3B57669  41.805  31.147   6.890
 4545POPC   C4B57670  41.951  31.203   7.288
 4546POPC   NC357671  43.571   8.015   5.221
 4546POPC   PO457672  44.160   8.305   5.136
 4546POPC   GL157673  43.966   8.163   5.585
 4546POPC   GL257674  43.654   8.010   5.737
 4546POPC   C1A57675  43.964   8.170   6.102
 4546POPC   D2A57676  44.071   8.389   6.509
 4546POPC   C3A57677  44.190   8.285   6.932
 4546POPC   C4A57678  44.028   8.481   7.295
 4546POPC   C1B57679  43.484   7.956   6.169
 4546POPC   C2B57680  43.592   8.184   6.548
 4546POPC   C3B57681  43.677   8.245   6.987
 4546POPC   C4B57682  43.873   7.981   7.314
 4547POPC   NC357683  15.179  44.155   5.395
 4547POPC   PO457684  15.006  43.494   5.560
 4547POPC   GL157685  15.086  43.864   5.835
 4547POPC   GL257686  15.027  44.253   5.849
 4547POPC   C1A57687  15.127  43.943   6.271
 4547POPC   D2A57688  15.526  43.919   6.502
 4547POPC   C3A57689  15.468  43.733   6.904
 4547POPC   C4A57690  15.083  43.658   7.120
 4547POPC   C1B57691  15.379  44.350   6.110
 4547POPC   C2B57692  15.215  44.383   6.519
 4547POPC   C3B57693  15.085  44.053   6.786
 4547POPC   C4B57694  15.135  44.158   7.196
 4548POPC   NC357695   0.250  41.618   5.454
 4548POPC   PO457696   0.967  41.718   5.468
 4548POPC   GL157697   0.659  41.604   5.786
 4548POPC   GL257698   0.446  41.900   5.848
 4548POPC   C1A57699   0.568  41.414   6.185
 4548POPC   D2A57700   0.262  41.243   6.504
 4548POPC   C3A57701   0.349  41.387   6.937
 4548POPC   C4A57702   0.765  41.240   7.027
 4548POPC   C1B57703   0.145  41.711   6.147
 4548POPC   C2B57704   0.077  41.777   6.599
 4548POPC   C3B57705   0.272  41.931   6.989
 4548POPC   C4B57706   0.135  41.915   7.412
 4549POPC   NC357707  28.375  32.447   5.210
 4549POPC   PO457708  27.900  32.061   5.445
 4549POPC   GL157709  28.287  32.285   5.699
 4549POPC   GL257710  28.582  32.509   5.774
 4549POPC   C1A57711  28.286  32.364   6.168
 4549POPC   D2A57712  28.151  32.194   6.590
 4549POPC   C3A57713  28.259  32.405   7.006
 4549POPC   C4A57714  28.333  32.187   7.420
 4549POPC   C1B57715  28.791  32.380   6.158
 4549POPC   C2B57716  28.672  32.207   6.548
 4549POPC   C3B57717  28.702  32.171   6.998
 4549POPC   C4B57718  28.705  32.507   7.328
 4550POPC   NC357719  16.580  21.616   5.524
 4550POPC   PO457720  15.928  21.474   5.401
 4550POPC   GL157721  15.977  21.291   5.835
 4550POPC   GL257722  15.662  21.204   5.947
 4550POPC   C1A57723  16.045  21.179   6.308
 4550POPC   D2A57724  16.076  21.413   6.716
 4550POPC   C3A57725  15.998  21.272   7.132
 4550POPC   C4A57726  16.104  21.389   7.575
 4550POPC   C1B57727  15.580  21.427   6.292
 4550POPC   C2B57728  15.541  21.362   6.704
 4550POPC   C3B57729  15.573  21.537   7.078
 4550POPC   C4B57730  15.472  21.767   7.414
 4551POPC   NC357731   4.560  14.303   5.290
 4551POPC   PO457732   4.285  13.867   5.640
 4551POPC   GL157733   4.197  13.535   5.898
 4551POPC   GL257734   4.530  13.583   6.065
 4551POPC   C1A57735   4.071  13.496   6.305
 4551POPC   D2A57736   4.320  13.640   6.674
 4551POPC   C3A57737   4.243  13.384   7.059
 4551POPC   C4A57738   4.140  13.498   7.512
 4551POPC   C1B57739   4.716  13.976   6.225
 4551POPC   C2B57740   4.657  14.082   6.650
 4551POPC   C3B57741   4.555  13.927   7.059
 4551POPC   C4B57742   4.619  13.596   7.351
 4552POPC   NC357743  10.193  43.037   5.469
 4552POPC   PO457744  10.759  43.514   5.535
 4552POPC   GL157745  10.579  43.214   5.812
 4552POPC   GL257746  10.215  43.342   5.890
 4552POPC   C1A57747  10.672  43.181   6.255
 4552POPC   D2A57748  10.520  43.481   6.546
 4552POPC   C3A57749  10.344  43.356   6.938
 4552POPC   C4A57750  10.567  43.043   7.111
 4552POPC   C1B57751  10.234  42.961   6.157
 4552POPC   C2B57752  10.337  42.956   6.621
 4552POPC   C3B57753  10.148  42.789   7.029
 4552POPC   C4B57754  10.170  42.904   7.483
 4553POPC   NC357755   8.747  31.033   5.596
 4553POPC   PO457756   9.082  31.586   5.335
 4553POPC   GL157757   8.898  31.497   5.803
 4553POPC   GL257758   9.084  31.182   5.930
 4553POPC   C1A57759   8.960  31.676   6.260
 4553POPC   D2A57760   9.128  31.884   6.667
 4553POPC   C3A57761   9.163  31.689   7.084
 4553POPC   C4A57762   8.896  31.566   7.387
 4553POPC   C1B57763   9.000  31.168   6.326
 4553POPC   C2B57764   9.008  31.380   6.693
 4553POPC   C3B57765   9.008  31.191   7.062
 4553POPC   C4B57766   8.751  31.065   7.406
 4554POPC   NC357767  42.154   0.730   5.440
 4554POPC   PO457768  42.786   0.631   5.536
 4554POPC   GL157769  42.453   0.428   5.781
 4554POPC   GL257770  42.512   0.069   5.755
 4554POPC   C1A57771  42.405   0.372   6.240
 4554POPC   D2A57772  42.652   0.365   6.616
 4554POPC   C3A57773  42.538   0.528   7.037
 4554POPC   C4A57774  42.428   0.520   7.467
 4554POPC   C1B57775  42.140  44.984   6.000
 4554POPC   C2B57776  41.995   0.114   6.437
 4554POPC   C3B57777  42.222   0.198   6.826
 4554POPC   C4B57778  42.641   0.016   6.979
 4555POPC   NC357779  18.978  13.276   5.469
 4555POPC   PO457780  19.184  12.584   5.376
 4555POPC   GL157781  19.087  12.804   5.741
 4555POPC   GL257782  19.353  13.024   5.792
 4555POPC   C1A57783  18.812  12.810   6.103
 4555POPC   D2A57784  18.763  13.000   6.487
 4555POPC   C3A57785  19.092  12.862   6.735
 4555POPC   C4A57786  19.056  12.849   7.151
 4555POPC   C1B57787  19.230  13.077   6.243
 4555POPC   C2B57788  19.229  13.341   6.630
 4555POPC   C3B57789  19.415  13.207   7.040
 4555POPC   C4B57790  19.402  12.977   7.485
 4556POPC   NC357791  34.190   4.031   5.575
 4556POPC   PO457792  34.650   4.480   5.477
 4556POPC   GL157793  34.674   4.394   5.860
 4556POPC   GL257794  34.326   4.429   5.937
 4556POPC   C1A57795  34.767   4.584   6.219
 4556POPC   D2A57796  34.588   4.421   6.573
 4556POPC   C3A57797  34.760   4.554   6.956
 4556POPC   C4A57798  34.421   4.582   7.265
 4556POPC   C1B57799  34.386   4.052   6.211
 4556POPC   C2B57800  34.492   3.873   6.608
 4556POPC   C3B57801  34.590   4.070   6.986
 4556POPC   C4B57802  34.379   4.082   7.333
 4557POPC   NC357803  26.319  16.255   5.426
 4557POPC   PO457804  25.756  15.904   5.375
 4557POPC   GL157805  26.066  15.905   5.743
 4557POPC   GL257806  25.934  16.232   5.867
 4557POPC   C1A57807  26.256  15.984   6.195
 4557POPC   D2A57808  26.079  16.038   6.631
 4557POPC   C3A57809  26.250  15.868   7.034
 4557POPC   C4A57810  26.192  16.074   7.468
 4557POPC   C1B57811  25.870  16.393   6.306
 4557POPC   C2B57812  25.638  16.281   6.728
 4557POPC   C3B57813  25.778  16.079   7.141
 4557POPC   C4B57814  25.660  15.884   7.583
 4558POPC   NC357815  19.663  21.460   5.296
 4558POPC   PO457816  19.916  20.887   5.503
 4558POPC   GL157817  19.812  21.162   5.849
 4558POPC   GL257818  19.762  21.515   5.799
 4558POPC   C1A57819  19.850  21.130   6.300
 4558POPC   D2A57820  19.784  21.075   6.734
 4558POPC   C3A57821  20.023  21.303   6.999
 4558POPC   C4A57822  19.925  21.339   7.430
 4558POPC   C1B57823  19.913  21.634   6.202
 4558POPC   C2B57824  19.696  21.559   6.592
 4558POPC   C3B57825  19.670  21.650   7.021
 4558POPC   C4B57826  19.952  21.886   7.214
 4559POPC   NC357827  33.644  11.063   5.572
 4559POPC   PO457828  33.972  11.635   5.459
 4559POPC   GL157829  33.867  11.641   5.916
 4559POPC   GL257830  33.666  11.335   6.012
 4559POPC   C1A57831  34.121  11.590   6.314
 4559POPC   D2A57832  34.240  11.293   6.654
 4559POPC   C3A57833  34.135  11.358   7.106
 4559POPC   C4A57834  33.739  11.568   7.206
 4559POPC   C1B57835  33.913  11.054   6.296
 4559POPC   C2B57836  33.804  10.897   6.733
 4559POPC   C3B57837  33.676  11.030   7.183
 4559POPC   C4B57838  33.393  11.092   7.592
 4560POPC   NC357839  30.868  42.423   5.445
 4560POPC   PO457840  30.298  42.095   5.443
 4560POPC   GL157841  30.540  42.208   5.806
 4560POPC   GL257842  30.503  42.564   5.777
 4560POPC   C1A57843  30.717  42.376   6.227
 4560POPC   D2A57844  30.875  42.297   6.666
 4560POPC   C3A57845  30.603  42.177   7.001
 4560POPC   C4A57846  30.718  42.042   7.400
 4560POPC   C1B57847  30.310  42.677   6.152
 4560POPC   C2B57848  30.413  42.841   6.564
 4560POPC   C3B57849  30.646  42.725   6.937
 4560POPC   C4B57850  30.576  42.545   7.349
 4561POPC   NC357851  27.658  36.449   5.387
 4561POPC   PO457852  27.346  35.857   5.480
 4561POPC   GL157853  27.537  36.093   5.820
 4561POPC   GL257854  27.856  36.184   6.006
 4561POPC   C1A57855  27.415  36.062   6.238
 4561POPC   D2A57856  27.596  36.183   6.604
 4561POPC   C3A57857  27.519  35.985   6.978
 4561POPC   C4A57858  27.878  36.118   7.177
 4561POPC   C1B57859  27.818  35.750   6.210
 4561POPC   C2B57860  27.688  35.633   6.621
 4561POPC   C3B57861  27.933  35.643   7.019
 4561POPC   C4B57862  27.882  35.644   7.462
 4562POPC   NC357863  24.485   6.861   5.401
 4562POPC   PO457864  24.055   6.315   5.367
 4562POPC   GL157865  24.241   6.602   5.776
 4562POPC   GL257866  24.409   6.961   5.870
 4562POPC   C1A57867  24.343   6.658   6.246
 4562POPC   D2A57868  24.458   6.710   6.651
 4562POPC   C3A57869  24.344   6.402   6.951
 4562POPC   C4A57870  24.258   6.588   7.331
 4562POPC   C1B57871  24.114   7.117   6.169
 4562POPC   C2B57872  24.154   7.225   6.600
 4562POPC   C3B57873  24.238   7.022   6.971
 4562POPC   C4B57874  24.629   6.898   7.117
 4563POPC   NC357875  27.737  24.300   5.372
 4563POPC   PO457876  27.166  24.417   5.604
 4563POPC   GL157877  27.514  24.542   5.854
 4563POPC   GL257878  27.885  24.481   5.833
 4563POPC   C1A57879  27.498  24.685   6.271
 4563POPC   D2A57880  27.463  24.440   6.654
 4563POPC   C3A57881  27.460  24.523   7.086
 4563POPC   C4A57882  27.308  24.842   7.323
 4563POPC   C1B57883  28.014  24.669   6.196
 4563POPC   C2B57884  27.876  24.783   6.599
 4563POPC   C3B57885  27.926  24.630   6.993
 4563POPC   C4B57886  27.800  24.711   7.468
 4564POPC   NC357887  11.705  40.205   5.419
 4564POPC   PO457888  12.267  39.805   5.350
 4564POPC   GL157889  12.067  39.990   5.733
 4564POPC   GL257890  11.799  39.812   5.829
 4564POPC   C1A57891  11.968  40.132   6.176
 4564POPC   D2A57892  12.098  40.052   6.603
 4564POPC   C3A57893  11.842  40.249   6.897
 4564POPC   C4A57894  11.869  40.309   7.309
 4564POPC   C1B57895  11.642  39.719   6.224
 4564POPC   C2B57896  11.551  39.928   6.597
 4564POPC   C3B57897  11.650  39.797   6.998
 4564POPC   C4B57898  11.696  39.860   7.419
 4565POPC   NC357899  10.098  33.308   5.602
 4565POPC   PO457900  10.624  32.826   5.540
 4565POPC   GL157901  10.414  32.978   5.828
 4565POPC   GL257902  10.284  32.651   5.899
 4565POPC   C1A57903  10.320  33.083   6.210
 4565POPC   D2A57904  10.499  32.882   6.522
 4565POPC   C3A57905  10.509  33.000   6.929
 4565POPC   C4A57906  10.771  32.725   7.147
 4565POPC   C1B57907  10.259  32.474   6.274
 4565POPC   C2B57908  10.184  32.522   6.686
 4565POPC   C3B57909  10.277  32.596   7.118
 4565POPC   C4B57910  10.359  32.615   7.548
 4566POPC   NC357911   9.762  11.826   5.330
 4566POPC   PO457912   9.692  11.178   5.423
 4566POPC   GL157913   9.585  11.235   5.835
 4566POPC   GL257914   9.929  11.093   5.902
 4566POPC   C1A57915   9.482  11.064   6.251
 4566POPC   D2A57916   9.281  10.957   6.653
 4566POPC   C3A57917   9.412  11.266   6.909
 4566POPC   C4A57918   9.608  11.205   7.235
 4566POPC   C1B57919   9.940  11.443   6.181
 4566POPC   C2B57920   9.808  11.337   6.585
 4566POPC   C3B57921  10.004  11.101   6.915
 4566POPC   C4B57922  10.079  11.330   7.280
 4567POPC   NC357923  26.240  41.148   5.452
 4567POPC   PO457924  26.146  40.514   5.608
 4567POPC   GL157925  26.149  40.836   5.914
 4567POPC   GL257926  25.882  41.071   5.827
 4567POPC   C1A57927  26.118  40.728   6.380
 4567POPC   D2A57928  25.859  40.646   6.744
 4567POPC   C3A57929  26.038  40.498   7.122
 4567POPC   C4A57930  26.008  40.452   7.579
 4567POPC   C1B57931  26.088  41.228   6.242
 4567POPC   C2B57932  26.052  41.153   6.674
 4567POPC   C3B57933  25.783  41.091   7.014
 4567POPC   C4B57934  25.910  40.921   7.376
 4568POPC   NC357935  22.078   8.881   5.486
 4568POPC   PO457936  22.624   8.606   5.628
 4568POPC   GL157937  22.297   8.798   5.944
 4568POPC   GL257938  21.882   8.732   5.912
 4568POPC   C1A57939  22.363   9.166   6.222
 4568POPC   D2A57940  22.556   9.317   6.610
 4568POPC   C3A57941  22.347   9.076   6.929
 4568POPC   C4A57942  21.880   9.194   7.073
 4568POPC   C1B57943  21.927   8.888   6.308
 4568POPC   C2B57944  22.150   8.726   6.621
 4568POPC   C3B57945  21.997   8.712   7.026
 4568POPC   C4B57946  22.203   8.788   7.387
 4569POPC   NC357947  23.540  21.190   5.339
 4569POPC   PO457948  23.772  21.731   5.473
 4569POPC   GL157949  23.729  21.571   5.863
 4569POPC   GL257950  23.961  21.314   5.794
 4569POPC   C1A57951  23.855  21.528   6.308
 4569POPC   D2A57952  23.682  21.646   6.701
 4569POPC   C3A57953  23.352  21.419   6.905
 4569POPC   C4A57954  23.338  21.204   7.308
 4569POPC   C1B57955  23.995  21.048   6.149
 4569POPC   C2B57956  23.848  21.030   6.578
 4569POPC   C3B57957  23.806  21.174   6.987
 4569POPC   C4B57958  24.185  21.091   7.158
 4570POPC   NC357959  27.574  42.500   5.396
 4570POPC   PO457960  27.590  41.777   5.303
 4570POPC   GL157961  27.483  41.975   5.763
 4570POPC   GL257962  27.538  42.339   5.869
 4570POPC   C1A57963  27.748  42.011   6.178
 4570POPC   D2A57964  27.959  42.161   6.562
 4570POPC   C3A57965  27.700  42.325   6.855
 4570POPC   C4A57966  27.597  42.156   7.240
 4570POPC   C1B57967  27.673  42.500   6.285
 4570POPC   C2B57968  27.956  42.705   6.580
 4570POPC   C3B57969  27.856  42.800   7.001
 4570POPC   C4B57970  27.432  42.655   7.178
 4571POPC   NC357971  16.997   6.847   5.667
 4571POPC   PO457972  16.354   6.809   5.436
 4571POPC   GL157973  16.571   6.677   5.860
 4571POPC   GL257974  16.814   6.403   5.888
 4571POPC   C1A57975  16.643   6.844   6.273
 4571POPC   D2A57976  16.858   6.868   6.653
 4571POPC   C3A57977  16.612   6.889   7.002
 4571POPC   C4A57978  16.827   6.726   7.394
 4571POPC   C1B57979  16.608   6.335   6.250
 4571POPC   C2B57980  16.774   6.358   6.641
 4571POPC   C3B57981  16.622   6.388   7.038
 4571POPC   C4B57982  16.326   6.626   7.331
 4572POPC   NC357983  20.882  32.919   5.219
 4572POPC   PO457984  21.549  32.945   5.438
 4572POPC   GL157985  21.485  33.037   5.854
 4572POPC   GL257986  21.232  32.808   5.845
 4572POPC   C1A57987  21.621  33.030   6.280
 4572POPC   D2A57988  21.739  33.028   6.704
 4572POPC   C3A57989  21.509  33.240   7.003
 4572POPC   C4A57990  21.614  32.928   7.365
 4572POPC   C1B57991  21.261  32.640   6.256
 4572POPC   C2B57992  21.231  32.905   6.633
 4572POPC   C3B57993  21.236  32.802   7.047
 4572POPC   C4B57994  21.150  33.158   7.344
 4573POPC   NC357995   5.646   6.812   5.354
 4573POPC   PO457996   6.237   6.812   5.672
 4573POPC   GL157997   5.836   6.671   5.821
 4573POPC   GL257998   5.768   7.021   5.837
 4573POPC   C1A57999   5.606   6.552   6.230
 4573POPC   D2A58000   5.692   6.367   6.678
 4573POPC   C3A58001   5.554   6.585   7.087
 4573POPC   C4A58002   5.688   6.507   7.544
 4573POPC   C1B58003   5.983   6.903   6.252
 4573POPC   C2B58004   6.086   6.740   6.633
 4573POPC   C3B58005   6.082   6.593   7.030
 4573POPC   C4B58006   5.946   6.857   7.312
 4574POPC   NC358007  38.419  25.283   5.325
 4574POPC   PO458008  38.194  25.700   5.742
 4574POPC   GL158009  38.486  25.347   5.833
 4574POPC   GL258010  38.368  24.991   5.792
 4574POPC   C1A58011  38.599  25.145   6.214
 4574POPC   D2A58012  38.313  25.124   6.544
 4574POPC   C3A58013  38.543  25.153   6.902
 4574POPC   C4A58014  38.483  25.374   7.205
 4574POPC   C1B58015  38.264  24.723   6.164
 4574POPC   C2B58016  38.037  24.696   6.565
 4574POPC   C3B58017  38.170  24.826   6.986
 4574POPC   C4B58018  38.495  24.888   7.353
 4575POPC   NC358019  12.872  16.092   5.403
 4575POPC   PO458020  12.294  15.631   5.515
 4575POPC   GL158021  12.637  15.692   5.836
 4575POPC   GL258022  12.988  15.869   5.841
 4575POPC   C1A58023  12.760  15.736   6.281
 4575POPC   D2A58024  13.026  15.868   6.613
 4575POPC   C3A58025  12.802  15.798   6.962
 4575POPC   C4A58026  12.522  16.055   7.184
 4575POPC   C1B58027  13.173  16.152   6.176
 4575POPC   C2B58028  13.048  16.420   6.554
 4575POPC   C3B58029  12.920  16.311   6.964
 4575POPC   C4B58030  13.186  16.060   7.177
 4576POPC   NC358031  12.019   1.727   5.347
 4576POPC   PO458032  11.919   2.336   5.361
 4576POPC   GL158033  12.051   2.080   5.739
 4576POPC   GL258034  12.112   1.702   5.849
 4576POPC   C1A58035  12.021   2.103   6.174
 4576POPC   D2A58036  11.958   1.869   6.539
 4576POPC   C3A58037  11.933   2.029   6.943
 4576POPC   C4A58038  11.742   1.823   7.276
 4576POPC   C1B58039  12.366   1.684   6.266
 4576POPC   C2B58040  12.409   1.702   6.759
 4576POPC   C3B58041  12.274   1.719   7.225
 4576POPC   C4B58042  12.535   1.619   7.617
 4577POPC   NC358043  24.857  16.677   5.468
 4577POPC   PO458044  25.564  16.505   5.572
 4577POPC   GL158045  25.450  16.669   5.937
 4577POPC   GL258046  25.099  16.734   5.915
 4577POPC   C1A58047  25.347  16.435   6.293
 4577POPC   D2A58048  25.088  16.392   6.634
 4577POPC   C3A58049  25.253  16.511   7.015
 4577POPC   C4A58050  25.166  16.607   7.453
 4577POPC   C1B58051  25.209  16.941   6.308
 4577POPC   C2B58052  25.074  16.904   6.740
 4577POPC   C3B58053  24.814  16.755   7.093
 4577POPC   C4B58054  24.793  16.949   7.503
 4578POPC   NC358055  27.745  16.986   5.397
 4578POPC   PO458056  27.336  16.511   5.631
 4578POPC   GL158057  27.542  16.658   5.973
 4578POPC   GL258058  27.592  16.980   5.876
 4578POPC   C1A58059  27.371  16.635   6.392
 4578POPC   D2A58060  27.348  16.638   6.823
 4578POPC   C3A58061  27.733  16.789   6.968
 4578POPC   C4A58062  27.976  16.648   7.279
 4578POPC   C1B58063  27.186  17.030   6.099
 4578POPC   C2B58064  27.280  17.127   6.533
 4578POPC   C3B58065  27.372  17.166   6.982
 4578POPC   C4B58066  27.648  17.160   7.361
 4579POPC   NC358067   8.573  37.088   5.602
 4579POPC   PO458068   7.917  36.910   5.365
 4579POPC   GL158069   7.825  36.681   5.741
 4579POPC   GL258070   8.167  36.594   5.874
 4579POPC   C1A58071   7.788  36.843   6.136
 4579POPC   D2A58072   7.890  37.107   6.432
 4579POPC   C3A58073   8.090  36.860   6.744
 4579POPC   C4A58074   7.972  36.791   7.167
 4579POPC   C1B58075   8.397  36.741   6.248
 4579POPC   C2B58076   8.601  36.910   6.629
 4579POPC   C3B58077   8.484  37.001   7.040
 4579POPC   C4B58078   8.667  37.227   7.329
 4580POPC   NC358079  26.403  18.178   5.413
 4580POPC   PO458080  27.043  18.341   5.423
 4580POPC   GL158081  26.784  18.214   5.777
 4580POPC   GL258082  26.549  18.440   5.824
 4580POPC   C1A58083  26.837  18.063   6.193
 4580POPC   D2A58084  26.610  18.266   6.549
 4580POPC   C3A58085  26.790  18.245   6.938
 4580POPC   C4A58086  26.846  18.172   7.355
 4580POPC   C1B58087  26.337  18.136   6.119
 4580POPC   C2B58088  26.176  18.013   6.539
 4580POPC   C3B58089  26.374  17.962   6.948
 4580POPC   C4B58090  26.282  18.034   7.406
 4581POPC   NC358091   0.360   2.159   5.251
 4581POPC   PO458092   0.261   1.597   5.627
 4581POPC   GL158093   0.302   1.928   5.917
 4581POPC   GL258094   0.327   2.280   5.813
 4581POPC   C1A58095   0.320   1.927   6.369
 4581POPC   D2A58096   0.453   1.661   6.705
 4581POPC   C3A58097   0.233   1.810   7.039
 4581POPC   C4A58098   0.105   1.600   7.393
 4581POPC   C1B58099   0.614   2.315   6.216
 4581POPC   C2B58100   0.517   2.359   6.689
 4581POPC   C3B58101   0.610   2.236   7.134
 4581POPC   C4B58102   0.698   2.233   7.603
 4582POPC   NC358103   1.161  15.620   5.064
 4582POPC   PO458104   1.593  15.249   5.375
 4582POPC   GL158105   1.431  15.121   5.775
 4582POPC   GL258106   1.586  14.849   5.854
 4582POPC   C1A58107   1.321  15.257   6.217
 4582POPC   D2A58108   0.943  15.363   6.479
 4582POPC   C3A58109   0.905  15.372   6.939
 4582POPC   C4A58110   0.851  15.003   7.231
 4582POPC   C1B58111   1.209  14.756   6.084
 4582POPC   C2B58112   1.137  14.865   6.522
 4582POPC   C3B58113   1.302  15.043   6.924
 4582POPC   C4B58114   1.601  15.058   7.274
 4583POPC   NC358115   4.426   3.078   5.446
 4583POPC   PO458116   4.129   3.606   5.359
 4583POPC   GL158117   4.240   3.445   5.794
 4583POPC   GL258118   4.124   3.076   5.841
 4583POPC   C1A58119   4.515   3.665   6.139
 4583POPC   D2A58120   4.505   3.980   6.506
 4583POPC   C3A58121   4.500   3.817   6.950
 4583POPC   C4A58122   4.271   3.687   7.350
 4583POPC   C1B58123   4.467   3.146   6.168
 4583POPC   C2B58124   4.463   3.390   6.560
 4583POPC   C3B58125   4.249   3.343   6.950
 4583POPC   C4B58126   4.395   3.190   7.317
 4584POPC   NC358127   1.678  22.600   5.680
 4584POPC   PO458128   1.793  23.004   5.170
 4584POPC   GL158129   2.002  23.019   5.645
 4584POPC   GL258130   2.312  23.227   5.630
 4584POPC   C1A58131   2.104  22.811   6.105
 4584POPC   D2A58132   1.807  22.789   6.489
 4584POPC   C3A58133   1.968  22.921   6.889
 4584POPC   C4A58134   2.248  22.734   7.176
 4584POPC   C1B58135   2.360  23.251   6.094
 4584POPC   C2B58136   2.301  23.066   6.515
 4584POPC   C3B58137   2.434  23.132   6.941
 4584POPC   C4B58138   2.424  23.198   7.427
 4585POPC   NC358139  14.619  19.000   5.369
 4585POPC   PO458140  13.953  18.949   5.226
 4585POPC   GL158141  14.088  18.991   5.705
 4585POPC   GL258142  14.459  19.007   5.840
 4585POPC   C1A58143  14.144  19.277   6.111
 4585POPC   D2A58144  14.327  19.112   6.524
 4585POPC   C3A58145  14.202  19.285   6.936
 4585POPC   C4A58146  14.245  19.146   7.382
 4585POPC   C1B58147  14.656  19.310   6.147
 4585POPC   C2B58148  14.727  19.484   6.553
 4585POPC   C3B58149  14.691  19.391   6.963
 4585POPC   C4B58150  14.695  19.032   7.194
 4586POPC   NC358151  20.914   5.046   5.491
 4586POPC   PO458152  20.293   5.233   5.388
 4586POPC   GL158153  20.482   5.092   5.775
 4586POPC   GL258154  20.646   5.391   5.800
 4586POPC   C1A58155  20.690   5.074   6.197
 4586POPC   D2A58156  20.497   5.243   6.574
 4586POPC   C3A58157  20.698   5.122   6.916
 4586POPC   C4A58158  20.515   5.203   7.275
 4586POPC   C1B58159  20.857   5.583   6.186
 4586POPC   C2B58160  20.959   5.481   6.624
 4586POPC   C3B58161  20.826   5.572   7.084
 4586POPC   C4B58162  20.829   5.500   7.561
 4587POPC   NC358163  18.636  14.192   5.679
 4587POPC   PO458164  19.191  14.419   5.376
 4587POPC   GL158165  19.082  14.520   5.797
 4587POPC   GL258166  18.798  14.698   5.728
 4587POPC   C1A58167  19.249  14.474   6.228
 4587POPC   D2A58168  19.029  14.353   6.600
 4587POPC   C3A58169  19.110  14.408   7.024
 4587POPC   C4A58170  19.240  14.384   7.480
 4587POPC   C1B58171  18.730  14.564   6.177
 4587POPC   C2B58172  18.636  14.655   6.558
 4587POPC   C3B58173  18.597  14.453   6.910
 4587POPC   C4B58174  18.712  14.517   7.313
 4588POPC   NC358175  11.735  33.246   5.504
 4588POPC   PO458176  12.265  32.819   5.367
 4588POPC   GL158177  12.172  32.993   5.779
 4588POPC   GL258178  12.485  33.205   5.822
 4588POPC   C1A58179  11.920  32.930   6.196
 4588POPC   D2A58180  11.781  32.644   6.538
 4588POPC   C3A58181  11.871  32.860   6.907
 4588POPC   C4A58182  11.956  33.007   7.307
 4588POPC   C1B58183  12.427  32.991   6.217
 4588POPC   C2B58184  12.232  33.041   6.612
 4588POPC   C3B58185  12.397  33.068   7.043
 4588POPC   C4B58186  12.411  33.116   7.527
 4589POPC   NC358187  31.908  16.650   5.552
 4589POPC   PO458188  31.188  16.555   5.473
 4589POPC   GL158189  31.381  16.765   5.816
 4589POPC   GL258190  31.255  17.118   5.854
 4589POPC   C1A58191  31.548  16.556   6.188
 4589POPC   D2A58192  31.713  16.444   6.585
 4589POPC   C3A58193  31.570  16.756   6.851
 4589POPC   C4A58194  31.439  16.730   7.249
 4589POPC   C1B58195  31.388  17.048   6.258
 4589POPC   C2B58196  31.124  17.049   6.593
 4589POPC   C3B58197  31.127  17.303   6.912
 4589POPC   C4B58198  31.109  17.101   7.291
 4590POPC   NC358199  36.460   3.013   5.506
 4590POPC   PO458200  35.984   2.483   5.309
 4590POPC   GL158201  35.929   2.613   5.786
 4590POPC   GL258202  36.074   2.930   5.877
 4590POPC   C1A58203  35.978   2.582   6.281
 4590POPC   D2A58204  35.887   2.589   6.736
 4590POPC   C3A58205  36.103   2.388   7.073
 4590POPC   C4A58206  35.979   2.532   7.478
 4590POPC   C1B58207  36.300   2.967   6.301
 4590POPC   C2B58208  36.369   2.779   6.716
 4590POPC   C3B58209  36.134   2.897   7.079
 4590POPC   C4B58210  36.209   2.978   7.522
 4591POPC   NC358211   3.090  34.658   5.308
 4591POPC   PO458212   2.622  34.229   5.181
 4591POPC   GL158213   2.735  34.322   5.636
 4591POPC   GL258214   2.717  34.696   5.721
 4591POPC   C1A58215   2.736  34.354   6.127
 4591POPC   D2A58216   2.465  34.573   6.492
 4591POPC   C3A58217   2.563  34.550   6.958
 4591POPC   C4A58218   2.908  34.360   7.217
 4591POPC   C1B58219   2.901  34.830   6.135
 4591POPC   C2B58220   3.054  34.614   6.490
 4591POPC   C3B58221   3.021  34.766   6.891
 4591POPC   C4B58222   2.883  34.878   7.289
 4592POPC   NC358223   6.172  18.102   5.548
 4592POPC   PO458224   5.541  18.366   5.394
 4592POPC   GL158225   5.767  18.389   5.748
 4592POPC   GL258226   6.096  18.561   5.761
 4592POPC   C1A58227   5.658  18.443   6.154
 4592POPC   D2A58228   5.919  18.154   6.394
 4592POPC   C3A58229   5.933  18.174   6.840
 4592POPC   C4A58230   5.904  18.250   7.248
 4592POPC   C1B58231   6.121  18.634   6.204
 4592POPC   C2B58232   5.921  18.635   6.607
 4592POPC   C3B58233   6.145  18.621   6.994
 4592POPC   C4B58234   5.992  18.741   7.402
 4593POPC   NC358235  23.464  29.618   5.341
 4593POPC   PO458236  23.772  30.280   5.375
 4593POPC   GL158237  23.635  29.985   5.712
 4593POPC   GL258238  23.899  29.819   5.930
 4593POPC   C1A58239  23.411  29.932   6.105
 4593POPC   D2A58240  23.237  29.800   6.502
 4593POPC   C3A58241  23.468  29.958   6.841
 4593POPC   C4A58242  23.637  30.024   7.225
 4593POPC   C1B58243  24.003  29.922   6.351
 4593POPC   C2B58244  23.989  29.907   6.837
 4593POPC   C3B58245  24.130  30.124   7.239
 4593POPC   C4B58246  23.931  30.315   7.637
 4594POPC   NC358247  38.998   2.869   5.638
 4594POPC   PO458248  38.478   2.767   5.172
 4594POPC   GL158249  38.446   2.807   5.668
 4594POPC   GL258250  38.654   2.633   5.912
 4594POPC   C1A58251  38.419   3.005   6.128
 4594POPC   D2A58252  38.577   3.233   6.519
 4594POPC   C3A58253  38.477   3.074   6.963
 4594POPC   C4A58254  38.446   2.774   7.314
 4594POPC   C1B58255  38.684   2.554   6.319
 4594POPC   C2B58256  38.779   2.770   6.679
 4594POPC   C3B58257  38.909   2.708   7.084
 4594POPC   C4B58258  38.755   2.354   7.256
 4595POPC   NC358259  39.351  13.902   5.423
 4595POPC   PO458260  39.385  13.325   5.418
 4595POPC   GL158261  39.115  13.519   5.745
 4595POPC   GL258262  39.066  13.877   5.832
 4595POPC   C1A58263  39.211  13.518   6.191
 4595POPC   D2A58264  39.046  13.555   6.584
 4595POPC   C3A58265  39.273  13.339   6.878
 4595POPC   C4A58266  39.075  13.350   7.232
 4595POPC   C1B58267  39.126  14.029   6.263
 4595POPC   C2B58268  39.337  13.978   6.673
 4595POPC   C3B58269  39.206  13.810   7.050
 4595POPC   C4B58270  38.955  13.837   7.435
 4596POPC   NC358271   3.414  33.437   5.552
 4596POPC   PO458272   3.196  32.800   5.556
 4596POPC   GL158273   3.500  33.015   5.816
 4596POPC   GL258274   3.228  33.138   5.982
 4596POPC   C1A58275   3.684  33.012   6.232
 4596POPC   D2A58276   3.729  33.151   6.673
 4596POPC   C3A58277   3.770  32.938   7.075
 4596POPC   C4A58278   3.748  32.971   7.542
 4596POPC   C1B58279   3.394  33.455   6.225
 4596POPC   C2B58280   3.410  33.546   6.662
 4596POPC   C3B58281   3.305  33.302   7.043
 4596POPC   C4B58282   3.334  33.318   7.500
 4597POPC   NC358283  13.704   9.394   5.497
 4597POPC   PO458284  13.421   9.987   5.414
 4597POPC   GL158285  13.597  10.004   5.811
 4597POPC   GL258286  13.847   9.758   5.884
 4597POPC   C1A58287  13.449   9.887   6.215
 4597POPC   D2A58288  13.565   9.662   6.581
 4597POPC   C3A58289  13.489   9.882   6.938
 4597POPC   C4A58290  13.867  10.025   7.131
 4597POPC   C1B58291  13.811   9.389   6.202
 4597POPC   C2B58292  13.990   9.356   6.639
 4597POPC   C3B58293  13.773   9.468   7.025
 4597POPC   C4B58294  13.528   9.530   7.389
 4598POPC   NC358295   4.587  13.506   5.563
 4598POPC   PO458296   4.947  14.049   5.376
 4598POPC   GL158297   5.092  13.680   5.670
 4598POPC   GL258298   5.405  13.424   5.651
 4598POPC   C1A58299   5.058  13.607   6.115
 4598POPC   D2A58300   5.132  13.800   6.512
 4598POPC   C3A58301   4.951  13.632   6.871
 4598POPC   C4A58302   5.051  13.845   7.218
 4598POPC   C1B58303   5.579  13.617   6.039
 4598POPC   C2B58304   5.595  13.568   6.496
 4598POPC   C3B58305   5.481  13.707   6.907
 4598POPC   C4B58306   5.399  13.515   7.319
 4599POPC   NC358307  36.536  25.872   5.305
 4599POPC   PO458308  36.180  26.286   5.657
 4599POPC   GL158309  36.229  25.896   5.825
 4599POPC   GL258310  35.908  25.723   5.747
 4599POPC   C1A58311  36.294  25.856   6.262
 4599POPC   D2A58312  36.144  26.117   6.607
 4599POPC   C3A58313  36.419  26.164   6.955
 4599POPC   C4A58314  36.468  26.529   7.187
 4599POPC   C1B58315  35.799  25.873   6.164
 4599POPC   C2B58316  35.838  25.711   6.595
 4599POPC   C3B58317  35.833  25.900   7.018
 4599POPC   C4B58318  35.713  25.950   7.464
 4600POPC   NC358319  35.307  21.294   5.376
 4600POPC   PO458320  35.022  21.093   5.900
 4600POPC   GL158321  35.473  21.242   5.904
 4600POPC   GL258322  35.519  21.609   5.862
 4600POPC   C1A58323  35.567  21.317   6.329
 4600POPC   D2A58324  35.213  21.257   6.615
 4600POPC   C3A58325  35.262  21.183   7.046
 4600POPC   C4A58326  35.006  21.502   7.242
 4600POPC   C1B58327  35.606  21.876   6.221
 4600POPC   C2B58328  35.455  21.889   6.653
 4600POPC   C3B58329  35.439  21.690   7.061
 4600POPC   C4B58330  35.491  21.456   7.443
 4601POPC   NC358331  42.842  29.376   5.408
 4601POPC   PO458332  43.311  28.915   5.334
 4601POPC   GL158333  43.198  29.129   5.699
 4601POPC   GL258334  42.941  28.888   5.796
 4601POPC   C1A58335  43.064  29.300   6.095
 4601POPC   D2A58336  43.191  29.528   6.459
 4601POPC   C3A58337  43.175  29.250   6.822
 4601POPC   C4A58338  42.868  29.146   7.156
 4601POPC   C1B58339  43.287  28.803   6.095
 4601POPC   C2B58340  43.233  28.765   6.537
 4601POPC   C3B58341  43.186  28.736   6.993
 4601POPC   C4B58342  43.095  28.794   7.446
 4602POPC   NC358343  16.065  36.178   5.627
 4602POPC   PO458344  15.734  35.571   5.383
 4602POPC   GL158345  15.787  35.757   5.786
 4602POPC   GL258346  15.575  36.039   5.716
 4602POPC   C1A58347  15.920  35.861   6.243
 4602POPC   D2A58348  15.779  35.931   6.684
 4602POPC   C3A58349  15.954  36.067   7.082
 4602POPC   C4A58350  15.992  35.944   7.547
 4602POPC   C1B58351  15.465  36.061   6.132
 4602POPC   C2B58352  15.453  36.282   6.519
 4602POPC   C3B58353  15.470  36.334   6.979
 4602POPC   C4B58354  15.558  36.204   7.386
 4603POPC   NC358355  11.344   5.309   5.478
 4603POPC   PO458356  10.963   4.723   5.422
 4603POPC   GL158357  10.994   4.997   5.797
 4603POPC   GL258358  11.348   4.949   5.852
 4603POPC   C1A58359  10.981   5.183   6.239
 4603POPC   D2A58360  11.251   5.252   6.598
 4603POPC   C3A58361  11.116   5.105   6.982
 4603POPC   C4A58362  10.953   5.269   7.327
 4603POPC   C1B58363  11.258   4.744   6.233
 4603POPC   C2B58364  11.525   4.790   6.571
 4603POPC   C3B58365  11.605   4.927   6.959
 4603POPC   C4B58366  11.427   4.932   7.359
 4604POPC   NC358367  18.845  39.352   5.545
 4604POPC   PO458368  19.385  39.052   5.219
 4604POPC   GL158369  19.144  38.977   5.666
 4604POPC   GL258370  19.373  38.974   5.873
 4604POPC   C1A58371  18.944  39.193   6.137
 4604POPC   D2A58372  19.056  39.262   6.634
 4604POPC   C3A58373  18.803  39.383   7.048
 4604POPC   C4A58374  18.815  39.357   7.556
 4604POPC   C1B58375  19.388  39.003   6.297
 4604POPC   C2B58376  19.339  38.821   6.666
 4604POPC   C3B58377  19.467  38.874   7.046
 4604POPC   C4B58378  19.261  39.237   7.199
 4605POPC   NC358379   8.607  10.164   5.454
 4605POPC   PO458380   8.261  10.770   5.500
 4605POPC   GL158381   8.340  10.651   5.884
 4605POPC   GL258382   8.244  10.348   5.827
 4605POPC   C1A58383   8.145  10.658   6.273
 4605POPC   D2A58384   8.159  10.364   6.591
 4605POPC   C3A58385   8.358  10.546   6.898
 4605POPC   C4A58386   8.287  10.745   7.238
 4605POPC   C1B58387   8.271  10.097   6.165
 4605POPC   C2B58388   8.227   9.868   6.543
 4605POPC   C3B58389   8.098   9.982   6.950
 4605POPC   C4B58390   8.095  10.281   7.272
 4606POPC   NC358391   8.937  13.985   5.328
 4606POPC   PO458392   8.874  13.367   5.436
 4606POPC   GL158393   8.943  13.643   5.786
 4606POPC   GL258394   8.693  13.519   5.999
 4606POPC   C1A58395   8.937  13.911   6.191
 4606POPC   D2A58396   9.157  14.094   6.583
 4606POPC   C3A58397   8.971  13.968   6.984
 4606POPC   C4A58398   9.099  13.766   7.368
 4606POPC   C1B58399   9.148  13.444   6.209
 4606POPC   C2B58400   9.210  13.578   6.641
 4606POPC   C3B58401   8.985  13.422   7.008
 4606POPC   C4B58402   8.622  13.578   7.234
 4607POPC   NC358403   1.049  12.488   5.206
 4607POPC   PO458404   0.967  11.899   5.591
 4607POPC   GL158405   1.162  12.207   5.821
 4607POPC   GL258406   1.498  12.164   5.712
 4607POPC   C1A58407   1.025  12.165   6.241
 4607POPC   D2A58408   0.912  11.882   6.554
 4607POPC   C3A58409   0.997  12.122   6.922
 4607POPC   C4A58410   1.107  11.977   7.294
 4607POPC   C1B58411   1.484  11.981   6.160
 4607POPC   C2B58412   1.403  12.112   6.590
 4607POPC   C3B58413   1.540  12.171   6.999
 4607POPC   C4B58414   1.498  12.271   7.438
 4608POPC   NC358415  13.704   4.431   5.412
 4608POPC   PO458416  13.293   3.910   5.339
 4608POPC   GL158417  13.544   4.037   5.749
 4608POPC   GL258418  13.538   4.428   5.893
 4608POPC   C1A58419  13.565   4.043   6.219
 4608POPC   D2A58420  13.438   4.364   6.496
 4608POPC   C3A58421  13.363   4.289   6.945
 4608POPC   C4A58422  13.560   4.048   7.295
 4608POPC   C1B58423  13.911   4.428   6.185
 4608POPC   C2B58424  13.941   4.281   6.616
 4608POPC   C3B58425  13.900   4.362   7.045
 4608POPC   C4B58426  13.815   4.444   7.490
 4609POPC   NC358427  20.106  13.725   5.596
 4609POPC   PO458428  19.495  13.378   5.416
 4609POPC   GL158429  19.796  13.313   5.747
 4609POPC   GL258430  20.104  13.169   5.576
 4609POPC   C1A58431  19.862  13.489   6.208
 4609POPC   D2A58432  19.647  13.693   6.574
 4609POPC   C3A58433  19.822  13.880   6.953
 4609POPC   C4A58434  19.640  13.633   7.279
 4609POPC   C1B58435  20.154  13.107   6.030
 4609POPC   C2B58436  20.179  13.171   6.505
 4609POPC   C3B58437  19.996  13.417   6.852
 4609POPC   C4B58438  20.149  13.600   7.243
 4610POPC   NC358439  35.634  30.968   5.548
 4610POPC   PO458440  35.052  30.705   5.555
 4610POPC   GL158441  35.156  30.532   5.951
 4610POPC   GL258442  35.485  30.452   5.886
 4610POPC   C1A58443  34.988  30.519   6.345
 4610POPC   D2A58444  35.178  30.747   6.689
 4610POPC   C3A58445  35.031  30.699   7.089
 4610POPC   C4A58446  34.933  30.851   7.512
 4610POPC   C1B58447  35.528  30.613   6.336
 4610POPC   C2B58448  35.721  30.812   6.738
 4610POPC   C3B58449  35.917  30.697   7.162
 4610POPC   C4B58450  35.837  30.872   7.617
 4611POPC   NC358451  12.686   7.947   5.432
 4611POPC   PO458452  13.092   8.533   5.416
 4611POPC   GL158453  12.905   8.382   5.826
 4611POPC   GL258454  12.918   8.005   5.867
 4611POPC   C1A58455  12.863   8.272   6.307
 4611POPC   D2A58456  12.690   8.221   6.752
 4611POPC   C3A58457  12.826   8.483   7.103
 4611POPC   C4A58458  12.692   8.515   7.548
 4611POPC   C1B58459  12.796   7.713   6.201
 4611POPC   C2B58460  12.804   7.724   6.644
 4611POPC   C3B58461  12.626   7.783   7.047
 4611POPC   C4B58462  12.847   8.021   7.364
 4612POPC   NC358463  43.108  11.822   5.581
 4612POPC   PO458464  43.156  11.307   5.258
 4612POPC   GL158465  43.213  11.318   5.696
 4612POPC   GL258466  42.878  11.397   5.775
 4612POPC   C1A58467  43.223  11.348   6.151
 4612POPC   D2A58468  43.260  11.540   6.543
 4612POPC   C3A58469  43.254  11.272   6.925
 4612POPC   C4A58470  43.325  11.499   7.300
 4612POPC   C1B58471  42.730  11.469   6.191
 4612POPC   C2B58472  42.780  11.291   6.593
 4612POPC   C3B58473  42.618  11.275   6.992
 4612POPC   C4B58474  42.843  11.302   7.318
 4613POPC   NC358475  30.516  13.979   5.024
 4613POPC   PO458476  30.887  13.663   5.497
 4613POPC   GL158477  30.775  13.526   5.886
 4613POPC   GL258478  30.438  13.441   5.900
 4613POPC   C1A58479  30.720  13.774   6.273
 4613POPC   D2A58480  30.542  13.899   6.652
 4613POPC   C3A58481  30.875  13.858   6.952
 4613POPC   C4A58482  30.687  13.813   7.308
 4613POPC   C1B58483  30.614  13.295   6.316
 4613POPC   C2B58484  30.608  13.381   6.750
 4613POPC   C3B58485  30.493  13.363   7.179
 4613POPC   C4B58486  30.562  13.464   7.641
 4614POPC   NC358487  22.848  33.542   5.598
 4614POPC   PO458488  22.987  32.878   5.346
 4614POPC   GL158489  23.024  32.916   5.772
 4614POPC   GL258490  23.207  32.621   5.786
 4614POPC   C1A58491  23.044  33.161   6.160
 4614POPC   D2A58492  23.048  33.417   6.536
 4614POPC   C3A58493  23.194  33.226   6.916
 4614POPC   C4A58494  22.908  33.293   7.298
 4614POPC   C1B58495  23.087  32.644   6.220
 4614POPC   C2B58496  22.996  32.874   6.597
 4614POPC   C3B58497  22.823  32.892   6.991
 4614POPC   C4B58498  22.569  32.663   7.175
 4615POPC   NC358499  32.005  41.173   5.618
 4615POPC   PO458500  32.429  41.629   5.313
 4615POPC   GL158501  32.316  41.567   5.737
 4615POPC   GL258502  32.102  41.806   5.882
 4615POPC   C1A58503  32.532  41.377   6.066
 4615POPC   D2A58504  32.718  41.382   6.468
 4615POPC   C3A58505  32.515  41.592   6.824
 4615POPC   C4A58506  32.627  41.442   7.249
 4615POPC   C1B58507  32.275  41.765   6.280
 4615POPC   C2B58508  32.103  41.959   6.625
 4615POPC   C3B58509  32.026  41.921   7.016
 4615POPC   C4B58510  32.095  41.555   7.241
 4616POPC   NC358511  37.997   9.241   5.168
 4616POPC   PO458512  37.676   8.711   5.499
 4616POPC   GL158513  37.681   9.079   5.738
 4616POPC   GL258514  37.980   9.285   5.731
 4616POPC   C1A58515  37.537   8.985   6.146
 4616POPC   D2A58516  37.502   9.151   6.560
 4616POPC   C3A58517  37.477   8.887   6.926
 4616POPC   C4A58518  37.635   8.902   7.353
 4616POPC   C1B58519  38.059   9.102   6.164
 4616POPC   C2B58520  38.160   9.015   6.594
 4616POPC   C3B58521  37.961   9.048   6.967
 4616POPC   C4B58522  37.973   9.289   7.340
 4617POPC   NC358523  22.820   7.772   5.389
 4617POPC   PO458524  23.058   7.171   5.448
 4617POPC   GL158525  22.915   7.389   5.800
 4617POPC   GL258526  23.095   7.721   5.837
 4617POPC   C1A58527  23.059   7.341   6.237
 4617POPC   D2A58528  23.265   7.108   6.568
 4617POPC   C3A58529  23.066   7.187   6.950
 4617POPC   C4A58530  22.924   7.379   7.336
 4617POPC   C1B58531  22.744   7.730   6.136
 4617POPC   C2B58532  22.594   7.609   6.517
 4617POPC   C3B58533  22.799   7.640   6.923
 4617POPC   C4B58534  22.746   7.853   7.335
 4618POPC   NC358535   0.065  37.465   5.656
 4618POPC   PO458536   0.655  37.299   5.383
 4618POPC   GL158537   0.612  37.565   5.752
 4618POPC   GL258538   0.561  37.907   5.708
 4618POPC   C1A58539   0.762  37.666   6.190
 4618POPC   D2A58540   0.399  37.583   6.454
 4618POPC   C3A58541   0.476  37.463   6.858
 4618POPC   C4A58542   0.714  37.515   7.214
 4618POPC   C1B58543   0.424  38.038   6.109
 4618POPC   C2B58544   0.604  38.057   6.517
 4618POPC   C3B58545   0.664  37.962   6.934
 4618POPC   C4B58546   0.605  38.108   7.358
 4619POPC   NC358547  32.259  13.261   5.412
 4619POPC   PO458548  32.643  13.805   5.447
 4619POPC   GL158549  32.402  13.607   5.775
 4619POPC   GL258550  32.047  13.717   5.827
 4619POPC   C1A58551  32.347  13.530   6.217
 4619POPC   D2A58552  32.367  13.819   6.552
 4619POPC   C3A58553  32.244  13.721   6.949
 4619POPC   C4A58554  32.237  13.358   7.197
 4619POPC   C1B58555  32.058  14.021   6.190
 4619POPC   C2B58556  31.926  14.109   6.626
 4619POPC   C3B58557  31.798  13.977   7.020
 4619POPC   C4B58558  31.931  13.724   7.372
 4620POPC   NC358559  25.477  20.184   5.551
 4620POPC   PO458560  25.704  19.618   5.495
 4620POPC   GL158561  25.565  19.763   5.910
 4620POPC   GL258562  25.283  19.991   5.983
 4620POPC   C1A58563  25.600  19.819   6.362
 4620POPC   D2A58564  25.295  20.074   6.536
 4620POPC   C3A58565  25.418  20.124   6.934
 4620POPC   C4A58566  25.200  20.051   7.269
 4620POPC   C1B58567  25.109  19.662   6.272
 4620POPC   C2B58568  24.889  19.738   6.682
 4620POPC   C3B58569  24.889  19.633   7.119
 4620POPC   C4B58570  24.685  19.312   7.359
 4621POPC   NC358571  27.465  21.544   5.334
 4621POPC   PO458572  27.777  20.940   5.520
 4621POPC   GL158573  27.462  21.252   5.752
 4621POPC   GL258574  27.277  21.574   5.800
 4621POPC   C1A58575  27.512  21.166   6.180
 4621POPC   D2A58576  27.760  21.228   6.507
 4621POPC   C3A58577  27.534  21.203   6.883
 4621POPC   C4A58578  27.689  21.297   7.291
 4621POPC   C1B58579  27.578  21.652   6.117
 4621POPC   C2B58580  27.470  21.653   6.577
 4621POPC   C3B58581  27.390  21.707   7.023
 4621POPC   C4B58582  27.425  21.717   7.453
 4622POPC   NC358583  25.352  13.309   5.468
 4622POPC   PO458584  25.396  14.043   5.412
 4622POPC   GL158585  25.193  13.767   5.706
 4622POPC   GL258586  25.494  13.655   5.815
 4622POPC   C1A58587  25.069  13.804   6.157
 4622POPC   D2A58588  25.137  13.589   6.552
 4622POPC   C3A58589  25.029  13.747   6.972
 4622POPC   C4A58590  25.263  13.838   7.341
 4622POPC   C1B58591  25.536  13.445   6.186
 4622POPC   C2B58592  25.565  13.320   6.608
 4622POPC   C3B58593  25.468  13.498   6.963
 4622POPC   C4B58594  25.665  13.549   7.322
 4623POPC   NC358595  34.199  26.939   5.270
 4623POPC   PO458596  33.577  26.579   5.334
 4623POPC   GL158597  33.534  26.635   5.796
 4623POPC   GL258598  33.887  26.688   5.891
 4623POPC   C1A58599  33.434  26.517   6.250
 4623POPC   D2A58600  33.582  26.439   6.707
 4623POPC   C3A58601  33.545  26.766   7.053
 4623POPC   C4A58602  33.689  27.157   7.095
 4623POPC   C1B58603  33.752  26.913   6.267
 4623POPC   C2B58604  33.892  26.883   6.697
 4623POPC   C3B58605  34.072  26.713   7.062
 4623POPC   C4B58606  34.189  26.415   7.358
 4624POPC   NC358607  29.812   5.918   5.337
 4624POPC   PO458608  30.295   5.358   5.400
 4624POPC   GL158609  30.079   5.738   5.729
 4624POPC   GL258610  29.654   5.747   5.771
 4624POPC   C1A58611  29.885   6.087   6.043
 4624POPC   D2A58612  29.953   6.273   6.444
 4624POPC   C3A58613  29.880   6.040   6.812
 4624POPC   C4A58614  30.207   6.131   7.128
 4624POPC   C1B58615  29.596   5.688   6.221
 4624POPC   C2B58616  29.426   5.817   6.630
 4624POPC   C3B58617  29.499   5.769   7.066
 4624POPC   C4B58618  29.762   6.010   7.316
 4625POPC   NC358619  40.922  19.614   5.473
 4625POPC   PO458620  40.457  20.022   5.261
 4625POPC   GL158621  40.553  19.902   5.717
 4625POPC   GL258622  40.914  20.020   5.787
 4625POPC   C1A58623  40.697  19.747   6.156
 4625POPC   D2A58624  40.777  19.942   6.549
 4625POPC   C3A58625  40.755  19.706   6.946
 4625POPC   C4A58626  40.672  19.970   7.272
 4625POPC   C1B58627  41.195  19.994   6.156
 4625POPC   C2B58628  41.229  20.202   6.556
 4625POPC   C3B58629  41.071  20.106   6.954
 4625POPC   C4B58630  41.179  19.832   7.284
 4626POPC   NC358631  43.479  25.066   5.491
 4626POPC   PO458632  44.140  25.293   5.428
 4626POPC   GL158633  43.952  25.385   5.818
 4626POPC   GL258634  43.584  25.399   5.857
 4626POPC   C1A58635  44.035  25.333   6.266
 4626POPC   D2A58636  43.868  25.264   6.677
 4626POPC   C3A58637  44.085  25.473   7.035
 4626POPC   C4A58638  44.298  25.292   7.385
 4626POPC   C1B58639  43.624  25.058   6.132
 4626POPC   C2B58640  43.460  24.948   6.494
 4626POPC   C3B58641  43.580  24.901   6.854
 4626POPC   C4B58642  43.651  25.224   7.148
 4627POPC   NC358643  40.459  35.203   5.536
 4627POPC   PO458644  39.865  35.395   5.313
 4627POPC   GL158645  40.067  35.466   5.738
 4627POPC   GL258646  39.775  35.504   5.887
 4627POPC   C1A58647  40.278  35.306   6.158
 4627POPC   D2A58648  40.216  34.977   6.437
 4627POPC   C3A58649  40.214  35.062   6.852
 4627POPC   C4A58650  40.095  35.313   7.157
 4627POPC   C1B58651  39.784  35.218   6.259
 4627POPC   C2B58652  39.734  35.105   6.708
 4627POPC   C3B58653  39.636  35.099   7.165
 4627POPC   C4B58654  39.516  35.195   7.611
 4628POPC   NC358655  43.593  12.550   5.515
 4628POPC   PO458656  43.359  13.161   5.162
 4628POPC   GL158657  43.201  13.033   5.659
 4628POPC   GL258658  43.032  12.704   5.782
 4628POPC   C1A58659  43.271  12.950   6.169
 4628POPC   D2A58660  43.083  13.058   6.612
 4628POPC   C3A58661  43.196  13.008   7.069
 4628POPC   C4A58662  43.432  12.857   7.401
 4628POPC   C1B58663  42.912  12.436   6.161
 4628POPC   C2B58664  43.011  12.526   6.607
 4628POPC   C3B58665  42.860  12.623   7.025
 4628POPC   C4B58666  42.810  12.401   7.405
 4629POPC   NC358667  42.441   3.066   5.585
 4629POPC   PO458668  42.294   2.392   5.378
 4629POPC   GL158669  42.164   2.597   5.775
 4629POPC   GL258670  42.013   2.942   5.860
 4629POPC   C1A58671  42.285   2.645   6.213
 4629POPC   D2A58672  42.073   2.640   6.617
 4629POPC   C3A58673  42.380   2.605   6.951
 4629POPC   C4A58674  42.304   2.542   7.396
 4629POPC   C1B58675  42.066   3.090   6.326
 4629POPC   C2B58676  42.328   3.088   6.747
 4629POPC   C3B58677  42.378   3.021   7.235
 4629POPC   C4B58678  42.524   2.958   7.674
 4630POPC   NC358679   8.618  22.329   5.401
 4630POPC   PO458680   9.298  22.401   5.462
 4630POPC   GL158681   9.135  22.084   5.749
 4630POPC   GL258682   8.782  21.992   5.793
 4630POPC   C1A58683   9.170  22.124   6.173
 4630POPC   D2A58684   9.024  22.164   6.551
 4630POPC   C3A58685   9.257  22.252   6.914
 4630POPC   C4A58686   9.198  22.091   7.329
 4630POPC   C1B58687   8.626  22.056   6.219
 4630POPC   C2B58688   8.564  22.334   6.584
 4630POPC   C3B58689   8.748  22.298   6.990
 4630POPC   C4B58690   8.682  21.977   7.246
 4631POPC   NC358691  42.115  12.315   5.099
 4631POPC   PO458692  41.477  12.238   5.403
 4631POPC   GL158693  41.571  12.067   5.803
 4631POPC   GL258694  41.918  11.967   5.805
 4631POPC   C1A58695  41.508  12.172   6.232
 4631POPC   D2A58696  41.332  11.879   6.544
 4631POPC   C3A58697  41.446  11.981   6.957
 4631POPC   C4A58698  41.234  12.168   7.304
 4631POPC   C1B58699  42.015  12.172   6.212
 4631POPC   C2B58700  41.837  12.129   6.619
 4631POPC   C3B58701  41.979  11.968   6.994
 4631POPC   C4B58702  41.917  12.194   7.323
 4632POPC   NC358703  27.860  20.997   5.075
 4632POPC   PO458704  28.283  20.569   5.395
 4632POPC   GL158705  28.299  20.566   5.836
 4632POPC   GL258706  28.618  20.767   5.841
 4632POPC   C1A58707  28.422  20.558   6.268
 4632POPC   D2A58708  28.635  20.464   6.656
 4632POPC   C3A58709  28.362  20.620   6.933
 4632POPC   C4A58710  28.230  20.487   7.256
 4632POPC   C1B58711  28.621  21.030   6.222
 4632POPC   C2B58712  28.624  20.967   6.652
 4632POPC   C3B58713  28.493  21.112   7.045
 4632POPC   C4B58714  28.567  20.884   7.445
 4633POPC   NC358715   9.423  35.402   5.481
 4633POPC   PO458716   8.754  35.222   5.318
 4633POPC   GL158717   8.941  35.438   5.672
 4633POPC   GL258718   8.711  35.243   5.889
 4633POPC   C1A58719   9.140  35.446   6.093
 4633POPC   D2A58720   8.890  35.392   6.475
 4633POPC   C3A58721   9.049  35.405   6.893
 4633POPC   C4A58722   8.930  35.567   7.263
 4633POPC   C1B58723   8.543  35.043   6.258
 4633POPC   C2B58724   8.694  34.955   6.685
 4633POPC   C3B58725   8.735  35.076   7.124
 4633POPC   C4B58726   8.613  34.961   7.553
 4634POPC   NC358727  26.743   2.175   5.518
 4634POPC   PO458728  26.898   1.560   5.297
 4634POPC   GL158729  26.923   1.769   5.735
 4634POPC   GL258730  26.626   1.859   5.895
 4634POPC   C1A58731  27.036   1.870   6.189
 4634POPC   D2A58732  26.924   2.061   6.574
 4634POPC   C3A58733  27.092   1.956   6.970
 4634POPC   C4A58734  26.904   2.098   7.334
 4634POPC   C1B58735  26.551   2.133   6.212
 4634POPC   C2B58736  26.378   2.046   6.590
 4634POPC   C3B58737  26.577   2.144   6.962
 4634POPC   C4B58738  26.562   2.506   7.205
 4635POPC   NC358739  17.013  28.619   5.352
 4635POPC   PO458740  16.411  28.319   5.306
 4635POPC   GL158741  16.718  28.301   5.665
 4635POPC   GL258742  16.612  28.082   5.906
 4635POPC   C1A58743  16.788  28.539   6.087
 4635POPC   D2A58744  16.922  28.536   6.535
 4635POPC   C3A58745  16.841  28.178   6.820
 4635POPC   C4A58746  16.810  28.373   7.218
 4635POPC   C1B58747  16.471  28.161   6.323
 4635POPC   C2B58748  16.185  28.059   6.648
 4635POPC   C3B58749  16.326  27.987   7.050
 4635POPC   C4B58750  16.468  28.091   7.459
 4636POPC   NC358751  39.984  16.388   5.368
 4636POPC   PO458752  39.656  16.942   5.559
 4636POPC   GL158753  39.879  16.711   5.856
 4636POPC   GL258754  40.214  16.579   5.800
 4636POPC   C1A58755  39.766  16.713   6.272
 4636POPC   D2A58756  39.497  16.902   6.564
 4636POPC   C3A58757  39.662  16.813   6.962
 4636POPC   C4A58758  39.883  16.420   7.064
 4636POPC   C1B58759  40.257  16.788   6.222
 4636POPC   C2B58760  40.079  16.836   6.659
 4636POPC   C3B58761  40.171  16.874   7.104
 4636POPC   C4B58762  40.538  16.771   7.354
 4637POPC   NC358763  22.803  29.306   5.374
 4637POPC   PO458764  23.257  28.784   5.618
 4637POPC   GL158765  22.889  28.974   5.842
 4637POPC   GL258766  22.838  29.330   5.870
 4637POPC   C1A58767  22.714  28.930   6.289
 4637POPC   D2A58768  22.440  29.065   6.685
 4637POPC   C3A58769  22.675  29.101   7.095
 4637POPC   C4A58770  23.136  29.080   7.162
 4637POPC   C1B58771  23.125  29.403   6.164
 4637POPC   C2B58772  22.920  29.351   6.533
 4637POPC   C3B58773  22.991  29.493   6.886
 4637POPC   C4B58774  22.914  29.539   7.301
 4638POPC   NC358775  33.257  40.682   5.484
 4638POPC   PO458776  32.779  41.120   5.311
 4638POPC   GL158777  32.960  41.008   5.726
 4638POPC   GL258778  32.822  40.637   5.762
 4638POPC   C1A58779  33.168  40.891   6.133
 4638POPC   D2A58780  32.932  40.889   6.506
 4638POPC   C3A58781  33.103  40.883   6.897
 4638POPC   C4A58782  32.801  40.974   7.226
 4638POPC   C1B58783  32.904  40.427   6.144
 4638POPC   C2B58784  32.926  40.362   6.583
 4638POPC   C3B58785  32.782  40.509   6.987
 4638POPC   C4B58786  32.969  40.526   7.371
 4639POPC   NC358787  37.476   3.698   5.409
 4639POPC   PO458788  37.840   3.025   5.364
 4639POPC   GL158789  37.651   3.288   5.726
 4639POPC   GL258790  37.630   3.645   5.890
 4639POPC   C1A58791  37.542   3.231   6.186
 4639POPC   D2A58792  37.710   3.444   6.563
 4639POPC   C3A58793  37.739   3.293   7.001
 4639POPC   C4A58794  37.502   3.361   7.381
 4639POPC   C1B58795  37.894   3.889   6.179
 4639POPC   C2B58796  38.023   4.031   6.575
 4639POPC   C3B58797  37.830   3.815   6.898
 4639POPC   C4B58798  37.637   3.869   7.245
 4640POPC   NC358799  15.870  44.358   5.447
 4640POPC   PO458800  15.998   0.006   5.368
 4640POPC   GL158801  16.092  44.752   5.773
 4640POPC   GL258802  15.766  44.611   5.873
 4640POPC   C1A58803  16.183  44.614   6.238
 4640POPC   D2A58804  16.219  44.355   6.622
 4640POPC   C3A58805  15.998  44.458   6.993
 4640POPC   C4A58806  16.123  44.638   7.361
 4640POPC   C1B58807  15.751  44.902   6.181
 4640POPC   C2B58808  15.603  44.898   6.594
 4640POPC   C3B58809  15.796  44.944   6.996
 4640POPC   C4B58810  15.700  44.934   7.419
 4641POPC   NC358811  10.366  43.779   5.420
 4641POPC   PO458812  10.133  44.427   5.522
 4641POPC   GL158813  10.419  44.137   5.831
 4641POPC   GL258814  10.522  43.768   5.914
 4641POPC   C1A58815  10.725  44.141   6.202
 4641POPC   D2A58816  10.510  44.007   6.534
 4641POPC   C3A58817  10.344  44.161   6.931
 4641POPC   C4A58818  10.544  44.099   7.328
 4641POPC   C1B58819  10.883  43.659   6.217
 4641POPC   C2B58820  10.973  43.835   6.631
 4641POPC   C3B58821  10.690  43.760   6.958
 4641POPC   C4B58822  10.687  43.509   7.295
 4642POPC   NC358823   8.299  13.215   5.338
 4642POPC   PO458824   8.119  13.809   5.296
 4642POPC   GL158825   8.241  13.618   5.713
 4642POPC   GL258826   8.122  13.944   5.797
 4642POPC   C1A58827   8.233  13.348   6.140
 4642POPC   D2A58828   7.987  13.184   6.490
 4642POPC   C3A58829   8.046  13.345   6.909
 4642POPC   C4A58830   8.021  13.702   7.148
 4642POPC   C1B58831   8.351  13.860   6.170
 4642POPC   C2B58832   8.283  13.672   6.546
 4642POPC   C3B58833   8.447  13.869   6.859
 4642POPC   C4B58834   8.386  14.047   7.217
 4643POPC   NC358835   9.836   1.269   5.366
 4643POPC   PO458836   9.541   0.655   5.215
 4643POPC   GL158837   9.648   0.919   5.684
 4643POPC   GL258838   9.679   1.321   5.823
 4643POPC   C1A58839   9.819   0.981   6.147
 4643POPC   D2A58840   9.817   1.278   6.542
 4643POPC   C3A58841   9.672   1.163   6.970
 4643POPC   C4A58842  10.008   1.082   7.271
 4643POPC   C1B58843   9.892   1.581   6.135
 4643POPC   C2B58844  10.071   1.715   6.583
 4643POPC   C3B58845   9.983   1.557   7.052
 4643POPC   C4B58846  10.149   1.518   7.510
 4644POPC   NC358847  21.322  22.483   5.473
 4644POPC   PO458848  21.072  21.895   5.366
 4644POPC   GL158849  21.261  22.026   5.803
 4644POPC   GL258850  21.419  22.330   5.935
 4644POPC   C1A58851  21.509  21.911   6.211
 4644POPC   D2A58852  21.499  21.717   6.640
 4644POPC   C3A58853  21.586  21.994   6.963
 4644POPC   C4A58854  21.295  21.917   7.248
 4644POPC   C1B58855  21.615  22.618   6.223
 4644POPC   C2B58856  21.768  22.636   6.637
 4644POPC   C3B58857  21.591  22.525   7.010
 4644POPC   C4B58858  21.479  22.360   7.378
 4645POPC   NC358859  31.442  22.562   5.339
 4645POPC   PO458860  31.276  21.902   5.405
 4645POPC   GL158861  31.445  21.999   5.809
 4645POPC   GL258862  31.404  22.364   5.796
 4645POPC   C1A58863  31.379  22.083   6.250
 4645POPC   D2A58864  31.173  21.916   6.642
 4645POPC   C3A58865  31.226  22.141   7.046
 4645POPC   C4A58866  31.563  22.216   7.345
 4645POPC   C1B58867  31.638  22.518   6.113
 4645POPC   C2B58868  31.688  22.369   6.532
 4645POPC   C3B58869  31.613  22.539   6.927
 4645POPC   C4B58870  31.817  22.689   7.292
 4646POPC   NC358871  33.873  15.918   5.224
 4646POPC   PO458872  33.252  16.077   5.448
 4646POPC   GL158873  33.563  15.854   5.693
 4646POPC   GL258874  33.920  15.936   5.748
 4646POPC   C1A58875  33.603  15.906   6.149
 4646POPC   D2A58876  33.677  16.155   6.515
 4646POPC   C3A58877  33.490  15.940   6.840
 4646POPC   C4A58878  33.570  15.906   7.283
 4646POPC   C1B58879  34.060  16.161   6.139
 4646POPC   C2B58880  34.186  16.129   6.587
 4646POPC   C3B58881  33.961  16.081   6.992
 4646POPC   C4B58882  34.076  15.861   7.387
 4647POPC   NC358883  11.951  25.714   5.356
 4647POPC   PO458884  12.411  25.189   5.531
 4647POPC   GL158885  12.340  25.549   5.778
 4647POPC   GL258886  12.008  25.442   5.792
 4647POPC   C1A58887  12.311  25.459   6.232
 4647POPC   D2A58888  12.258  25.144   6.542
 4647POPC   C3A58889  12.121  25.256   6.961
 4647POPC   C4A58890  11.992  24.983   7.273
 4647POPC   C1B58891  11.841  25.252   6.183
 4647POPC   C2B58892  11.741  25.294   6.614
 4647POPC   C3B58893  11.587  25.128   7.004
 4647POPC   C4B58894  11.727  25.413   7.299
 4648POPC   NC358895  30.183   7.535   5.461
 4648POPC   PO458896  29.639   7.143   5.653
 4648POPC   GL158897  29.885   7.437   5.886
 4648POPC   GL258898  30.241   7.276   5.904
 4648POPC   C1A58899  29.745   7.608   6.298
 4648POPC   D2A58900  29.644   7.785   6.732
 4648POPC   C3A58901  29.664   7.442   7.038
 4648POPC   C4A58902  29.873   7.388   7.454
 4648POPC   C1B58903  30.110   7.225   6.323
 4648POPC   C2B58904  30.069   7.478   6.694
 4648POPC   C3B58905  30.219   7.391   7.084
 4648POPC   C4B58906  30.271   7.088   7.425
 4649POPC   NC358907  27.500  31.961   5.643
 4649POPC   PO458908  27.770  31.246   5.478
 4649POPC   GL158909  27.680  31.262   5.885
 4649POPC   GL258910  27.794  31.609   5.857
 4649POPC   C1A58911  27.501  31.440   6.272
 4649POPC   D2A58912  27.325  31.562   6.696
 4649POPC   C3A58913  27.306  31.311   7.096
 4649POPC   C4A58914  27.256  31.485   7.555
 4649POPC   C1B58915  28.060  31.502   6.159
 4649POPC   C2B58916  28.060  31.437   6.601
 4649POPC   C3B58917  27.776  31.418   6.937
 4649POPC   C4B58918  27.629  31.686   7.275
 4650POPC   NC358919  30.556   5.508   5.043
 4650POPC   PO458920  30.955   5.852   5.432
 4650POPC   GL158921  30.963   5.855   5.870
 4650POPC   GL258922  30.603   5.918   5.836
 4650POPC   C1A58923  30.843   5.991   6.290
 4650POPC   D2A58924  30.549   5.900   6.650
 4650POPC   C3A58925  30.761   5.942   7.001
 4650POPC   C4A58926  30.913   5.933   7.384
 4650POPC   C1B58927  30.332   5.923   6.185
 4650POPC   C2B58928  30.092   5.687   6.496
 4650POPC   C3B58929  30.146   5.629   6.959
 4650POPC   C4B58930  30.427   5.698   7.284
 4651POPC   NC358931  16.666  35.380   5.617
 4651POPC   PO458932  16.985  34.847   5.597
 4651POPC   GL158933  17.091  35.244   5.872
 4651POPC   GL258934  17.043  35.654   5.816
 4651POPC   C1A58935  16.942  35.307   6.293
 4651POPC   D2A58936  16.597  35.211   6.579
 4651POPC   C3A58937  16.744  35.135   6.979
 4651POPC   C4A58938  16.468  35.053   7.324
 4651POPC   C1B58939  16.758  35.771   6.168
 4651POPC   C2B58940  16.752  35.707   6.607
 4651POPC   C3B58941  16.566  35.622   6.994
 4651POPC   C4B58942  16.739  35.477   7.355
 4652POPC   NC358943  13.214  41.797   5.693
 4652POPC   PO458944  12.810  41.453   5.283
 4652POPC   GL158945  13.041  41.314   5.711
 4652POPC   GL258946  12.794  41.505   5.855
 4652POPC   C1A58947  13.144  41.438   6.215
 4652POPC   D2A58948  13.064  41.662   6.609
 4652POPC   C3A58949  13.025  41.463   6.996
 4652POPC   C4A58950  13.084  41.756   7.313
 4652POPC   C1B58951  12.754  41.766   6.208
 4652POPC   C2B58952  12.538  41.664   6.578
 4652POPC   C3B58953  12.519  41.508   6.962
 4652POPC   C4B58954  12.663  41.346   7.332
 4653POPC   NC358955  22.753  11.242   5.491
 4653POPC   PO458956  23.363  11.597   5.628
 4653POPC   GL158957  23.050  11.453   5.889
 4653POPC   GL258958  23.084  11.146   5.950
 4653POPC   C1A58959  22.913  11.496   6.312
 4653POPC   D2A58960  23.060  11.765   6.651
 4653POPC   C3A58961  23.014  11.578   7.075
 4653POPC   C4A58962  22.797  11.400   7.392
 4653POPC   C1B58963  22.811  10.949   6.215
 4653POPC   C2B58964  22.840  11.061   6.632
 4653POPC   C3B58965  22.936  11.052   7.042
 4653POPC   C4B58966  22.577  10.964   7.285
 4654POPC   NC358967  26.933  20.897   5.435
 4654POPC   PO458968  26.996  21.545   5.363
 4654POPC   GL158969  26.752  21.629   5.722
 4654POPC   GL258970  26.693  21.282   5.763
 4654POPC   C1A58971  26.617  21.555   6.177
 4654POPC   D2A58972  26.633  21.385   6.582
 4654POPC   C3A58973  26.624  21.618   6.990
 4654POPC   C4A58974  26.901  21.692   7.318
 4654POPC   C1B58975  27.017  21.233   6.077
 4654POPC   C2B58976  27.125  21.148   6.518
 4654POPC   C3B58977  27.046  21.347   6.885
 4654POPC   C4B58978  27.194  21.301   7.277
 4655POPC   NC358979  41.906  19.775   5.449
 4655POPC   PO458980  42.584  19.687   5.425
 4655POPC   GL158981  42.363  19.745   5.804
 4655POPC   GL258982  42.638  19.521   5.888
 4655POPC   C1A58983  42.133  19.724   6.212
 4655POPC   D2A58984  42.176  19.949   6.620
 4655POPC   C3A58985  42.134  19.776   7.014
 4655POPC   C4A58986  42.207  19.873   7.426
 4655POPC   C1B58987  42.787  19.876   6.074
 4655POPC   C2B58988  42.607  19.752   6.430
 4655POPC   C3B58989  42.642  19.754   6.850
 4655POPC   C4B58990  42.685  19.737   7.264
 4656POPC   NC358991  16.175  10.564   5.420
 4656POPC   PO458992  15.603  10.059   5.360
 4656POPC   GL158993  15.729  10.204   5.855
 4656POPC   GL258994  15.845  10.545   5.842
 4656POPC   C1A58995  15.995  10.212   6.279
 4656POPC   D2A58996  16.371  10.140   6.524
 4656POPC   C3A58997  16.281  10.158   6.967
 4656POPC   C4A58998  16.006  10.355   7.230
 4656POPC   C1B58999  15.995  10.724   6.220
 4656POPC   C2B59000  16.292  10.746   6.574
 4656POPC   C3B59001  16.118  10.757   6.968
 4656POPC   C4B59002  15.973  10.848   7.387
 4657POPC   NC359003   8.809  25.141   5.424
 4657POPC   PO459004   8.959  25.779   5.174
 4657POPC   GL159005   9.052  25.562   5.616
 4657POPC   GL259006   8.761  25.505   5.830
 4657POPC   C1A59007   9.176  25.377   6.068
 4657POPC   D2A59008   9.324  25.581   6.457
 4657POPC   C3A59009   9.300  25.461   6.853
 4657POPC   C4A59010   9.180  25.440   7.266
 4657POPC   C1B59011   8.697  25.230   6.182
 4657POPC   C2B59012   8.904  25.267   6.576
 4657POPC   C3B59013   8.981  25.072   6.980
 4657POPC   C4B59014   8.877  25.056   7.404
 4658POPC   NC359015  44.938  16.344   5.476
 4658POPC   PO459016  44.707  16.964   5.508
 4658POPC   GL159017  44.639  16.653   5.839
 4658POPC   GL259018  44.900  16.498   5.955
 4658POPC   C1A59019  44.502  16.584   6.259
 4658POPC   D2A59020  44.580  16.350   6.644
 4658POPC   C3A59021  44.420  16.623   6.951
 4658POPC   C4A59022  44.630  16.912   7.196
 4658POPC   C1B59023  44.998  16.790   6.277
 4658POPC   C2B59024  44.802  16.842   6.661
 4658POPC   C3B59025  44.939  16.554   6.987
 4658POPC   C4B59026   0.058  16.659   7.405
 4659POPC   NC359027  16.944  19.195   5.224
 4659POPC   PO459028  16.540  18.732   5.459
 4659POPC   GL159029  16.703  18.754   5.845
 4659POPC   GL259030  17.020  18.912   5.807
 4659POPC   C1A59031  16.548  18.853   6.236
 4659POPC   D2A59032  16.645  19.008   6.640
 4659POPC   C3A59033  16.785  18.773   7.009
 4659POPC   C4A59034  16.880  18.657   7.458
 4659POPC   C1B59035  16.991  19.111   6.244
 4659POPC   C2B59036  17.008  19.373   6.648
 4659POPC   C3B59037  17.063  19.356   7.120
 4659POPC   C4B59038  17.271  19.287   7.529
 4660POPC   NC359039  38.974  18.710   5.436
 4660POPC   PO459040  39.466  18.166   5.422
 4660POPC   GL159041  39.246  18.255   5.764
 4660POPC   GL259042  39.272  18.568   5.812
 4660POPC   C1A59043  39.187  18.060   6.171
 4660POPC   D2A59044  39.433  18.112   6.553
 4660POPC   C3A59045  39.217  18.176   6.933
 4660POPC   C4A59046  39.127  17.879   7.247
 4660POPC   C1B59047  39.030  18.538   6.190
 4660POPC   C2B59048  39.090  18.567   6.597
 4660POPC   C3B59049  39.063  18.677   6.997
 4660POPC   C4B59050  39.290  18.559   7.319
 4661POPC   NC359051  37.917  35.034   5.497
 4661POPC   PO459052  37.659  34.336   5.341
 4661POPC   GL159053  37.941  34.551   5.661
 4661POPC   GL259054  37.659  34.684   5.786
 4661POPC   C1A59055  38.042  34.822   6.096
 4661POPC   D2A59056  37.786  34.859   6.468
 4661POPC   C3A59057  37.865  34.690   6.869
 4661POPC   C4A59058  37.686  34.969   7.178
 4661POPC   C1B59059  37.676  34.462   6.148
 4661POPC   C2B59060  37.586  34.359   6.543
 4661POPC   C3B59061  37.538  34.174   6.900
 4661POPC   C4B59062  37.699  34.376   7.245
 4662POPC   NC359063  27.685   2.486   5.365
 4662POPC   PO459064  27.740   3.134   5.521
 4662POPC   GL159065  27.606   3.036   5.903
 4662POPC   GL259066  27.240   3.074   5.897
 4662POPC   C1A59067  27.799   2.783   6.229
 4662POPC   D2A59068  27.775   2.458   6.541
 4662POPC   C3A59069  27.926   2.617   6.924
 4662POPC   C4A59070  27.826   2.478   7.311
 4662POPC   C1B59071  27.297   2.922   6.315
 4662POPC   C2B59072  27.522   2.876   6.716
 4662POPC   C3B59073  27.464   2.864   7.176
 4662POPC   C4B59074  27.203   2.904   7.631
 4663POPC   NC359075  26.267  29.208   5.336
 4663POPC   PO459076  25.632  28.920   5.368
 4663POPC   GL159077  25.914  29.012   5.770
 4663POPC   GL259078  26.156  29.275   5.850
 4663POPC   C1A59079  26.048  28.947   6.227
 4663POPC   D2A59080  25.999  28.921   6.687
 4663POPC   C3A59081  26.135  29.105   7.046
 4663POPC   C4A59082  25.763  29.122   7.281
 4663POPC   C1B59083  26.321  29.409   6.231
 4663POPC   C2B59084  26.215  29.441   6.648
 4663POPC   C3B59085  26.279  29.621   7.021
 4663POPC   C4B59086  26.033  29.583   7.339
 4664POPC   NC359087   4.180  31.038   5.587
 4664POPC   PO459088   4.720  30.654   5.548
 4664POPC   GL159089   4.474  30.480   5.876
 4664POPC   GL259090   4.127  30.326   5.942
 4664POPC   C1A59091   4.322  30.672   6.234
 4664POPC   D2A59092   4.254  30.778   6.644
 4664POPC   C3A59093   4.347  30.502   6.939
 4664POPC   C4A59094   4.416  30.511   7.295
 4664POPC   C1B59095   3.862  30.412   6.317
 4664POPC   C2B59096   3.889  30.399   6.779
 4664POPC   C3B59097   3.827  30.599   7.176
 4664POPC   C4B59098   3.960  30.603   7.598
 4665POPC   NC359099  42.437  40.056   5.330
 4665POPC   PO459100  41.860  40.094   5.285
 4665POPC   GL159101  42.112  40.024   5.724
 4665POPC   GL259102  42.499  39.951   5.820
 4665POPC   C1A59103  42.125  39.901   6.159
 4665POPC   D2A59104  42.307  39.934   6.569
 4665POPC   C3A59105  42.027  39.781   6.881
 4665POPC   C4A59106  41.956  40.055   7.230
 4665POPC   C1B59107  42.626  40.180   6.163
 4665POPC   C2B59108  42.597  40.447   6.515
 4665POPC   C3B59109  42.488  40.303   6.904
 4665POPC   C4B59110  42.448  39.929   7.115
 4666POPC   NC359111  44.155  32.517   5.405
 4666POPC   PO459112  44.802  32.241   5.508
 4666POPC   GL159113  44.615  32.198   5.871
 4666POPC   GL259114  44.329  31.980   5.803
 4666POPC   C1A59115  44.736  32.300   6.301
 4666POPC   D2A59116  44.557  32.221   6.692
 4666POPC   C3A59117  44.688  32.513   7.015
 4666POPC   C4A59118  44.943  32.258   7.285
 4666POPC   C1B59119  44.451  31.858   6.229
 4666POPC   C2B59120  44.804  31.779   6.523
 4666POPC   C3B59121  44.810  31.828   6.985
 4666POPC   C4B59122  44.479  32.091   7.194
 4667POPC   NC359123  15.320  35.802   5.324
 4667POPC   PO459124  15.210  36.402   5.571
 4667POPC   GL159125  15.049  35.996   5.752
 4667POPC   GL259126  14.746  36.091   5.917
 4667POPC   C1A59127  15.091  35.706   6.114
 4667POPC   D2A59128  15.308  35.758   6.531
 4667POPC   C3A59129  15.200  35.894   6.986
 4667POPC   C4A59130  15.127  35.887   7.458
 4667POPC   C1B59131  14.997  36.144   6.327
 4667POPC   C2B59132  15.000  36.447   6.670
 4667POPC   C3B59133  14.792  36.529   7.021
 4667POPC   C4B59134  15.033  36.370   7.336
 4668POPC   NC359135  30.685  44.371   5.503
 4668POPC   PO459136  30.456  43.795   5.520
 4668POPC   GL159137  30.793  43.857   5.794
 4668POPC   GL259138  30.797  43.495   5.863
 4668POPC   C1A59139  30.903  43.932   6.242
 4668POPC   D2A59140  31.014  43.917   6.706
 4668POPC   C3A59141  30.767  44.073   7.080
 4668POPC   C4A59142  30.788  43.949   7.568
 4668POPC   C1B59143  30.457  43.623   6.148
 4668POPC   C2B59144  30.476  43.826   6.522
 4668POPC   C3B59145  30.429  43.712   6.894
 4668POPC   C4B59146  30.732  43.570   7.214
 4669POPC   NC359147  21.980  42.479   5.342
 4669POPC   PO459148  22.577  42.203   5.491
 4669POPC   GL159149  22.237  42.340   5.797
 4669POPC   GL259150  22.041  42.069   5.870
 4669POPC   C1A59151  22.149  42.417   6.269
 4669POPC   D2A59152  22.346  42.464   6.706
 4669POPC   C3A59153  22.131  42.625   7.107
 4669POPC   C4A59154  21.797  42.553   7.406
 4669POPC   C1B59155  22.253  41.934   6.225
 4669POPC   C2B59156  21.966  42.010   6.569
 4669POPC   C3B59157  21.866  42.248   6.924
 4669POPC   C4B59158  22.059  42.129   7.323
 4670POPC   NC359159  42.493   6.921   5.417
 4670POPC   PO459160  42.238   6.304   5.546
 4670POPC   GL159161  42.240   6.615   5.850
 4670POPC   GL259162  41.929   6.767   5.872
 4670POPC   C1A59163  42.403   6.489   6.261
 4670POPC   D2A59164  42.642   6.539   6.612
 4670POPC   C3A59165  42.505   6.504   6.977
 4670POPC   C4A59166  42.663   6.849   7.134
 4670POPC   C1B59167  42.119   6.928   6.246
 4670POPC   C2B59168  42.174   6.770   6.650
 4670POPC   C3B59169  42.162   6.889   7.056
 4670POPC   C4B59170  42.055   6.760   7.483
 4671POPC   NC359171  24.175  31.534   5.154
 4671POPC   PO459172  23.506  31.244   5.377
 4671POPC   GL159173  23.577  31.419   5.780
 4671POPC   GL259174  23.561  31.756   5.826
 4671POPC   C1A59175  23.764  31.322   6.186
 4671POPC   D2A59176  23.519  31.214   6.544
 4671POPC   C3A59177  23.712  31.314   6.918
 4671POPC   C4A59178  24.078  31.423   7.168
 4671POPC   C1B59179  23.424  31.692   6.247
 4671POPC   C2B59180  23.749  31.687   6.584
 4671POPC   C3B59181  23.744  31.800   7.025
 4671POPC   C4B59182  23.431  31.684   7.285
 4672POPC   NC359183  29.148  38.311   5.271
 4672POPC   PO459184  29.274  37.646   5.447
 4672POPC   GL159185  29.226  37.563   5.888
 4672POPC   GL259186  29.466  37.336   5.831
 4672POPC   C1A59187  28.977  37.567   6.279
 4672POPC   D2A59188  28.670  37.788   6.574
 4672POPC   C3A59189  28.856  37.790   6.983
 4672POPC   C4A59190  29.250  37.780   7.196
 4672POPC   C1B59191  29.458  37.249   6.259
 4672POPC   C2B59192  29.343  37.387   6.637
 4672POPC   C3B59193  29.185  37.305   7.019
 4672POPC   C4B59194  29.392  37.309   7.413
 4673POPC   NC359195  23.019   1.741   5.464
 4673POPC   PO459196  23.125   2.399   5.560
 4673POPC   GL159197  22.877   2.127   5.825
 4673POPC   GL259198  22.910   1.781   5.957
 4673POPC   C1A59199  22.685   2.128   6.222
 4673POPC   D2A59200  22.759   2.269   6.600
 4673POPC   C3A59201  22.638   2.078   6.977
 4673POPC   C4A59202  22.550   1.715   7.212
 4673POPC   C1B59203  23.173   2.020   6.278
 4673POPC   C2B59204  23.368   2.009   6.683
 4673POPC   C3B59205  23.155   2.043   7.087
 4673POPC   C4B59206  23.310   2.116   7.495
 4674POPC   NC359207  42.486  16.638   5.297
 4674POPC   PO459208  42.032  16.473   5.764
 4674POPC   GL159209  42.309  16.784   5.878
 4674POPC   GL259210  42.630  16.740   5.774
 4674POPC   C1A59211  42.309  16.797   6.336
 4674POPC   D2A59212  42.408  16.565   6.728
 4674POPC   C3A59213  42.232  16.708   7.146
 4674POPC   C4A59214  42.058  16.505   7.549
 4674POPC   C1B59215  42.729  16.988   6.126
 4674POPC   C2B59216  42.756  16.904   6.553
 4674POPC   C3B59217  42.552  17.059   6.891
 4674POPC   C4B59218  42.690  16.966   7.281
 4675POPC   NC359219  20.545  20.325   5.079
 4675POPC   PO459220  20.614  20.801   5.408
 4675POPC   GL159221  20.695  20.502   5.727
 4675POPC   GL259222  20.441  20.247   5.801
 4675POPC   C1A59223  20.782  20.420   6.162
 4675POPC   D2A59224  20.576  20.511   6.564
 4675POPC   C3A59225  20.757  20.348   6.918
 4675POPC   C4A59226  20.594  20.650   7.159
 4675POPC   C1B59227  20.272  20.321   6.190
 4675POPC   C2B59228  20.154  20.191   6.592
 4675POPC   C3B59229  20.209  20.313   7.014
 4675POPC   C4B59230  20.281  20.383   7.473
 4676POPC   NC359231  12.454  12.566   5.507
 4676POPC   PO459232  12.797  11.922   5.524
 4676POPC   GL159233  12.718  12.208   5.816
 4676POPC   GL259234  13.044  12.358   5.694
 4676POPC   C1A59235  12.733  11.974   6.222
 4676POPC   D2A59236  12.945  11.901   6.571
 4676POPC   C3A59237  12.684  12.091   6.839
 4676POPC   C4A59238  12.638  11.939   7.206
 4676POPC   C1B59239  13.136  12.254   6.110
 4676POPC   C2B59240  13.033  12.397   6.543
 4676POPC   C3B59241  13.170  12.231   6.956
 4676POPC   C4B59242  13.102  12.090   7.398
 4677POPC   NC359243   3.973  21.444   5.606
 4677POPC   PO459244   3.337  21.344   5.466
 4677POPC   GL159245   3.285  21.229   5.900
 4677POPC   GL259246   3.644  21.177   5.991
 4677POPC   C1A59247   3.330  21.461   6.305
 4677POPC   D2A59248   3.544  21.342   6.685
 4677POPC   C3A59249   3.526  21.476   7.111
 4677POPC   C4A59250   3.829  21.273   7.375
 4677POPC   C1B59251   3.859  21.503   6.244
 4677POPC   C2B59252   4.104  21.658   6.565
 4677POPC   C3B59253   3.953  21.707   6.951
 4677POPC   C4B59254   3.852  21.795   7.364
 4678POPC   NC359255  15.985   1.902   5.558
 4678POPC   PO459256  15.283   1.650   5.401
 4678POPC   GL159257  15.565   1.656   5.758
 4678POPC   GL259258  15.540   2.027   5.821
 4678POPC   C1A59259  15.781   1.664   6.172
 4678POPC   D2A59260  15.739   1.863   6.585
 4678POPC   C3A59261  16.102   1.930   6.870
 4678POPC   C4A59262  15.819   1.831   7.201
 4678POPC   C1B59263  15.783   2.197   6.162
 4678POPC   C2B59264  15.964   2.332   6.543
 4678POPC   C3B59265  15.782   2.300   6.964
 4678POPC   C4B59266  16.102   2.402   7.207
 4679POPC   NC359267  35.651   2.797   5.395
 4679POPC   PO459268  35.064   3.120   5.156
 4679POPC   GL159269  35.075   2.818   5.651
 4679POPC   GL259270  35.388   2.591   5.758
 4679POPC   C1A59271  35.083   2.603   6.131
 4679POPC   D2A59272  35.415   2.576   6.484
 4679POPC   C3A59273  35.217   2.568   6.893
 4679POPC   C4A59274  35.223   2.835   7.226
 4679POPC   C1B59275  35.583   2.868   6.093
 4679POPC   C2B59276  35.766   3.024   6.484
 4679POPC   C3B59277  35.590   2.964   6.891
 4679POPC   C4B59278  35.717   2.956   7.334
 4680POPC   NC359279  33.773  30.704   5.416
 4680POPC   PO459280  34.223  31.191   5.400
 4680POPC   GL159281  33.907  31.029   5.785
 4680POPC   GL259282  33.562  30.807   5.863
 4680POPC   C1A59283  33.943  30.766   6.179
 4680POPC   D2A59284  33.639  30.501   6.417
 4680POPC   C3A59285  33.690  30.477   6.869
 4680POPC   C4A59286  33.828  30.790   7.156
 4680POPC   C1B59287  33.481  30.981   6.255
 4680POPC   C2B59288  33.686  31.027   6.646
 4680POPC   C3B59289  33.534  31.180   7.030
 4680POPC   C4B59290  33.480  31.022   7.458
 4681POPC   NC359291  39.024  22.851   5.509
 4681POPC   PO459292  39.654  23.258   5.514
 4681POPC   GL159293  39.351  23.107   5.827
 4681POPC   GL259294  39.023  23.322   5.768
 4681POPC   C1A59295  39.377  22.809   6.201
 4681POPC   D2A59296  39.488  22.473   6.525
 4681POPC   C3A59297  39.390  22.622   6.955
 4681POPC   C4A59298  39.202  22.640   7.370
 4681POPC   C1B59299  38.979  23.188   6.189
 4681POPC   C2B59300  39.117  23.034   6.593
 4681POPC   C3B59301  39.073  23.214   6.988
 4681POPC   C4B59302  39.261  23.144   7.341
 4682POPC   NC359303  21.802  19.378   5.538
 4682POPC   PO459304  22.031  20.011   5.490
 4682POPC   GL159305  22.177  20.001   5.894
 4682POPC   GL259306  21.914  19.759   5.947
 4682POPC   C1A59307  22.207  19.946   6.348
 4682POPC   D2A59308  21.966  19.949   6.722
 4682POPC   C3A59309  22.305  19.828   6.980
 4682POPC   C4A59310  22.436  19.570   7.335
 4682POPC   C1B59311  21.827  19.593   6.338
 4682POPC   C2B59312  21.866  19.382   6.728
 4682POPC   C3B59313  21.723  19.606   7.049
 4682POPC   C4B59314  21.960  19.779   7.357
 4683POPC   NC359315  41.820  31.400   5.597
 4683POPC   PO459316  41.589  31.969   5.304
 4683POPC   GL159317  41.639  31.873   5.775
 4683POPC   GL259318  41.431  31.610   5.868
 4683POPC   C1A59319  41.783  31.791   6.248
 4683POPC   D2A59320  41.594  31.710   6.685
 4683POPC   C3A59321  41.583  31.530   7.113
 4683POPC   C4A59322  41.309  31.578   7.450
 4683POPC   C1B59323  41.421  31.399   6.274
 4683POPC   C2B59324  41.142  31.118   6.548
 4683POPC   C3B59325  41.201  31.217   6.976
 4683POPC   C4B59326  41.458  31.054   7.285
 4684POPC   NC359327  10.247  20.273   5.177
 4684POPC   PO459328  10.273  20.902   5.393
 4684POPC   GL159329  10.322  20.635   5.773
 4684POPC   GL259330  10.302  20.253   5.716
 4684POPC   C1A59331  10.365  20.759   6.221
 4684POPC   D2A59332  10.220  20.867   6.655
 4684POPC   C3A59333  10.574  20.801   6.918
 4684POPC   C4A59334  10.800  20.792   7.293
 4684POPC   C1B59335  10.422  20.237   6.185
 4684POPC   C2B59336  10.310  20.358   6.648
 4684POPC   C3B59337  10.475  20.318   7.089
 4684POPC   C4B59338  10.898  20.130   7.205
 4685POPC   NC359339  19.254   7.633   5.431
 4685POPC   PO459340  18.849   7.156   5.302
 4685POPC   GL159341  18.859   7.102   5.797
 4685POPC   GL259342  19.214   6.981   5.926
 4685POPC   C1A59343  18.928   7.320   6.217
 4685POPC   D2A59344  19.217   7.470   6.551
 4685POPC   C3A59345  19.053   7.759   6.834
 4685POPC   C4A59346  19.169   7.849   7.245
 4685POPC   C1B59347  19.254   6.952   6.372
 4685POPC   C2B59348  18.948   7.035   6.697
 4685POPC   C3B59349  19.050   7.275   7.058
 4685POPC   C4B59350  19.235   6.989   7.339
 4686POPC   NC359351  36.366   7.046   5.527
 4686POPC   PO459352  35.924   7.444   5.350
 4686POPC   GL159353  36.109   7.493   5.699
 4686POPC   GL259354  35.985   7.204   5.847
 4686POPC   C1A59355  36.103   7.596   6.148
 4686POPC   D2A59356  35.819   7.559   6.486
 4686POPC   C3A59357  35.900   7.660   6.909
 4686POPC   C4A59358  35.762   7.546   7.309
 4686POPC   C1B59359  36.149   7.094   6.221
 4686POPC   C2B59360  35.948   7.011   6.592
 4686POPC   C3B59361  35.684   7.154   6.914
 4686POPC   C4B59362  35.797   7.052   7.358
 4687POPC   NC359363  38.625  39.034   5.487
 4687POPC   PO459364  38.084  39.373   5.558
 4687POPC   GL159365  38.264  39.144   5.874
 4687POPC   GL259366  38.159  39.338   6.108
 4687POPC   C1A59367  38.423  38.843   6.168
 4687POPC   D2A59368  38.686  38.984   6.482
 4687POPC   C3A59369  38.587  39.023   6.918
 4687POPC   C4A59370  38.835  39.195   7.249
 4687POPC   C1B59371  38.571  39.423   6.229
 4687POPC   C2B59372  38.463  39.434   6.642
 4687POPC   C3B59373  38.559  39.570   7.041
 4687POPC   C4B59374  38.496  39.562   7.475
 4688POPC   NC359375  27.274   1.837   5.391
 4688POPC   PO459376  27.889   2.147   5.595
 4688POPC   GL159377  27.491   2.120   5.772
 4688POPC   GL259378  27.453   1.807   5.914
 4688POPC   C1A59379  27.465   2.204   6.216
 4688POPC   D2A59380  27.472   2.035   6.612
 4688POPC   C3A59381  27.486   2.309   6.958
 4688POPC   C4A59382  27.423   2.164   7.354
 4688POPC   C1B59383  27.745   1.733   6.253
 4688POPC   C2B59384  27.814   1.643   6.687
 4688POPC   C3B59385  27.589   1.770   7.052
 4688POPC   C4B59386  27.704   1.773   7.449
 4689POPC   NC359387  31.977  34.618   5.594
 4689POPC   PO459388  32.386  34.104   5.420
 4689POPC   GL159389  32.361  34.301   5.822
 4689POPC   GL259390  32.035  34.247   5.928
 4689POPC   C1A59391  32.345  34.582   6.201
 4689POPC   D2A59392  32.180  34.603   6.611
 4689POPC   C3A59393  32.481  34.648   6.895
 4689POPC   C4A59394  32.624  34.795   7.276
 4689POPC   C1B59395  31.775  34.275   6.283
 4689POPC   C2B59396  31.727  34.380   6.705
 4689POPC   C3B59397  32.040  34.259   6.998
 4689POPC   C4B59398  32.298  34.379   7.320
 4690POPC   NC359399  42.859  36.210   5.195
 4690POPC   PO459400  42.277  35.931   5.414
 4690POPC   GL159401  42.278  36.030   5.831
 4690POPC   GL259402  42.477  36.295   5.898
 4690POPC   C1A59403  42.068  36.090   6.208
 4690POPC   D2A59404  42.186  35.989   6.584
 4690POPC   C3A59405  42.145  36.116   6.978
 4690POPC   C4A59406  42.330  35.816   7.239
 4690POPC   C1B59407  42.604  36.115   6.286
 4690POPC   C2B59408  42.704  35.957   6.701
 4690POPC   C3B59409  42.700  36.191   7.078
 4690POPC   C4B59410  42.397  36.304   7.388
 4691POPC   NC359411  26.967  29.693   5.450
 4691POPC   PO459412  26.524  30.272   5.528
 4691POPC   GL159413  26.688  30.045   5.860
 4691POPC   GL259414  27.017  29.939   5.871
 4691POPC   C1A59415  26.611  29.849   6.255
 4691POPC   D2A59416  26.670  29.626   6.614
 4691POPC   C3A59417  26.725  29.863   6.965
 4691POPC   C4A59418  26.834  29.847   7.346
 4691POPC   C1B59419  27.038  30.141   6.213
 4691POPC   C2B59420  27.006  30.025   6.582
 4691POPC   C3B59421  27.095  30.237   6.931
 4691POPC   C4B59422  27.242  30.198   7.338
 4692POPC   NC359423  33.177   9.369   5.453
 4692POPC   PO459424  32.793  10.033   5.539
 4692POPC   GL159425  32.853   9.642   5.768
 4692POPC   GL259426  33.204   9.670   5.849
 4692POPC   C1A59427  32.919   9.412   6.178
 4692POPC   D2A59428  33.219   9.522   6.515
 4692POPC   C3A59429  33.111   9.465   6.974
 4692POPC   C4A59430  33.339   9.545   7.363
 4692POPC   C1B59431  33.072   9.933   6.175
 4692POPC   C2B59432  33.091  10.033   6.609
 4692POPC   C3B59433  32.848   9.969   6.981
 4692POPC   C4B59434  33.002   9.921   7.383
 4693POPC   NC359435  36.426  40.519   5.602
 4693POPC   PO459436  35.989  40.022   5.434
 4693POPC   GL159437  36.057  40.249   5.808
 4693POPC   GL259438  36.354  40.061   5.893
 4693POPC   C1A59439  36.173  40.391   6.247
 4693POPC   D2A59440  36.035  40.295   6.668
 4693POPC   C3A59441  36.348  40.332   7.008
 4693POPC   C4A59442  36.365  40.321   7.453
 4693POPC   C1B59443  36.018  39.918   6.206
 4693POPC   C2B59444  36.144  39.787   6.618
 4693POPC   C3B59445  36.051  39.885   7.025
 4693POPC   C4B59446  36.308  39.798   7.385
 4694POPC   NC359447   7.491  33.177   5.431
 4694POPC   PO459448   7.143  32.559   5.542
 4694POPC   GL159449   7.225  32.935   5.798
 4694POPC   GL259450   7.594  32.963   5.887
 4694POPC   C1A59451   7.233  33.045   6.239
 4694POPC   D2A59452   7.257  32.730   6.565
 4694POPC   C3A59453   7.160  32.917   6.949
 4694POPC   C4A59454   7.367  33.210   7.239
 4694POPC   C1B59455   7.743  33.182   6.291
 4694POPC   C2B59456   7.719  33.117   6.756
 4694POPC   C3B59457   7.654  32.821   7.094
 4694POPC   C4B59458   7.593  32.852   7.560
 4695POPC   NC359459   9.101   0.592   5.357
 4695POPC   PO459460   8.742   0.041   5.228
 4695POPC   GL159461   8.947   0.197   5.653
 4695POPC   GL259462   8.855   0.528   5.795
 4695POPC   C1A59463   9.151   0.209   6.079
 4695POPC   D2A59464   8.906   0.265   6.427
 4695POPC   C3A59465   9.089   0.235   6.820
 4695POPC   C4A59466   8.894   0.441   7.182
 4695POPC   C1B59467   9.155   0.753   6.064
 4695POPC   C2B59468   9.145   0.718   6.524
 4695POPC   C3B59469   9.308   0.686   6.949
 4695POPC   C4B59470   9.287   0.952   7.291
 4696POPC   NC359471   4.414  25.716   5.378
 4696POPC   PO459472   4.015  26.284   5.279
 4696POPC   GL159473   4.194  26.085   5.655
 4696POPC   GL259474   4.107  26.343   5.841
 4696POPC   C1A59475   4.515  26.036   6.014
 4696POPC   D2A59476   4.487  26.201   6.469
 4696POPC   C3A59477   4.418  25.930   6.841
 4696POPC   C4A59478   4.642  25.685   7.196
 4696POPC   C1B59479   4.047  26.059   6.201
 4696POPC   C2B59480   3.970  26.150   6.623
 4696POPC   C3B59481   4.062  26.292   7.035
 4696POPC   C4B59482   4.258  26.006   7.325
 4697POPC   NC359483   6.070  34.564   5.425
 4697POPC   PO459484   5.439  34.357   5.506
 4697POPC   GL159485   5.723  34.615   5.824
 4697POPC   GL259486   6.083  34.707   5.909
 4697POPC   C1A59487   5.716  34.609   6.270
 4697POPC   D2A59488   5.440  34.506   6.576
 4697POPC   C3A59489   5.640  34.511   6.933
 4697POPC   C4A59490   5.764  34.665   7.306
 4697POPC   C1B59491   6.077  34.283   6.154
 4697POPC   C2B59492   5.983  34.242   6.636
 4697POPC   C3B59493   6.132  34.374   7.102
 4697POPC   C4B59494   6.155  34.505   7.596
 4698POPC   NC359495   4.407  18.294   5.430
 4698POPC   PO459496   3.914  17.863   5.758
 4698POPC   GL159497   4.252  18.173   5.895
 4698POPC   GL259498   4.162  18.541   5.848
 4698POPC   C1A59499   4.560  18.443   6.160
 4698POPC   D2A59500   4.799  18.586   6.531
 4698POPC   C3A59501   4.573  18.427   6.896
 4698POPC   C4A59502   4.442  18.243   7.298
 4698POPC   C1B59503   4.031  18.341   6.301
 4698POPC   C2B59504   4.020  18.204   6.741
 4698POPC   C3B59505   3.954  18.164   7.172
 4698POPC   C4B59506   3.907  18.418   7.535
 4699POPC   NC359507  37.222  30.706   5.476
 4699POPC   PO459508  37.491  31.166   5.761
 4699POPC   GL159509  37.785  30.863   5.847
 4699POPC   GL259510  37.637  30.589   5.730
 4699POPC   C1A59511  37.987  30.859   6.232
 4699POPC   D2A59512  37.744  30.884   6.619
 4699POPC   C3A59513  37.910  30.981   7.028
 4699POPC   C4A59514  37.622  30.892   7.357
 4699POPC   C1B59515  37.643  30.480   6.172
 4699POPC   C2B59516  37.893  30.391   6.524
 4699POPC   C3B59517  37.869  30.478   6.981
 4699POPC   C4B59518  37.676  30.381   7.402
 4700POPC   NC359519   1.514  16.495   5.396
 4700POPC   PO459520   0.993  16.950   5.312
 4700POPC   GL159521   1.147  16.802   5.694
 4700POPC   GL259522   1.282  17.133   5.801
 4700POPC   C1A59523   1.172  16.747   6.152
 4700POPC   D2A59524   0.994  16.839   6.545
 4700POPC   C3A59525   1.130  16.680   6.947
 4700POPC   C4A59526   1.242  16.543   7.353
 4700POPC   C1B59527   1.490  17.147   6.223
 4700POPC   C2B59528   1.365  17.214   6.640
 4700POPC   C3B59529   1.337  17.111   7.053
 4700POPC   C4B59530   1.530  16.983   7.459
 4701POPC   NC359531  23.114  10.310   5.481
 4701POPC   PO459532  23.167  10.978   5.480
 4701POPC   GL159533  23.022  10.677   5.799
 4701POPC   GL259534  22.690  10.539   5.858
 4701POPC   C1A59535  23.095  10.498   6.179
 4701POPC   D2A59536  22.871  10.520   6.539
 4701POPC   C3A59537  23.102  10.398   6.861
 4701POPC   C4A59538  22.918  10.574   7.209
 4701POPC   C1B59539  22.602  10.236   6.214
 4701POPC   C2B59540  22.631  10.037   6.649
 4701POPC   C3B59541  22.745  10.102   7.089
 4701POPC   C4B59542  22.729  10.189   7.536
 4702POPC   NC359543  13.509  20.335   5.466
 4702POPC   PO459544  13.923  20.843   5.571
 4702POPC   GL159545  13.517  20.723   5.839
 4702POPC   GL259546  13.423  20.360   5.967
 4702POPC   C1A59547  13.302  20.763   6.267
 4702POPC   D2A59548  13.386  20.890   6.709
 4702POPC   C3A59549  13.474  20.619   7.065
 4702POPC   C4A59550  13.904  20.713   7.242
 4702POPC   C1B59551  13.762  20.501   6.248
 4702POPC   C2B59552  13.848  20.525   6.695
 4702POPC   C3B59553  13.867  20.262   7.059
 4702POPC   C4B59554  13.651  20.344   7.486
 4703POPC   NC359555  16.068  29.574   5.439
 4703POPC   PO459556  15.738  28.959   5.367
 4703POPC   GL159557  15.834  29.082   5.781
 4703POPC   GL259558  15.680  29.401   5.772
 4703POPC   C1A59559  15.997  28.998   6.224
 4703POPC   D2A59560  15.841  28.940   6.662
 4703POPC   C3A59561  16.032  28.961   7.088
 4703POPC   C4A59562  15.804  29.133   7.456
 4703POPC   C1B59563  15.756  29.483   6.164
 4703POPC   C2B59564  15.776  29.540   6.584
 4703POPC   C3B59565  15.702  29.336   6.973
 4703POPC   C4B59566  15.694  29.591   7.333
 4704POPC   NC359567  41.927  37.377   5.477
 4704POPC   PO459568  42.419  37.678   5.148
 4704POPC   GL159569  42.274  37.728   5.710
 4704POPC   GL259570  42.108  37.455   5.952
 4704POPC   C1A59571  42.374  37.813   6.199
 4704POPC   D2A59572  42.514  38.055   6.591
 4704POPC   C3A59573  42.376  37.923   7.019
 4704POPC   C4A59574  42.044  37.972   7.361
 4704POPC   C1B59575  42.473  37.298   6.237
 4704POPC   C2B59576  42.705  37.353   6.658
 4704POPC   C3B59577  42.594  37.429   7.105
 4704POPC   C4B59578  42.178  37.507   7.256
 4705POPC   NC359579  16.486  11.725   5.406
 4705POPC   PO459580  16.216  11.174   5.393
 4705POPC   GL159581  16.530  11.063   5.737
 4705POPC   GL259582  16.484  11.414   5.838
 4705POPC   C1A59583  16.777  11.074   6.154
 4705POPC   D2A59584  16.659  11.153   6.621
 4705POPC   C3A59585  16.854  10.899   6.961
 4705POPC   C4A59586  16.850  10.877   7.436
 4705POPC   C1B59587  16.630  11.557   6.254
 4705POPC   C2B59588  16.932  11.830   6.476
 4705POPC   C3B59589  16.999  11.740   6.907
 4705POPC   C4B59590  16.817  11.392   7.138
 4706POPC   NC359591   7.478   1.711   5.515
 4706POPC   PO459592   7.129   2.376   5.431
 4706POPC   GL159593   7.209   2.079   5.768
 4706POPC   GL259594   7.525   2.082   5.930
 4706POPC   C1A59595   7.172   1.820   6.153
 4706POPC   D2A59596   6.935   1.819   6.508
 4706POPC   C3A59597   7.185   1.850   6.871
 4706POPC   C4A59598   7.435   1.854   7.260
 4706POPC   C1B59599   7.709   2.115   6.346
 4706POPC   C2B59600   7.689   1.840   6.722
 4706POPC   C3B59601   7.895   1.965   7.094
 4706POPC   C4B59602   7.782   2.260   7.402
 4707POPC   NC359603   0.374   6.217   5.429
 4707POPC   PO459604   0.092   5.612   5.307
 4707POPC   GL159605   0.169   5.803   5.772
 4707POPC   GL259606   0.223   6.183   5.891
 4707POPC   C1A59607   0.121   5.870   6.258
 4707POPC   D2A59608   0.387   5.906   6.623
 4707POPC   C3A59609   0.179   5.862   7.009
 4707POPC   C4A59610   0.245   5.522   7.224
 4707POPC   C1B59611   0.600   6.071   6.111
 4707POPC   C2B59612   0.730   6.279   6.460
 4707POPC   C3B59613   0.715   6.216   6.877
 4707POPC   C4B59614   0.482   6.210   7.238
 4708POPC   NC359615   6.948  16.795   5.451
 4708POPC   PO459616   6.234  16.998   5.492
 4708POPC   GL159617   6.438  16.720   5.862
 4708POPC   GL259618   6.801  16.695   5.922
 4708POPC   C1A59619   6.460  16.381   6.220
 4708POPC   D2A59620   6.310  16.176   6.636
 4708POPC   C3A59621   6.405  16.370   7.035
 4708POPC   C4A59622   6.660  16.679   7.217
 4708POPC   C1B59623   6.682  16.952   6.277
 4708POPC   C2B59624   6.689  17.002   6.721
 4708POPC   C3B59625   7.035  16.960   7.043
 4708POPC   C4B59626   7.156  16.637   7.307
 4709POPC   NC359627  44.089  42.647   5.648
 4709POPC   PO459628  43.523  42.311   5.405
 4709POPC   GL159629  43.659  42.138   5.812
 4709POPC   GL259630  44.022  42.215   5.911
 4709POPC   C1A59631  43.637  42.156   6.288
 4709POPC   D2A59632  43.648  42.457   6.664
 4709POPC   C3A59633  43.737  42.227   7.068
 4709POPC   C4A59634  43.696  42.093   7.488
 4709POPC   C1B59635  44.036  42.484   6.305
 4709POPC   C2B59636  44.202  42.720   6.681
 4709POPC   C3B59637  44.151  42.527   7.086
 4709POPC   C4B59638  44.194  42.164   7.345
 4710POPC   NC359639   8.336   6.877   5.433
 4710POPC   PO459640   7.729   6.662   5.510
 4710POPC   GL159641   8.058   6.600   5.842
 4710POPC   GL259642   8.379   6.465   5.740
 4710POPC   C1A59643   8.168   6.857   6.216
 4710POPC   D2A59644   7.910   6.971   6.582
 4710POPC   C3A59645   8.051   6.822   6.957
 4710POPC   C4A59646   7.934   6.452   7.207
 4710POPC   C1B59647   8.549   6.509   6.148
 4710POPC   C2B59648   8.348   6.464   6.554
 4710POPC   C3B59649   8.425   6.476   6.986
 4710POPC   C4B59650   8.520   6.770   7.332
 4711POPC   NC359651  39.706   3.435   5.378
 4711POPC   PO459652  40.283   3.603   5.325
 4711POPC   GL159653  40.089   3.593   5.770
 4711POPC   GL259654  39.913   3.264   5.821
 4711POPC   C1A59655  40.164   3.486   6.242
 4711POPC   D2A59656  40.247   3.362   6.683
 4711POPC   C3A59657  40.130   3.673   6.969
 4711POPC   C4A59658  39.903   3.700   7.329
 4711POPC   C1B59659  39.665   3.148   6.194
 4711POPC   C2B59660  39.761   3.236   6.635
 4711POPC   C3B59661  39.886   3.238   7.057
 4711POPC   C4B59662  39.636   3.099   7.363
 4712POPC   NC359663  21.735  29.930   5.072
 4712POPC   PO459664  21.597  29.744   5.692
 4712POPC   GL159665  21.265  29.823   5.962
 4712POPC   GL259666  21.044  30.065   5.882
 4712POPC   C1A59667  21.123  29.789   6.370
 4712POPC   D2A59668  21.122  29.828   6.814
 4712POPC   C3A59669  21.524  29.904   6.976
 4712POPC   C4A59670  21.386  29.835   7.363
 4712POPC   C1B59671  21.172  30.302   6.236
 4712POPC   C2B59672  21.310  30.326   6.688
 4712POPC   C3B59673  21.273  30.311   7.148
 4712POPC   C4B59674  21.029  30.312   7.491
 4713POPC   NC359675  11.135  28.496   5.260
 4713POPC   PO459676  11.731  28.310   5.516
 4713POPC   GL159677  11.426  28.246   5.842
 4713POPC   GL259678  11.285  28.558   5.753
 4713POPC   C1A59679  11.481  28.244   6.303
 4713POPC   D2A59680  11.303  28.118   6.735
 4713POPC   C3A59681  11.525  28.270   7.141
 4713POPC   C4A59682  11.713  28.363   7.559
 4713POPC   C1B59683  11.102  28.550   6.134
 4713POPC   C2B59684  11.106  28.564   6.541
 4713POPC   C3B59685  10.877  28.609   6.905
 4713POPC   C4B59686  11.053  28.418   7.246
 4714POPC   NC359687  23.910   0.900   5.458
 4714POPC   PO459688  23.521   1.481   5.573
 4714POPC   GL159689  23.847   1.279   5.840
 4714POPC   GL259690  23.959   0.918   5.958
 4714POPC   C1A59691  23.921   1.320   6.254
 4714POPC   D2A59692  23.878   0.976   6.523
 4714POPC   C3A59693  23.822   1.194   6.880
 4714POPC   C4A59694  23.750   1.295   7.288
 4714POPC   C1B59695  23.536   0.975   6.132
 4714POPC   C2B59696  23.335   1.048   6.553
 4714POPC   C3B59697  23.318   1.161   7.008
 4714POPC   C4B59698  23.402   0.942   7.412
 4715POPC   NC359699  10.817  14.102   5.628
 4715POPC   PO459700  10.344  13.687   5.314
 4715POPC   GL159701  10.364  13.719   5.750
 4715POPC   GL259702  10.406  14.015   5.898
 4715POPC   C1A59703  10.217  13.571   6.144
 4715POPC   D2A59704  10.309  13.701   6.560
 4715POPC   C3A59705  10.456  13.375   6.857
 4715POPC   C4A59706  10.344  13.394   7.260
 4715POPC   C1B59707  10.697  13.805   6.198
 4715POPC   C2B59708  10.822  13.637   6.593
 4715POPC   C3B59709  10.739  13.799   7.007
 4715POPC   C4B59710  10.840  13.603   7.361
 4716POPC   NC359711  30.567  40.591   5.462
 4716POPC   PO459712  31.070  41.000   5.274
 4716POPC   GL159713  30.957  40.817   5.707
 4716POPC   GL259714  30.574  40.922   5.846
 4716POPC   C1A59715  30.868  40.629   6.119
 4716POPC   D2A59716  30.848  40.552   6.573
 4716POPC   C3A59717  30.905  40.843   6.915
 4716POPC   C4A59718  30.857  40.602   7.284
 4716POPC   C1B59719  30.395  41.050   6.280
 4716POPC   C2B59720  30.441  40.983   6.730
 4716POPC   C3B59721  30.458  40.907   7.184
 4716POPC   C4B59722  30.213  40.893   7.562
 4717POPC   NC359723  28.283  42.200   4.993
 4717POPC   PO459724  28.009  42.430   5.597
 4717POPC   GL159725  28.281  42.316   5.864
 4717POPC   GL259726  28.380  42.006   5.785
 4717POPC   C1A59727  28.244  42.433   6.251
 4717POPC   D2A59728  28.446  42.442   6.624
 4717POPC   C3A59729  28.211  42.425   6.966
 4717POPC   C4A59730  28.455  42.466   7.301
 4717POPC   C1B59731  28.262  41.916   6.193
 4717POPC   C2B59732  28.415  41.934   6.582
 4717POPC   C3B59733  28.393  41.928   7.001
 4717POPC   C4B59734  28.099  42.028   7.310
 4718POPC   NC359735  14.644  33.788   5.423
 4718POPC   PO459736  14.092  34.131   5.520
 4718POPC   GL159737  14.347  33.931   5.868
 4718POPC   GL259738  14.516  33.609   5.890
 4718POPC   C1A59739  14.496  33.929   6.305
 4718POPC   D2A59740  14.783  34.039   6.645
 4718POPC   C3A59741  14.531  34.081   7.039
 4718POPC   C4A59742  14.246  33.906   7.385
 4718POPC   C1B59743  14.163  33.523   6.173
 4718POPC   C2B59744  14.129  33.323   6.588
 4718POPC   C3B59745  14.223  33.486   6.999
 4718POPC   C4B59746  14.173  33.358   7.430
 4719POPC   NC359747   7.090  34.638   5.371
 4719POPC   PO459748   6.480  34.790   5.511
 4719POPC   GL159749   6.595  34.541   5.820
 4719POPC   GL259750   6.810  34.279   5.644
 4719POPC   C1A59751   6.490  34.583   6.272
 4719POPC   D2A59752   6.267  34.707   6.674
 4719POPC   C3A59753   6.592  34.657   7.003
 4719POPC   C4A59754   6.619  34.696   7.467
 4719POPC   C1B59755   6.975  34.306   6.068
 4719POPC   C2B59756   6.970  34.354   6.511
 4719POPC   C3B59757   7.143  34.267   6.896
 4719POPC   C4B59758   6.965  34.407   7.248
 4720POPC   NC359759  13.594  15.659   5.353
 4720POPC   PO459760  13.328  16.212   5.403
 4720POPC   GL159761  13.548  15.999   5.778
 4720POPC   GL259762  13.449  15.660   5.832
 4720POPC   C1A59763  13.645  15.944   6.250
 4720POPC   D2A59764  13.462  16.120   6.657
 4720POPC   C3A59765  13.680  16.215   7.039
 4720POPC   C4A59766  13.650  15.897   7.315
 4720POPC   C1B59767  13.262  15.619   6.211
 4720POPC   C2B59768  13.468  15.560   6.594
 4720POPC   C3B59769  13.355  15.624   6.994
 4720POPC   C4B59770  13.192  15.458   7.380
 4721POPC   NC359771  42.840   1.736   5.610
 4721POPC   PO459772  43.254   2.209   5.364
 4721POPC   GL159773  43.132   2.086   5.849
 4721POPC   GL259774  43.232   1.734   5.920
 4721POPC   C1A59775  43.266   1.997   6.330
 4721POPC   D2A59776  43.164   1.688   6.664
 4721POPC   C3A59777  43.269   1.937   6.960
 4721POPC   C4A59778  43.055   2.239   7.132
 4721POPC   C1B59779  42.848   1.733   6.258
 4721POPC   C2B59780  42.727   1.936   6.697
 4721POPC   C3B59781  42.815   1.746   7.113
 4721POPC   C4B59782  42.912   1.593   7.532
 4722POPC   NC359783  32.872  24.530   5.389
 4722POPC   PO459784  33.469  24.543   5.663
 4722POPC   GL159785  33.031  24.505   5.874
 4722POPC   GL259786  32.740  24.246   5.935
 4722POPC   C1A59787  32.937  24.537   6.315
 4722POPC   D2A59788  33.278  24.651   6.553
 4722POPC   C3A59789  33.138  24.755   6.914
 4722POPC   C4A59790  32.960  24.657   7.228
 4722POPC   C1B59791  33.135  24.084   6.186
 4722POPC   C2B59792  33.135  24.148   6.631
 4722POPC   C3B59793  32.802  24.348   6.832
 4722POPC   C4B59794  32.616  24.291   7.234
 4723POPC   NC359795  31.055  29.865   5.440
 4723POPC   PO459796  30.444  30.134   5.306
 4723POPC   GL159797  30.646  30.025   5.724
 4723POPC   GL259798  30.686  30.338   5.925
 4723POPC   C1A59799  30.794  29.878   6.169
 4723POPC   D2A59800  30.781  29.965   6.654
 4723POPC   C3A59801  30.855  29.712   7.064
 4723POPC   C4A59802  30.658  29.716   7.490
 4723POPC   C1B59803  31.039  30.347   6.235
 4723POPC   C2B59804  31.235  30.309   6.645
 4723POPC   C3B59805  30.959  30.306   6.996
 4723POPC   C4B59806  30.503  30.086   7.111
 4724POPC   NC359807   5.864  32.740   5.372
 4724POPC   PO459808   5.701  33.393   5.457
 4724POPC   GL159809   5.843  33.080   5.790
 4724POPC   GL259810   5.588  32.756   5.803
 4724POPC   C1A59811   6.084  33.196   6.208
 4724POPC   D2A59812   6.239  33.112   6.660
 4724POPC   C3A59813   6.184  33.191   7.135
 4724POPC   C4A59814   6.350  33.182   7.600
 4724POPC   C1B59815   5.787  32.787   6.211
 4724POPC   C2B59816   5.952  32.661   6.577
 4724POPC   C3B59817   6.005  32.742   6.996
 4724POPC   C4B59818   5.722  32.684   7.348
 4725POPC   NC359819  24.576  10.926   5.359
 4725POPC   PO459820  24.711  11.563   5.111
 4725POPC   GL159821  24.397  11.431   5.550
 4725POPC   GL259822  24.428  11.108   5.790
 4725POPC   C1A59823  24.338  11.523   6.066
 4725POPC   D2A59824  24.238  11.658   6.552
 4725POPC   C3A59825  24.466  11.483   6.948
 4725POPC   C4A59826  24.658  11.565   7.378
 4725POPC   C1B59827  24.241  11.007   6.180
 4725POPC   C2B59828  24.264  11.142   6.590
 4725POPC   C3B59829  24.367  10.981   6.970
 4725POPC   C4B59830  24.743  11.077   7.258
 4726POPC   NC359831   3.699  25.933   5.187
 4726POPC   PO459832   3.178  26.212   5.566
 4726POPC   GL159833   3.377  26.060   5.896
 4726POPC   GL259834   3.701  26.009   5.825
 4726POPC   C1A59835   3.537  26.096   6.305
 4726POPC   D2A59836   3.440  25.835   6.625
 4726POPC   C3A59837   3.592  26.048   6.958
 4726POPC   C4A59838   3.605  26.006   7.376
 4726POPC   C1B59839   3.747  25.649   6.159
 4726POPC   C2B59840   3.933  25.623   6.561
 4726POPC   C3B59841   3.751  25.568   6.951
 4726POPC   C4B59842   3.924  25.622   7.346
 4727POPC   NC359843  35.110  19.216   5.545
 4727POPC   PO459844  35.625  18.878   5.223
 4727POPC   GL159845  35.531  19.006   5.693
 4727POPC   GL259846  35.194  18.750   5.767
 4727POPC   C1A59847  35.358  19.056   6.164
 4727POPC   D2A59848  35.410  19.151   6.646
 4727POPC   C3A59849  35.568  18.873   7.006
 4727POPC   C4A59850  35.598  18.858   7.494
 4727POPC   C1B59851  35.017  18.645   6.199
 4727POPC   C2B59852  35.044  18.700   6.666
 4727POPC   C3B59853  35.057  18.959   7.037
 4727POPC   C4B59854  35.190  19.360   7.056
 4728POPC   NC359855  21.144  14.543   5.488
 4728POPC   PO459856  21.729  14.331   5.554
 4728POPC   GL159857  21.533  14.540   5.875
 4728POPC   GL259858  21.334  14.269   5.883
 4728POPC   C1A59859  21.598  14.522   6.313
 4728POPC   D2A59860  21.346  14.660   6.669
 4728POPC   C3A59861  21.504  14.604   7.091
 4728POPC   C4A59862  21.847  14.312   7.208
 4728POPC   C1B59863  21.157  14.263   6.268
 4728POPC   C2B59864  21.255  14.021   6.609
 4728POPC   C3B59865  21.438  14.111   6.983
 4728POPC   C4B59866  21.382  14.207   7.436
 4729POPC   NC359867  40.053  26.994   5.594
 4729POPC   PO459868  39.883  26.486   5.212
 4729POPC   GL159869  39.827  26.566   5.732
 4729POPC   GL259870  39.765  26.937   5.980
 4729POPC   C1A59871  39.982  26.561   6.195
 4729POPC   D2A59872  39.868  26.808   6.581
 4729POPC   C3A59873  39.941  26.668   7.014
 4729POPC   C4A59874  40.243  26.604   7.347
 4729POPC   C1B59875  39.922  27.227   6.295
 4729POPC   C2B59876  40.257  27.287   6.572
 4729POPC   C3B59877  40.321  27.038   6.935
 4729POPC   C4B59878  40.208  27.323   7.263
 4730POPC   NC359879  17.627  31.952   5.444
 4730POPC   PO459880  17.103  32.362   5.408
 4730POPC   GL159881  17.317  32.158   5.837
 4730POPC   GL259882  17.703  32.080   5.921
 4730POPC   C1A59883  17.375  32.216   6.323
 4730POPC   D2A59884  17.253  32.589   6.598
 4730POPC   C3A59885  17.315  32.577   7.016
 4730POPC   C4A59886  17.171  32.238   7.281
 4730POPC   C1B59887  17.745  32.500   6.113
 4730POPC   C2B59888  17.785  32.450   6.563
 4730POPC   C3B59889  17.631  32.215   6.888
 4730POPC   C4B59890  17.713  32.312   7.282
 4731POPC   NC359891  30.679  38.033   5.493
 4731POPC   PO459892  30.791  37.258   5.462
 4731POPC   GL159893  30.798  37.335   5.886
 4731POPC   GL259894  30.617  37.628   5.825
 4731POPC   C1A59895  30.690  37.348   6.327
 4731POPC   D2A59896  30.832  37.623   6.639
 4731POPC   C3A59897  30.930  37.436   6.982
 4731POPC   C4A59898  30.830  37.371   7.382
 4731POPC   C1B59899  30.736  37.850   6.187
 4731POPC   C2B59900  31.085  38.013   6.441
 4731POPC   C3B59901  31.107  37.967   6.915
 4731POPC   C4B59902  30.781  37.855   7.240
 4732POPC   NC359903  22.204  26.183   5.228
 4732POPC   PO459904  22.445  25.630   5.230
 4732POPC   GL159905  22.191  25.927   5.645
 4732POPC   GL259906  22.375  26.195   5.750
 4732POPC   C1A59907  22.035  25.872   6.062
 4732POPC   D2A59908  22.324  25.755   6.390
 4732POPC   C3A59909  22.244  25.802   6.879
 4732POPC   C4A59910  22.323  25.929   7.343
 4732POPC   C1B59911  22.330  26.262   6.188
 4732POPC   C2B59912  22.028  26.146   6.517
 4732POPC   C3B59913  21.942  26.261   6.925
 4732POPC   C4B59914  22.209  26.425   7.261
 4733POPC   NC359915   1.156  13.297   5.362
 4733POPC   PO459916   1.547  12.691   5.400
 4733POPC   GL159917   1.247  12.731   5.756
 4733POPC   GL259918   1.073  13.049   5.808
 4733POPC   C1A59919   1.076  12.669   6.200
 4733POPC   D2A59920   1.124  12.543   6.656
 4733POPC   C3A59921   1.268  12.722   7.080
 4733POPC   C4A59922   1.502  13.058   7.310
 4733POPC   C1B59923   1.359  13.083   6.160
 4733POPC   C2B59924   1.133  13.101   6.532
 4733POPC   C3B59925   1.217  13.245   6.923
 4733POPC   C4B59926   0.979  13.151   7.274
 4734POPC   NC359927  15.373  10.389   5.580
 4734POPC   PO459928  15.062   9.751   5.387
 4734POPC   GL159929  15.207   9.818   5.788
 4734POPC   GL259930  15.545   9.715   5.783
 4734POPC   C1A59931  15.109   9.904   6.220
 4734POPC   D2A59932  15.067   9.661   6.604
 4734POPC   C3A59933  15.220   9.771   7.016
 4734POPC   C4A59934  15.092   9.724   7.458
 4734POPC   C1B59935  15.602   9.897   6.217
 4734POPC   C2B59936  15.461  10.054   6.616
 4734POPC   C3B59937  15.637  10.074   7.033
 4734POPC   C4B59938  15.567   9.858   7.439
 4735POPC   NC359939   0.046   4.482   5.124
 4735POPC   PO459940  44.712   4.014   5.506
 4735POPC   GL159941  44.640   4.298   5.843
 4735POPC   GL259942  44.912   4.168   6.052
 4735POPC   C1A59943  44.473   4.395   6.209
 4735POPC   D2A59944  44.656   4.290   6.552
 4735POPC   C3A59945  44.599   4.525   6.880
 4735POPC   C4A59946  44.614   4.301   7.245
 4735POPC   C1B59947   0.065   4.515   6.284
 4735POPC   C2B59948   0.038   4.678   6.683
 4735POPC   C3B59949   0.047   4.719   7.110
 4735POPC   C4B59950  44.928   4.676   7.539
 4736POPC   NC359951  19.561  26.543   5.097
 4736POPC   PO459952  19.778  25.963   5.422
 4736POPC   GL159953  19.908  25.992   5.871
 4736POPC   GL259954  20.198  26.199   5.901
 4736POPC   C1A59955  19.800  26.193   6.289
 4736POPC   D2A59956  19.507  26.170   6.651
 4736POPC   C3A59957  19.681  26.076   7.056
 4736POPC   C4A59958  19.979  26.124   7.377
 4736POPC   C1B59959  20.089  26.596   6.123
 4736POPC   C2B59960  19.963  26.723   6.516
 4736POPC   C3B59961  19.991  26.488   6.886
 4736POPC   C4B59962  20.130  26.609   7.271
 4737POPC   NC359963  19.313   2.496   5.478
 4737POPC   PO459964  19.285   1.841   5.287
 4737POPC   GL159965  19.048   1.905   5.735
 4737POPC   GL259966  19.058   2.235   5.833
 4737POPC   C1A59967  18.801   1.748   6.139
 4737POPC   D2A59968  18.777   1.860   6.618
 4737POPC   C3A59969  18.801   1.584   6.987
 4737POPC   C4A59970  18.955   1.549   7.418
 4737POPC   C1B59971  19.037   2.184   6.280
 4737POPC   C2B59972  19.280   2.052   6.614
 4737POPC   C3B59973  19.223   1.929   7.023
 4737POPC   C4B59974  18.820   2.048   7.171
 4738POPC   NC359975   9.074  29.652   5.069
 4738POPC   PO459976   8.547  30.028   5.191
 4738POPC   GL159977   8.859  29.962   5.587
 4738POPC   GL259978   9.099  29.671   5.596
 4738POPC   C1A59979   8.943  30.132   6.026
 4738POPC   D2A59980   8.710  30.277   6.403
 4738POPC   C3A59981   8.782  30.015   6.800
 4738POPC   C4A59982   8.782  29.986   7.235
 4738POPC   C1B59983   9.187  29.681   6.044
 4738POPC   C2B59984   9.111  29.746   6.485
 4738POPC   C3B59985   9.299  29.873   6.887
 4738POPC   C4B59986   9.270  29.842   7.302
 4739POPC   NC359987   4.286  10.294   5.414
 4739POPC   PO459988   4.256  10.861   5.633
 4739POPC   GL159989   4.095  10.588   5.937
 4739POPC   GL259990   3.885  10.284   5.794
 4739POPC   C1A59991   4.122  10.648   6.409
 4739POPC   D2A59992   4.030  10.851   6.835
 4739POPC   C3A59993   4.401  10.766   7.124
 4739POPC   C4A59994   4.700  10.397   7.165
 4739POPC   C1B59995   4.046  10.141   6.192
 4739POPC   C2B59996   4.293  10.172   6.566
 4739POPC   C3B59997   4.198  10.306   6.969
 4739POPC   C4B59998   3.937  10.106   7.243
 4740POPC   NC359999  34.217   5.621   5.429
 4740POPC   PO460000  34.525   6.202   5.239
 4740POPC   GL160001  34.571   5.953   5.635
 4740POPC   GL260002  34.259   6.076   5.776
 4740POPC   C1A60003  34.616   5.778   6.083
 4740POPC   D2A60004  34.779   5.505   6.451
 4740POPC   C3A60005  34.722   5.610   6.890
 4740POPC   C4A60006  34.723   5.816   7.275
 4740POPC   C1B60007  34.410   6.282   6.182
 4740POPC   C2B60008  34.434   6.342   6.631
 4740POPC   C3B60009  34.376   6.224   7.059
 4740POPC   C4B60010  34.221   5.850   7.151
 4741POPC   NC360011  21.141   7.166   5.375
 4741POPC   PO460012  21.798   7.394   5.340
 4741POPC   GL160013  21.662   7.571   5.753
 4741POPC   GL260014  21.383   7.332   5.786
 4741POPC   C1A60015  21.537   7.570   6.220
 4741POPC   D2A60016  21.294   7.422   6.603
 4741POPC   C3A60017  21.396   7.588   7.009
 4741POPC   C4A60018  20.994   7.728   7.173
 4741POPC   C1B60019  21.545   7.077   6.120
 4741POPC   C2B60020  21.698   7.145   6.511
 4741POPC   C3B60021  21.595   7.078   6.977
 4741POPC   C4B60022  21.295   7.174   7.292
 4742POPC   NC360023  29.551   9.232   5.408
 4742POPC   PO460024  28.898   9.018   5.407
 4742POPC   GL160025  29.068   8.927   5.821
 4742POPC   GL260026  29.420   8.935   5.786
 4742POPC   C1A60027  29.062   9.002   6.283
 4742POPC   D2A60028  29.083   8.833   6.716
 4742POPC   C3A60029  28.896   9.106   7.021
 4742POPC   C4A60030  28.989   9.284   7.410
 4742POPC   C1B60031  29.595   8.984   6.167
 4742POPC   C2B60032  29.546   8.852   6.546
 4742POPC   C3B60033  29.534   8.763   6.957
 4742POPC   C4B60034  29.389   9.072   7.200
 4743POPC   NC360035  25.646  16.980   5.572
 4743POPC   PO460036  26.311  17.111   5.370
 4743POPC   GL160037  26.297  16.765   5.682
 4743POPC   GL260038  25.985  16.758   5.882
 4743POPC   C1A60039  26.380  16.492   6.061
 4743POPC   D2A60040  26.390  16.469   6.514
 4743POPC   C3A60041  26.037  16.614   6.751
 4743POPC   C4A60042  26.127  16.922   7.055
 4743POPC   C1B60043  25.778  16.902   6.266
 4743POPC   C2B60044  25.565  16.774   6.636
 4743POPC   C3B60045  25.638  16.817   7.066
 4743POPC   C4B60046  25.619  16.870   7.517
 4744POPC   NC360047  35.502   9.702   5.317
 4744POPC   PO460048  35.078   9.358   5.730
 4744POPC   GL160049  35.162   9.753   5.934
 4744POPC   GL260050  35.498   9.926   5.788
 4744POPC   C1A60051  35.156   9.733   6.405
 4744POPC   D2A60052  35.443   9.809   6.745
 4744POPC   C3A60053  35.207   9.899   7.099
 4744POPC   C4A60054  35.111   9.517   7.210
 4744POPC   C1B60055  35.486  10.082   6.217
 4744POPC   C2B60056  35.671  10.240   6.587
 4744POPC   C3B60057  35.557  10.247   6.984
 4744POPC   C4B60058  35.561  10.172   7.438
 4745POPC   NC360059  15.656  41.251   5.588
 4745POPC   PO460060  16.044  41.801   5.356
 4745POPC   GL160061  16.072  41.840   5.827
 4745POPC   GL260062  15.734  41.783   5.881
 4745POPC   C1A60063  16.088  41.608   6.213
 4745POPC   D2A60064  16.056  41.396   6.598
 4745POPC   C3A60065  16.208  41.522   6.997
 4745POPC   C4A60066  16.032  41.652   7.416
 4745POPC   C1B60067  15.571  41.549   6.243
 4745POPC   C2B60068  15.544  41.332   6.659
 4745POPC   C3B60069  15.700  41.481   7.045
 4745POPC   C4B60070  15.521  41.709   7.395
 4746POPC   NC360071  30.260  17.355   5.397
 4746POPC   PO460072  30.879  17.692   5.475
 4746POPC   GL160073  30.696  17.496   5.813
 4746POPC   GL260074  30.464  17.209   5.836
 4746POPC   C1A60075  30.622  17.814   6.144
 4746POPC   D2A60076  30.525  17.925   6.572
 4746POPC   C3A60077  30.840  17.733   6.817
 4746POPC   C4A60078  30.813  17.519   7.248
 4746POPC   C1B60079  30.717  17.162   6.204
 4746POPC   C2B60080  30.662  17.313   6.607
 4746POPC   C3B60081  30.651  17.114   6.984
 4746POPC   C4B60082  30.420  17.234   7.342
 4747POPC   NC360083  24.877   7.683   5.509
 4747POPC   PO460084  25.424   7.471   5.312
 4747POPC   GL160085  25.371   7.632   5.727
 4747POPC   GL260086  25.143   7.383   5.827
 4747POPC   C1A60087  25.412   7.647   6.204
 4747POPC   D2A60088  25.271   7.703   6.641
 4747POPC   C3A60089  25.512   7.455   6.914
 4747POPC   C4A60090  25.391   7.416   7.306
 4747POPC   C1B60091  25.298   7.123   6.155
 4747POPC   C2B60092  25.243   7.173   6.573
 4747POPC   C3B60093  25.072   7.153   6.986
 4747POPC   C4B60094  24.985   7.095   7.428
 4748POPC   NC360095  30.847  16.328   5.714
 4748POPC   PO460096  30.665  16.069   5.178
 4748POPC   GL160097  30.773  15.832   5.670
 4748POPC   GL260098  30.617  15.947   6.000
 4748POPC   C1A60099  30.979  15.643   6.094
 4748POPC   D2A60100  30.979  15.758   6.574
 4748POPC   C3A60101  30.604  15.790   6.882
 4748POPC   C4A60102  30.627  15.708   7.343
 4748POPC   C1B60103  30.419  16.208   6.310
 4748POPC   C2B60104  30.732  16.272   6.625
 4748POPC   C3B60105  30.944  16.178   6.993
 4748POPC   C4B60106  30.593  16.221   7.262
 4749POPC   NC360107  30.906  39.009   5.388
 4749POPC   PO460108  30.228  39.197   5.338
 4749POPC   GL160109  30.422  39.185   5.760
 4749POPC   GL260110  30.739  39.382   5.782
 4749POPC   C1A60111  30.408  39.381   6.185
 4749POPC   D2A60112  30.325  39.583   6.599
 4749POPC   C3A60113  30.474  39.298   6.906
 4749POPC   C4A60114  30.551  39.197   7.313
 4749POPC   C1B60115  30.924  39.300   6.221
 4749POPC   C2B60116  31.072  39.167   6.618
 4749POPC   C3B60117  30.980  39.238   7.035
 4749POPC   C4B60118  31.002  39.105   7.493
 4750POPC   NC360119  10.484  23.030   5.503
 4750POPC   PO460120  10.561  22.421   5.226
 4750POPC   GL160121  10.688  22.604   5.744
 4750POPC   GL260122  10.716  22.964   5.941
 4750POPC   C1A60123  10.505  22.628   6.232
 4750POPC   D2A60124  10.605  22.893   6.557
 4750POPC   C3A60125  10.598  22.693   6.920
 4750POPC   C4A60126  10.644  22.831   7.290
 4750POPC   C1B60127  10.362  23.189   6.189
 4750POPC   C2B60128  10.215  23.416   6.598
 4750POPC   C3B60129  10.345  23.170   6.967
 4750POPC   C4B60130  10.205  23.059   7.384
 4751POPC   NC360131  17.364  23.058   5.308
 4751POPC   PO460132  17.656  22.462   5.269
 4751POPC   GL160133  17.681  22.764   5.674
 4751POPC   GL260134  17.677  23.146   5.700
 4751POPC   C1A60135  17.512  22.899   6.112
 4751POPC   D2A60136  17.554  22.837   6.557
 4751POPC   C3A60137  17.285  23.036   6.851
 4751POPC   C4A60138  17.238  22.815   7.202
 4751POPC   C1B60139  17.817  23.350   6.089
 4751POPC   C2B60140  17.948  23.395   6.522
 4751POPC   C3B60141  17.721  23.342   6.904
 4751POPC   C4B60142  17.458  23.356   7.271
 4752POPC   NC360143  11.749  13.376   5.589
 4752POPC   PO460144  11.306  13.924   5.449
 4752POPC   GL160145  11.336  13.924   5.871
 4752POPC   GL260146  11.683  13.842   5.906
 4752POPC   C1A60147  11.250  13.726   6.269
 4752POPC   D2A60148  11.310  13.474   6.657
 4752POPC   C3A60149  11.281  13.680   7.077
 4752POPC   C4A60150  11.502  13.676   7.488
 4752POPC   C1B60151  11.719  13.490   6.255
 4752POPC   C2B60152  11.803  13.359   6.703
 4752POPC   C3B60153  11.669  13.335   7.154
 4752POPC   C4B60154  11.668  13.234   7.648
 4753POPC   NC360155   8.660  37.873   5.366
 4753POPC   PO460156   9.055  37.326   5.485
 4753POPC   GL160157   8.936  37.630   5.803
 4753POPC   GL260158   9.169  37.904   5.899
 4753POPC   C1A60159   8.935  37.602   6.269
 4753POPC   D2A60160   8.742  37.427   6.634
 4753POPC   C3A60161   8.725  37.625   7.028
 4753POPC   C4A60162   9.058  37.556   7.322
 4753POPC   C1B60163   9.203  38.054   6.321
 4753POPC   C2B60164   8.917  37.962   6.671
 4753POPC   C3B60165   8.899  38.110   7.109
 4753POPC   C4B60166   8.837  37.960   7.559
 4754POPC   NC360167  15.541  13.126   5.567
 4754POPC   PO460168  16.012  12.776   5.398
 4754POPC   GL160169  16.013  12.718   5.839
 4754POPC   GL260170  15.702  12.793   5.941
 4754POPC   C1A60171  16.104  12.872   6.270
 4754POPC   D2A60172  16.015  12.648   6.685
 4754POPC   C3A60173  16.227  12.785   7.059
 4754POPC   C4A60174  16.112  12.903   7.449
 4754POPC   C1B60175  15.618  13.111   6.224
 4754POPC   C2B60176  15.779  13.079   6.618
 4754POPC   C3B60177  15.847  13.125   7.032
 4754POPC   C4B60178  15.570  13.318   7.310
 4755POPC   NC360179  20.382  36.229   5.327
 4755POPC   PO460180  20.992  35.986   5.297
 4755POPC   GL160181  20.698  35.966   5.688
 4755POPC   GL260182  20.402  36.146   5.825
 4755POPC   C1A60183  20.717  35.881   6.154
 4755POPC   D2A60184  20.827  35.728   6.562
 4755POPC   C3A60185  20.587  35.935   6.837
 4755POPC   C4A60186  20.495  36.028   7.240
 4755POPC   C1B60187  20.525  36.381   6.196
 4755POPC   C2B60188  20.381  36.351   6.613
 4755POPC   C3B60189  20.517  36.486   7.004
 4755POPC   C4B60190  20.285  36.468   7.384
 4756POPC   NC360191  26.973   1.166   5.526
 4756POPC   PO460192  26.392   1.693   5.479
 4756POPC   GL160193  26.588   1.357   5.809
 4756POPC   GL260194  26.964   1.360   5.997
 4756POPC   C1A60195  26.630   1.067   6.195
 4756POPC   D2A60196  26.883   1.228   6.553
 4756POPC   C3A60197  26.720   1.186   6.965
 4756POPC   C4A60198  26.570   0.814   7.191
 4756POPC   C1B60199  27.309   1.442   6.280
 4756POPC   C2B60200  27.300   1.557   6.685
 4756POPC   C3B60201  27.240   1.336   7.051
 4756POPC   C4B60202  26.968   1.278   7.404
 4757POPC   NC360203  33.203   2.934   5.481
 4757POPC   PO460204  33.035   2.269   5.372
 4757POPC   GL160205  33.118   2.505   5.765
 4757POPC   GL260206  33.448   2.441   5.869
 4757POPC   C1A60207  32.954   2.683   6.165
 4757POPC   D2A60208  32.858   2.545   6.619
 4757POPC   C3A60209  32.988   2.836   6.958
 4757POPC   C4A60210  33.189   2.970   7.316
 4757POPC   C1B60211  33.475   2.726   6.221
 4757POPC   C2B60212  33.372   2.935   6.619
 4757POPC   C3B60213  33.527   2.754   7.013
 4757POPC   C4B60214  33.525   2.542   7.410
 4758POPC   NC360215  26.268  41.964   5.656
 4758POPC   PO460216  25.878  41.469   5.475
 4758POPC   GL160217  26.150  41.509   5.839
 4758POPC   GL260218  26.487  41.524   5.759
 4758POPC   C1A60219  26.236  41.730   6.249
 4758POPC   D2A60220  26.043  41.867   6.601
 4758POPC   C3A60221  26.153  41.584   6.932
 4758POPC   C4A60222  26.068  41.660   7.352
 4758POPC   C1B60223  26.588  41.386   6.125
 4758POPC   C2B60224  26.522  41.376   6.561
 4758POPC   C3B60225  26.499  41.119   6.926
 4758POPC   C4B60226  26.302  41.215   7.306
 4759POPC   NC360227  43.202  11.798   4.984
 4759POPC   PO460228  43.113  12.276   5.513
 4759POPC   GL160229  43.287  12.194   5.900
 4759POPC   GL260230  43.378  11.821   6.012
 4759POPC   C1A60231  43.393  12.270   6.311
 4759POPC   D2A60232  43.251  12.056   6.688
 4759POPC   C3A60233  43.228  12.267   7.079
 4759POPC   C4A60234  43.206  12.052   7.464
 4759POPC   C1B60235  43.010  11.914   6.234
 4759POPC   C2B60236  42.800  11.802   6.571
 4759POPC   C3B60237  42.954  11.685   6.947
 4759POPC   C4B60238  42.820  11.786   7.313
 4760POPC   NC360239   6.195   9.886   5.193
 4760POPC   PO460240   6.911   9.815   5.370
 4760POPC   GL160241   6.631   9.813   5.729
 4760POPC   GL260242   6.429   9.511   5.710
 4760POPC   C1A60243   6.627   9.724   6.178
 4760POPC   D2A60244   6.747   9.547   6.561
 4760POPC   C3A60245   6.878   9.853   6.831
 4760POPC   C4A60246   6.671   9.972   7.183
 4760POPC   C1B60247   6.222   9.416   6.105
 4760POPC   C2B60248   6.202   9.558   6.515
 4760POPC   C3B60249   6.385   9.684   6.873
 4760POPC   C4B60250   6.267   9.654   7.288
 4761POPC   NC360251   8.159  19.044   5.370
 4761POPC   PO460252   8.272  19.656   5.580
 4761POPC   GL160253   8.299  19.245   5.863
 4761POPC   GL260254   8.332  18.869   5.803
 4761POPC   C1A60255   8.402  19.117   6.305
 4761POPC   D2A60256   8.363  19.263   6.731
 4761POPC   C3A60257   8.041  19.058   6.942
 4761POPC   C4A60258   7.818  19.093   7.324
 4761POPC   C1B60259   8.127  18.735   6.136
 4761POPC   C2B60260   8.181  18.656   6.527
 4761POPC   C3B60261   8.252  18.599   6.937
 4761POPC   C4B60262   8.263  18.745   7.322
 4762POPC   NC360263  29.310   3.056   5.687
 4762POPC   PO460264  29.025   2.816   5.123
 4762POPC   GL160265  29.001   2.648   5.601
 4762POPC   GL260266  29.257   2.586   5.911
 4762POPC   C1A60267  28.783   2.718   6.021
 4762POPC   D2A60268  28.753   2.826   6.456
 4762POPC   C3A60269  29.032   2.671   6.783
 4762POPC   C4A60270  28.905   2.449   7.162
 4762POPC   C1B60271  29.255   2.852   6.306
 4762POPC   C2B60272  29.426   3.034   6.677
 4762POPC   C3B60273  29.257   3.044   7.088
 4762POPC   C4B60274  28.851   2.967   7.190
 4763POPC   NC360275   5.391   7.493   5.471
 4763POPC   PO460276   4.676   7.532   5.576
 4763POPC   GL160277   4.979   7.338   5.851
 4763POPC   GL260278   5.319   7.231   5.905
 4763POPC   C1A60279   4.997   7.296   6.291
 4763POPC   D2A60280   4.893   7.544   6.626
 4763POPC   C3A60281   4.936   7.406   7.036
 4763POPC   C4A60282   5.298   7.451   7.338
 4763POPC   C1B60283   5.491   7.108   6.315
 4763POPC   C2B60284   5.346   7.283   6.704
 4763POPC   C3B60285   5.282   7.026   7.067
 4763POPC   C4B60286   5.470   6.975   7.473
 4764POPC   NC360287   9.985  27.536   5.402
 4764POPC   PO460288   9.378  27.442   5.714
 4764POPC   GL160289   9.817  27.465   5.911
 4764POPC   GL260290  10.050  27.767   5.866
 4764POPC   C1A60291   9.816  27.425   6.363
 4764POPC   D2A60292   9.534  27.618   6.675
 4764POPC   C3A60293   9.579  27.472   7.094
 4764POPC   C4A60294   9.994  27.500   7.239
 4764POPC   C1B60295   9.770  27.929   6.227
 4764POPC   C2B60296   9.786  28.097   6.659
 4764POPC   C3B60297   9.776  27.948   7.074
 4764POPC   C4B60298   9.990  28.018   7.463
 4765POPC   NC360299  26.353   0.500   5.370
 4765POPC   PO460300  25.755   0.183   5.393
 4765POPC   GL160301  26.060   0.244   5.749
 4765POPC   GL260302  25.967   0.593   5.741
 4765POPC   C1A60303  26.183   0.468   6.174
 4765POPC   D2A60304  25.974   0.588   6.566
 4765POPC   C3A60305  26.244   0.554   6.903
 4765POPC   C4A60306  26.248   0.348   7.304
 4765POPC   C1B60307  25.717   0.707   6.139
 4765POPC   C2B60308  25.732   1.047   6.493
 4765POPC   C3B60309  25.799   0.969   6.941
 4765POPC   C4B60310  26.064   0.823   7.301
 4766POPC   NC360311  22.813  27.797   5.324
 4766POPC   PO460312  23.192  27.151   5.348
 4766POPC   GL160313  23.088  27.432   5.663
 4766POPC   GL260314  22.974  27.162   5.873
 4766POPC   C1A60315  23.154  27.703   6.025
 4766POPC   D2A60316  23.084  27.548   6.470
 4766POPC   C3A60317  23.170  27.723   6.874
 4766POPC   C4A60318  23.168  27.446   7.237
 4766POPC   C1B60319  22.714  27.448   6.114
 4766POPC   C2B60320  22.568  27.539   6.516
 4766POPC   C3B60321  22.729  27.435   6.911
 4766POPC   C4B60322  22.762  27.779   7.200
 4767POPC   NC360323  11.041  43.134   5.502
 4767POPC   PO460324  11.648  43.031   5.537
 4767POPC   GL160325  11.398  43.050   5.926
 4767POPC   GL260326  11.032  42.956   5.969
 4767POPC   C1A60327  11.501  43.019   6.360
 4767POPC   D2A60328  11.447  42.953   6.781
 4767POPC   C3A60329  11.576  43.257   7.075
 4767POPC   C4A60330  11.544  43.149   7.490
 4767POPC   C1B60331  11.045  42.785   6.381
 4767POPC   C2B60332  10.893  43.037   6.708
 4767POPC   C3B60333  11.067  43.131   7.098
 4767POPC   C4B60334  11.083  42.867   7.457
 4768POPC   NC360335  22.745  27.000   5.429
 4768POPC   PO460336  23.069  26.615   5.804
 4768POPC   GL160337  22.742  26.494   6.018
 4768POPC   GL260338  22.523  26.683   5.794
 4768POPC   C1A60339  22.794  26.574   6.437
 4768POPC   D2A60340  23.207  26.795   6.563
 4768POPC   C3A60341  23.123  27.024   6.926
 4768POPC   C4A60342  23.011  26.701   7.197
 4768POPC   C1B60343  22.597  26.955   6.152
 4768POPC   C2B60344  22.783  27.081   6.514
 4768POPC   C3B60345  22.617  26.898   6.875
 4768POPC   C4B60346  22.665  27.049   7.262
 4769POPC   NC360347  36.137   1.216   5.524
 4769POPC   PO460348  36.588   1.741   5.599
 4769POPC   GL160349  36.403   1.433   5.918
 4769POPC   GL260350  36.022   1.392   5.997
 4769POPC   C1A60351  36.358   1.317   6.348
 4769POPC   D2A60352  36.021   1.398   6.634
 4769POPC   C3A60353  36.180   1.444   7.039
 4769POPC   C4A60354  36.001   1.365   7.423
 4769POPC   C1B60355  35.894   1.052   6.242
 4769POPC   C2B60356  35.709   0.953   6.629
 4769POPC   C3B60357  35.879   1.009   7.068
 4769POPC   C4B60358  35.872   0.847   7.523
 4770POPC   NC360359  34.321  18.592   5.448
 4770POPC   PO460360  34.752  18.986   5.698
 4770POPC   GL160361  34.631  18.949   6.034
 4770POPC   GL260362  34.302  18.889   5.983
 4770POPC   C1A60363  34.715  19.020   6.433
 4770POPC   D2A60364  34.758  19.284   6.756
 4770POPC   C3A60365  34.540  19.062   7.068
 4770POPC   C4A60366  34.385  18.795   7.381
 4770POPC   C1B60367  34.302  19.281   6.228
 4770POPC   C2B60368  34.239  19.548   6.572
 4770POPC   C3B60369  34.370  19.541   7.008
 4770POPC   C4B60370  34.323  19.317   7.462
 4771POPC   NC360371  19.009  34.234   5.502
 4771POPC   PO460372  18.732  34.875   5.488
 4771POPC   GL160373  18.920  34.887   5.894
 4771POPC   GL260374  19.136  34.602   5.857
 4771POPC   C1A60375  19.096  34.831   6.326
 4771POPC   D2A60376  18.909  34.603   6.709
 4771POPC   C3A60377  19.016  34.849   7.084
 4771POPC   C4A60378  19.428  34.985   7.225
 4771POPC   C1B60379  18.902  34.370   6.185
 4771POPC   C2B60380  18.746  34.054   6.486
 4771POPC   C3B60381  18.661  34.144   6.910
 4771POPC   C4B60382  18.845  34.399   7.249
 4772POPC   NC360383  11.649  20.543   5.476
 4772POPC   PO460384  12.196  20.875   5.568
 4772POPC   GL160385  12.080  20.534   5.824
 4772POPC   GL260386  12.448  20.435   5.849
 4772POPC   C1A60387  11.819  20.485   6.197
 4772POPC   D2A60388  11.954  20.548   6.616
 4772POPC   C3A60389  11.737  20.662   6.989
 4772POPC   C4A60390  11.722  20.553   7.454
 4772POPC   C1B60391  12.400  20.641   6.236
 4772POPC   C2B60392  12.460  20.498   6.673
 4772POPC   C3B60393  12.246  20.546   7.079
 4772POPC   C4B60394  12.428  20.716   7.452
 4773POPC   NC360395  13.816   1.705   5.354
 4773POPC   PO460396  13.480   2.217   5.259
 4773POPC   GL160397  13.541   2.019   5.668
 4773POPC   GL260398  13.612   2.350   5.764
 4773POPC   C1A60399  13.556   1.706   6.030
 4773POPC   D2A60400  13.860   1.709   6.382
 4773POPC   C3A60401  13.754   1.769   6.817
 4773POPC   C4A60402  13.406   1.789   7.108
 4773POPC   C1B60403  13.880   2.156   6.077
 4773POPC   C2B60404  13.854   2.224   6.513
 4773POPC   C3B60405  13.934   2.238   6.939
 4773POPC   C4B60406  13.560   2.273   7.195
 4774POPC   NC360407  14.530  35.563   5.320
 4774POPC   PO460408  14.120  35.064   5.495
 4774POPC   GL160409  14.302  35.307   5.818
 4774POPC   GL260410  14.477  35.645   5.839
 4774POPC   C1A60411  14.259  35.380   6.246
 4774POPC   D2A60412  14.542  35.308   6.569
 4774POPC   C3A60413  14.344  35.374   6.946
 4774POPC   C4A60414  13.952  35.338   7.178
 4774POPC   C1B60415  14.602  35.765   6.291
 4774POPC   C2B60416  14.789  35.727   6.723
 4774POPC   C3B60417  14.772  35.612   7.189
 4774POPC   C4B60418  14.773  35.592   7.697
 4775POPC   NC360419  19.583  22.816   5.305
 4775POPC   PO460420  20.173  23.081   5.391
 4775POPC   GL160421  19.905  22.924   5.702
 4775POPC   GL260422  19.608  23.153   5.737
 4775POPC   C1A60423  19.972  22.938   6.132
 4775POPC   D2A60424  20.208  23.173   6.437
 4775POPC   C3A60425  19.949  23.207   6.807
 4775POPC   C4A60426  19.940  22.896   7.121
 4775POPC   C1B60427  19.472  23.094   6.183
 4775POPC   C2B60428  19.432  22.862   6.584
 4775POPC   C3B60429  19.464  23.011   6.990
 4775POPC   C4B60430  19.278  23.368   7.127
 4776POPC   NC360431  16.543  44.928   5.507
 4776POPC   PO460432  16.367  44.228   5.527
 4776POPC   GL160433  16.574  44.406   5.893
 4776POPC   GL260434  16.589  44.747   5.966
 4776POPC   C1A60435  16.900  44.367   6.201
 4776POPC   D2A60436  16.725  44.386   6.581
 4776POPC   C3A60437  16.835  44.696   6.879
 4776POPC   C4A60438  17.009  44.610   7.265
 4776POPC   C1B60439  16.695  44.838   6.339
 4776POPC   C2B60440  16.560   0.059   6.640
 4776POPC   C3B60441  16.343  44.834   6.931
 4776POPC   C4B60442  16.585  44.895   7.277
 4777POPC   NC360443  19.483  20.754   5.380
 4777POPC   PO460444  18.825  20.373   5.523
 4777POPC   GL160445  19.067  20.546   5.848
 4777POPC   GL260446  19.406  20.450   5.842
 4777POPC   C1A60447  19.083  20.528   6.306
 4777POPC   D2A60448  18.864  20.379   6.707
 4777POPC   C3A60449  18.939  20.594   7.097
 4777POPC   C4A60450  19.294  20.589   7.360
 4777POPC   C1B60451  19.485  20.820   6.075
 4777POPC   C2B60452  19.356  20.959   6.475
 4777POPC   C3B60453  19.376  20.781   6.878
 4777POPC   C4B60454  19.604  20.983   7.212
 4778POPC   NC360455  10.051  12.758   5.270
 4778POPC   PO460456   9.365  12.618   5.473
 4778POPC   GL160457   9.596  12.833   5.826
 4778POPC   GL260458   9.960  12.783   5.809
 4778POPC   C1A60459   9.678  12.966   6.276
 4778POPC   D2A60460   9.702  12.753   6.692
 4778POPC   C3A60461   9.514  12.974   7.044
 4778POPC   C4A60462   9.634  13.351   7.221
 4778POPC   C1B60463  10.187  12.986   6.135
 4778POPC   C2B60464  10.102  13.206   6.516
 4778POPC   C3B60465  10.021  13.084   6.944
 4778POPC   C4B60466  10.282  12.894   7.213
 4779POPC   NC360467  29.754  36.631   5.123
 4779POPC   PO460468  29.906  37.190   5.562
 4779POPC   GL160469  29.900  37.140   6.004
 4779POPC   GL260470  29.656  36.883   5.941
 4779POPC   C1A60471  29.855  36.937   6.422
 4779POPC   D2A60472  30.102  36.630   6.635
 4779POPC   C3A60473  30.121  36.798   7.014
 4779POPC   C4A60474  30.092  37.236   7.124
 4779POPC   C1B60475  29.379  36.736   6.276
 4779POPC   C2B60476  29.353  36.886   6.663
 4779POPC   C3B60477  29.667  37.044   6.921
 4779POPC   C4B60478  29.762  36.927   7.364
 4780POPC   NC360479  34.068  22.295   5.492
 4780POPC   PO460480  33.854  21.672   5.298
 4780POPC   GL160481  33.948  21.847   5.728
 4780POPC   GL260482  33.720  22.078   5.850
 4780POPC   C1A60483  34.008  21.808   6.190
 4780POPC   D2A60484  34.098  21.669   6.623
 4780POPC   C3A60485  34.039  21.993   6.920
 4780POPC   C4A60486  33.961  22.034   7.329
 4780POPC   C1B60487  33.512  22.050   6.245
 4780POPC   C2B60488  33.589  21.958   6.663
 4780POPC   C3B60489  33.519  22.098   7.087
 4780POPC   C4B60490  33.295  22.423   7.281
 4781POPC   NC360491  35.672  42.134   5.523
 4781POPC   PO460492  36.207  42.405   5.279
 4781POPC   GL160493  36.189  42.332   5.767
 4781POPC   GL260494  35.904  42.525   5.823
 4781POPC   C1A60495  36.026  42.301   6.255
 4781POPC   D2A60496  35.938  42.198   6.713
 4781POPC   C3A60497  36.287  42.231   6.986
 4781POPC   C4A60498  36.398  42.190   7.398
 4781POPC   C1B60499  35.791  42.803   6.139
 4781POPC   C2B60500  35.798  42.742   6.545
 4781POPC   C3B60501  36.035  42.719   6.896
 4781POPC   C4B60502  36.023  42.528   7.288
 4782POPC   NC360503   8.099   0.343   5.078
 4782POPC   PO460504   8.570   0.776   5.419
 4782POPC   GL160505   8.327   0.501   5.778
 4782POPC   GL260506   8.049   0.190   5.812
 4782POPC   C1A60507   8.051   0.620   6.157
 4782POPC   D2A60508   8.022   0.469   6.604
 4782POPC   C3A60509   8.060   0.724   6.962
 4782POPC   C4A60510   8.169   0.748   7.413
 4782POPC   C1B60511   8.049   0.099   6.252
 4782POPC   C2B60512   8.127  44.971   6.694
 4782POPC   C3B60513   8.103   0.197   7.094
 4782POPC   C4B60514   7.973   0.270   7.536
 4783POPC   NC360515  17.115  32.799   5.587
 4783POPC   PO460516  17.810  33.050   5.573
 4783POPC   GL160517  17.488  33.051   5.836
 4783POPC   GL260518  17.482  33.368   5.896
 4783POPC   C1A60519  17.415  32.892   6.235
 4783POPC   D2A60520  17.657  32.929   6.621
 4783POPC   C3A60521  17.617  32.978   7.060
 4783POPC   C4A60522  17.797  32.774   7.445
 4783POPC   C1B60523  17.283  33.373   6.293
 4783POPC   C2B60524  17.188  33.146   6.697
 4783POPC   C3B60525  17.155  33.188   7.151
 4783POPC   C4B60526  17.445  33.146   7.517
 4784POPC   NC360527   9.353  42.493   5.450
 4784POPC   PO460528   9.920  42.327   5.172
 4784POPC   GL160529   9.784  42.253   5.680
 4784POPC   GL260530  10.024  42.032   5.817
 4784POPC   C1A60531   9.905  42.496   6.166
 4784POPC   D2A60532   9.866  42.733   6.596
 4784POPC   C3A60533   9.632  42.647   7.012
 4784POPC   C4A60534   9.524  42.305   7.339
 4784POPC   C1B60535   9.701  42.041   6.169
 4784POPC   C2B60536   9.673  42.238   6.595
 4784POPC   C3B60537   9.589  41.963   6.968
 4784POPC   C4B60538   9.640  41.731   7.367
 4785POPC   NC360539   7.624  32.486   5.546
 4785POPC   PO460540   7.507  31.800   5.460
 4785POPC   GL160541   7.393  32.116   5.797
 4785POPC   GL260542   7.075  32.237   5.945
 4785POPC   C1A60543   7.516  32.344   6.195
 4785POPC   D2A60544   7.466  32.177   6.606
 4785POPC   C3A60545   7.377  32.406   6.951
 4785POPC   C4A60546   7.526  32.386   7.338
 4785POPC   C1B60547   7.215  31.923   6.240
 4785POPC   C2B60548   7.295  31.684   6.603
 4785POPC   C3B60549   7.138  31.898   6.920
 4785POPC   C4B60550   7.142  32.020   7.288
 4786POPC   NC360551  18.644  30.049   5.317
 4786POPC   PO460552  19.288  29.761   5.493
 4786POPC   GL160553  18.923  29.931   5.747
 4786POPC   GL260554  18.945  29.715   6.010
 4786POPC   C1A60555  18.836  30.223   6.120
 4786POPC   D2A60556  18.782  30.123   6.566
 4786POPC   C3A60557  19.126  30.172   6.869
 4786POPC   C4A60558  18.874  30.149   7.258
 4786POPC   C1B60559  19.195  29.896   6.325
 4786POPC   C2B60560  19.462  29.737   6.614
 4786POPC   C3B60561  19.438  29.646   6.982
 4786POPC   C4B60562  19.299  29.890   7.284
 4787POPC   NC360563  43.521  40.212   5.263
 4787POPC   PO460564  42.889  40.077   5.278
 4787POPC   GL160565  43.049  39.959   5.754
 4787POPC   GL260566  43.256  39.653   5.841
 4787POPC   C1A60567  43.088  39.952   6.241
 4787POPC   D2A60568  42.814  39.986   6.604
 4787POPC   C3A60569  42.950  39.944   7.006
 4787POPC   C4A60570  43.227  40.106   7.290
 4787POPC   C1B60571  43.452  39.605   6.249
 4787POPC   C2B60572  43.289  39.689   6.695
 4787POPC   C3B60573  43.324  39.626   7.168
 4787POPC   C4B60574  43.498  39.793   7.570
 4788POPC   NC360575  13.889  29.712   5.534
 4788POPC   PO460576  13.331  30.116   5.371
 4788POPC   GL160577  13.556  30.054   5.737
 4788POPC   GL260578  13.416  29.730   5.767
 4788POPC   C1A60579  13.611  30.068   6.185
 4788POPC   D2A60580  13.459  30.324   6.550
 4788POPC   C3A60581  13.540  30.245   6.980
 4788POPC   C4A60582  13.593  30.082   7.398
 4788POPC   C1B60583  13.361  29.617   6.188
 4788POPC   C2B60584  13.376  29.798   6.623
 4788POPC   C3B60585  13.605  29.716   7.015
 4788POPC   C4B60586  13.436  29.565   7.392
 4789POPC   NC360587  42.276  11.510   5.122
 4789POPC   PO460588  42.035  11.238   5.658
 4789POPC   GL160589  42.342  11.344   5.886
 4789POPC   GL260590  42.517  11.033   5.789
 4789POPC   C1A60591  42.230  11.507   6.292
 4789POPC   D2A60592  42.258  11.849   6.550
 4789POPC   C3A60593  42.425  11.734   6.912
 4789POPC   C4A60594  42.282  11.573   7.256
 4789POPC   C1B60595  42.352  10.954   6.219
 4789POPC   C2B60596  42.268  11.111   6.645
 4789POPC   C3B60597  42.147  11.094   7.086
 4789POPC   C4B60598  42.385  11.112   7.468
 4790POPC   NC360599  25.241  27.027   5.357
 4790POPC   PO460600  24.822  27.417   5.651
 4790POPC   GL160601  25.104  27.108   5.873
 4790POPC   GL260602  25.097  26.721   5.897
 4790POPC   C1A60603  25.401  27.006   6.216
 4790POPC   D2A60604  25.473  26.759   6.581
 4790POPC   C3A60605  25.318  26.998   6.931
 4790POPC   C4A60606  25.577  27.147   7.274
 4790POPC   C1B60607  25.089  26.480   6.328
 4790POPC   C2B60608  25.102  26.465   6.799
 4790POPC   C3B60609  24.828  26.426   7.228
 4790POPC   C4B60610  24.926  26.675   7.616
 4791POPC   NC360611  16.907  31.945   5.270
 4791POPC   PO460612  16.522  32.477   5.561
 4791POPC   GL160613  16.808  32.345   5.816
 4791POPC   GL260614  16.580  32.197   6.011
 4791POPC   C1A60615  16.963  32.494   6.176
 4791POPC   D2A60616  16.687  32.562   6.504
 4791POPC   C3A60617  16.852  32.376   6.862
 4791POPC   C4A60618  16.644  32.218   7.192
 4791POPC   C1B60619  16.464  31.908   6.285
 4791POPC   C2B60620  16.476  32.080   6.662
 4791POPC   C3B60621  16.296  31.891   6.948
 4791POPC   C4B60622  16.448  31.767   7.271
 4792POPC   NC360623  23.385  28.349   5.483
 4792POPC   PO460624  24.024  28.645   5.489
 4792POPC   GL160625  23.797  28.411   5.818
 4792POPC   GL260626  23.528  28.570   5.991
 4792POPC   C1A60627  23.763  28.153   6.214
 4792POPC   D2A60628  23.782  28.325   6.640
 4792POPC   C3A60629  23.567  28.160   6.984
 4792POPC   C4A60630  23.636  28.203   7.404
 4792POPC   C1B60631  23.903  28.660   6.251
 4792POPC   C2B60632  24.128  28.705   6.671
 4792POPC   C3B60633  24.044  28.657   7.138
 4792POPC   C4B60634  23.689  28.683   7.421
 4793POPC   NC360635  30.722   5.476   5.577
 4793POPC   PO460636  30.770   4.855   5.274
 4793POPC   GL160637  30.814   4.963   5.733
 4793POPC   GL260638  30.535   5.127   5.877
 4793POPC   C1A60639  30.959   5.126   6.160
 4793POPC   D2A60640  30.823   4.998   6.547
 4793POPC   C3A60641  31.058   4.944   6.900
 4793POPC   C4A60642  30.930   4.910   7.288
 4793POPC   C1B60643  30.556   5.462   6.195
 4793POPC   C2B60644  30.855   5.522   6.486
 4793POPC   C3B60645  30.891   5.430   6.886
 4793POPC   C4B60646  30.870   5.424   7.305
 4794POPC   NC360647  10.542  44.754   5.410
 4794POPC   PO460648  10.641  44.148   5.352
 4794POPC   GL160649  10.777  44.474   5.762
 4794POPC   GL260650  10.738  44.871   5.852
 4794POPC   C1A60651  10.493  44.572   6.159
 4794POPC   D2A60652  10.540  44.529   6.602
 4794POPC   C3A60653  10.665  44.551   7.043
 4794POPC   C4A60654  10.403  44.591   7.394
 4794POPC   C1B60655  10.837  44.966   6.290
 4794POPC   C2B60656  10.810  44.963   6.755
 4794POPC   C3B60657  10.888   0.007   7.199
 4794POPC   C4B60658  10.737  44.862   7.633
 4795POPC   NC360659  10.362  39.703   5.783
 4795POPC   PO460660  10.469  40.247   5.438
 4795POPC   GL160661  10.705  40.259   5.804
 4795POPC   GL260662  10.807  39.940   5.864
 4795POPC   C1A60663  10.579  40.223   6.238
 4795POPC   D2A60664  10.417  40.375   6.609
 4795POPC   C3A60665  10.287  40.165   6.967
 4795POPC   C4A60666  10.437  40.302   7.352
 4795POPC   C1B60667  10.844  39.811   6.260
 4795POPC   C2B60668  10.626  39.870   6.639
 4795POPC   C3B60669  10.776  40.034   7.014
 4795POPC   C4B60670  10.704  39.820   7.377
 4796POPC   NC360671  12.606   8.817   5.453
 4796POPC   PO460672  13.294   9.077   5.401
 4796POPC   GL160673  13.010   8.930   5.757
 4796POPC   GL260674  12.714   9.082   5.897
 4796POPC   C1A60675  13.012   8.756   6.180
 4796POPC   D2A60676  12.856   8.743   6.599
 4796POPC   C3A60677  12.796   9.147   6.794
 4796POPC   C4A60678  12.679   8.995   7.167
 4796POPC   C1B60679  13.027   9.326   6.120
 4796POPC   C2B60680  13.089   9.500   6.534
 4796POPC   C3B60681  13.204   9.462   6.976
 4796POPC   C4B60682  13.052   9.287   7.351
 4797POPC   NC360683  19.929  41.156   5.478
 4797POPC   PO460684  19.754  40.426   5.490
 4797POPC   GL160685  19.852  40.656   5.846
 4797POPC   GL260686  19.574  40.870   5.845
 4797POPC   C1A60687  19.664  40.625   6.275
 4797POPC   D2A60688  19.821  40.601   6.696
 4797POPC   C3A60689  19.627  40.555   7.107
 4797POPC   C4A60690  19.834  40.751   7.436
 4797POPC   C1B60691  19.658  41.145   6.190
 4797POPC   C2B60692  19.535  41.028   6.599
 4797POPC   C3B60693  19.731  41.059   6.998
 4797POPC   C4B60694  19.511  41.143   7.362
 4798POPC   NC360695   1.859  19.760   5.336
 4798POPC   PO460696   1.861  20.406   5.135
 4798POPC   GL160697   2.031  20.174   5.587
 4798POPC   GL260698   2.296  20.286   5.840
 4798POPC   C1A60699   2.030  19.833   5.977
 4798POPC   D2A60700   1.836  19.709   6.433
 4798POPC   C3A60701   2.003  19.592   6.853
 4798POPC   C4A60702   1.905  19.554   7.263
 4798POPC   C1B60703   2.193  20.184   6.300
 4798POPC   C2B60704   2.158  20.064   6.751
 4798POPC   C3B60705   2.165  20.024   7.218
 4798POPC   C4B60706   2.286  20.130   7.668
 4799POPC   NC360707  24.835  32.216   5.469
 4799POPC   PO460708  25.449  32.525   5.373
 4799POPC   GL160709  25.440  32.316   5.760
 4799POPC   GL260710  25.295  31.999   5.675
 4799POPC   C1A60711  25.293  32.300   6.162
 4799POPC   D2A60712  25.526  32.422   6.523
 4799POPC   C3A60713  25.449  32.248   6.869
 4799POPC   C4A60714  25.335  32.254   7.234
 4799POPC   C1B60715  25.458  31.812   6.056
 4799POPC   C2B60716  25.498  31.882   6.501
 4799POPC   C3B60717  25.216  31.780   6.843
 4799POPC   C4B60718  25.069  31.829   7.251
 4800POPC   NC360719   6.262   1.349   5.419
 4800POPC   PO460720   5.776   0.999   5.689
 4800POPC   GL160721   6.104   1.091   5.903
 4800POPC   GL260722   6.109   1.456   5.937
 4800POPC   C1A60723   6.053   0.862   6.302
 4800POPC   D2A60724   5.770   0.810   6.642
 4800POPC   C3A60725   6.008   0.893   7.009
 4800POPC   C4A60726   5.986   1.042   7.407
 4800POPC   C1B60727   5.892   1.373   6.295
 4800POPC   C2B60728   6.017   1.296   6.670
 4800POPC   C3B60729   5.872   1.411   7.058
 4800POPC   C4B60730   6.067   1.543   7.377
 4801POPC   NC360731   3.458  44.633   5.284
 4801POPC   PO460732   3.168   0.095   5.634
 4801POPC   GL160733   3.337  44.772   5.882
 4801POPC   GL260734   3.632  44.660   5.760
 4801POPC   C1A60735   3.237  44.681   6.299
 4801POPC   D2A60736   3.458  44.710   6.654
 4801POPC   C3A60737   3.291  44.624   7.053
 4801POPC   C4A60738   3.530  44.753   7.420
 4801POPC   C1B60739   3.638  44.429   6.127
 4801POPC   C2B60740   3.870  44.418   6.482
 4801POPC   C3B60741   3.904  44.585   6.884
 4801POPC   C4B60742   3.914  44.415   7.283
 4802POPC   NC360743  20.720   3.279   5.443
 4802POPC   PO460744  20.909   3.936   5.433
 4802POPC   GL160745  20.830   3.728   5.811
 4802POPC   GL260746  20.513   3.578   5.808
 4802POPC   C1A60747  20.805   3.543   6.227
 4802POPC   D2A60748  21.047   3.363   6.532
 4802POPC   C3A60749  20.915   3.505   6.925
 4802POPC   C4A60750  20.804   3.815   7.208
 4802POPC   C1B60751  20.321   3.471   6.228
 4802POPC   C2B60752  20.479   3.453   6.633
 4802POPC   C3B60753  20.387   3.666   6.967
 4802POPC   C4B60754  20.091   3.615   7.220
 4803POPC   NC360755  29.824  19.421   5.414
 4803POPC   PO460756  30.061  18.782   5.479
 4803POPC   GL160757  30.047  19.101   5.779
 4803POPC   GL260758  29.697  19.101   5.799
 4803POPC   C1A60759  30.032  18.973   6.215
 4803POPC   D2A60760  30.077  19.131   6.648
 4803POPC   C3A60761  30.079  18.988   7.084
 4803POPC   C4A60762  29.700  18.872   7.308
 4803POPC   C1B60763  29.561  19.222   6.199
 4803POPC   C2B60764  29.622  19.394   6.595
 4803POPC   C3B60765  29.540  19.213   6.970
 4803POPC   C4B60766  29.776  19.373   7.296
 4804POPC   NC360767  32.459   6.919   5.499
 4804POPC   PO460768  31.963   6.407   5.423
 4804POPC   GL160769  32.177   6.541   5.789
 4804POPC   GL260770  32.031   6.867   5.824
 4804POPC   C1A60771  32.317   6.465   6.228
 4804POPC   D2A60772  32.150   6.305   6.637
 4804POPC   C3A60773  32.351   6.510   6.960
 4804POPC   C4A60774  32.440   6.761   7.288
 4804POPC   C1B60775  32.003   6.915   6.274
 4804POPC   C2B60776  31.982   6.785   6.727
 4804POPC   C3B60777  31.914   6.926   7.150
 4804POPC   C4B60778  31.701   6.993   7.560
 4805POPC   NC360779  42.763  20.946   5.493
 4805POPC   PO460780  42.331  21.438   5.296
 4805POPC   GL160781  42.469  21.406   5.724
 4805POPC   GL260782  42.333  21.069   5.784
 4805POPC   C1A60783  42.394  21.604   6.144
 4805POPC   D2A60784  42.418  21.721   6.603
 4805POPC   C3A60785  42.217  21.472   6.936
 4805POPC   C4A60786  42.082  21.558   7.349
 4805POPC   C1B60787  42.571  21.115   6.170
 4805POPC   C2B60788  42.446  21.165   6.583
 4805POPC   C3B60789  42.657  21.199   6.960
 4805POPC   C4B60790  42.586  21.430   7.308
 4806POPC   NC360791   3.179  20.880   5.378
 4806POPC   PO460792   3.589  20.374   5.283
 4806POPC   GL160793   3.431  20.366   5.699
 4806POPC   GL260794   3.451  20.725   5.795
 4806POPC   C1A60795   3.543  20.345   6.146
 4806POPC   D2A60796   3.779  20.442   6.534
 4806POPC   C3A60797   3.594  20.299   6.903
 4806POPC   C4A60798   3.302  20.513   7.154
 4806POPC   C1B60799   3.286  20.792   6.221
 4806POPC   C2B60800   3.356  20.760   6.676
 4806POPC   C3B60801   3.340  21.004   7.075
 4806POPC   C4B60802   3.062  20.888   7.425
 4807POPC   NC360803  22.487   8.247   5.383
 4807POPC   PO460804  21.875   8.438   5.409
 4807POPC   GL160805  22.158   8.348   5.745
 4807POPC   GL260806  22.172   8.039   5.762
 4807POPC   C1A60807  22.125   8.382   6.204
 4807POPC   D2A60808  21.980   8.240   6.601
 4807POPC   C3A60809  22.191   8.267   6.981
 4807POPC   C4A60810  22.005   8.312   7.423
 4807POPC   C1B60811  22.251   7.851   6.121
 4807POPC   C2B60812  22.099   7.759   6.505
 4807POPC   C3B60813  22.302   7.759   6.912
 4807POPC   C4B60814  22.235   7.882   7.306
 4808POPC   NC360815   7.707  30.851   4.951
 4808POPC   PO460816   7.396  30.473   5.382
 4808POPC   GL160817   7.382  30.767   5.748
 4808POPC   GL260818   7.158  30.613   5.886
 4808POPC   C1A60819   7.477  30.869   6.203
 4808POPC   D2A60820   7.767  30.741   6.537
 4808POPC   C3A60821   7.609  30.746   6.926
 4808POPC   C4A60822   7.431  31.045   7.190
 4808POPC   C1B60823   7.292  30.393   6.231
 4808POPC   C2B60824   7.414  30.329   6.627
 4808POPC   C3B60825   7.237  30.396   7.013
 4808POPC   C4B60826   7.488  30.488   7.353
 4809POPC   NC360827   9.797  26.600   5.104
 4809POPC   PO460828  10.140  27.187   5.125
 4809POPC   GL160829   9.980  27.054   5.606
 4809POPC   GL260830   9.659  26.842   5.675
 4809POPC   C1A60831   9.912  26.983   6.093
 4809POPC   D2A60832   9.643  26.925   6.475
 4809POPC   C3A60833   9.806  27.048   6.901
 4809POPC   C4A60834   9.815  27.037   7.358
 4809POPC   C1B60835   9.587  26.575   6.088
 4809POPC   C2B60836   9.817  26.407   6.438
 4809POPC   C3B60837   9.670  26.511   6.833
 4809POPC   C4B60838   9.586  26.595   7.278
 4810POPC   NC360839  15.895  40.422   5.493
 4810POPC   PO460840  16.109  41.117   5.611
 4810POPC   GL160841  15.908  40.805   5.837
 4810POPC   GL260842  15.541  40.854   5.885
 4810POPC   C1A60843  16.059  40.691   6.217
 4810POPC   D2A60844  15.899  40.926   6.530
 4810POPC   C3A60845  16.182  40.994   6.879
 4810POPC   C4A60846  16.028  41.125   7.257
 4810POPC   C1B60847  15.564  40.597   6.253
 4810POPC   C2B60848  15.704  40.481   6.666
 4810POPC   C3B60849  15.722  40.810   6.989
 4810POPC   C4B60850  15.664  40.780   7.424
 4811POPC   NC360851  27.970  25.985   5.469
 4811POPC   PO460852  27.293  26.150   5.283
 4811POPC   GL160853  27.476  26.108   5.682
 4811POPC   GL260854  27.507  25.773   5.776
 4811POPC   C1A60855  27.492  26.182   6.133
 4811POPC   D2A60856  27.745  26.395   6.462
 4811POPC   C3A60857  27.532  26.393   6.864
 4811POPC   C4A60858  27.669  26.192   7.235
 4811POPC   C1B60859  27.453  25.668   6.228
 4811POPC   C2B60860  27.468  25.907   6.611
 4811POPC   C3B60861  27.451  25.782   7.035
 4811POPC   C4B60862  27.260  25.938   7.439
 4812POPC   NC360863  20.771  16.234   5.513
 4812POPC   PO460864  20.508  16.779   5.223
 4812POPC   GL160865  20.602  16.752   5.661
 4812POPC   GL260866  20.382  16.942   5.830
 4812POPC   C1A60867  20.682  16.619   6.124
 4812POPC   D2A60868  20.864  16.722   6.544
 4812POPC   C3A60869  20.717  16.613   6.952
 4812POPC   C4A60870  20.834  16.798   7.345
 4812POPC   C1B60871  20.269  16.927   6.282
 4812POPC   C2B60872  20.320  16.895   6.744
 4812POPC   C3B60873  20.353  16.940   7.205
 4812POPC   C4B60874  20.395  16.998   7.667
 4813POPC   NC360875  36.632  41.021   5.245
 4813POPC   PO460876  36.042  40.715   5.428
 4813POPC   GL160877  36.049  40.848   5.848
 4813POPC   GL260878  35.832  40.661   6.005
 4813POPC   C1A60879  36.285  40.886   6.257
 4813POPC   D2A60880  36.395  40.692   6.617
 4813POPC   C3A60881  36.100  40.783   6.889
 4813POPC   C4A60882  36.214  40.799   7.297
 4813POPC   C1B60883  35.812  40.733   6.444
 4813POPC   C2B60884  35.607  40.570   6.794
 4813POPC   C3B60885  35.862  40.421   7.146
 4813POPC   C4B60886  35.880  40.527   7.581
 4814POPC   NC360887  35.918  16.691   5.472
 4814POPC   PO460888  36.535  16.911   5.478
 4814POPC   GL160889  36.343  16.643   5.760
 4814POPC   GL260890  36.148  16.943   5.833
 4814POPC   C1A60891  36.324  16.618   6.190
 4814POPC   D2A60892  36.172  16.729   6.575
 4814POPC   C3A60893  36.326  16.885   6.955
 4814POPC   C4A60894  36.137  16.601   7.238
 4814POPC   C1B60895  36.010  17.075   6.177
 4814POPC   C2B60896  35.824  17.089   6.550
 4814POPC   C3B60897  35.798  16.889   6.919
 4814POPC   C4B60898  35.863  17.065   7.279
 4815POPC   NC360899   1.342  15.595   5.583
 4815POPC   PO460900   1.053  16.227   5.331
 4815POPC   GL160901   1.141  16.048   5.733
 4815POPC   GL260902   0.893  15.770   5.816
 4815POPC   C1A60903   1.155  16.233   6.141
 4815POPC   D2A60904   0.996  16.347   6.551
 4815POPC   C3A60905   0.955  16.221   6.978
 4815POPC   C4A60906   1.204  15.988   7.255
 4815POPC   C1B60907   0.803  15.879   6.259
 4815POPC   C2B60908   0.986  15.838   6.658
 4815POPC   C3B60909   1.354  15.668   6.844
 4815POPC   C4B60910   1.350  15.495   7.240
 4816POPC   NC360911  22.654  37.280   5.623
 4816POPC   PO460912  22.989  37.812   5.400
 4816POPC   GL160913  22.964  37.806   5.823
 4816POPC   GL260914  23.118  37.498   5.829
 4816POPC   C1A60915  22.740  37.632   6.187
 4816POPC   D2A60916  22.538  37.767   6.558
 4816POPC   C3A60917  22.720  37.588   6.917
 4816POPC   C4A60918  22.926  37.794   7.270
 4816POPC   C1B60919  23.077  37.236   6.178
 4816POPC   C2B60920  22.979  37.252   6.613
 4816POPC   C3B60921  23.146  37.349   7.018
 4816POPC   C4B60922  23.498  37.424   7.228
 4817POPC   NC360923   6.757  36.077   5.245
 4817POPC   PO460924   7.408  36.049   5.369
 4817POPC   GL160925   7.395  36.076   5.801
 4817POPC   GL260926   7.103  36.230   5.835
 4817POPC   C1A60927   7.416  35.977   6.231
 4817POPC   D2A60928   7.605  36.170   6.548
 4817POPC   C3A60929   7.604  35.956   6.892
 4817POPC   C4A60930   7.391  36.064   7.254
 4817POPC   C1B60931   6.921  35.941   6.115
 4817POPC   C2B60932   6.992  35.829   6.545
 4817POPC   C3B60933   7.101  35.747   6.963
 4817POPC   C4B60934   6.925  35.839   7.360
 4818POPC   NC360935   0.380  23.609   5.446
 4818POPC   PO460936   1.014  23.906   5.610
 4818POPC   GL160937   0.662  23.719   5.868
 4818POPC   GL260938   0.316  23.873   5.876
 4818POPC   C1A60939   0.393  23.457   6.150
 4818POPC   D2A60940   0.473  23.302   6.565
 4818POPC   C3A60941   0.339  23.481   6.934
 4818POPC   C4A60942   0.506  23.649   7.324
 4818POPC   C1B60943   0.444  23.959   6.328
 4818POPC   C2B60944   0.211  23.927   6.725
 4818POPC   C3B60945   0.123  23.914   7.159
 4818POPC   C4B60946   0.349  24.098   7.535
 4819POPC   NC360947  17.437  41.239   5.369
 4819POPC   PO460948  17.814  40.654   5.235
 4819POPC   GL160949  17.762  40.753   5.683
 4819POPC   GL260950  17.715  40.442   5.866
 4819POPC   C1A60951  17.683  40.943   6.128
 4819POPC   D2A60952  17.413  40.885   6.535
 4819POPC   C3A60953  17.502  41.060   6.971
 4819POPC   C4A60954  17.848  41.309   7.137
 4819POPC   C1B60955  17.334  40.545   6.122
 4819POPC   C2B60956  17.231  40.407   6.552
 4819POPC   C3B60957  17.467  40.539   6.943
 4819POPC   C4B60958  17.387  40.568   7.383
 4820POPC   NC360959  33.663  11.977   5.359
 4820POPC   PO460960  34.031  12.569   5.400
 4820POPC   GL160961  33.798  12.343   5.708
 4820POPC   GL260962  33.419  12.332   5.710
 4820POPC   C1A60963  33.850  12.152   6.112
 4820POPC   D2A60964  34.008  12.175   6.528
 4820POPC   C3A60965  33.777  12.008   6.901
 4820POPC   C4A60966  33.710  12.077   7.331
 4820POPC   C1B60967  33.365  12.378   6.162
 4820POPC   C2B60968  33.450  12.264   6.605
 4820POPC   C3B60969  33.397  12.401   7.055
 4820POPC   C4B60970  33.471  12.480   7.527
 4821POPC   NC360971  27.345  35.486   5.219
 4821POPC   PO460972  26.768  35.275   5.327
 4821POPC   GL160973  26.981  35.383   5.668
 4821POPC   GL260974  27.065  35.115   5.897
 4821POPC   C1A60975  26.857  35.564   6.063
 4821POPC   D2A60976  26.636  35.580   6.462
 4821POPC   C3A60977  26.826  35.413   6.827
 4821POPC   C4A60978  26.734  35.563   7.248
 4821POPC   C1B60979  26.782  35.094   6.264
 4821POPC   C2B60980  26.566  34.946   6.651
 4821POPC   C3B60981  26.645  35.014   7.091
 4821POPC   C4B60982  27.034  35.102   7.245
 4822POPC   NC360983   8.695  43.479   5.342
 4822POPC   PO460984   8.958  42.800   5.401
 4822POPC   GL160985   8.834  43.028   5.773
 4822POPC   GL260986   8.978  43.297   5.778
 4822POPC   C1A60987   9.007  42.984   6.218
 4822POPC   D2A60988   8.926  43.101   6.659
 4822POPC   C3A60989   9.243  42.961   6.954
 4822POPC   C4A60990   9.203  42.715   7.349
 4822POPC   C1B60991   8.897  43.481   6.188
 4822POPC   C2B60992   8.666  43.513   6.515
 4822POPC   C3B60993   8.755  43.526   6.924
 4822POPC   C4B60994   8.631  43.589   7.323
 4823POPC   NC360995  28.818  41.845   5.613
 4823POPC   PO460996  28.250  41.467   5.478
 4823POPC   GL160997  28.296  41.487   5.911
 4823POPC   GL260998  28.591  41.514   5.910
 4823POPC   C1A60999  28.367  41.442   6.369
 4823POPC   D2A61000  28.328  41.304   6.756
 4823POPC   C3A61001  28.459  41.395   7.115
 4823POPC   C4A61002  28.457  41.646   7.430
 4823POPC   C1B61003  28.760  41.722   6.258
 4823POPC   C2B61004  28.757  41.593   6.722
 4823POPC   C3B61005  28.864  41.728   7.112
 4823POPC   C4B61006  28.732  42.041   7.423
 4824POPC   NC361007   8.231  12.357   5.144
 4824POPC   PO461008   7.966  11.901   5.509
 4824POPC   GL161009   8.214  11.897   5.889
 4824POPC   GL261010   8.502  12.124   5.887
 4824POPC   C1A61011   8.424  11.805   6.306
 4824POPC   D2A61012   8.630  11.827   6.703
 4824POPC   C3A61013   8.357  11.758   7.017
 4824POPC   C4A61014   8.260  11.978   7.356
 4824POPC   C1B61015   8.281  12.292   6.256
 4824POPC   C2B61016   8.316  12.246   6.694
 4824POPC   C3B61017   8.123  12.370   7.057
 4824POPC   C4B61018   8.022  12.405   7.486
 4825POPC   NC361019   2.490  27.278   5.478
 4825POPC   PO461020   2.881  26.741   5.360
 4825POPC   GL161021   2.892  26.758   5.814
 4825POPC   GL261022   2.713  27.068   5.882
 4825POPC   C1A61023   2.730  26.670   6.224
 4825POPC   D2A61024   2.983  26.758   6.580
 4825POPC   C3A61025   2.823  26.634   6.939
 4825POPC   C4A61026   2.991  26.768   7.315
 4825POPC   C1B61027   2.639  27.218   6.294
 4825POPC   C2B61028   2.559  27.033   6.707
 4825POPC   C3B61029   2.613  27.053   7.167
 4825POPC   C4B61030   2.384  27.079   7.602
 4826POPC   NC361031  21.688  32.553   5.673
 4826POPC   PO461032  21.335  32.001   5.580
 4826POPC   GL161033  21.327  32.193   5.946
 4826POPC   GL261034  20.990  32.354   5.902
 4826POPC   C1A61035  21.547  32.195   6.345
 4826POPC   D2A61036  21.542  32.517   6.679
 4826POPC   C3A61037  21.713  32.500   7.075
 4826POPC   C4A61038  21.589  32.156   7.320
 4826POPC   C1B61039  20.944  32.122   6.288
 4826POPC   C2B61040  21.168  32.083   6.677
 4826POPC   C3B61041  21.155  32.273   7.082
 4826POPC   C4B61042  21.071  32.084   7.508
 4827POPC   NC361043  31.032   4.542   5.516
 4827POPC   PO461044  31.634   4.359   5.358
 4827POPC   GL161045  31.670   4.480   5.792
 4827POPC   GL261046  31.332   4.338   5.896
 4827POPC   C1A61047  31.672   4.437   6.260
 4827POPC   D2A61048  31.384   4.204   6.536
 4827POPC   C3A61049  31.434   4.225   6.987
 4827POPC   C4A61050  31.828   4.339   7.182
 4827POPC   C1B61051  30.986   4.281   6.219
 4827POPC   C2B61052  30.957   4.479   6.652
 4827POPC   C3B61053  30.966   4.424   7.109
 4827POPC   C4B61054  30.934   4.475   7.580
 4828POPC   NC361055  14.413  30.471   5.461
 4828POPC   PO461056  14.894  30.863   5.635
 4828POPC   GL161057  14.518  30.797   5.839
 4828POPC   GL261058  14.164  30.855   5.726
 4828POPC   C1A61059  14.372  30.569   6.160
 4828POPC   D2A61060  14.406  30.329   6.518
 4828POPC   C3A61061  14.409  30.396   6.960
 4828POPC   C4A61062  14.398  30.612   7.330
 4828POPC   C1B61063  14.013  30.952   6.168
 4828POPC   C2B61064  14.172  30.864   6.579
 4828POPC   C3B61065  14.238  30.983   7.003
 4828POPC   C4B61066  14.036  30.973   7.407
 4829POPC   NC361067  39.866  28.774   5.562
 4829POPC   PO461068  40.183  29.396   5.463
 4829POPC   GL161069  40.012  29.261   5.828
 4829POPC   GL261070  40.249  28.975   5.825
 4829POPC   C1A61071  39.737  29.159   6.180
 4829POPC   D2A61072  39.839  28.919   6.552
 4829POPC   C3A61073  39.778  29.063   6.959
 4829POPC   C4A61074  39.951  28.823   7.317
 4829POPC   C1B61075  40.244  29.023   6.249
 4829POPC   C2B61076  40.487  29.175   6.565
 4829POPC   C3B61077  40.293  29.076   6.943
 4829POPC   C4B61078  40.353  29.115   7.368
 4830POPC   NC361079  34.347  42.948   5.246
 4830POPC   PO461080  34.995  43.113   5.398
 4830POPC   GL161081  34.651  42.873   5.695
 4830POPC   GL261082  34.363  43.111   5.777
 4830POPC   C1A61083  34.481  42.843   6.175
 4830POPC   D2A61084  34.667  42.730   6.585
 4830POPC   C3A61085  34.560  42.940   6.998
 4830POPC   C4A61086  34.834  43.261   7.171
 4830POPC   C1B61087  34.481  43.362   6.167
 4830POPC   C2B61088  34.646  43.271   6.581
 4830POPC   C3B61089  34.441  43.447   6.920
 4830POPC   C4B61090  34.343  43.325   7.322
 4831POPC   NC361091  23.737  33.325   5.269
 4831POPC   PO461092  23.781  32.700   5.128
 4831POPC   GL161093  23.674  32.765   5.606
 4831POPC   GL261094  23.914  32.693   5.850
 4831POPC   C1A61095  23.500  32.974   6.003
 4831POPC   D2A61096  23.469  33.013   6.462
 4831POPC   C3A61097  23.753  33.189   6.762
 4831POPC   C4A61098  23.660  33.139   7.187
 4831POPC   C1B61099  23.962  32.927   6.244
 4831POPC   C2B61100  24.037  32.784   6.618
 4831POPC   C3B61101  23.792  32.702   6.947
 4831POPC   C4B61102  23.910  32.670   7.335
 4832POPC   NC361103  30.036   3.099   5.247
 4832POPC   PO461104  29.642   3.373   5.679
 4832POPC   GL161105  29.777   3.431   6.029
 4832POPC   GL261106  30.105   3.542   5.950
 4832POPC   C1A61107  29.929   3.368   6.426
 4832POPC   D2A61108  30.266   3.485   6.691
 4832POPC   C3A61109  30.074   3.412   7.078
 4832POPC   C4A61110  29.754   3.146   7.079
 4832POPC   C1B61111  29.964   3.864   6.246
 4832POPC   C2B61112  29.690   3.892   6.592
 4832POPC   C3B61113  29.751   3.850   7.011
 4832POPC   C4B61114  30.088   3.844   7.320
 4833POPC   NC361115   8.016  11.434   5.464
 4833POPC   PO461116   8.702  11.294   5.501
 4833POPC   GL161117   8.356  11.396   5.831
 4833POPC   GL261118   8.131  11.115   5.865
 4833POPC   C1A61119   8.073  11.469   6.216
 4833POPC   D2A61120   8.249  11.409   6.650
 4833POPC   C3A61121   7.972  11.424   7.050
 4833POPC   C4A61122   7.905  11.627   7.471
 4833POPC   C1B61123   8.445  11.075   6.217
 4833POPC   C2B61124   8.539  10.993   6.669
 4833POPC   C3B61125   8.445  11.196   7.100
 4833POPC   C4B61126   8.554  11.020   7.568
 4834POPC   NC361127  44.861  40.002   5.441
 4834POPC   PO461128  44.203  39.849   5.544
 4834POPC   GL161129  44.450  40.092   5.837
 4834POPC   GL261130  44.678  39.894   5.879
 4834POPC   C1A61131  44.510  40.197   6.266
 4834POPC   D2A61132  44.280  40.054   6.628
 4834POPC   C3A61133  44.544  40.189   6.896
 4834POPC   C4A61134  44.680  40.117   7.252
 4834POPC   C1B61135  44.775  39.726   6.209
 4834POPC   C2B61136  44.742  39.835   6.581
 4834POPC   C3B61137  44.614  39.691   6.972
 4834POPC   C4B61138  44.863  39.635   7.301
 4835POPC   NC361139  24.023   3.405   5.279
 4835POPC   PO461140  23.491   3.796   5.341
 4835POPC   GL161141  23.709   3.579   5.670
 4835POPC   GL261142  23.861   3.842   5.839
 4835POPC   C1A61143  23.666   3.411   6.094
 4835POPC   D2A61144  23.384   3.417   6.467
 4835POPC   C3A61145  23.638   3.295   6.830
 4835POPC   C4A61146  23.612   3.432   7.237
 4835POPC   C1B61147  23.640   3.913   6.250
 4835POPC   C2B61148  23.716   3.807   6.704
 4835POPC   C3B61149  24.001   3.713   7.089
 4835POPC   C4B61150  23.947   3.681   7.592
 4836POPC   NC361151  28.689  28.338   5.238
 4836POPC   PO461152  28.278  28.916   5.443
 4836POPC   GL161153  28.367  28.712   5.880
 4836POPC   GL261154  28.607  28.410   5.940
 4836POPC   C1A61155  28.167  28.462   6.243
 4836POPC   D2A61156  27.917  28.347   6.646
 4836POPC   C3A61157  28.053  28.507   7.052
 4836POPC   C4A61158  28.250  28.281   7.388
 4836POPC   C1B61159  28.500  28.065   6.250
 4836POPC   C2B61160  28.412  28.036   6.699
 4836POPC   C3B61161  28.699  28.087   7.059
 4836POPC   C4B61162  28.690  28.044   7.488
 4837POPC   NC361163  20.812  26.786   5.422
 4837POPC   PO461164  20.151  26.518   5.470
 4837POPC   GL161165  20.460  26.632   5.761
 4837POPC   GL261166  20.470  26.984   5.865
 4837POPC   C1A61167  20.601  26.603   6.175
 4837POPC   D2A61168  20.767  26.669   6.559
 4837POPC   C3A61169  20.467  26.807   6.833
 4837POPC   C4A61170  20.620  26.706   7.209
 4837POPC   C1B61171  20.840  27.047   6.185
 4837POPC   C2B61172  20.819  27.182   6.642
 4837POPC   C3B61173  20.874  27.119   7.120
 4837POPC   C4B61174  20.762  27.173   7.597
 4838POPC   NC361175   6.245  30.488   5.349
 4838POPC   PO461176   6.590  29.939   5.127
 4838POPC   GL161177   6.658  29.981   5.621
 4838POPC   GL261178   6.552  30.292   5.741
 4838POPC   C1A61179   6.488  29.887   6.072
 4838POPC   D2A61180   6.624  29.894   6.516
 4838POPC   C3A61181   6.389  29.855   6.856
 4838POPC   C4A61182   6.416  29.935   7.266
 4838POPC   C1B61183   6.786  30.370   6.126
 4838POPC   C2B61184   6.881  30.354   6.554
 4838POPC   C3B61185   6.723  30.261   6.958
 4838POPC   C4B61186   6.873  30.293   7.361
 4839POPC   NC361187  35.617  35.916   5.271
 4839POPC   PO461188  35.017  36.151   5.533
 4839POPC   GL161189  35.137  35.863   5.859
 4839POPC   GL261190  35.426  35.693   5.810
 4839POPC   C1A61191  35.334  35.923   6.284
 4839POPC   D2A61192  35.416  36.200   6.621
 4839POPC   C3A61193  35.173  36.206   7.004
 4839POPC   C4A61194  35.074  35.852   7.277
 4839POPC   C1B61195  35.744  35.654   6.149
 4839POPC   C2B61196  35.788  35.815   6.584
 4839POPC   C3B61197  35.543  35.838   6.982
 4839POPC   C4B61198  35.516  36.010   7.432
 4840POPC   NC361199   7.411  23.205   5.416
 4840POPC   PO461200   7.297  22.628   5.356
 4840POPC   GL161201   7.363  22.865   5.778
 4840POPC   GL261202   7.146  23.167   5.854
 4840POPC   C1A61203   7.400  22.790   6.215
 4840POPC   D2A61204   7.162  23.005   6.521
 4840POPC   C3A61205   7.348  22.894   6.915
 4840POPC   C4A61206   7.385  22.991   7.347
 4840POPC   C1B61207   7.465  23.292   6.153
 4840POPC   C2B61208   7.634  23.224   6.573
 4840POPC   C3B61209   7.560  23.369   7.014
 4840POPC   C4B61210   7.706  23.370   7.464
 4841POPC   NC361211  30.998  28.116   5.575
 4841POPC   PO461212  30.502  28.564   5.446
 4841POPC   GL161213  30.616  28.363   5.842
 4841POPC   GL261214  30.426  28.035   5.850
 4841POPC   C1A61215  30.810  28.467   6.249
 4841POPC   D2A61216  30.757  28.652   6.654
 4841POPC   C3A61217  30.620  28.388   6.975
 4841POPC   C4A61218  30.769  28.597   7.326
 4841POPC   C1B61219  30.737  27.945   6.192
 4841POPC   C2B61220  30.978  28.075   6.571
 4841POPC   C3B61221  31.001  27.927   7.010
 4841POPC   C4B61222  30.795  28.094   7.368
 4842POPC   NC361223  36.949  21.985   5.048
 4842POPC   PO461224  37.166  22.269   5.609
 4842POPC   GL161225  37.073  22.110   5.944
 4842POPC   GL261226  37.186  21.757   5.823
 4842POPC   C1A61227  36.718  22.196   6.246
 4842POPC   D2A61228  36.661  22.548   6.574
 4842POPC   C3A61229  36.774  22.329   6.942
 4842POPC   C4A61230  37.151  22.283   7.191
 4842POPC   C1B61231  36.980  21.737   6.239
 4842POPC   C2B61232  36.994  21.959   6.639
 4842POPC   C3B61233  36.851  21.837   7.047
 4842POPC   C4B61234  37.039  21.839   7.447
 4843POPC   NC361235  35.009  39.114   5.490
 4843POPC   PO461236  35.734  39.122   5.494
 4843POPC   GL161237  35.435  39.131   5.857
 4843POPC   GL261238  35.220  39.446   5.823
 4843POPC   C1A61239  35.488  38.962   6.298
 4843POPC   D2A61240  35.748  38.936   6.676
 4843POPC   C3A61241  35.473  38.962   7.023
 4843POPC   C4A61242  35.366  39.309   7.272
 4843POPC   C1B61243  35.117  39.342   6.247
 4843POPC   C2B61244  35.334  39.372   6.636
 4843POPC   C3B61245  35.025  39.420   6.924
 4843POPC   C4B61246  34.942  39.606   7.305
 4844POPC   NC361247   1.364  33.822   5.677
 4844POPC   PO461248   0.827  34.191   5.430
 4844POPC   GL161249   0.873  33.953   5.822
 4844POPC   GL261250   0.964  33.581   5.930
 4844POPC   C1A61251   1.043  34.064   6.227
 4844POPC   D2A61252   1.089  33.983   6.664
 4844POPC   C3A61253   1.165  34.144   7.050
 4844POPC   C4A61254   1.451  33.804   7.035
 4844POPC   C1B61255   1.185  33.577   6.339
 4844POPC   C2B61256   1.107  33.446   6.753
 4844POPC   C3B61257   0.954  33.647   7.115
 4844POPC   C4B61258   1.125  33.530   7.514
 4845POPC   NC361259  29.122  27.355   5.220
 4845POPC   PO461260  28.751  27.855   5.147
 4845POPC   GL161261  29.032  27.643   5.605
 4845POPC   GL261262  29.372  27.760   5.756
 4845POPC   C1A61263  29.054  27.448   6.048
 4845POPC   D2A61264  28.999  27.310   6.497
 4845POPC   C3A61265  28.870  27.640   6.794
 4845POPC   C4A61266  28.881  27.618   7.236
 4845POPC   C1B61267  29.519  27.757   6.167
 4845POPC   C2B61268  29.329  27.734   6.568
 4845POPC   C3B61269  29.340  27.592   6.991
 4845POPC   C4B61270  29.628  27.669   7.308
 4846POPC   NC361271  13.589  42.635   5.426
 4846POPC   PO461272  13.591  41.901   5.441
 4846POPC   GL161273  13.527  42.212   5.779
 4846POPC   GL261274  13.764  42.474   5.864
 4846POPC   C1A61275  13.620  42.154   6.219
 4846POPC   D2A61276  13.811  42.224   6.583
 4846POPC   C3A61277  13.594  42.188   6.945
 4846POPC   C4A61278  13.752  42.047   7.285
 4846POPC   C1B61279  13.515  42.666   6.232
 4846POPC   C2B61280  13.465  42.618   6.701
 4846POPC   C3B61281  13.750  42.644   7.081
 4846POPC   C4B61282  13.665  42.591   7.536
 4847POPC   NC361283  27.831  41.350   5.263
 4847POPC   PO461284  27.910  40.653   5.415
 4847POPC   GL161285  27.788  40.829   5.819
 4847POPC   GL261286  27.439  40.941   5.901
 4847POPC   C1A61287  27.740  40.658   6.228
 4847POPC   D2A61288  27.504  40.781   6.589
 4847POPC   C3A61289  27.724  40.633   6.939
 4847POPC   C4A61290  27.631  40.680   7.336
 4847POPC   C1B61291  27.564  41.152   6.241
 4847POPC   C2B61292  27.535  41.352   6.630
 4847POPC   C3B61293  27.536  41.128   7.016
 4847POPC   C4B61294  27.706  41.168   7.411
 4848POPC   NC361295  16.250  23.694   5.352
 4848POPC   PO461296  15.704  23.340   5.205
 4848POPC   GL161297  15.811  23.528   5.622
 4848POPC   GL261298  15.553  23.499   5.859
 4848POPC   C1A61299  15.967  23.746   6.020
 4848POPC   D2A61300  16.114  23.702   6.460
 4848POPC   C3A61301  15.875  23.627   6.851
 4848POPC   C4A61302  15.991  23.772   7.259
 4848POPC   C1B61303  15.605  23.540   6.334
 4848POPC   C2B61304  15.695  23.197   6.605
 4848POPC   C3B61305  15.677  23.152   7.041
 4848POPC   C4B61306  15.470  23.527   7.193
 4849POPC   NC361307  14.669  13.544   5.478
 4849POPC   PO461308  14.000  13.818   5.438
 4849POPC   GL161309  14.255  13.675   5.779
 4849POPC   GL261310  14.578  13.800   5.938
 4849POPC   C1A61311  14.228  13.516   6.196
 4849POPC   D2A61312  14.437  13.630   6.599
 4849POPC   C3A61313  14.162  13.622   6.947
 4849POPC   C4A61314  14.131  13.279   7.221
 4849POPC   C1B61315  14.749  13.423   6.135
 4849POPC   C2B61316  14.757  13.222   6.511
 4849POPC   C3B61317  14.845  13.370   6.880
 4849POPC   C4B61318  14.642  13.683   7.115
 4850POPC   NC361319  34.452  37.258   5.549
 4850POPC   PO461320  34.814  37.851   5.417
 4850POPC   GL161321  34.673  37.675   5.785
 4850POPC   GL261322  34.923  37.451   5.925
 4850POPC   C1A61323  34.619  37.826   6.207
 4850POPC   D2A61324  34.709  37.665   6.632
 4850POPC   C3A61325  34.535  37.882   7.018
 4850POPC   C4A61326  34.567  37.780   7.462
 4850POPC   C1B61327  34.564  37.330   6.211
 4850POPC   C2B61328  34.321  37.305   6.583
 4850POPC   C3B61329  34.386  37.394   7.008
 4850POPC   C4B61330  34.100  37.251   7.330
 4851POPC   NC361331  23.077   3.576   5.507
 4851POPC   PO461332  22.366   3.306   5.546
 4851POPC   GL161333  22.568   3.511   5.882
 4851POPC   GL261334  22.535   3.859   5.821
 4851POPC   C1A61335  22.828   3.465   6.251
 4851POPC   D2A61336  22.851   3.296   6.658
 4851POPC   C3A61337  23.158   3.402   6.990
 4851POPC   C4A61338  23.266   3.809   7.216
 4851POPC   C1B61339  22.680   3.929   6.230
 4851POPC   C2B61340  22.842   3.822   6.657
 4851POPC   C3B61341  22.707   3.611   7.040
 4851POPC   C4B61342  22.844   3.527   7.422
 4852POPC   NC361343  36.125  42.848   5.357
 4852POPC   PO461344  35.905  43.527   5.404
 4852POPC   GL161345  36.213  43.237   5.729
 4852POPC   GL261346  36.282  42.876   5.841
 4852POPC   C1A61347  36.238  43.252   6.188
 4852POPC   D2A61348  36.018  43.184   6.579
 4852POPC   C3A61349  36.080  43.345   6.968
 4852POPC   C4A61350  36.195  43.058   7.255
 4852POPC   C1B61351  36.271  42.749   6.288
 4852POPC   C2B61352  36.462  42.570   6.646
 4852POPC   C3B61353  36.562  42.747   7.038
 4852POPC   C4B61354  36.477  42.693   7.475
 4853POPC   NC361355  38.645  27.113   5.153
 4853POPC   PO461356  38.695  26.555   5.613
 4853POPC   GL161357  38.495  26.751   5.919
 4853POPC   GL261358  38.176  26.859   5.792
 4853POPC   C1A61359  38.592  26.904   6.322
 4853POPC   D2A61360  38.461  27.054   6.721
 4853POPC   C3A61361  38.479  26.671   6.965
 4853POPC   C4A61362  38.678  26.607   7.333
 4853POPC   C1B61363  38.082  26.926   6.242
 4853POPC   C2B61364  37.976  26.854   6.694
 4853POPC   C3B61365  38.080  26.926   7.114
 4853POPC   C4B61366  38.136  26.732   7.484
 4854POPC   NC361367  32.652  15.001   5.426
 4854POPC   PO461368  31.945  15.224   5.521
 4854POPC   GL161369  32.183  15.078   5.832
 4854POPC   GL261370  32.466  15.313   5.831
 4854POPC   C1A61371  32.376  14.936   6.197
 4854POPC   D2A61372  32.227  14.788   6.597
 4854POPC   C3A61373  32.357  15.013   6.953
 4854POPC   C4A61374  32.166  15.138   7.304
 4854POPC   C1B61375  32.246  15.484   6.213
 4854POPC   C2B61376  32.148  15.442   6.699
 4854POPC   C3B61377  32.332  15.576   7.137
 4854POPC   C4B61378  32.236  15.476   7.654
 4855POPC   NC361379   5.284  31.691   5.401
 4855POPC   PO461380   4.636  31.290   5.489
 4855POPC   GL161381   4.924  31.508   5.770
 4855POPC   GL261382   5.285  31.369   5.816
 4855POPC   C1A61383   4.983  31.745   6.166
 4855POPC   D2A61384   4.945  31.618   6.618
 4855POPC   C3A61385   5.190  31.719   7.011
 4855POPC   C4A61386   4.970  31.650   7.411
 4855POPC   C1B61387   5.032  31.219   6.188
 4855POPC   C2B61388   4.959  31.069   6.607
 4855POPC   C3B61389   4.938  31.261   7.021
 4855POPC   C4B61390   5.146  31.158   7.410
 4856POPC   NC361391  13.722  34.073   5.249
 4856POPC   PO461392  13.343  33.560   5.183
 4856POPC   GL161393  13.346  33.684   5.654
 4856POPC   GL261394  13.567  34.010   5.753
 4856POPC   C1A61395  13.364  33.458   6.084
 4856POPC   D2A61396  13.331  33.422   6.552
 4856POPC   C3A61397  13.605  33.668   6.840
 4856POPC   C4A61398  13.806  33.650   7.252
 4856POPC   C1B61399  13.883  34.019   6.124
 4856POPC   C2B61400  14.021  33.869   6.528
 4856POPC   C3B61401  14.022  33.989   6.931
 4856POPC   C4B61402  13.804  34.171   7.275
 4857POPC   NC361403   3.787  41.669   5.345
 4857POPC   PO461404   3.181  41.853   5.298
 4857POPC   GL161405   3.364  41.689   5.699
 4857POPC   GL261406   3.692  41.818   5.820
 4857POPC   C1A61407   3.462  41.445   6.097
 4857POPC   D2A61408   3.673  41.571   6.479
 4857POPC   C3A61409   3.546  41.469   6.892
 4857POPC   C4A61410   3.609  41.570   7.319
 4857POPC   C1B61411   3.956  41.964   6.156
 4857POPC   C2B61412   4.080  41.851   6.578
 4857POPC   C3B61413   3.846  41.871   7.005
 4857POPC   C4B61414   3.822  41.983   7.481
 4858POPC   NC361415  32.571   7.696   5.362
 4858POPC   PO461416  32.049   7.223   5.453
 4858POPC   GL161417  32.072   7.497   5.816
 4858POPC   GL261418  31.973   7.852   5.839
 4858POPC   C1A61419  31.988   7.505   6.259
 4858POPC   D2A61420  31.947   7.303   6.646
 4858POPC   C3A61421  32.313   7.165   6.892
 4858POPC   C4A61422  32.253   7.263   7.313
 4858POPC   C1B61423  32.308   7.889   6.158
 4858POPC   C2B61424  32.379   7.683   6.568
 4858POPC   C3B61425  32.213   7.655   6.985
 4858POPC   C4B61426  32.401   7.768   7.373
 4859POPC   NC361427  28.800   0.931   5.318
 4859POPC   PO461428  28.300   1.397   5.421
 4859POPC   GL161429  28.355   1.133   5.817
 4859POPC   GL261430  28.661   0.951   5.850
 4859POPC   C1A61431  28.517   1.254   6.252
 4859POPC   D2A61432  28.312   1.481   6.613
 4859POPC   C3A61433  28.274   1.223   6.973
 4859POPC   C4A61434  28.410   1.244   7.381
 4859POPC   C1B61435  28.658   0.755   6.262
 4859POPC   C2B61436  28.536   0.889   6.676
 4859POPC   C3B61437  28.707   0.933   7.101
 4859POPC   C4B61438  28.691   0.862   7.574
 4860POPC   NC361439   5.565   1.411   5.706
 4860POPC   PO461440   4.976   1.096   5.473
 4860POPC   GL161441   5.091   1.222   5.862
 4860POPC   GL261442   5.330   0.998   5.915
 4860POPC   C1A61443   5.088   1.415   6.269
 4860POPC   D2A61444   5.020   1.120   6.591
 4860POPC   C3A61445   5.059   1.239   7.006
 4860POPC   C4A61446   4.900   1.024   7.341
 4860POPC   C1B61447   5.467   1.065   6.311
 4860POPC   C2B61448   5.504   1.250   6.698
 4860POPC   C3B61449   5.529   1.055   7.083
 4860POPC   C4B61450   5.422   1.288   7.405
 4861POPC   NC361451  44.010  15.187   5.246
 4861POPC   PO461452  44.682  15.285   5.317
 4861POPC   GL161453  44.725  15.139   5.718
 4861POPC   GL261454  44.438  14.909   5.768
 4861POPC   C1A61455  44.989  15.260   6.066
 4861POPC   D2A61456   0.040  15.384   6.497
 4861POPC   C3A61457  44.679  15.356   6.732
 4861POPC   C4A61458  44.691  15.419   7.139
 4861POPC   C1B61459  44.649  14.850   6.148
 4861POPC   C2B61460  44.438  14.933   6.532
 4861POPC   C3B61461  44.517  14.871   6.926
 4861POPC   C4B61462  44.473  14.956   7.319
 4862POPC   NC361463  11.487  34.443   5.072
 4862POPC   PO461464  11.064  34.572   5.617
 4862POPC   GL161465  11.359  34.311   5.850
 4862POPC   GL261466  11.642  34.515   5.848
 4862POPC   C1A61467  11.340  34.266   6.325
 4862POPC   D2A61468  11.226  34.593   6.656
 4862POPC   C3A61469  11.236  34.499   7.123
 4862POPC   C4A61470  11.260  34.845   7.435
 4862POPC   C1B61471  11.524  34.738   6.202
 4862POPC   C2B61472  11.633  34.932   6.577
 4862POPC   C3B61473  11.533  34.881   6.967
 4862POPC   C4B61474  11.761  34.976   7.326
 4863POPC   NC361475  40.417  40.387   5.603
 4863POPC   PO461476  40.059  40.796   5.255
 4863POPC   GL161477  39.975  40.935   5.734
 4863POPC   GL261478  40.090  40.625   5.940
 4863POPC   C1A61479  39.819  40.989   6.206
 4863POPC   D2A61480  40.077  40.714   6.530
 4863POPC   C3A61481  39.873  40.409   6.828
 4863POPC   C4A61482  39.737  40.502   7.258
 4863POPC   C1B61483  40.321  40.970   6.148
 4863POPC   C2B61484  40.503  41.118   6.540
 4863POPC   C3B61485  40.365  40.953   6.929
 4863POPC   C4B61486  40.424  40.912   7.377
 4864POPC   NC361487  14.081  24.459   5.532
 4864POPC   PO461488  14.587  24.834   5.598
 4864POPC   GL161489  14.405  24.622   5.912
 4864POPC   GL261490  14.349  24.255   5.901
 4864POPC   C1A61491  14.414  24.812   6.283
 4864POPC   D2A61492  14.521  24.579   6.599
 4864POPC   C3A61493  14.437  24.845   6.902
 4864POPC   C4A61494  14.546  24.745   7.259
 4864POPC   C1B61495  14.170  24.060   6.259
 4864POPC   C2B61496  14.050  24.243   6.639
 4864POPC   C3B61497  14.287  24.338   6.988
 4864POPC   C4B61498  14.256  24.072   7.288
 4865POPC   NC361499  22.487  34.530   5.711
 4865POPC   PO461500  21.921  34.346   5.529
 4865POPC   GL161501  21.915  34.517   5.916
 4865POPC   GL261502  22.030  34.862   5.784
 4865POPC   C1A61503  22.123  34.517   6.323
 4865POPC   D2A61504  22.189  34.855   6.616
 4865POPC   C3A61505  22.380  34.803   7.000
 4865POPC   C4A61506  22.404  34.404   7.165
 4865POPC   C1B61507  21.885  34.958   6.195
 4865POPC   C2B61508  21.599  34.865   6.539
 4865POPC   C3B61509  21.764  34.806   6.935
 4865POPC   C4B61510  21.889  34.685   7.336
 4866POPC   NC361511  31.062  34.339   5.466
 4866POPC   PO461512  31.725  34.437   5.265
 4866POPC   GL161513  31.501  34.522   5.699
 4866POPC   GL261514  31.496  34.237   5.839
 4866POPC   C1A61515  31.461  34.667   6.161
 4866POPC   D2A61516  31.451  35.002   6.500
 4866POPC   C3A61517  31.480  34.807   6.905
 4866POPC   C4A61518  31.690  34.553   7.207
 4866POPC   C1B61519  31.263  34.129   6.191
 4866POPC   C2B61520  31.214  34.327   6.595
 4866POPC   C3B61521  31.349  34.176   7.001
 4866POPC   C4B61522  31.297  34.318   7.424
 4867POPC   NC361523   1.079  26.303   5.078
 4867POPC   PO461524   1.282  26.700   5.545
 4867POPC   GL161525   1.332  26.972   5.899
 4867POPC   GL261526   1.659  27.063   5.780
 4867POPC   C1A61527   1.081  26.941   6.289
 4867POPC   D2A61528   1.023  26.631   6.609
 4867POPC   C3A61529   1.000  26.776   7.028
 4867POPC   C4A61530   1.061  26.615   7.460
 4867POPC   C1B61531   1.732  26.788   6.160
 4867POPC   C2B61532   1.514  26.793   6.556
 4867POPC   C3B61533   1.531  26.721   7.001
 4867POPC   C4B61534   1.353  27.050   7.275
 4868POPC   NC361535  37.186  40.012   5.212
 4868POPC   PO461536  36.832  40.587   5.350
 4868POPC   GL161537  37.038  40.286   5.674
 4868POPC   GL261538  37.032  39.889   5.768
 4868POPC   C1A61539  36.992  40.251   6.139
 4868POPC   D2A61540  36.952  39.979   6.521
 4868POPC   C3A61541  36.852  40.225   6.904
 4868POPC   C4A61542  36.969  40.334   7.336
 4868POPC   C1B61543  36.713  39.703   6.086
 4868POPC   C2B61544  36.639  39.567   6.536
 4868POPC   C3B61545  36.750  39.687   7.000
 4868POPC   C4B61546  37.170  39.876   7.125
 4869POPC   NC361547   9.521  26.300   5.528
 4869POPC   PO461548   9.943  25.794   5.352
 4869POPC   GL161549   9.808  25.757   5.774
 4869POPC   GL261550   9.823  26.122   5.926
 4869POPC   C1A61551   9.425  25.819   6.009
 4869POPC   D2A61552   9.431  26.081   6.345
 4869POPC   C3A61553   9.511  25.957   6.764
 4869POPC   C4A61554   9.476  25.835   7.186
 4869POPC   C1B61555   9.923  25.866   6.306
 4869POPC   C2B61556  10.020  25.998   6.736
 4869POPC   C3B61557   9.869  26.160   7.133
 4869POPC   C4B61558   9.993  26.355   7.520
 4870POPC   NC361559  30.388   9.098   5.630
 4870POPC   PO461560  29.782   8.728   5.452
 4870POPC   GL161561  29.967   8.882   5.834
 4870POPC   GL261562  29.883   9.250   5.817
 4870POPC   C1A61563  30.197   8.795   6.246
 4870POPC   D2A61564  30.016   8.783   6.671
 4870POPC   C3A61565  29.847   9.143   6.923
 4870POPC   C4A61566  29.874   8.924   7.317
 4870POPC   C1B61567  30.027   9.281   6.261
 4870POPC   C2B61568  30.264   9.248   6.660
 4870POPC   C3B61569  30.320   9.160   7.122
 4870POPC   C4B61570  30.409   9.303   7.565
 4871POPC   NC361571  38.036  26.403   5.509
 4871POPC   PO461572  37.537  26.964   5.531
 4871POPC   GL161573  37.652  26.922   5.953
 4871POPC   GL261574  37.749  26.591   5.913
 4871POPC   C1A61575  37.405  27.017   6.344
 4871POPC   D2A61576  37.391  27.255   6.722
 4871POPC   C3A61577  37.600  27.020   7.029
 4871POPC   C4A61578  37.699  27.051   7.457
 4871POPC   C1B61579  37.707  26.587   6.359
 4871POPC   C2B61580  37.615  26.448   6.788
 4871POPC   C3B61581  37.816  26.468   7.179
 4871POPC   C4B61582  37.683  26.526   7.621
 4872POPC   NC361583   4.387  31.357   5.111
 4872POPC   PO461584   4.029  31.509   5.648
 4872POPC   GL161585   4.407  31.417   5.920
 4872POPC   GL261586   4.532  31.066   5.951
 4872POPC   C1A61587   4.518  31.487   6.351
 4872POPC   D2A61588   4.258  31.781   6.650
 4872POPC   C3A61589   4.209  31.659   7.076
 4872POPC   C4A61590   4.499  31.440   7.347
 4872POPC   C1B61591   4.123  31.130   6.226
 4872POPC   C2B61592   4.118  31.288   6.612
 4872POPC   C3B61593   4.377  31.160   6.948
 4872POPC   C4B61594   4.188  30.967   7.296
 4873POPC   NC361595  41.618  32.386   5.506
 4873POPC   PO461596  42.112  32.047   5.711
 4873POPC   GL161597  41.864  32.361   5.944
 4873POPC   GL261598  41.487  32.313   5.998
 4873POPC   C1A61599  41.823  32.395   6.366
 4873POPC   D2A61600  41.851  32.140   6.665
 4873POPC   C3A61601  41.695  32.287   6.987
 4873POPC   C4A61602  41.572  32.011   7.221
 4873POPC   C1B61603  41.360  32.065   6.357
 4873POPC   C2B61604  41.138  32.098   6.749
 4873POPC   C3B61605  41.085  32.118   7.193
 4873POPC   C4B61606  41.355  32.457   7.322
 4874POPC   NC361607  17.858  24.709   5.230
 4874POPC   PO461608  17.243  24.404   5.305
 4874POPC   GL161609  17.436  24.633   5.710
 4874POPC   GL261610  17.589  24.415   5.970
 4874POPC   C1A61611  17.366  24.809   6.177
 4874POPC   D2A61612  17.140  24.667   6.563
 4874POPC   C3A61613  17.364  24.701   6.928
 4874POPC   C4A61614  17.378  24.633   7.335
 4874POPC   C1B61615  17.731  24.247   6.363
 4874POPC   C2B61616  17.723  24.338   6.797
 4874POPC   C3B61617  17.749  24.259   7.211
 4874POPC   C4B61618  17.663  24.331   7.655
 4875POPC   NC361619  29.913  40.303   5.552
 4875POPC   PO461620  29.552  39.692   5.408
 4875POPC   GL161621  29.696  39.861   5.829
 4875POPC   GL261622  30.051  39.915   5.868
 4875POPC   C1A61623  29.653  40.022   6.277
 4875POPC   D2A61624  29.411  39.956   6.679
 4875POPC   C3A61625  29.651  39.895   7.055
 4875POPC   C4A61626  29.770  40.167   7.378
 4875POPC   C1B61627  30.165  39.954   6.289
 4875POPC   C2B61628  30.031  40.060   6.711
 4875POPC   C3B61629  30.218  39.971   7.103
 4875POPC   C4B61630  30.381  39.660   7.400
 4876POPC   NC361631  10.275  21.356   5.361
 4876POPC   PO461632   9.620  21.576   5.445
 4876POPC   GL161633   9.664  21.324   5.831
 4876POPC   GL261634   9.391  21.117   5.931
 4876POPC   C1A61635   9.708  21.408   6.293
 4876POPC   D2A61636   9.833  21.716   6.627
 4876POPC   C3A61637   9.915  21.480   7.003
 4876POPC   C4A61638   9.882  21.017   7.050
 4876POPC   C1B61639   9.240  21.195   6.341
 4876POPC   C2B61640   9.467  21.151   6.717
 4876POPC   C3B61641   9.433  21.282   7.131
 4876POPC   C4B61642   9.389  21.118   7.531
 4877POPC   NC361643  23.085   5.251   5.385
 4877POPC   PO461644  22.430   4.987   5.481
 4877POPC   GL161645  22.722   5.203   5.740
 4877POPC   GL261646  22.982   4.963   5.804
 4877POPC   C1A61647  22.956   5.331   6.147
 4877POPC   D2A61648  22.837   5.161   6.543
 4877POPC   C3A61649  22.942   5.348   6.931
 4877POPC   C4A61650  22.666   5.300   7.303
 4877POPC   C1B61651  23.017   4.788   6.238
 4877POPC   C2B61652  23.038   4.716   6.694
 4877POPC   C3B61653  22.847   4.875   7.035
 4877POPC   C4B61654  22.881   4.851   7.473
 4878POPC   NC361655   8.358  44.935   5.487
 4878POPC   PO461656   7.899  44.373   5.566
 4878POPC   GL161657   8.194  44.557   5.860
 4878POPC   GL261658   8.479  44.342   5.979
 4878POPC   C1A61659   8.145  44.607   6.301
 4878POPC   D2A61660   7.864  44.511   6.633
 4878POPC   C3A61661   7.957  44.649   7.066
 4878POPC   C4A61662   7.686  44.940   7.245
 4878POPC   C1B61663   8.634  44.430   6.332
 4878POPC   C2B61664   8.465  44.576   6.728
 4878POPC   C3B61665   8.463  44.503   7.151
 4878POPC   C4B61666   8.249  44.313   7.420
 4879POPC   NC361667   7.044  11.048   5.530
 4879POPC   PO461668   7.597  11.331   5.311
 4879POPC   GL161669   7.625  11.182   5.766
 4879POPC   GL261670   7.331  11.096   5.952
 4879POPC   C1A61671   7.758  11.070   6.223
 4879POPC   D2A61672   7.726  11.355   6.610
 4879POPC   C3A61673   7.480  11.193   6.980
 4879POPC   C4A61674   7.558  11.234   7.431
 4879POPC   C1B61675   7.392  11.447   6.240
 4879POPC   C2B61676   7.058  11.598   6.487
 4879POPC   C3B61677   7.050  11.679   6.904
 4879POPC   C4B61678   7.085  11.437   7.258
 4880POPC   NC361679  21.925  11.224   5.436
 4880POPC   PO461680  22.404  11.613   5.357
 4880POPC   GL161681  22.257  11.414   5.796
 4880POPC   GL261682  21.908  11.283   5.939
 4880POPC   C1A61683  22.388  11.285   6.205
 4880POPC   D2A61684  22.478  11.559   6.561
 4880POPC   C3A61685  22.506  11.374   6.963
 4880POPC   C4A61686  22.138  11.219   7.181
 4880POPC   C1B61687  21.922  11.014   6.319
 4880POPC   C2B61688  21.940  10.936   6.778
 4880POPC   C3B61689  21.773  10.838   7.226
 4880POPC   C4B61690  21.701  10.906   7.675
 4881POPC   NC361691  20.950  29.687   5.565
 4881POPC   PO461692  20.841  29.014   5.408
 4881POPC   GL161693  20.694  29.309   5.778
 4881POPC   GL261694  20.895  29.437   6.030
 4881POPC   C1A61695  20.341  29.414   6.114
 4881POPC   D2A61696  20.159  29.240   6.532
 4881POPC   C3A61697  20.369  29.310   6.946
 4881POPC   C4A61698  20.458  29.071   7.308
 4881POPC   C1B61699  20.679  29.032   6.185
 4881POPC   C2B61700  20.676  29.088   6.596
 4881POPC   C3B61701  20.946  29.033   6.928
 4881POPC   C4B61702  20.867  29.366   7.195
 4882POPC   NC361703  37.425   5.435   5.571
 4882POPC   PO461704  37.809   4.881   5.470
 4882POPC   GL161705  37.486   4.963   5.766
 4882POPC   GL261706  37.174   4.747   5.720
 4882POPC   C1A61707  37.542   5.185   6.180
 4882POPC   D2A61708  37.280   5.328   6.546
 4882POPC   C3A61709  37.437   5.247   6.958
 4882POPC   C4A61710  37.579   5.414   7.332
 4882POPC   C1B61711  37.364   4.673   6.158
 4882POPC   C2B61712  37.496   4.858   6.565
 4882POPC   C3B61713  37.405   4.709   6.960
 4882POPC   C4B61714  37.583   4.887   7.306
 4883POPC   NC361715  36.640  22.821   5.357
 4883POPC   PO461716  36.066  23.159   5.209
 4883POPC   GL161717  36.239  23.068   5.635
 4883POPC   GL261718  36.079  22.833   5.795
 4883POPC   C1A61719  36.300  23.196   6.121
 4883POPC   D2A61720  36.243  23.225   6.619
 4883POPC   C3A61721  36.368  22.838   6.892
 4883POPC   C4A61722  36.515  22.622   7.250
 4883POPC   C1B61723  35.873  22.900   6.164
 4883POPC   C2B61724  36.002  22.765   6.554
 4883POPC   C3B61725  35.860  22.911   6.958
 4883POPC   C4B61726  35.990  22.694   7.294
 4884POPC   NC361727  13.128   7.030   5.208
 4884POPC   PO461728  13.113   7.682   5.359
 4884POPC   GL161729  12.956   7.467   5.749
 4884POPC   GL261730  12.664   7.266   5.622
 4884POPC   C1A61731  13.011   7.216   6.162
 4884POPC   D2A61732  13.005   7.028   6.607
 4884POPC   C3A61733  12.996   7.344   6.928
 4884POPC   C4A61734  13.187   7.453   7.314
 4884POPC   C1B61735  12.489   7.241   6.041
 4884POPC   C2B61736  12.583   7.288   6.488
 4884POPC   C3B61737  12.506   7.192   6.939
 4884POPC   C4B61738  12.684   7.370   7.342
 4885POPC   NC361739  37.579  33.877   5.347
 4885POPC   PO461740  38.105  33.754   5.370
 4885POPC   GL161741  37.898  34.026   5.739
 4885POPC   GL261742  37.526  34.146   5.793
 4885POPC   C1A61743  37.819  33.971   6.192
 4885POPC   D2A61744  38.039  33.770   6.537
 4885POPC   C3A61745  37.788  33.671   6.873
 4885POPC   C4A61746  37.801  33.887   7.230
 4885POPC   C1B61747  37.293  34.084   6.219
 4885POPC   C2B61748  37.286  33.807   6.616
 4885POPC   C3B61749  37.312  33.735   7.082
 4885POPC   C4B61750  37.254  34.111   7.330
 4886POPC   NC361751   2.222  17.812   5.541
 4886POPC   PO461752   2.058  18.466   5.500
 4886POPC   GL161753   1.844  18.398   5.911
 4886POPC   GL261754   1.624  18.065   6.049
 4886POPC   C1A61755   2.106  18.149   6.175
 4886POPC   D2A61756   2.302  17.968   6.500
 4886POPC   C3A61757   2.148  18.242   6.786
 4886POPC   C4A61758   2.156  18.070   7.161
 4886POPC   C1B61759   1.657  18.348   6.400
 4886POPC   C2B61760   1.683  18.476   6.845
 4886POPC   C3B61761   1.666  18.242   7.213
 4886POPC   C4B61762   1.493  18.344   7.598
 4887POPC   NC361763  44.409  23.801   5.585
 4887POPC   PO461764  44.956  23.410   5.543
 4887POPC   GL161765  44.858  23.625   5.916
 4887POPC   GL261766  44.598  23.889   6.033
 4887POPC   C1A61767  44.982  23.749   6.304
 4887POPC   D2A61768  44.732  24.052   6.516
 4887POPC   C3A61769  44.652  23.910   6.900
 4887POPC   C4A61770  44.620  23.902   7.324
 4887POPC   C1B61771  44.490  23.559   6.302
 4887POPC   C2B61772  44.269  23.624   6.673
 4887POPC   C3B61773  44.236  23.610   7.101
 4887POPC   C4B61774  44.458  23.444   7.430
 4888POPC   NC361775  30.390  41.575   5.435
 4888POPC   PO461776  30.858  41.320   5.737
 4888POPC   GL161777  30.622  41.627   5.880
 4888POPC   GL261778  30.347  41.403   5.906
 4888POPC   C1A61779  30.728  41.874   6.206
 4888POPC   D2A61780  30.556  41.887   6.584
 4888POPC   C3A61781  30.667  41.564   6.828
 4888POPC   C4A61782  30.649  41.560   7.247
 4888POPC   C1B61783  30.262  41.638   6.247
 4888POPC   C2B61784  30.208  41.457   6.629
 4888POPC   C3B61785  30.228  41.338   7.061
 4888POPC   C4B61786  30.123  41.374   7.485
 4889POPC   NC361787  29.852  41.096   4.947
 4889POPC   PO461788  30.127  40.710   5.433
 4889POPC   GL161789  29.828  40.748   5.785
 4889POPC   GL261790  30.062  40.973   5.883
 4889POPC   C1A61791  29.777  40.765   6.261
 4889POPC   D2A61792  29.932  41.037   6.578
 4889POPC   C3A61793  29.996  40.847   6.973
 4889POPC   C4A61794  29.725  40.671   7.290
 4889POPC   C1B61795  30.241  40.594   6.088
 4889POPC   C2B61796  30.226  40.530   6.522
 4889POPC   C3B61797  30.383  40.481   6.909
 4889POPC   C4B61798  30.195  40.462   7.280
 4890POPC   NC361799  26.408  22.470   5.113
 4890POPC   PO461800  25.941  22.091   5.437
 4890POPC   GL161801  26.119  22.093   5.869
 4890POPC   GL261802  26.421  21.951   5.956
 4890POPC   C1A61803  26.162  22.239   6.287
 4890POPC   D2A61804  25.897  22.054   6.609
 4890POPC   C3A61805  25.840  22.210   6.985
 4890POPC   C4A61806  26.163  22.344   7.203
 4890POPC   C1B61807  26.136  21.741   6.250
 4890POPC   C2B61808  26.186  21.629   6.652
 4890POPC   C3B61809  26.176  21.842   7.010
 4890POPC   C4B61810  26.139  21.619   7.328
 4891POPC   NC361811  22.590  14.380   5.410
 4891POPC   PO461812  23.185  14.697   5.430
 4891POPC   GL161813  22.837  14.705   5.764
 4891POPC   GL261814  22.715  14.344   5.912
 4891POPC   C1A61815  22.894  14.714   6.217
 4891POPC   D2A61816  22.908  14.395   6.540
 4891POPC   C3A61817  23.092  14.575   6.911
 4891POPC   C4A61818  23.143  14.638   7.332
 4891POPC   C1B61819  22.508  14.103   6.255
 4891POPC   C2B61820  22.617  13.993   6.688
 4891POPC   C3B61821  22.738  14.112   7.120
 4891POPC   C4B61822  22.601  13.897   7.499
 4892POPC   NC361823  36.134  14.998   5.472
 4892POPC   PO461824  36.337  15.658   5.316
 4892POPC   GL161825  36.317  15.396   5.737
 4892POPC   GL261826  36.035  15.528   5.936
 4892POPC   C1A61827  36.276  15.135   6.144
 4892POPC   D2A61828  36.011  15.190   6.533
 4892POPC   C3A61829  36.087  14.983   6.938
 4892POPC   C4A61830  36.478  15.012   7.186
 4892POPC   C1B61831  36.254  15.635   6.264
 4892POPC   C2B61832  36.109  15.697   6.665
 4892POPC   C3B61833  36.133  15.477   7.039
 4892POPC   C4B61834  36.184  15.393   7.451
 4893POPC   NC361835  42.763  37.477   5.363
 4893POPC   PO461836  43.380  37.322   5.426
 4893POPC   GL161837  43.123  37.494   5.738
 4893POPC   GL261838  43.325  37.422   5.980
 4893POPC   C1A61839  42.900  37.753   6.062
 4893POPC   D2A61840  43.010  37.995   6.423
 4893POPC   C3A61841  42.942  37.793   6.821
 4893POPC   C4A61842  43.097  37.973   7.178
 4893POPC   C1B61843  43.163  37.464   6.390
 4893POPC   C2B61844  43.400  37.561   6.721
 4893POPC   C3B61845  43.313  37.498   7.102
 4893POPC   C4B61846  43.071  37.555   7.464
 4894POPC   NC361847  22.112  28.627   5.451
 4894POPC   PO461848  22.476  28.062   5.522
 4894POPC   GL161849  22.166  28.233   5.797
 4894POPC   GL261850  22.310  28.555   5.910
 4894POPC   C1A61851  22.022  28.250   6.211
 4894POPC   D2A61852  22.230  28.167   6.577
 4894POPC   C3A61853  21.911  28.121   6.890
 4894POPC   C4A61854  21.868  28.462   7.161
 4894POPC   C1B61855  22.232  28.737   6.311
 4894POPC   C2B61856  22.085  28.666   6.726
 4894POPC   C3B61857  22.264  28.773   7.120
 4894POPC   C4B61858  22.292  28.561   7.531
 4895POPC   NC361859  33.089   1.816   5.259
 4895POPC   PO461860  32.611   1.722   5.658
 4895POPC   GL161861  32.898   1.764   5.947
 4895POPC   GL261862  33.124   1.988   5.807
 4895POPC   C1A61863  32.926   1.793   6.373
 4895POPC   D2A61864  32.909   2.029   6.769
 4895POPC   C3A61865  33.027   1.774   7.138
 4895POPC   C4A61866  33.075   1.659   7.588
 4895POPC   C1B61867  33.173   2.223   6.234
 4895POPC   C2B61868  33.364   2.395   6.647
 4895POPC   C3B61869  33.176   2.370   7.053
 4895POPC   C4B61870  32.728   2.402   7.137
 4896POPC   NC361871   2.832  15.130   5.336
 4896POPC   PO461872   2.647  15.586   5.803
 4896POPC   GL161873   2.840  15.156   5.878
 4896POPC   GL261874   2.546  14.946   5.812
 4896POPC   C1A61875   2.939  15.032   6.315
 4896POPC   D2A61876   2.741  15.241   6.671
 4896POPC   C3A61877   2.939  15.269   7.083
 4896POPC   C4A61878   3.043  15.421   7.508
 4896POPC   C1B61879   2.374  15.153   6.209
 4896POPC   C2B61880   2.224  15.395   6.564
 4896POPC   C3B61881   2.328  15.340   6.951
 4896POPC   C4B61882   2.502  14.981   7.137
 4897POPC   NC361883  17.236  13.081   5.523
 4897POPC   PO461884  17.421  12.508   5.117
 4897POPC   GL161885  17.543  12.650   5.646
 4897POPC   GL261886  17.549  13.009   5.891
 4897POPC   C1A61887  17.359  12.616   6.125
 4897POPC   D2A61888  17.066  12.692   6.489
 4897POPC   C3A61889  17.241  12.723   6.923
 4897POPC   C4A61890  17.561  12.625   7.253
 4897POPC   C1B61891  17.251  13.111   6.248
 4897POPC   C2B61892  17.334  13.181   6.701
 4897POPC   C3B61893  17.378  13.155   7.166
 4897POPC   C4B61894  17.753  13.075   7.386
 4898POPC   NC361895   9.850  33.630   5.207
 4898POPC   PO461896   9.593  33.211   5.654
 4898POPC   GL161897   9.744  33.571   5.894
 4898POPC   GL261898   9.860  33.880   5.764
 4898POPC   C1A61899   9.557  33.863   6.232
 4898POPC   D2A61900   9.529  34.040   6.665
 4898POPC   C3A61901   9.516  33.655   6.933
 4898POPC   C4A61902   9.472  33.548   7.359
 4898POPC   C1B61903  10.055  33.909   6.180
 4898POPC   C2B61904   9.945  33.726   6.595
 4898POPC   C3B61905  10.018  33.753   7.037
 4898POPC   C4B61906  10.328  33.979   7.252
 4899POPC   NC361907  13.010  31.287   5.372
 4899POPC   PO461908  12.604  31.889   5.223
 4899POPC   GL161909  12.672  31.699   5.682
 4899POPC   GL261910  12.622  31.323   5.735
 4899POPC   C1A61911  12.679  31.685   6.163
 4899POPC   D2A61912  12.619  31.891   6.596
 4899POPC   C3A61913  12.946  31.785   6.890
 4899POPC   C4A61914  12.792  31.385   6.946
 4899POPC   C1B61915  12.924  31.190   6.076
 4899POPC   C2B61916  13.131  31.279   6.492
 4899POPC   C3B61917  13.256  31.176   6.910
 4899POPC   C4B61918  13.191  31.428   7.266
 4900POPC   NC361919  14.162   8.358   5.319
 4900POPC   PO461920  14.731   7.995   5.220
 4900POPC   GL161921  14.592   8.172   5.656
 4900POPC   GL261922  14.242   8.168   5.815
 4900POPC   C1A61923  14.594   8.478   6.035
 4900POPC   D2A61924  14.297   8.442   6.410
 4900POPC   C3A61925  14.438   8.502   6.849
 4900POPC   C4A61926  14.485   8.464   7.315
 4900POPC   C1B61927  14.503   8.016   6.207
 4900POPC   C2B61928  14.331   7.983   6.634
 4900POPC   C3B61929  14.278   8.074   7.059
 4900POPC   C4B61930  14.583   7.959   7.403
 4901POPC   NC361931  20.238  38.662   5.345
 4901POPC   PO461932  20.830  38.361   5.352
 4901POPC   GL161933  20.750  38.260   5.795
 4901POPC   GL261934  20.385  38.289   5.768
 4901POPC   C1A61935  20.706  38.390   6.223
 4901POPC   D2A61936  20.835  38.314   6.626
 4901POPC   C3A61937  20.665  38.539   6.944
 4901POPC   C4A61938  20.678  38.202   7.193
 4901POPC   C1B61939  20.264  38.617   6.087
 4901POPC   C2B61940  20.381  38.756   6.523
 4901POPC   C3B61941  20.159  38.701   6.919
 4901POPC   C4B61942  20.295  38.507   7.316
 4902POPC   NC361943  19.200  20.085   5.545
 4902POPC   PO461944  19.104  19.420   5.411
 4902POPC   GL161945  19.046  19.693   5.814
 4902POPC   GL261946  18.780  19.943   5.792
 4902POPC   C1A61947  19.150  20.015   6.194
 4902POPC   D2A61948  19.352  20.212   6.606
 4902POPC   C3A61949  19.214  20.165   7.047
 4902POPC   C4A61950  19.112  19.907   7.408
 4902POPC   C1B61951  18.633  19.908   6.182
 4902POPC   C2B61952  18.811  19.891   6.563
 4902POPC   C3B61953  18.790  19.874   6.965
 4902POPC   C4B61954  18.653  20.157   7.220
 4903POPC   NC361955  36.540   0.300   5.512
 4903POPC   PO461956  37.196   0.476   5.381
 4903POPC   GL161957  36.888   0.605   5.771
 4903POPC   GL261958  36.526   0.754   5.760
 4903POPC   C1A61959  36.846   0.495   6.247
 4903POPC   D2A61960  37.153   0.473   6.609
 4903POPC   C3A61961  37.104   0.286   7.008
 4903POPC   C4A61962  36.722   0.133   7.094
 4903POPC   C1B61963  36.655   0.958   6.125
 4903POPC   C2B61964  36.716   0.908   6.550
 4903POPC   C3B61965  36.646   0.569   6.789
 4903POPC   C4B61966  36.745   0.645   7.178
 4904POPC   NC361967  10.651  10.415   5.413
 4904POPC   PO461968   9.995  10.589   5.378
 4904POPC   GL161969  10.279  10.524   5.795
 4904POPC   GL261970  10.647  10.570   5.881
 4904POPC   C1A61971  10.373  10.432   6.267
 4904POPC   D2A61972  10.179  10.685   6.611
 4904POPC   C3A61973  10.329  10.582   7.029
 4904POPC   C4A61974  10.299  10.399   7.476
 4904POPC   C1B61975  10.796  10.780   6.225
 4904POPC   C2B61976  10.690  10.668   6.620
 4904POPC   C3B61977  10.867  10.635   6.991
 4904POPC   C4B61978  10.718  10.682   7.394
 4905POPC   NC361979  38.911  37.834   5.471
 4905POPC   PO461980  38.291  37.787   5.118
 4905POPC   GL161981  38.366  37.834   5.618
 4905POPC   GL261982  38.561  37.552   5.749
 4905POPC   C1A61983  38.364  37.866   6.116
 4905POPC   D2A61984  38.724  37.817   6.428
 4905POPC   C3A61985  38.653  37.919   6.856
 4905POPC   C4A61986  38.382  37.730   7.143
 4905POPC   C1B61987  38.582  37.378   6.168
 4905POPC   C2B61988  38.520  37.276   6.605
 4905POPC   C3B61989  38.557  37.257   7.047
 4905POPC   C4B61990  38.907  37.485   7.205
 4906POPC   NC361991   0.974   6.924   5.054
 4906POPC   PO461992   1.011   7.630   5.211
 4906POPC   GL161993   1.049   7.610   5.676
 4906POPC   GL261994   1.019   7.248   5.740
 4906POPC   C1A61995   1.201   7.675   6.121
 4906POPC   D2A61996   1.412   7.487   6.494
 4906POPC   C3A61997   1.265   7.547   6.916
 4906POPC   C4A61998   1.408   7.675   7.301
 4906POPC   C1B61999   1.048   7.192   6.194
 4906POPC   C2B62000   0.943   7.215   6.641
 4906POPC   C3B62001   1.159   7.063   7.027
 4906POPC   C4B62002   1.581   7.105   7.108
 4907POPC   NC362003  20.813  40.759   5.231
 4907POPC   PO462004  20.184  40.784   5.447
 4907POPC   GL162005  20.434  40.731   5.805
 4907POPC   GL262006  20.790  40.860   5.780
 4907POPC   C1A62007  20.274  40.699   6.209
 4907POPC   D2A62008  20.215  40.973   6.552
 4907POPC   C3A62009  20.271  40.721   6.894
 4907POPC   C4A62010  20.345  40.632   7.306
 4907POPC   C1B62011  20.720  40.981   6.245
 4907POPC   C2B62012  20.733  41.034   6.710
 4907POPC   C3B62013  20.856  40.840   7.122
 4907POPC   C4B62014  20.738  40.876   7.568
 4908POPC   NC362015  28.414   4.422   5.461
 4908POPC   PO462016  28.048   3.911   5.533
 4908POPC   GL162017  28.337   4.038   5.838
 4908POPC   GL262018  28.707   4.166   5.802
 4908POPC   C1A62019  28.462   4.000   6.247
 4908POPC   D2A62020  28.673   4.228   6.553
 4908POPC   C3A62021  28.400   4.177   6.887
 4908POPC   C4A62022  28.141   4.045   7.243
 4908POPC   C1B62023  28.538   4.472   6.107
 4908POPC   C2B62024  28.548   4.748   6.474
 4908POPC   C3B62025  28.603   4.715   6.917
 4908POPC   C4B62026  28.474   4.483   7.272
 4909POPC   NC362027   0.901  29.648   5.389
 4909POPC   PO462028   0.842  30.338   5.455
 4909POPC   GL162029   1.051  30.112   5.831
 4909POPC   GL262030   1.215  29.822   5.824
 4909POPC   C1A62031   1.129  30.009   6.298
 4909POPC   D2A62032   1.316  30.148   6.705
 4909POPC   C3A62033   1.072  30.101   7.094
 4909POPC   C4A62034   0.798  29.749   7.148
 4909POPC   C1B62035   1.523  29.710   6.155
 4909POPC   C2B62036   1.745  29.897   6.543
 4909POPC   C3B62037   1.702  29.832   7.014
 4909POPC   C4B62038   1.451  29.857   7.393
 4910POPC   NC362039   4.270   5.265   5.363
 4910POPC   PO462040   4.873   5.070   5.482
 4910POPC   GL162041   4.548   5.288   5.805
 4910POPC   GL262042   4.160   5.211   5.854
 4910POPC   C1A62043   4.486   5.245   6.253
 4910POPC   D2A62044   4.723   5.043   6.583
 4910POPC   C3A62045   4.515   5.189   6.930
 4910POPC   C4A62046   4.367   5.256   7.315
 4910POPC   C1B62047   4.076   4.870   6.166
 4910POPC   C2B62048   4.127   4.973   6.609
 4910POPC   C3B62049   4.031   4.821   7.030
 4910POPC   C4B62050   4.061   4.890   7.493
 4911POPC   NC362051  33.045  35.992   5.456
 4911POPC   PO462052  33.214  36.691   5.600
 4911POPC   GL162053  33.021  36.371   5.855
 4911POPC   GL262054  32.630  36.371   5.811
 4911POPC   C1A62055  33.201  36.059   6.185
 4911POPC   D2A62056  32.982  35.833   6.544
 4911POPC   C3A62057  33.056  35.922   6.995
 4911POPC   C4A62058  32.951  35.837   7.428
 4911POPC   C1B62059  32.716  36.226   6.243
 4911POPC   C2B62060  33.004  36.391   6.559
 4911POPC   C3B62061  32.882  36.424   6.975
 4911POPC   C4B62062  32.595  36.158   7.181
 4912POPC   NC362063   4.727  21.806   5.529
 4912POPC   PO462064   4.326  21.197   5.451
 4912POPC   GL162065   4.505  21.401   5.843
 4912POPC   GL262066   4.245  21.261   6.007
 4912POPC   C1A62067   4.477  21.761   6.207
 4912POPC   D2A62068   4.575  21.931   6.616
 4912POPC   C3A62069   4.477  21.646   6.933
 4912POPC   C4A62070   4.281  21.534   7.309
 4912POPC   C1B62071   4.417  21.287   6.400
 4912POPC   C2B62072   4.239  21.203   6.800
 4912POPC   C3B62073   4.400  21.062   7.166
 4912POPC   C4B62074   4.566  21.177   7.572
 4913POPC   NC362075  28.819   4.966   5.429
 4913POPC   PO462076  29.358   5.244   5.726
 4913POPC   GL162077  29.111   5.158   6.014
 4913POPC   GL262078  28.882   5.381   5.920
 4913POPC   C1A62079  29.224   5.249   6.439
 4913POPC   D2A62080  29.251   5.353   6.870
 4913POPC   C3A62081  29.378   5.061   7.200
 4913POPC   C4A62082  29.368   5.271   7.589
 4913POPC   C1B62083  28.717   5.245   6.328
 4913POPC   C2B62084  28.708   5.213   6.757
 4913POPC   C3B62085  28.869   5.105   7.140
 4913POPC   C4B62086  28.754   4.868   7.478
 4914POPC   NC362087   3.778  34.125   5.384
 4914POPC   PO462088   3.536  34.717   5.248
 4914POPC   GL162089   3.522  34.507   5.658
 4914POPC   GL262090   3.193  34.510   5.813
 4914POPC   C1A62091   3.597  34.331   6.090
 4914POPC   D2A62092   3.574  34.510   6.519
 4914POPC   C3A62093   3.347  34.390   6.905
 4914POPC   C4A62094   3.466  34.313   7.330
 4914POPC   C1B62095   3.412  34.811   6.097
 4914POPC   C2B62096   3.394  35.021   6.478
 4914POPC   C3B62097   3.592  34.905   6.843
 4914POPC   C4B62098   3.401  34.811   7.206
 4915POPC   NC362099  38.143   9.773   5.582
 4915POPC   PO462100  38.574  10.200   5.509
 4915POPC   GL162101  38.456   9.980   5.946
 4915POPC   GL262102  38.228   9.671   6.047
 4915POPC   C1A62103  38.408   9.992   6.425
 4915POPC   D2A62104  38.291   9.783   6.803
 4915POPC   C3A62105  38.565   9.921   7.127
 4915POPC   C4A62106  38.985  10.024   7.251
 4915POPC   C1B62107  38.361   9.480   6.382
 4915POPC   C2B62108  38.561   9.321   6.738
 4915POPC   C3B62109  38.455   9.397   7.159
 4915POPC   C4B62110  38.243   9.709   7.455
 4916POPC   NC362111  29.839  44.844   5.255
 4916POPC   PO462112  29.950  44.309   5.591
 4916POPC   GL162113  29.941  44.617   5.845
 4916POPC   GL262114  30.095  44.928   5.691
 4916POPC   C1A62115  29.734  44.633   6.238
 4916POPC   D2A62116  29.724  44.785   6.649
 4916POPC   C3A62117  29.870  44.545   6.926
 4916POPC   C4A62118  29.600  44.422   7.194
 4916POPC   C1B62119  30.231  44.930   6.109
 4916POPC   C2B62120  30.203  44.728   6.477
 4916POPC   C3B62121  30.207  44.908   6.836
 4916POPC   C4B62122  30.074   0.018   7.223
 4917POPC   NC362123  43.090  42.697   5.489
 4917POPC   PO462124  42.783  41.974   5.406
 4917POPC   GL162125  43.025  42.216   5.710
 4917POPC   GL262126  42.759  42.417   5.763
 4917POPC   C1A62127  43.214  42.387   6.088
 4917POPC   D2A62128  43.082  42.391   6.528
 4917POPC   C3A62129  43.272  42.135   6.858
 4917POPC   C4A62130  43.218  42.141   7.311
 4917POPC   C1B62131  42.699  42.408   6.171
 4917POPC   C2B62132  42.576  42.221   6.550
 4917POPC   C3B62133  42.786  42.234   6.925
 4917POPC   C4B62134  42.671  42.180   7.295
 4918POPC   NC362135   7.962  26.660   5.386
 4918POPC   PO462136   8.546  27.009   5.368
 4918POPC   GL162137   8.247  27.020   5.749
 4918POPC   GL262138   7.895  27.054   5.706
 4918POPC   C1A62139   8.194  26.810   6.175
 4918POPC   D2A62140   8.061  26.417   6.443
 4918POPC   C3A62141   8.208  26.435   6.897
 4918POPC   C4A62142   8.417  26.803   7.081
 4918POPC   C1B62143   7.837  27.246   6.104
 4918POPC   C2B62144   7.669  27.178   6.517
 4918POPC   C3B62145   7.838  26.955   6.855
 4918POPC   C4B62146   7.995  27.071   7.248
 4919POPC   NC362147  23.970  34.039   5.350
 4919POPC   PO462148  23.820  34.734   5.383
 4919POPC   GL162149  23.788  34.726   5.794
 4919POPC   GL262150  24.034  34.504   5.806
 4919POPC   C1A62151  23.561  34.497   6.101
 4919POPC   D2A62152  23.500  34.516   6.545
 4919POPC   C3A62153  23.542  34.252   6.918
 4919POPC   C4A62154  23.363  34.442   7.309
 4919POPC   C1B62155  24.035  34.444   6.241
 4919POPC   C2B62156  23.963  34.757   6.567
 4919POPC   C3B62157  23.763  34.713   6.963
 4919POPC   C4B62158  23.860  34.402   7.282
 4920POPC   NC362159   0.569  39.601   5.489
 4920POPC   PO462160   0.590  40.271   5.424
 4920POPC   GL162161   0.530  39.997   5.801
 4920POPC   GL262162   0.206  39.821   5.869
 4920POPC   C1A62163   0.658  39.882   6.210
 4920POPC   D2A62164   0.386  39.911   6.561
 4920POPC   C3A62165   0.630  39.831   6.929
 4920POPC   C4A62166   0.754  39.805   7.356
 4920POPC   C1B62167   0.048  40.177   6.152
 4920POPC   C2B62168  44.989  40.303   6.598
 4920POPC   C3B62169   0.056  40.000   6.935
 4920POPC   C4B62170   0.279  39.984   7.275
 4921POPC   NC362171  43.532  32.745   5.514
 4921POPC   PO462172  43.816  32.137   5.380
 4921POPC   GL162173  43.630  32.300   5.737
 4921POPC   GL262174  43.936  32.325   5.886
 4921POPC   C1A62175  43.520  32.247   6.173
 4921POPC   D2A62176  43.803  32.154   6.518
 4921POPC   C3A62177  43.681  32.172   6.950
 4921POPC   C4A62178  43.996  32.073   7.278
 4921POPC   C1B62179  44.257  32.444   6.176
 4921POPC   C2B62180  44.280  32.635   6.580
 4921POPC   C3B62181  44.165  32.449   6.966
 4921POPC   C4B62182  44.251  32.522   7.395
 4922POPC   NC362183  24.913  21.336   5.408
 4922POPC   PO462184  24.236  21.317   5.361
 4922POPC   GL162185  24.493  21.357   5.726
 4922POPC   GL262186  24.725  21.649   5.787
 4922POPC   C1A62187  24.339  21.459   6.133
 4922POPC   D2A62188  24.309  21.293   6.521
 4922POPC   C3A62189  24.166  21.533   6.824
 4922POPC   C4A62190  24.291  21.580   7.221
 4922POPC   C1B62191  24.832  21.345   6.119
 4922POPC   C2B62192  24.858  21.201   6.554
 4922POPC   C3B62193  24.660  21.373   6.924
 4922POPC   C4B62194  24.808  21.629   7.252
 4923POPC   NC362195  23.132  43.557   5.515
 4923POPC   PO462196  22.513  43.772   5.523
 4923POPC   GL162197  22.835  44.096   5.678
 4923POPC   GL262198  23.156  44.001   5.796
 4923POPC   C1A62199  22.905  44.212   6.151
 4923POPC   D2A62200  22.832  43.903   6.473
 4923POPC   C3A62201  22.955  43.974   6.908
 4923POPC   C4A62202  22.920  43.660   7.199
 4923POPC   C1B62203  23.287  43.817   6.187
 4923POPC   C2B62204  23.246  43.640   6.614
 4923POPC   C3B62205  23.402  43.761   7.017
 4923POPC   C4B62206  23.321  43.896   7.445
 4924POPC   NC362207  21.557  26.419   5.427
 4924POPC   PO462208  21.191  27.027   5.345
 4924POPC   GL162209  21.259  26.736   5.732
 4924POPC   GL262210  20.973  26.519   5.849
 4924POPC   C1A62211  21.603  26.724   6.068
 4924POPC   D2A62212  21.753  26.578   6.491
 4924POPC   C3A62213  21.576  26.648   6.876
 4924POPC   C4A62214  21.752  26.616   7.279
 4924POPC   C1B62215  21.158  26.554   6.243
 4924POPC   C2B62216  21.297  26.939   6.441
 4924POPC   C3B62217  21.300  27.086   6.840
 4924POPC   C4B62218  21.313  26.887   7.261
 4925POPC   NC362219   2.209  20.680   5.515
 4925POPC   PO462220   2.834  20.593   5.265
 4925POPC   GL162221   2.752  20.817   5.660
 4925POPC   GL262222   2.961  20.571   5.782
 4925POPC   C1A62223   2.796  20.908   6.117
 4925POPC   D2A62224   2.861  20.625   6.492
 4925POPC   C3A62225   2.886  20.801   6.917
 4925POPC   C4A62226   2.606  20.942   7.244
 4925POPC   C1B62227   3.042  20.294   6.111
 4925POPC   C2B62228   3.205  20.232   6.533
 4925POPC   C3B62229   2.967  20.255   6.898
 4925POPC   C4B62230   2.761  20.434   7.256
 4926POPC   NC362231  20.216  20.547   5.497
 4926POPC   PO462232  19.623  20.233   5.410
 4926POPC   GL162233  19.893  20.334   5.816
 4926POPC   GL262234  19.974  20.669   5.957
 4926POPC   C1A62235  19.741  20.336   6.249
 4926POPC   D2A62236  19.820  20.586   6.614
 4926POPC   C3A62237  19.693  20.389   7.003
 4926POPC   C4A62238  19.786  20.436   7.432
 4926POPC   C1B62239  20.244  20.815   6.308
 4926POPC   C2B62240  20.298  20.910   6.747
 4926POPC   C3B62241  20.062  20.787   7.099
 4926POPC   C4B62242  20.083  20.859   7.522
 4927POPC   NC362243  33.474  35.003   5.510
 4927POPC   PO462244  34.017  34.525   5.421
 4927POPC   GL162245  33.775  34.518   5.775
 4927POPC   GL262246  33.593  34.789   5.950
 4927POPC   C1A62247  33.995  34.551   6.166
 4927POPC   D2A62248  33.812  34.650   6.584
 4927POPC   C3A62249  33.828  34.330   6.938
 4927POPC   C4A62250  33.941  34.360   7.394
 4927POPC   C1B62251  33.422  35.052   6.278
 4927POPC   C2B62252  33.304  34.944   6.687
 4927POPC   C3B62253  33.504  34.717   7.001
 4927POPC   C4B62254  33.674  34.788   7.363
 4928POPC   NC362255  35.987  44.114   5.577
 4928POPC   PO462256  36.632  43.970   5.525
 4928POPC   GL162257  36.434  43.958   5.894
 4928POPC   GL262258  36.158  43.718   5.896
 4928POPC   C1A62259  36.389  43.952   6.339
 4928POPC   D2A62260  36.327  43.600   6.591
 4928POPC   C3A62261  36.399  43.737   6.990
 4928POPC   C4A62262  36.125  43.949   7.225
 4928POPC   C1B62263  35.865  43.889   6.230
 4928POPC   C2B62264  35.743  44.235   6.532
 4928POPC   C3B62265  35.738  44.211   6.986
 4928POPC   C4B62266  35.672  43.766   7.137
 4929POPC   NC362267  32.037   5.355   5.633
 4929POPC   PO462268  32.419   4.871   5.373
 4929POPC   GL162269  32.362   4.993   5.791
 4929POPC   GL262270  32.017   4.881   5.804
 4929POPC   C1A62271  32.498   5.122   6.196
 4929POPC   D2A62272  32.354   5.331   6.554
 4929POPC   C3A62273  32.306   5.060   6.891
 4929POPC   C4A62274  32.614   4.957   7.156
 4929POPC   C1B62275  31.993   5.062   6.239
 4929POPC   C2B62276  31.848   5.388   6.535
 4929POPC   C3B62277  31.982   5.445   6.986
 4929POPC   C4B62278  31.902   5.133   7.293
 4930POPC   NC362279  32.480  26.951   5.465
 4930POPC   PO462280  31.922  26.493   5.520
 4930POPC   GL162281  32.131  26.763   5.799
 4930POPC   GL262282  32.487  26.703   5.909
 4930POPC   C1A62283  32.120  27.029   6.161
 4930POPC   D2A62284  31.972  27.056   6.574
 4930POPC   C3A62285  32.270  27.091   6.910
 4930POPC   C4A62286  32.422  27.115   7.320
 4930POPC   C1B62287  32.273  26.522   6.265
 4930POPC   C2B62288  32.244  26.606   6.698
 4930POPC   C3B62289  32.548  26.497   7.030
 4930POPC   C4B62290  32.445  26.427   7.462
 4931POPC   NC362291  18.506  33.612   5.294
 4931POPC   PO462292  19.262  33.565   5.370
 4931POPC   GL162293  19.025  33.725   5.706
 4931POPC   GL262294  19.074  33.411   5.858
 4931POPC   C1A62295  19.118  33.911   6.137
 4931POPC   D2A62296  19.248  34.161   6.538
 4931POPC   C3A62297  19.159  33.980   6.964
 4931POPC   C4A62298  19.271  33.668   7.284
 4931POPC   C1B62299  19.216  33.416   6.238
 4931POPC   C2B62300  19.090  33.607   6.608
 4931POPC   C3B62301  18.990  33.372   6.968
 4931POPC   C4B62302  18.846  33.416   7.397
 4932POPC   NC362303  24.684  23.258   5.449
 4932POPC   PO462304  24.593  23.929   5.259
 4932POPC   GL162305  24.530  23.707   5.725
 4932POPC   GL262306  24.775  23.456   5.891
 4932POPC   C1A62307  24.365  23.564   6.177
 4932POPC   D2A62308  24.348  23.552   6.632
 4932POPC   C3A62309  24.234  23.762   7.032
 4932POPC   C4A62310  24.408  23.836   7.446
 4932POPC   C1B62311  24.855  23.289   6.289
 4932POPC   C2B62312  24.736  23.235   6.713
 4932POPC   C3B62313  24.693  23.530   7.036
 4932POPC   C4B62314  24.540  23.366   7.369
 4933POPC   NC362315  42.288   7.574   5.490
 4933POPC   PO462316  41.964   6.986   5.432
 4933POPC   GL162317  42.218   7.184   5.800
 4933POPC   GL262318  42.083   7.524   5.941
 4933POPC   C1A62319  42.461   7.301   6.186
 4933POPC   D2A62320  42.271   7.278   6.604
 4933POPC   C3A62321  42.506   7.321   6.973
 4933POPC   C4A62322  42.395   7.193   7.390
 4933POPC   C1B62323  42.136   7.771   6.325
 4933POPC   C2B62324  41.986   7.681   6.758
 4933POPC   C3B62325  42.074   7.542   7.178
 4933POPC   C4B62326  42.158   7.719   7.573
 4934POPC   NC362327   6.465  37.026   5.364
 4934POPC   PO462328   6.769  36.493   5.548
 4934POPC   GL162329   6.711  36.818   5.842
 4934POPC   GL262330   6.847  37.145   5.837
 4934POPC   C1A62331   6.566  36.883   6.272
 4934POPC   D2A62332   6.868  37.025   6.588
 4934POPC   C3A62333   6.817  36.754   6.942
 4934POPC   C4A62334   6.472  36.848   7.168
 4934POPC   C1B62335   6.668  37.387   6.213
 4934POPC   C2B62336   6.526  37.456   6.634
 4934POPC   C3B62337   6.688  37.305   7.028
 4934POPC   C4B62338   6.950  37.096   7.310
 4935POPC   NC362339  29.333  15.111   5.590
 4935POPC   PO462340  29.991  15.341   5.309
 4935POPC   GL162341  29.838  15.275   5.696
 4935POPC   GL262342  29.779  15.571   5.880
 4935POPC   C1A62343  30.009  15.147   6.082
 4935POPC   D2A62344  30.078  14.990   6.487
 4935POPC   C3A62345  30.204  15.227   6.818
 4935POPC   C4A62346  30.032  15.084   7.177
 4935POPC   C1B62347  29.560  15.380   6.211
 4935POPC   C2B62348  29.605  15.172   6.628
 4935POPC   C3B62349  29.540  15.097   7.067
 4935POPC   C4B62350  29.679  15.442   7.317
 4936POPC   NC362351   8.367  29.849   5.574
 4936POPC   PO462352   7.745  29.598   5.299
 4936POPC   GL162353   7.912  29.820   5.748
 4936POPC   GL262354   8.244  29.527   5.912
 4936POPC   C1A62355   8.066  29.891   6.208
 4936POPC   D2A62356   8.347  29.909   6.558
 4936POPC   C3A62357   8.187  29.916   6.988
 4936POPC   C4A62358   8.314  30.193   7.300
 4936POPC   C1B62359   8.623  29.656   6.175
 4936POPC   C2B62360   8.676  29.507   6.603
 4936POPC   C3B62361   8.560  29.571   7.028
 4936POPC   C4B62362   8.187  29.445   7.240
 4937POPC   NC362363  30.691  27.136   5.498
 4937POPC   PO462364  30.653  26.464   5.427
 4937POPC   GL162365  30.573  26.721   5.800
 4937POPC   GL262366  30.899  26.848   5.900
 4937POPC   C1A62367  30.479  26.895   6.217
 4937POPC   D2A62368  30.610  26.753   6.623
 4937POPC   C3A62369  30.395  26.888   6.944
 4937POPC   C4A62370  30.517  27.086   7.274
 4937POPC   C1B62371  31.119  26.620   6.218
 4937POPC   C2B62372  31.198  26.682   6.623
 4937POPC   C3B62373  30.994  26.632   6.993
 4937POPC   C4B62374  31.076  26.381   7.351
 4938POPC   NC362375  43.013  19.727   5.280
 4938POPC   PO462376  43.395  20.272   5.428
 4938POPC   GL162377  43.191  20.021   5.744
 4938POPC   GL262378  43.149  19.640   5.782
 4938POPC   C1A62379  43.303  19.969   6.181
 4938POPC   D2A62380  43.081  19.874   6.561
 4938POPC   C3A62381  43.296  20.022   6.939
 4938POPC   C4A62382  43.263  19.784   7.292
 4938POPC   C1B62383  43.009  19.431   6.200
 4938POPC   C2B62384  42.819  19.305   6.600
 4938POPC   C3B62385  43.000  19.407   7.009
 4938POPC   C4B62386  42.861  19.253   7.384
 4939POPC   NC362387   3.851   0.750   5.390
 4939POPC   PO462388   3.668   0.057   5.277
 4939POPC   GL162389   3.703   0.168   5.733
 4939POPC   GL262390   3.616   0.514   5.798
 4939POPC   C1A62391   3.555   0.108   6.176
 4939POPC   D2A62392   3.509   0.235   6.619
 4939POPC   C3A62393   3.333   0.604   6.840
 4939POPC   C4A62394   3.298   0.607   7.300
 4939POPC   C1B62395   3.830   0.535   6.202
 4939POPC   C2B62396   3.773   0.683   6.616
 4939POPC   C3B62397   3.793   0.453   7.007
 4939POPC   C4B62398   4.102   0.432   7.278
 4940POPC   NC362399  34.026   3.143   5.611
 4940POPC   PO462400  33.720   3.630   5.224
 4940POPC   GL162401  33.741   3.596   5.660
 4940POPC   GL262402  33.509   3.337   5.657
 4940POPC   C1A62403  33.947   3.646   6.088
 4940POPC   D2A62404  34.148   3.507   6.468
 4940POPC   C3A62405  34.049   3.626   6.858
 4940POPC   C4A62406  34.292   3.635   7.179
 4940POPC   C1B62407  33.454   3.437   6.098
 4940POPC   C2B62408  33.625   3.598   6.486
 4940POPC   C3B62409  33.546   3.677   6.903
 4940POPC   C4B62410  33.780   3.732   7.285
 4941POPC   NC362411  44.895  42.349   5.354
 4941POPC   PO462412  44.273  42.277   5.436
 4941POPC   GL162413  44.525  42.274   5.777
 4941POPC   GL262414  44.645  42.550   5.785
 4941POPC   C1A62415  44.497  42.315   6.219
 4941POPC   D2A62416  44.731  42.242   6.571
 4941POPC   C3A62417  44.525  42.213   6.938
 4941POPC   C4A62418  44.713  42.227   7.327
 4941POPC   C1B62419  44.807  42.714   6.190
 4941POPC   C2B62420  44.767  42.753   6.660
 4941POPC   C3B62421  44.644  42.693   7.107
 4941POPC   C4B62422  44.878  42.715   7.522
 4942POPC   NC362423  42.789  23.509   5.144
 4942POPC   PO462424  43.016  22.941   5.375
 4942POPC   GL162425  42.989  23.107   5.777
 4942POPC   GL262426  43.330  23.025   5.862
 4942POPC   C1A62427  42.878  22.987   6.205
 4942POPC   D2A62428  43.049  23.051   6.617
 4942POPC   C3A62429  42.997  22.840   6.992
 4942POPC   C4A62430  42.994  23.023   7.428
 4942POPC   C1B62431  43.297  23.304   6.230
 4942POPC   C2B62432  43.474  23.308   6.678
 4942POPC   C3B62433  43.278  23.281   7.105
 4942POPC   C4B62434  43.398  23.341   7.586
 4943POPC   NC362435  16.668  26.323   5.668
 4943POPC   PO462436  16.396  25.793   5.322
 4943POPC   GL162437  16.423  25.900   5.844
 4943POPC   GL262438  16.801  26.035   6.024
 4943POPC   C1A62439  16.485  25.829   6.321
 4943POPC   D2A62440  16.789  26.117   6.564
 4943POPC   C3A62441  16.675  26.055   6.990
 4943POPC   C4A62442  16.441  25.720   7.143
 4943POPC   C1B62443  17.141  26.299   6.189
 4943POPC   C2B62444  17.185  26.462   6.610
 4943POPC   C3B62445  17.138  26.230   6.988
 4943POPC   C4B62446  16.916  26.345   7.372
 4944POPC   NC362447  13.349   2.641   5.393
 4944POPC   PO462448  14.015   2.585   5.519
 4944POPC   GL162449  13.805   2.843   5.796
 4944POPC   GL262450  13.486   2.932   5.767
 4944POPC   C1A62451  13.738   3.049   6.187
 4944POPC   D2A62452  13.569   2.998   6.553
 4944POPC   C3A62453  13.768   2.715   6.826
 4944POPC   C4A62454  13.775   2.754   7.263
 4944POPC   C1B62455  13.449   2.645   6.132
 4944POPC   C2B62456  13.369   2.524   6.558
 4944POPC   C3B62457  13.282   2.745   6.926
 4944POPC   C4B62458  13.244   2.663   7.317
 4945POPC   NC362459  32.473  38.649   5.400
 4945POPC   PO462460  31.968  38.174   5.588
 4945POPC   GL162461  32.346  38.311   5.807
 4945POPC   GL262462  32.255  38.678   5.848
 4945POPC   C1A62463  32.429  38.372   6.248
 4945POPC   D2A62464  32.049  38.438   6.518
 4945POPC   C3A62465  32.124  38.301   6.920
 4945POPC   C4A62466  32.428  38.218   7.216
 4945POPC   C1B62467  32.222  38.854   6.239
 4945POPC   C2B62468  32.456  38.784   6.625
 4945POPC   C3B62469  32.436  38.699   7.068
 4945POPC   C4B62470  32.041  38.608   7.321
 4946POPC   NC362471   4.759  21.078   5.489
 4946POPC   PO462472   5.196  21.634   5.455
 4946POPC   GL162473   5.259  21.304   5.758
 4946POPC   GL262474   4.987  21.166   5.923
 4946POPC   C1A62475   5.409  21.420   6.182
 4946POPC   D2A62476   5.330  21.660   6.535
 4946POPC   C3A62477   5.335  21.370   6.828
 4946POPC   C4A62478   5.280  21.412   7.226
 4946POPC   C1B62479   4.895  21.469   6.208
 4946POPC   C2B62480   4.852  21.461   6.633
 4946POPC   C3B62481   4.840  21.268   7.018
 4946POPC   C4B62482   4.800  21.543   7.328
 4947POPC   NC362483   8.454  14.847   5.477
 4947POPC   PO462484   8.168  15.415   5.293
 4947POPC   GL162485   8.087  15.176   5.702
 4947POPC   GL262486   7.753  15.075   5.742
 4947POPC   C1A62487   8.234  15.287   6.153
 4947POPC   D2A62488   8.586  15.417   6.447
 4947POPC   C3A62489   8.486  15.289   6.878
 4947POPC   C4A62490   8.398  15.406   7.301
 4947POPC   C1B62491   7.722  15.318   6.117
 4947POPC   C2B62492   7.890  15.223   6.539
 4947POPC   C3B62493   7.960  15.287   6.989
 4947POPC   C4B62494   7.761  15.313   7.406
 4948POPC   NC362495  13.613  30.492   5.433
 4948POPC   PO462496  13.715  31.076   5.450
 4948POPC   GL162497  13.645  30.814   5.830
 4948POPC   GL262498  13.838  30.492   5.902
 4948POPC   C1A62499  13.511  30.736   6.247
 4948POPC   D2A62500  13.650  30.821   6.674
 4948POPC   C3A62501  13.462  30.747   7.090
 4948POPC   C4A62502  13.623  30.635   7.506
 4948POPC   C1B62503  13.921  30.446   6.327
 4948POPC   C2B62504  13.952  30.428   6.730
 4948POPC   C3B62505  13.940  30.549   7.125
 4948POPC   C4B62506  14.020  30.319   7.529
 4949POPC   NC362507  16.970  31.219   5.270
 4949POPC   PO462508  16.506  30.671   5.417
 4949POPC   GL162509  16.786  30.813   5.743
 4949POPC   GL262510  16.726  30.510   5.899
 4949POPC   C1A62511  16.930  30.843   6.209
 4949POPC   D2A62512  16.757  30.717   6.628
 4949POPC   C3A62513  16.879  30.988   6.990
 4949POPC   C4A62514  16.712  30.965   7.493
 4949POPC   C1B62515  16.425  30.360   6.208
 4949POPC   C2B62516  16.308  30.349   6.630
 4949POPC   C3B62517  16.590  30.351   6.981
 4949POPC   C4B62518  16.866  30.564   7.254
 4950POPC   NC362519   9.335  20.260   5.481
 4950POPC   PO462520   9.618  19.638   5.426
 4950POPC   GL162521   9.642  19.949   5.772
 4950POPC   GL262522   9.600  19.702   5.955
 4950POPC   C1A62523   9.535  20.153   6.215
 4950POPC   D2A62524   9.329  20.065   6.645
 4950POPC   C3A62525   9.583  19.823   6.988
 4950POPC   C4A62526   9.778  20.038   7.353
 4950POPC   C1B62527   9.653  19.451   6.296
 4950POPC   C2B62528   9.743  19.358   6.721
 4950POPC   C3B62529   9.629  19.309   7.135
 4950POPC   C4B62530   9.846  19.542   7.451
 4951POPC   NC362531  35.279  41.530   5.291
 4951POPC   PO462532  35.826  41.681   5.571
 4951POPC   GL162533  35.650  41.555   5.917
 4951POPC   GL262534  35.306  41.521   5.799
 4951POPC   C1A62535  35.607  41.573   6.374
 4951POPC   D2A62536  35.437  41.882   6.656
 4951POPC   C3A62537  35.612  41.833   7.030
 4951POPC   C4A62538  35.758  41.419   7.160
 4951POPC   C1B62539  35.244  41.833   6.119
 4951POPC   C2B62540  35.060  41.600   6.458
 4951POPC   C3B62541  35.028  41.608   6.891
 4951POPC   C4B62542  35.169  41.786   7.269
 4952POPC   NC362543  36.708  22.142   5.551
 4952POPC   PO462544  36.035  22.437   5.487
 4952POPC   GL162545  36.288  22.339   5.792
 4952POPC   GL262546  36.243  21.954   5.716
 4952POPC   C1A62547  36.301  22.501   6.199
 4952POPC   D2A62548  36.290  22.222   6.552
 4952POPC   C3A62549  36.193  22.372   6.898
 4952POPC   C4A62550  36.151  22.224   7.266
 4952POPC   C1B62551  36.114  21.994   6.146
 4952POPC   C2B62552  35.989  21.804   6.555
 4952POPC   C3B62553  35.865  21.943   6.955
 4952POPC   C4B62554  35.806  21.873   7.392
 4953POPC   NC362555  17.906  10.581   5.569
 4953POPC   PO462556  17.316  10.885   5.524
 4953POPC   GL162557  17.437  10.542   5.839
 4953POPC   GL262558  17.705  10.318   5.950
 4953POPC   C1A62559  17.277  10.431   6.248
 4953POPC   D2A62560  17.454  10.411   6.655
 4953POPC   C3A62561  17.272  10.593   7.014
 4953POPC   C4A62562  17.591  10.790   7.255
 4953POPC   C1B62563  17.849  10.565   6.293
 4953POPC   C2B62564  18.082  10.445   6.649
 4953POPC   C3B62565  17.903  10.443   7.040
 4953POPC   C4B62566  17.823  10.368   7.457
 4954POPC   NC362567  25.967  26.870   5.158
 4954POPC   PO462568  25.487  26.677   5.554
 4954POPC   GL162569  25.858  26.757   5.808
 4954POPC   GL262570  26.229  26.837   5.717
 4954POPC   C1A62571  25.904  26.806   6.240
 4954POPC   D2A62572  25.974  26.585   6.624
 4954POPC   C3A62573  25.829  26.813   6.989
 4954POPC   C4A62574  25.790  26.678   7.441
 4954POPC   C1B62575  26.402  26.774   6.135
 4954POPC   C2B62576  26.320  26.965   6.519
 4954POPC   C3B62577  26.327  26.908   6.916
 4954POPC   C4B62578  26.169  27.007   7.302
 4955POPC   NC362579   5.674  30.949   5.161
 4955POPC   PO462580   5.828  30.338   5.334
 4955POPC   GL162581   5.899  30.433   5.786
 4955POPC   GL262582   6.191  30.642   5.825
 4955POPC   C1A62583   5.857  30.643   6.214
 4955POPC   D2A62584   6.088  30.826   6.568
 4955POPC   C3A62585   5.855  30.823   6.949
 4955POPC   C4A62586   5.664  30.456   7.129
 4955POPC   C1B62587   6.291  30.379   6.167
 4955POPC   C2B62588   6.353  30.320   6.585
 4955POPC   C3B62589   6.223  30.457   6.972
 4955POPC   C4B62590   6.123  30.329   7.383
 4956POPC   NC362591  14.096  28.139   5.542
 4956POPC   PO462592  13.420  28.375   5.535
 4956POPC   GL162593  13.677  28.443   5.842
 4956POPC   GL262594  13.699  28.082   5.888
 4956POPC   C1A62595  13.545  28.420   6.253
 4956POPC   D2A62596  13.758  28.358   6.625
 4956POPC   C3A62597  13.451  28.267   6.909
 4956POPC   C4A62598  13.549  28.370   7.293
 4956POPC   C1B62599  13.964  28.067   6.243
 4956POPC   C2B62600  14.054  27.925   6.676
 4956POPC   C3B62601  13.928  28.078   7.086
 4956POPC   C4B62602  13.946  28.057   7.542
 4957POPC   NC362603   4.422  23.340   5.462
 4957POPC   PO462604   4.081  22.795   5.401
 4957POPC   GL162605   4.228  22.752   5.820
 4957POPC   GL262606   4.024  23.052   5.929
 4957POPC   C1A62607   4.435  22.857   6.236
 4957POPC   D2A62608   4.375  23.253   6.491
 4957POPC   C3A62609   4.523  23.233   6.939
 4957POPC   C4A62610   4.653  22.829   7.098
 4957POPC   C1B62611   3.944  22.907   6.369
 4957POPC   C2B62612   4.127  22.855   6.791
 4957POPC   C3B62613   4.138  23.028   7.219
 4957POPC   C4B62614   3.998  23.132   7.671
 4958POPC   NC362615  10.716  21.018   5.473
 4958POPC   PO462616  10.310  21.804   5.381
 4958POPC   GL162617  10.480  21.618   5.789
 4958POPC   GL262618  10.508  21.249   5.879
 4958POPC   C1A62619  10.587  21.669   6.237
 4958POPC   D2A62620  10.372  21.664   6.664
 4958POPC   C3A62621  10.388  21.296   6.958
 4958POPC   C4A62622  10.330  21.362   7.385
 4958POPC   C1B62623  10.795  21.182   6.274
 4958POPC   C2B62624  10.865  21.213   6.757
 4958POPC   C3B62625  10.846  21.296   7.231
 4958POPC   C4B62626  11.113  21.123   7.604
 4959POPC   NC362627  12.020   9.544   5.093
 4959POPC   PO462628  12.424   9.930   5.459
 4959POPC   GL162629  12.064  10.095   5.748
 4959POPC   GL262630  11.836   9.845   5.939
 4959POPC   C1A62631  12.056  10.186   6.217
 4959POPC   D2A62632  12.116   9.871   6.556
 4959POPC   C3A62633  12.324   9.939   6.957
 4959POPC   C4A62634  12.056   9.848   7.257
 4959POPC   C1B62635  11.820   9.549   6.260
 4959POPC   C2B62636  11.864   9.367   6.664
 4959POPC   C3B62637  11.698   9.551   7.055
 4959POPC   C4B62638  11.769   9.511   7.540
 4960POPC   NC362639  31.168  35.857   5.421
 4960POPC   PO462640  31.614  36.334   5.374
 4960POPC   GL162641  31.335  36.302   5.718
 4960POPC   GL262642  31.606  36.081   5.823
 4960POPC   C1A62643  31.357  36.362   6.180
 4960POPC   D2A62644  31.377  36.568   6.593
 4960POPC   C3A62645  31.449  36.319   6.947
 4960POPC   C4A62646  31.431  36.152   7.358
 4960POPC   C1B62647  31.572  35.843   6.182
 4960POPC   C2B62648  31.549  35.978   6.583
 4960POPC   C3B62649  31.577  35.819   6.978
 4960POPC   C4B62650  31.347  35.609   7.260
 4961POPC   NC362651  31.337  19.645   5.421
 4961POPC   PO462652  31.784  19.976   5.400
 4961POPC   GL162653  31.639  19.744   5.796
 4961POPC   GL262654  31.756  19.757   6.101
 4961POPC   C1A62655  31.264  19.599   6.105
 4961POPC   D2A62656  31.113  19.671   6.556
 4961POPC   C3A62657  31.426  19.469   6.828
 4961POPC   C4A62658  31.568  19.577   7.230
 4961POPC   C1B62659  31.499  19.977   6.373
 4961POPC   C2B62660  31.484  19.978   6.796
 4961POPC   C3B62661  31.798  20.023   7.073
 4961POPC   C4B62662  31.730  19.997   7.514
 4962POPC   NC362663  33.075  42.599   5.455
 4962POPC   PO462664  32.509  42.398   5.524
 4962POPC   GL162665  32.857  42.483   5.893
 4962POPC   GL262666  33.098  42.246   5.868
 4962POPC   C1A62667  33.326  42.448   6.247
 4962POPC   D2A62668  33.358  42.288   6.661
 4962POPC   C3A62669  32.959  42.316   6.851
 4962POPC   C4A62670  32.752  42.355   7.253
 4962POPC   C1B62671  32.881  42.273   6.327
 4962POPC   C2B62672  32.550  42.138   6.513
 4962POPC   C3B62673  32.507  42.088   6.907
 4962POPC   C4B62674  32.473  41.898   7.279
 4963POPC   NC362675   8.390   5.712   5.552
 4963POPC   PO462676   7.780   5.827   5.426
 4963POPC   GL162677   7.992   5.716   5.856
 4963POPC   GL262678   8.230   6.012   5.939
 4963POPC   C1A62679   8.145   5.673   6.296
 4963POPC   D2A62680   8.335   5.851   6.672
 4963POPC   C3A62681   8.140   6.024   6.998
 4963POPC   C4A62682   8.200   5.689   7.258
 4963POPC   C1B62683   8.569   6.017   6.264
 4963POPC   C2B62684   8.786   6.189   6.636
 4963POPC   C3B62685   8.674   5.989   7.039
 4963POPC   C4B62686   8.459   6.140   7.370
 4964POPC   NC362687  26.899  24.168   5.307
 4964POPC   PO462688  26.645  23.568   5.124
 4964POPC   GL162689  26.790  23.577   5.604
 4964POPC   GL262690  26.859  23.886   5.727
 4964POPC   C1A62691  26.622  23.526   6.057
 4964POPC   D2A62692  26.649  23.665   6.499
 4964POPC   C3A62693  26.836  23.418   6.845
 4964POPC   C4A62694  26.724  23.379   7.262
 4964POPC   C1B62695  27.034  23.845   6.137
 4964POPC   C2B62696  27.142  23.742   6.560
 4964POPC   C3B62697  27.007  23.869   6.977
 4964POPC   C4B62698  27.286  24.026   7.224
 4965POPC   NC362699  38.113  43.202   5.304
 4965POPC   PO462700  37.493  43.234   5.086
 4965POPC   GL162701  37.602  43.236   5.626
 4965POPC   GL262702  37.927  43.225   5.778
 4965POPC   C1A62703  37.548  43.076   6.092
 4965POPC   D2A62704  37.508  43.272   6.508
 4965POPC   C3A62705  37.529  43.105   6.914
 4965POPC   C4A62706  37.427  43.302   7.289
 4965POPC   C1B62707  38.075  43.433   6.165
 4965POPC   C2B62708  37.987  43.368   6.615
 4965POPC   C3B62709  37.999  43.312   7.077
 4965POPC   C4B62710  37.884  42.925   7.296
 4966POPC   NC362711   1.243  39.422   5.678
 4966POPC   PO462712   1.458  38.971   5.285
 4966POPC   GL162713   1.433  38.985   5.831
 4966POPC   GL262714   1.073  39.040   5.983
 4966POPC   C1A62715   1.426  39.257   6.302
 4966POPC   D2A62716   1.468  39.501   6.717
 4966POPC   C3A62717   1.458  39.245   7.115
 4966POPC   C4A62718   1.153  39.026   7.362
 4966POPC   C1B62719   0.970  39.424   6.243
 4966POPC   C2B62720   0.949  39.565   6.631
 4966POPC   C3B62721   0.998  39.457   7.055
 4966POPC   C4B62722   1.209  39.556   7.450
 4967POPC   NC362723   4.403  19.932   5.156
 4967POPC   PO462724   3.967  19.486   5.461
 4967POPC   GL162725   4.232  19.609   5.824
 4967POPC   GL262726   4.150  19.935   5.882
 4967POPC   C1A62727   4.306  19.695   6.292
 4967POPC   D2A62728   4.501  19.505   6.650
 4967POPC   C3A62729   4.442  19.842   6.949
 4967POPC   C4A62730   4.364  19.873   7.355
 4967POPC   C1B62731   3.940  20.052   6.238
 4967POPC   C2B62732   4.058  20.026   6.672
 4967POPC   C3B62733   4.063  20.176   7.093
 4967POPC   C4B62734   3.939  20.045   7.554
 4968POPC   NC362735  26.553  27.979   5.398
 4968POPC   PO462736  26.475  28.653   5.506
 4968POPC   GL162737  26.773  28.425   5.793
 4968POPC   GL262738  26.862  28.046   5.806
 4968POPC   C1A62739  26.918  28.363   6.230
 4968POPC   D2A62740  27.001  28.138   6.631
 4968POPC   C3A62741  27.018  28.495   6.929
 4968POPC   C4A62742  26.845  28.608   7.317
 4968POPC   C1B62743  26.487  28.086   6.066
 4968POPC   C2B62744  26.359  28.039   6.505
 4968POPC   C3B62745  26.589  27.983   6.892
 4968POPC   C4B62746  26.574  28.187   7.277
 4969POPC   NC362747   2.621  12.405   5.387
 4969POPC   PO462748   2.955  12.972   5.248
 4969POPC   GL162749   2.701  12.845   5.674
 4969POPC   GL262750   2.726  13.130   5.875
 4969POPC   C1A62751   2.525  12.730   6.135
 4969POPC   D2A62752   2.659  12.823   6.595
 4969POPC   C3A62753   2.762  12.599   6.983
 4969POPC   C4A62754   3.141  12.579   7.209
 4969POPC   C1B62755   2.592  13.262   6.279
 4969POPC   C2B62756   2.892  13.281   6.591
 4969POPC   C3B62757   2.886  13.117   6.975
 4969POPC   C4B62758   2.470  13.025   7.120
 4970POPC   NC362759   3.015  15.795   5.631
 4970POPC   PO462760   2.430  15.792   5.306
 4970POPC   GL162761   2.628  16.102   5.732
 4970POPC   GL262762   2.999  16.207   5.920
 4970POPC   C1A62763   2.572  16.120   6.181
 4970POPC   D2A62764   2.345  15.917   6.518
 4970POPC   C3A62765   2.584  15.775   6.884
 4970POPC   C4A62766   2.894  15.800   7.206
 4970POPC   C1B62767   2.953  16.457   6.293
 4970POPC   C2B62768   2.679  16.343   6.632
 4970POPC   C3B62769   2.899  16.267   6.998
 4970POPC   C4B62770   2.899  16.293   7.446
 4971POPC   NC362771  20.096  31.617   5.453
 4971POPC   PO462772  19.555  31.233   5.267
 4971POPC   GL162773  19.611  31.464   5.705
 4971POPC   GL262774  19.926  31.362   5.890
 4971POPC   C1A62775  19.504  31.582   6.165
 4971POPC   D2A62776  19.645  31.614   6.620
 4971POPC   C3A62777  19.615  31.256   6.947
 4971POPC   C4A62778  20.016  31.079   7.130
 4971POPC   C1B62779  20.105  31.591   6.272
 4971POPC   C2B62780  20.296  31.639   6.701
 4971POPC   C3B62781  20.194  31.815   7.135
 4971POPC   C4B62782  20.176  31.969   7.584
 4972POPC   NC362783  41.845  23.257   5.357
 4972POPC   PO462784  41.337  22.720   5.395
 4972POPC   GL162785  41.332  22.848   5.785
 4972POPC   GL262786  41.567  23.090   5.761
 4972POPC   C1A62787  41.501  22.758   6.178
 4972POPC   D2A62788  41.703  22.874   6.501
 4972POPC   C3A62789  41.488  22.668   6.810
 4972POPC   C4A62790  41.441  22.623   7.225
 4972POPC   C1B62791  41.405  23.264   6.150
 4972POPC   C2B62792  41.560  23.369   6.563
 4972POPC   C3B62793  41.674  23.133   6.923
 4972POPC   C4B62794  41.619  23.096   7.331
 4973POPC   NC362795  31.136   5.183   5.151
 4973POPC   PO462796  31.795   5.338   5.255
 4973POPC   GL162797  31.599   5.131   5.712
 4973POPC   GL262798  31.326   4.869   5.810
 4973POPC   C1A62799  31.505   5.197   6.168
 4973POPC   D2A62800  31.293   5.251   6.554
 4973POPC   C3A62801  31.510   5.234   6.929
 4973POPC   C4A62802  31.334   5.223   7.317
 4973POPC   C1B62803  31.253   4.732   6.274
 4973POPC   C2B62804  31.461   4.697   6.699
 4973POPC   C3B62805  31.446   4.728   7.174
 4973POPC   C4B62806  31.307   4.827   7.609
 4974POPC   NC362807   0.648  16.160   5.592
 4974POPC   PO462808   0.039  15.874   5.497
 4974POPC   GL162809   0.326  15.797   5.803
 4974POPC   GL262810   0.242  16.130   5.896
 4974POPC   C1A62811   0.313  15.748   6.251
 4974POPC   D2A62812   0.503  15.599   6.645
 4974POPC   C3A62813   0.427  15.794   7.031
 4974POPC   C4A62814   0.688  15.986   7.330
 4974POPC   C1B62815   0.260  16.268   6.295
 4974POPC   C2B62816   0.524  16.144   6.629
 4974POPC   C3B62817   0.427  16.317   7.012
 4974POPC   C4B62818   0.125  16.152   7.269
 4975POPC   NC362819  21.036  30.071   5.242
 4975POPC   PO462820  20.495  29.667   5.462
 4975POPC   GL162821  20.567  29.828   5.858
 4975POPC   GL262822  20.563  30.155   5.813
 4975POPC   C1A62823  20.632  29.813   6.261
 4975POPC   D2A62824  20.430  29.678   6.580
 4975POPC   C3A62825  20.571  29.782   6.953
 4975POPC   C4A62826  20.316  29.713   7.287
 4975POPC   C1B62827  20.667  30.308   6.201
 4975POPC   C2B62828  20.831  30.178   6.574
 4975POPC   C3B62829  20.819  30.217   6.966
 4975POPC   C4B62830  20.567  30.213   7.281
 4976POPC   NC362831   9.714  25.380   5.308
 4976POPC   PO462832  10.098  24.916   5.692
 4976POPC   GL162833   9.770  25.186   5.781
 4976POPC   GL262834   9.481  25.031   5.865
 4976POPC   C1A62835   9.691  25.406   6.154
 4976POPC   D2A62836   9.736  25.308   6.598
 4976POPC   C3A62837   9.781  25.450   7.009
 4976POPC   C4A62838   9.827  25.199   7.377
 4976POPC   C1B62839   9.247  24.873   6.214
 4976POPC   C2B62840   9.340  24.967   6.632
 4976POPC   C3B62841   9.479  25.024   7.069
 4976POPC   C4B62842   9.371  25.021   7.547
 4977POPC   NC362843  20.217  11.538   5.432
 4977POPC   PO462844  19.886  10.952   5.402
 4977POPC   GL162845  19.758  11.301   5.730
 4977POPC   GL262846  19.951  11.576   5.876
 4977POPC   C1A62847  19.650  11.314   6.213
 4977POPC   D2A62848  19.931  11.152   6.573
 4977POPC   C3A62849  19.781  11.145   7.001
 4977POPC   C4A62850  19.526  11.492   7.166
 4977POPC   C1B62851  20.112  11.579   6.286
 4977POPC   C2B62852  20.025  11.671   6.705
 4977POPC   C3B62853  20.049  11.580   7.145
 4977POPC   C4B62854  19.875  11.735   7.490
 4978POPC   NC362855  40.083  21.673   5.468
 4978POPC   PO462856  40.296  20.999   5.397
 4978POPC   GL162857  40.170  21.270   5.748
 4978POPC   GL262858  39.851  21.341   5.860
 4978POPC   C1A62859  40.290  21.363   6.186
 4978POPC   D2A62860  40.405  21.204   6.579
 4978POPC   C3A62861  40.357  21.455   6.958
 4978POPC   C4A62862  40.055  21.368   7.268
 4978POPC   C1B62863  39.776  21.305   6.282
 4978POPC   C2B62864  39.939  21.479   6.640
 4978POPC   C3B62865  39.738  21.649   6.982
 4978POPC   C4B62866  39.691  21.727   7.464
 4979POPC   NC362867  31.239  44.891   5.471
 4979POPC   PO462868  30.588  44.806   5.331
 4979POPC   GL162869  30.607  44.805   5.782
 4979POPC   GL262870  30.938  44.726   5.839
 4979POPC   C1A62871  30.643  44.655   6.231
 4979POPC   D2A62872  30.703  44.877   6.623
 4979POPC   C3A62873  30.613  44.640   7.000
 4979POPC   C4A62874  30.569  44.841   7.395
 4979POPC   C1B62875  31.099  44.423   6.183
 4979POPC   C2B62876  30.927  44.401   6.586
 4979POPC   C3B62877  31.120  44.497   6.957
 4979POPC   C4B62878  30.957  44.482   7.356
 4980POPC   NC362879   1.760  29.604   5.491
 4980POPC   PO462880   1.912  30.213   5.257
 4980POPC   GL162881   1.959  30.053   5.720
 4980POPC   GL262882   1.642  30.125   5.854
 4980POPC   C1A62883   2.032  29.765   6.126
 4980POPC   D2A62884   2.177  29.568   6.527
 4980POPC   C3A62885   2.217  29.836   6.872
 4980POPC   C4A62886   2.142  29.738   7.292
 4980POPC   C1B62887   1.959  30.284   6.169
 4980POPC   C2B62888   2.134  30.251   6.566
 4980POPC   C3B62889   1.804  30.315   6.886
 4980POPC   C4B62890   1.798  30.249   7.350
 4981POPC   NC362891  21.683  12.108   5.096
 4981POPC   PO462892  21.035  12.001   5.399
 4981POPC   GL162893  21.368  12.113   5.701
 4981POPC   GL262894  21.342  12.474   5.813
 4981POPC   C1A62895  21.457  12.030   6.151
 4981POPC   D2A62896  21.640  11.781   6.494
 4981POPC   C3A62897  21.603  11.972   6.927
 4981POPC   C4A62898  21.381  11.869   7.320
 4981POPC   C1B62899  21.683  12.490   6.111
 4981POPC   C2B62900  21.732  12.311   6.523
 4981POPC   C3B62901  21.654  12.517   6.905
 4981POPC   C4B62902  21.472  12.410   7.265
 4982POPC   NC362903  13.840  21.278   5.437
 4982POPC   PO462904  13.398  21.732   5.506
 4982POPC   GL162905  13.480  21.373   5.785
 4982POPC   GL262906  13.725  21.614   5.909
 4982POPC   C1A62907  13.663  21.168   6.167
 4982POPC   D2A62908  13.798  21.424   6.535
 4982POPC   C3A62909  13.542  21.368   6.890
 4982POPC   C4A62910  13.588  21.102   7.168
 4982POPC   C1B62911  13.421  21.622   6.238
 4982POPC   C2B62912  13.419  21.805   6.605
 4982POPC   C3B62913  13.736  21.818   6.892
 4982POPC   C4B62914  13.445  21.762   7.251
 4983POPC   NC362915  39.198  12.324   5.460
 4983POPC   PO462916  39.078  11.683   5.158
 4983POPC   GL162917  39.192  11.798   5.677
 4983POPC   GL262918  39.283  12.136   5.903
 4983POPC   C1A62919  39.383  11.716   6.124
 4983POPC   D2A62920  39.607  11.984   6.442
 4983POPC   C3A62921  39.360  12.060   6.800
 4983POPC   C4A62922  39.337  11.898   7.230
 4983POPC   C1B62923  39.170  12.226   6.319
 4983POPC   C2B62924  38.903  12.289   6.607
 4983POPC   C3B62925  38.944  12.412   6.982
 4983POPC   C4B62926  38.712  12.528   7.314
 4984POPC   NC362927  17.363  27.751   5.307
 4984POPC   PO462928  17.096  27.305   5.700
 4984POPC   GL162929  17.442  27.504   5.829
 4984POPC   GL262930  17.528  27.841   5.793
 4984POPC   C1A62931  17.484  27.509   6.251
 4984POPC   D2A62932  17.701  27.312   6.536
 4984POPC   C3A62933  17.485  27.350   6.890
 4984POPC   C4A62934  17.531  27.615   7.218
 4984POPC   C1B62935  17.876  27.784   6.105
 4984POPC   C2B62936  18.028  27.708   6.492
 4984POPC   C3B62937  17.950  27.594   6.897
 4984POPC   C4B62938  18.001  27.851   7.235
 4985POPC   NC362939  13.270  29.658   5.270
 4985POPC   PO462940  12.635  29.861   5.178
 4985POPC   GL162941  12.881  29.793   5.603
 4985POPC   GL262942  13.034  30.080   5.806
 4985POPC   C1A62943  12.828  29.654   6.061
 4985POPC   D2A62944  12.552  29.670   6.460
 4985POPC   C3A62945  12.754  29.707   6.871
 4985POPC   C4A62946  12.679  30.050   7.184
 4985POPC   C1B62947  13.097  30.060   6.268
 4985POPC   C2B62948  12.992  30.159   6.716
 4985POPC   C3B62949  13.157  29.935   7.094
 4985POPC   C4B62950  13.117  29.954   7.523
 4986POPC   NC362951  28.770  17.104   5.572
 4986POPC   PO462952  28.178  16.905   5.260
 4986POPC   GL162953  28.088  16.832   5.740
 4986POPC   GL262954  28.344  17.034   5.856
 4986POPC   C1A62955  28.200  16.668   6.190
 4986POPC   D2A62956  28.434  16.391   6.480
 4986POPC   C3A62957  28.268  16.449   6.908
 4986POPC   C4A62958  28.441  16.389   7.311
 4986POPC   C1B62959  28.501  17.089   6.282
 4986POPC   C2B62960  28.399  16.897   6.684
 4986POPC   C3B62961  28.535  16.859   7.130
 4986POPC   C4B62962  28.337  16.846   7.567
 4987POPC   NC362963  41.600   3.001   5.389
 4987POPC   PO462964  41.418   2.387   5.379
 4987POPC   GL162965  41.641   2.595   5.722
 4987POPC   GL262966  41.439   2.864   5.853
 4987POPC   C1A62967  41.764   2.638   6.172
 4987POPC   D2A62968  41.582   2.958   6.424
 4987POPC   C3A62969  41.739   2.991   6.841
 4987POPC   C4A62970  41.885   2.701   7.157
 4987POPC   C1B62971  41.243   2.641   6.176
 4987POPC   C2B62972  41.222   2.426   6.532
 4987POPC   C3B62973  41.170   2.522   6.949
 4987POPC   C4B62974  41.350   2.879   7.182
 4988POPC   NC362975  37.168  43.294   5.399
 4988POPC   PO462976  36.551  43.048   5.368
 4988POPC   GL162977  36.737  43.119   5.775
 4988POPC   GL262978  37.084  43.154   5.868
 4988POPC   C1A62979  36.712  43.022   6.218
 4988POPC   D2A62980  36.507  43.081   6.613
 4988POPC   C3A62981  36.618  43.285   6.962
 4988POPC   C4A62982  36.670  43.206   7.395
 4988POPC   C1B62983  37.111  43.360   6.228
 4988POPC   C2B62984  37.032  43.106   6.621
 4988POPC   C3B62985  37.034  43.011   7.059
 4988POPC   C4B62986  37.076  42.945   7.478
 4989POPC   NC362987  22.674  32.605   5.536
 4989POPC   PO462988  23.119  32.166   5.359
 4989POPC   GL162989  22.927  32.206   5.748
 4989POPC   GL262990  23.146  32.037   5.892
 4989POPC   C1A62991  22.702  32.265   6.129
 4989POPC   D2A62992  22.671  32.480   6.511
 4989POPC   C3A62993  22.905  32.387   6.875
 4989POPC   C4A62994  22.612  32.162   7.148
 4989POPC   C1B62995  23.203  32.154   6.319
 4989POPC   C2B62996  23.398  32.039   6.702
 4989POPC   C3B62997  23.389  32.177   7.151
 4989POPC   C4B62998  23.323  32.046   7.647
 4990POPC   NC362999  16.535  38.883   5.511
 4990POPC   PO463000  16.678  39.511   5.273
 4990POPC   GL163001  16.773  39.260   5.759
 4990POPC   GL263002  17.115  39.175   5.834
 4990POPC   C1A63003  16.526  39.187   6.202
 4990POPC   D2A63004  16.287  39.157   6.601
 4990POPC   C3A63005  16.528  39.192   7.024
 4990POPC   C4A63006  16.536  39.407   7.487
 4990POPC   C1B63007  17.001  39.063   6.243
 4990POPC   C2B63008  16.873  39.175   6.644
 4990POPC   C3B63009  17.016  39.120   7.069
 4990POPC   C4B63010  17.270  39.018   7.366
 4991POPC   NC363011  26.073  14.851   5.760
 4991POPC   PO463012  26.267  14.206   5.474
 4991POPC   GL163013  25.973  14.329   5.770
 4991POPC   GL263014  25.717  14.109   5.806
 4991POPC   C1A63015  25.908  14.381   6.212
 4991POPC   D2A63016  26.018  14.177   6.572
 4991POPC   C3A63017  26.025  14.498   6.857
 4991POPC   C4A63018  26.090  14.443   7.250
 4991POPC   C1B63019  25.821  13.872   6.181
 4991POPC   C2B63020  25.608  13.844   6.580
 4991POPC   C3B63021  25.637  14.017   6.995
 4991POPC   C4B63022  25.962  13.962   7.302
 4992POPC   NC363023   0.146   8.461   5.515
 4992POPC   PO463024  44.866   9.050   5.392
 4992POPC   GL163025  44.699   9.003   5.790
 4992POPC   GL263026  44.937   9.244   5.876
 4992POPC   C1A63027  44.595   9.110   6.231
 4992POPC   D2A63028  44.643   9.340   6.596
 4992POPC   C3A63029  44.430   9.368   6.986
 4992POPC   C4A63030  44.599   9.177   7.346
 4992POPC   C1B63031   0.073   8.910   6.179
 4992POPC   C2B63032  44.931   8.803   6.575
 4992POPC   C3B63033  44.873   9.006   6.945
 4992POPC   C4B63034   0.098   9.254   7.227
 4993POPC   NC363035  18.183   0.846   5.200
 4993POPC   PO463036  18.520   1.382   5.516
 4993POPC   GL163037  18.269   1.197   5.845
 4993POPC   GL263038  18.563   1.106   6.025
 4993POPC   C1A63039  18.197   1.343   6.286
 4993POPC   D2A63040  18.533   1.367   6.595
 4993POPC   C3A63041  18.304   1.414   6.985
 4993POPC   C4A63042  18.020   1.136   7.229
 4993POPC   C1B63043  18.296   0.858   6.296
 4993POPC   C2B63044  18.190   0.975   6.727
 4993POPC   C3B63045  18.308   0.719   7.065
 4993POPC   C4B63046  18.712   0.710   7.231
 4994POPC   NC363047  13.197  12.930   5.149
 4994POPC   PO463048  13.690  13.027   5.573
 4994POPC   GL163049  13.629  12.893   5.933
 4994POPC   GL263050  13.517  12.526   5.868
 4994POPC   C1A63051  13.838  12.942   6.267
 4994POPC   D2A63052  13.639  12.995   6.610
 4994POPC   C3A63053  13.910  12.885   6.897
 4994POPC   C4A63054  13.758  12.963   7.286
 4994POPC   C1B63055  13.451  12.596   6.295
 4994POPC   C2B63056  13.532  12.509   6.683
 4994POPC   C3B63057  13.429  12.688   7.016
 4994POPC   C4B63058  13.504  12.538   7.414
 4995POPC   NC363059  24.927   3.642   5.263
 4995POPC   PO463060  25.517   3.349   5.396
 4995POPC   GL163061  25.456   3.560   5.778
 4995POPC   GL263062  25.287   3.888   5.725
 4995POPC   C1A63063  25.248   3.413   6.147
 4995POPC   D2A63064  25.039   3.372   6.510
 4995POPC   C3A63065  25.244   3.228   6.872
 4995POPC   C4A63066  25.271   3.409   7.282
 4995POPC   C1B63067  25.023   3.886   6.113
 4995POPC   C2B63068  25.122   3.976   6.546
 4995POPC   C3B63069  25.086   3.725   6.907
 4995POPC   C4B63070  24.851   3.690   7.258
 4996POPC   NC363071  39.989  19.924   5.386
 4996POPC   PO463072  39.843  19.259   5.465
 4996POPC   GL163073  40.014  19.553   5.760
 4996POPC   GL263074  39.790  19.824   5.857
 4996POPC   C1A63075  40.181  19.627   6.167
 4996POPC   D2A63076  40.338  19.682   6.594
 4996POPC   C3A63077  40.286  19.970   6.932
 4996POPC   C4A63078  40.162  19.660   7.235
 4996POPC   C1B63079  39.776  20.006   6.273
 4996POPC   C2B63080  39.826  19.915   6.725
 4996POPC   C3B63081  39.821  20.038   7.175
 4996POPC   C4B63082  39.803  19.833   7.569
 4997POPC   NC363083  12.122  16.056   5.429
 4997POPC   PO463084  11.541  15.784   5.509
 4997POPC   GL163085  11.903  15.839   5.837
 4997POPC   GL263086  11.818  15.570   6.035
 4997POPC   C1A63087  12.280  15.920   6.138
 4997POPC   D2A63088  12.382  15.894   6.620
 4997POPC   C3A63089  12.085  16.104   6.929
 4997POPC   C4A63090  11.717  16.204   7.198
 4997POPC   C1B63091  11.864  15.803   6.408
 4997POPC   C2B63092  11.923  15.640   6.783
 4997POPC   C3B63093  11.692  15.658   7.151
 4997POPC   C4B63094  11.333  15.889   7.335
 4998POPC   NC363095  23.748  29.035   5.558
 4998POPC   PO463096  23.211  29.158   5.213
 4998POPC   GL163097  23.309  29.270   5.700
 4998POPC   GL263098  23.535  29.485   5.838
 4998POPC   C1A63099  23.527  29.078   6.152
 4998POPC   D2A63100  23.889  29.124   6.479
 4998POPC   C3A63101  23.750  28.995   6.897
 4998POPC   C4A63102  23.632  29.158   7.297
 4998POPC   C1B63103  23.654  29.542   6.305
 4998POPC   C2B63104  23.525  29.444   6.748
 4998POPC   C3B63105  23.402  29.577   7.173
 4998POPC   C4B63106  23.338  29.475   7.624
 4999POPC   NC363107  32.144  21.001   5.428
 4999POPC   PO463108  32.126  21.670   5.511
 4999POPC   GL163109  32.276  21.347   5.798
 4999POPC   GL263110  31.960  21.157   5.869
 4999POPC   C1A63111  32.365  21.049   6.140
 4999POPC   D2A63112  32.630  21.055   6.512
 4999POPC   C3A63113  32.446  21.222   6.844
 4999POPC   C4A63114  32.480  21.167   7.250
 4999POPC   C1B63115  31.852  21.186   6.310
 4999POPC   C2B63116  31.916  21.376   6.737
 4999POPC   C3B63117  32.189  21.610   7.046
 4999POPC   C4B63118  32.220  21.491   7.513
 5000POPC   NC363119  25.011  31.361   5.444
 5000POPC   PO463120  25.583  31.693   5.377
 5000POPC   GL163121  25.479  31.390   5.737
 5000POPC   GL263122  25.120  31.408   5.926
 5000POPC   C1A63123  25.504  31.197   6.161
 5000POPC   D2A63124  25.273  31.398   6.466
 5000POPC   C3A63125  25.344  31.257   6.857
 5000POPC   C4A63126  25.453  31.469   7.205
 5000POPC   C1B63127  24.916  31.118   6.233
 5000POPC   C2B63128  24.936  31.001   6.668
 5000POPC   C3B63129  24.904  31.162   7.098
 5000POPC   C4B63130  24.664  31.501   7.256
 5001POPC   NC363131  24.894  14.092   5.416
 5001POPC   PO463132  24.872  13.377   5.468
 5001POPC   GL163133  24.677  13.575   5.841
 5001POPC   GL263134  24.361  13.791   5.849
 5001POPC   C1A63135  24.442  13.415   6.199
 5001POPC   D2A63136  24.681  13.360   6.570
 5001POPC   C3A63137  24.561  13.533   6.948
 5001POPC   C4A63138  24.352  13.378   7.259
 5001POPC   C1B63139  24.545  13.906   6.220
 5001POPC   C2B63140  24.702  13.898   6.596
 5001POPC   C3B63141  24.601  14.037   6.990
 5001POPC   C4B63142  24.416  13.887   7.336
 5002POPC   NC363143  23.894  14.081   5.447
 5002POPC   PO463144  23.933  14.746   5.424
 5002POPC   GL163145  23.741  14.471   5.775
 5002POPC   GL263146  23.516  14.147   5.789
 5002POPC   C1A63147  23.713  14.429   6.224
 5002POPC   D2A63148  23.794  14.639   6.635
 5002POPC   C3A63149  23.699  14.414   7.008
 5002POPC   C4A63150  23.651  14.543   7.439
 5002POPC   C1B63151  23.240  14.252   6.153
 5002POPC   C2B63152  23.395  14.247   6.594
 5002POPC   C3B63153  23.275  14.108   7.005
 5002POPC   C4B63154  23.552  13.981   7.278
 5003POPC   NC363155   6.159  44.429   5.459
 5003POPC   PO463156   6.068   0.102   5.358
 5003POPC   GL163157   5.927  44.838   5.692
 5003POPC   GL263158   6.269  44.823   5.775
 5003POPC   C1A63159   5.887  44.591   6.078
 5003POPC   D2A63160   5.676  44.677   6.474
 5003POPC   C3A63161   5.870  44.366   6.753
 5003POPC   C4A63162   6.003  44.312   7.200
 5003POPC   C1B63163   6.291  44.884   6.193
 5003POPC   C2B63164   6.151  44.798   6.582
 5003POPC   C3B63165   5.919  44.878   6.932
 5003POPC   C4B63166   6.179  44.802   7.269
 5004POPC   NC363167  38.502  30.820   5.314
 5004POPC   PO463168  38.050  30.347   5.566
 5004POPC   GL163169  38.295  30.657   5.817
 5004POPC   GL263170  38.683  30.670   5.823
 5004POPC   C1A63171  38.440  30.637   6.279
 5004POPC   D2A63172  38.252  30.792   6.668
 5004POPC   C3A63173  38.350  30.680   7.068
 5004POPC   C4A63174  38.090  30.648   7.430
 5004POPC   C1B63175  38.901  30.892   6.196
 5004POPC   C2B63176  38.852  31.006   6.654
 5004POPC   C3B63177  38.805  30.936   7.107
 5004POPC   C4B63178  38.727  30.924   7.573
 5005POPC   NC363179   0.073   4.410   5.625
 5005POPC   PO463180   0.695   4.128   5.363
 5005POPC   GL163181   0.528   4.139   5.743
 5005POPC   GL263182   0.252   3.918   5.706
 5005POPC   C1A63183   0.523   4.291   6.153
 5005POPC   D2A63184   0.670   4.494   6.511
 5005POPC   C3A63185   0.470   4.397   6.882
 5005POPC   C4A63186   0.572   4.571   7.261
 5005POPC   C1B63187   0.287   3.827   6.163
 5005POPC   C2B63188   0.221   4.086   6.537
 5005POPC   C3B63189   0.005   4.190   6.916
 5005POPC   C4B63190   0.171   4.278   7.318
 5006POPC   NC363191   7.423  29.969   5.332
 5006POPC   PO463192   7.006  29.586   5.628
 5006POPC   GL163193   7.358  29.813   5.843
 5006POPC   GL263194   7.147  30.104   5.821
 5006POPC   C1A63195   7.539  29.843   6.293
 5006POPC   D2A63196   7.406  29.517   6.634
 5006POPC   C3A63197   7.512  29.581   7.074
 5006POPC   C4A63198   7.664  29.933   7.325
 5006POPC   C1B63199   7.046  29.935   6.257
 5006POPC   C2B63200   7.106  29.937   6.733
 5006POPC   C3B63201   7.130  29.900   7.178
 5006POPC   C4B63202   7.256  30.089   7.593
 5007POPC   NC363203  20.897   9.291   5.396
 5007POPC   PO463204  20.731   8.577   5.468
 5007POPC   GL163205  20.669   8.861   5.775
 5007POPC   GL263206  21.003   8.957   5.790
 5007POPC   C1A63207  20.584   8.867   6.207
 5007POPC   D2A63208  20.754   9.024   6.594
 5007POPC   C3A63209  20.557   8.923   6.941
 5007POPC   C4A63210  20.724   8.838   7.318
 5007POPC   C1B63211  21.002   9.171   6.177
 5007POPC   C2B63212  20.994   9.460   6.531
 5007POPC   C3B63213  21.030   9.334   6.947
 5007POPC   C4B63214  20.726   9.328   7.222
 5008POPC   NC363215  41.093  18.985   5.354
 5008POPC   PO463216  40.563  19.345   5.623
 5008POPC   GL163217  40.815  19.030   5.806
 5008POPC   GL263218  41.029  19.298   5.844
 5008POPC   C1A63219  40.872  19.021   6.259
 5008POPC   D2A63220  40.766  19.382   6.545
 5008POPC   C3A63221  40.565  19.226   6.932
 5008POPC   C4A63222  40.762  18.910   7.223
 5008POPC   C1B63223  41.165  19.431   6.199
 5008POPC   C2B63224  41.265  19.203   6.586
 5008POPC   C3B63225  41.078  19.267   6.970
 5008POPC   C4B63226  40.973  19.388   7.371
 5009POPC   NC363227   6.728  13.201   5.422
 5009POPC   PO463228   6.480  13.840   5.322
 5009POPC   GL163229   6.586  13.640   5.728
 5009POPC   GL263230   6.876  13.791   5.839
 5009POPC   C1A63231   6.592  13.526   6.189
 5009POPC   D2A63232   6.585  13.376   6.640
 5009POPC   C3A63233   6.334  13.570   6.957
 5009POPC   C4A63234   6.530  13.498   7.333
 5009POPC   C1B63235   6.947  13.961   6.247
 5009POPC   C2B63236   6.988  13.725   6.602
 5009POPC   C3B63237   6.846  13.701   6.992
 5009POPC   C4B63238   7.015  13.904   7.349
 5010POPC   NC363239   2.281  16.233   5.399
 5010POPC   PO463240   1.732  15.827   5.479
 5010POPC   GL163241   2.027  15.980   5.781
 5010POPC   GL263242   1.833  16.288   5.763
 5010POPC   C1A63243   2.078  16.231   6.198
 5010POPC   D2A63244   1.956  16.320   6.634
 5010POPC   C3A63245   2.137  16.037   6.961
 5010POPC   C4A63246   2.467  16.140   7.238
 5010POPC   C1B63247   1.618  16.015   6.104
 5010POPC   C2B63248   1.456  16.089   6.529
 5010POPC   C3B63249   1.559  16.180   6.943
 5010POPC   C4B63250   1.773  16.066   7.309
 5011POPC   NC363251  14.978   5.066   5.431
 5011POPC   PO463252  14.245   5.141   5.446
 5011POPC   GL163253  14.551   4.976   5.769
 5011POPC   GL263254  14.715   5.266   5.842
 5011POPC   C1A63255  14.504   4.970   6.240
 5011POPC   D2A63256  14.225   4.876   6.619
 5011POPC   C3A63257  14.330   5.106   7.006
 5011POPC   C4A63258  14.421   5.030   7.457
 5011POPC   C1B63259  14.778   5.408   6.227
 5011POPC   C2B63260  14.735   5.198   6.660
 5011POPC   C3B63261  14.750   5.393   7.065
 5011POPC   C4B63262  14.756   5.416   7.515
 5012POPC   NC363263  36.928  35.181   5.540
 5012POPC   PO463264  37.047  35.819   5.402
 5012POPC   GL163265  36.796  35.617   5.796
 5012POPC   GL263266  37.077  35.396   5.979
 5012POPC   C1A63267  36.655  35.511   6.260
 5012POPC   D2A63268  36.899  35.339   6.635
 5012POPC   C3A63269  36.842  35.480   7.065
 5012POPC   C4A63270  36.971  35.825   7.298
 5012POPC   C1B63271  36.853  35.049   6.204
 5012POPC   C2B63272  36.685  34.872   6.609
 5012POPC   C3B63273  36.737  34.953   7.034
 5012POPC   C4B63274  37.157  35.077   7.165
 5013POPC   NC363275  37.395  18.902   5.403
 5013POPC   PO463276  37.912  19.157   5.176
 5013POPC   GL163277  37.809  18.988   5.672
 5013POPC   GL263278  37.476  19.135   5.837
 5013POPC   C1A63279  37.853  19.024   6.149
 5013POPC   D2A63280  37.558  19.043   6.479
 5013POPC   C3A63281  37.749  18.920   6.833
 5013POPC   C4A63282  37.643  18.979   7.207
 5013POPC   C1B63283  37.321  19.392   6.179
 5013POPC   C2B63284  37.196  19.429   6.577
 5013POPC   C3B63285  37.450  19.372   6.925
 5013POPC   C4B63286  37.231  19.283   7.310
 5014POPC   NC363287   9.403  37.642   5.535
 5014POPC   PO463288  10.105  37.478   5.561
 5014POPC   GL163289   9.849  37.600   5.887
 5014POPC   GL263290   9.699  37.906   5.940
 5014POPC   C1A63291   9.930  37.631   6.335
 5014POPC   D2A63292   9.951  37.691   6.752
 5014POPC   C3A63293  10.096  37.352   6.906
 5014POPC   C4A63294   9.969  37.467   7.268
 5014POPC   C1B63295   9.446  37.605   6.222
 5014POPC   C2B63296   9.334  37.633   6.662
 5014POPC   C3B63297   9.497  37.720   7.069
 5014POPC   C4B63298   9.310  38.004   7.363
 5015POPC   NC363299  14.316   9.155   5.450
 5015POPC   PO463300  13.945   8.711   5.132
 5015POPC   GL163301  14.262   8.699   5.672
 5015POPC   GL263302  14.562   8.949   5.823
 5015POPC   C1A63303  14.246   8.874   6.166
 5015POPC   D2A63304  14.467   8.918   6.536
 5015POPC   C3A63305  14.119   8.878   6.784
 5015POPC   C4A63306  14.009   9.041   7.153
 5015POPC   C1B63307  14.582   9.286   6.190
 5015POPC   C2B63308  14.533   9.522   6.606
 5015POPC   C3B63309  14.447   9.251   6.930
 5015POPC   C4B63310  14.637   8.909   7.127
 5016POPC   NC363311   7.927  18.171   5.447
 5016POPC   PO463312   7.389  18.509   5.483
 5016POPC   GL163313   7.549  18.277   5.876
 5016POPC   GL263314   7.773  17.989   5.887
 5016POPC   C1A63315   7.361  18.268   6.316
 5016POPC   D2A63316   7.303  18.535   6.705
 5016POPC   C3A63317   7.332  18.321   7.093
 5016POPC   C4A63318   6.914  18.360   7.298
 5016POPC   C1B63319   7.601  17.811   6.266
 5016POPC   C2B63320   7.470  17.833   6.706
 5016POPC   C3B63321   7.113  17.879   6.991
 5016POPC   C4B63322   7.111  17.913   7.429
 5017POPC   NC363323  24.069  20.899   5.479
 5017POPC   PO463324  24.415  20.346   5.203
 5017POPC   GL163325  24.521  20.517   5.623
 5017POPC   GL263326  24.637  20.871   5.573
 5017POPC   C1A63327  24.570  20.465   6.099
 5017POPC   D2A63328  24.712  20.473   6.580
 5017POPC   C3A63329  24.378  20.445   6.940
 5017POPC   C4A63330  24.292  20.283   7.366
 5017POPC   C1B63331  24.499  20.958   6.021
 5017POPC   C2B63332  24.357  20.806   6.422
 5017POPC   C3B63333  24.506  20.908   6.805
 5017POPC   C4B63334  24.646  20.792   7.188
 5018POPC   NC363335  27.200  38.535   5.321
 5018POPC   PO463336  26.618  38.796   5.267
 5018POPC   GL163337  26.781  38.568   5.699
 5018POPC   GL263338  26.555  38.308   5.864
 5018POPC   C1A63339  26.844  38.542   6.199
 5018POPC   D2A63340  26.707  38.403   6.637
 5018POPC   C3A63341  27.048  38.489   6.933
 5018POPC   C4A63342  27.123  38.764   7.301
 5018POPC   C1B63343  26.317  38.426   6.277
 5018POPC   C2B63344  26.121  38.596   6.671
 5018POPC   C3B63345  26.292  38.854   6.988
 5018POPC   C4B63346  26.610  38.580   7.139
 5019POPC   NC363347  10.560  12.222   5.409
 5019POPC   PO463348  10.448  11.531   5.373
 5019POPC   GL163349  10.668  11.808   5.722
 5019POPC   GL263350  10.382  11.942   5.807
 5019POPC   C1A63351  10.710  12.093   6.146
 5019POPC   D2A63352  10.499  12.124   6.571
 5019POPC   C3A63353  10.744  12.230   6.912
 5019POPC   C4A63354  10.705  12.005   7.254
 5019POPC   C1B63355  10.175  11.967   6.213
 5019POPC   C2B63356  10.018  11.809   6.569
 5019POPC   C3B63357  10.165  11.940   6.953
 5019POPC   C4B63358  10.145  12.180   7.312
 5020POPC   NC363359  10.484  26.398   5.551
 5020POPC   PO463360  10.730  25.843   5.382
 5020POPC   GL163361  10.598  25.758   5.796
 5020POPC   GL263362  10.297  25.959   5.821
 5020POPC   C1A63363  10.488  25.765   6.251
 5020POPC   D2A63364  10.575  25.978   6.629
 5020POPC   C3A63365  10.639  25.749   6.985
 5020POPC   C4A63366  10.578  25.588   7.402
 5020POPC   C1B63367  10.284  26.252   6.222
 5020POPC   C2B63368  10.310  26.410   6.678
 5020POPC   C3B63369  10.385  26.206   7.104
 5020POPC   C4B63370  10.549  26.414   7.491
 5021POPC   NC363371  21.982  20.809   5.343
 5021POPC   PO463372  22.417  21.007   5.750
 5021POPC   GL163373  22.312  20.606   5.811
 5021POPC   GL263374  22.003  20.468   5.738
 5021POPC   C1A63375  22.303  20.415   6.180
 5021POPC   D2A63376  22.097  20.425   6.537
 5021POPC   C3A63377  22.235  20.374   6.927
 5021POPC   C4A63378  22.246  20.197   7.322
 5021POPC   C1B63379  21.865  20.737   6.103
 5021POPC   C2B63380  21.939  20.915   6.523
 5021POPC   C3B63381  21.853  20.759   6.930
 5021POPC   C4B63382  22.077  20.701   7.276
 5022POPC   NC363383  37.068  28.006   5.553
 5022POPC   PO463384  36.790  28.598   5.759
 5022POPC   GL163385  36.872  28.266   5.981
 5022POPC   GL263386  37.196  28.296   5.972
 5022POPC   C1A63387  36.936  28.225   6.414
 5022POPC   D2A63388  36.902  28.091   6.806
 5022POPC   C3A63389  36.739  28.417   7.067
 5022POPC   C4A63390  36.815  28.512   7.478
 5022POPC   C1B63391  37.218  28.667   6.302
 5022POPC   C2B63392  37.198  28.717   6.771
 5022POPC   C3B63393  37.225  28.528   7.144
 5022POPC   C4B63394  37.179  28.126   7.226
 5023POPC   NC363395  43.442   2.681   5.435
 5023POPC   PO463396  42.900   3.110   5.616
 5023POPC   GL163397  43.118   2.817   5.838
 5023POPC   GL263398  43.373   3.017   5.864
 5023POPC   C1A63399  43.181   2.610   6.242
 5023POPC   D2A63400  43.061   2.387   6.622
 5023POPC   C3A63401  42.933   2.689   6.939
 5023POPC   C4A63402  43.259   2.712   7.251
 5023POPC   C1B63403  43.245   3.129   6.247
 5023POPC   C2B63404  43.223   2.962   6.635
 5023POPC   C3B63405  43.318   3.155   7.026
 5023POPC   C4B63406  43.391   3.148   7.490
 5024POPC   NC363407   7.145  33.689   5.061
 5024POPC   PO463408   7.564  33.634   5.558
 5024POPC   GL163409   7.417  33.703   5.933
 5024POPC   GL263410   7.172  33.446   5.901
 5024POPC   C1A63411   7.497  33.931   6.277
 5024POPC   D2A63412   7.374  33.873   6.676
 5024POPC   C3A63413   7.659  33.663   6.953
 5024POPC   C4A63414   7.826  34.018   7.148
 5024POPC   C1B63415   7.074  33.570   6.314
 5024POPC   C2B63416   7.223  33.380   6.685
 5024POPC   C3B63417   7.144  33.611   7.052
 5024POPC   C4B63418   7.003  33.562   7.438
 5025POPC   NC363419  36.848  29.719   5.200
 5025POPC   PO463420  37.198  30.232   5.558
 5025POPC   GL163421  36.946  29.980   5.870
 5025POPC   GL263422  36.732  29.693   5.738
 5025POPC   C1A63423  36.931  30.027   6.303
 5025POPC   D2A63424  36.975  30.187   6.677
 5025POPC   C3A63425  37.164  29.929   6.927
 5025POPC   C4A63426  37.092  29.849   7.310
 5025POPC   C1B63427  36.496  29.871   6.101
 5025POPC   C2B63428  36.484  29.846   6.560
 5025POPC   C3B63429  36.626  29.898   6.996
 5025POPC   C4B63430  36.441  30.164   7.323
 5026POPC   NC363431   7.868  30.801   5.590
 5026POPC   PO463432   8.313  30.300   5.728
 5026POPC   GL163433   8.228  30.651   5.964
 5026POPC   GL263434   7.899  30.659   6.053
 5026POPC   C1A63435   8.241  30.525   6.413
 5026POPC   D2A63436   8.388  30.379   6.807
 5026POPC   C3A63437   8.253  30.676   7.081
 5026POPC   C4A63438   7.973  31.020   7.179
 5026POPC   C1B63439   7.791  30.311   6.243
 5026POPC   C2B63440   7.905  30.187   6.645
 5026POPC   C3B63441   7.877  30.331   7.067
 5026POPC   C4B63442   7.991  30.551   7.479
 5027POPC   NC363443  43.208  35.760   5.581
 5027POPC   PO463444  43.199  36.389   5.463
 5027POPC   GL163445  42.972  36.173   5.798
 5027POPC   GL263446  42.775  35.853   5.830
 5027POPC   C1A63447  43.105  36.197   6.217
 5027POPC   D2A63448  42.968  36.373   6.604
 5027POPC   C3A63449  43.232  36.332   6.970
 5027POPC   C4A63450  43.577  36.037   7.084
 5027POPC   C1B63451  42.960  35.703   6.253
 5027POPC   C2B63452  43.219  35.875   6.615
 5027POPC   C3B63453  43.105  35.851   7.035
 5027POPC   C4B63454  42.825  35.778   7.364
 5028POPC   NC363455  27.515  28.031   5.442
 5028POPC   PO463456  27.461  28.727   5.443
 5028POPC   GL163457  27.610  28.458   5.761
 5028POPC   GL263458  27.300  28.308   5.838
 5028POPC   C1A63459  27.657  28.361   6.205
 5028POPC   D2A63460  27.398  28.435   6.551
 5028POPC   C3A63461  27.539  28.488   6.978
 5028POPC   C4A63462  27.359  28.534   7.391
 5028POPC   C1B63463  27.265  28.003   6.168
 5028POPC   C2B63464  27.403  27.782   6.507
 5028POPC   C3B63465  27.484  28.009   6.850
 5028POPC   C4B63466  27.207  28.103   7.179
 5029POPC   NC363467   1.578  20.836   5.607
 5029POPC   PO463468   0.955  20.619   5.363
 5029POPC   GL163469   1.140  20.574   5.807
 5029POPC   GL263470   1.203  20.876   5.930
 5029POPC   C1A63471   1.283  20.479   6.245
 5029POPC   D2A63472   1.310  20.702   6.637
 5029POPC   C3A63473   1.310  20.425   6.975
 5029POPC   C4A63474   0.906  20.320   7.154
 5029POPC   C1B63475   1.550  20.931   6.244
 5029POPC   C2B63476   1.757  20.925   6.677
 5029POPC   C3B63477   1.517  20.910   7.072
 5029POPC   C4B63478   1.345  20.659   7.444
 5030POPC   NC363479   3.493  33.265   5.062
 5030POPC   PO463480   3.357  33.869   5.402
 5030POPC   GL163481   3.543  33.861   5.841
 5030POPC   GL263482   3.793  33.593   5.874
 5030POPC   C1A63483   3.638  33.879   6.313
 5030POPC   D2A63484   3.640  34.041   6.715
 5030POPC   C3A63485   3.409  33.877   7.045
 5030POPC   C4A63486   3.483  33.817   7.458
 5030POPC   C1B63487   3.956  33.467   6.291
 5030POPC   C2B63488   3.910  33.622   6.734
 5030POPC   C3B63489   3.774  33.496   7.148
 5030POPC   C4B63490   3.815  33.473   7.605
 5031POPC   NC363491  39.717   8.836   5.526
 5031POPC   PO463492  40.302   8.964   5.416
 5031POPC   GL163493  40.115   9.050   5.792
 5031POPC   GL263494  40.144   8.725   5.876
 5031POPC   C1A63495  40.213   9.083   6.236
 5031POPC   D2A63496  40.323   9.344   6.595
 5031POPC   C3A63497  40.147   9.162   6.983
 5031POPC   C4A63498  39.717   8.995   7.112
 5031POPC   C1B63499  40.053   8.605   6.324
 5031POPC   C2B63500  39.999   8.707   6.777
 5031POPC   C3B63501  40.078   8.639   7.218
 5031POPC   C4B63502  39.967   8.554   7.679
 5032POPC   NC363503  42.127  34.536   5.563
 5032POPC   PO463504  41.427  34.569   5.430
 5032POPC   GL163505  41.252  34.582   5.813
 5032POPC   GL263506  41.554  34.775   5.899
 5032POPC   C1A63507  41.283  34.528   6.253
 5032POPC   D2A63508  41.561  34.747   6.513
 5032POPC   C3A63509  41.451  34.608   6.912
 5032POPC   C4A63510  41.488  34.826   7.271
 5032POPC   C1B63511  41.932  34.717   6.153
 5032POPC   C2B63512  42.051  34.572   6.557
 5032POPC   C3B63513  41.922  34.797   6.929
 5032POPC   C4B63514  41.986  34.659   7.330
 5033POPC   NC363515  25.459   0.555   5.410
 5033POPC   PO463516  24.862   0.172   5.594
 5033POPC   GL163517  25.184   0.341   5.849
 5033POPC   GL263518  25.547   0.300   5.852
 5033POPC   C1A63519  25.254   0.400   6.277
 5033POPC   D2A63520  25.061   0.290   6.686
 5033POPC   C3A63521  25.280   0.340   7.077
 5033POPC   C4A63522  25.504   0.189   7.431
 5033POPC   C1B63523  25.754   0.175   6.239
 5033POPC   C2B63524  25.622   0.194   6.680
 5033POPC   C3B63525  25.767   0.456   7.035
 5033POPC   C4B63526  25.580   0.706   7.330
 5034POPC   NC363527  31.678  43.760   5.595
 5034POPC   PO463528  31.191  44.377   5.556
 5034POPC   GL163529  31.321  44.052   5.837
 5034POPC   GL263530  31.279  43.666   5.883
 5034POPC   C1A63531  31.415  44.007   6.261
 5034POPC   D2A63532  31.421  44.254   6.596
 5034POPC   C3A63533  31.508  44.077   6.996
 5034POPC   C4A63534  31.211  44.052   7.301
 5034POPC   C1B63535  31.566  43.525   6.231
 5034POPC   C2B63536  31.471  43.678   6.655
 5034POPC   C3B63537  31.258  43.619   7.047
 5034POPC   C4B63538  31.635  43.644   7.328
 5035POPC   NC363539  13.977  13.340   5.417
 5035POPC   PO463540  13.289  13.381   5.267
 5035POPC   GL163541  13.417  13.409   5.768
 5035POPC   GL263542  13.754  13.544   5.832
 5035POPC   C1A63543  13.514  13.367   6.244
 5035POPC   D2A63544  13.848  13.451   6.570
 5035POPC   C3A63545  13.674  13.365   6.968
 5035POPC   C4A63546  13.555  13.418   7.392
 5035POPC   C1B63547  13.765  13.813   6.230
 5035POPC   C2B63548  13.523  13.829   6.654
 5035POPC   C3B63549  13.687  13.858   7.096
 5035POPC   C4B63550  13.970  13.710   7.417
 5036POPC   NC363551  30.715  12.459   5.242
 5036POPC   PO463552  30.525  11.878   5.480
 5036POPC   GL163553  30.678  12.101   5.820
 5036POPC   GL263554  30.632  12.454   5.798
 5036POPC   C1A63555  30.797  12.017   6.237
 5036POPC   D2A63556  30.981  11.890   6.639
 5036POPC   C3A63557  30.764  11.961   7.044
 5036POPC   C4A63558  31.016  11.983   7.407
 5036POPC   C1B63559  30.886  12.535   6.165
 5036POPC   C2B63560  30.824  12.381   6.594
 5036POPC   C3B63561  31.078  12.352   6.953
 5036POPC   C4B63562  30.851  12.445   7.285
 5037POPC   NC363563  11.455   0.158   5.458
 5037POPC   PO463564  11.094   0.730   5.491
 5037POPC   GL163565  11.096   0.610   5.878
 5037POPC   GL263566  11.088   0.250   5.798
 5037POPC   C1A63567  11.344   0.738   6.217
 5037POPC   D2A63568  11.598   0.563   6.551
 5037POPC   C3A63569  11.276   0.599   6.806
 5037POPC   C4A63570  11.087   0.519   7.187
 5037POPC   C1B63571  11.320   0.239   6.166
 5037POPC   C2B63572  11.243   0.155   6.571
 5037POPC   C3B63573  11.327   0.095   6.984
 5037POPC   C4B63574  11.369   0.113   7.440
 5038POPC   NC363575   1.466  42.879   5.472
 5038POPC   PO463576   0.881  43.257   5.588
 5038POPC   GL163577   1.241  43.135   5.863
 5038POPC   GL263578   1.561  43.327   5.777
 5038POPC   C1A63579   1.336  43.057   6.300
 5038POPC   D2A63580   1.132  43.246   6.655
 5038POPC   C3A63581   1.184  43.004   7.010
 5038POPC   C4A63582   0.835  42.915   7.259
 5038POPC   C1B63583   1.529  43.511   6.198
 5038POPC   C2B63584   1.624  43.377   6.620
 5038POPC   C3B63585   1.441  43.471   7.020
 5038POPC   C4B63586   1.391  43.668   7.449
 5039POPC   NC363587  21.583  41.591   5.370
 5039POPC   PO463588  20.995  41.341   5.274
 5039POPC   GL163589  21.172  41.514   5.712
 5039POPC   GL263590  21.519  41.411   5.837
 5039POPC   C1A63591  21.268  41.704   6.161
 5039POPC   D2A63592  21.391  41.920   6.549
 5039POPC   C3A63593  21.277  41.696   6.948
 5039POPC   C4A63594  21.450  41.463   7.250
 5039POPC   C1B63595  21.735  41.191   6.181
 5039POPC   C2B63596  21.690  41.031   6.625
 5039POPC   C3B63597  21.787  41.133   7.060
 5039POPC   C4B63598  21.879  41.271   7.490
 5040POPC   NC363599  11.176  24.196   5.221
 5040POPC   PO463600  10.915  24.741   5.282
 5040POPC   GL163601  11.182  24.520   5.652
 5040POPC   GL263602  11.428  24.226   5.708
 5040POPC   C1A63603  11.355  24.566   6.097
 5040POPC   D2A63604  11.153  24.488   6.504
 5040POPC   C3A63605  11.319  24.609   6.908
 5040POPC   C4A63606  11.159  24.418   7.283
 5040POPC   C1B63607  11.635  24.135   6.136
 5040POPC   C2B63608  11.448  24.062   6.562
 5040POPC   C3B63609  11.565  24.152   7.005
 5040POPC   C4B63610  11.563  24.208   7.480
 5041POPC   NC363611  38.955  21.224   5.458
 5041POPC   PO463612  39.629  21.522   5.441
 5041POPC   GL163613  39.339  21.412   5.790
 5041POPC   GL263614  38.980  21.510   5.878
 5041POPC   C1A63615  39.270  21.281   6.227
 5041POPC   D2A63616  39.330  21.518   6.632
 5041POPC   C3A63617  39.193  21.290   6.990
 5041POPC   C4A63618  39.496  21.310   7.268
 5041POPC   C1B63619  38.922  21.662   6.305
 5041POPC   C2B63620  38.814  21.505   6.708
 5041POPC   C3B63621  38.799  21.726   7.072
 5041POPC   C4B63622  38.735  21.617   7.488
 5042POPC   NC363623  43.019  10.856   5.266
 5042POPC   PO463624  43.475  10.366   5.370
 5042POPC   GL163625  43.154  10.509   5.716
 5042POPC   GL263626  43.007  10.841   5.769
 5042POPC   C1A63627  42.957  10.471   6.137
 5042POPC   D2A63628  43.003  10.323   6.557
 5042POPC   C3A63629  43.298  10.634   6.719
 5042POPC   C4A63630  43.348  10.754   7.155
 5042POPC   C1B63631  42.865  10.970   6.164
 5042POPC   C2B63632  42.737  10.780   6.540
 5042POPC   C3B63633  42.903  10.876   6.927
 5042POPC   C4B63634  42.771  10.808   7.320
 5043POPC   NC363635  36.555  20.458   5.544
 5043POPC   PO463636  37.190  20.747   5.449
 5043POPC   GL163637  36.936  20.679   5.797
 5043POPC   GL263638  36.695  20.909   5.840
 5043POPC   C1A63639  36.828  20.501   6.209
 5043POPC   D2A63640  37.099  20.432   6.560
 5043POPC   C3A63641  36.960  20.368   6.964
 5043POPC   C4A63642  36.695  20.324   7.322
 5043POPC   C1B63643  36.462  20.883   6.228
 5043POPC   C2B63644  36.497  20.637   6.609
 5043POPC   C3B63645  36.616  20.735   7.022
 5043POPC   C4B63646  36.481  20.767   7.437
 5044POPC   NC363647  28.216  40.994   5.565
 5044POPC   PO463648  28.597  40.446   5.591
 5044POPC   GL163649  28.317  40.619   5.894
 5044POPC   GL263650  28.467  40.985   6.010
 5044POPC   C1A63651  28.308  40.606   6.317
 5044POPC   D2A63652  28.398  40.829   6.634
 5044POPC   C3A63653  28.227  40.568   6.868
 5044POPC   C4A63654  28.129  40.519   7.281
 5044POPC   C1B63655  28.073  41.052   6.228
 5044POPC   C2B63656  27.924  41.033   6.657
 5044POPC   C3B63657  28.073  41.005   7.093
 5044POPC   C4B63658  28.493  40.865   7.176
 5045POPC   NC363659  28.301   5.501   5.386
 5045POPC   PO463660  28.295   4.876   5.450
 5045POPC   GL163661  28.426   5.165   5.760
 5045POPC   GL263662  28.615   4.935   5.927
 5045POPC   C1A63663  28.256   5.347   6.150
 5045POPC   D2A63664  28.211   5.137   6.575
 5045POPC   C3A63665  28.246   5.364   6.985
 5045POPC   C4A63666  28.607   5.551   7.180
 5045POPC   C1B63667  28.176   4.836   6.124
 5045POPC   C2B63668  28.026   4.648   6.531
 5045POPC   C3B63669  27.950   4.846   6.940
 5045POPC   C4B63670  28.257   4.931   7.237
 5046POPC   NC363671  21.008  13.294   5.607
 5046POPC   PO463672  20.410  13.519   5.317
 5046POPC   GL163673  20.533  13.450   5.724
 5046POPC   GL263674  20.559  13.791   5.814
 5046POPC   C1A63675  20.494  13.454   6.174
 5046POPC   D2A63676  20.685  13.481   6.546
 5046POPC   C3A63677  20.450  13.622   6.835
 5046POPC   C4A63678  20.657  13.546   7.208
 5046POPC   C1B63679  20.830  13.865   6.155
 5046POPC   C2B63680  20.737  14.095   6.510
 5046POPC   C3B63681  20.834  13.927   6.889
 5046POPC   C4B63682  21.073  13.861   7.227
 5047POPC   NC363683  30.220   2.687   5.499
 5047POPC   PO463684  29.548   2.702   5.509
 5047POPC   GL163685  29.792   2.819   5.833
 5047POPC   GL263686  30.062   3.032   5.849
 5047POPC   C1A63687  29.788   2.876   6.262
 5047POPC   D2A63688  29.860   2.540   6.529
 5047POPC   C3A63689  29.725   2.678   6.876
 5047POPC   C4A63690  29.423   2.549   7.163
 5047POPC   C1B63691  30.268   2.703   6.152
 5047POPC   C2B63692  30.357   2.460   6.563
 5047POPC   C3B63693  30.207   2.442   6.961
 5047POPC   C4B63694  29.963   2.602   7.298
 5048POPC   NC363695  26.320  32.933   5.215
 5048POPC   PO463696  25.794  33.302   5.387
 5048POPC   GL163697  25.990  33.006   5.698
 5048POPC   GL263698  25.691  32.803   5.722
 5048POPC   C1A63699  26.112  33.104   6.153
 5048POPC   D2A63700  25.970  33.342   6.558
 5048POPC   C3A63701  26.208  33.315   6.969
 5048POPC   C4A63702  26.103  33.091   7.398
 5048POPC   C1B63703  25.596  32.721   6.119
 5048POPC   C2B63704  25.810  32.851   6.491
 5048POPC   C3B63705  25.835  32.935   6.921
 5048POPC   C4B63706  25.716  32.646   7.237
 5049POPC   NC363707   5.105  27.060   5.341
 5049POPC   PO463708   5.549  26.562   5.239
 5049POPC   GL163709   5.192  26.677   5.674
 5049POPC   GL263710   4.948  26.954   5.809
 5049POPC   C1A63711   5.168  26.687   6.186
 5049POPC   D2A63712   4.945  26.760   6.610
 5049POPC   C3A63713   5.112  26.572   7.013
 5049POPC   C4A63714   5.338  26.676   7.438
 5049POPC   C1B63715   5.277  27.175   6.064
 5049POPC   C2B63716   5.266  27.304   6.519
 5049POPC   C3B63717   5.193  27.117   6.949
 5049POPC   C4B63718   5.439  27.143   7.314
 5050POPC   NC363719  20.608  13.090   5.233
 5050POPC   PO463720  20.943  12.832   5.733
 5050POPC   GL163721  20.562  12.917   5.802
 5050POPC   GL263722  20.447  12.579   5.823
 5050POPC   C1A63723  20.574  12.946   6.253
 5050POPC   D2A63724  20.522  12.793   6.627
 5050POPC   C3A63725  20.532  13.111   6.920
 5050POPC   C4A63726  20.763  13.046   7.300
 5050POPC   C1B63727  20.165  12.616   6.162
 5050POPC   C2B63728  20.031  12.635   6.556
 5050POPC   C3B63729  20.197  12.594   6.972
 5050POPC   C4B63730  20.271  12.860   7.281
 5051POPC   NC363731  14.568  18.030   5.364
 5051POPC   PO463732  14.385  17.386   5.420
 5051POPC   GL163733  14.496  17.411   5.825
 5051POPC   GL263734  14.645  17.749   5.777
 5051POPC   C1A63735  14.388  17.248   6.225
 5051POPC   D2A63736  14.286  17.436   6.600
 5051POPC   C3A63737  14.396  17.261   6.980
 5051POPC   C4A63738  14.033  17.144   7.121
 5051POPC   C1B63739  14.372  17.829   6.098
 5051POPC   C2B63740  14.436  17.919   6.522
 5051POPC   C3B63741  14.625  17.744   6.871
 5051POPC   C4B63742  14.339  17.747   7.167
 5052POPC   NC363743   4.749   9.606   5.561
 5052POPC   PO463744   4.131   9.874   5.525
 5052POPC   GL163745   4.304   9.563   5.844
 5052POPC   GL263746   4.671   9.570   6.047
 5052POPC   C1A63747   4.228   9.655   6.258
 5052POPC   D2A63748   4.473   9.658   6.591
 5052POPC   C3A63749   4.257   9.764   6.931
 5052POPC   C4A63750   4.421   9.860   7.274
 5052POPC   C1B63751   4.526   9.208   6.268
 5052POPC   C2B63752   4.458   9.167   6.719
 5052POPC   C3B63753   4.616   9.423   7.057
 5052POPC   C4B63754   4.844   9.405   7.467
 5053POPC   NC363755  38.208  34.203   5.371
 5053POPC   PO463756  38.374  34.874   5.493
 5053POPC   GL163757  38.513  34.729   5.832
 5053POPC   GL263758  38.483  34.424   5.750
 5053POPC   C1A63759  38.530  34.632   6.260
 5053POPC   D2A63760  38.317  34.727   6.613
 5053POPC   C3A63761  38.542  34.700   6.987
 5053POPC   C4A63762  38.261  34.648   7.341
 5053POPC   C1B63763  38.169  34.340   6.057
 5053POPC   C2B63764  38.093  34.286   6.499
 5053POPC   C3B63765  38.113  34.235   6.950
 5053POPC   C4B63766  38.496  34.219   7.187
 5054POPC   NC363767   4.387  41.385   5.343
 5054POPC   PO463768   4.170  41.917   5.435
 5054POPC   GL163769   4.164  41.596   5.753
 5054POPC   GL263770   4.491  41.454   5.844
 5054POPC   C1A63771   4.058  41.446   6.160
 5054POPC   D2A63772   4.102  41.277   6.583
 5054POPC   C3A63773   4.229  41.513   6.923
 5054POPC   C4A63774   4.090  41.480   7.304
 5054POPC   C1B63775   4.510  41.703   6.233
 5054POPC   C2B63776   4.660  41.578   6.650
 5054POPC   C3B63777   4.660  41.736   7.081
 5054POPC   C4B63778   4.299  41.941   7.266
 5055POPC   NC363779  43.855  14.200   5.291
 5055POPC   PO463780  44.232  13.581   5.276
 5055POPC   GL163781  44.028  13.733   5.642
 5055POPC   GL263782  44.021  13.379   5.748
 5055POPC   C1A63783  43.760  13.715   6.033
 5055POPC   D2A63784  43.955  13.668   6.447
 5055POPC   C3A63785  43.726  13.682   6.825
 5055POPC   C4A63786  43.889  13.682   7.219
 5055POPC   C1B63787  44.253  13.262   6.116
 5055POPC   C2B63788  44.129  13.179   6.511
 5055POPC   C3B63789  44.118  13.328   6.903
 5055POPC   C4B63790  44.207  13.294   7.317
 5056POPC   NC363791  19.272  10.088   5.362
 5056POPC   PO463792  18.770   9.763   5.151
 5056POPC   GL163793  18.816   9.912   5.615
 5056POPC   GL263794  18.708   9.579   5.743
 5056POPC   C1A63795  19.073   9.888   6.038
 5056POPC   D2A63796  19.222   9.994   6.491
 5056POPC   C3A63797  19.241   9.750   6.892
 5056POPC   C4A63798  19.267   9.891   7.319
 5056POPC   C1B63799  18.746   9.513   6.182
 5056POPC   C2B63800  18.936   9.461   6.582
 5056POPC   C3B63801  18.765   9.533   6.981
 5056POPC   C4B63802  18.944   9.511   7.388
 5057POPC   NC363803  41.401  29.682   5.481
 5057POPC   PO463804  41.206  30.421   5.531
 5057POPC   GL163805  41.369  30.093   5.820
 5057POPC   GL263806  41.177  29.788   5.920
 5057POPC   C1A63807  41.614  29.997   6.211
 5057POPC   D2A63808  41.576  30.227   6.630
 5057POPC   C3A63809  41.913  30.291   6.925
 5057POPC   C4A63810  41.854  30.108   7.306
 5057POPC   C1B63811  41.376  29.542   6.219
 5057POPC   C2B63812  41.682  29.636   6.555
 5057POPC   C3B63813  41.645  29.819   6.933
 5057POPC   C4B63814  41.384  29.732   7.268
 5058POPC   NC363815  18.900   6.260   5.483
 5058POPC   PO463816  19.411   5.786   5.574
 5058POPC   GL163817  19.138   5.965   5.873
 5058POPC   GL263818  18.796   5.825   5.863
 5058POPC   C1A63819  18.993   6.104   6.269
 5058POPC   D2A63820  18.898   6.019   6.701
 5058POPC   C3A63821  19.019   6.134   7.130
 5058POPC   C4A63822  19.180   5.843   7.460
 5058POPC   C1B63823  18.564   5.780   6.273
 5058POPC   C2B63824  18.616   5.577   6.673
 5058POPC   C3B63825  18.934   5.602   6.987
 5058POPC   C4B63826  18.720   5.707   7.312
 5059POPC   NC363827  35.711  22.091   5.495
 5059POPC   PO463828  35.221  22.547   5.447
 5059POPC   GL163829  35.343  22.387   5.827
 5059POPC   GL263830  35.645  22.549   5.787
 5059POPC   C1A63831  35.311  22.298   6.289
 5059POPC   D2A63832  35.224  22.347   6.734
 5059POPC   C3A63833  35.042  22.017   6.991
 5059POPC   C4A63834  35.069  21.944   7.453
 5059POPC   C1B63835  35.798  22.397   6.152
 5059POPC   C2B63836  35.781  22.285   6.558
 5059POPC   C3B63837  35.689  22.425   6.953
 5059POPC   C4B63838  35.452  22.205   7.226
 5060POPC   NC363839   6.079  37.825   5.095
 5060POPC   PO463840   5.505  37.457   5.324
 5060POPC   GL163841   5.788  37.696   5.617
 5060POPC   GL263842   5.989  37.491   5.853
 5060POPC   C1A63843   5.693  37.858   6.051
 5060POPC   D2A63844   5.699  38.028   6.501
 5060POPC   C3A63845   5.676  37.940   6.932
 5060POPC   C4A63846   5.962  37.930   7.282
 5060POPC   C1B63847   5.705  37.364   6.218
 5060POPC   C2B63848   5.651  37.468   6.675
 5060POPC   C3B63849   5.752  37.485   7.148
 5060POPC   C4B63850   5.721  37.439   7.600
 5061POPC   NC363851  40.561  32.669   5.614
 5061POPC   PO463852  40.745  32.043   5.579
 5061POPC   GL163853  41.012  32.185   5.850
 5061POPC   GL263854  41.084  32.511   5.711
 5061POPC   C1A63855  40.860  32.164   6.268
 5061POPC   D2A63856  40.685  31.892   6.572
 5061POPC   C3A63857  40.647  32.148   6.912
 5061POPC   C4A63858  40.457  32.101   7.267
 5061POPC   C1B63859  41.028  32.646   6.147
 5061POPC   C2B63860  40.849  32.568   6.571
 5061POPC   C3B63861  41.023  32.579   6.957
 5061POPC   C4B63862  40.770  32.518   7.300
 5062POPC   NC363863   2.054  28.195   5.464
 5062POPC   PO463864   1.870  28.900   5.484
 5062POPC   GL163865   2.080  28.609   5.803
 5062POPC   GL263866   2.317  28.300   5.865
 5062POPC   C1A63867   1.954  28.465   6.202
 5062POPC   D2A63868   1.836  28.275   6.606
 5062POPC   C3A63869   2.065  28.264   6.961
 5062POPC   C4A63870   2.069  28.459   7.366
 5062POPC   C1B63871   2.334  28.127   6.232
 5062POPC   C2B63872   2.235  27.939   6.587
 5062POPC   C3B63873   2.393  27.899   6.974
 5062POPC   C4B63874   2.460  28.167   7.283
 5063POPC   NC363875  30.066  27.836   5.348
 5063POPC   PO463876  29.529  27.424   5.413
 5063POPC   GL163877  29.752  27.387   5.811
 5063POPC   GL263878  29.503  27.233   5.960
 5063POPC   C1A63879  29.964  27.479   6.239
 5063POPC   D2A63880  30.144  27.731   6.595
 5063POPC   C3A63881  30.119  27.708   7.064
 5063POPC   C4A63882  30.280  28.074   7.263
 5063POPC   C1B63883  29.523  27.276   6.410
 5063POPC   C2B63884  29.766  27.425   6.769
 5063POPC   C3B63885  29.886  27.253   7.182
 5063POPC   C4B63886  29.764  27.314   7.638
 5064POPC   NC363887  31.520  39.708   5.363
 5064POPC   PO463888  31.132  40.269   5.459
 5064POPC   GL163889  31.330  39.947   5.773
 5064POPC   GL263890  31.092  39.737   5.938
 5064POPC   C1A63891  31.540  40.052   6.197
 5064POPC   D2A63892  31.671  39.924   6.612
 5064POPC   C3A63893  31.611  40.153   6.994
 5064POPC   C4A63894  31.604  39.852   7.247
 5064POPC   C1B63895  31.047  40.135   6.141
 5064POPC   C2B63896  31.097  40.088   6.553
 5064POPC   C3B63897  31.200  39.862   6.910
 5064POPC   C4B63898  31.138  40.041   7.284
 5065POPC   NC363899   6.198   0.638   5.372
 5065POPC   PO463900   6.933   0.568   5.430
 5065POPC   GL163901   6.696   0.523   5.821
 5065POPC   GL263902   6.408   0.319   5.710
 5065POPC   C1A63903   6.632   0.652   6.286
 5065POPC   D2A63904   6.732   0.465   6.711
 5065POPC   C3A63905   6.467   0.655   7.070
 5065POPC   C4A63906   6.498   0.971   7.414
 5065POPC   C1B63907   6.230   0.397   6.103
 5065POPC   C2B63908   6.279   0.306   6.518
 5065POPC   C3B63909   6.367   0.160   6.933
 5065POPC   C4B63910   6.536   0.249   7.364
 5066POPC   NC363911  33.690  20.955   5.562
 5066POPC   PO463912  34.145  20.382   5.419
 5066POPC   GL163913  33.892  20.498   5.775
 5066POPC   GL263914  34.097  20.764   5.843
 5066POPC   C1A63915  33.736  20.679   6.197
 5066POPC   D2A63916  33.835  20.434   6.577
 5066POPC   C3A63917  33.622  20.584   6.898
 5066POPC   C4A63918  33.578  20.629   7.315
 5066POPC   C1B63919  34.204  20.551   6.236
 5066POPC   C2B63920  34.342  20.489   6.661
 5066POPC   C3B63921  34.177  20.477   7.061
 5066POPC   C4B63922  34.011  20.816   7.205
 5067POPC   NC363923  29.881  15.796   5.414
 5067POPC   PO463924  30.404  16.193   5.631
 5067POPC   GL163925  30.145  15.932   5.820
 5067POPC   GL263926  30.276  15.609   5.705
 5067POPC   C1A63927  29.888  15.966   6.177
 5067POPC   D2A63928  29.972  16.075   6.586
 5067POPC   C3A63929  29.652  16.083   6.879
 5067POPC   C4A63930  29.896  16.017   7.230
 5067POPC   C1B63931  30.298  15.570   6.153
 5067POPC   C2B63932  29.974  15.533   6.462
 5067POPC   C3B63933  29.862  15.605   6.874
 5067POPC   C4B63934  30.167  15.599   7.185
 5068POPC   NC363935  37.528  14.071   5.386
 5068POPC   PO463936  37.493  14.731   5.442
 5068POPC   GL163937  37.682  14.433   5.735
 5068POPC   GL263938  37.391  14.219   5.844
 5068POPC   C1A63939  37.864  14.276   6.134
 5068POPC   D2A63940  37.998  14.110   6.541
 5068POPC   C3A63941  37.930  14.408   6.841
 5068POPC   C4A63942  37.702  14.469   7.199
 5068POPC   C1B63943  37.403  14.541   6.149
 5068POPC   C2B63944  37.245  14.432   6.512
 5068POPC   C3B63945  37.287  14.485   6.934
 5068POPC   C4B63946  37.372  14.854   7.147
 5069POPC   NC363947  35.651   3.590   5.614
 5069POPC   PO463948  36.260   3.435   5.443
 5069POPC   GL163949  36.346   3.626   5.846
 5069POPC   GL263950  36.411   3.312   5.951
 5069POPC   C1A63951  36.357   3.978   6.149
 5069POPC   D2A63952  36.325   4.072   6.588
 5069POPC   C3A63953  36.016   3.756   6.804
 5069POPC   C4A63954  35.796   3.397   7.058
 5069POPC   C1B63955  36.197   3.476   6.337
 5069POPC   C2B63956  36.177   3.267   6.731
 5069POPC   C3B63957  36.285   3.387   7.159
 5069POPC   C4B63958  36.510   3.372   7.531
 5070POPC   NC363959   0.611  30.293   5.059
 5070POPC   PO463960   0.493  30.836   5.461
 5070POPC   GL163961   0.605  30.788   5.884
 5070POPC   GL263962   0.225  30.826   5.960
 5070POPC   C1A63963   0.572  30.696   6.313
 5070POPC   D2A63964   0.251  30.793   6.578
 5070POPC   C3A63965   0.397  30.836   6.980
 5070POPC   C4A63966   0.194  30.909   7.360
 5070POPC   C1B63967   0.106  30.463   6.194
 5070POPC   C2B63968   0.282  30.287   6.529
 5070POPC   C3B63969   0.120  30.404   6.909
 5070POPC   C4B63970   0.147  30.375   7.304
 5071POPC   NC363971  10.700  14.064   5.075
 5071POPC   PO463972  10.463  14.423   5.547
 5071POPC   GL163973  10.339  14.558   5.876
 5071POPC   GL263974  10.690  14.537   5.986
 5071POPC   C1A63975  10.083  14.588   6.221
 5071POPC   D2A63976  10.300  14.659   6.612
 5071POPC   C3A63977  10.132  14.615   7.008
 5071POPC   C4A63978  10.379  14.561   7.351
 5071POPC   C1B63979  10.499  14.291   6.291
 5071POPC   C2B63980  10.631  14.120   6.621
 5071POPC   C3B63981  10.629  14.330   6.965
 5071POPC   C4B63982  10.721  14.198   7.378
 5072POPC   NC363983  23.705   8.044   5.011
 5072POPC   PO463984  23.531   8.444   5.460
 5072POPC   GL163985  23.848   8.345   5.779
 5072POPC   GL263986  24.199   8.494   5.803
 5072POPC   C1A63987  23.793   8.106   6.186
 5072POPC   D2A63988  23.515   8.050   6.537
 5072POPC   C3A63989  23.722   8.015   6.928
 5072POPC   C4A63990  23.574   7.922   7.308
 5072POPC   C1B63991  23.980   8.580   6.200
 5072POPC   C2B63992  23.779   8.489   6.576
 5072POPC   C3B63993  24.032   8.531   6.918
 5072POPC   C4B63994  24.049   8.424   7.313
 5073POPC   NC363995  15.750  21.865   5.227
 5073POPC   PO463996  15.693  22.444   5.457
 5073POPC   GL163997  15.866  22.097   5.751
 5073POPC   GL263998  15.708  21.751   5.759
 5073POPC   C1A63999  15.913  22.237   6.219
 5073POPC   D2A64000  16.231  22.153   6.564
 5073POPC   C3A64001  16.250  22.422   6.922
 5073POPC   C4A64002  16.044  22.389   7.306
 5073POPC   C1B64003  15.957  21.724   6.147
 5073POPC   C2B64004  15.798  21.834   6.572
 5073POPC   C3B64005  15.825  22.052   6.963
 5073POPC   C4B64006  15.962  21.811   7.312
 5074POPC   NC364007  33.997  13.045   5.420
 5074POPC   PO464008  33.267  13.037   5.310
 5074POPC   GL164009  33.584  12.829   5.636
 5074POPC   GL264010  33.704  13.117   5.827
 5074POPC   C1A64011  33.793  12.688   6.077
 5074POPC   D2A64012  33.839  12.850   6.506
 5074POPC   C3A64013  33.827  12.557   6.841
 5074POPC   C4A64014  33.894  12.628   7.256
 5074POPC   C1B64015  34.010  13.200   6.163
 5074POPC   C2B64016  34.281  13.116   6.524
 5074POPC   C3B64017  34.135  12.981   6.944
 5074POPC   C4B64018  33.778  13.154   7.141
 5075POPC   NC364019  25.621  27.796   5.099
 5075POPC   PO464020  26.265  27.565   5.466
 5075POPC   GL164021  26.182  27.675   5.921
 5075POPC   GL264022  25.838  27.724   6.018
 5075POPC   C1A64023  26.116  27.352   6.261
 5075POPC   D2A64024  25.842  27.156   6.601
 5075POPC   C3A64025  25.997  27.353   6.946
 5075POPC   C4A64026  26.138  27.819   7.076
 5075POPC   C1B64027  25.615  27.517   6.314
 5075POPC   C2B64028  25.551  27.617   6.735
 5075POPC   C3B64029  25.647  27.682   7.138
 5075POPC   C4B64030  25.798  27.917   7.487
 5076POPC   NC364031  21.257  33.321   5.459
 5076POPC   PO464032  21.633  33.851   5.287
 5076POPC   GL164033  21.318  33.932   5.669
 5076POPC   GL264034  21.560  34.116   5.844
 5076POPC   C1A64035  21.168  34.011   6.137
 5076POPC   D2A64036  21.310  33.806   6.520
 5076POPC   C3A64037  21.326  33.908   6.959
 5076POPC   C4A64038  21.349  33.708   7.397
 5076POPC   C1B64039  21.581  33.673   6.029
 5076POPC   C2B64040  21.716  33.533   6.434
 5076POPC   C3B64041  21.792  33.823   6.772
 5076POPC   C4B64042  21.803  33.750   7.203
 5077POPC   NC364043  19.585  37.983   5.215
 5077POPC   PO464044  19.686  37.333   5.339
 5077POPC   GL164045  19.691  37.491   5.786
 5077POPC   GL264046  20.056  37.447   5.898
 5077POPC   C1A64047  19.758  37.714   6.209
 5077POPC   D2A64048  20.116  37.623   6.518
 5077POPC   C3A64049  19.939  37.685   6.918
 5077POPC   C4A64050  19.609  38.003   6.930
 5077POPC   C1B64051  19.864  37.224   6.258
 5077POPC   C2B64052  19.676  37.334   6.649
 5077POPC   C3B64053  19.739  37.198   7.068
 5077POPC   C4B64054  19.662  37.277   7.506
 5078POPC   NC364055  38.451  16.347   5.592
 5078POPC   PO464056  38.735  15.871   5.268
 5078POPC   GL164057  38.560  15.748   5.728
 5078POPC   GL264058  38.283  15.948   5.875
 5078POPC   C1A64059  38.677  15.838   6.182
 5078POPC   D2A64060  38.590  15.827   6.630
 5078POPC   C3A64061  38.446  16.157   6.912
 5078POPC   C4A64062  38.567  16.033   7.338
 5078POPC   C1B64063  38.172  15.762   6.303
 5078POPC   C2B64064  38.016  15.876   6.732
 5078POPC   C3B64065  38.108  15.865   7.181
 5078POPC   C4B64066  38.259  15.647   7.546
 5079POPC   NC364067  18.111  39.375   5.297
 5079POPC   PO464068  18.617  38.914   5.474
 5079POPC   GL164069  18.451  39.121   5.803
 5079POPC   GL264070  18.120  39.055   5.704
 5079POPC   C1A64071  18.467  38.984   6.232
 5079POPC   D2A64072  18.472  39.213   6.612
 5079POPC   C3A64073  18.428  39.023   7.015
 5079POPC   C4A64074  18.364  39.348   7.329
 5079POPC   C1B64075  17.986  39.154   6.118
 5079POPC   C2B64076  17.852  39.050   6.543
 5079POPC   C3B64077  18.013  39.248   6.889
 5079POPC   C4B64078  17.873  39.408   7.248
 5080POPC   NC364079  37.522   4.479   5.423
 5080POPC   PO464080  37.905   3.886   5.446
 5080POPC   GL164081  37.886   4.173   5.759
 5080POPC   GL264082  37.545   4.140   5.797
 5080POPC   C1A64083  37.806   4.399   6.164
 5080POPC   D2A64084  37.604   4.371   6.573
 5080POPC   C3A64085  37.823   4.333   6.965
 5080POPC   C4A64086  38.050   4.651   7.204
 5080POPC   C1B64087  37.374   4.096   6.171
 5080POPC   C2B64088  37.451   3.900   6.556
 5080POPC   C3B64089  37.319   4.140   6.949
 5080POPC   C4B64090  37.480   4.347   7.330
 5081POPC   NC364091   9.421   1.861   5.450
 5081POPC   PO464092  10.054   1.700   5.448
 5081POPC   GL164093   9.872   2.011   5.799
 5081POPC   GL264094   9.517   2.154   5.875
 5081POPC   C1A64095   9.822   2.053   6.270
 5081POPC   D2A64096   9.735   2.192   6.679
 5081POPC   C3A64097  10.011   2.043   7.002
 5081POPC   C4A64098   9.927   1.995   7.482
 5081POPC   C1B64099   9.348   1.887   6.225
 5081POPC   C2B64100   9.538   1.716   6.614
 5081POPC   C3B64101   9.518   1.864   7.047
 5081POPC   C4B64102   9.403   1.979   7.481
 5082POPC   NC364103   3.715  40.795   5.344
 5082POPC   PO464104   3.087  40.724   5.372
 5082POPC   GL164105   3.350  40.587   5.774
 5082POPC   GL264106   3.731  40.597   5.811
 5082POPC   C1A64107   3.448  40.763   6.220
 5082POPC   D2A64108   3.584  41.046   6.557
 5082POPC   C3A64109   3.331  41.004   6.937
 5082POPC   C4A64110   3.525  41.081   7.334
 5082POPC   C1B64111   3.932  40.596   6.216
 5082POPC   C2B64112   3.765  40.558   6.613
 5082POPC   C3B64113   3.759  40.749   6.996
 5082POPC   C4B64114   3.703  40.600   7.407
 5083POPC   NC364115  11.465  44.393   5.275
 5083POPC   PO464116  11.850  44.883   5.555
 5083POPC   GL164117  12.078  44.853   5.941
 5083POPC   GL264118  12.311  44.580   5.873
 5083POPC   C1A64119  12.023  44.642   6.372
 5083POPC   D2A64120  11.717  44.383   6.630
 5083POPC   C3A64121  11.885  44.271   7.035
 5083POPC   C4A64122  12.086  44.618   7.246
 5083POPC   C1B64123  12.511  44.683   6.266
 5083POPC   C2B64124  12.509  44.660   6.715
 5083POPC   C3B64125  12.560  44.796   7.137
 5083POPC   C4B64126  12.312   0.068   7.386
 5084POPC   NC364127  20.384  25.055   5.406
 5084POPC   PO464128  20.660  25.683   5.338
 5084POPC   GL164129  20.788  25.365   5.656
 5084POPC   GL264130  20.516  25.228   5.870
 5084POPC   C1A64131  20.939  25.426   6.107
 5084POPC   D2A64132  20.819  25.483   6.558
 5084POPC   C3A64133  20.833  25.119   6.818
 5084POPC   C4A64134  20.801  25.090   7.257
 5084POPC   C1B64135  20.262  25.161   6.242
 5084POPC   C2B64136  20.286  25.313   6.642
 5084POPC   C3B64137  20.487  25.452   6.994
 5084POPC   C4B64138  20.411  25.379   7.420
 5085POPC   NC364139  38.301  38.253   5.103
 5085POPC   PO464140  38.721  38.593   5.525
 5085POPC   GL164141  38.562  38.318   5.877
 5085POPC   GL264142  38.173  38.270   5.837
 5085POPC   C1A64143  38.636  38.328   6.346
 5085POPC   D2A64144  38.440  38.589   6.666
 5085POPC   C3A64145  38.565  38.450   7.045
 5085POPC   C4A64146  38.935  38.216   7.179
 5085POPC   C1B64147  38.137  38.388   6.292
 5085POPC   C2B64148  38.189  38.155   6.724
 5085POPC   C3B64149  38.160  38.200   7.191
 5085POPC   C4B64150  38.154  38.622   7.438
 5086POPC   NC364151  18.460  38.472   5.546
 5086POPC   PO464152  17.873  38.247   5.436
 5086POPC   GL164153  17.999  38.322   5.844
 5086POPC   GL264154  18.323  38.206   5.958
 5086POPC   C1A64155  18.067  38.633   6.176
 5086POPC   D2A64156  18.237  38.700   6.594
 5086POPC   C3A64157  18.190  38.389   6.902
 5086POPC   C4A64158  18.154  38.599   7.254
 5086POPC   C1B64159  18.559  38.398   6.287
 5086POPC   C2B64160  18.633  38.208   6.680
 5086POPC   C3B64161  18.580  38.012   7.069
 5086POPC   C4B64162  18.456  38.236   7.425
 5087POPC   NC364163  44.637  15.664   5.561
 5087POPC   PO464164  44.420  16.285   5.427
 5087POPC   GL164165  44.552  16.112   5.813
 5087POPC   GL264166  44.229  15.910   5.780
 5087POPC   C1A64167  44.780  16.086   6.230
 5087POPC   D2A64168   0.007  15.929   6.624
 5087POPC   C3A64169  44.760  15.938   6.998
 5087POPC   C4A64170  44.614  16.252   7.294
 5087POPC   C1B64171  44.403  15.749   6.174
 5087POPC   C2B64172  44.449  15.848   6.601
 5087POPC   C3B64173  44.280  15.760   7.014
 5087POPC   C4B64174  44.311  15.861   7.459
 5088POPC   NC364175  37.504  13.110   5.449
 5088POPC   PO464176  37.935  12.602   5.632
 5088POPC   GL164177  37.641  12.851   5.862
 5088POPC   GL264178  37.890  12.927   6.064
 5088POPC   C1A64179  37.360  12.901   6.230
 5088POPC   D2A64180  37.218  12.686   6.627
 5088POPC   C3A64181  37.490  12.831   6.976
 5088POPC   C4A64182  37.823  12.670   7.211
 5088POPC   C1B64183  38.128  13.198   6.298
 5088POPC   C2B64184  38.225  13.062   6.707
 5088POPC   C3B64185  38.192  13.189   7.125
 5088POPC   C4B64186  37.901  13.133   7.412
 5089POPC   NC364187   5.022  17.015   5.427
 5089POPC   PO464188   4.689  16.435   5.601
 5089POPC   GL164189   4.924  16.488   5.958
 5089POPC   GL264190   5.143  16.779   5.909
 5089POPC   C1A64191   5.230  16.366   6.255
 5089POPC   D2A64192   5.187  16.550   6.627
 5089POPC   C3A64193   5.352  16.388   6.971
 5089POPC   C4A64194   5.024  16.551   7.238
 5089POPC   C1B64195   5.306  16.952   6.315
 5089POPC   C2B64196   5.245  17.046   6.788
 5089POPC   C3B64197   5.441  16.887   7.199
 5089POPC   C4B64198   5.302  16.845   7.653
 5090POPC   NC364199   8.907   6.105   5.136
 5090POPC   PO464200   8.834   5.566   5.521
 5090POPC   GL164201   8.768   5.721   5.893
 5090POPC   GL264202   8.749   6.086   5.795
 5090POPC   C1A64203   8.877   5.599   6.285
 5090POPC   D2A64204   8.826   5.688   6.655
 5090POPC   C3A64205   9.109   5.512   6.861
 5090POPC   C4A64206   9.165   5.608   7.234
 5090POPC   C1B64207   9.079   6.057   6.152
 5090POPC   C2B64208   9.267   5.934   6.568
 5090POPC   C3B64209   9.178   6.066   7.006
 5090POPC   C4B64210   8.978   6.019   7.464
 5091POPC   NC364211   6.328  31.338   5.487
 5091POPC   PO464212   5.626  31.364   5.369
 5091POPC   GL164213   5.888  31.419   5.767
 5091POPC   GL264214   6.050  31.113   5.915
 5091POPC   C1A64215   6.056  31.512   6.215
 5091POPC   D2A64216   5.897  31.343   6.612
 5091POPC   C3A64217   5.714  31.692   6.856
 5091POPC   C4A64218   6.027  31.824   7.115
 5091POPC   C1B64219   5.642  31.188   6.164
 5091POPC   C2B64220   5.390  31.348   6.535
 5091POPC   C3B64221   5.483  31.241   6.956
 5091POPC   C4B64222   5.927  31.301   7.123
 5092POPC   NC364223  36.985  23.652   5.509
 5092POPC   PO464224  36.980  23.038   5.595
 5092POPC   GL164225  36.709  23.432   5.861
 5092POPC   GL264226  36.784  23.880   5.895
 5092POPC   C1A64227  36.719  23.570   6.300
 5092POPC   D2A64228  36.786  23.587   6.745
 5092POPC   C3A64229  36.843  23.959   6.943
 5092POPC   C4A64230  36.731  23.873   7.332
 5092POPC   C1B64231  37.179  23.775   6.100
 5092POPC   C2B64232  37.211  23.625   6.474
 5092POPC   C3B64233  37.273  23.659   6.897
 5092POPC   C4B64234  37.230  23.783   7.279
 5093POPC   NC364235  41.335  18.134   5.426
 5093POPC   PO464236  41.844  18.583   5.422
 5093POPC   GL164237  41.550  18.507   5.717
 5093POPC   GL264238  41.697  18.189   5.792
 5093POPC   C1A64239  41.373  18.427   6.122
 5093POPC   D2A64240  41.423  18.142   6.456
 5093POPC   C3A64241  41.399  18.346   6.829
 5093POPC   C4A64242  41.583  18.345   7.192
 5093POPC   C1B64243  41.836  18.001   6.170
 5093POPC   C2B64244  41.824  17.859   6.603
 5093POPC   C3B64245  41.916  18.014   6.981
 5093POPC   C4B64246  42.046  17.733   7.293
 5094POPC   NC364247   5.165  33.453   5.436
 5094POPC   PO464248   4.876  32.833   5.389
 5094POPC   GL164249   4.953  33.085   5.762
 5094POPC   GL264250   5.316  33.169   5.813
 5094POPC   C1A64251   5.076  32.878   6.154
 5094POPC   D2A64252   4.887  32.746   6.533
 5094POPC   C3A64253   5.060  32.924   6.913
 5094POPC   C4A64254   5.048  32.779   7.306
 5094POPC   C1B64255   5.580  33.272   6.183
 5094POPC   C2B64256   5.716  33.141   6.602
 5094POPC   C3B64257   5.565  33.028   7.000
 5094POPC   C4B64258   5.392  33.274   7.320
 5095POPC   NC364259  15.390  13.920   5.548
 5095POPC   PO464260  15.083  13.284   5.478
 5095POPC   GL164261  15.255  13.395   5.889
 5095POPC   GL264262  15.093  13.704   5.886
 5095POPC   C1A64263  15.340  13.565   6.312
 5095POPC   D2A64264  15.136  13.781   6.684
 5095POPC   C3A64265  15.231  13.610   7.087
 5095POPC   C4A64266  14.985  13.472   7.409
 5095POPC   C1B64267  15.081  14.010   6.208
 5095POPC   C2B64268  14.725  14.052   6.464
 5095POPC   C3B64269  14.726  14.135   6.915
 5095POPC   C4B64270  15.053  14.054   7.209
 5096POPC   NC364271  38.211  13.001   5.532
 5096POPC   PO464272  38.829  12.643   5.282
 5096POPC   GL164273  38.646  12.854   5.688
 5096POPC   GL264274  38.795  13.134   5.658
 5096POPC   C1A64275  38.484  12.817   6.176
 5096POPC   D2A64276  38.594  12.701   6.653
 5096POPC   C3A64277  38.313  12.664   7.033
 5096POPC   C4A64278  38.261  12.728   7.493
 5096POPC   C1B64279  38.814  13.208   6.091
 5096POPC   C2B64280  38.610  13.313   6.457
 5096POPC   C3B64281  38.681  13.244   6.882
 5096POPC   C4B64282  38.650  13.014   7.244
 5097POPC   NC364283  44.236  33.324   5.320
 5097POPC   PO464284  43.959  32.811   5.692
 5097POPC   GL164285  43.714  33.013   5.903
 5097POPC   GL264286  43.466  32.727   6.004
 5097POPC   C1A64287  43.813  33.341   6.140
 5097POPC   D2A64288  43.691  33.156   6.521
 5097POPC   C3A64289  43.703  33.370   6.877
 5097POPC   C4A64290  43.891  33.302   7.225
 5097POPC   C1B64291  43.789  32.676   6.301
 5097POPC   C2B64292  43.755  32.656   6.699
 5097POPC   C3B64293  43.841  32.829   7.054
 5097POPC   C4B64294  43.743  32.504   7.320
 5098POPC   NC364295   4.411  34.869   5.597
 5098POPC   PO464296   4.302  34.170   5.353
 5098POPC   GL164297   4.375  34.348   5.766
 5098POPC   GL264298   4.046  34.511   5.814
 5098POPC   C1A64299   4.429  34.454   6.205
 5098POPC   D2A64300   4.522  34.356   6.658
 5098POPC   C3A64301   4.524  34.655   7.013
 5098POPC   C4A64302   4.351  34.658   7.437
 5098POPC   C1B64303   3.963  34.689   6.238
 5098POPC   C2B64304   4.063  34.659   6.706
 5098POPC   C3B64305   3.903  34.575   7.130
 5098POPC   C4B64306   3.936  34.400   7.555
 5099POPC   NC364307  18.725   3.305   5.495
 5099POPC   PO464308  19.322   3.655   5.337
 5099POPC   GL164309  19.146   3.560   5.732
 5099POPC   GL264310  18.818   3.726   5.810
 5099POPC   C1A64311  19.355   3.430   6.109
 5099POPC   D2A64312  19.449   3.626   6.515
 5099POPC   C3A64313  19.156   3.604   6.825
 5099POPC   C4A64314  19.238   3.225   7.048
 5099POPC   C1B64315  18.829   3.452   6.171
 5099POPC   C2B64316  18.803   3.259   6.595
 5099POPC   C3B64317  18.748   3.344   7.026
 5099POPC   C4B64318  18.853   3.788   7.203
 5100POPC   NC364319  34.935  20.753   5.611
 5100POPC   PO464320  35.546  20.446   5.346
 5100POPC   GL164321  35.308  20.417   5.764
 5100POPC   GL264322  35.385  20.738   5.844
 5100POPC   C1A64323  35.122  20.499   6.206
 5100POPC   D2A64324  35.280  20.434   6.626
 5100POPC   C3A64325  35.226  20.652   7.025
 5100POPC   C4A64326  35.527  20.456   7.285
 5100POPC   C1B64327  35.590  20.673   6.235
 5100POPC   C2B64328  35.546  20.870   6.630
 5100POPC   C3B64329  35.725  20.874   7.018
 5100POPC   C4B64330  35.596  20.933   7.414
 5101POPC   NC364331  33.265  35.119   5.021
 5101POPC   PO464332  32.953  35.528   5.359
 5101POPC   GL164333  33.170  35.369   5.701
 5101POPC   GL264334  33.095  35.028   5.851
 5101POPC   C1A64335  33.171  35.487   6.122
 5101POPC   D2A64336  32.980  35.302   6.471
 5101POPC   C3A64337  33.169  35.428   6.854
 5101POPC   C4A64338  33.401  35.204   7.155
 5101POPC   C1B64339  32.718  34.976   6.117
 5101POPC   C2B64340  32.491  35.049   6.513
 5101POPC   C3B64341  32.760  35.086   6.880
 5101POPC   C4B64342  32.893  35.271   7.250
 5102POPC   NC364343  32.515  16.760   5.124
 5102POPC   PO464344  32.137  17.063   5.541
 5102POPC   GL164345  32.167  16.874   5.935
 5102POPC   GL264346  32.391  16.615   5.852
 5102POPC   C1A64347  32.088  16.502   6.222
 5102POPC   D2A64348  32.217  16.300   6.596
 5102POPC   C3A64349  32.119  16.599   6.900
 5102POPC   C4A64350  31.919  16.863   7.219
 5102POPC   C1B64351  32.581  16.825   6.217
 5102POPC   C2B64352  32.514  16.989   6.621
 5102POPC   C3B64353  32.554  16.835   7.038
 5102POPC   C4B64354  32.312  16.617   7.375
 5103POPC   NC364355  16.024   0.427   5.183
 5103POPC   PO464356  16.550   0.565   5.524
 5103POPC   GL164357  16.717   0.268   5.838
 5103POPC   GL264358  17.059   0.279   5.844
 5103POPC   C1A64359  16.741   0.364   6.260
 5103POPC   D2A64360  16.414   0.562   6.497
 5103POPC   C3A64361  16.595   0.663   6.887
 5103POPC   C4A64362  16.577   0.424   7.268
 5103POPC   C1B64363  17.125   0.025   6.148
 5103POPC   C2B64364  17.098   0.062   6.584
 5103POPC   C3B64365  16.937   0.219   6.961
 5103POPC   C4B64366  17.018   0.227   7.386
 5104POPC   NC364367  21.225  38.398   5.567
 5104POPC   PO464368  21.716  38.759   5.591
 5104POPC   GL164369  21.501  38.575   5.961
 5104POPC   GL264370  21.502  38.192   5.968
 5104POPC   C1A64371  21.266  38.453   6.352
 5104POPC   D2A64372  21.320  38.150   6.705
 5104POPC   C3A64373  21.173  38.297   7.094
 5104POPC   C4A64374  21.276  38.720   7.209
 5104POPC   C1B64375  21.778  38.365   6.326
 5104POPC   C2B64376  21.837  38.505   6.732
 5104POPC   C3B64377  21.684  38.414   7.142
 5104POPC   C4B64378  21.469  38.335   7.544
 5105POPC   NC364379  22.223   6.099   5.254
 5105POPC   PO464380  22.262   6.807   5.349
 5105POPC   GL164381  22.224   6.677   5.759
 5105POPC   GL264382  21.882   6.536   5.816
 5105POPC   C1A64383  22.466   6.582   6.095
 5105POPC   D2A64384  22.490   6.671   6.504
 5105POPC   C3A64385  22.576   6.328   6.786
 5105POPC   C4A64386  22.424   6.368   7.198
 5105POPC   C1B64387  21.976   6.754   6.246
 5105POPC   C2B64388  21.780   6.692   6.679
 5105POPC   C3B64389  21.920   6.647   7.116
 5105POPC   C4B64390  21.828   6.934   7.430
 5106POPC   NC364391  22.571  37.660   5.250
 5106POPC   PO464392  21.944  37.280   5.442
 5106POPC   GL164393  22.223  37.553   5.707
 5106POPC   GL264394  22.096  37.877   5.840
 5106POPC   C1A64395  22.226  37.524   6.181
 5106POPC   D2A64396  21.964  37.452   6.542
 5106POPC   C3A64397  22.127  37.626   6.879
 5106POPC   C4A64398  22.331  37.462   7.193
 5106POPC   C1B64399  21.832  37.862   6.172
 5106POPC   C2B64400  21.738  37.912   6.551
 5106POPC   C3B64401  21.710  37.913   6.948
 5106POPC   C4B64402  21.973  38.002   7.252
 5107POPC   NC364403  20.126  40.281   5.035
 5107POPC   PO464404  20.656  40.004   5.404
 5107POPC   GL164405  20.774  39.988   5.778
 5107POPC   GL264406  20.780  40.341   5.767
 5107POPC   C1A64407  20.516  40.035   6.149
 5107POPC   D2A64408  20.682  40.063   6.551
 5107POPC   C3A64409  20.454  39.929   6.905
 5107POPC   C4A64410  20.832  39.920   7.147
 5107POPC   C1B64411  20.777  40.484   6.164
 5107POPC   C2B64412  20.638  40.569   6.563
 5107POPC   C3B64413  20.661  40.388   6.966
 5107POPC   C4B64414  20.782  40.385   7.387
 5108POPC   NC364415  24.531  41.206   5.448
 5108POPC   PO464416  24.300  41.838   5.326
 5108POPC   GL164417  24.390  41.759   5.798
 5108POPC   GL264418  24.355  41.405   5.887
 5108POPC   C1A64419  24.445  41.716   6.290
 5108POPC   D2A64420  24.278  41.379   6.611
 5108POPC   C3A64421  24.304  41.480   7.047
 5108POPC   C4A64422  24.381  41.681   7.463
 5108POPC   C1B64423  24.638  41.256   6.232
 5108POPC   C2B64424  24.801  41.522   6.595
 5108POPC   C3B64425  24.780  41.672   7.019
 5108POPC   C4B64426  24.732  41.253   7.168
 5109POPC   NC364427  35.921  20.528   5.038
 5109POPC   PO464428  36.417  20.930   5.399
 5109POPC   GL164429  36.210  20.744   5.784
 5109POPC   GL264430  35.876  20.768   5.753
 5109POPC   C1A64431  36.108  20.491   6.187
 5109POPC   D2A64432  35.855  20.392   6.585
 5109POPC   C3A64433  36.101  20.495   6.953
 5109POPC   C4A64434  36.019  20.551   7.382
 5109POPC   C1B64435  35.953  21.003   6.142
 5109POPC   C2B64436  36.048  20.872   6.570
 5109POPC   C3B64437  36.210  21.026   6.975
 5109POPC   C4B64438  36.080  21.064   7.410
 5110POPC   NC364439  17.847  28.192   5.602
 5110POPC   PO464440  18.325  28.506   5.195
 5110POPC   GL164441  18.340  28.402   5.624
 5110POPC   GL264442  18.307  28.722   5.777
 5110POPC   C1A64443  18.479  28.274   6.049
 5110POPC   D2A64444  18.332  28.205   6.471
 5110POPC   C3A64445  18.549  28.319   6.837
 5110POPC   C4A64446  18.367  28.319   7.219
 5110POPC   C1B64447  18.130  28.611   6.206
 5110POPC   C2B64448  17.982  28.562   6.627
 5110POPC   C3B64449  18.194  28.718   6.951
 5110POPC   C4B64450  18.260  28.844   7.350
 5111POPC   NC364451  44.713   5.897   5.272
 5111POPC   PO464452  44.980   6.442   5.506
 5111POPC   GL164453  44.738   6.079   5.752
 5111POPC   GL264454  44.383   6.057   5.663
 5111POPC   C1A64455  44.656   5.730   6.095
 5111POPC   D2A64456  44.548   5.628   6.547
 5111POPC   C3A64457  44.777   5.554   6.917
 5111POPC   C4A64458  44.572   5.712   7.261
 5111POPC   C1B64459  44.389   6.154   6.116
 5111POPC   C2B64460  44.671   6.129   6.474
 5111POPC   C3B64461  44.656   6.059   6.897
 5111POPC   C4B64462  44.806   6.179   7.290
 5112POPC   NC364463  12.355  43.945   5.195
 5112POPC   PO464464  12.980  44.003   5.463
 5112POPC   GL164465  12.950  43.941   5.860
 5112POPC   GL264466  13.240  44.081   5.991
 5112POPC   C1A64467  12.779  43.800   6.235
 5112POPC   D2A64468  12.550  43.710   6.602
 5112POPC   C3A64469  12.728  43.882   6.967
 5112POPC   C4A64470  12.679  43.933   7.376
 5112POPC   C1B64471  13.280  43.682   6.179
 5112POPC   C2B64472  13.120  43.571   6.575
 5112POPC   C3B64473  13.236  43.808   6.930
 5112POPC   C4B64474  13.167  44.082   7.301
 5113POPC   NC364475  34.903   8.108   5.474
 5113POPC   PO464476  34.225   8.338   5.609
 5113POPC   GL164477  34.426   8.096   5.891
 5113POPC   GL264478  34.763   8.219   5.948
 5113POPC   C1A64479  34.461   8.064   6.324
 5113POPC   D2A64480  34.646   7.967   6.715
 5113POPC   C3A64481  34.402   8.061   7.058
 5113POPC   C4A64482  34.433   8.274   7.418
 5113POPC   C1B64483  34.891   7.797   6.153
 5113POPC   C2B64484  34.918   7.569   6.552
 5113POPC   C3B64485  34.866   7.632   7.019
 5113POPC   C4B64486  34.857   8.028   7.261
 5114POPC   NC364487   2.337  28.907   5.477
 5114POPC   PO464488   2.224  29.638   5.531
 5114POPC   GL164489   2.035  29.300   5.806
 5114POPC   GL264490   1.639  29.252   5.853
 5114POPC   C1A64491   2.083  29.159   6.224
 5114POPC   D2A64492   2.301  29.038   6.597
 5114POPC   C3A64493   2.270  29.191   7.020
 5114POPC   C4A64494   2.400  28.859   7.315
 5114POPC   C1B64495   1.652  28.898   6.153
 5114POPC   C2B64496   1.836  28.800   6.560
 5114POPC   C3B64497   2.007  28.761   6.951
 5114POPC   C4B64498   1.876  28.921   7.346
 5115POPC   NC364499  32.460  43.686   5.529
 5115POPC   PO464500  31.975  44.125   5.492
 5115POPC   GL164501  32.213  43.993   5.878
 5115POPC   GL264502  32.182  43.687   5.993
 5115POPC   C1A64503  32.261  44.018   6.345
 5115POPC   D2A64504  31.881  44.014   6.619
 5115POPC   C3A64505  32.016  43.861   7.016
 5115POPC   C4A64506  32.367  44.136   7.095
 5115POPC   C1B64507  32.551  43.541   6.191
 5115POPC   C2B64508  32.774  43.643   6.546
 5115POPC   C3B64509  32.603  43.709   6.930
 5115POPC   C4B64510  32.424  43.690   7.328
 5116POPC   NC364511   9.749  34.223   5.400
 5116POPC   PO464512   9.514  34.888   5.362
 5116POPC   GL164513   9.550  34.681   5.756
 5116POPC   GL264514   9.864  34.609   5.839
 5116POPC   C1A64515   9.562  34.836   6.204
 5116POPC   D2A64516   9.842  34.760   6.557
 5116POPC   C3A64517   9.610  34.588   6.889
 5116POPC   C4A64518   9.598  34.607   7.328
 5116POPC   C1B64519   9.741  34.352   6.201
 5116POPC   C2B64520   9.987  34.253   6.570
 5116POPC   C3B64521   9.970  34.251   6.980
 5116POPC   C4B64522   9.597  34.090   7.202
 5117POPC   NC364523  16.237  42.212   5.524
 5117POPC   PO464524  16.812  42.654   5.495
 5117POPC   GL164525  16.996  42.519   5.899
 5117POPC   GL264526  16.702  42.280   5.938
 5117POPC   C1A64527  17.031  42.305   6.313
 5117POPC   D2A64528  16.722  42.164   6.614
 5117POPC   C3A64529  16.700  42.395   6.989
 5117POPC   C4A64530  16.965  42.723   7.122
 5117POPC   C1B64531  16.434  42.000   6.196
 5117POPC   C2B64532  16.323  41.846   6.605
 5117POPC   C3B64533  16.420  41.975   7.020
 5117POPC   C4B64534  16.328  42.161   7.400
 5118POPC   NC364535   0.168  29.467   4.830
 5118POPC   PO464536   0.330  29.251   5.416
 5118POPC   GL164537   0.517  29.225   5.789
 5118POPC   GL264538   0.370  29.489   5.901
 5118POPC   C1A64539   0.615  29.012   6.158
 5118POPC   D2A64540   0.413  28.939   6.557
 5118POPC   C3A64541   0.520  29.257   6.867
 5118POPC   C4A64542   0.388  28.988   7.170
 5118POPC   C1B64543   0.024  29.472   6.184
 5118POPC   C2B64544   0.074  29.325   6.596
 5118POPC   C3B64545   0.067  29.475   7.033
 5118POPC   C4B64546   0.236  29.383   7.444
 5119POPC   NC364547  40.306  32.490   5.026
 5119POPC   PO464548  39.842  32.196   5.375
 5119POPC   GL164549  39.839  32.360   5.767
 5119POPC   GL264550  39.632  32.063   5.837
 5119POPC   C1A64551  40.139  32.426   6.134
 5119POPC   D2A64552  40.374  32.305   6.499
 5119POPC   C3A64553  40.206  32.434   6.896
 5119POPC   C4A64554  40.001  32.325   7.265
 5119POPC   C1B64555  39.662  32.256   6.219
 5119POPC   C2B64556  39.866  32.197   6.562
 5119POPC   C3B64557  39.665  32.208   6.908
 5119POPC   C4B64558  39.505  32.046   7.259
 5120POPC   NC364559   1.294  14.064   5.405
 5120POPC   PO464560   1.601  13.469   5.430
 5120POPC   GL164561   1.416  13.426   5.807
 5120POPC   GL264562   1.189  13.692   5.802
 5120POPC   C1A64563   1.413  13.614   6.234
 5120POPC   D2A64564   1.148  13.637   6.562
 5120POPC   C3A64565   1.283  13.850   6.880
 5120POPC   C4A64566   1.438  13.631   7.203
 5120POPC   C1B64567   0.935  13.427   6.135
 5120POPC   C2B64568   0.685  13.407   6.549
 5120POPC   C3B64569   0.840  13.580   6.973
 5120POPC   C4B64570   0.963  13.745   7.392
 5121POPC   NC364571   1.138   8.577   5.458
 5121POPC   PO464572   1.543   7.975   5.508
 5121POPC   GL164573   1.368   8.112   5.881
 5121POPC   GL264574   1.319   8.457   5.907
 5121POPC   C1A64575   1.333   8.132   6.329
 5121POPC   D2A64576   1.051   7.926   6.592
 5121POPC   C3A64577   1.096   8.028   7.027
 5121POPC   C4A64578   0.927   7.827   7.395
 5121POPC   C1B64579   1.546   8.583   6.236
 5121POPC   C2B64580   1.653   8.533   6.648
 5121POPC   C3B64581   1.427   8.435   6.993
 5121POPC   C4B64582   1.093   8.521   7.217
 5122POPC   NC364583  34.627  36.616   5.135
 5122POPC   PO464584  34.820  37.008   5.681
 5122POPC   GL164585  34.837  36.916   6.050
 5122POPC   GL264586  34.462  36.852   6.030
 5122POPC   C1A64587  34.735  36.926   6.482
 5122POPC   D2A64588  34.325  36.799   6.581
 5122POPC   C3A64589  34.362  36.883   6.976
 5122POPC   C4A64590  34.274  36.772   7.353
 5122POPC   C1B64591  34.607  36.496   6.264
 5122POPC   C2B64592  34.909  36.414   6.565
 5122POPC   C3B64593  34.769  36.546   6.927
 5122POPC   C4B64594  34.783  36.806   7.264
 5123POPC   NC364595   6.113  10.858   5.414
 5123POPC   PO464596   5.776  10.284   5.348
 5123POPC   GL164597   5.905  10.392   5.787
 5123POPC   GL264598   6.037  10.713   5.893
 5123POPC   C1A64599   5.792  10.381   6.228
 5123POPC   D2A64600   5.916  10.461   6.639
 5123POPC   C3A64601   5.625  10.578   6.951
 5123POPC   C4A64602   5.875  10.421   7.256
 5123POPC   C1B64603   5.988  10.910   6.293
 5123POPC   C2B64604   5.806  10.970   6.668
 5123POPC   C3B64605   6.061  10.934   7.026
 5123POPC   C4B64606   6.051  10.831   7.480
 5124POPC   NC364607  42.733  17.486   5.355
 5124POPC   PO464608  43.425  17.480   5.475
 5124POPC   GL164609  43.056  17.439   5.742
 5124POPC   GL264610  42.957  17.117   5.684
 5124POPC   C1A64611  42.879  17.503   6.156
 5124POPC   D2A64612  43.050  17.767   6.496
 5124POPC   C3A64613  43.098  17.617   6.920
 5124POPC   C4A64614  43.199  17.787   7.321
 5124POPC   C1B64615  43.217  17.093   6.097
 5124POPC   C2B64616  43.129  17.246   6.527
 5124POPC   C3B64617  43.078  17.080   6.938
 5124POPC   C4B64618  43.087  17.276   7.350
 5125POPC   NC364619  21.136  40.037   5.367
 5125POPC   PO464620  21.763  40.307   5.184
 5125POPC   GL164621  21.590  40.132   5.655
 5125POPC   GL264622  21.269  40.178   5.833
 5125POPC   C1A64623  21.560  39.893   6.133
 5125POPC   D2A64624  21.489  40.021   6.618
 5125POPC   C3A64625  21.283  39.777   6.969
 5125POPC   C4A64626  21.351  39.625   7.407
 5125POPC   C1B64627  21.249  40.312   6.259
 5125POPC   C2B64628  21.116  40.404   6.681
 5125POPC   C3B64629  21.205  40.290   7.101
 5125POPC   C4B64630  21.200  40.085   7.488
 5126POPC   NC364631  27.934   6.370   5.576
 5126POPC   PO464632  28.475   6.561   5.264
 5126POPC   GL164633  28.496   6.663   5.715
 5126POPC   GL264634  28.361   6.397   5.873
 5126POPC   C1A64635  28.533   6.754   6.191
 5126POPC   D2A64636  28.396   6.971   6.582
 5126POPC   C3A64637  28.589   6.900   6.960
 5126POPC   C4A64638  28.500   6.659   7.337
 5126POPC   C1B64639  28.167   6.366   6.247
 5126POPC   C2B64640  28.106   6.543   6.648
 5126POPC   C3B64641  28.210   6.356   7.040
 5126POPC   C4B64642  27.896   6.250   7.316
 5127POPC   NC364643  29.738  37.593   5.423
 5127POPC   PO464644  30.219  38.073   5.371
 5127POPC   GL164645  30.108  37.756   5.743
 5127POPC   GL264646  29.755  37.755   5.898
 5127POPC   C1A64647  30.224  37.519   6.131
 5127POPC   D2A64648  30.336  37.722   6.511
 5127POPC   C3A64649  30.413  37.566   6.914
 5127POPC   C4A64650  30.254  37.797   7.225
 5127POPC   C1B64651  29.767  37.651   6.328
 5127POPC   C2B64652  29.895  37.433   6.678
 5127POPC   C3B64653  29.699  37.552   7.072
 5127POPC   C4B64654  29.727  37.849   7.412
 5128POPC   NC364655   5.254  15.331   5.398
 5128POPC   PO464656   4.828  14.994   5.678
 5128POPC   GL164657   5.048  15.056   5.982
 5128POPC   GL264658   5.357  14.985   5.790
 5128POPC   C1A64659   4.973  15.402   6.247
 5128POPC   D2A64660   4.994  15.664   6.564
 5128POPC   C3A64661   4.906  15.340   6.832
 5128POPC   C4A64662   4.714  15.387   7.221
 5128POPC   C1B64663   5.494  15.258   6.137
 5128POPC   C2B64664   5.448  15.400   6.545
 5128POPC   C3B64665   5.418  15.158   6.902
 5128POPC   C4B64666   5.166  15.152   7.226
 5129POPC   NC364667  33.887   9.393   5.501
 5129POPC   PO464668  33.397   9.781   5.211
 5129POPC   GL164669  33.640   9.827   5.661
 5129POPC   GL264670  33.995   9.790   5.827
 5129POPC   C1A64671  33.590   9.856   6.133
 5129POPC   D2A64672  33.798   9.858   6.529
 5129POPC   C3A64673  33.517   9.794   6.866
 5129POPC   C4A64674  33.657   9.927   7.247
 5129POPC   C1B64675  33.884   9.427   6.145
 5129POPC   C2B64676  33.833   9.330   6.582
 5129POPC   C3B64677  33.973   9.557   6.975
 5129POPC   C4B64678  33.859   9.452   7.389
 5130POPC   NC364679   3.614  37.100   5.359
 5130POPC   PO464680   3.485  36.451   5.568
 5130POPC   GL164681   3.433  36.774   5.864
 5130POPC   GL264682   3.669  37.023   5.868
 5130POPC   C1A64683   3.525  36.845   6.329
 5130POPC   D2A64684   3.814  36.754   6.683
 5130POPC   C3A64685   3.595  36.746   7.083
 5130POPC   C4A64686   3.283  36.918   7.387
 5130POPC   C1B64687   3.814  37.274   6.221
 5130POPC   C2B64688   3.982  37.238   6.656
 5130POPC   C3B64689   3.771  37.278   7.058
 5130POPC   C4B64690   3.770  37.046   7.448
 5131POPC   NC364691  33.634  21.349   5.062
 5131POPC   PO464692  34.128  21.099   5.458
 5131POPC   GL164693  34.010  21.323   5.825
 5131POPC   GL264694  33.662  21.438   5.722
 5131POPC   C1A64695  34.013  21.261   6.294
 5131POPC   D2A64696  33.837  20.967   6.627
 5131POPC   C3A64697  33.562  21.087   6.987
 5131POPC   C4A64698  33.762  21.231   7.339
 5131POPC   C1B64699  33.559  21.526   6.157
 5131POPC   C2B64700  33.576  21.448   6.617
 5131POPC   C3B64701  33.692  21.623   7.047
 5131POPC   C4B64702  33.556  21.775   7.490
 5132POPC   NC364703  40.723  36.348   5.288
 5132POPC   PO464704  40.630  36.981   5.358
 5132POPC   GL164705  40.552  36.955   5.791
 5132POPC   GL264706  40.733  37.240   5.866
 5132POPC   C1A64707  40.499  36.890   6.244
 5132POPC   D2A64708  40.473  36.574   6.583
 5132POPC   C3A64709  40.432  36.699   7.029
 5132POPC   C4A64710  40.720  36.605   7.369
 5132POPC   C1B64711  41.009  36.954   6.121
 5132POPC   C2B64712  41.050  36.821   6.562
 5132POPC   C3B64713  40.899  36.908   6.978
 5132POPC   C4B64714  41.112  36.941   7.378
 5133POPC   NC364715  14.639  11.706   5.052
 5133POPC   PO464716  14.302  11.244   5.387
 5133POPC   GL164717  14.140  11.239   5.805
 5133POPC   GL264718  14.383  11.065   6.001
 5133POPC   C1A64719  14.158  11.462   6.218
 5133POPC   D2A64720  14.265  11.390   6.653
 5133POPC   C3A64721  13.988  11.622   6.940
 5133POPC   C4A64722  14.056  11.793   7.347
 5133POPC   C1B64723  14.668  11.251   6.299
 5133POPC   C2B64724  14.891  11.218   6.682
 5133POPC   C3B64725  14.688  11.152   7.024
 5133POPC   C4B64726  14.396  11.413   7.156
 5134POPC   NC364727  11.527  31.684   5.355
 5134POPC   PO464728  10.973  31.302   5.260
 5134POPC   GL164729  11.248  31.339   5.612
 5134POPC   GL264730  11.202  31.704   5.749
 5134POPC   C1A64731  11.300  31.280   6.050
 5134POPC   D2A64732  11.223  31.170   6.500
 5134POPC   C3A64733  11.492  31.303   6.855
 5134POPC   C4A64734  11.522  31.368   7.271
 5134POPC   C1B64735  11.366  31.778   6.192
 5134POPC   C2B64736  11.267  31.694   6.631
 5134POPC   C3B64737  11.387  31.813   7.090
 5134POPC   C4B64738  11.362  31.786   7.553
 5135POPC   NC364739  30.064  38.420   5.102
 5135POPC   PO464740  30.614  38.634   5.362
 5135POPC   GL164741  30.643  38.696   5.760
 5135POPC   GL264742  30.434  38.381   5.795
 5135POPC   C1A64743  30.458  38.820   6.137
 5135POPC   D2A64744  30.582  39.003   6.503
 5135POPC   C3A64745  30.523  38.749   6.843
 5135POPC   C4A64746  30.793  38.773   7.168
 5135POPC   C1B64747  30.747  38.354   6.115
 5135POPC   C2B64748  30.690  38.323   6.535
 5135POPC   C3B64749  30.537  38.093   6.860
 5135POPC   C4B64750  30.507  38.328   7.223
 5136POPC   NC364751   0.871   4.637   5.399
 5136POPC   PO464752   1.048   5.322   5.260
 5136POPC   GL164753   1.124   5.044   5.640
 5136POPC   GL264754   0.921   5.232   5.878
 5136POPC   C1A64755   1.134   4.793   6.068
 5136POPC   D2A64756   0.951   4.993   6.468
 5136POPC   C3A64757   1.108   4.932   6.903
 5136POPC   C4A64758   0.945   4.912   7.334
 5136POPC   C1B64759   1.291   5.271   6.122
 5136POPC   C2B64760   1.295   5.421   6.513
 5136POPC   C3B64761   1.431   5.321   6.904
 5136POPC   C4B64762   1.138   5.373   7.216
 5137POPC   NC364763  34.818  26.474   5.256
 5137POPC   PO464764  34.621  27.082   5.124
 5137POPC   GL164765  34.665  26.903   5.557
 5137POPC   GL264766  34.642  27.198   5.787
 5137POPC   C1A64767  34.658  26.743   6.019
 5137POPC   D2A64768  34.770  26.974   6.434
 5137POPC   C3A64769  34.528  26.873   6.825
 5137POPC   C4A64770  34.585  26.673   7.212
 5137POPC   C1B64771  34.264  27.057   5.988
 5137POPC   C2B64772  34.267  26.997   6.381
 5137POPC   C3B64773  34.272  27.287   6.697
 5137POPC   C4B64774  34.198  27.215   7.129
 5138POPC   NC364775  13.881  43.367   5.461
 5138POPC   PO464776  13.283  43.050   5.442
 5138POPC   GL164777  13.607  43.036   5.764
 5138POPC   GL264778  13.512  43.363   5.837
 5138POPC   C1A64779  13.864  43.166   6.154
 5138POPC   D2A64780  13.775  42.992   6.554
 5138POPC   C3A64781  13.791  43.139   6.961
 5138POPC   C4A64782  13.936  43.035   7.362
 5138POPC   C1B64783  13.360  43.174   6.207
 5138POPC   C2B64784  13.241  43.073   6.591
 5138POPC   C3B64785  13.298  43.249   6.985
 5138POPC   C4B64786  13.443  43.032   7.339
 5139POPC   NC364787  17.095  17.567   5.382
 5139POPC   PO464788  17.590  17.131   5.168
 5139POPC   GL164789  17.481  17.338   5.671
 5139POPC   GL264790  17.737  17.227   6.025
 5139POPC   C1A64791  17.568  17.685   6.002
 5139POPC   D2A64792  17.621  17.530   6.440
 5139POPC   C3A64793  17.661  17.799   6.790
 5139POPC   C4A64794  17.583  17.619   7.212
 5139POPC   C1B64795  17.342  17.190   6.163
 5139POPC   C2B64796  17.217  17.052   6.541
 5139POPC   C3B64797  17.166  17.254   6.902
 5139POPC   C4B64798  17.374  17.168   7.278
 5140POPC   NC364799  24.099  36.260   5.649
 5140POPC   PO464800  24.513  35.865   5.201
 5140POPC   GL164801  24.500  35.941   5.699
 5140POPC   GL264802  24.198  35.810   5.882
 5140POPC   C1A64803  24.478  36.135   6.181
 5140POPC   D2A64804  24.639  36.162   6.625
 5140POPC   C3A64805  24.478  36.298   7.029
 5140POPC   C4A64806  24.237  36.319   7.449
 5140POPC   C1B64807  24.200  35.752   6.342
 5140POPC   C2B64808  24.134  35.989   6.691
 5140POPC   C3B64809  24.100  35.951   7.112
 5140POPC   C4B64810  24.282  35.646   7.362
 5141POPC   NC364811  25.202   1.521   5.452
 5141POPC   PO464812  25.064   0.907   5.400
 5141POPC   GL164813  25.231   1.018   5.818
 5141POPC   GL264814  25.337   1.359   5.917
 5141POPC   C1A64815  25.269   0.939   6.274
 5141POPC   D2A64816  25.423   0.680   6.655
 5141POPC   C3A64817  25.180   0.837   6.965
 5141POPC   C4A64818  25.372   1.148   7.209
 5141POPC   C1B64819  25.229   1.613   6.300
 5141POPC   C2B64820  25.090   1.641   6.732
 5141POPC   C3B64821  25.239   1.618   7.159
 5141POPC   C4B64822  25.439   1.536   7.573
 5142POPC   NC364823  41.748  33.375   5.436
 5142POPC   PO464824  41.398  32.771   5.370
 5142POPC   GL164825  41.512  32.791   5.804
 5142POPC   GL264826  41.567  33.103   5.804
 5142POPC   C1A64827  41.515  32.780   6.246
 5142POPC   D2A64828  41.402  32.540   6.613
 5142POPC   C3A64829  41.547  32.788   6.962
 5142POPC   C4A64830  41.924  32.962   7.157
 5142POPC   C1B64831  41.742  33.265   6.147
 5142POPC   C2B64832  41.579  33.237   6.544
 5142POPC   C3B64833  41.613  33.315   6.953
 5142POPC   C4B64834  41.379  33.381   7.301
 5143POPC   NC364835  44.601  28.117   5.370
 5143POPC   PO464836  44.986  28.670   5.594
 5143POPC   GL164837  44.730  28.455   5.821
 5143POPC   GL264838  44.792  28.116   5.841
 5143POPC   C1A64839  44.535  28.519   6.211
 5143POPC   D2A64840  44.663  28.385   6.609
 5143POPC   C3A64841  44.482  28.538   6.965
 5143POPC   C4A64842  44.687  28.604   7.335
 5143POPC   C1B64843  44.651  28.019   6.246
 5143POPC   C2B64844  44.451  27.927   6.644
 5143POPC   C3B64845  44.566  28.036   7.035
 5143POPC   C4B64846  44.360  28.224   7.400
 5144POPC   NC364847   9.732  24.756   5.451
 5144POPC   PO464848   9.977  24.151   5.399
 5144POPC   GL164849   9.679  24.250   5.811
 5144POPC   GL264850   9.763  24.600   5.921
 5144POPC   C1A64851   9.599  24.374   6.318
 5144POPC   D2A64852   9.887  24.305   6.679
 5144POPC   C3A64853   9.749  24.331   7.126
 5144POPC   C4A64854   9.932  24.165   7.514
 5144POPC   C1B64855   9.770  24.880   6.292
 5144POPC   C2B64856   9.839  24.824   6.745
 5144POPC   C3B64857  10.016  24.781   7.156
 5144POPC   C4B64858   9.812  24.678   7.541
 5145POPC   NC364859  29.941  10.798   5.306
 5145POPC   PO464860  30.377  10.243   5.313
 5145POPC   GL164861  30.239  10.539   5.656
 5145POPC   GL264862  29.893  10.489   5.711
 5145POPC   C1A64863  30.227  10.675   6.109
 5145POPC   D2A64864  30.064  10.490   6.496
 5145POPC   C3A64865  30.222  10.539   6.901
 5145POPC   C4A64866  30.367  10.493   7.290
 5145POPC   C1B64867  29.746  10.408   6.113
 5145POPC   C2B64868  29.562  10.641   6.465
 5145POPC   C3B64869  29.630  10.613   6.873
 5145POPC   C4B64870  29.555  10.803   7.273
 5146POPC   NC364871  35.385  17.522   5.316
 5146POPC   PO464872  34.964  17.845   5.651
 5146POPC   GL164873  35.246  17.457   5.801
 5146POPC   GL264874  35.150  17.143   5.804
 5146POPC   C1A64875  35.460  17.262   6.195
 5146POPC   D2A64876  35.521  17.480   6.623
 5146POPC   C3A64877  35.478  17.299   7.036
 5146POPC   C4A64878  35.517  17.367   7.498
 5146POPC   C1B64879  34.971  17.092   6.212
 5146POPC   C2B64880  35.047  17.234   6.619
 5146POPC   C3B64881  34.978  17.211   7.027
 5146POPC   C4B64882  35.056  17.492   7.355
 5147POPC   NC364883   4.747  43.314   5.407
 5147POPC   PO464884   4.381  42.787   5.514
 5147POPC   GL164885   4.496  43.087   5.790
 5147POPC   GL264886   4.773  42.910   5.902
 5147POPC   C1A64887   4.508  43.278   6.187
 5147POPC   D2A64888   4.555  43.107   6.609
 5147POPC   C3A64889   4.186  43.217   6.845
 5147POPC   C4A64890   4.317  43.363   7.202
 5147POPC   C1B64891   4.490  42.741   6.223
 5147POPC   C2B64892   4.345  42.618   6.627
 5147POPC   C3B64893   4.399  42.803   7.051
 5147POPC   C4B64894   4.364  42.670   7.468
 5148POPC   NC364895  23.867   9.837   5.368
 5148POPC   PO464896  23.385  10.033   5.724
 5148POPC   GL164897  23.797   9.891   5.887
 5148POPC   GL264898  23.928   9.563   5.856
 5148POPC   C1A64899  23.885   9.854   6.325
 5148POPC   D2A64900  23.839  10.068   6.731
 5148POPC   C3A64901  23.447   9.910   6.955
 5148POPC   C4A64902  23.526   9.790   7.392
 5148POPC   C1B64903  24.069   9.381   6.252
 5148POPC   C2B64904  23.843   9.439   6.651
 5148POPC   C3B64905  23.888   9.658   7.049
 5148POPC   C4B64906  23.986   9.534   7.450
 5149POPC   NC364907   8.189  24.174   5.356
 5149POPC   PO464908   8.526  24.749   5.506
 5149POPC   GL164909   8.322  24.485   5.765
 5149POPC   GL264910   8.493  24.173   5.792
 5149POPC   C1A64911   8.206  24.554   6.174
 5149POPC   D2A64912   8.305  24.843   6.488
 5149POPC   C3A64913   8.141  24.707   6.863
 5149POPC   C4A64914   8.254  24.813   7.249
 5149POPC   C1B64915   8.591  24.207   6.215
 5149POPC   C2B64916   8.445  24.355   6.611
 5149POPC   C3B64917   8.405  24.294   7.053
 5149POPC   C4B64918   8.037  24.334   7.254
 5150POPC   NC364919  27.279  16.077   5.476
 5150POPC   PO464920  26.582  15.866   5.513
 5150POPC   GL164921  26.893  15.824   5.828
 5150POPC   GL264922  26.980  16.165   5.866
 5150POPC   C1A64923  26.804  15.897   6.272
 5150POPC   D2A64924  26.593  16.024   6.638
 5150POPC   C3A64925  26.780  15.887   7.000
 5150POPC   C4A64926  26.698  16.136   7.343
 5150POPC   C1B64927  27.236  16.178   6.219
 5150POPC   C2B64928  27.069  16.227   6.636
 5150POPC   C3B64929  27.182  16.204   7.075
 5150POPC   C4B64930  27.170  15.894   7.413
 5151POPC   NC364931  34.770  40.083   5.432
 5151POPC   PO464932  34.824  39.473   5.273
 5151POPC   GL164933  34.761  39.646   5.725
 5151POPC   GL264934  34.437  39.757   5.840
 5151POPC   C1A64935  34.829  39.975   6.084
 5151POPC   D2A64936  34.495  40.102   6.362
 5151POPC   C3A64937  34.702  40.237   6.735
 5151POPC   C4A64938  34.707  40.262   7.150
 5151POPC   C1B64939  34.611  39.561   6.246
 5151POPC   C2B64940  34.661  39.724   6.677
 5151POPC   C3B64941  34.407  39.848   7.013
 5151POPC   C4B64942  34.520  39.872   7.448
 5152POPC   NC364943   8.960  12.434   5.368
 5152POPC   PO464944   9.350  11.900   5.539
 5152POPC   GL164945   8.996  11.909   5.790
 5152POPC   GL264946   9.010  12.248   5.859
 5152POPC   C1A64947   8.911  11.894   6.237
 5152POPC   D2A64948   9.047  12.122   6.584
 5152POPC   C3A64949   8.869  12.177   7.002
 5152POPC   C4A64950   8.795  11.832   7.268
 5152POPC   C1B64951   8.801  12.427   6.229
 5152POPC   C2B64952   8.979  12.613   6.621
 5152POPC   C3B64953   9.303  12.461   6.901
 5152POPC   C4B64954   9.370  12.084   7.189
 5153POPC   NC364955  12.930  21.897   5.573
 5153POPC   PO464956  12.687  21.282   5.633
 5153POPC   GL164957  12.665  21.505   5.978
 5153POPC   GL264958  13.022  21.544   5.947
 5153POPC   C1A64959  12.756  21.464   6.413
 5153POPC   D2A64960  13.143  21.320   6.585
 5153POPC   C3A64961  13.071  21.171   7.035
 5153POPC   C4A64962  12.641  21.315   7.178
 5153POPC   C1B64963  12.971  21.877   6.236
 5153POPC   C2B64964  12.957  22.016   6.659
 5153POPC   C3B64965  13.031  21.676   6.964
 5153POPC   C4B64966  12.950  21.666   7.435
 5154POPC   NC364967  32.429   9.360   5.621
 5154POPC   PO464968  32.099   8.787   5.496
 5154POPC   GL164969  32.076   8.987   5.861
 5154POPC   GL264970  32.437   8.928   5.902
 5154POPC   C1A64971  32.094   9.157   6.268
 5154POPC   D2A64972  32.305   9.113   6.656
 5154POPC   C3A64973  32.053   9.078   7.001
 5154POPC   C4A64974  32.188   9.127   7.423
 5154POPC   C1B64975  32.500   8.786   6.302
 5154POPC   C2B64976  32.531   8.615   6.704
 5154POPC   C3B64977  32.434   8.752   7.100
 5154POPC   C4B64978  32.442   8.711   7.533
 5155POPC   NC364979  16.107  37.338   5.517
 5155POPC   PO464980  15.974  36.628   5.588
 5155POPC   GL164981  15.978  36.988   5.854
 5155POPC   GL264982  15.676  37.123   5.952
 5155POPC   C1A64983  16.082  37.190   6.231
 5155POPC   D2A64984  16.051  36.957   6.576
 5155POPC   C3A64985  16.219  37.060   6.939
 5155POPC   C4A64986  16.161  37.165   7.341
 5155POPC   C1B64987  15.639  36.817   6.259
 5155POPC   C2B64988  15.627  36.722   6.687
 5155POPC   C3B64989  15.951  36.582   6.948
 5155POPC   C4B64990  15.894  36.742   7.325
 5156POPC   NC364991  11.420  10.319   5.296
 5156POPC   PO464992  11.716   9.712   5.399
 5156POPC   GL164993  11.395   9.894   5.682
 5156POPC   GL264994  11.544  10.210   5.760
 5156POPC   C1A64995  11.251   9.835   6.144
 5156POPC   D2A64996  11.405   9.647   6.569
 5156POPC   C3A64997  11.193   9.693   6.979
 5156POPC   C4A64998  11.280   9.509   7.391
 5156POPC   C1B64999  11.545  10.255   6.170
 5156POPC   C2B65000  11.375  10.178   6.555
 5156POPC   C3B65001  11.617  10.054   6.907
 5156POPC   C4B65002  11.499   9.982   7.323
 5157POPC   NC365003  12.118  23.215   5.331
 5157POPC   PO465004  11.896  22.589   5.431
 5157POPC   GL165005  12.095  22.730   5.831
 5157POPC   GL265006  12.096  23.082   5.823
 5157POPC   C1A65007  12.271  22.739   6.227
 5157POPC   D2A65008  12.049  22.871   6.576
 5157POPC   C3A65009  12.288  22.799   6.890
 5157POPC   C4A65010  12.152  22.525   7.157
 5157POPC   C1B65011  12.179  23.250   6.221
 5157POPC   C2B65012  12.086  23.384   6.636
 5157POPC   C3B65013  11.984  23.187   7.027
 5157POPC   C4B65014  12.210  23.005   7.384
 5158POPC   NC365015  43.595  14.494   5.665
 5158POPC   PO465016  44.274  14.379   5.432
 5158POPC   GL165017  44.043  14.252   5.775
 5158POPC   GL265018  44.029  14.601   5.889
 5158POPC   C1A65019  43.941  14.153   6.199
 5158POPC   D2A65020  43.812  14.180   6.624
 5158POPC   C3A65021  44.026  14.098   6.986
 5158POPC   C4A65022  43.967  14.167   7.437
 5158POPC   C1B65023  43.790  14.636   6.296
 5158POPC   C2B65024  43.491  14.614   6.636
 5158POPC   C3B65025  43.696  14.545   6.991
 5158POPC   C4B65026  44.007  14.797   7.191
 5159POPC   NC365027   1.518  39.467   5.205
 5159POPC   PO465028   1.993  39.140   5.593
 5159POPC   GL165029   1.997  39.434   5.902
 5159POPC   GL265030   1.689  39.429   5.929
 5159POPC   C1A65031   2.211  39.491   6.283
 5159POPC   D2A65032   2.147  39.283   6.659
 5159POPC   C3A65033   1.935  39.383   6.999
 5159POPC   C4A65034   2.146  39.211   7.308
 5159POPC   C1B65035   1.882  39.079   6.246
 5159POPC   C2B65036   1.697  39.015   6.679
 5159POPC   C3B65037   1.814  38.882   7.080
 5159POPC   C4B65038   1.761  38.952   7.510
 5160POPC   NC365039  44.826   1.692   5.581
 5160POPC   PO465040  44.898   2.331   5.362
 5160POPC   GL165041  44.805   2.183   5.764
 5160POPC   GL265042  44.434   2.147   5.824
 5160POPC   C1A65043  44.817   2.027   6.167
 5160POPC   D2A65044  44.535   2.058   6.493
 5160POPC   C3A65045  44.802   1.985   6.816
 5160POPC   C4A65046  44.774   1.973   7.241
 5160POPC   C1B65047  44.359   1.766   6.092
 5160POPC   C2B65048  44.199   1.590   6.484
 5160POPC   C3B65049  44.303   1.779   6.897
 5160POPC   C4B65050  44.379   1.606   7.304
 5161POPC   NC365051  11.039   7.946   5.330
 5161POPC   PO465052  11.582   8.313   5.316
 5161POPC   GL165053  11.359   8.157   5.706
 5161POPC   GL265054  11.335   7.794   5.741
 5161POPC   C1A65055  11.333   8.266   6.146
 5161POPC   D2A65056  11.292   8.072   6.585
 5161POPC   C3A65057  11.208   8.228   7.019
 5161POPC   C4A65058  11.508   8.132   7.336
 5161POPC   C1B65059  11.100   7.828   6.139
 5161POPC   C2B65060  10.971   7.683   6.549
 5161POPC   C3B65061  11.180   7.702   6.934
 5161POPC   C4B65062  11.230   7.704   7.350
 5162POPC   NC365063  14.050  12.424   5.027
 5162POPC   PO465064  14.636  12.147   5.229
 5162POPC   GL165065  14.484  11.978   5.685
 5162POPC   GL265066  14.533  11.606   5.679
 5162POPC   C1A65067  14.329  11.977   6.149
 5162POPC   D2A65068  14.473  12.203   6.524
 5162POPC   C3A65069  14.356  12.023   6.938
 5162POPC   C4A65070  14.362  12.248   7.322
 5162POPC   C1B65071  14.740  11.694   6.077
 5162POPC   C2B65072  14.644  11.721   6.520
 5162POPC   C3B65073  14.785  11.735   6.938
 5162POPC   C4B65074  14.626  11.793   7.378
 5163POPC   NC365075   7.882  34.078   5.614
 5163POPC   PO465076   8.475  33.707   5.395
 5163POPC   GL165077   8.317  33.829   5.774
 5163POPC   GL265078   8.393  34.176   5.749
 5163POPC   C1A65079   8.173  33.816   6.212
 5163POPC   D2A65080   7.976  33.949   6.608
 5163POPC   C3A65081   8.203  33.765   6.933
 5163POPC   C4A65082   8.092  33.570   7.300
 5163POPC   C1B65083   8.612  34.081   6.138
 5163POPC   C2B65084   8.548  33.951   6.573
 5163POPC   C3B65085   8.617  34.056   7.007
 5163POPC   C4B65086   8.278  34.066   7.329
 5164POPC   NC365087   5.056  18.586   5.573
 5164POPC   PO465088   5.499  19.185   5.507
 5164POPC   GL165089   5.057  19.147   5.704
 5164POPC   GL265090   4.876  18.888   5.955
 5164POPC   C1A65091   4.959  19.387   6.085
 5164POPC   D2A65092   4.941  19.174   6.476
 5164POPC   C3A65093   4.994  19.330   6.875
 5164POPC   C4A65094   4.874  19.209   7.262
 5164POPC   C1B65095   5.218  18.792   6.212
 5164POPC   C2B65096   5.257  18.804   6.649
 5164POPC   C3B65097   4.992  18.762   7.021
 5164POPC   C4B65098   5.155  18.424   7.320
 5165POPC   NC365099   9.957   0.565   5.388
 5165POPC   PO465100   9.458   0.203   5.497
 5165POPC   GL165101   9.530   0.432   5.819
 5165POPC   GL265102   9.838   0.300   5.881
 5165POPC   C1A65103   9.573   0.531   6.265
 5165POPC   D2A65104   9.644   0.812   6.593
 5165POPC   C3A65105   9.823   0.677   6.967
 5165POPC   C4A65106  10.032   0.384   7.143
 5165POPC   C1B65107   9.760   0.064   6.260
 5165POPC   C2B65108   9.861   0.097   6.700
 5165POPC   C3B65109   9.589   0.161   7.041
 5165POPC   C4B65110   9.253  44.991   7.230
 5166POPC   NC365111   0.123  21.403   5.323
 5166POPC   PO465112   0.759  21.599   5.387
 5166POPC   GL165113   0.451  21.480   5.727
 5166POPC   GL265114   0.143  21.699   5.752
 5166POPC   C1A65115   0.600  21.322   6.144
 5166POPC   D2A65116   0.714  21.127   6.544
 5166POPC   C3A65117   0.618  21.401   6.884
 5166POPC   C4A65118   0.568  21.293   7.288
 5166POPC   C1B65119   0.119  21.519   6.170
 5166POPC   C2B65120   0.208  21.205   6.503
 5166POPC   C3B65121   0.171  21.113   6.943
 5166POPC   C4B65122   0.047  21.426   7.246
 5167POPC   NC365123  24.426  15.697   5.445
 5167POPC   PO465124  24.845  16.195   5.471
 5167POPC   GL165125  24.608  16.112   5.861
 5167POPC   GL265126  24.248  16.014   5.817
 5167POPC   C1A65127  24.620  15.844   6.250
 5167POPC   D2A65128  24.624  15.575   6.634
 5167POPC   C3A65129  24.771  15.775   7.032
 5167POPC   C4A65130  24.825  16.234   7.152
 5167POPC   C1B65131  24.107  15.780   6.205
 5167POPC   C2B65132  24.098  15.657   6.668
 5167POPC   C3B65133  24.208  15.836   7.071
 5167POPC   C4B65134  24.198  16.271   7.212
 5168POPC   NC365135  11.712   2.742   5.484
 5168POPC   PO465136  11.042   2.483   5.614
 5168POPC   GL165137  11.036   2.721   5.955
 5168POPC   GL265138  11.413   2.772   5.937
 5168POPC   C1A65139  11.117   2.955   6.345
 5168POPC   D2A65140  11.436   2.750   6.617
 5168POPC   C3A65141  11.267   2.682   7.034
 5168POPC   C4A65142  11.004   3.008   7.223
 5168POPC   C1B65143  11.614   3.076   6.224
 5168POPC   C2B65144  11.593   3.234   6.685
 5168POPC   C3B65145  11.549   3.101   7.163
 5168POPC   C4B65146  11.664   3.116   7.635
 5169POPC   NC365147  38.278  20.482   5.472
 5169POPC   PO465148  38.586  20.982   5.305
 5169POPC   GL165149  38.499  20.865   5.808
 5169POPC   GL265150  38.262  20.584   5.967
 5169POPC   C1A65151  38.562  20.783   6.308
 5169POPC   D2A65152  38.416  20.405   6.552
 5169POPC   C3A65153  38.157  20.454   6.897
 5169POPC   C4A65154  38.280  20.765   7.155
 5169POPC   C1B65155  38.659  20.298   6.113
 5169POPC   C2B65156  38.689  19.982   6.488
 5169POPC   C3B65157  38.822  20.048   6.901
 5169POPC   C4B65158  38.671  20.465   7.011
 5170POPC   NC365159  10.543   4.784   5.566
 5170POPC   PO465160  10.836   5.463   5.536
 5170POPC   GL165161  10.638   5.384   5.913
 5170POPC   GL265162  10.496   5.046   5.978
 5170POPC   C1A65163  10.389   5.434   6.263
 5170POPC   D2A65164  10.397   5.065   6.542
 5170POPC   C3A65165  10.489   5.172   6.963
 5170POPC   C4A65166  10.361   5.371   7.336
 5170POPC   C1B65167  10.733   4.741   6.206
 5170POPC   C2B65168  10.852   4.848   6.621
 5170POPC   C3B65169  10.748   4.734   7.037
 5170POPC   C4B65170  10.509   4.890   7.398
 5171POPC   NC365171   2.117   0.711   5.573
 5171POPC   PO465172   1.800   0.304   5.132
 5171POPC   GL165173   1.792   0.271   5.668
 5171POPC   GL265174   1.583   0.185   5.969
 5171POPC   C1A65175   1.992   0.404   6.125
 5171POPC   D2A65176   1.955   0.259   6.578
 5171POPC   C3A65177   2.023   0.544   6.935
 5171POPC   C4A65178   2.392   0.566   7.230
 5171POPC   C1B65179   1.556   0.529   6.335
 5171POPC   C2B65180   1.447   0.485   6.783
 5171POPC   C3B65181   1.581   0.479   7.222
 5171POPC   C4B65182   1.632   0.333   7.667
 5172POPC   NC365183  21.404   6.159   5.369
 5172POPC   PO465184  20.979   5.618   5.470
 5172POPC   GL165185  21.208   5.857   5.832
 5172POPC   GL265186  21.487   6.147   5.871
 5172POPC   C1A65187  21.222   5.942   6.270
 5172POPC   D2A65188  21.379   5.858   6.671
 5172POPC   C3A65189  21.164   5.937   7.044
 5172POPC   C4A65190  21.281   5.677   7.453
 5172POPC   C1B65191  21.712   5.859   6.139
 5172POPC   C2B65192  21.915   5.790   6.530
 5172POPC   C3B65193  21.803   5.669   6.940
 5172POPC   C4B65194  21.621   5.951   7.222
 5173POPC   NC365195  22.072  33.887   5.438
 5173POPC   PO465196  22.700  34.019   5.652
 5173POPC   GL165197  22.349  33.757   5.888
 5173POPC   GL265198  22.044  33.986   5.936
 5173POPC   C1A65199  22.187  33.741   6.343
 5173POPC   D2A65200  22.197  34.094   6.614
 5173POPC   C3A65201  22.328  33.942   6.979
 5173POPC   C4A65202  22.291  33.624   7.256
 5173POPC   C1B65203  21.765  34.077   6.301
 5173POPC   C2B65204  21.731  34.353   6.638
 5173POPC   C3B65205  21.918  34.286   7.019
 5173POPC   C4B65206  22.067  34.122   7.420
 5174POPC   NC365207  44.981   7.044   5.027
 5174POPC   PO465208   0.587   6.910   5.321
 5174POPC   GL165209   0.368   6.691   5.700
 5174POPC   GL265210   0.113   6.799   5.873
 5174POPC   C1A65211   0.467   6.580   6.143
 5174POPC   D2A65212   0.488   6.725   6.564
 5174POPC   C3A65213   0.522   6.677   6.991
 5174POPC   C4A65214   0.901   6.651   7.224
 5174POPC   C1B65215   0.076   6.924   6.283
 5174POPC   C2B65216   0.005   6.815   6.682
 5174POPC   C3B65217  44.906   7.013   7.013
 5174POPC   C4B65218   0.218   7.082   7.275
 5175POPC   NC365219  13.393  28.843   5.531
 5175POPC   PO465220  13.912  29.245   5.433
 5175POPC   GL165221  13.819  29.008   5.793
 5175POPC   GL265222  13.529  29.237   5.830
 5175POPC   C1A65223  13.647  28.940   6.213
 5175POPC   D2A65224  13.495  28.808   6.607
 5175POPC   C3A65225  13.726  28.737   6.991
 5175POPC   C4A65226  13.300  28.871   7.156
 5175POPC   C1B65227  13.833  29.423   6.119
 5175POPC   C2B65228  13.740  29.425   6.547
 5175POPC   C3B65229  13.662  29.223   6.918
 5175POPC   C4B65230  13.856  29.291   7.299
 5176POPC   NC365231  32.850  34.203   5.373
 5176POPC   PO465232  33.099  34.804   5.325
 5176POPC   GL165233  33.196  34.531   5.723
 5176POPC   GL265234  32.877  34.383   5.848
 5176POPC   C1A65235  33.151  34.616   6.193
 5176POPC   D2A65236  32.866  34.695   6.541
 5176POPC   C3A65237  33.009  34.623   6.983
 5176POPC   C4A65238  33.143  34.818   7.404
 5176POPC   C1B65239  32.689  34.210   6.224
 5176POPC   C2B65240  32.859  34.199   6.644
 5176POPC   C3B65241  32.700  34.218   7.041
 5176POPC   C4B65242  32.867  34.357   7.431
 5177POPC   NC365243  44.898  17.387   5.512
 5177POPC   PO465244  44.478  17.915   5.713
 5177POPC   GL165245  44.616  17.535   5.940
 5177POPC   GL265246  44.691  17.166   5.954
 5177POPC   C1A65247  44.527  17.393   6.363
 5177POPC   D2A65248  44.270  17.495   6.683
 5177POPC   C3A65249  44.471  17.814   6.926
 5177POPC   C4A65250  44.713  17.872   7.270
 5177POPC   C1B65251   0.028  17.326   6.212
 5177POPC   C2B65252  44.982  17.494   6.618
 5177POPC   C3B65253  44.731  17.337   6.920
 5177POPC   C4B65254  44.977  17.342   7.267
 5178POPC   NC365255  29.378  28.971   5.057
 5178POPC   PO465256  29.069  29.526   5.412
 5178POPC   GL165257  29.053  29.335   5.794
 5178POPC   GL265258  29.255  29.019   5.783
 5178POPC   C1A65259  29.165  29.284   6.211
 5178POPC   D2A65260  29.009  29.037   6.514
 5178POPC   C3A65261  29.115  29.200   6.911
 5178POPC   C4A65262  28.996  28.992   7.255
 5178POPC   C1B65263  29.481  28.893   6.211
 5178POPC   C2B65264  29.475  28.904   6.670
 5178POPC   C3B65265  29.458  28.826   7.084
 5178POPC   C4B65266  29.523  28.565   7.422
 5179POPC   NC365267  14.471  42.730   4.965
 5179POPC   PO465268  14.061  42.522   5.441
 5179POPC   GL165269  14.289  42.416   5.833
 5179POPC   GL265270  14.558  42.664   5.900
 5179POPC   C1A65271  14.191  42.214   6.225
 5179POPC   D2A65272  14.320  42.093   6.635
 5179POPC   C3A65273  14.121  42.272   7.012
 5179POPC   C4A65274  14.135  42.317   7.489
 5179POPC   C1B65275  14.545  42.558   6.351
 5179POPC   C2B65276  14.572  42.503   6.809
 5179POPC   C3B65277  14.575  42.374   7.211
 5179POPC   C4B65278  14.613  42.567   7.602
 5180POPC   NC365279  43.002  26.772   5.413
 5180POPC   PO465280  43.607  27.124   5.486
 5180POPC   GL165281  43.363  26.884   5.853
 5180POPC   GL265282  43.205  26.561   5.847
 5180POPC   C1A65283  43.307  26.747   6.317
 5180POPC   D2A65284  43.217  27.095   6.553
 5180POPC   C3A65285  43.149  27.042   6.977
 5180POPC   C4A65286  42.866  27.092   7.257
 5180POPC   C1B65287  42.906  26.430   6.203
 5180POPC   C2B65288  42.997  26.374   6.602
 5180POPC   C3B65289  43.272  26.535   6.871
 5180POPC   C4B65290  43.178  26.627   7.304
 5181POPC   NC365291   8.246   3.894   5.629
 5181POPC   PO465292   8.501   4.451   5.201
 5181POPC   GL165293   8.328   4.398   5.655
 5181POPC   GL265294   8.537   4.257   5.917
 5181POPC   C1A65295   8.062   4.346   6.077
 5181POPC   D2A65296   8.059   4.458   6.489
 5181POPC   C3A65297   8.249   4.282   6.834
 5181POPC   C4A65298   8.172   4.348   7.258
 5181POPC   C1B65299   8.448   4.150   6.351
 5181POPC   C2B65300   8.654   3.995   6.736
 5181POPC   C3B65301   8.502   3.944   7.173
 5181POPC   C4B65302   8.463   4.135   7.611
 5182POPC   NC365303  17.703  36.292   5.411
 5182POPC   PO465304  17.378  35.753   5.442
 5182POPC   GL165305  17.488  36.002   5.828
 5182POPC   GL265306  17.820  35.914   5.875
 5182POPC   C1A65307  17.569  36.097   6.310
 5182POPC   D2A65308  17.413  36.340   6.682
 5182POPC   C3A65309  17.565  36.121   7.071
 5182POPC   C4A65310  17.518  36.137   7.524
 5182POPC   C1B65311  17.861  36.387   6.029
 5182POPC   C2B65312  17.826  36.568   6.458
 5182POPC   C3B65313  17.909  36.535   6.897
 5182POPC   C4B65314  18.092  36.170   7.070
 5183POPC   NC365315   9.569  22.030   5.477
 5183POPC   PO465316   9.784  22.586   5.196
 5183POPC   GL165317   9.778  22.452   5.633
 5183POPC   GL265318   9.634  22.702   5.783
 5183POPC   C1A65319   9.733  22.300   6.089
 5183POPC   D2A65320   9.887  22.340   6.523
 5183POPC   C3A65321   9.762  22.142   6.909
 5183POPC   C4A65322   9.512  21.796   7.045
 5183POPC   C1B65323   9.316  22.607   6.071
 5183POPC   C2B65324   9.390  22.518   6.475
 5183POPC   C3B65325   9.593  22.632   6.842
 5183POPC   C4B65326   9.580  22.460   7.261
 5184POPC   NC365327  39.639  43.694   5.323
 5184POPC   PO465328  40.299  43.473   5.339
 5184POPC   GL165329  40.043  43.705   5.695
 5184POPC   GL265330  40.190  44.002   5.766
 5184POPC   C1A65331  39.982  43.766   6.192
 5184POPC   D2A65332  40.139  43.530   6.557
 5184POPC   C3A65333  40.083  43.570   7.023
 5184POPC   C4A65334  39.722  43.607   7.277
 5184POPC   C1B65335  40.430  43.974   6.151
 5184POPC   C2B65336  40.448  44.094   6.561
 5184POPC   C3B65337  40.425  43.948   6.960
 5184POPC   C4B65338  40.466  44.204   7.360
 5185POPC   NC365339  38.884  28.595   5.501
 5185POPC   PO465340  38.303  28.232   5.414
 5185POPC   GL165341  38.499  28.285   5.799
 5185POPC   GL265342  38.293  27.999   5.891
 5185POPC   C1A65343  38.592  28.601   6.142
 5185POPC   D2A65344  38.773  28.838   6.504
 5185POPC   C3A65345  38.649  28.665   6.904
 5185POPC   C4A65346  38.691  28.322   7.159
 5185POPC   C1B65347  38.211  28.251   6.259
 5185POPC   C2B65348  38.005  28.352   6.632
 5185POPC   C3B65349  38.180  28.396   7.019
 5185POPC   C4B65350  38.314  27.972   7.064
 5186POPC   NC365351   7.828  19.798   5.511
 5186POPC   PO465352   7.239  20.168   5.500
 5186POPC   GL165353   7.438  19.893   5.821
 5186POPC   GL265354   7.419  19.516   5.792
 5186POPC   C1A65355   7.519  19.794   6.260
 5186POPC   D2A65356   7.282  19.737   6.645
 5186POPC   C3A65357   7.539  19.671   6.979
 5186POPC   C4A65358   7.726  19.870   7.292
 5186POPC   C1B65359   7.119  19.444   6.187
 5186POPC   C2B65360   7.024  19.299   6.644
 5186POPC   C3B65361   7.092  19.455   7.073
 5186POPC   C4B65362   7.159  19.846   7.289
 5187POPC   NC365363  11.467  26.575   5.511
 5187POPC   PO465364  10.838  26.821   5.561
 5187POPC   GL165365  11.109  26.922   5.902
 5187POPC   GL265366  11.512  26.919   5.898
 5187POPC   C1A65367  11.003  26.862   6.334
 5187POPC   D2A65368  11.300  26.952   6.662
 5187POPC   C3A65369  11.163  26.821   7.063
 5187POPC   C4A65370  11.169  27.028   7.491
 5187POPC   C1B65371  11.377  26.573   6.181
 5187POPC   C2B65372  11.368  26.447   6.617
 5187POPC   C3B65373  11.623  26.591   6.979
 5187POPC   C4B65374  11.597  26.776   7.384
 5188POPC   NC365375  40.558   4.246   4.974
 5188POPC   PO465376  40.833   4.731   5.375
 5188POPC   GL165377  40.704   4.523   5.743
 5188POPC   GL265378  40.693   4.189   5.589
 5188POPC   C1A65379  40.438   4.565   6.155
 5188POPC   D2A65380  40.348   4.309   6.518
 5188POPC   C3A65381  40.505   4.326   6.926
 5188POPC   C4A65382  40.356   4.490   7.319
 5188POPC   C1B65383  40.661   4.114   6.041
 5188POPC   C2B65384  40.847   4.173   6.425
 5188POPC   C3B65385  40.983   4.138   6.818
 5188POPC   C4B65386  40.851   4.159   7.258
 5189POPC   NC365387   0.966  40.249   5.694
 5189POPC   PO465388   1.105  40.751   5.301
 5189POPC   GL165389   1.205  40.813   5.751
 5189POPC   GL265390   1.447  41.098   5.811
 5189POPC   C1A65391   1.094  40.677   6.183
 5189POPC   D2A65392   1.275  40.524   6.560
 5189POPC   C3A65393   1.032  40.455   6.912
 5189POPC   C4A65394   0.958  40.787   7.206
 5189POPC   C1B65395   1.246  41.167   6.214
 5189POPC   C2B65396   1.131  41.017   6.649
 5189POPC   C3B65397   1.283  41.168   7.048
 5189POPC   C4B65398   1.570  41.184   7.397
 5190POPC   NC365399  37.117   0.023   5.237
 5190POPC   PO465400  37.386  44.439   5.496
 5190POPC   GL165401  37.568  44.505   5.952
 5190POPC   GL265402  37.945  44.403   5.945
 5190POPC   C1A65403  37.478  44.816   6.318
 5190POPC   D2A65404  37.468   0.068   6.704
 5190POPC   C3A65405  37.397  44.834   7.062
 5190POPC   C4A65406  37.733  44.586   7.211
 5190POPC   C1B65407  37.972  44.693   6.279
 5190POPC   C2B65408  37.875  44.676   6.715
 5190POPC   C3B65409  38.210  44.609   7.029
 5190POPC   C4B65410  38.185  44.584   7.448
 5191POPC   NC365411  13.605  16.582   5.405
 5191POPC   PO465412  13.853  17.105   5.573
 5191POPC   GL165413  13.859  16.838   5.925
 5191POPC   GL265414  13.726  16.480   5.882
 5191POPC   C1A65415  13.771  16.984   6.358
 5191POPC   D2A65416  13.453  17.153   6.676
 5191POPC   C3A65417  13.540  17.039   7.086
 5191POPC   C4A65418  13.801  16.694   7.194
 5191POPC   C1B65419  13.653  16.467   6.306
 5191POPC   C2B65420  13.581  16.634   6.720
 5191POPC   C3B65421  13.323  16.575   7.097
 5191POPC   C4B65422  13.452  16.364   7.504
 5192POPC   NC365423  20.558  34.032   5.508
 5192POPC   PO465424  20.777  33.345   5.391
 5192POPC   GL165425  20.531  33.609   5.752
 5192POPC   GL265426  20.863  33.722   5.825
 5192POPC   C1A65427  20.525  33.920   6.143
 5192POPC   D2A65428  20.801  33.821   6.476
 5192POPC   C3A65429  20.741  33.946   6.903
 5192POPC   C4A65430  20.500  34.021   7.280
 5192POPC   C1B65431  21.068  33.476   6.155
 5192POPC   C2B65432  21.014  33.368   6.599
 5192POPC   C3B65433  20.997  33.525   7.026
 5192POPC   C4B65434  20.874  33.590   7.454
 5193POPC   NC365435  39.375  39.516   5.034
 5193POPC   PO465436  38.943  39.050   5.162
 5193POPC   GL165437  39.131  39.129   5.620
 5193POPC   GL265438  39.303  39.446   5.700
 5193POPC   C1A65439  39.119  39.147   6.106
 5193POPC   D2A65440  39.069  39.304   6.555
 5193POPC   C3A65441  39.273  39.108   6.932
 5193POPC   C4A65442  39.334  39.231   7.373
 5193POPC   C1B65443  39.261  39.633   6.132
 5193POPC   C2B65444  39.349  39.728   6.564
 5193POPC   C3B65445  39.153  39.621   6.989
 5193POPC   C4B65446  39.309  39.731   7.393
 5194POPC   NC365447  16.874   4.384   5.429
 5194POPC   PO465448  16.377   4.022   5.674
 5194POPC   GL165449  16.601   4.354   5.862
 5194POPC   GL265450  16.521   4.688   5.724
 5194POPC   C1A65451  16.892   4.355   6.211
 5194POPC   D2A65452  16.845   4.143   6.597
 5194POPC   C3A65453  17.012   4.278   6.968
 5194POPC   C4A65454  16.902   3.974   7.264
 5194POPC   C1B65455  16.560   4.760   6.176
 5194POPC   C2B65456  16.534   4.549   6.602
 5194POPC   C3B65457  16.636   4.660   7.027
 5194POPC   C4B65458  16.783   4.454   7.393
 5195POPC   NC365459  44.946  32.627   5.290
 5195POPC   PO465460  44.413  32.890   5.241
 5195POPC   GL165461  44.523  32.999   5.666
 5195POPC   GL265462  44.718  32.708   5.756
 5195POPC   C1A65463  44.409  33.252   6.049
 5195POPC   D2A65464  44.178  33.104   6.411
 5195POPC   C3A65465  44.235  33.206   6.849
 5195POPC   C4A65466  44.307  32.993   7.259
 5195POPC   C1B65467  44.655  32.817   6.202
 5195POPC   C2B65468  44.678  33.119   6.554
 5195POPC   C3B65469  44.734  33.049   6.999
 5195POPC   C4B65470  44.813  32.863   7.409
 5196POPC   NC365471   6.805  15.808   5.519
 5196POPC   PO465472   6.284  16.169   5.467
 5196POPC   GL165473   6.432  15.979   5.840
 5196POPC   GL265474   6.764  16.175   5.854
 5196POPC   C1A65475   6.399  15.820   6.270
 5196POPC   D2A65476   6.687  15.820   6.642
 5196POPC   C3A65477   6.618  15.900   7.081
 5196POPC   C4A65478   6.322  16.001   7.386
 5196POPC   C1B65479   6.910  16.078   6.250
 5196POPC   C2B65480   6.811  16.322   6.625
 5196POPC   C3B65481   6.970  16.269   7.019
 5196POPC   C4B65482   6.843  16.248   7.449
 5197POPC   NC365483  10.273  13.272   5.510
 5197POPC   PO465484  10.550  12.709   5.313
 5197POPC   GL165485  10.476  12.787   5.732
 5197POPC   GL265486  10.478  12.460   5.838
 5197POPC   C1A65487  10.724  12.807   6.135
 5197POPC   D2A65488  10.784  12.566   6.518
 5197POPC   C3A65489  10.689  12.810   6.890
 5197POPC   C4A65490  10.762  13.085   7.246
 5197POPC   C1B65491  10.342  12.482   6.234
 5197POPC   C2B65492  10.248  12.712   6.592
 5197POPC   C3B65493  10.289  12.476   6.937
 5197POPC   C4B65494  10.537  12.475   7.305
 5198POPC   NC365495  11.630  13.757   5.160
 5198POPC   PO465496  12.110  13.346   5.308
 5198POPC   GL165497  12.144  13.663   5.742
 5198POPC   GL265498  12.135  13.444   5.949
 5198POPC   C1A65499  12.086  13.870   6.217
 5198POPC   D2A65500  11.731  13.875   6.588
 5198POPC   C3A65501  11.867  13.808   7.040
 5198POPC   C4A65502  12.315  13.838   7.181
 5198POPC   C1B65503  12.264  13.401   6.352
 5198POPC   C2B65504  12.243  13.607   6.731
 5198POPC   C3B65505  12.194  13.340   7.079
 5198POPC   C4B65506  12.331  13.207   7.485
 5199POPC   NC365507  18.569  14.132   5.152
 5199POPC   PO465508  18.232  14.694   5.436
 5199POPC   GL165509  18.260  14.534   5.871
 5199POPC   GL265510  18.155  14.204   5.865
 5199POPC   C1A65511  18.258  14.405   6.325
 5199POPC   D2A65512  18.048  14.124   6.588
 5199POPC   C3A65513  18.167  14.195   6.992
 5199POPC   C4A65514  18.201  14.482   7.279
 5199POPC   C1B65515  18.391  13.915   6.192
 5199POPC   C2B65516  18.606  14.065   6.530
 5199POPC   C3B65517  18.794  13.978   6.884
 5199POPC   C4B65518  18.597  13.993   7.230
 5200POPC   NC365519  22.308   5.434   5.447
 5200POPC   PO465520  21.799   5.923   5.290
 5200POPC   GL165521  21.990   5.962   5.721
 5200POPC   GL265522  22.300   6.167   5.776
 5200POPC   C1A65523  22.230   5.763   6.091
 5200POPC   D2A65524  22.410   5.964   6.464
 5200POPC   C3A65525  22.321   5.781   6.879
 5200POPC   C4A65526  22.403   5.851   7.306
 5200POPC   C1B65527  22.069   6.242   6.174
 5200POPC   C2B65528  22.105   6.331   6.598
 5200POPC   C3B65529  22.006   6.160   6.978
 5200POPC   C4B65530  22.012   6.176   7.443
 5201POPC   NC365531  22.278  31.875   5.366
 5201POPC   PO465532  22.190  32.512   5.495
 5201POPC   GL165533  22.162  32.187   5.791
 5201POPC   GL265534  21.859  31.995   5.720
 5201POPC   C1A65535  22.055  32.300   6.209
 5201POPC   D2A65536  22.041  32.617   6.527
 5201POPC   C3A65537  22.248  32.407   6.859
 5201POPC   C4A65538  22.146  32.302   7.281
 5201POPC   C1B65539  21.981  31.788   6.122
 5201POPC   C2B65540  22.169  31.881   6.539
 5201POPC   C3B65541  21.929  31.983   6.916
 5201POPC   C4B65542  21.954  31.827   7.325
 5202POPC   NC365543  39.949  36.033   5.372
 5202POPC   PO465544  39.700  36.662   5.540
 5202POPC   GL165545  39.916  36.346   5.828
 5202POPC   GL265546  40.078  35.983   5.851
 5202POPC   C1A65547  40.032  36.259   6.261
 5202POPC   D2A65548  39.891  36.060   6.648
 5202POPC   C3A65549  40.213  36.249   6.891
 5202POPC   C4A65550  40.281  36.282   7.311
 5202POPC   C1B65551  40.027  35.741   6.245
 5202POPC   C2B65552  40.129  35.513   6.624
 5202POPC   C3B65553  40.216  35.764   6.986
 5202POPC   C4B65554  39.871  35.999   7.234
 5203POPC   NC365555  23.054   8.665   5.447
 5203POPC   PO465556  22.869   9.274   5.164
 5203POPC   GL165557  22.981   9.239   5.681
 5203POPC   GL265558  23.093   8.934   5.871
 5203POPC   C1A65559  22.903   9.268   6.184
 5203POPC   D2A65560  22.906   8.965   6.522
 5203POPC   C3A65561  23.117   9.014   6.891
 5203POPC   C4A65562  22.817   9.119   7.164
 5203POPC   C1B65563  22.963   8.615   6.159
 5203POPC   C2B65564  22.874   8.449   6.565
 5203POPC   C3B65565  22.802   8.628   6.977
 5203POPC   C4B65566  23.125   8.691   7.290
 5204POPC   NC365567  13.312  40.842   5.415
 5204POPC   PO465568  12.706  40.700   5.265
 5204POPC   GL165569  12.872  40.808   5.685
 5204POPC   GL265570  13.056  40.500   5.766
 5204POPC   C1A65571  12.892  40.996   6.115
 5204POPC   D2A65572  12.803  41.223   6.525
 5204POPC   C3A65573  12.740  41.018   6.918
 5204POPC   C4A65574  12.829  40.861   7.323
 5204POPC   C1B65575  13.171  40.538   6.209
 5204POPC   C2B65576  13.083  40.719   6.621
 5204POPC   C3B65577  13.039  40.487   7.016
 5204POPC   C4B65578  13.217  40.526   7.425
 5205POPC   NC365579  24.893  20.369   5.278
 5205POPC   PO465580  25.162  20.955   5.469
 5205POPC   GL165581  25.071  20.569   5.736
 5205POPC   GL265582  25.420  20.591   5.853
 5205POPC   C1A65583  25.082  20.434   6.188
 5205POPC   D2A65584  25.284  20.600   6.564
 5205POPC   C3A65585  25.023  20.765   6.852
 5205POPC   C4A65586  24.867  20.368   7.082
 5205POPC   C1B65587  25.606  20.387   6.217
 5205POPC   C2B65588  25.802  20.571   6.583
 5205POPC   C3B65589  25.634  20.772   6.933
 5205POPC   C4B65590  25.329  20.591   7.206
 5206POPC   NC365591  28.891  29.966   5.384
 5206POPC   PO465592  29.255  30.516   5.287
 5206POPC   GL165593  29.165  30.265   5.729
 5206POPC   GL265594  29.149  29.877   5.803
 5206POPC   C1A65595  29.266  30.157   6.200
 5206POPC   D2A65596  29.247  29.870   6.551
 5206POPC   C3A65597  29.358  30.020   6.967
 5206POPC   C4A65598  28.986  30.125   7.198
 5206POPC   C1B65599  28.925  29.721   6.145
 5206POPC   C2B65600  28.859  29.527   6.538
 5206POPC   C3B65601  28.921  29.696   6.926
 5206POPC   C4B65602  29.207  29.619   7.252
 5207POPC   NC365603   1.077  38.600   5.425
 5207POPC   PO465604   1.370  37.992   5.294
 5207POPC   GL165605   1.187  38.218   5.728
 5207POPC   GL265606   0.874  38.281   5.880
 5207POPC   C1A65607   1.258  38.566   6.093
 5207POPC   D2A65608   1.232  38.831   6.465
 5207POPC   C3A65609   1.243  38.763   6.920
 5207POPC   C4A65610   1.436  38.583   7.313
 5207POPC   C1B65611   1.013  38.157   6.246
 5207POPC   C2B65612   1.316  38.262   6.575
 5207POPC   C3B65613   1.156  38.257   7.004
 5207POPC   C4B65614   1.058  37.908   7.259
 5208POPC   NC365615   9.329  15.301   5.499
 5208POPC   PO465616   8.879  14.769   5.632
 5208POPC   GL165617   8.908  15.182   5.777
 5208POPC   GL265618   8.585  15.289   5.784
 5208POPC   C1A65619   9.038  15.331   6.182
 5208POPC   D2A65620   9.087  15.087   6.575
 5208POPC   C3A65621   9.205  15.252   6.981
 5208POPC   C4A65622   9.072  15.217   7.412
 5208POPC   C1B65623   8.644  14.989   6.169
 5208POPC   C2B65624   8.573  14.868   6.566
 5208POPC   C3B65625   8.787  14.868   6.972
 5208POPC   C4B65626   8.624  14.932   7.385
 5209POPC   NC365627   7.878  22.322   5.374
 5209POPC   PO465628   8.451  21.873   5.406
 5209POPC   GL165629   8.232  22.135   5.718
 5209POPC   GL265630   8.427  22.380   5.863
 5209POPC   C1A65631   8.115  22.057   6.165
 5209POPC   D2A65632   8.255  21.814   6.544
 5209POPC   C3A65633   8.281  22.086   6.911
 5209POPC   C4A65634   8.026  22.341   7.207
 5209POPC   C1B65635   8.272  22.541   6.222
 5209POPC   C2B65636   8.068  22.465   6.623
 5209POPC   C3B65637   8.332  22.643   6.944
 5209POPC   C4B65638   8.486  22.552   7.361
 5210POPC   NC365639  40.452  31.676   5.587
 5210POPC   PO465640  39.810  31.318   5.400
 5210POPC   GL165641  40.052  31.347   5.741
 5210POPC   GL265642  39.973  31.696   5.754
 5210POPC   C1A65643  40.191  31.372   6.170
 5210POPC   D2A65644  39.920  31.279   6.517
 5210POPC   C3A65645  40.122  31.366   6.854
 5210POPC   C4A65646  40.014  31.354   7.236
 5210POPC   C1B65647  40.056  31.907   6.146
 5210POPC   C2B65648  40.180  31.778   6.549
 5210POPC   C3B65649  40.059  31.891   6.947
 5210POPC   C4B65650  39.943  31.828   7.351
 5211POPC   NC365651  28.444  39.656   5.306
 5211POPC   PO465652  28.169  39.092   5.470
 5211POPC   GL165653  28.175  39.334   5.817
 5211POPC   GL265654  28.492  39.446   5.770
 5211POPC   C1A65655  28.273  39.180   6.231
 5211POPC   D2A65656  28.163  39.001   6.594
 5211POPC   C3A65657  28.415  39.124   6.891
 5211POPC   C4A65658  28.479  39.263   7.245
 5211POPC   C1B65659  28.725  39.291   6.068
 5211POPC   C2B65660  28.745  39.218   6.504
 5211POPC   C3B65661  28.785  39.482   6.865
 5211POPC   C4B65662  28.970  39.416   7.245
 5212POPC   NC365663  39.080  29.362   5.374
 5212POPC   PO465664  39.417  28.809   5.454
 5212POPC   GL165665  39.282  29.070   5.763
 5212POPC   GL265666  39.461  29.379   5.761
 5212POPC   C1A65667  39.153  28.953   6.154
 5212POPC   D2A65668  39.320  29.055   6.531
 5212POPC   C3A65669  39.144  28.850   6.862
 5212POPC   C4A65670  39.376  28.881   7.189
 5212POPC   C1B65671  39.305  29.453   6.176
 5212POPC   C2B65672  39.133  29.543   6.576
 5212POPC   C3B65673  39.208  29.355   6.957
 5212POPC   C4B65674  39.482  29.412   7.248
 5213POPC   NC365675   8.291   4.043   5.143
 5213POPC   PO465676   8.365   3.446   5.472
 5213POPC   GL165677   8.152   3.429   5.862
 5213POPC   GL265678   7.849   3.579   5.779
 5213POPC   C1A65679   8.321   3.387   6.303
 5213POPC   D2A65680   8.571   3.460   6.697
 5213POPC   C3A65681   8.288   3.483   7.034
 5213POPC   C4A65682   7.972   3.222   7.213
 5213POPC   C1B65683   8.016   3.801   6.219
 5213POPC   C2B65684   8.153   3.806   6.662
 5213POPC   C3B65685   7.957   3.885   7.107
 5213POPC   C4B65686   7.985   3.977   7.580
 5214POPC   NC365687  14.703  23.335   5.452
 5214POPC   PO465688  14.299  22.906   5.300
 5214POPC   GL165689  14.406  22.790   5.779
 5214POPC   GL265690  14.735  22.657   5.905
 5214POPC   C1A65691  14.220  22.797   6.236
 5214POPC   D2A65692  14.151  23.082   6.613
 5214POPC   C3A65693  14.187  22.820   6.993
 5214POPC   C4A65694  14.276  22.909   7.427
 5214POPC   C1B65695  14.696  23.020   6.218
 5214POPC   C2B65696  14.666  23.003   6.679
 5214POPC   C3B65697  14.577  23.181   7.090
 5214POPC   C4B65698  14.764  23.108   7.500
 5215POPC   NC365699  39.073  43.396   5.103
 5215POPC   PO465700  38.958  42.896   5.532
 5215POPC   GL165701  39.181  43.192   5.825
 5215POPC   GL265702  39.455  43.034   5.915
 5215POPC   C1A65703  39.181  43.225   6.286
 5215POPC   D2A65704  39.485  43.030   6.483
 5215POPC   C3A65705  39.490  42.881   6.958
 5215POPC   C4A65706  39.266  43.077   7.303
 5215POPC   C1B65707  39.152  42.750   6.139
 5215POPC   C2B65708  39.042  42.782   6.536
 5215POPC   C3B65709  39.177  42.541   6.836
 5215POPC   C4B65710  39.135  42.566   7.240
 5216POPC   NC365711  14.007   0.320   5.427
 5216POPC   PO465712  13.343   0.427   5.343
 5216POPC   GL165713  13.582   0.354   5.735
 5216POPC   GL265714  13.868   0.572   5.874
 5216POPC   C1A65715  13.543   0.283   6.163
 5216POPC   D2A65716  13.734   0.447   6.521
 5216POPC   C3A65717  13.436   0.404   6.823
 5216POPC   C4A65718  13.369   0.163   7.169
 5216POPC   C1B65719  14.046   0.186   6.073
 5216POPC   C2B65720  14.100   0.075   6.513
 5216POPC   C3B65721  14.135   0.355   6.858
 5216POPC   C4B65722  13.826   0.443   7.164
 5217POPC   NC365723  33.433  21.913   5.402
 5217POPC   PO465724  32.779  22.330   5.339
 5217POPC   GL165725  32.876  22.118   5.786
 5217POPC   GL265726  33.197  21.968   5.838
 5217POPC   C1A65727  33.019  22.235   6.252
 5217POPC   D2A65728  33.188  22.288   6.705
 5217POPC   C3A65729  32.862  22.326   7.067
 5217POPC   C4A65730  32.681  22.153   7.472
 5217POPC   C1B65731  33.084  21.732   6.187
 5217POPC   C2B65732  33.013  21.821   6.572
 5217POPC   C3B65733  33.201  21.729   6.919
 5217POPC   C4B65734  33.094  21.911   7.283
 5218POPC   NC365735   2.192  34.293   5.374
 5218POPC   PO465736   2.024  34.994   5.416
 5218POPC   GL165737   1.876  34.613   5.650
 5218POPC   GL265738   1.656  34.753   5.869
 5218POPC   C1A65739   1.990  34.410   6.065
 5218POPC   D2A65740   1.857  34.539   6.500
 5218POPC   C3A65741   2.073  34.350   6.832
 5218POPC   C4A65742   2.145  34.447   7.245
 5218POPC   C1B65743   1.986  34.918   6.193
 5218POPC   C2B65744   2.121  35.008   6.641
 5218POPC   C3B65745   2.093  34.972   7.098
 5218POPC   C4B65746   1.761  34.827   7.346
 5219POPC   NC365747   6.603  24.590   5.317
 5219POPC   PO465748   7.283  24.824   5.550
 5219POPC   GL165749   6.881  24.727   5.806
 5219POPC   GL265750   6.828  24.362   5.880
 5219POPC   C1A65751   6.616  24.644   6.233
 5219POPC   D2A65752   6.620  24.489   6.672
 5219POPC   C3A65753   6.623  24.756   7.059
 5219POPC   C4A65754   6.916  24.847   7.387
 5219POPC   C1B65755   6.406  24.198   6.068
 5219POPC   C2B65756   6.254  24.100   6.497
 5219POPC   C3B65757   6.422  24.086   6.895
 5219POPC   C4B65758   6.570  24.291   7.250
 5220POPC   NC365759  42.280  42.208   5.379
 5220POPC   PO465760  42.643  42.785   5.430
 5220POPC   GL165761  42.277  42.608   5.747
 5220POPC   GL265762  42.281  42.232   5.892
 5220POPC   C1A65763  42.253  42.644   6.216
 5220POPC   D2A65764  42.571  42.754   6.547
 5220POPC   C3A65765  42.443  42.600   6.947
 5220POPC   C4A65766  42.181  42.756   7.237
 5220POPC   C1B65767  41.983  41.952   6.139
 5220POPC   C2B65768  41.777  41.931   6.555
 5220POPC   C3B65769  41.925  41.977   6.977
 5220POPC   C4B65770  42.176  42.237   7.252
 5221POPC   NC365771  22.721   2.641   5.521
 5221POPC   PO465772  23.215   3.082   5.403
 5221POPC   GL165773  23.119   2.848   5.787
 5221POPC   GL265774  22.837   3.075   5.805
 5221POPC   C1A65775  23.024   2.523   6.173
 5221POPC   D2A65776  23.239   2.483   6.567
 5221POPC   C3A65777  23.024   2.512   6.942
 5221POPC   C4A65778  23.037   2.531   7.347
 5221POPC   C1B65779  23.026   3.013   6.242
 5221POPC   C2B65780  22.812   2.798   6.571
 5221POPC   C3B65781  22.796   2.948   7.020
 5221POPC   C4B65782  22.991   3.041   7.410
 5222POPC   NC365783  14.093  37.909   5.560
 5222POPC   PO465784  14.762  37.769   5.500
 5222POPC   GL165785  14.504  37.708   5.842
 5222POPC   GL265786  14.224  37.461   5.814
 5222POPC   C1A65787  14.471  37.876   6.241
 5222POPC   D2A65788  14.267  37.734   6.588
 5222POPC   C3A65789  14.450  37.667   6.987
 5222POPC   C4A65790  14.237  37.672   7.396
 5222POPC   C1B65791  14.359  37.351   6.242
 5222POPC   C2B65792  14.338  37.231   6.692
 5222POPC   C3B65793  14.235  37.223   7.129
 5222POPC   C4B65794  14.265  37.187   7.607
 5223POPC   NC365795  36.337   5.239   5.475
 5223POPC   PO465796  35.696   5.039   5.296
 5223POPC   GL165797  35.822   5.105   5.734
 5223POPC   GL265798  35.951   4.783   5.817
 5223POPC   C1A65799  36.107   5.166   6.132
 5223POPC   D2A65800  36.096   4.955   6.545
 5223POPC   C3A65801  36.204   5.140   6.920
 5223POPC   C4A65802  36.066   5.404   7.256
 5223POPC   C1B65803  35.716   4.846   6.222
 5223POPC   C2B65804  35.631   4.752   6.657
 5223POPC   C3B65805  35.929   4.706   6.982
 5223POPC   C4B65806  35.970   4.922   7.345
 5224POPC   NC365807  31.592   9.905   5.583
 5224POPC   PO465808  31.283   9.354   5.542
 5224POPC   GL165809  31.430   9.521   5.899
 5224POPC   GL265810  31.780   9.511   5.940
 5224POPC   C1A65811  31.227   9.676   6.255
 5224POPC   D2A65812  31.185   9.506   6.652
 5224POPC   C3A65813  31.504   9.682   6.880
 5224POPC   C4A65814  31.518   9.837   7.285
 5224POPC   C1B65815  31.667   9.455   6.363
 5224POPC   C2B65816  31.584   9.153   6.664
 5224POPC   C3B65817  31.576   9.243   7.090
 5224POPC   C4B65818  31.875   9.490   7.250
 5225POPC   NC365819  34.950  29.264   5.575
 5225POPC   PO465820  35.626  29.086   5.589
 5225POPC   GL165821  35.575  29.174   5.968
 5225POPC   GL265822  35.260  29.290   5.963
 5225POPC   C1A65823  35.506  29.021   6.372
 5225POPC   D2A65824  35.232  29.165   6.692
 5225POPC   C3A65825  35.429  29.182   7.075
 5225POPC   C4A65826  35.149  29.116   7.383
 5225POPC   C1B65827  35.078  29.473   6.306
 5225POPC   C2B65828  34.971  29.654   6.706
 5225POPC   C3B65829  35.201  29.648   7.076
 5225POPC   C4B65830  35.231  29.602   7.512
 5226POPC   NC365831  17.552  44.685   5.436
 5226POPC   PO465832  16.915  44.676   5.587
 5226POPC   GL165833  17.273  44.540   5.857
 5226POPC   GL265834  17.626  44.364   5.827
 5226POPC   C1A65835  17.439  44.650   6.259
 5226POPC   D2A65836  17.239  44.546   6.645
 5226POPC   C3A65837  17.365  44.848   6.988
 5226POPC   C4A65838  17.391  44.910   7.448
 5226POPC   C1B65839  17.930  44.511   6.151
 5226POPC   C2B65840  18.026  44.638   6.580
 5226POPC   C3B65841  17.899  44.484   6.982
 5226POPC   C4B65842  17.582  44.478   7.300
 5227POPC   NC365843  30.438  36.514   5.232
 5227POPC   PO465844  30.713  35.928   5.530
 5227POPC   GL165845  30.863  36.097   5.881
 5227POPC   GL265846  31.131  35.882   5.932
 5227POPC   C1A65847  30.590  36.058   6.252
 5227POPC   D2A65848  30.480  35.806   6.607
 5227POPC   C3A65849  30.412  36.130   6.879
 5227POPC   C4A65850  30.589  36.144   7.230
 5227POPC   C1B65851  31.085  35.959   6.346
 5227POPC   C2B65852  30.977  36.208   6.675
 5227POPC   C3B65853  31.046  35.977   7.030
 5227POPC   C4B65854  30.994  35.939   7.451
 5228POPC   NC365855  33.259   3.630   5.193
 5228POPC   PO465856  32.824   3.244   5.441
 5228POPC   GL165857  33.012   3.455   5.766
 5228POPC   GL265858  33.214   3.759   5.749
 5228POPC   C1A65859  32.961   3.254   6.139
 5228POPC   D2A65860  32.851   3.046   6.502
 5228POPC   C3A65861  32.688   3.249   6.805
 5228POPC   C4A65862  32.763   3.250   7.227
 5228POPC   C1B65863  33.060   3.770   6.196
 5228POPC   C2B65864  33.129   3.488   6.557
 5228POPC   C3B65865  33.180   3.343   6.955
 5228POPC   C4B65866  33.098   3.741   7.184
 5229POPC   NC365867  20.774  37.915   5.421
 5229POPC   PO465868  20.523  37.365   5.535
 5229POPC   GL165869  20.502  37.736   5.838
 5229POPC   GL265870  20.842  37.744   5.906
 5229POPC   C1A65871  20.510  37.922   6.283
 5229POPC   D2A65872  20.495  37.943   6.753
 5229POPC   C3A65873  20.469  37.543   6.945
 5229POPC   C4A65874  20.194  37.358   7.267
 5229POPC   C1B65875  21.044  37.979   6.229
 5229POPC   C2B65876  20.955  37.817   6.601
 5229POPC   C3B65877  20.969  37.800   7.034
 5229POPC   C4B65878  20.694  37.713   7.371
 5230POPC   NC365879  16.374  27.852   5.407
 5230POPC   PO465880  16.934  27.471   5.219
 5230POPC   GL165881  16.751  27.651   5.658
 5230POPC   GL265882  17.022  27.850   5.683
 5230POPC   C1A65883  16.623  27.531   6.119
 5230POPC   D2A65884  16.515  27.594   6.571
 5230POPC   C3A65885  16.684  27.333   6.917
 5230POPC   C4A65886  16.651  27.638   7.253
 5230POPC   C1B65887  17.046  27.795   6.140
 5230POPC   C2B65888  17.056  27.574   6.543
 5230POPC   C3B65889  17.083  27.670   6.970
 5230POPC   C4B65890  17.100  27.394   7.339
 5231POPC   NC365891  30.988   9.057   5.387
 5231POPC   PO465892  30.561   8.667   5.623
 5231POPC   GL165893  30.750   8.671   5.967
 5231POPC   GL265894  30.878   8.992   5.934
 5231POPC   C1A65895  30.756   8.573   6.398
 5231POPC   D2A65896  30.516   8.768   6.686
 5231POPC   C3A65897  30.707   8.807   7.029
 5231POPC   C4A65898  30.779   9.058   7.329
 5231POPC   C1B65899  30.650   9.118   6.336
 5231POPC   C2B65900  30.756   9.276   6.810
 5231POPC   C3B65901  31.060   9.442   7.188
 5231POPC   C4B65902  30.940   9.370   7.671
 5232POPC   NC365903  32.887  41.573   5.368
 5232POPC   PO465904  33.378  41.906   5.463
 5232POPC   GL165905  33.108  41.742   5.789
 5232POPC   GL265906  32.733  41.892   5.730
 5232POPC   C1A65907  33.072  41.405   6.083
 5232POPC   D2A65908  33.234  41.329   6.497
 5232POPC   C3A65909  33.020  41.376   6.892
 5232POPC   C4A65910  33.269  41.513   7.240
 5232POPC   C1B65911  32.775  41.814   6.171
 5232POPC   C2B65912  32.938  41.825   6.602
 5232POPC   C3B65913  32.930  41.847   7.034
 5232POPC   C4B65914  32.950  41.856   7.440
 5233POPC   NC365915  12.845   3.990   5.459
 5233POPC   PO465916  12.501   4.504   5.485
 5233POPC   GL165917  12.632   4.301   5.825
 5233POPC   GL265918  12.459   3.961   5.794
 5233POPC   C1A65919  12.918   4.407   6.157
 5233POPC   D2A65920  12.939   4.327   6.586
 5233POPC   C3A65921  12.834   4.606   6.908
 5233POPC   C4A65922  13.115   4.651   7.260
 5233POPC   C1B65923  12.690   3.934   6.181
 5233POPC   C2B65924  12.612   3.902   6.603
 5233POPC   C3B65925  12.690   4.082   6.943
 5233POPC   C4B65926  12.550   4.158   7.283
 5234POPC   NC365927  33.677  37.602   5.115
 5234POPC   PO465928  34.187  37.766   5.523
 5234POPC   GL165929  33.883  37.519   5.789
 5234POPC   GL265930  34.124  37.273   5.948
 5234POPC   C1A65931  33.630  37.730   6.167
 5234POPC   D2A65932  33.755  37.961   6.555
 5234POPC   C3A65933  33.591  37.999   6.996
 5234POPC   C4A65934  33.532  37.641   7.235
 5234POPC   C1B65935  34.136  37.635   6.216
 5234POPC   C2B65936  34.223  37.803   6.602
 5234POPC   C3B65937  33.988  37.688   6.944
 5234POPC   C4B65938  34.071  37.765   7.338
 5235POPC   NC365939  20.007  23.628   5.376
 5235POPC   PO465940  19.277  23.525   5.402
 5235POPC   GL165941  19.615  23.697   5.722
 5235POPC   GL265942  19.596  24.060   5.848
 5235POPC   C1A65943  19.669  23.613   6.178
 5235POPC   D2A65944  19.493  23.436   6.589
 5235POPC   C3A65945  19.684  23.636   6.956
 5235POPC   C4A65946  20.020  23.503   7.232
 5235POPC   C1B65947  19.887  24.108   6.218
 5235POPC   C2B65948  20.014  23.923   6.591
 5235POPC   C3B65949  20.127  23.930   6.990
 5235POPC   C4B65950  19.810  23.999   7.305
 5236POPC   NC365951  27.594   3.976   5.403
 5236POPC   PO465952  27.529   4.610   5.353
 5236POPC   GL165953  27.854   4.470   5.665
 5236POPC   GL265954  27.598   4.287   5.805
 5236POPC   C1A65955  28.007   4.336   6.107
 5236POPC   D2A65956  28.031   4.112   6.524
 5236POPC   C3A65957  27.853   4.302   6.897
 5236POPC   C4A65958  27.520   4.576   7.035
 5236POPC   C1B65959  27.506   4.181   6.216
 5236POPC   C2B65960  27.387   4.257   6.623
 5236POPC   C3B65961  27.426   4.010   6.993
 5236POPC   C4B65962  27.412   4.203   7.370
 5237POPC   NC365963  17.952  29.855   5.522
 5237POPC   PO465964  17.330  29.826   5.254
 5237POPC   GL165965  17.455  29.971   5.702
 5237POPC   GL265966  17.725  30.243   5.750
 5237POPC   C1A65967  17.435  29.864   6.159
 5237POPC   D2A65968  17.224  29.879   6.561
 5237POPC   C3A65969  17.433  29.931   6.959
 5237POPC   C4A65970  17.239  29.798   7.328
 5237POPC   C1B65971  17.923  30.049   6.141
 5237POPC   C2B65972  17.750  30.008   6.551
 5237POPC   C3B65973  17.904  30.170   6.941
 5237POPC   C4B65974  17.748  30.127   7.373
 5238POPC   NC365975  39.991   3.955   5.386
 5238POPC   PO465976  40.322   4.477   5.302
 5238POPC   GL165977  40.201   4.254   5.753
 5238POPC   GL265978  39.814   4.132   5.828
 5238POPC   C1A65979  40.182   3.989   6.152
 5238POPC   D2A65980  39.978   3.958   6.578
 5238POPC   C3A65981  40.029   4.171   6.991
 5238POPC   C4A65982  39.933   4.209   7.449
 5238POPC   C1B65983  39.805   4.319   6.263
 5238POPC   C2B65984  39.613   4.325   6.712
 5238POPC   C3B65985  39.751   4.584   7.101
 5238POPC   C4B65986  39.924   4.695   7.522
 5239POPC   NC365987  19.645  17.377   5.451
 5239POPC   PO465988  20.264  17.817   5.381
 5239POPC   GL165989  20.096  17.736   5.836
 5239POPC   GL265990  19.737  17.656   5.869
 5239POPC   C1A65991  20.065  17.606   6.273
 5239POPC   D2A65992  20.276  17.447   6.645
 5239POPC   C3A65993  20.040  17.307   6.972
 5239POPC   C4A65994  19.964  17.688   7.209
 5239POPC   C1B65995  19.522  17.769   6.233
 5239POPC   C2B65996  19.701  17.792   6.635
 5239POPC   C3B65997  19.496  17.715   7.026
 5239POPC   C4B65998  19.612  17.304   7.239
 5240POPC   NC365999  11.120  20.105   5.430
 5240POPC   PO466000  11.269  20.821   5.444
 5240POPC   GL166001  11.128  20.552   5.750
 5240POPC   GL266002  11.393  20.340   5.871
 5240POPC   C1A66003  11.105  20.601   6.202
 5240POPC   D2A66004  11.410  20.611   6.543
 5240POPC   C3A66005  11.286  20.893   6.857
 5240POPC   C4A66006  11.307  20.789   7.277
 5240POPC   C1B66007  11.431  20.157   6.285
 5240POPC   C2B66008  11.604  20.171   6.719
 5240POPC   C3B66009  11.388  20.308   7.111
 5240POPC   C4B66010  11.447  20.130   7.532
 5241POPC   NC366011  30.362  33.262   5.321
 5241POPC   PO466012  31.003  32.993   5.465
 5241POPC   GL166013  30.803  33.169   5.788
 5241POPC   GL266014  30.492  33.018   5.750
 5241POPC   C1A66015  30.836  33.011   6.234
 5241POPC   D2A66016  31.028  32.787   6.593
 5241POPC   C3A66017  30.766  32.874   6.965
 5241POPC   C4A66018  30.845  33.196   7.254
 5241POPC   C1B66019  30.362  33.180   6.142
 5241POPC   C2B66020  30.456  33.106   6.578
 5241POPC   C3B66021  30.289  33.116   6.987
 5241POPC   C4B66022  30.392  33.055   7.415
 5242POPC   NC366023  18.562  11.663   5.437
 5242POPC   PO466024  18.458  11.073   5.135
 5242POPC   GL166025  18.375  11.223   5.655
 5242POPC   GL266026  18.228  11.546   5.802
 5242POPC   C1A66027  18.507  11.254   6.108
 5242POPC   D2A66028  18.590  11.378   6.503
 5242POPC   C3A66029  18.406  11.229   6.880
 5242POPC   C4A66030  18.526  11.250   7.292
 5242POPC   C1B66031  18.340  11.720   6.229
 5242POPC   C2B66032  18.214  11.659   6.681
 5242POPC   C3B66033  18.138  11.576   7.141
 5242POPC   C4B66034  18.029  11.300   7.473
 5243POPC   NC366035  41.168   5.897   5.067
 5243POPC   PO466036  41.821   5.836   5.325
 5243POPC   GL166037  41.701   5.755   5.777
 5243POPC   GL266038  41.685   6.039   5.930
 5243POPC   C1A66039  41.535   5.575   6.195
 5243POPC   D2A66040  41.427   5.438   6.643
 5243POPC   C3A66041  41.568   5.682   7.041
 5243POPC   C4A66042  41.603   5.603   7.510
 5243POPC   C1B66043  41.643   6.041   6.384
 5243POPC   C2B66044  41.581   6.223   6.794
 5243POPC   C3B66045  41.215   6.216   7.074
 5243POPC   C4B66046  41.225   5.907   7.391
 5244POPC   NC366047  36.302  21.388   5.334
 5244POPC   PO466048  35.683  21.615   5.373
 5244POPC   GL166049  35.941  21.361   5.706
 5244POPC   GL266050  36.304  21.253   5.824
 5244POPC   C1A66051  35.985  21.509   6.113
 5244POPC   D2A66052  36.204  21.344   6.456
 5244POPC   C3A66053  35.858  21.323   6.748
 5244POPC   C4A66054  35.896  21.444   7.139
 5244POPC   C1B66055  36.480  21.627   6.070
 5244POPC   C2B66056  36.526  21.760   6.511
 5244POPC   C3B66057  36.364  21.862   6.927
 5244POPC   C4B66058  36.315  21.675   7.331
 5245POPC   NC366059  12.607  15.187   5.527
 5245POPC   PO466060  13.252  15.367   5.401
 5245POPC   GL166061  13.015  15.335   5.816
 5245POPC   GL266062  12.991  14.952   5.871
 5245POPC   C1A66063  12.688  15.241   6.169
 5245POPC   D2A66064  12.737  14.880   6.464
 5245POPC   C3A66065  12.675  14.975   6.895
 5245POPC   C4A66066  12.724  15.344   7.147
 5245POPC   C1B66067  13.162  15.134   6.263
 5245POPC   C2B66068  12.988  15.343   6.615
 5245POPC   C3B66069  13.159  15.158   6.958
 5245POPC   C4B66070  13.006  14.927   7.311
 5246POPC   NC366071   5.600  36.520   5.501
 5246POPC   PO466072   5.916  35.974   5.503
 5246POPC   GL166073   5.877  36.048   5.921
 5246POPC   GL266074   5.788  36.386   6.058
 5246POPC   C1A66075   5.612  35.954   6.265
 5246POPC   D2A66076   5.777  36.225   6.559
 5246POPC   C3A66077   6.108  36.112   6.814
 5246POPC   C4A66078   5.978  36.156   7.230
 5246POPC   C1B66079   6.192  36.406   6.289
 5246POPC   C2B66080   6.357  36.561   6.690
 5246POPC   C3B66081   6.047  36.630   7.022
 5246POPC   C4B66082   5.626  36.554   7.181
 5247POPC   NC366083  32.538  22.810   5.436
 5247POPC   PO466084  31.872  22.751   5.354
 5247POPC   GL166085  32.127  22.771   5.770
 5247POPC   GL266086  32.324  23.078   5.829
 5247POPC   C1A66087  32.124  22.564   6.212
 5247POPC   D2A66088  32.008  22.755   6.587
 5247POPC   C3A66089  32.196  22.785   6.956
 5247POPC   C4A66090  32.175  23.132   7.208
 5247POPC   C1B66091  32.425  22.943   6.261
 5247POPC   C2B66092  32.599  22.769   6.631
 5247POPC   C3B66093  32.658  23.006   7.013
 5247POPC   C4B66094  32.565  22.849   7.413
 5248POPC   NC366095  34.207   8.805   5.554
 5248POPC   PO466096  33.552   9.074   5.527
 5248POPC   GL166097  33.811   8.966   5.853
 5248POPC   GL266098  33.806   8.618   5.827
 5248POPC   C1A66099  34.038   8.897   6.233
 5248POPC   D2A66100  34.232   8.885   6.617
 5248POPC   C3A66101  34.014   9.042   6.961
 5248POPC   C4A66102  34.210   9.078   7.307
 5248POPC   C1B66103  33.603   8.609   6.247
 5248POPC   C2B66104  33.736   8.729   6.652
 5248POPC   C3B66105  33.726   8.627   7.084
 5248POPC   C4B66106  33.481   8.645   7.436
 5249POPC   NC366107  13.891  10.056   5.388
 5249POPC   PO466108  13.764  10.708   5.439
 5249POPC   GL166109  13.855  10.456   5.768
 5249POPC   GL266110  14.047  10.710   5.883
 5249POPC   C1A66111  13.706  10.368   6.181
 5249POPC   D2A66112  13.403  10.437   6.508
 5249POPC   C3A66113  13.498  10.384   6.942
 5249POPC   C4A66114  13.252  10.477   7.292
 5249POPC   C1B66115  14.122  10.663   6.314
 5249POPC   C2B66116  13.957  10.392   6.661
 5249POPC   C3B66117  13.960  10.550   7.072
 5249POPC   C4B66118  13.646  10.811   7.228
 5250POPC   NC366119  21.843   7.915   5.378
 5250POPC   PO466120  21.276   8.233   5.188
 5250POPC   GL166121  21.359   8.104   5.655
 5250POPC   GL266122  21.667   8.187   5.801
 5250POPC   C1A66123  21.257   8.073   6.154
 5250POPC   D2A66124  21.246   8.284   6.595
 5250POPC   C3A66125  21.316   8.093   7.031
 5250POPC   C4A66126  21.446   8.251   7.492
 5250POPC   C1B66127  21.764   8.018   6.188
 5250POPC   C2B66128  21.597   7.896   6.606
 5250POPC   C3B66129  21.805   7.936   6.987
 5250POPC   C4B66130  21.725   7.844   7.377
 5251POPC   NC366131  17.896   5.608   5.299
 5251POPC   PO466132  17.723   6.194   5.418
 5251POPC   GL166133  17.932   5.931   5.742
 5251POPC   GL266134  18.302   6.017   5.798
 5251POPC   C1A66135  18.004   5.806   6.183
 5251POPC   D2A66136  17.983   6.025   6.590
 5251POPC   C3A66137  18.001   5.798   6.981
 5251POPC   C4A66138  18.310   5.512   7.099
 5251POPC   C1B66139  18.520   6.271   6.125
 5251POPC   C2B66140  18.467   6.234   6.575
 5251POPC   C3B66141  18.497   6.081   7.026
 5251POPC   C4B66142  18.596   6.173   7.492
 5252POPC   NC366143   0.746  31.402   5.432
 5252POPC   PO466144   0.220  31.792   5.350
 5252POPC   GL166145   0.277  31.605   5.793
 5252POPC   GL266146   0.430  31.282   5.813
 5252POPC   C1A66147   0.441  31.650   6.244
 5252POPC   D2A66148   0.284  31.773   6.692
 5252POPC   C3A66149   0.496  31.740   7.070
 5252POPC   C4A66150   0.678  31.574   7.441
 5252POPC   C1B66151   0.746  31.204   6.140
 5252POPC   C2B66152   0.850  31.138   6.572
 5252POPC   C3B66153   0.677  31.269   6.957
 5252POPC   C4B66154   0.676  31.084   7.349
 5253POPC   NC366155  27.135   7.089   5.620
 5253POPC   PO466156  26.809   6.600   5.268
 5253POPC   GL166157  26.804   6.689   5.749
 5253POPC   GL266158  26.539   6.919   5.898
 5253POPC   C1A66159  26.719   6.475   6.156
 5253POPC   D2A66160  26.737   6.159   6.477
 5253POPC   C3A66161  26.677   6.317   6.866
 5253POPC   C4A66162  26.744   6.527   7.216
 5253POPC   C1B66163  26.844   6.971   6.214
 5253POPC   C2B66164  26.691   6.801   6.573
 5253POPC   C3B66165  26.523   7.089   6.799
 5253POPC   C4B66166  26.759   7.048   7.150
 5254POPC   NC366167  20.868   8.137   5.381
 5254POPC   PO466168  20.230   8.108   5.415
 5254POPC   GL166169  20.562   8.208   5.804
 5254POPC   GL266170  20.938   8.338   5.844
 5254POPC   C1A66171  20.732   8.092   6.238
 5254POPC   D2A66172  20.945   7.870   6.587
 5254POPC   C3A66173  20.780   8.112   6.907
 5254POPC   C4A66174  20.582   8.017   7.295
 5254POPC   C1B66175  21.013   8.580   6.174
 5254POPC   C2B66176  20.807   8.528   6.544
 5254POPC   C3B66177  21.003   8.654   6.893
 5254POPC   C4B66178  21.009   8.436   7.232
 5255POPC   NC366179  26.069  34.362   5.540
 5255POPC   PO466180  26.498  34.813   5.632
 5255POPC   GL166181  26.305  34.601   5.989
 5255POPC   GL266182  25.947  34.575   5.969
 5255POPC   C1A66183  26.150  34.794   6.372
 5255POPC   D2A66184  25.896  34.901   6.701
 5255POPC   C3A66185  26.185  34.782   6.999
 5255POPC   C4A66186  26.292  34.864   7.417
 5255POPC   C1B66187  25.976  34.310   6.322
 5255POPC   C2B66188  25.932  34.352   6.754
 5255POPC   C3B66189  26.052  34.327   7.197
 5255POPC   C4B66190  25.751  34.354   7.514
 5256POPC   NC366191  14.834  41.700   5.153
 5256POPC   PO466192  15.201  41.211   5.484
 5256POPC   GL166193  15.221  41.491   5.841
 5256POPC   GL266194  15.238  41.869   5.785
 5256POPC   C1A66195  15.062  41.659   6.232
 5256POPC   D2A66196  15.268  41.774   6.621
 5256POPC   C3A66197  15.190  41.588   7.019
 5256POPC   C4A66198  14.798  41.518   7.240
 5256POPC   C1B66199  15.404  42.061   6.184
 5256POPC   C2B66200  15.493  42.226   6.612
 5256POPC   C3B66201  15.363  42.074   7.040
 5256POPC   C4B66202  14.894  41.999   7.056
 5257POPC   NC366203  41.112   9.647   5.328
 5257POPC   PO466204  41.717   9.516   5.254
 5257POPC   GL166205  41.573   9.781   5.668
 5257POPC   GL266206  41.237   9.911   5.748
 5257POPC   C1A66207  41.579   9.842   6.161
 5257POPC   D2A66208  41.482   9.871   6.645
 5257POPC   C3A66209  41.650   9.542   6.948
 5257POPC   C4A66210  41.711   9.538   7.408
 5257POPC   C1B66211  41.051   9.890   6.173
 5257POPC   C2B66212  40.981  10.099   6.537
 5257POPC   C3B66213  40.998   9.843   6.886
 5257POPC   C4B66214  41.283   9.786   7.215
 5258POPC   NC366215   2.842  33.797   5.250
 5258POPC   PO466216   2.227  33.841   5.488
 5258POPC   GL166217   2.589  33.774   5.731
 5258POPC   GL266218   2.961  33.867   5.747
 5258POPC   C1A66219   2.560  33.878   6.142
 5258POPC   D2A66220   2.647  33.737   6.521
 5258POPC   C3A66221   2.625  34.054   6.836
 5258POPC   C4A66222   2.471  34.018   7.247
 5258POPC   C1B66223   3.131  33.963   6.159
 5258POPC   C2B66224   3.114  33.962   6.608
 5258POPC   C3B66225   2.957  33.671   6.932
 5258POPC   C4B66226   2.966  33.839   7.333
 5259POPC   NC366227  41.303  35.016   5.506
 5259POPC   PO466228  41.596  35.613   5.354
 5259POPC   GL166229  41.704  35.305   5.686
 5259POPC   GL266230  41.567  35.576   5.861
 5259POPC   C1A66231  41.701  35.185   6.154
 5259POPC   D2A66232  41.458  35.350   6.489
 5259POPC   C3A66233  41.558  35.153   6.858
 5259POPC   C4A66234  41.643  35.336   7.227
 5259POPC   C1B66235  41.959  35.613   6.024
 5259POPC   C2B66236  41.949  35.546   6.452
 5259POPC   C3B66237  41.994  35.572   6.900
 5259POPC   C4B66238  41.828  35.805   7.249
 5260POPC   NC366239  16.280  19.237   5.539
 5260POPC   PO466240  15.676  19.162   5.235
 5260POPC   GL166241  15.815  18.976   5.712
 5260POPC   GL266242  16.152  18.965   5.923
 5260POPC   C1A66243  15.731  19.064   6.193
 5260POPC   D2A66244  15.610  18.999   6.639
 5260POPC   C3A66245  15.882  19.226   6.894
 5260POPC   C4A66246  15.986  19.048   7.255
 5260POPC   C1B66247  16.244  19.292   6.249
 5260POPC   C2B66248  16.340  19.425   6.678
 5260POPC   C3B66249  16.492  19.239   7.079
 5260POPC   C4B66250  16.336  19.312   7.473
 5261POPC   NC366251  23.172  40.157   5.526
 5261POPC   PO466252  22.623  39.814   5.315
 5261POPC   GL166253  22.707  40.068   5.747
 5261POPC   GL266254  22.689  40.411   5.644
 5261POPC   C1A66255  22.874  39.931   6.234
 5261POPC   D2A66256  22.993  39.765   6.633
 5261POPC   C3A66257  23.341  39.999   6.788
 5261POPC   C4A66258  23.400  40.301   7.093
 5261POPC   C1B66259  22.826  40.406   6.099
 5261POPC   C2B66260  22.859  40.320   6.556
 5261POPC   C3B66261  22.869  40.148   6.952
 5261POPC   C4B66262  22.892  40.352   7.293
 5262POPC   NC366263  20.383  27.940   5.463
 5262POPC   PO466264  20.614  27.234   5.442
 5262POPC   GL166265  20.768  27.410   5.829
 5262POPC   GL266266  20.906  27.734   5.854
 5262POPC   C1A66267  20.570  27.479   6.225
 5262POPC   D2A66268  20.510  27.714   6.613
 5262POPC   C3A66269  20.525  27.471   6.972
 5262POPC   C4A66270  20.824  27.578   7.293
 5262POPC   C1B66271  20.702  27.983   6.192
 5262POPC   C2B66272  20.845  28.113   6.596
 5262POPC   C3B66273  20.899  28.009   7.030
 5262POPC   C4B66274  20.813  28.051   7.500
 5263POPC   NC366275   4.891   1.748   5.050
 5263POPC   PO466276   5.154   1.721   5.671
 5263POPC   GL166277   5.204   1.988   6.005
 5263POPC   GL266278   4.878   2.200   5.930
 5263POPC   C1A66279   5.295   1.895   6.405
 5263POPC   D2A66280   5.149   1.667   6.732
 5263POPC   C3A66281   5.301   1.926   7.052
 5263POPC   C4A66282   5.463   1.789   7.439
 5263POPC   C1B66283   4.801   1.946   6.304
 5263POPC   C2B66284   4.861   2.096   6.735
 5263POPC   C3B66285   4.822   2.005   7.187
 5263POPC   C4B66286   4.649   2.241   7.491
 5264POPC   NC366287  40.177  12.735   5.446
 5264POPC   PO466288  39.679  12.369   5.446
 5264POPC   GL166289  39.900  12.590   5.857
 5264POPC   GL266290  40.255  12.640   5.949
 5264POPC   C1A66291  39.798  12.957   6.166
 5264POPC   D2A66292  39.577  13.036   6.587
 5264POPC   C3A66293  39.656  12.869   6.998
 5264POPC   C4A66294  39.958  12.573   7.191
 5264POPC   C1B66295  40.182  12.725   6.393
 5264POPC   C2B66296  40.092  13.054   6.687
 5264POPC   C3B66297  40.095  13.093   7.106
 5264POPC   C4B66298  40.324  12.855   7.471
 5265POPC   NC366299  44.468  19.782   5.402
 5265POPC   PO466300   0.052  19.819   5.685
 5265POPC   GL166301  44.643  19.734   5.879
 5265POPC   GL266302  44.475  20.084   5.801
 5265POPC   C1A66303  44.634  19.625   6.329
 5265POPC   D2A66304  44.900  19.485   6.677
 5265POPC   C3A66305  44.784  19.691   7.006
 5265POPC   C4A66306  44.361  19.854   6.999
 5265POPC   C1B66307  44.720  20.136   6.183
 5265POPC   C2B66308  44.709  20.055   6.620
 5265POPC   C3B66309  44.804  20.208   7.002
 5265POPC   C4B66310  44.655  20.059   7.337
 5266POPC   NC366311  30.163  34.777   5.449
 5266POPC   PO466312  29.732  34.204   5.428
 5266POPC   GL166313  29.851  34.442   5.805
 5266POPC   GL266314  29.736  34.819   5.781
 5266POPC   C1A66315  30.002  34.297   6.244
 5266POPC   D2A66316  30.220  34.239   6.659
 5266POPC   C3A66317  29.993  34.356   7.050
 5266POPC   C4A66318  29.851  34.630   7.405
 5266POPC   C1B66319  30.070  34.803   6.112
 5266POPC   C2B66320  30.093  34.715   6.556
 5266POPC   C3B66321  29.994  34.867   6.959
 5266POPC   C4B66322  30.285  34.848   7.283
 5267POPC   NC366323   3.985  24.239   5.463
 5267POPC   PO466324   4.424  24.742   5.376
 5267POPC   GL166325   4.455  24.646   5.808
 5267POPC   GL266326   4.403  24.291   5.816
 5267POPC   C1A66327   4.324  24.575   6.236
 5267POPC   D2A66328   4.251  24.289   6.569
 5267POPC   C3A66329   4.424  24.491   6.942
 5267POPC   C4A66330   4.184  24.691   7.322
 5267POPC   C1B66331   4.111  24.018   6.092
 5267POPC   C2B66332   3.829  23.928   6.448
 5267POPC   C3B66333   3.921  24.017   6.874
 5267POPC   C4B66334   4.211  24.147   7.213
 5268POPC   NC366335  29.395  16.931   5.595
 5268POPC   PO466336  29.858  16.575   5.152
 5268POPC   GL166337  29.992  16.594   5.618
 5268POPC   GL266338  30.042  16.946   5.675
 5268POPC   C1A66339  29.967  16.495   6.089
 5268POPC   D2A66340  30.093  16.586   6.532
 5268POPC   C3A66341  29.919  16.512   6.973
 5268POPC   C4A66342  30.135  16.430   7.403
 5268POPC   C1B66343  30.011  17.032   6.115
 5268POPC   C2B66344  30.233  17.067   6.497
 5268POPC   C3B66345  30.140  17.123   6.909
 5268POPC   C4B66346  30.047  16.909   7.266
 5269POPC   NC366347   0.757   2.053   5.614
 5269POPC   PO466348   1.254   1.655   5.528
 5269POPC   GL166349   1.152   1.827   5.878
 5269POPC   GL266350   1.256   2.150   5.777
 5269POPC   C1A66351   1.345   1.816   6.243
 5269POPC   D2A66352   1.409   2.039   6.570
 5269POPC   C3A66353   1.529   1.851   6.898
 5269POPC   C4A66354   1.344   1.775   7.247
 5269POPC   C1B66355   1.142   2.282   6.181
 5269POPC   C2B66356   1.020   2.350   6.599
 5269POPC   C3B66357   1.177   2.250   7.015
 5269POPC   C4B66358   1.246   2.549   7.328
 5270POPC   NC366359  33.123  12.570   5.338
 5270POPC   PO466360  32.625  12.969   5.585
 5270POPC   GL166361  32.893  13.048   5.903
 5270POPC   GL266362  33.098  12.794   5.793
 5270POPC   C1A66363  32.871  12.935   6.349
 5270POPC   D2A66364  32.542  12.776   6.634
 5270POPC   C3A66365  32.592  13.023   7.013
 5270POPC   C4A66366  32.854  13.003   7.369
 5270POPC   C1B66367  33.334  12.892   6.118
 5270POPC   C2B66368  33.341  12.755   6.517
 5270POPC   C3B66369  33.164  12.838   6.893
 5270POPC   C4B66370  33.368  12.898   7.262
 5271POPC   NC366371   7.711  25.880   5.383
 5271POPC   PO466372   7.274  26.454   5.326
 5271POPC   GL166373   7.331  26.143   5.697
 5271POPC   GL266374   7.221  25.768   5.752
 5271POPC   C1A66375   7.575  26.213   6.071
 5271POPC   D2A66376   7.555  26.115   6.503
 5271POPC   C3A66377   7.205  26.266   6.752
 5271POPC   C4A66378   7.224  26.428   7.150
 5271POPC   C1B66379   7.513  25.683   6.096
 5271POPC   C2B66380   7.734  25.513   6.443
 5271POPC   C3B66381   7.617  25.669   6.812
 5271POPC   C4B66382   7.446  25.949   7.106
 5272POPC   NC366383   9.504  32.738   5.510
 5272POPC   PO466384   8.819  32.991   5.401
 5272POPC   GL166385   9.075  32.879   5.779
 5272POPC   GL266386   9.173  33.207   5.936
 5272POPC   C1A66387   9.062  32.704   6.211
 5272POPC   D2A66388   8.761  32.582   6.579
 5272POPC   C3A66389   8.815  32.555   7.030
 5272POPC   C4A66390   9.115  32.763   7.267
 5272POPC   C1B66391   8.786  33.112   6.151
 5272POPC   C2B66392   8.649  33.089   6.567
 5272POPC   C3B66393   8.793  33.057   6.981
 5272POPC   C4B66394   9.020  33.330   7.238
 5273POPC   NC366395   2.804   6.189   5.502
 5273POPC   PO466396   2.546   5.605   5.309
 5273POPC   GL166397   2.783   5.706   5.706
 5273POPC   GL266398   2.484   5.824   5.863
 5273POPC   C1A66399   2.917   5.798   6.160
 5273POPC   D2A66400   2.972   6.117   6.496
 5273POPC   C3A66401   2.904   5.984   6.925
 5273POPC   C4A66402   3.080   5.744   7.250
 5273POPC   C1B66403   2.445   5.593   6.258
 5273POPC   C2B66404   2.657   5.609   6.621
 5273POPC   C3B66405   2.700   5.486   7.003
 5273POPC   C4B66406   2.568   5.768   7.285
 5274POPC   NC366407  31.729   9.200   5.522
 5274POPC   PO466408  31.353   8.646   5.437
 5274POPC   GL166409  31.600   8.736   5.790
 5274POPC   GL266410  31.398   8.990   5.855
 5274POPC   C1A66411  31.697   8.839   6.226
 5274POPC   D2A66412  31.921   8.751   6.587
 5274POPC   C3A66413  31.661   8.739   6.982
 5274POPC   C4A66414  31.790   8.550   7.348
 5274POPC   C1B66415  31.264   9.154   6.230
 5274POPC   C2B66416  31.077   8.974   6.554
 5274POPC   C3B66417  31.166   9.014   6.942
 5274POPC   C4B66418  31.261   8.901   7.348
 5275POPC   NC366419   9.002  27.147   5.413
 5275POPC   PO466420   9.359  26.591   5.189
 5275POPC   GL166421   9.170  26.716   5.633
 5275POPC   GL266422   8.815  26.686   5.671
 5275POPC   C1A66423   9.162  26.875   6.086
 5275POPC   D2A66424   8.997  26.850   6.537
 5275POPC   C3A66425   9.312  26.895   6.865
 5275POPC   C4A66426   9.276  27.069   7.259
 5275POPC   C1B66427   8.679  26.712   6.109
 5275POPC   C2B66428   8.589  26.449   6.495
 5275POPC   C3B66429   8.758  26.382   6.908
 5275POPC   C4B66430   8.933  26.701   7.128
 5276POPC   NC366431  16.141   3.704   5.457
 5276POPC   PO466432  16.175   3.158   5.051
 5276POPC   GL166433  16.053   3.262   5.636
 5276POPC   GL266434  15.728   3.455   5.744
 5276POPC   C1A66435  16.103   3.548   6.085
 5276POPC   D2A66436  15.838   3.800   6.423
 5276POPC   C3A66437  15.896   3.792   6.902
 5276POPC   C4A66438  16.152   3.854   7.308
 5276POPC   C1B66439  15.769   3.175   6.133
 5276POPC   C2B66440  15.585   3.224   6.543
 5276POPC   C3B66441  15.640   3.228   6.985
 5276POPC   C4B66442  15.917   3.405   7.239
 5277POPC   NC366443  29.995   9.931   5.240
 5277POPC   PO466444  30.312   9.562   5.657
 5277POPC   GL166445  30.103   9.973   5.796
 5277POPC   GL266446  29.726   9.998   5.728
 5277POPC   C1A66447  29.973   9.968   6.254
 5277POPC   D2A66448  29.764   9.646   6.531
 5277POPC   C3A66449  29.928   9.668   6.957
 5277POPC   C4A66450  30.170   9.971   7.227
 5277POPC   C1B66451  29.489   9.912   6.145
 5277POPC   C2B66452  29.561  10.119   6.552
 5277POPC   C3B66453  29.882  10.166   6.847
 5277POPC   C4B66454  29.868  10.386   7.258
 5278POPC   NC366455   8.949   4.361   5.294
 5278POPC   PO466456   9.457   4.130   5.543
 5278POPC   GL166457   9.058   4.223   5.784
 5278POPC   GL266458   8.909   4.572   5.758
 5278POPC   C1A66459   8.973   4.153   6.226
 5278POPC   D2A66460   9.195   4.171   6.615
 5278POPC   C3A66461   9.092   4.436   6.955
 5278POPC   C4A66462   8.865   4.281   7.317
 5278POPC   C1B66463   8.910   4.659   6.208
 5278POPC   C2B66464   8.722   4.505   6.595
 5278POPC   C3B66465   8.597   4.605   7.015
 5278POPC   C4B66466   8.808   4.792   7.321
 5279POPC   NC366467  42.383  36.546   5.471
 5279POPC   PO466468  42.389  37.270   5.555
 5279POPC   GL166469  42.166  36.980   5.779
 5279POPC   GL266470  42.375  36.804   5.934
 5279POPC   C1A66471  42.016  37.027   6.235
 5279POPC   D2A66472  42.251  37.037   6.630
 5279POPC   C3A66473  42.047  37.090   7.011
 5279POPC   C4A66474  41.892  36.778   7.242
 5279POPC   C1B66475  42.266  36.560   6.296
 5279POPC   C2B66476  42.439  36.431   6.677
 5279POPC   C3B66477  42.342  36.656   7.034
 5279POPC   C4B66478  42.567  36.799   7.408
 5280POPC   NC366479  24.515   2.780   5.507
 5280POPC   PO466480  24.200   2.151   5.568
 5280POPC   GL166481  24.318   2.500   5.900
 5280POPC   GL266482  24.362   2.908   5.962
 5280POPC   C1A66483  24.538   2.576   6.288
 5280POPC   D2A66484  24.599   2.521   6.706
 5280POPC   C3A66485  24.239   2.641   6.880
 5280POPC   C4A66486  24.257   2.818   7.267
 5280POPC   C1B66487  24.794   2.998   6.112
 5280POPC   C2B66488  24.715   3.000   6.538
 5280POPC   C3B66489  24.631   2.976   6.943
 5280POPC   C4B66490  24.921   3.042   7.224
 5281POPC   NC366491  25.854   7.372   5.436
 5281POPC   PO466492  25.877   8.035   5.399
 5281POPC   GL166493  26.068   7.727   5.769
 5281POPC   GL266494  26.265   7.370   5.761
 5281POPC   C1A66495  25.977   7.684   6.248
 5281POPC   D2A66496  26.192   7.473   6.627
 5281POPC   C3A66497  26.101   7.613   7.038
 5281POPC   C4A66498  25.877   7.436   7.408
 5281POPC   C1B66499  26.137   7.201   6.183
 5281POPC   C2B66500  25.780   7.183   6.517
 5281POPC   C3B66501  25.898   7.121   6.971
 5281POPC   C4B66502  26.271   7.170   7.220
 5282POPC   NC366503  34.444  20.792   5.337
 5282POPC   PO466504  34.813  20.293   5.519
 5282POPC   GL166505  34.561  20.499   5.846
 5282POPC   GL266506  34.347  20.224   5.893
 5282POPC   C1A66507  34.670  20.668   6.291
 5282POPC   D2A66508  34.905  20.815   6.630
 5282POPC   C3A66509  34.693  20.692   6.982
 5282POPC   C4A66510  34.795  20.612   7.407
 5282POPC   C1B66511  34.728  20.162   6.203
 5282POPC   C2B66512  34.797  20.270   6.663
 5282POPC   C3B66513  34.621  20.209   7.098
 5282POPC   C4B66514  34.453  20.202   7.569
 5283POPC   NC366515  26.614  43.954   5.495
 5283POPC   PO466516  27.056  43.680   5.155
 5283POPC   GL166517  27.005  43.656   5.706
 5283POPC   GL266518  26.844  43.903   5.915
 5283POPC   C1A66519  26.910  43.538   6.216
 5283POPC   D2A66520  26.974  43.826   6.556
 5283POPC   C3A66521  26.678  43.688   6.828
 5283POPC   C4A66522  26.673  43.677   7.251
 5283POPC   C1B66523  26.510  44.114   6.120
 5283POPC   C2B66524  26.540  44.154   6.539
 5283POPC   C3B66525  26.423  44.100   6.943
 5283POPC   C4B66526  26.300  44.081   7.329
 5284POPC   NC366527  41.334  26.882   5.214
 5284POPC   PO466528  41.755  26.524   5.514
 5284POPC   GL166529  41.603  26.794   5.783
 5284POPC   GL266530  41.919  27.009   5.856
 5284POPC   C1A66531  41.386  26.697   6.163
 5284POPC   D2A66532  41.540  26.874   6.537
 5284POPC   C3A66533  41.494  26.639   6.882
 5284POPC   C4A66534  41.569  26.853   7.229
 5284POPC   C1B66535  41.908  26.703   6.197
 5284POPC   C2B66536  41.929  26.534   6.595
 5284POPC   C3B66537  41.993  26.697   6.978
 5284POPC   C4B66538  41.993  26.579   7.387
 5285POPC   NC366539   4.124  19.056   5.372
 5285POPC   PO466540   4.619  18.727   5.531
 5285POPC   GL166541   4.462  19.117   5.754
 5285POPC   GL266542   4.101  19.107   5.870
 5285POPC   C1A66543   4.479  19.229   6.191
 5285POPC   D2A66544   4.477  18.970   6.540
 5285POPC   C3A66545   4.462  19.059   6.949
 5285POPC   C4A66546   4.415  19.392   7.206
 5285POPC   C1B66547   4.077  18.859   6.240
 5285POPC   C2B66548   4.059  18.719   6.669
 5285POPC   C3B66549   4.115  18.651   7.093
 5285POPC   C4B66550   4.142  18.971   7.392
 5286POPC   NC366551   5.503  40.032   5.499
 5286POPC   PO466552   4.891  40.117   5.237
 5286POPC   GL166553   4.992  40.130   5.718
 5286POPC   GL266554   4.810  40.426   5.856
 5286POPC   C1A66555   5.167  39.935   6.127
 5286POPC   D2A66556   4.982  39.650   6.460
 5286POPC   C3A66557   5.021  39.797   6.893
 5286POPC   C4A66558   4.834  39.795   7.276
 5286POPC   C1B66559   5.208  40.449   6.106
 5286POPC   C2B66560   5.425  40.268   6.471
 5286POPC   C3B66561   5.350  40.195   6.910
 5286POPC   C4B66562   4.986  40.280   7.168
 5287POPC   NC366563   5.927  19.558   5.500
 5287POPC   PO466564   5.476  20.043   5.458
 5287POPC   GL166565   5.686  19.898   5.815
 5287POPC   GL266566   6.050  19.968   5.830
 5287POPC   C1A66567   5.732  20.017   6.238
 5287POPC   D2A66568   5.735  19.746   6.562
 5287POPC   C3A66569   5.843  19.933   6.929
 5287POPC   C4A66570   5.745  19.756   7.325
 5287POPC   C1B66571   6.129  19.673   6.193
 5287POPC   C2B66572   6.226  19.757   6.641
 5287POPC   C3B66573   6.165  19.554   7.064
 5287POPC   C4B66574   6.171  19.525   7.540
 5288POPC   NC366575  31.762  42.005   5.120
 5288POPC   PO466576  31.271  42.431   5.253
 5288POPC   GL166577  31.549  42.387   5.672
 5288POPC   GL266578  31.634  42.061   5.841
 5288POPC   C1A66579  31.529  42.497   6.132
 5288POPC   D2A66580  31.373  42.418   6.572
 5288POPC   C3A66581  31.660  42.357   6.964
 5288POPC   C4A66582  31.750  42.169   7.363
 5288POPC   C1B66583  31.298  42.012   6.204
 5288POPC   C2B66584  31.094  41.804   6.593
 5288POPC   C3B66585  31.030  41.897   7.026
 5288POPC   C4B66586  31.219  42.270   7.223
 5289POPC   NC366587   9.574  20.955   5.459
 5289POPC   PO466588   9.828  20.213   5.372
 5289POPC   GL166589   9.827  20.426   5.817
 5289POPC   GL266590   9.823  20.796   5.919
 5289POPC   C1A66591   9.957  20.434   6.271
 5289POPC   D2A66592   9.785  20.347   6.693
 5289POPC   C3A66593   9.967  20.489   7.092
 5289POPC   C4A66594  10.132  20.379   7.511
 5289POPC   C1B66595   9.545  20.747   6.328
 5289POPC   C2B66596   9.366  20.622   6.730
 5289POPC   C3B66597   9.439  20.730   7.170
 5289POPC   C4B66598   9.392  20.508   7.591
 5290POPC   NC366599  25.032  30.376   5.615
 5290POPC   PO466600  25.562  30.035   5.390
 5290POPC   GL166601  25.391  29.900   5.741
 5290POPC   GL266602  25.058  29.776   5.676
 5290POPC   C1A66603  25.491  29.956   6.146
 5290POPC   D2A66604  25.430  30.276   6.471
 5290POPC   C3A66605  25.271  30.076   6.852
 5290POPC   C4A66606  25.380  30.141   7.261
 5290POPC   C1B66607  25.150  29.503   6.040
 5290POPC   C2B66608  25.304  29.544   6.454
 5290POPC   C3B66609  25.225  29.541   6.882
 5290POPC   C4B66610  25.051  29.733   7.281
 5291POPC   NC366611  15.871   9.680   5.380
 5291POPC   PO466612  16.185  10.167   5.665
 5291POPC   GL166613  16.074   9.826   5.903
 5291POPC   GL266614  16.022   9.508   5.845
 5291POPC   C1A66615  16.048   9.683   6.315
 5291POPC   D2A66616  15.973   9.844   6.689
 5291POPC   C3A66617  16.205   9.643   7.022
 5291POPC   C4A66618  16.039   9.868   7.322
 5291POPC   C1B66619  15.644   9.395   6.168
 5291POPC   C2B66620  15.554   9.532   6.596
 5291POPC   C3B66621  15.699   9.560   7.027
 5291POPC   C4B66622  15.869   9.380   7.407
 5292POPC   NC366623   4.215  44.110   5.493
 5292POPC   PO466624   4.313  43.473   5.456
 5292POPC   GL166625   4.380  43.743   5.820
 5292POPC   GL266626   4.644  43.989   5.784
 5292POPC   C1A66627   4.318  44.051   6.199
 5292POPC   D2A66628   4.294  44.164   6.674
 5292POPC   C3A66629   4.114  43.875   7.011
 5292POPC   C4A66630   4.256  43.803   7.449
 5292POPC   C1B66631   4.768  43.738   6.139
 5292POPC   C2B66632   4.567  43.701   6.550
 5292POPC   C3B66633   4.620  43.764   7.001
 5292POPC   C4B66634   4.709  43.590   7.405
 5293POPC   NC366635  24.294  37.196   5.457
 5293POPC   PO466636  24.464  36.534   5.548
 5293POPC   GL166637  24.522  36.700   5.932
 5293POPC   GL266638  24.608  37.050   5.867
 5293POPC   C1A66639  24.301  36.666   6.323
 5293POPC   D2A66640  24.070  36.488   6.672
 5293POPC   C3A66641  24.123  36.672   7.080
 5293POPC   C4A66642  24.500  36.748   7.306
 5293POPC   C1B66643  24.479  37.158   6.304
 5293POPC   C2B66644  24.664  37.319   6.687
 5293POPC   C3B66645  24.853  37.051   7.037
 5293POPC   C4B66646  24.717  37.133   7.538
 5294POPC   NC366647  20.868  31.971   5.548
 5294POPC   PO466648  20.208  31.970   5.717
 5294POPC   GL166649  20.522  32.049   5.961
 5294POPC   GL266650  20.477  32.383   5.902
 5294POPC   C1A66651  20.429  32.030   6.381
 5294POPC   D2A66652  20.657  32.096   6.737
 5294POPC   C3A66653  20.691  32.057   7.148
 5294POPC   C4A66654  20.580  32.296   7.503
 5294POPC   C1B66655  20.628  32.527   6.266
 5294POPC   C2B66656  20.888  32.530   6.622
 5294POPC   C3B66657  20.721  32.559   7.021
 5294POPC   C4B66658  20.865  32.730   7.390
 5295POPC   NC366659  21.484  23.855   5.326
 5295POPC   PO466660  20.935  23.582   5.516
 5295POPC   GL166661  21.242  23.668   5.838
 5295POPC   GL266662  21.510  23.910   5.827
 5295POPC   C1A66663  21.484  23.505   6.177
 5295POPC   D2A66664  21.607  23.627   6.586
 5295POPC   C3A66665  21.313  23.555   6.871
 5295POPC   C4A66666  21.263  23.269   7.182
 5295POPC   C1B66667  21.406  24.009   6.249
 5295POPC   C2B66668  21.657  24.144   6.583
 5295POPC   C3B66669  21.743  23.952   6.984
 5295POPC   C4B66670  21.510  23.739   7.301
 5296POPC   NC366671  39.096  16.169   5.306
 5296POPC   PO466672  39.080  15.653   5.704
 5296POPC   GL166673  39.212  16.018   5.862
 5296POPC   GL266674  38.878  16.130   5.766
 5296POPC   C1A66675  39.490  15.943   6.228
 5296POPC   D2A66676  39.478  15.736   6.630
 5296POPC   C3A66677  39.451  15.953   7.024
 5296POPC   C4A66678  39.150  16.020   7.380
 5296POPC   C1B66679  38.878  16.325   6.155
 5296POPC   C2B66680  39.053  16.075   6.500
 5296POPC   C3B66681  38.961  16.095   6.921
 5296POPC   C4B66682  38.857  16.427   7.213
 5297POPC   NC366683   3.837  17.587   5.398
 5297POPC   PO466684   4.350  17.917   5.154
 5297POPC   GL166685   4.369  17.749   5.630
 5297POPC   GL266686   4.267  17.417   5.736
 5297POPC   C1A66687   4.523  17.731   6.058
 5297POPC   D2A66688   4.335  17.869   6.447
 5297POPC   C3A66689   4.556  17.747   6.820
 5297POPC   C4A66690   4.397  17.750   7.231
 5297POPC   C1B66691   4.395  17.227   6.136
 5297POPC   C2B66692   4.350  17.329   6.560
 5297POPC   C3B66693   4.283  17.325   6.968
 5297POPC   C4B66694   4.473  17.261   7.321
 5298POPC   NC366695   0.672   7.369   5.383
 5298POPC   PO466696   0.040   7.431   5.341
 5298POPC   GL166697   0.349   7.535   5.721
 5298POPC   GL266698   0.469   7.187   5.820
 5298POPC   C1A66699   0.688   7.578   6.055
 5298POPC   D2A66700   0.622   7.618   6.484
 5298POPC   C3A66701   0.745   7.644   6.914
 5298POPC   C4A66702   0.466   7.582   7.258
 5298POPC   C1B66703   0.546   7.128   6.268
 5298POPC   C2B66704   0.424   7.199   6.723
 5298POPC   C3B66705   0.676   7.153   7.086
 5298POPC   C4B66706   0.655   7.057   7.516
 5299POPC   NC366707   2.906   0.469   5.528
 5299POPC   PO466708   2.277   0.271   5.528
 5299POPC   GL166709   2.451   0.462   5.885
 5299POPC   GL266710   2.763   0.358   5.997
 5299POPC   C1A66711   2.437   0.586   6.322
 5299POPC   D2A66712   2.501   0.442   6.737
 5299POPC   C3A66713   2.847   0.591   7.027
 5299POPC   C4A66714   2.837   0.463   7.468
 5299POPC   C1B66715   3.080   0.276   6.271
 5299POPC   C2B66716   3.007   0.268   6.667
 5299POPC   C3B66717   3.236   0.147   7.053
 5299POPC   C4B66718   3.073  44.966   7.406
 5300POPC   NC366719  18.206  13.316   5.461
 5300POPC   PO466720  18.140  14.062   5.352
 5300POPC   GL166721  18.051  13.739   5.739
 5300POPC   GL266722  18.092  13.436   5.944
 5300POPC   C1A66723  17.901  13.848   6.177
 5300POPC   D2A66724  18.064  13.576   6.511
 5300POPC   C3A66725  18.311  13.736   6.845
 5300POPC   C4A66726  18.112  13.766   7.247
 5300POPC   C1B66727  18.391  13.262   6.241
 5300POPC   C2B66728  18.241  13.089   6.641
 5300POPC   C3B66729  18.197  13.282   7.043
 5300POPC   C4B66730  18.529  13.408   7.263
 5301POPC   NC366731  12.245   7.051   5.364
 5301POPC   PO466732  12.266   7.699   5.390
 5301POPC   GL166733  12.057   7.514   5.780
 5301POPC   GL266734  12.005   7.162   5.816
 5301POPC   C1A66735  12.095   7.502   6.252
 5301POPC   D2A66736  12.289   7.703   6.619
 5301POPC   C3A66737  12.125   7.557   6.984
 5301POPC   C4A66738  12.198   7.378   7.364
 5301POPC   C1B66739  11.752   7.115   6.219
 5301POPC   C2B66740  11.731   7.281   6.683
 5301POPC   C3B66741  11.859   7.114   7.102
 5301POPC   C4B66742  11.861   7.089   7.594
 5302POPC   NC366743  18.138  22.520   5.425
 5302POPC   PO466744  18.611  21.974   5.384
 5302POPC   GL166745  18.430  22.199   5.755
 5302POPC   GL266746  18.485  22.587   5.776
 5302POPC   C1A66747  18.376  22.021   6.180
 5302POPC   D2A66748  18.153  21.943   6.572
 5302POPC   C3A66749  18.386  21.920   6.945
 5302POPC   C4A66750  18.292  22.041   7.320
 5302POPC   C1B66751  18.181  22.503   6.114
 5302POPC   C2B66752  17.954  22.423   6.491
 5302POPC   C3B66753  18.140  22.407   6.881
 5302POPC   C4B66754  17.978  22.421   7.255
 5303POPC   NC366755  28.953  32.644   5.434
 5303POPC   PO466756  29.188  33.368   5.495
 5303POPC   GL166757  29.179  33.147   5.845
 5303POPC   GL266758  28.846  33.052   5.760
 5303POPC   C1A66759  29.065  32.829   6.165
 5303POPC   D2A66760  28.957  32.642   6.564
 5303POPC   C3A66761  29.087  32.866   6.904
 5303POPC   C4A66762  29.399  32.933   7.210
 5303POPC   C1B66763  28.780  33.286   6.156
 5303POPC   C2B66764  28.691  33.171   6.594
 5303POPC   C3B66765  28.757  33.269   7.053
 5303POPC   C4B66766  28.889  32.970   7.356
 5304POPC   NC366767  10.380   5.429   5.470
 5304POPC   PO466768  10.386   6.126   5.399
 5304POPC   GL166769  10.557   5.889   5.785
 5304POPC   GL266770  10.232   5.784   5.831
 5304POPC   C1A66771  10.770   5.772   6.223
 5304POPC   D2A66772  10.749   5.462   6.624
 5304POPC   C3A66773  10.698   5.678   7.056
 5304POPC   C4A66774  10.657   6.105   7.276
 5304POPC   C1B66775  10.261   5.953   6.242
 5304POPC   C2B66776  10.326   5.803   6.658
 5304POPC   C3B66777  10.194   5.987   7.046
 5304POPC   C4B66778  10.112   6.160   7.459
 5305POPC   NC366779  28.347   6.084   5.255
 5305POPC   PO466780  28.750   5.470   5.401
 5305POPC   GL166781  28.512   5.685   5.790
 5305POPC   GL266782  28.242   5.905   5.773
 5305POPC   C1A66783  28.575   5.753   6.213
 5305POPC   D2A66784  28.415   5.626   6.589
 5305POPC   C3A66785  28.531   5.949   6.883
 5305POPC   C4A66786  28.668   6.076   7.296
 5305POPC   C1B66787  28.075   5.855   6.195
 5305POPC   C2B66788  28.099   6.023   6.619
 5305POPC   C3B66789  28.062   5.851   7.026
 5305POPC   C4B66790  28.206   5.823   7.405
 5306POPC   NC366791   2.522  18.558   5.440
 5306POPC   PO466792   2.594  17.907   5.282
 5306POPC   GL166793   2.656  18.124   5.707
 5306POPC   GL266794   2.938  18.385   5.728
 5306POPC   C1A66795   2.613  18.275   6.151
 5306POPC   D2A66796   2.809  18.088   6.527
 5306POPC   C3A66797   2.627  18.118   6.910
 5306POPC   C4A66798   2.574  18.485   7.136
 5306POPC   C1B66799   3.099  18.442   6.159
 5306POPC   C2B66800   2.953  18.573   6.581
 5306POPC   C3B66801   3.089  18.509   7.023
 5306POPC   C4B66802   2.959  18.164   7.291
 5307POPC   NC366803  44.134  43.670   5.054
 5307POPC   PO466804  44.122  43.054   5.440
 5307POPC   GL166805  44.022  43.107   5.862
 5307POPC   GL266806  44.183  43.408   5.862
 5307POPC   C1A66807  43.903  42.976   6.309
 5307POPC   D2A66808  43.712  43.017   6.729
 5307POPC   C3A66809  43.868  42.962   7.164
 5307POPC   C4A66810  44.254  42.920   7.371
 5307POPC   C1B66811  43.830  43.456   6.169
 5307POPC   C2B66812  43.736  43.528   6.601
 5307POPC   C3B66813  43.888  43.451   7.004
 5307POPC   C4B66814  43.769  43.419   7.446
 5308POPC   NC366815   4.014   2.169   5.514
 5308POPC   PO466816   4.647   1.964   5.393
 5308POPC   GL166817   4.411   2.031   5.816
 5308POPC   GL266818   4.078   1.833   5.889
 5308POPC   C1A66819   4.428   2.294   6.205
 5308POPC   D2A66820   4.227   2.411   6.606
 5308POPC   C3A66821   4.445   2.344   6.972
 5308POPC   C4A66822   4.104   2.370   7.236
 5308POPC   C1B66823   4.018   1.980   6.325
 5308POPC   C2B66824   4.380   1.929   6.582
 5308POPC   C3B66825   4.520   1.716   6.911
 5308POPC   C4B66826   4.300   1.892   7.196
 5309POPC   NC366827  37.244  37.275   5.455
 5309POPC   PO466828  37.963  37.231   5.419
 5309POPC   GL166829  37.749  37.066   5.814
 5309POPC   GL266830  37.405  37.011   5.863
 5309POPC   C1A66831  37.730  36.845   6.237
 5309POPC   D2A66832  37.481  36.636   6.528
 5309POPC   C3A66833  37.615  36.779   6.910
 5309POPC   C4A66834  37.546  36.681   7.323
 5309POPC   C1B66835  37.496  37.279   6.208
 5309POPC   C2B66836  37.704  37.230   6.621
 5309POPC   C3B66837  37.508  37.303   7.033
 5309POPC   C4B66838  37.582  37.355   7.486
 5310POPC   NC366839  10.950  40.861   5.396
 5310POPC   PO466840  11.254  40.318   5.339
 5310POPC   GL166841  11.405  40.471   5.776
 5310POPC   GL266842  11.286  40.831   5.832
 5310POPC   C1A66843  11.522  40.558   6.243
 5310POPC   D2A66844  11.331  40.704   6.658
 5310POPC   C3A66845  11.566  40.673   7.060
 5310POPC   C4A66846  11.479  40.882   7.467
 5310POPC   C1B66847  11.010  40.556   6.100
 5310POPC   C2B66848  10.856  40.599   6.510
 5310POPC   C3B66849  10.805  40.542   6.939
 5310POPC   C4B66850  11.087  40.649   7.239
 5311POPC   NC366851  43.279  16.268   5.418
 5311POPC   PO466852  43.258  15.642   5.486
 5311POPC   GL166853  43.204  15.913   5.805
 5311POPC   GL266854  42.852  15.867   5.778
 5311POPC   C1A66855  43.178  16.073   6.239
 5311POPC   D2A66856  43.404  15.829   6.561
 5311POPC   C3A66857  43.226  15.929   6.954
 5311POPC   C4A66858  43.153  16.231   7.256
 5311POPC   C1B66859  42.941  15.634   6.163
 5311POPC   C2B66860  42.913  15.679   6.613
 5311POPC   C3B66861  42.719  15.880   6.996
 5311POPC   C4B66862  42.543  15.968   7.437
 5312POPC   NC366863  16.166   8.866   5.448
 5312POPC   PO466864  15.721   9.271   5.503
 5312POPC   GL166865  15.864   9.033   5.847
 5312POPC   GL266866  15.550   8.949   5.934
 5312POPC   C1A66867  16.075   9.153   6.251
 5312POPC   D2A66868  16.008   9.309   6.678
 5312POPC   C3A66869  16.131   9.101   7.065
 5312POPC   C4A66870  16.216   8.678   7.221
 5312POPC   C1B66871  15.775   8.741   6.273
 5312POPC   C2B66872  15.911   8.768   6.695
 5312POPC   C3B66873  15.649   8.836   7.029
 5312POPC   C4B66874  15.424   9.191   7.234
 5313POPC   NC366875  40.320  26.660   5.138
 5313POPC   PO466876  40.956  26.617   5.233
 5313POPC   GL166877  40.794  26.697   5.691
 5313POPC   GL266878  40.543  26.987   5.770
 5313POPC   C1A66879  40.821  26.730   6.166
 5313POPC   D2A66880  41.050  26.659   6.552
 5313POPC   C3A66881  41.040  26.868   6.932
 5313POPC   C4A66882  41.102  26.670   7.304
 5313POPC   C1B66883  40.346  26.927   6.208
 5313POPC   C2B66884  40.380  26.644   6.586
 5313POPC   C3B66885  40.626  26.558   6.973
 5313POPC   C4B66886  40.648  26.884   7.288
 5314POPC   NC366887   8.891  23.536   5.326
 5314POPC   PO466888   9.247  24.105   5.459
 5314POPC   GL166889   8.959  23.932   5.778
 5314POPC   GL266890   9.254  23.926   5.953
 5314POPC   C1A66891   8.864  23.772   6.246
 5314POPC   D2A66892   8.999  23.782   6.708
 5314POPC   C3A66893   8.744  23.901   7.053
 5314POPC   C4A66894   8.561  23.534   7.172
 5314POPC   C1B66895   9.356  23.943   6.368
 5314POPC   C2B66896   9.415  24.109   6.782
 5314POPC   C3B66897   9.206  24.104   7.177
 5314POPC   C4B66898   8.953  24.150   7.560
 5315POPC   NC366899  11.403  22.640   5.441
 5315POPC   PO466900  11.088  23.142   5.634
 5315POPC   GL166901  11.257  22.835   5.902
 5315POPC   GL266902  11.611  22.888   5.812
 5315POPC   C1A66903  11.060  22.772   6.286
 5315POPC   D2A66904  11.114  23.109   6.563
 5315POPC   C3A66905  10.990  23.025   6.946
 5315POPC   C4A66906  11.158  22.932   7.349
 5315POPC   C1B66907  11.732  22.984   6.193
 5315POPC   C2B66908  11.520  22.794   6.531
 5315POPC   C3B66909  11.409  22.703   6.934
 5315POPC   C4B66910  11.697  22.809   7.266
 5316POPC   NC366911  29.191   5.635   5.549
 5316POPC   PO466912  28.663   6.134   5.578
 5316POPC   GL166913  28.936   5.936   5.888
 5316POPC   GL266914  29.247   6.019   5.907
 5316POPC   C1A66915  29.079   5.711   6.254
 5316POPC   D2A66916  28.915   5.676   6.639
 5316POPC   C3A66917  29.034   5.948   6.963
 5316POPC   C4A66918  29.060   5.724   7.354
 5316POPC   C1B66919  29.405   6.213   6.256
 5316POPC   C2B66920  29.271   6.338   6.648
 5316POPC   C3B66921  29.428   6.279   7.020
 5316POPC   C4B66922  29.292   6.188   7.420
 5317POPC   NC366923  23.776   5.188   5.353
 5317POPC   PO466924  23.230   4.760   5.397
 5317POPC   GL166925  23.540   4.924   5.718
 5317POPC   GL266926  23.427   5.275   5.778
 5317POPC   C1A66927  23.893   5.094   6.023
 5317POPC   D2A66928  23.843   5.147   6.495
 5317POPC   C3A66929  23.980   5.244   6.921
 5317POPC   C4A66930  23.793   5.146   7.323
 5317POPC   C1B66931  23.404   5.109   6.164
 5317POPC   C2B66932  23.336   5.294   6.541
 5317POPC   C3B66933  23.458   5.291   6.946
 5317POPC   C4B66934  23.282   5.089   7.274
 5318POPC   NC366935  15.659   6.753   5.713
 5318POPC   PO466936  16.086   6.349   5.391
 5318POPC   GL166937  16.098   6.515   5.814
 5318POPC   GL266938  16.117   6.899   5.878
 5318POPC   C1A66939  16.100   6.436   6.269
 5318POPC   D2A66940  16.300   6.582   6.658
 5318POPC   C3A66941  15.981   6.510   6.966
 5318POPC   C4A66942  15.807   6.583   7.363
 5318POPC   C1B66943  16.143   6.949   6.309
 5318POPC   C2B66944  15.935   6.956   6.697
 5318POPC   C3B66945  16.092   7.020   7.088
 5318POPC   C4B66946  16.041   7.001   7.543
 5319POPC   NC366947  29.583  43.244   5.325
 5319POPC   PO466948  30.277  43.026   5.311
 5319POPC   GL166949  29.986  42.912   5.694
 5319POPC   GL266950  29.750  43.223   5.823
 5319POPC   C1A66951  29.817  42.814   6.107
 5319POPC   D2A66952  29.752  43.110   6.441
 5319POPC   C3A66953  29.958  42.971   6.781
 5319POPC   C4A66954  30.001  42.934   7.183
 5319POPC   C1B66955  29.861  43.540   6.167
 5319POPC   C2B66956  29.957  43.731   6.564
 5319POPC   C3B66957  29.956  43.507   6.980
 5319POPC   C4B66958  29.652  43.649   7.284
 5320POPC   NC366959  39.196  12.915   5.381
 5320POPC   PO466960  38.894  12.447   5.777
 5320POPC   GL166961  39.118  12.763   5.867
 5320POPC   GL266962  39.411  12.652   5.806
 5320POPC   C1A66963  39.248  12.960   6.218
 5320POPC   D2A66964  39.021  12.997   6.599
 5320POPC   C3A66965  39.128  12.875   7.049
 5320POPC   C4A66966  39.036  12.858   7.514
 5320POPC   C1B66967  39.548  12.528   6.241
 5320POPC   C2B66968  39.349  12.566   6.680
 5320POPC   C3B66969  39.428  12.436   7.141
 5320POPC   C4B66970  39.501  12.690   7.498
 5321POPC   NC366971  30.694  10.627   5.405
 5321POPC   PO466972  31.232  10.183   5.447
 5321POPC   GL166973  30.897  10.303   5.732
 5321POPC   GL266974  30.580  10.194   5.802
 5321POPC   C1A66975  30.770  10.569   6.100
 5321POPC   D2A66976  30.888  10.704   6.517
 5321POPC   C3A66977  30.724  10.632   6.947
 5321POPC   C4A66978  30.546  10.947   7.208
 5321POPC   C1B66979  30.421  10.196   6.200
 5321POPC   C2B66980  30.581  10.280   6.599
 5321POPC   C3B66981  30.597  10.134   7.026
 5321POPC   C4B66982  30.644  10.152   7.517
 5322POPC   NC366983  33.293  43.193   5.535
 5322POPC   PO466984  33.998  43.183   5.436
 5322POPC   GL166985  33.757  43.153   5.866
 5322POPC   GL266986  33.465  43.307   6.021
 5322POPC   C1A66987  34.009  43.125   6.247
 5322POPC   D2A66988  34.202  42.992   6.634
 5322POPC   C3A66989  33.985  43.181   6.989
 5322POPC   C4A66990  33.569  43.448   7.083
 5322POPC   C1B66991  33.517  42.957   6.358
 5322POPC   C2B66992  33.537  42.993   6.848
 5322POPC   C3B66993  33.713  42.848   7.275
 5322POPC   C4B66994  33.773  42.798   7.752
 5323POPC   NC366995  44.047  31.710   5.465
 5323POPC   PO466996  43.673  31.193   5.500
 5323POPC   GL166997  43.806  31.436   5.833
 5323POPC   GL266998  43.661  31.785   5.782
 5323POPC   C1A66999  44.059  31.449   6.211
 5323POPC   D2A67000  44.200  31.393   6.651
 5323POPC   C3A67001  43.925  31.220   6.971
 5323POPC   C4A67002  43.977  31.301   7.416
 5323POPC   C1B67003  43.636  31.747   6.206
 5323POPC   C2B67004  43.677  31.567   6.579
 5323POPC   C3B67005  43.859  31.712   6.905
 5323POPC   C4B67006  43.674  31.690   7.272
 5324POPC   NC367007  24.433  14.703   5.339
 5324POPC   PO467008  24.369  13.985   5.389
 5324POPC   GL167009  24.484  14.302   5.658
 5324POPC   GL267010  24.249  14.544   5.788
 5324POPC   C1A67011  24.658  14.356   6.038
 5324POPC   D2A67012  24.511  14.381   6.456
 5324POPC   C3A67013  24.777  14.455   6.780
 5324POPC   C4A67014  24.683  14.492   7.202
 5324POPC   C1B67015  24.147  14.207   6.083
 5324POPC   C2B67016  24.042  14.186   6.539
 5324POPC   C3B67017  24.227  14.402   6.925
 5324POPC   C4B67018  24.209  14.678   7.308
 5325POPC   NC367019  16.275   4.351   5.378
 5325POPC   PO467020  15.706   3.978   5.379
 5325POPC   GL167021  15.824   4.211   5.778
 5325POPC   GL267022  16.087   4.429   5.839
 5325POPC   C1A67023  15.682   4.425   6.182
 5325POPC   D2A67024  15.815   4.498   6.583
 5325POPC   C3A67025  15.606   4.254   6.885
 5325POPC   C4A67026  15.797   4.201   7.261
 5325POPC   C1B67027  16.210   4.355   6.255
 5325POPC   C2B67028  16.328   4.053   6.591
 5325POPC   C3B67029  16.479   4.151   7.008
 5325POPC   C4B67030  16.264   4.401   7.310
 5326POPC   NC367031  14.642   0.405   5.362
 5326POPC   PO467032  14.187   0.755   5.503
 5326POPC   GL167033  14.389   0.512   5.833
 5326POPC   GL267034  14.588   0.203   5.831
 5326POPC   C1A67035  14.386   0.501   6.292
 5326POPC   D2A67036  14.563   0.751   6.613
 5326POPC   C3A67037  14.602   0.553   7.013
 5326POPC   C4A67038  14.255   0.705   7.231
 5326POPC   C1B67039  14.798   0.189   6.242
 5326POPC   C2B67040  14.611   0.136   6.665
 5326POPC   C3B67041  14.791   0.022   7.075
 5326POPC   C4B67042  14.882   0.322   7.409
 5327POPC   NC367043  28.573  44.611   5.443
 5327POPC   PO467044  27.972  44.922   5.424
 5327POPC   GL167045  28.185  44.752   5.797
 5327POPC   GL267046  28.150  44.405   5.970
 5327POPC   C1A67047  28.129  44.820   6.233
 5327POPC   D2A67048  28.316  44.640   6.564
 5327POPC   C3A67049  28.146  44.687   6.935
 5327POPC   C4A67050  28.443  44.971   7.093
 5327POPC   C1B67051  28.574  44.551   6.132
 5327POPC   C2B67052  28.765  44.397   6.535
 5327POPC   C3B67053  28.544  44.357   6.921
 5327POPC   C4B67054  28.322  44.316   7.311
 5328POPC   NC367055  23.503   7.042   5.388
 5328POPC   PO467056  23.700   7.712   5.333
 5328POPC   GL167057  23.584   7.494   5.719
 5328POPC   GL267058  23.815   7.226   5.768
 5328POPC   C1A67059  23.758   7.552   6.153
 5328POPC   D2A67060  23.843   7.637   6.579
 5328POPC   C3A67061  23.465   7.565   6.812
 5328POPC   C4A67062  23.416   7.441   7.230
 5328POPC   C1B67063  23.575   7.036   6.107
 5328POPC   C2B67064  23.748   6.949   6.514
 5328POPC   C3B67065  23.726   7.137   6.920
 5328POPC   C4B67066  23.745   7.073   7.356
 5329POPC   NC367067  12.398  22.548   5.479
 5329POPC   PO467068  13.014  22.353   5.567
 5329POPC   GL167069  12.889  22.286   5.943
 5329POPC   GL267070  12.552  22.422   5.942
 5329POPC   C1A67071  12.855  22.530   6.326
 5329POPC   D2A67072  12.775  22.700   6.704
 5329POPC   C3A67073  13.062  22.496   6.950
 5329POPC   C4A67074  13.005  22.129   7.182
 5329POPC   C1B67075  12.537  22.125   6.274
 5329POPC   C2B67076  12.458  21.841   6.613
 5329POPC   C3B67077  12.563  21.862   7.057
 5329POPC   C4B67078  12.588  22.138   7.447
 5330POPC   NC367079  33.793  37.998   5.617
 5330POPC   PO467080  33.886  38.619   5.525
 5330POPC   GL167081  33.630  38.457   5.811
 5330POPC   GL267082  33.962  38.353   5.946
 5330POPC   C1A67083  33.514  38.253   6.193
 5330POPC   D2A67084  33.356  38.258   6.603
 5330POPC   C3A67085  33.691  38.472   6.842
 5330POPC   C4A67086  33.672  38.651   7.229
 5330POPC   C1B67087  34.195  38.151   6.211
 5330POPC   C2B67088  34.113  38.331   6.582
 5330POPC   C3B67089  34.137  38.186   6.956
 5330POPC   C4B67090  33.989  38.272   7.314
 5331POPC   NC367091  11.828  24.082   5.366
 5331POPC   PO467092  12.255  23.639   5.416
 5331POPC   GL167093  12.086  23.605   5.824
 5331POPC   GL267094  12.025  23.946   5.860
 5331POPC   C1A67095  11.832  23.639   6.217
 5331POPC   D2A67096  11.908  23.871   6.591
 5331POPC   C3A67097  11.763  23.658   6.929
 5331POPC   C4A67098  11.682  23.746   7.308
 5331POPC   C1B67099  12.293  23.943   6.252
 5331POPC   C2B67100  12.346  24.123   6.691
 5331POPC   C3B67101  12.116  24.007   7.076
 5331POPC   C4B67102  12.174  23.601   7.263
 5332POPC   NC367103  38.661  31.827   5.388
 5332POPC   PO467104  38.348  31.249   5.253
 5332POPC   GL167105  38.626  31.381   5.629
 5332POPC   GL267106  38.878  31.151   5.730
 5332POPC   C1A67107  38.762  31.537   6.089
 5332POPC   D2A67108  38.863  31.526   6.572
 5332POPC   C3A67109  38.599  31.707   6.948
 5332POPC   C4A67110  38.325  31.605   7.330
 5332POPC   C1B67111  38.477  31.104   6.026
 5332POPC   C2B67112  38.416  31.234   6.472
 5332POPC   C3B67113  38.399  31.216   6.954
 5332POPC   C4B67114  38.293  31.104   7.398
 5333POPC   NC367115  16.066  24.744   5.479
 5333POPC   PO467116  15.978  24.077   5.408
 5333POPC   GL167117  15.841  24.284   5.829
 5333POPC   GL267118  15.736  24.668   5.864
 5333POPC   C1A67119  16.057  24.216   6.249
 5333POPC   D2A67120  16.320  24.162   6.637
 5333POPC   C3A67121  16.092  24.213   7.029
 5333POPC   C4A67122  15.879  24.259   7.437
 5333POPC   C1B67123  15.930  24.729   6.254
 5333POPC   C2B67124  15.980  24.561   6.649
 5333POPC   C3B67125  16.167  24.742   6.988
 5333POPC   C4B67126  15.951  24.938   7.297
 5334POPC   NC367127   1.530   5.187   5.317
 5334POPC   PO467128   2.138   4.848   5.424
 5334POPC   GL167129   2.012   5.138   5.781
 5334POPC   GL267130   1.687   5.270   5.788
 5334POPC   C1A67131   1.932   5.313   6.230
 5334POPC   D2A67132   2.005   5.141   6.645
 5334POPC   C3A67133   1.936   5.283   7.073
 5334POPC   C4A67134   1.987   4.970   7.377
 5334POPC   C1B67135   1.652   4.900   6.086
 5334POPC   C2B67136   1.495   4.956   6.516
 5334POPC   C3B67137   1.657   4.852   6.943
 5334POPC   C4B67138   1.493   5.019   7.335
 5335POPC   NC367139  28.892  13.486   5.476
 5335POPC   PO467140  29.396  13.877   5.285
 5335POPC   GL167141  29.308  13.680   5.717
 5335POPC   GL267142  29.036  13.847   5.917
 5335POPC   C1A67143  29.399  13.687   6.195
 5335POPC   D2A67144  29.680  13.713   6.502
 5335POPC   C3A67145  29.551  13.627   6.907
 5335POPC   C4A67146  29.573  13.566   7.346
 5335POPC   C1B67147  28.919  13.497   6.178
 5335POPC   C2B67148  28.811  13.517   6.618
 5335POPC   C3B67149  28.975  13.496   7.033
 5335POPC   C4B67150  28.764  13.244   7.322
 5336POPC   NC367151   7.350  21.477   5.299
 5336POPC   PO467152   7.784  21.177   5.672
 5336POPC   GL167153   7.532  21.510   5.809
 5336POPC   GL267154   7.227  21.323   5.850
 5336POPC   C1A67155   7.387  21.723   6.193
 5336POPC   D2A67156   7.200  21.563   6.614
 5336POPC   C3A67157   7.415  21.602   7.037
 5336POPC   C4A67158   7.706  21.550   7.446
 5336POPC   C1B67159   7.485  21.222   6.260
 5336POPC   C2B67160   7.521  21.147   6.711
 5336POPC   C3B67161   7.681  21.174   7.110
 5336POPC   C4B67162   7.527  21.073   7.510
 5337POPC   NC367163  15.941  34.814   5.502
 5337POPC   PO467164  16.224  34.233   5.383
 5337POPC   GL167165  16.175  34.441   5.757
 5337POPC   GL267166  15.809  34.431   5.811
 5337POPC   C1A67167  16.139  34.591   6.186
 5337POPC   D2A67168  16.298  34.378   6.543
 5337POPC   C3A67169  16.139  34.582   6.906
 5337POPC   C4A67170  16.218  34.628   7.336
 5337POPC   C1B67171  15.632  34.407   6.210
 5337POPC   C2B67172  15.742  34.596   6.560
 5337POPC   C3B67173  15.636  34.945   6.800
 5337POPC   C4B67174  15.745  34.785   7.186
 5338POPC   NC367175   3.222  39.451   5.444
 5338POPC   PO467176   3.849  39.256   5.273
 5338POPC   GL167177   3.579  39.176   5.653
 5338POPC   GL267178   3.740  39.389   5.844
 5338POPC   C1A67179   3.303  39.293   6.078
 5338POPC   D2A67180   3.307  39.077   6.486
 5338POPC   C3A67181   3.451  39.219   6.889
 5338POPC   C4A67182   3.208  39.160   7.247
 5338POPC   C1B67183   3.739  39.049   6.139
 5338POPC   C2B67184   3.837  39.042   6.563
 5338POPC   C3B67185   3.797  38.776   6.895
 5338POPC   C4B67186   3.717  38.965   7.247
 5339POPC   NC367187  35.581   8.933   5.416
 5339POPC   PO467188  35.148   9.400   5.229
 5339POPC   GL167189  35.190   8.897   5.691
 5339POPC   GL267190  35.138   8.542   5.727
 5339POPC   C1A67191  35.365   8.970   6.170
 5339POPC   D2A67192  35.201   9.223   6.569
 5339POPC   C3A67193  35.163   9.056   7.009
 5339POPC   C4A67194  35.447   9.159   7.384
 5339POPC   C1B67195  34.984   8.655   6.146
 5339POPC   C2B67196  35.034   8.669   6.649
 5339POPC   C3B67197  34.947   8.604   7.118
 5339POPC   C4B67198  35.066   8.849   7.505
 5340POPC   NC367199   0.269  32.215   5.505
 5340POPC   PO467200   0.754  31.787   5.686
 5340POPC   GL167201   0.488  32.064   5.931
 5340POPC   GL267202   0.626  32.392   5.835
 5340POPC   C1A67203   0.208  32.103   6.305
 5340POPC   D2A67204   0.089  32.249   6.739
 5340POPC   C3A67205   0.404  32.239   7.074
 5340POPC   C4A67206   0.363  32.049   7.492
 5340POPC   C1B67207   0.496  32.515   6.258
 5340POPC   C2B67208   0.552  32.647   6.698
 5340POPC   C3B67209   0.692  32.667   7.140
 5340POPC   C4B67210   0.672  32.480   7.545
 5341POPC   NC367211  17.427  34.679   5.481
 5341POPC   PO467212  17.436  33.967   5.448
 5341POPC   GL167213  17.604  34.292   5.774
 5341POPC   GL267214  17.487  34.630   5.973
 5341POPC   C1A67215  17.634  34.219   6.213
 5341POPC   D2A67216  17.431  34.335   6.596
 5341POPC   C3A67217  17.653  34.448   7.005
 5341POPC   C4A67218  17.581  34.258   7.464
 5341POPC   C1B67219  17.718  34.711   6.387
 5341POPC   C2B67220  17.458  34.849   6.701
 5341POPC   C3B67221  17.137  34.770   6.953
 5341POPC   C4B67222  17.319  34.662   7.323
 5342POPC   NC367223  10.329   8.731   5.419
 5342POPC   PO467224  10.612   8.101   5.438
 5342POPC   GL167225  10.552   8.110   5.887
 5342POPC   GL267226  10.870   8.255   5.938
 5342POPC   C1A67227  10.426   8.169   6.347
 5342POPC   D2A67228  10.399   8.492   6.707
 5342POPC   C3A67229  10.145   8.336   7.053
 5342POPC   C4A67230  10.309   8.279   7.495
 5342POPC   C1B67231  10.894   8.364   6.389
 5342POPC   C2B67232  10.784   8.127   6.741
 5342POPC   C3B67233  10.664   8.218   7.137
 5342POPC   C4B67234  10.801   8.474   7.487
 5343POPC   NC367235  29.070  37.229   5.534
 5343POPC   PO467236  29.275  36.643   5.382
 5343POPC   GL167237  29.176  36.768   5.806
 5343POPC   GL267238  29.220  36.414   5.927
 5343POPC   C1A67239  28.990  37.043   6.176
 5343POPC   D2A67240  28.838  37.175   6.598
 5343POPC   C3A67241  28.842  36.921   6.978
 5343POPC   C4A67242  28.926  37.079   7.406
 5343POPC   C1B67243  28.885  36.531   6.161
 5343POPC   C2B67244  28.920  36.635   6.553
 5343POPC   C3B67245  29.137  36.496   6.926
 5343POPC   C4B67246  29.309  36.819   7.173
 5344POPC   NC367247   4.263  39.083   5.417
 5344POPC   PO467248   4.111  39.700   5.703
 5344POPC   GL167249   4.262  39.297   5.880
 5344POPC   GL267250   4.637  39.211   5.930
 5344POPC   C1A67251   4.258  39.092   6.261
 5344POPC   D2A67252   4.403  39.120   6.660
 5344POPC   C3A67253   4.133  39.160   6.991
 5344POPC   C4A67254   4.397  39.038   7.289
 5344POPC   C1B67255   4.501  39.539   6.289
 5344POPC   C2B67256   4.253  39.627   6.696
 5344POPC   C3B67257   4.376  39.591   7.138
 5344POPC   C4B67258   4.495  39.474   7.564
 5345POPC   NC367259   7.481  24.834   5.107
 5345POPC   PO467260   7.456  25.471   5.350
 5345POPC   GL167261   7.449  25.266   5.777
 5345POPC   GL267262   7.111  25.198   5.890
 5345POPC   C1A67263   7.454  25.141   6.237
 5345POPC   D2A67264   7.322  25.282   6.658
 5345POPC   C3A67265   7.411  25.346   7.118
 5345POPC   C4A67266   7.744  25.391   7.452
 5345POPC   C1B67267   7.045  25.478   6.208
 5345POPC   C2B67268   6.825  25.402   6.601
 5345POPC   C3B67269   6.934  25.159   6.948
 5345POPC   C4B67270   6.937  25.371   7.300
 5346POPC   NC367271   6.036  16.535   5.598
 5346POPC   PO467272   5.410  16.748   5.460
 5346POPC   GL167273   5.647  16.775   5.862
 5346POPC   GL267274   5.953  16.952   5.931
 5346POPC   C1A67275   5.698  16.602   6.287
 5346POPC   D2A67276   5.657  16.754   6.713
 5346POPC   C3A67277   5.834  16.569   7.116
 5346POPC   C4A67278   5.813  16.739   7.543
 5346POPC   C1B67279   6.173  16.805   6.325
 5346POPC   C2B67280   6.196  16.781   6.805
 5346POPC   C3B67281   6.212  16.912   7.272
 5346POPC   C4B67282   6.200  16.996   7.770
 5347POPC   NC367283  32.612  27.684   5.495
 5347POPC   PO467284  32.106  27.258   5.499
 5347POPC   GL167285  32.013  27.603   5.839
 5347POPC   GL267286  32.263  27.861   5.813
 5347POPC   C1A67287  32.121  27.773   6.287
 5347POPC   D2A67288  32.314  27.537   6.623
 5347POPC   C3A67289  32.167  27.594   7.053
 5347POPC   C4A67290  32.042  27.402   7.461
 5347POPC   C1B67291  32.605  27.959   6.140
 5347POPC   C2B67292  32.711  27.893   6.604
 5347POPC   C3B67293  32.521  27.973   7.025
 5347POPC   C4B67294  32.517  27.685   7.402
 5348POPC   NC367295   3.808  13.990   5.495
 5348POPC   PO467296   3.446  13.409   5.437
 5348POPC   GL167297   3.575  13.618   5.831
 5348POPC   GL267298   3.399  13.946   5.941
 5348POPC   C1A67299   3.463  13.538   6.264
 5348POPC   D2A67300   3.289  13.824   6.566
 5348POPC   C3A67301   3.466  13.790   7.005
 5348POPC   C4A67302   3.716  13.394   7.058
 5348POPC   C1B67303   3.765  13.926   6.221
 5348POPC   C2B67304   3.817  13.758   6.651
 5348POPC   C3B67305   3.998  13.835   7.087
 5348POPC   C4B67306   3.856  13.961   7.497
 5349POPC   NC367307   6.910  37.543   5.497
 5349POPC   PO467308   7.496  37.818   5.363
 5349POPC   GL167309   7.367  37.618   5.776
 5349POPC   GL267310   7.633  37.427   5.966
 5349POPC   C1A67311   7.156  37.423   6.140
 5349POPC   D2A67312   7.014  37.559   6.573
 5349POPC   C3A67313   7.177  37.458   6.980
 5349POPC   C4A67314   7.254  37.537   7.391
 5349POPC   C1B67315   7.495  37.733   6.321
 5349POPC   C2B67316   7.407  37.851   6.756
 5349POPC   C3B67317   7.662  37.669   7.118
 5349POPC   C4B67318   7.937  37.881   7.401
 5350POPC   NC367319   6.981  23.666   5.381
 5350POPC   PO467320   7.626  23.578   5.285
 5350POPC   GL167321   7.427  23.630   5.740
 5350POPC   GL267322   7.211  23.923   5.783
 5350POPC   C1A67323   7.552  23.802   6.193
 5350POPC   D2A67324   7.688  23.741   6.641
 5350POPC   C3A67325   7.638  23.998   7.031
 5350POPC   C4A67326   7.670  23.871   7.474
 5350POPC   C1B67327   7.070  23.648   6.155
 5350POPC   C2B67328   7.208  23.522   6.592
 5350POPC   C3B67329   7.178  23.726   7.016
 5350POPC   C4B67330   6.904  23.909   7.345
 5351POPC   NC367331  40.788  43.375   5.380
 5351POPC   PO467332  40.547  42.745   5.465
 5351POPC   GL167333  40.832  42.864   5.819
 5351POPC   GL267334  40.835  43.223   5.861
 5351POPC   C1A67335  40.906  42.942   6.284
 5351POPC   D2A67336  40.771  42.958   6.719
 5351POPC   C3A67337  40.950  42.797   7.066
 5351POPC   C4A67338  40.740  43.070   7.298
 5351POPC   C1B67339  41.086  43.433   6.159
 5351POPC   C2B67340  41.109  43.367   6.589
 5351POPC   C3B67341  41.056  43.337   6.996
 5351POPC   C4B67342  41.258  43.146   7.314
 5352POPC   NC367343  42.971  40.885   5.347
 5352POPC   PO467344  43.628  40.651   5.385
 5352POPC   GL167345  43.276  40.857   5.755
 5352POPC   GL267346  42.879  41.053   5.828
 5352POPC   C1A67347  43.251  40.989   6.182
 5352POPC   D2A67348  43.411  40.764   6.543
 5352POPC   C3A67349  43.253  40.823   6.944
 5352POPC   C4A67350  43.419  40.581   7.271
 5352POPC   C1B67351  42.840  40.629   5.976
 5352POPC   C2B67352  43.078  40.450   6.314
 5352POPC   C3B67353  43.162  40.345   6.750
 5352POPC   C4B67354  42.925  40.461   7.115
 5353POPC   NC367355  11.390  21.283   5.470
 5353POPC   PO467356  10.734  21.460   5.378
 5353POPC   GL167357  10.984  21.421   5.777
 5353POPC   GL267358  11.110  21.073   5.869
 5353POPC   C1A67359  11.245  21.479   6.160
 5353POPC   D2A67360  11.348  21.372   6.594
 5353POPC   C3A67361  11.131  21.647   6.862
 5353POPC   C4A67362  11.063  21.773   7.256
 5353POPC   C1B67363  11.450  21.001   6.206
 5353POPC   C2B67364  11.724  21.022   6.591
 5353POPC   C3B67365  11.716  21.226   6.970
 5353POPC   C4B67366  11.351  21.302   7.170
 5354POPC   NC367367  13.218  26.971   5.485
 5354POPC   PO467368  12.549  26.642   5.536
 5354POPC   GL167369  12.820  26.873   5.788
 5354POPC   GL267370  13.090  26.645   5.868
 5354POPC   C1A67371  12.881  27.154   6.130
 5354POPC   D2A67372  12.703  26.939   6.473
 5354POPC   C3A67373  12.737  27.012   6.888
 5354POPC   C4A67374  12.716  26.611   7.137
 5354POPC   C1B67375  13.175  26.762   6.291
 5354POPC   C2B67376  13.112  26.690   6.751
 5354POPC   C3B67377  13.134  26.885   7.176
 5354POPC   C4B67378  13.343  26.861   7.586
 5355POPC   NC367379  25.002   8.817   5.473
 5355POPC   PO467380  24.990   9.537   5.430
 5355POPC   GL167381  24.973   9.221   5.813
 5355POPC   GL267382  25.294   8.989   5.862
 5355POPC   C1A67383  24.913   8.930   6.204
 5355POPC   D2A67384  24.984   8.754   6.652
 5355POPC   C3A67385  25.120   9.027   7.007
 5355POPC   C4A67386  24.945   9.167   7.403
 5355POPC   C1B67387  25.612   9.057   6.218
 5355POPC   C2B67388  25.512   9.047   6.662
 5355POPC   C3B67389  25.667   8.888   7.046
 5355POPC   C4B67390  25.733   8.669   7.431
 5356POPC   NC367391  21.148  24.794   5.250
 5356POPC   PO467392  21.598  24.297   5.263
 5356POPC   GL167393  21.540  24.413   5.713
 5356POPC   GL267394  21.362  24.738   5.735
 5356POPC   C1A67395  21.542  24.510   6.177
 5356POPC   D2A67396  21.664  24.689   6.580
 5356POPC   C3A67397  21.461  24.455   6.936
 5356POPC   C4A67398  21.218  24.065   7.021
 5356POPC   C1B67399  21.096  24.787   6.127
 5356POPC   C2B67400  21.160  24.785   6.605
 5356POPC   C3B67401  21.018  24.670   7.057
 5356POPC   C4B67402  20.912  24.650   7.512
 5357POPC   NC367403  32.534   8.607   5.497
 5357POPC   PO467404  32.911   8.045   5.429
 5357POPC   GL167405  32.978   8.078   5.833
 5357POPC   GL267406  32.949   8.447   5.803
 5357POPC   C1A67407  33.035   7.916   6.235
 5357POPC   D2A67408  33.181   7.854   6.669
 5357POPC   C3A67409  32.977   8.083   7.013
 5357POPC   C4A67410  32.904   7.986   7.461
 5357POPC   C1B67411  33.112   8.428   6.222
 5357POPC   C2B67412  33.035   8.498   6.634
 5357POPC   C3B67413  33.223   8.553   7.002
 5357POPC   C4B67414  32.966   8.558   7.363
 5358POPC   NC367415   8.862  24.380   5.476
 5358POPC   PO467416   9.304  24.940   5.408
 5358POPC   GL167417   9.262  24.590   5.730
 5358POPC   GL267418   8.962  24.779   5.794
 5358POPC   C1A67419   9.094  24.373   6.129
 5358POPC   D2A67420   8.963  24.270   6.565
 5358POPC   C3A67421   9.141  24.550   6.878
 5358POPC   C4A67422   9.324  24.594   7.275
 5358POPC   C1B67423   8.704  24.711   6.136
 5358POPC   C2B67424   8.817  24.767   6.530
 5358POPC   C3B67425   8.645  24.718   6.908
 5358POPC   C4B67426   8.787  24.555   7.272
 5359POPC   NC367427  18.255  34.981   5.523
 5359POPC   PO467428  18.255  35.683   5.603
 5359POPC   GL167429  18.239  35.548   5.965
 5359POPC   GL267430  18.039  35.277   5.886
 5359POPC   C1A67431  18.280  35.597   6.390
 5359POPC   D2A67432  18.351  35.348   6.761
 5359POPC   C3A67433  18.141  35.474   7.119
 5359POPC   C4A67434  18.229  35.514   7.598
 5359POPC   C1B67435  18.036  35.152   6.314
 5359POPC   C2B67436  17.880  35.129   6.741
 5359POPC   C3B67437  17.990  34.899   7.122
 5359POPC   C4B67438  18.202  34.985   7.547
 5360POPC   NC367439  23.310  35.985   5.317
 5360POPC   PO467440  22.671  36.229   5.364
 5360POPC   GL167441  22.822  36.054   5.764
 5360POPC   GL267442  23.172  35.952   5.823
 5360POPC   C1A67443  22.853  36.244   6.179
 5360POPC   D2A67444  23.026  36.417   6.567
 5360POPC   C3A67445  22.857  36.224   6.929
 5360POPC   C4A67446  22.707  36.335   7.304
 5360POPC   C1B67447  23.309  36.006   6.270
 5360POPC   C2B67448  23.286  36.003   6.733
 5360POPC   C3B67449  23.260  35.958   7.191
 5360POPC   C4B67450  23.267  35.707   7.615
 5361POPC   NC367451  14.597   1.305   5.198
 5361POPC   PO467452  14.146   1.601   5.672
 5361POPC   GL167453  14.442   1.339   5.866
 5361POPC   GL267454  14.699   1.490   5.905
 5361POPC   C1A67455  14.360   1.152   6.269
 5361POPC   D2A67456  14.465   1.293   6.657
 5361POPC   C3A67457  14.306   1.171   7.036
 5361POPC   C4A67458  14.500   1.092   7.431
 5361POPC   C1B67459  14.871   1.557   6.278
 5361POPC   C2B67460  14.751   1.687   6.695
 5361POPC   C3B67461  14.698   1.502   7.138
 5361POPC   C4B67462  14.565   1.550   7.614
 5362POPC   NC367463  20.400  29.196   5.389
 5362POPC   PO467464  19.741  29.225   5.348
 5362POPC   GL167465  19.696  29.320   5.811
 5362POPC   GL267466  19.539  29.645   5.921
 5362POPC   C1A67467  19.697  29.015   6.196
 5362POPC   D2A67468  19.893  28.766   6.558
 5362POPC   C3A67469  19.986  28.970   6.980
 5362POPC   C4A67470  19.992  29.295   7.339
 5362POPC   C1B67471  19.788  29.501   6.288
 5362POPC   C2B67472  19.656  29.257   6.682
 5362POPC   C3B67473  19.545  29.179   7.134
 5362POPC   C4B67474  19.595  29.002   7.575
 5363POPC   NC367475  30.187   8.461   5.401
 5363POPC   PO467476  29.753   7.874   5.464
 5363POPC   GL167477  29.965   8.010   5.808
 5363POPC   GL267478  29.904   8.362   5.825
 5363POPC   C1A67479  30.011   8.063   6.260
 5363POPC   D2A67480  30.222   8.308   6.583
 5363POPC   C3A67481  30.209   7.985   6.900
 5363POPC   C4A67482  29.920   7.836   7.198
 5363POPC   C1B67483  29.767   8.500   6.243
 5363POPC   C2B67484  29.704   8.335   6.672
 5363POPC   C3B67485  29.772   8.351   7.142
 5363POPC   C4B67486  29.493   8.587   7.467
 5364POPC   NC367487  23.574  36.689   5.283
 5364POPC   PO467488  23.845  37.297   5.362
 5364POPC   GL167489  23.818  36.944   5.734
 5364POPC   GL267490  24.102  37.006   5.933
 5364POPC   C1A67491  23.780  36.722   6.217
 5364POPC   D2A67492  23.745  36.874   6.705
 5364POPC   C3A67493  23.641  36.747   7.151
 5364POPC   C4A67494  23.885  36.688   7.531
 5364POPC   C1B67495  23.959  37.186   6.333
 5364POPC   C2B67496  24.103  37.224   6.737
 5364POPC   C3B67497  23.925  37.176   7.145
 5364POPC   C4B67498  23.971  37.527   7.480
 5365POPC   NC367499  36.029  17.682   5.404
 5365POPC   PO467500  35.611  17.121   5.413
 5365POPC   GL167501  35.794  17.404   5.794
 5365POPC   GL267502  36.206  17.471   5.863
 5365POPC   C1A67503  35.876  17.550   6.249
 5365POPC   D2A67504  36.248  17.388   6.509
 5365POPC   C3A67505  36.110  17.349   6.921
 5365POPC   C4A67506  35.897  17.566   7.244
 5365POPC   C1B67507  36.287  17.828   6.222
 5365POPC   C2B67508  36.107  17.856   6.665
 5365POPC   C3B67509  36.299  17.803   7.084
 5365POPC   C4B67510  36.254  17.764   7.599
 5366POPC   NC367511  40.837  39.676   5.585
 5366POPC   PO467512  40.720  40.278   5.265
 5366POPC   GL167513  40.833  40.142   5.740
 5366POPC   GL267514  41.158  40.118   5.910
 5366POPC   C1A67515  40.704  40.043   6.170
 5366POPC   D2A67516  40.973  40.228   6.489
 5366POPC   C3A67517  40.902  40.129   6.920
 5366POPC   C4A67518  40.550  40.080   7.212
 5366POPC   C1B67519  41.128  39.764   6.232
 5366POPC   C2B67520  41.006  39.554   6.638
 5366POPC   C3B67521  41.031  39.662   7.097
 5366POPC   C4B67522  41.027  39.646   7.556
 5367POPC   NC367523  25.434  30.476   5.248
 5367POPC   PO467524  25.003  30.918   5.582
 5367POPC   GL167525  25.290  30.770   5.859
 5367POPC   GL267526  25.517  30.441   5.795
 5367POPC   C1A67527  25.156  30.665   6.268
 5367POPC   D2A67528  24.969  30.480   6.643
 5367POPC   C3A67529  25.044  30.664   7.045
 5367POPC   C4A67530  25.129  30.549   7.458
 5367POPC   C1B67531  25.683  30.688   6.168
 5367POPC   C2B67532  25.519  30.826   6.575
 5367POPC   C3B67533  25.509  30.555   6.917
 5367POPC   C4B67534  25.648  30.594   7.321
 5368POPC   NC367535  13.900  36.337   5.390
 5368POPC   PO467536  13.588  35.807   5.512
 5368POPC   GL167537  13.449  36.080   5.824
 5368POPC   GL267538  13.742  36.308   5.869
 5368POPC   C1A67539  13.492  36.014   6.269
 5368POPC   D2A67540  13.664  35.779   6.612
 5368POPC   C3A67541  13.675  36.094   6.925
 5368POPC   C4A67542  13.414  36.383   7.183
 5368POPC   C1B67543  13.843  36.583   6.180
 5368POPC   C2B67544  13.613  36.578   6.547
 5368POPC   C3B67545  13.807  36.582   6.933
 5368POPC   C4B67546  14.073  36.351   7.216
 5369POPC   NC367547  24.552  35.452   5.443
 5369POPC   PO467548  24.790  34.851   5.598
 5369POPC   GL167549  24.780  35.020   5.974
 5369POPC   GL267550  24.468  35.196   5.901
 5369POPC   C1A67551  24.717  35.174   6.389
 5369POPC   D2A67552  24.327  35.330   6.613
 5369POPC   C3A67553  24.432  35.268   7.044
 5369POPC   C4A67554  24.700  35.382   7.409
 5369POPC   C1B67555  24.611  35.586   6.082
 5369POPC   C2B67556  24.694  35.675   6.500
 5369POPC   C3B67557  24.560  35.744   6.916
 5369POPC   C4B67558  24.791  35.894   7.254
 5370POPC   NC367559  10.718  22.012   5.362
 5370POPC   PO467560  11.343  22.195   5.439
 5370POPC   GL167561  11.184  22.320   5.817
 5370POPC   GL267562  11.157  21.962   5.931
 5370POPC   C1A67563  11.342  22.345   6.237
 5370POPC   D2A67564  11.246  22.013   6.520
 5370POPC   C3A67565  11.261  22.150   6.937
 5370POPC   C4A67566  11.063  22.442   7.218
 5370POPC   C1B67567  11.577  21.879   6.153
 5370POPC   C2B67568  11.701  21.773   6.616
 5370POPC   C3B67569  11.610  21.790   7.094
 5370POPC   C4B67570  11.405  22.087   7.437
 5371POPC   NC367571   6.418  11.566   5.501
 5371POPC   PO467572   7.093  11.474   5.684
 5371POPC   GL167573   6.701  11.309   5.877
 5371POPC   GL267574   6.336  11.156   5.817
 5371POPC   C1A67575   6.565  11.507   6.269
 5371POPC   D2A67576   6.593  11.731   6.668
 5371POPC   C3A67577   6.628  11.399   6.962
 5371POPC   C4A67578   6.290  11.362   7.168
 5371POPC   C1B67579   6.475  10.999   6.219
 5371POPC   C2B67580   6.728  11.074   6.568
 5371POPC   C3B67581   6.753  10.892   6.981
 5371POPC   C4B67582   6.562  10.965   7.382
 5372POPC   NC367583  35.935  41.176   5.412
 5372POPC   PO467584  35.380  40.802   5.294
 5372POPC   GL167585  35.427  40.747   5.724
 5372POPC   GL267586  35.567  41.056   5.733
 5372POPC   C1A67587  35.332  40.672   6.192
 5372POPC   D2A67588  34.980  40.639   6.527
 5372POPC   C3A67589  35.045  40.661   6.975
 5372POPC   C4A67590  35.359  40.529   7.249
 5372POPC   C1B67591  35.635  41.106   6.140
 5372POPC   C2B67592  35.411  41.091   6.520
 5372POPC   C3B67593  35.392  41.059   6.963
 5372POPC   C4B67594  35.711  40.896   7.213
 5373POPC   NC367595  15.527  23.902   5.455
 5373POPC   PO467596  14.939  23.626   5.155
 5373POPC   GL167597  15.103  23.599   5.632
 5373POPC   GL267598  15.224  23.898   5.880
 5373POPC   C1A67599  14.942  23.548   6.086
 5373POPC   D2A67600  15.093  23.818   6.431
 5373POPC   C3A67601  15.128  23.679   6.850
 5373POPC   C4A67602  14.951  23.534   7.267
 5373POPC   C1B67603  15.549  24.028   6.188
 5373POPC   C2B67604  15.726  24.082   6.627
 5373POPC   C3B67605  15.588  24.026   7.061
 5373POPC   C4B67606  15.178  23.988   7.245
 5374POPC   NC367607  30.883   7.104   5.365
 5374POPC   PO467608  30.613   7.729   5.424
 5374POPC   GL167609  30.699   7.452   5.739
 5374POPC   GL267610  31.032   7.484   5.679
 5374POPC   C1A67611  30.622   7.554   6.180
 5374POPC   D2A67612  30.569   7.331   6.575
 5374POPC   C3A67613  30.717   7.484   6.956
 5374POPC   C4A67614  30.770   7.225   7.325
 5374POPC   C1B67615  31.142   7.529   6.111
 5374POPC   C2B67616  31.020   7.621   6.533
 5374POPC   C3B67617  31.216   7.586   6.936
 5374POPC   C4B67618  31.040   7.654   7.351
 5375POPC   NC367619  37.010  11.681   5.423
 5375POPC   PO467620  36.590  12.203   5.316
 5375POPC   GL167621  36.770  12.060   5.712
 5375POPC   GL267622  36.631  11.808   5.793
 5375POPC   C1A67623  37.024  11.964   6.130
 5375POPC   D2A67624  37.100  12.154   6.582
 5375POPC   C3A67625  36.975  11.978   7.016
 5375POPC   C4A67626  37.025  12.139   7.489
 5375POPC   C1B67627  36.552  11.817   6.192
 5375POPC   C2B67628  36.590  12.029   6.590
 5375POPC   C3B67629  36.450  11.884   6.987
 5375POPC   C4B67630  36.607  11.890   7.384
 5376POPC   NC367631  26.794  14.355   5.408
 5376POPC   PO467632  27.248  13.926   5.642
 5376POPC   GL167633  26.986  14.219   5.866
 5376POPC   GL267634  26.640  14.147   5.843
 5376POPC   C1A67635  26.884  14.394   6.294
 5376POPC   D2A67636  27.012  14.574   6.717
 5376POPC   C3A67637  26.966  14.364   7.138
 5376POPC   C4A67638  27.074  14.538   7.541
 5376POPC   C1B67639  26.408  14.405   6.110
 5376POPC   C2B67640  26.393  14.562   6.503
 5376POPC   C3B67641  26.531  14.498   6.902
 5376POPC   C4B67642  26.478  14.762   7.223
 5377POPC   NC367643  31.090  27.572   5.089
 5377POPC   PO467644  30.519  27.565   5.400
 5377POPC   GL167645  30.720  27.597   5.791
 5377POPC   GL267646  31.059  27.611   5.701
 5377POPC   C1A67647  30.580  27.428   6.197
 5377POPC   D2A67648  30.441  27.280   6.585
 5377POPC   C3A67649  30.593  27.595   6.851
 5377POPC   C4A67650  30.636  27.625   7.259
 5377POPC   C1B67651  31.060  27.310   6.060
 5377POPC   C2B67652  30.941  27.079   6.420
 5377POPC   C3B67653  30.864  27.147   6.872
 5377POPC   C4B67654  31.037  27.322   7.258
 5378POPC   NC367655  38.758  43.302   5.589
 5378POPC   PO467656  38.266  42.862   5.599
 5378POPC   GL167657  38.403  43.103   5.930
 5378POPC   GL267658  38.725  42.999   5.999
 5378POPC   C1A67659  38.316  43.012   6.374
 5378POPC   D2A67660  38.493  42.749   6.692
 5378POPC   C3A67661  38.369  42.870   7.140
 5378POPC   C4A67662  38.262  42.795   7.623
 5378POPC   C1B67663  38.693  43.332   6.306
 5378POPC   C2B67664  38.761  43.188   6.677
 5378POPC   C3B67665  38.872  42.929   6.996
 5378POPC   C4B67666  38.793  42.939   7.407
 5379POPC   NC367667  11.604  14.278   5.556
 5379POPC   PO467668  11.023  14.421   5.349
 5379POPC   GL167669  11.167  14.429   5.825
 5379POPC   GL267670  11.476  14.388   6.026
 5379POPC   C1A67671  11.041  14.224   6.265
 5379POPC   D2A67672  11.161  14.011   6.685
 5379POPC   C3A67673  11.137  14.207   7.095
 5379POPC   C4A67674  10.949  14.623   7.223
 5379POPC   C1B67675  11.328  14.666   6.342
 5379POPC   C2B67676  11.218  14.594   6.773
 5379POPC   C3B67677  11.453  14.648   7.193
 5379POPC   C4B67678  11.631  14.797   7.615
 5380POPC   NC367679  40.617  38.345   5.589
 5380POPC   PO467680  41.224  38.545   5.442
 5380POPC   GL167681  41.060  38.422   5.838
 5380POPC   GL267682  40.871  38.752   5.788
 5380POPC   C1A67683  40.765  38.479   6.218
 5380POPC   D2A67684  40.585  38.640   6.618
 5380POPC   C3A67685  40.722  38.317   6.907
 5380POPC   C4A67686  41.099  38.272   7.122
 5380POPC   C1B67687  41.143  38.831   6.152
 5380POPC   C2B67688  41.127  38.634   6.569
 5380POPC   C3B67689  40.993  38.769   6.966
 5380POPC   C4B67690  40.604  38.735   7.201
 5381POPC   NC367691  19.631  12.908   5.355
 5381POPC   PO467692  20.184  12.576   5.385
 5381POPC   GL167693  19.890  12.721   5.751
 5381POPC   GL267694  19.564  12.526   5.761
 5381POPC   C1A67695  19.710  12.899   6.144
 5381POPC   D2A67696  19.671  13.117   6.536
 5381POPC   C3A67697  19.841  12.956   6.906
 5381POPC   C4A67698  19.871  13.163   7.292
 5381POPC   C1B67699  19.683  12.399   6.203
 5381POPC   C2B67700  19.528  12.608   6.572
 5381POPC   C3B67701  19.680  12.492   6.965
 5381POPC   C4B67702  19.782  12.654   7.326
 5382POPC   NC367703  15.338   1.964   5.065
 5382POPC   PO467704  14.804   2.205   5.424
 5382POPC   GL167705  14.993   2.114   5.828
 5382POPC   GL267706  15.089   1.803   5.877
 5382POPC   C1A67707  14.845   2.074   6.271
 5382POPC   D2A67708  15.059   2.081   6.679
 5382POPC   C3A67709  14.851   2.015   7.061
 5382POPC   C4A67710  14.878   2.242   7.392
 5382POPC   C1B67711  15.310   1.835   6.246
 5382POPC   C2B67712  15.264   1.620   6.601
 5382POPC   C3B67713  15.328   1.709   7.014
 5382POPC   C4B67714  15.356   2.059   7.216
 5383POPC   NC367715  43.252   5.637   5.160
 5383POPC   PO467716  43.618   6.089   5.470
 5383POPC   GL167717  43.314   5.846   5.692
 5383POPC   GL267718  42.989   5.961   5.624
 5383POPC   C1A67719  43.119   5.700   6.086
 5383POPC   D2A67720  43.238   5.787   6.519
 5383POPC   C3A67721  43.182   5.526   6.906
 5383POPC   C4A67722  43.220   5.779   7.305
 5383POPC   C1B67723  42.982   6.193   6.056
 5383POPC   C2B67724  42.814   6.088   6.471
 5383POPC   C3B67725  42.913   5.957   6.888
 5383POPC   C4B67726  42.818   6.105   7.306
 5384POPC   NC367727  22.081  27.805   5.509
 5384POPC   PO467728  22.482  27.360   5.265
 5384POPC   GL167729  22.471  27.541   5.693
 5384POPC   GL267730  22.391  27.204   5.764
 5384POPC   C1A67731  22.292  27.775   6.125
 5384POPC   D2A67732  22.078  27.642   6.541
 5384POPC   C3A67733  22.311  27.791   6.911
 5384POPC   C4A67734  22.336  28.139   7.213
 5384POPC   C1B67735  22.207  27.281   6.149
 5384POPC   C2B67736  22.272  27.124   6.539
 5384POPC   C3B67737  22.211  27.283   6.911
 5384POPC   C4B67738  22.365  27.454   7.274
 5385POPC   NC367739  27.990  26.983   5.521
 5385POPC   PO467740  27.400  26.866   5.213
 5385POPC   GL167741  27.477  26.902   5.661
 5385POPC   GL267742  27.304  27.145   5.861
 5385POPC   C1A67743  27.576  26.698   6.041
 5385POPC   D2A67744  27.747  26.917   6.383
 5385POPC   C3A67745  27.779  26.863   6.828
 5385POPC   C4A67746  27.863  26.699   7.230
 5385POPC   C1B67747  27.227  27.031   6.277
 5385POPC   C2B67748  27.284  26.820   6.683
 5385POPC   C3B67749  27.251  26.935   7.112
 5385POPC   C4B67750  27.276  26.879   7.571
 5386POPC   NC367751   8.138  36.507   5.357
 5386POPC   PO467752   8.345  35.985   5.237
 5386POPC   GL167753   8.235  36.120   5.685
 5386POPC   GL267754   7.878  36.155   5.637
 5386POPC   C1A67755   8.345  36.100   6.166
 5386POPC   D2A67756   8.095  35.931   6.551
 5386POPC   C3A67757   8.294  35.985   6.963
 5386POPC   C4A67758   8.351  35.808   7.395
 5386POPC   C1B67759   7.859  36.221   6.070
 5386POPC   C2B67760   8.029  36.438   6.420
 5386POPC   C3B67761   7.976  36.364   6.852
 5386POPC   C4B67762   7.910  36.145   7.252
 5387POPC   NC367763  37.577  17.230   5.306
 5387POPC   PO467764  37.960  17.695   5.569
 5387POPC   GL167765  37.932  17.444   5.903
 5387POPC   GL267766  37.627  17.651   5.983
 5387POPC   C1A67767  37.915  17.469   6.350
 5387POPC   D2A67768  37.594  17.571   6.610
 5387POPC   C3A67769  37.772  17.562   7.020
 5387POPC   C4A67770  37.659  17.688   7.417
 5387POPC   C1B67771  37.470  17.235   6.077
 5387POPC   C2B67772  37.384  17.076   6.498
 5387POPC   C3B67773  37.333  17.246   6.927
 5387POPC   C4B67774  37.550  17.178   7.333
 5388POPC   NC367775   9.323  27.903   5.727
 5388POPC   PO467776   8.828  27.616   5.345
 5388POPC   GL167777   8.845  27.522   5.789
 5388POPC   GL267778   8.714  27.191   5.827
 5388POPC   C1A67779   8.724  27.695   6.218
 5388POPC   D2A67780   8.596  27.557   6.666
 5388POPC   C3A67781   8.782  27.746   7.068
 5388POPC   C4A67782   9.130  27.560   7.341
 5388POPC   C1B67783   8.775  27.198   6.243
 5388POPC   C2B67784   9.116  27.370   6.450
 5388POPC   C3B67785   9.101  27.381   6.871
 5388POPC   C4B67786   8.779  27.207   7.155
 5389POPC   NC367787  30.723  19.804   5.624
 5389POPC   PO467788  30.342  19.413   5.246
 5389POPC   GL167789  30.486  19.381   5.747
 5389POPC   GL267790  30.299  19.607   5.884
 5389POPC   C1A67791  30.689  19.643   6.220
 5389POPC   D2A67792  30.627  19.942   6.603
 5389POPC   C3A67793  30.941  20.036   6.922
 5389POPC   C4A67794  31.083  19.690   7.151
 5389POPC   C1B67795  30.278  19.960   6.193
 5389POPC   C2B67796  30.186  20.210   6.562
 5389POPC   C3B67797  30.202  20.024   6.984
 5389POPC   C4B67798  30.343  19.998   7.444
 5390POPC   NC367799  43.024  15.307   5.310
 5390POPC   PO467800  43.219  14.742   5.569
 5390POPC   GL167801  43.131  15.100   5.845
 5390POPC   GL267802  42.812  15.227   5.869
 5390POPC   C1A67803  43.273  15.260   6.262
 5390POPC   D2A67804  43.438  15.158   6.633
 5390POPC   C3A67805  43.249  15.414   6.919
 5390POPC   C4A67806  42.972  15.266   7.222
 5390POPC   C1B67807  42.889  14.922   6.257
 5390POPC   C2B67808  42.921  15.055   6.705
 5390POPC   C3B67809  42.634  15.359   6.881
 5390POPC   C4B67810  42.392  15.542   7.218
 5391POPC   NC367811  25.959   5.735   5.475
 5391POPC   PO467812  26.369   6.215   5.639
 5391POPC   GL167813  26.160   5.884   5.913
 5391POPC   GL267814  26.289   5.525   5.833
 5391POPC   C1A67815  25.961   5.880   6.314
 5391POPC   D2A67816  26.312   5.868   6.629
 5391POPC   C3A67817  26.200   6.137   6.936
 5391POPC   C4A67818  25.967   6.026   7.306
 5391POPC   C1B67819  26.236   5.468   6.281
 5391POPC   C2B67820  25.976   5.478   6.666
 5391POPC   C3B67821  26.141   5.604   7.070
 5391POPC   C4B67822  26.264   5.669   7.518
 5392POPC   NC367823   7.430  29.361   5.575
 5392POPC   PO467824   6.992  28.943   5.238
 5392POPC   GL167825   7.078  28.982   5.732
 5392POPC   GL267826   7.435  28.989   5.916
 5392POPC   C1A67827   7.040  29.032   6.215
 5392POPC   D2A67828   7.015  28.957   6.677
 5392POPC   C3A67829   7.157  29.196   7.062
 5392POPC   C4A67830   7.363  29.109   7.468
 5392POPC   C1B67831   7.536  29.076   6.386
 5392POPC   C2B67832   7.574  28.987   6.822
 5392POPC   C3B67833   7.775  29.151   7.177
 5392POPC   C4B67834   7.759  29.451   7.529
 5393POPC   NC367835  17.377   7.556   5.389
 5393POPC   PO467836  17.908   7.002   5.402
 5393POPC   GL167837  17.700   7.329   5.717
 5393POPC   GL267838  17.688   7.678   5.781
 5393POPC   C1A67839  17.472   7.279   6.111
 5393POPC   D2A67840  17.640   7.258   6.514
 5393POPC   C3A67841  17.430   7.326   6.867
 5393POPC   C4A67842  17.407   7.455   7.274
 5393POPC   C1B67843  17.286   7.743   6.036
 5393POPC   C2B67844  17.284   7.693   6.503
 5393POPC   C3B67845  17.146   7.770   6.972
 5393POPC   C4B67846  17.204   7.885   7.459
 5394POPC   NC367847  29.796   0.841   5.308
 5394POPC   PO467848  29.587   0.229   5.337
 5394POPC   GL167849  29.915   0.413   5.606
 5394POPC   GL267850  29.666   0.522   5.787
 5394POPC   C1A67851  30.092   0.420   6.052
 5394POPC   D2A67852  29.909   0.180   6.413
 5394POPC   C3A67853  29.864   0.315   6.840
 5394POPC   C4A67854  29.613   0.238   7.203
 5394POPC   C1B67855  29.571   0.501   6.209
 5394POPC   C2B67856  29.488   0.635   6.631
 5394POPC   C3B67857  29.551   0.702   7.064
 5394POPC   C4B67858  29.478   0.602   7.521
 5395POPC   NC367859  23.273   9.638   5.509
 5395POPC   PO467860  22.678  10.106   5.500
 5395POPC   GL167861  22.910  10.047   5.889
 5395POPC   GL267862  23.019   9.707   5.942
 5395POPC   C1A67863  23.061  10.001   6.352
 5395POPC   D2A67864  23.086   9.637   6.657
 5395POPC   C3A67865  22.762   9.600   6.977
 5395POPC   C4A67866  22.650   9.687   7.392
 5395POPC   C1B67867  23.374   9.503   6.181
 5395POPC   C2B67868  23.396   9.237   6.540
 5395POPC   C3B67869  23.448   9.387   6.974
 5395POPC   C4B67870  23.164   9.453   7.285
 5396POPC   NC367871  22.399  36.267   5.007
 5396POPC   PO467872  21.857  36.325   5.422
 5396POPC   GL167873  22.017  36.349   5.841
 5396POPC   GL267874  22.364  36.305   5.803
 5396POPC   C1A67875  22.040  36.198   6.287
 5396POPC   D2A67876  21.788  36.304   6.650
 5396POPC   C3A67877  21.905  36.245   7.061
 5396POPC   C4A67878  21.802  35.912   7.318
 5396POPC   C1B67879  22.409  36.536   6.199
 5396POPC   C2B67880  22.467  36.319   6.610
 5396POPC   C3B67881  22.389  36.017   6.979
 5396POPC   C4B67882  22.268  36.094   7.422
 5397POPC   NC367883  33.996  23.062   5.449
 5397POPC   PO467884  33.602  22.413   5.495
 5397POPC   GL167885  33.868  22.673   5.743
 5397POPC   GL267886  33.634  22.933   5.807
 5397POPC   C1A67887  34.053  22.851   6.108
 5397POPC   D2A67888  33.851  22.951   6.467
 5397POPC   C3A67889  33.970  22.877   6.871
 5397POPC   C4A67890  34.061  23.093   7.181
 5397POPC   C1B67891  33.580  22.594   6.146
 5397POPC   C2B67892  33.743  22.435   6.526
 5397POPC   C3B67893  33.611  22.546   6.908
 5397POPC   C4B67894  33.537  22.902   7.144
 5398POPC   NC367895  39.482  37.083   5.609
 5398POPC   PO467896  38.910  36.662   5.667
 5398POPC   GL167897  39.266  36.736   5.926
 5398POPC   GL267898  39.385  36.399   5.854
 5398POPC   C1A67899  39.235  36.884   6.377
 5398POPC   D2A67900  38.960  37.034   6.745
 5398POPC   C3A67901  39.159  37.039   7.119
 5398POPC   C4A67902  39.577  36.941   7.178
 5398POPC   C1B67903  39.153  36.352   6.240
 5398POPC   C2B67904  39.376  36.451   6.612
 5398POPC   C3B67905  39.272  36.545   7.015
 5398POPC   C4B67906  39.488  36.494   7.436
 5399POPC   NC367907  39.517  28.415   5.234
 5399POPC   PO467908  39.070  28.082   5.504
 5399POPC   GL167909  39.050  28.265   5.894
 5399POPC   GL267910  39.253  28.551   5.860
 5399POPC   C1A67911  39.049  28.423   6.324
 5399POPC   D2A67912  39.154  28.172   6.674
 5399POPC   C3A67913  39.218  28.369   7.052
 5399POPC   C4A67914  39.168  28.229   7.453
 5399POPC   C1B67915  39.563  28.637   6.176
 5399POPC   C2B67916  39.488  28.560   6.602
 5399POPC   C3B67917  39.704  28.546   6.979
 5399POPC   C4B67918  39.576  28.509   7.453
 5400POPC   NC367919   4.370   6.259   5.388
 5400POPC   PO467920   4.581   5.624   5.405
 5400POPC   GL167921   4.240   5.716   5.737
 5400POPC   GL267922   4.200   6.083   5.870
 5400POPC   C1A67923   4.148   5.668   6.190
 5400POPC   D2A67924   4.203   5.866   6.603
 5400POPC   C3A67925   4.247   5.653   7.011
 5400POPC   C4A67926   4.248   5.723   7.475
 5400POPC   C1B67927   3.931   6.160   6.258
 5400POPC   C2B67928   3.739   6.277   6.665
 5400POPC   C3B67929   3.935   6.060   6.990
 5400POPC   C4B67930   4.153   6.192   7.305
 5401POPC   NC367931  10.762  30.136   5.563
 5401POPC   PO467932  10.364  29.574   5.463
 5401POPC   GL167933  10.420  29.844   5.841
 5401POPC   GL267934  10.252  30.205   5.764
 5401POPC   C1A67935  10.669  29.706   6.208
 5401POPC   D2A67936  10.930  29.765   6.588
 5401POPC   C3A67937  10.633  29.736   6.904
 5401POPC   C4A67938  10.571  29.589   7.274
 5401POPC   C1B67939  10.451  30.327   6.153
 5401POPC   C2B67940  10.508  30.078   6.523
 5401POPC   C3B67941  10.473  30.206   6.956
 5401POPC   C4B67942  10.894  30.179   7.165
 5402POPC   NC367943   1.755  17.279   5.625
 5402POPC   PO467944   1.950  16.666   5.381
 5402POPC   GL167945   1.990  16.800   5.799
 5402POPC   GL267946   1.649  16.781   5.848
 5402POPC   C1A67947   1.981  16.921   6.233
 5402POPC   D2A67948   1.842  17.024   6.644
 5402POPC   C3A67949   2.094  16.897   7.006
 5402POPC   C4A67950   2.095  16.490   7.163
 5402POPC   C1B67951   1.638  16.523   6.212
 5402POPC   C2B67952   1.504  16.613   6.617
 5402POPC   C3B67953   1.637  16.681   7.057
 5402POPC   C4B67954   1.722  16.530   7.518
 5403POPC   NC367955  23.257  23.686   5.324
 5403POPC   PO467956  22.539  23.503   5.412
 5403POPC   GL167957  22.793  23.752   5.672
 5403POPC   GL267958  22.523  23.897   5.845
 5403POPC   C1A67959  23.102  23.806   6.021
 5403POPC   D2A67960  23.036  23.723   6.460
 5403POPC   C3A67961  23.214  23.833   6.843
 5403POPC   C4A67962  23.086  23.832   7.281
 5403POPC   C1B67963  22.552  23.673   6.230
 5403POPC   C2B67964  22.581  23.803   6.666
 5403POPC   C3B67965  22.666  23.645   7.074
 5403POPC   C4B67966  22.476  23.426   7.408
 5404POPC   NC367967  29.340  34.430   5.313
 5404POPC   PO467968  29.245  35.078   5.425
 5404POPC   GL167969  29.094  34.719   5.698
 5404POPC   GL267970  29.321  34.431   5.815
 5404POPC   C1A67971  28.983  34.671   6.133
 5404POPC   D2A67972  29.178  34.606   6.559
 5404POPC   C3A67973  28.950  34.557   6.930
 5404POPC   C4A67974  28.783  34.688   7.367
 5404POPC   C1B67975  29.547  34.572   6.201
 5404POPC   C2B67976  29.663  34.445   6.625
 5404POPC   C3B67977  29.532  34.642   6.991
 5404POPC   C4B67978  29.325  34.566   7.384
 5405POPC   NC367979  17.949  15.014   5.653
 5405POPC   PO467980  17.385  14.716   5.383
 5405POPC   GL167981  17.438  14.958   5.777
 5405POPC   GL267982  17.339  15.318   5.821
 5405POPC   C1A67983  17.575  15.001   6.216
 5405POPC   D2A67984  17.406  14.986   6.641
 5405POPC   C3A67985  17.766  15.063   6.895
 5405POPC   C4A67986  17.866  15.276   7.289
 5405POPC   C1B67987  17.172  15.344   6.262
 5405POPC   C2B67988  17.307  15.504   6.688
 5405POPC   C3B67989  17.410  15.357   7.115
 5405POPC   C4B67990  17.401  15.511   7.541
 5406POPC   NC367991  16.084  33.380   5.236
 5406POPC   PO467992  16.162  32.758   5.070
 5406POPC   GL167993  16.147  32.929   5.586
 5406POPC   GL267994  16.217  33.279   5.726
 5406POPC   C1A67995  15.941  32.964   6.051
 5406POPC   D2A67996  15.642  32.966   6.440
 5406POPC   C3A67997  15.751  33.050   6.892
 5406POPC   C4A67998  15.915  32.828   7.263
 5406POPC   C1B67999  16.277  33.328   6.181
 5406POPC   C2B68000  16.180  33.439   6.605
 5406POPC   C3B68001  16.271  33.608   7.014
 5406POPC   C4B68002  16.143  33.390   7.357
 5407POPC   NC368003  20.667  23.221   5.310
 5407POPC   PO468004  20.377  23.773   5.151
 5407POPC   GL168005  20.421  23.560   5.659
 5407POPC   GL268006  20.067  23.426   5.828
 5407POPC   C1A68007  20.677  23.567   6.103
 5407POPC   D2A68008  20.981  23.690   6.470
 5407POPC   C3A68009  20.825  23.717   6.921
 5407POPC   C4A68010  20.533  23.743   7.256
 5407POPC   C1B68011  20.190  23.661   6.190
 5407POPC   C2B68012  20.439  23.597   6.583
 5407POPC   C3B68013  20.432  23.336   6.943
 5407POPC   C4B68014  20.332  23.111   7.332
 5408POPC   NC368015  41.478  11.638   5.469
 5408POPC   PO468016  41.931  11.171   5.142
 5408POPC   GL168017  41.553  11.169   5.621
 5408POPC   GL268018  41.695  11.498   5.883
 5408POPC   C1A68019  41.317  11.298   6.096
 5408POPC   D2A68020  41.399  11.238   6.564
 5408POPC   C3A68021  41.322  11.476   6.958
 5408POPC   C4A68022  41.427  11.258   7.348
 5408POPC   C1B68023  41.746  11.721   6.245
 5408POPC   C2B68024  41.789  11.606   6.648
 5408POPC   C3B68025  41.820  11.478   7.035
 5408POPC   C4B68026  41.648  11.717   7.345
 5409POPC   NC368027  30.385  25.415   5.431
 5409POPC   PO468028  29.801  25.090   5.381
 5409POPC   GL168029  29.834  25.176   5.768
 5409POPC   GL268030  30.186  25.031   5.733
 5409POPC   C1A68031  29.680  25.131   6.199
 5409POPC   D2A68032  29.654  25.412   6.571
 5409POPC   C3A68033  29.853  25.254   6.928
 5409POPC   C4A68034  30.053  25.555   7.141
 5409POPC   C1B68035  30.189  25.244   6.115
 5409POPC   C2B68036  30.149  25.060   6.521
 5409POPC   C3B68037  30.461  24.902   6.802
 5409POPC   C4B68038  30.333  25.072   7.170
 5410POPC   NC368039   7.066  28.351   5.603
 5410POPC   PO468040   7.587  28.613   5.230
 5410POPC   GL168041   7.584  28.539   5.734
 5410POPC   GL268042   7.389  28.271   5.974
 5410POPC   C1A68043   7.637  28.623   6.204
 5410POPC   D2A68044   7.520  28.514   6.611
 5410POPC   C3A68045   7.818  28.521   6.933
 5410POPC   C4A68046   7.844  28.228   7.258
 5410POPC   C1B68047   7.066  28.399   6.309
 5410POPC   C2B68048   7.040  28.454   6.767
 5410POPC   C3B68049   7.250  28.673   7.080
 5410POPC   C4B68050   6.939  28.809   7.352
 5411POPC   NC368051  15.303  23.395   4.995
 5411POPC   PO468052  15.223  22.875   5.390
 5411POPC   GL168053  15.238  22.799   5.825
 5411POPC   GL268054  15.024  23.098   5.822
 5411POPC   C1A68055  15.117  22.740   6.288
 5411POPC   D2A68056  15.360  22.822   6.667
 5411POPC   C3A68057  15.199  22.690   7.032
 5411POPC   C4A68058  14.751  22.709   7.132
 5411POPC   C1B68059  15.299  23.180   6.158
 5411POPC   C2B68060  15.118  23.275   6.531
 5411POPC   C3B68061  15.084  23.170   6.956
 5411POPC   C4B68062  15.261  23.064   7.362
 5412POPC   NC368063  33.098  44.169   5.626
 5412POPC   PO468064  32.895  43.493   5.573
 5412POPC   GL168065  33.015  43.713   5.865
 5412POPC   GL268066  32.736  43.910   5.897
 5412POPC   C1A68067  33.177  43.755   6.251
 5412POPC   D2A68068  33.170  43.992   6.614
 5412POPC   C3A68069  33.145  43.701   6.924
 5412POPC   C4A68070  32.944  43.648   7.300
 5412POPC   C1B68071  32.840  44.148   6.246
 5412POPC   C2B68072  32.673  44.165   6.645
 5412POPC   C3B68073  32.879  44.124   7.023
 5412POPC   C4B68074  32.753  44.143   7.424
 5413POPC   NC368075  36.469  24.307   5.547
 5413POPC   PO468076  36.044  24.818   5.445
 5413POPC   GL168077  36.085  24.559   5.801
 5413POPC   GL268078  36.343  24.763   5.913
 5413POPC   C1A68079  36.192  24.425   6.270
 5413POPC   D2A68080  36.259  24.619   6.708
 5413POPC   C3A68081  36.045  24.450   7.072
 5413POPC   C4A68082  36.396  24.217   7.209
 5413POPC   C1B68083  35.927  24.851   6.185
 5413POPC   C2B68084  35.780  24.758   6.623
 5413POPC   C3B68085  35.773  24.929   7.080
 5413POPC   C4B68086  35.813  24.687   7.504
 5414POPC   NC368087  43.116  21.434   5.257
 5414POPC   PO468088  43.795  21.269   5.227
 5414POPC   GL168089  43.490  21.361   5.689
 5414POPC   GL268090  43.058  21.380   5.757
 5414POPC   C1A68091  43.324  21.266   6.162
 5414POPC   D2A68092  42.994  21.287   6.496
 5414POPC   C3A68093  43.221  21.402   6.846
 5414POPC   C4A68094  43.097  21.339   7.253
 5414POPC   C1B68095  42.918  21.654   6.108
 5414POPC   C2B68096  42.930  21.808   6.545
 5414POPC   C3B68097  42.838  21.704   6.951
 5414POPC   C4B68098  42.901  21.805   7.393
 5415POPC   NC368099  27.771  44.512   5.495
 5415POPC   PO468100  27.246  44.909   5.256
 5415POPC   GL168101  27.353  44.805   5.746
 5415POPC   GL268102  27.685  44.827   5.875
 5415POPC   C1A68103  27.328  44.871   6.251
 5415POPC   D2A68104  27.398  44.681   6.688
 5415POPC   C3A68105  27.627  44.853   7.070
 5415POPC   C4A68106  27.635  44.823   7.513
 5415POPC   C1B68107  27.690  44.530   6.182
 5415POPC   C2B68108  27.854  44.445   6.557
 5415POPC   C3B68109  27.741  44.359   6.945
 5415POPC   C4B68110  27.808  44.379   7.346
 5416POPC   NC368111  34.649   0.179   5.470
 5416POPC   PO468112  34.494   0.807   5.275
 5416POPC   GL168113  34.655   0.693   5.690
 5416POPC   GL268114  34.383   0.466   5.804
 5416POPC   C1A68115  34.612   0.740   6.170
 5416POPC   D2A68116  34.354   0.686   6.562
 5416POPC   C3A68117  34.570   0.603   6.985
 5416POPC   C4A68118  34.589   0.734   7.428
 5416POPC   C1B68119  34.445   0.221   6.187
 5416POPC   C2B68120  34.526   0.176   6.629
 5416POPC   C3B68121  34.479   0.091   7.053
 5416POPC   C4B68122  34.728   0.233   7.372
 5417POPC   NC368123   0.754   8.030   5.241
 5417POPC   PO468124   0.107   8.043   5.320
 5417POPC   GL168125   0.334   8.048   5.723
 5417POPC   GL268126   0.671   7.962   5.728
 5417POPC   C1A68127   0.372   7.984   6.164
 5417POPC   D2A68128   0.555   8.119   6.565
 5417POPC   C3A68129   0.294   7.964   6.904
 5417POPC   C4A68130   0.082   8.175   7.244
 5417POPC   C1B68131   0.873   8.096   6.099
 5417POPC   C2B68132   0.930   8.437   6.380
 5417POPC   C3B68133   0.816   8.481   6.816
 5417POPC   C4B68134   0.636   8.235   7.172
 5418POPC   NC368135  34.929  10.576   5.456
 5418POPC   PO468136  35.578  10.533   5.457
 5418POPC   GL168137  35.397  10.447   5.868
 5418POPC   GL268138  35.092  10.256   5.827
 5418POPC   C1A68139  35.323  10.581   6.325
 5418POPC   D2A68140  35.540  10.716   6.727
 5418POPC   C3A68141  35.442  10.936   7.117
 5418POPC   C4A68142  35.339  10.671   7.498
 5418POPC   C1B68143  34.986  10.179   6.242
 5418POPC   C2B68144  35.146  10.232   6.664
 5418POPC   C3B68145  35.114  10.432   7.086
 5418POPC   C4B68146  35.045  10.221   7.472
 5419POPC   NC368147  13.646  23.837   5.392
 5419POPC   PO468148  13.408  23.263   5.582
 5419POPC   GL168149  13.491  23.661   5.853
 5419POPC   GL268150  13.836  23.896   5.872
 5419POPC   C1A68151  13.632  23.642   6.279
 5419POPC   D2A68152  13.986  23.650   6.557
 5419POPC   C3A68153  13.799  23.627   6.955
 5419POPC   C4A68154  13.461  23.515   7.243
 5419POPC   C1B68155  13.651  24.150   6.236
 5419POPC   C2B68156  13.574  24.012   6.675
 5419POPC   C3B68157  13.753  24.139   7.086
 5419POPC   C4B68158  13.835  23.835   7.419
 5420POPC   NC368159  42.187  17.635   5.579
 5420POPC   PO468160  42.504  17.095   5.409
 5420POPC   GL168161  42.519  17.350   5.828
 5420POPC   GL268162  42.218  17.283   5.969
 5420POPC   C1A68163  42.416  17.735   6.172
 5420POPC   D2A68164  42.359  17.883   6.630
 5420POPC   C3A68165  42.572  17.637   6.972
 5420POPC   C4A68166  42.651  17.683   7.409
 5420POPC   C1B68167  42.385  17.298   6.411
 5420POPC   C2B68168  42.159  17.414   6.788
 5420POPC   C3B68169  42.158  17.231   7.202
 5420POPC   C4B68170  41.845  17.041   7.489
 5421POPC   NC368171  31.026  11.329   5.316
 5421POPC   PO468172  30.396  11.025   5.376
 5421POPC   GL168173  30.550  11.194   5.781
 5421POPC   GL268174  30.774  11.501   5.746
 5421POPC   C1A68175  30.598  11.053   6.215
 5421POPC   D2A68176  30.423  10.915   6.614
 5421POPC   C3A68177  30.351  11.264   6.873
 5421POPC   C4A68178  30.650  11.461   7.094
 5421POPC   C1B68179  30.904  11.519   6.175
 5421POPC   C2B68180  30.740  11.405   6.574
 5421POPC   C3B68181  30.905  11.096   6.856
 5421POPC   C4B68182  31.029  11.099   7.277
 5422POPC   NC368183  34.305  29.243   5.425
 5422POPC   PO468184  34.857  29.724   5.553
 5422POPC   GL168185  34.708  29.503   5.971
 5422POPC   GL268186  34.508  29.189   5.943
 5422POPC   C1A68187  34.604  29.295   6.421
 5422POPC   D2A68188  34.350  29.018   6.710
 5422POPC   C3A68189  34.395  29.130   7.125
 5422POPC   C4A68190  34.772  29.375   7.151
 5422POPC   C1B68191  34.407  28.821   6.233
 5422POPC   C2B68192  34.597  28.597   6.606
 5422POPC   C3B68193  34.799  28.856   6.974
 5422POPC   C4B68194  34.701  28.918   7.459
 5423POPC   NC368195   2.811   3.125   5.451
 5423POPC   PO468196   2.629   2.521   5.203
 5423POPC   GL168197   2.681   2.667   5.650
 5423POPC   GL268198   2.509   2.956   5.808
 5423POPC   C1A68199   2.930   2.750   6.040
 5423POPC   D2A68200   2.843   2.736   6.497
 5423POPC   C3A68201   3.028   2.661   6.921
 5423POPC   C4A68202   2.950   2.611   7.363
 5423POPC   C1B68203   2.417   2.818   6.204
 5423POPC   C2B68204   2.404   2.989   6.590
 5423POPC   C3B68205   2.528   2.812   6.947
 5423POPC   C4B68206   2.440   2.803   7.358
 5424POPC   NC368207  13.733   5.283   5.470
 5424POPC   PO468208  13.340   4.717   5.479
 5424POPC   GL168209  13.431   5.043   5.815
 5424POPC   GL268210  13.783   4.911   5.843
 5424POPC   C1A68211  13.675   5.350   6.132
 5424POPC   D2A68212  14.038   5.369   6.464
 5424POPC   C3A68213  13.860   5.236   6.863
 5424POPC   C4A68214  13.581   5.228   7.206
 5424POPC   C1B68215  13.588   4.842   6.256
 5424POPC   C2B68216  13.682   4.773   6.671
 5424POPC   C3B68217  13.588   4.747   7.071
 5424POPC   C4B68218  13.973   4.844   7.245
 5425POPC   NC368219  30.067  14.817   5.335
 5425POPC   PO468220  29.529  14.685   5.644
 5425POPC   GL168221  29.968  14.561   5.778
 5425POPC   GL268222  30.066  14.188   5.793
 5425POPC   C1A68223  29.990  14.572   6.204
 5425POPC   D2A68224  29.658  14.675   6.505
 5425POPC   C3A68225  29.810  14.655   6.941
 5425POPC   C4A68226  30.043  14.598   7.345
 5425POPC   C1B68227  29.745  14.128   6.159
 5425POPC   C2B68228  29.749  14.194   6.631
 5425POPC   C3B68229  29.676  14.124   7.071
 5425POPC   C4B68230  29.890  14.109   7.449
 5426POPC   NC368231  25.188  24.095   5.423
 5426POPC   PO468232  25.115  23.438   5.465
 5426POPC   GL168233  25.303  23.517   5.858
 5426POPC   GL268234  25.393  23.865   5.863
 5426POPC   C1A68235  25.286  23.660   6.309
 5426POPC   D2A68236  25.201  23.442   6.693
 5426POPC   C3A68237  25.195  23.649   7.066
 5426POPC   C4A68238  25.074  23.543   7.450
 5426POPC   C1B68239  25.709  24.027   6.172
 5426POPC   C2B68240  25.781  23.904   6.591
 5426POPC   C3B68241  25.579  23.975   6.988
 5426POPC   C4B68242  25.361  24.068   7.352
 5427POPC   NC368243  12.654  37.964   5.559
 5427POPC   PO468244  13.287  37.694   5.347
 5427POPC   GL168245  13.088  37.613   5.761
 5427POPC   GL268246  12.750  37.497   5.790
 5427POPC   C1A68247  12.918  37.849   6.164
 5427POPC   D2A68248  12.673  37.881   6.558
 5427POPC   C3A68249  12.921  37.847   6.942
 5427POPC   C4A68250  12.835  38.005   7.356
 5427POPC   C1B68251  12.584  37.454   6.206
 5427POPC   C2B68252  12.404  37.418   6.632
 5427POPC   C3B68253  12.578  37.484   7.047
 5427POPC   C4B68254  12.912  37.438   7.289
 5428POPC   NC368255  22.824  26.326   5.541
 5428POPC   PO468256  22.644  25.740   5.705
 5428POPC   GL168257  22.852  25.997   5.941
 5428POPC   GL268258  23.188  26.128   5.933
 5428POPC   C1A68259  22.802  26.056   6.346
 5428POPC   D2A68260  22.550  26.148   6.659
 5428POPC   C3A68261  22.727  25.969   7.001
 5428POPC   C4A68262  22.685  26.313   7.245
 5428POPC   C1B68263  23.252  26.303   6.380
 5428POPC   C2B68264  23.060  26.355   6.799
 5428POPC   C3B68265  23.175  26.217   7.166
 5428POPC   C4B68266  23.336  25.829   7.242
 5429POPC   NC368267  21.023  11.605   5.640
 5429POPC   PO468268  20.585  11.313   5.240
 5429POPC   GL168269  20.673  11.234   5.691
 5429POPC   GL268270  20.422  11.399   5.897
 5429POPC   C1A68271  20.778  11.198   6.174
 5429POPC   D2A68272  20.459  11.273   6.534
 5429POPC   C3A68273  20.614  11.104   6.932
 5429POPC   C4A68274  20.763  11.040   7.391
 5429POPC   C1B68275  20.625  11.679   6.223
 5429POPC   C2B68276  20.585  11.870   6.576
 5429POPC   C3B68277  20.488  11.699   6.927
 5429POPC   C4B68278  20.605  11.498   7.269
 5430POPC   NC368279  33.365   6.094   5.373
 5430POPC   PO468280  32.753   5.809   5.283
 5430POPC   GL168281  32.946   5.822   5.698
 5430POPC   GL268282  32.707   6.015   5.855
 5430POPC   C1A68283  33.205   5.856   6.112
 5430POPC   D2A68284  33.130   6.029   6.558
 5430POPC   C3A68285  33.064   5.813   6.976
 5430POPC   C4A68286  33.287   5.575   7.262
 5430POPC   C1B68287  32.812   6.236   6.218
 5430POPC   C2B68288  32.666   6.234   6.655
 5430POPC   C3B68289  32.784   6.220   7.107
 5430POPC   C4B68290  32.800   6.252   7.591
 5431POPC   NC368291  23.354  26.666   5.455
 5431POPC   PO468292  23.994  26.899   5.434
 5431POPC   GL168293  23.752  26.760   5.786
 5431POPC   GL268294  23.502  27.048   5.804
 5431POPC   C1A68295  23.617  26.674   6.233
 5431POPC   D2A68296  23.711  26.494   6.647
 5431POPC   C3A68297  23.490  26.644   7.019
 5431POPC   C4A68298  23.421  26.987   7.353
 5431POPC   C1B68299  23.832  27.118   6.139
 5431POPC   C2B68300  23.910  26.997   6.582
 5431POPC   C3B68301  23.801  27.083   7.011
 5431POPC   C4B68302  23.852  27.346   7.374
 5432POPC   NC368303  21.930  29.511   5.471
 5432POPC   PO468304  22.453  28.969   5.377
 5432POPC   GL168305  22.372  29.061   5.788
 5432POPC   GL268306  22.354  29.420   5.761
 5432POPC   C1A68307  22.009  29.139   6.056
 5432POPC   D2A68308  21.956  29.344   6.444
 5432POPC   C3A68309  21.898  29.142   6.836
 5432POPC   C4A68310  22.129  29.267   7.167
 5432POPC   C1B68311  22.455  29.359   6.216
 5432POPC   C2B68312  22.407  29.569   6.598
 5432POPC   C3B68313  22.497  29.593   7.022
 5432POPC   C4B68314  22.412  29.582   7.458
 5433POPC   NC368315  44.693  11.494   5.456
 5433POPC   PO468316  44.816  10.884   5.424
 5433POPC   GL168317  44.720  11.082   5.820
 5433POPC   GL268318  44.523  11.379   5.955
 5433POPC   C1A68319  44.909  11.194   6.215
 5433POPC   D2A68320  44.828  11.459   6.573
 5433POPC   C3A68321  44.771  11.184   6.940
 5433POPC   C4A68322  44.946  11.345   7.297
 5433POPC   C1B68323  44.396  11.020   6.245
 5433POPC   C2B68324  44.163  11.001   6.658
 5433POPC   C3B68325  44.256  10.951   7.122
 5433POPC   C4B68326  44.486  11.156   7.468
 5434POPC   NC368327   6.947   2.835   5.465
 5434POPC   PO468328   6.326   2.517   5.429
 5434POPC   GL168329   6.546   2.680   5.812
 5434POPC   GL268330   6.866   2.516   5.844
 5434POPC   C1A68331   6.533   2.969   6.190
 5434POPC   D2A68332   6.778   3.154   6.563
 5434POPC   C3A68333   6.694   2.955   6.949
 5434POPC   C4A68334   6.421   2.681   7.179
 5434POPC   C1B68335   7.006   2.806   6.142
 5434POPC   C2B68336   6.933   2.669   6.546
 5434POPC   C3B68337   6.888   2.464   6.931
 5434POPC   C4B68338   6.863   2.578   7.348
 5435POPC   NC368339  13.650  27.449   4.971
 5435POPC   PO468340  14.143  27.702   5.380
 5435POPC   GL168341  13.856  27.608   5.739
 5435POPC   GL268342  13.490  27.650   5.625
 5435POPC   C1A68343  13.726  27.616   6.188
 5435POPC   D2A68344  13.774  27.372   6.597
 5435POPC   C3A68345  13.823  27.529   7.020
 5435POPC   C4A68346  13.543  27.789   7.260
 5435POPC   C1B68347  13.251  27.524   6.012
 5435POPC   C2B68348  13.275  27.648   6.474
 5435POPC   C3B68349  13.205  27.523   6.936
 5435POPC   C4B68350  13.291  27.333   7.352
 5436POPC   NC368351  24.434  27.257   5.472
 5436POPC   PO468352  24.822  26.666   5.403
 5436POPC   GL168353  24.629  26.895   5.766
 5436POPC   GL268354  24.271  26.932   5.852
 5436POPC   C1A68355  24.696  26.901   6.196
 5436POPC   D2A68356  24.947  26.915   6.555
 5436POPC   C3A68357  24.697  26.746   6.868
 5436POPC   C4A68358  24.574  26.873   7.257
 5436POPC   C1B68359  24.170  26.721   6.234
 5436POPC   C2B68360  24.232  26.575   6.667
 5436POPC   C3B68361  24.050  26.624   7.079
 5436POPC   C4B68362  24.103  26.897   7.446
 5437POPC   NC368363  24.092   1.937   5.172
 5437POPC   PO468364  24.782   1.666   5.319
 5437POPC   GL168365  24.513   1.709   5.693
 5437POPC   GL268366  24.585   2.027   5.859
 5437POPC   C1A68367  24.398   1.595   6.138
 5437POPC   D2A68368  24.594   1.671   6.539
 5437POPC   C3A68369  24.384   1.684   6.941
 5437POPC   C4A68370  24.767   1.814   7.115
 5437POPC   C1B68371  24.450   2.086   6.271
 5437POPC   C2B68372  24.289   2.125   6.674
 5437POPC   C3B68373  24.441   2.211   7.082
 5437POPC   C4B68374  24.691   2.553   7.256
 5438POPC   NC368375  34.432  13.360   5.242
 5438POPC   PO468376  34.711  12.754   5.406
 5438POPC   GL168377  34.554  12.924   5.759
 5438POPC   GL268378  34.225  12.807   5.820
 5438POPC   C1A68379  34.657  12.986   6.174
 5438POPC   D2A68380  34.728  12.826   6.570
 5438POPC   C3A68381  34.634  13.078   6.901
 5438POPC   C4A68382  34.648  12.983   7.323
 5438POPC   C1B68383  34.297  12.577   6.205
 5438POPC   C2B68384  34.290  12.596   6.639
 5438POPC   C3B68385  34.503  12.591   7.030
 5438POPC   C4B68386  34.367  12.560   7.483
 5439POPC   NC368387  12.024  12.866   5.241
 5439POPC   PO468388  12.511  13.169   5.662
 5439POPC   GL168389  12.089  12.997   5.733
 5439POPC   GL268390  11.996  12.662   5.769
 5439POPC   C1A68391  11.923  13.017   6.160
 5439POPC   D2A68392  12.095  12.942   6.585
 5439POPC   C3A68393  11.765  12.881   6.913
 5439POPC   C4A68394  11.937  12.948   7.318
 5439POPC   C1B68395  12.277  12.646   6.152
 5439POPC   C2B68396  12.311  12.448   6.576
 5439POPC   C3B68397  12.181  12.598   7.001
 5439POPC   C4B68398  11.786  12.429   7.211
 5440POPC   NC368399  19.898   6.267   5.424
 5440POPC   PO468400  19.544   6.837   5.564
 5440POPC   GL168401  19.738   6.653   5.894
 5440POPC   GL268402  20.046   6.554   5.833
 5440POPC   C1A68403  19.850   6.445   6.285
 5440POPC   D2A68404  19.622   6.605   6.599
 5440POPC   C3A68405  19.725   6.479   6.968
 5440POPC   C4A68406  19.682   6.854   7.198
 5440POPC   C1B68407  20.121   6.885   6.152
 5440POPC   C2B68408  20.196   6.809   6.552
 5440POPC   C3B68409  20.103   6.839   6.936
 5440POPC   C4B68410  20.074   6.585   7.315
 5441POPC   NC368411  12.851   5.624   5.555
 5441POPC   PO468412  13.114   6.242   5.567
 5441POPC   GL168413  12.846   6.042   5.876
 5441POPC   GL268414  12.535   6.193   5.849
 5441POPC   C1A68415  12.864   5.860   6.295
 5441POPC   D2A68416  12.853   5.507   6.588
 5441POPC   C3A68417  13.040   5.558   6.990
 5441POPC   C4A68418  12.926   5.655   7.435
 5441POPC   C1B68419  12.564   6.292   6.292
 5441POPC   C2B68420  12.800   6.242   6.696
 5441POPC   C3B68421  12.840   6.079   7.145
 5441POPC   C4B68422  12.766   6.139   7.643
 5442POPC   NC368423   6.104  14.805   5.429
 5442POPC   PO468424   5.716  15.350   5.387
 5442POPC   GL168425   5.854  15.136   5.762
 5442POPC   GL268426   6.140  15.315   5.814
 5442POPC   C1A68427   5.942  15.022   6.205
 5442POPC   D2A68428   5.936  15.185   6.637
 5442POPC   C3A68429   5.849  14.869   6.946
 5442POPC   C4A68430   5.724  14.915   7.388
 5442POPC   C1B68431   6.390  15.271   6.181
 5442POPC   C2B68432   6.415  15.391   6.588
 5442POPC   C3B68433   6.263  15.550   6.950
 5442POPC   C4B68434   6.033  15.269   7.181
 5443POPC   NC368435  12.570   3.122   5.486
 5443POPC   PO468436  12.907   2.448   5.467
 5443POPC   GL168437  13.031   2.704   5.829
 5443POPC   GL268438  12.957   3.028   5.813
 5443POPC   C1A68439  12.969   2.757   6.295
 5443POPC   D2A68440  12.882   2.969   6.708
 5443POPC   C3A68441  12.790   2.686   7.085
 5443POPC   C4A68442  12.508   2.316   7.129
 5443POPC   C1B68443  13.226   3.162   6.136
 5443POPC   C2B68444  13.226   3.372   6.513
 5443POPC   C3B68445  13.337   3.274   6.908
 5443POPC   C4B68446  13.031   3.143   7.194
 5444POPC   NC368447  16.211  20.036   5.444
 5444POPC   PO468448  15.921  19.475   5.711
 5444POPC   GL168449  16.032  19.737   6.001
 5444POPC   GL268450  15.935  20.019   5.865
 5444POPC   C1A68451  15.986  19.733   6.409
 5444POPC   D2A68452  15.909  19.746   6.821
 5444POPC   C3A68453  16.166  19.642   7.126
 5444POPC   C4A68454  15.776  19.499   7.352
 5444POPC   C1B68455  15.817  20.245   6.208
 5444POPC   C2B68456  15.899  20.377   6.624
 5444POPC   C3B68457  16.054  20.195   7.000
 5444POPC   C4B68458  15.845  19.989   7.300
 5445POPC   NC368459  23.267  31.725   5.395
 5445POPC   PO468460  22.642  31.291   5.439
 5445POPC   GL168461  22.756  31.315   5.873
 5445POPC   GL268462  23.071  31.521   5.866
 5445POPC   C1A68463  22.903  31.278   6.291
 5445POPC   D2A68464  23.073  31.527   6.600
 5445POPC   C3A68465  22.919  31.380   6.991
 5445POPC   C4A68466  23.174  31.238   7.284
 5445POPC   C1B68467  22.829  31.768   6.172
 5445POPC   C2B68468  22.768  31.965   6.575
 5445POPC   C3B68469  22.988  31.888   6.947
 5445POPC   C4B68470  22.941  31.821   7.330
 5446POPC   NC368471  25.958  31.389   5.361
 5446POPC   PO468472  26.188  31.922   5.562
 5446POPC   GL168473  25.917  31.751   5.816
 5446POPC   GL268474  26.120  31.459   5.838
 5446POPC   C1A68475  25.901  31.643   6.257
 5446POPC   D2A68476  25.771  31.430   6.618
 5446POPC   C3A68477  25.819  31.697   6.969
 5446POPC   C4A68478  25.929  31.566   7.425
 5446POPC   C1B68479  26.408  31.404   6.179
 5446POPC   C2B68480  26.291  31.513   6.583
 5446POPC   C3B68481  26.202  31.378   6.976
 5446POPC   C4B68482  26.368  31.286   7.365
 5447POPC   NC368483  32.083  36.259   5.402
 5447POPC   PO468484  32.609  35.882   5.642
 5447POPC   GL168485  32.247  35.943   5.929
 5447POPC   GL268486  32.096  36.268   5.905
 5447POPC   C1A68487  32.029  36.034   6.344
 5447POPC   D2A68488  31.918  36.330   6.683
 5447POPC   C3A68489  31.995  36.081   7.081
 5447POPC   C4A68490  32.265  35.811   7.336
 5447POPC   C1B68491  32.281  36.497   6.241
 5447POPC   C2B68492  32.451  36.440   6.669
 5447POPC   C3B68493  32.219  36.532   7.057
 5447POPC   C4B68494  32.201  36.338   7.491
 5448POPC   NC368495   2.742  17.109   5.536
 5448POPC   PO468496   2.926  16.505   5.522
 5448POPC   GL168497   2.773  16.695   5.875
 5448POPC   GL268498   3.012  16.951   5.947
 5448POPC   C1A68499   2.458  16.632   6.194
 5448POPC   D2A68500   2.331  16.742   6.599
 5448POPC   C3A68501   2.548  16.665   7.016
 5448POPC   C4A68502   2.632  17.009   7.283
 5448POPC   C1B68503   2.846  16.957   6.367
 5448POPC   C2B68504   2.970  16.751   6.745
 5448POPC   C3B68505   3.041  16.725   7.189
 5448POPC   C4B68506   3.106  17.184   7.246
 5449POPC   NC368507  37.677  30.085   5.631
 5449POPC   PO468508  37.311  29.921   5.044
 5449POPC   GL168509  37.263  29.713   5.582
 5449POPC   GL268510  37.578  29.492   5.741
 5449POPC   C1A68511  37.343  29.761   6.091
 5449POPC   D2A68512  37.438  30.062   6.425
 5449POPC   C3A68513  37.637  30.053   6.831
 5449POPC   C4A68514  37.594  29.890   7.226
 5449POPC   C1B68515  37.828  29.612   6.130
 5449POPC   C2B68516  37.932  29.816   6.504
 5449POPC   C3B68517  37.925  29.631   6.941
 5449POPC   C4B68518  37.939  29.345   7.323
 5450POPC   NC368519  29.434   4.179   5.279
 5450POPC   PO468520  28.854   4.476   5.358
 5450POPC   GL168521  29.025   4.597   5.753
 5450POPC   GL268522  29.292   4.346   5.799
 5450POPC   C1A68523  28.994   4.700   6.191
 5450POPC   D2A68524  29.041   4.800   6.614
 5450POPC   C3A68525  29.040   4.434   6.842
 5450POPC   C4A68526  29.051   4.559   7.222
 5450POPC   C1B68527  29.068   4.184   6.183
 5450POPC   C2B68528  29.176   3.964   6.578
 5450POPC   C3B68529  29.196   3.969   7.035
 5450POPC   C4B68530  28.815   4.096   7.208
 5451POPC   NC368531  10.136  22.240   5.279
 5451POPC   PO468532  10.184  22.719   5.695
 5451POPC   GL168533  10.278  22.282   5.833
 5451POPC   GL268534  10.622  22.109   5.852
 5451POPC   C1A68535  10.326  22.138   6.283
 5451POPC   D2A68536  10.352  22.296   6.720
 5451POPC   C3A68537  10.222  21.989   7.046
 5451POPC   C4A68538  10.005  21.778   7.419
 5451POPC   C1B68539  10.846  22.265   6.206
 5451POPC   C2B68540  10.904  22.388   6.629
 5451POPC   C3B68541  10.756  22.117   6.970
 5451POPC   C4B68542  10.558  22.329   7.287
 5452POPC   NC368543  27.988   8.849   5.402
 5452POPC   PO468544  27.333   8.827   5.572
 5452POPC   GL168545  27.695   8.902   5.833
 5452POPC   GL268546  27.604   9.239   5.879
 5452POPC   C1A68547  27.892   9.016   6.240
 5452POPC   D2A68548  27.718   8.927   6.660
 5452POPC   C3A68549  27.565   9.110   7.017
 5452POPC   C4A68550  27.823   8.917   7.328
 5452POPC   C1B68551  27.386   9.044   6.268
 5452POPC   C2B68552  27.177   8.922   6.657
 5452POPC   C3B68553  27.074   8.902   7.101
 5452POPC   C4B68554  26.898   8.977   7.489
 5453POPC   NC368555  27.183   6.822   5.095
 5453POPC   PO468556  27.489   6.320   5.477
 5453POPC   GL168557  27.572   6.413   5.909
 5453POPC   GL268558  27.452   6.739   5.820
 5453POPC   C1A68559  27.785   6.699   6.204
 5453POPC   D2A68560  27.615   6.754   6.580
 5453POPC   C3A68561  27.615   6.462   6.896
 5453POPC   C4A68562  27.639   6.691   7.244
 5453POPC   C1B68563  27.218   6.613   6.188
 5453POPC   C2B68564  27.129   6.535   6.583
 5453POPC   C3B68565  27.164   6.702   6.995
 5453POPC   C4B68566  27.237   6.408   7.334
 5454POPC   NC368567   2.774   9.586   5.515
 5454POPC   PO468568   2.431  10.171   5.518
 5454POPC   GL168569   2.621   9.963   5.864
 5454POPC   GL268570   2.967   9.936   5.866
 5454POPC   C1A68571   2.646   9.730   6.254
 5454POPC   D2A68572   2.584   9.425   6.572
 5454POPC   C3A68573   2.649   9.567   6.984
 5454POPC   C4A68574   2.898   9.418   7.339
 5454POPC   C1B68575   3.015  10.102   6.289
 5454POPC   C2B68576   2.880  10.001   6.711
 5454POPC   C3B68577   2.984   9.913   7.138
 5454POPC   C4B68578   3.176  10.131   7.520
 5455POPC   NC368579   6.760  20.184   5.560
 5455POPC   PO468580   6.375  19.666   5.539
 5455POPC   GL168581   6.550  19.893   5.936
 5455POPC   GL268582   6.928  19.919   5.978
 5455POPC   C1A68583   6.385  20.095   6.308
 5455POPC   D2A68584   6.466  20.300   6.678
 5455POPC   C3A68585   6.382  20.064   7.002
 5455POPC   C4A68586   6.660  19.987   7.299
 5455POPC   C1B68587   6.815  19.817   6.420
 5455POPC   C2B68588   6.896  20.044   6.814
 5455POPC   C3B68589   7.005  20.326   7.138
 5455POPC   C4B68590   6.991  20.208   7.619
 5456POPC   NC368591  20.803  34.785   5.561
 5456POPC   PO468592  20.245  34.362   5.456
 5456POPC   GL168593  20.487  34.473   5.830
 5456POPC   GL268594  20.310  34.798   5.847
 5456POPC   C1A68595  20.803  34.401   6.187
 5456POPC   D2A68596  20.680  34.309   6.568
 5456POPC   C3A68597  20.854  34.473   6.947
 5456POPC   C4A68598  20.546  34.564   7.235
 5456POPC   C1B68599  20.581  34.854   6.201
 5456POPC   C2B68600  20.504  34.776   6.632
 5456POPC   C3B68601  20.703  34.976   6.944
 5456POPC   C4B68602  20.872  34.971   7.305
 5457POPC   NC368603  15.648  42.877   5.683
 5457POPC   PO468604  16.072  43.326   5.486
 5457POPC   GL168605  15.973  43.225   5.903
 5457POPC   GL268606  16.169  42.924   5.885
 5457POPC   C1A68607  15.749  43.136   6.295
 5457POPC   D2A68608  15.639  43.308   6.691
 5457POPC   C3A68609  15.897  43.454   7.063
 5457POPC   C4A68610  15.826  43.394   7.519
 5457POPC   C1B68611  16.241  43.005   6.330
 5457POPC   C2B68612  16.072  43.056   6.724
 5457POPC   C3B68613  15.805  42.948   7.061
 5457POPC   C4B68614  16.122  43.039   7.291
 5458POPC   NC368615  13.866  31.530   5.465
 5458POPC   PO468616  13.152  31.720   5.504
 5458POPC   GL168617  13.410  31.431   5.727
 5458POPC   GL268618  13.614  31.697   5.866
 5458POPC   C1A68619  13.523  31.234   6.138
 5458POPC   D2A68620  13.655  31.322   6.584
 5458POPC   C3A68621  13.770  31.189   7.014
 5458POPC   C4A68622  13.575  31.156   7.425
 5458POPC   C1B68623  13.873  31.610   6.224
 5458POPC   C2B68624  13.851  31.790   6.647
 5458POPC   C3B68625  13.559  31.657   6.980
 5458POPC   C4B68626  13.731  31.639   7.385
 5459POPC   NC368627  44.454  37.215   5.499
 5459POPC   PO468628  44.847  37.876   5.594
 5459POPC   GL168629  44.515  37.695   5.766
 5459POPC   GL268630  44.607  37.412   5.941
 5459POPC   C1A68631  44.301  37.832   6.109
 5459POPC   D2A68632  44.411  37.980   6.513
 5459POPC   C3A68633  44.363  37.656   6.804
 5459POPC   C4A68634  44.614  37.593   7.151
 5459POPC   C1B68635  44.716  37.610   6.324
 5459POPC   C2B68636  44.966  37.846   6.641
 5459POPC   C3B68637   0.142  37.846   7.058
 5459POPC   C4B68638   0.091  37.431   7.172
 5460POPC   NC368639  17.878  41.811   5.350
 5460POPC   PO468640  17.234  41.674   5.315
 5460POPC   GL168641  17.537  41.642   5.692
 5460POPC   GL268642  17.764  41.898   5.864
 5460POPC   C1A68643  17.466  41.531   6.121
 5460POPC   D2A68644  17.542  41.394   6.550
 5460POPC   C3A68645  17.338  41.571   6.918
 5460POPC   C4A68646  17.390  41.474   7.331
 5460POPC   C1B68647  17.906  41.723   6.288
 5460POPC   C2B68648  17.764  41.822   6.746
 5460POPC   C3B68649  17.682  41.934   7.186
 5460POPC   C4B68650  17.744  41.749   7.594
 5461POPC   NC368651  31.280  36.672   5.364
 5461POPC   PO468652  31.686  37.218   5.503
 5461POPC   GL168653  31.505  36.894   5.782
 5461POPC   GL268654  31.743  36.622   5.780
 5461POPC   C1A68655  31.274  36.905   6.204
 5461POPC   D2A68656  31.142  37.150   6.594
 5461POPC   C3A68657  31.062  36.936   6.985
 5461POPC   C4A68658  31.204  36.607   7.284
 5461POPC   C1B68659  31.777  36.698   6.240
 5461POPC   C2B68660  31.670  36.998   6.592
 5461POPC   C3B68661  31.565  36.863   7.009
 5461POPC   C4B68662  31.759  36.560   7.284
 5462POPC   NC368663  19.591   1.076   5.206
 5462POPC   PO468664  20.196   1.428   5.296
 5462POPC   GL168665  19.879   1.486   5.623
 5462POPC   GL268666  19.741   1.143   5.746
 5462POPC   C1A68667  19.815   1.536   6.081
 5462POPC   D2A68668  19.979   1.404   6.518
 5462POPC   C3A68669  19.687   1.199   6.782
 5462POPC   C4A68670  19.791   1.296   7.190
 5462POPC   C1B68671  20.009   1.054   6.156
 5462POPC   C2B68672  20.073   0.895   6.616
 5462POPC   C3B68673  20.053   0.875   7.089
 5462POPC   C4B68674  20.137   1.046   7.505
 5463POPC   NC368675  12.352  29.689   5.512
 5463POPC   PO468676  12.189  29.009   5.452
 5463POPC   GL168677  12.084  29.232   5.792
 5463POPC   GL268678  11.814  28.969   5.869
 5463POPC   C1A68679  12.023  29.288   6.207
 5463POPC   D2A68680  11.826  29.101   6.523
 5463POPC   C3A68681  12.120  29.086   6.852
 5463POPC   C4A68682  12.013  29.170   7.251
 5463POPC   C1B68683  11.550  28.795   6.183
 5463POPC   C2B68684  11.648  28.623   6.579
 5463POPC   C3B68685  11.790  28.710   6.972
 5463POPC   C4B68686  11.634  28.855   7.358
 5464POPC   NC368687  15.645  31.755   5.166
 5464POPC   PO468688  15.822  31.287   5.661
 5464POPC   GL168689  16.192  31.430   5.882
 5464POPC   GL268690  16.073  31.726   6.008
 5464POPC   C1A68691  16.246  31.397   6.346
 5464POPC   D2A68692  15.969  31.324   6.688
 5464POPC   C3A68693  16.118  31.298   7.093
 5464POPC   C4A68694  15.897  31.223   7.471
 5464POPC   C1B68695  15.723  31.549   6.289
 5464POPC   C2B68696  15.529  31.632   6.675
 5464POPC   C3B68697  15.653  31.542   7.078
 5464POPC   C4B68698  15.969  31.723   7.332
 5465POPC   NC368699  38.441  10.721   5.469
 5465POPC   PO468700  37.811  10.582   5.561
 5465POPC   GL168701  38.161  10.391   5.779
 5465POPC   GL268702  38.511  10.513   5.933
 5465POPC   C1A68703  38.123  10.327   6.193
 5465POPC   D2A68704  38.067  10.325   6.642
 5465POPC   C3A68705  38.394  10.390   6.955
 5465POPC   C4A68706  38.382  10.296   7.420
 5465POPC   C1B68707  38.552  10.518   6.406
 5465POPC   C2B68708  38.772  10.795   6.670
 5465POPC   C3B68709  38.566  10.883   7.042
 5465POPC   C4B68710  38.464  10.811   7.493
 5466POPC   NC368711  19.348  30.201   5.680
 5466POPC   PO468712  18.870  30.528   5.449
 5466POPC   GL168713  18.930  30.872   5.770
 5466POPC   GL268714  19.230  31.104   5.788
 5466POPC   C1A68715  18.684  30.849   6.147
 5466POPC   D2A68716  18.858  30.872   6.554
 5466POPC   C3A68717  18.827  30.575   6.866
 5466POPC   C4A68718  18.799  30.775   7.227
 5466POPC   C1B68719  19.217  30.766   6.158
 5466POPC   C2B68720  19.317  30.603   6.556
 5466POPC   C3B68721  19.283  30.799   6.934
 5466POPC   C4B68722  19.224  30.539   7.268
 5467POPC   NC368723  21.741  13.021   5.333
 5467POPC   PO468724  21.071  12.988   5.244
 5467POPC   GL168725  21.411  12.997   5.712
 5467POPC   GL268726  21.232  12.959   6.091
 5467POPC   C1A68727  21.702  13.011   6.127
 5467POPC   D2A68728  21.504  12.854   6.537
 5467POPC   C3A68729  21.572  13.054   6.950
 5467POPC   C4A68730  21.440  12.970   7.372
 5467POPC   C1B68731  21.163  12.544   6.288
 5467POPC   C2B68732  21.223  12.410   6.692
 5467POPC   C3B68733  21.134  12.717   7.022
 5467POPC   C4B68734  21.040  12.653   7.474
 5468POPC   NC368735  32.528  23.951   5.553
 5468POPC   PO468736  32.462  23.278   5.367
 5468POPC   GL168737  32.127  23.546   5.686
 5468POPC   GL268738  32.246  23.827   5.947
 5468POPC   C1A68739  31.860  23.584   6.132
 5468POPC   D2A68740  32.116  23.706   6.562
 5468POPC   C3A68741  31.977  23.567   6.968
 5468POPC   C4A68742  31.820  23.929   7.157
 5468POPC   C1B68743  32.330  23.432   6.204
 5468POPC   C2B68744  32.379  23.262   6.657
 5468POPC   C3B68745  32.484  23.512   7.018
 5468POPC   C4B68746  32.336  23.937   7.020
 5469POPC   NC368747   7.903  31.568   5.620
 5469POPC   PO468748   8.291  30.956   5.464
 5469POPC   GL168749   8.241  31.189   5.809
 5469POPC   GL268750   7.922  31.169   5.953
 5469POPC   C1A68751   8.392  31.474   6.129
 5469POPC   D2A68752   8.516  31.374   6.541
 5469POPC   C3A68753   8.174  31.498   6.842
 5469POPC   C4A68754   8.035  31.730   7.202
 5469POPC   C1B68755   8.148  31.037   6.292
 5469POPC   C2B68756   8.233  30.969   6.683
 5469POPC   C3B68757   8.488  31.126   6.990
 5469POPC   C4B68758   8.350  31.357   7.328
 5470POPC   NC368759  10.426   3.800   5.428
 5470POPC   PO468760  10.938   3.424   5.510
 5470POPC   GL168761  10.563   3.385   5.742
 5470POPC   GL268762  10.400   3.084   5.722
 5470POPC   C1A68763  10.376   3.481   6.154
 5470POPC   D2A68764  10.596   3.709   6.497
 5470POPC   C3A68765  10.401   3.924   6.819
 5470POPC   C4A68766  10.481   3.867   7.231
 5470POPC   C1B68767  10.635   3.021   6.117
 5470POPC   C2B68768  10.630   3.183   6.525
 5470POPC   C3B68769  10.486   3.386   6.888
 5470POPC   C4B68770  10.426   3.332   7.298
 5471POPC   NC368771  22.120   3.870   5.519
 5471POPC   PO468772  22.272   4.492   5.299
 5471POPC   GL168773  22.100   4.379   5.710
 5471POPC   GL268774  22.434   4.378   5.815
 5471POPC   C1A68775  21.826   4.468   6.115
 5471POPC   D2A68776  21.827   4.235   6.520
 5471POPC   C3A68777  22.039   4.344   6.928
 5471POPC   C4A68778  22.100   4.505   7.366
 5471POPC   C1B68779  22.221   4.149   6.144
 5471POPC   C2B68780  22.313   4.079   6.558
 5471POPC   C3B68781  22.471   4.045   6.922
 5471POPC   C4B68782  22.288   4.026   7.295
 5472POPC   NC368783  10.354  35.743   5.603
 5472POPC   PO468784  10.780  35.230   5.337
 5472POPC   GL168785  10.552  35.284   5.712
 5472POPC   GL268786  10.201  35.302   5.773
 5472POPC   C1A68787  10.622  35.289   6.148
 5472POPC   D2A68788  10.705  35.454   6.549
 5472POPC   C3A68789  10.591  35.294   6.935
 5472POPC   C4A68790  10.402  35.127   7.338
 5472POPC   C1B68791  10.157  35.530   6.201
 5472POPC   C2B68792  10.226  35.582   6.651
 5472POPC   C3B68793  10.129  35.510   7.085
 5472POPC   C4B68794   9.994  35.370   7.497
 5473POPC   NC368795  18.778  26.019   5.620
 5473POPC   PO468796  19.216  26.476   5.394
 5473POPC   GL168797  19.233  26.285   5.798
 5473POPC   GL268798  19.375  25.982   5.739
 5473POPC   C1A68799  19.130  26.273   6.245
 5473POPC   D2A68800  19.007  26.495   6.628
 5473POPC   C3A68801  19.076  26.236   6.978
 5473POPC   C4A68802  18.825  25.872   7.073
 5473POPC   C1B68803  19.438  25.837   6.153
 5473POPC   C2B68804  19.173  25.809   6.507
 5473POPC   C3B68805  19.297  25.756   6.908
 5473POPC   C4B68806  19.497  25.637   7.260
 5474POPC   NC368807  21.380   1.869   5.376
 5474POPC   PO468808  21.902   1.803   5.070
 5474POPC   GL168809  21.793   1.929   5.699
 5474POPC   GL268810  21.419   1.965   5.864
 5474POPC   C1A68811  21.717   2.104   6.217
 5474POPC   D2A68812  21.796   1.921   6.682
 5474POPC   C3A68813  21.597   2.081   7.084
 5474POPC   C4A68814  21.332   1.935   7.447
 5474POPC   C1B68815  21.164   2.142   6.247
 5474POPC   C2B68816  21.062   2.360   6.636
 5474POPC   C3B68817  21.066   2.168   7.072
 5474POPC   C4B68818  20.921   2.227   7.517
 5475POPC   NC368819  16.037   2.835   5.384
 5475POPC   PO468820  15.627   2.195   5.338
 5475POPC   GL168821  15.860   2.428   5.688
 5475POPC   GL268822  15.585   2.566   5.853
 5475POPC   C1A68823  16.024   2.668   6.094
 5475POPC   D2A68824  16.241   2.769   6.513
 5475POPC   C3A68825  16.124   3.030   6.880
 5475POPC   C4A68826  16.152   2.926   7.297
 5475POPC   C1B68827  15.543   2.751   6.298
 5475POPC   C2B68828  15.712   2.758   6.727
 5475POPC   C3B68829  15.690   2.748   7.182
 5475POPC   C4B68830  15.656   2.850   7.614
 5476POPC   NC368831  35.868  12.615   5.469
 5476POPC   PO468832  36.236  13.134   5.222
 5476POPC   GL168833  36.175  12.976   5.718
 5476POPC   GL268834  36.471  12.847   5.909
 5476POPC   C1A68835  35.961  12.783   6.147
 5476POPC   D2A68836  35.865  12.480   6.502
 5476POPC   C3A68837  35.837  12.637   6.936
 5476POPC   C4A68838  35.917  12.983   7.182
 5476POPC   C1B68839  36.368  13.036   6.301
 5476POPC   C2B68840  36.196  12.866   6.669
 5476POPC   C3B68841  36.373  12.768   7.070
 5476POPC   C4B68842  36.273  12.715   7.489
 5477POPC   NC368843   4.981   5.498   5.605
 5477POPC   PO468844   5.247   6.082   5.690
 5477POPC   GL168845   5.047   5.849   5.982
 5477POPC   GL268846   4.710   5.913   5.859
 5477POPC   C1A68847   5.109   5.837   6.414
 5477POPC   D2A68848   4.939   6.118   6.676
 5477POPC   C3A68849   5.265   6.142   6.900
 5477POPC   C4A68850   5.248   5.783   7.155
 5477POPC   C1B68851   4.626   5.790   6.303
 5477POPC   C2B68852   4.718   5.634   6.745
 5477POPC   C3B68853   4.731   5.619   7.229
 5477POPC   C4B68854   4.667   5.465   7.704
 5478POPC   NC368855  25.998  37.208   5.361
 5478POPC   PO468856  26.109  36.621   5.447
 5478POPC   GL168857  26.159  36.803   5.864
 5478POPC   GL268858  26.092  37.172   5.871
 5478POPC   C1A68859  26.041  36.862   6.314
 5478POPC   D2A68860  25.840  37.042   6.705
 5478POPC   C3A68861  25.857  36.792   7.067
 5478POPC   C4A68862  26.132  36.658   7.376
 5478POPC   C1B68863  26.365  37.277   6.234
 5478POPC   C2B68864  26.375  37.062   6.641
 5478POPC   C3B68865  26.191  37.186   7.064
 5478POPC   C4B68866  25.780  37.271   7.293
 5479POPC   NC368867   8.004  12.354   5.651
 5479POPC   PO468868   8.176  12.805   5.135
 5479POPC   GL168869   8.169  12.829   5.645
 5479POPC   GL268870   8.414  13.046   5.787
 5479POPC   C1A68871   7.921  12.852   6.080
 5479POPC   D2A68872   7.996  12.666   6.479
 5479POPC   C3A68873   8.117  12.842   6.858
 5479POPC   C4A68874   7.900  12.890   7.219
 5479POPC   C1B68875   8.422  12.785   6.129
 5479POPC   C2B68876   8.496  12.701   6.542
 5479POPC   C3B68877   8.574  12.610   6.956
 5479POPC   C4B68878   8.375  12.740   7.334
 5480POPC   NC368879  43.403  17.006   5.452
 5480POPC   PO468880  42.940  16.582   5.361
 5480POPC   GL168881  43.152  16.644   5.744
 5480POPC   GL268882  42.988  16.370   5.851
 5480POPC   C1A68883  43.362  16.572   6.136
 5480POPC   D2A68884  43.243  16.747   6.527
 5480POPC   C3A68885  43.340  16.607   6.941
 5480POPC   C4A68886  43.168  16.746   7.324
 5480POPC   C1B68887  42.828  16.483   6.239
 5480POPC   C2B68888  42.935  16.348   6.655
 5480POPC   C3B68889  42.812  16.540   7.030
 5480POPC   C4B68890  42.593  16.485   7.440
 5481POPC   NC368891  37.924  37.694   5.392
 5481POPC   PO468892  37.263  37.768   5.452
 5481POPC   GL168893  37.507  37.611   5.793
 5481POPC   GL268894  37.856  37.749   5.871
 5481POPC   C1A68895  37.361  37.763   6.186
 5481POPC   D2A68896  37.371  37.601   6.590
 5481POPC   C3A68897  37.365  37.808   6.948
 5481POPC   C4A68898  37.192  37.675   7.320
 5481POPC   C1B68899  37.887  37.614   6.256
 5481POPC   C2B68900  38.143  37.629   6.600
 5481POPC   C3B68901  37.902  37.632   6.950
 5481POPC   C4B68902  37.816  37.796   7.323
 5482POPC   NC368903   3.720   2.595   5.164
 5482POPC   PO468904   3.097   2.768   5.330
 5482POPC   GL168905   3.323   3.023   5.654
 5482POPC   GL268906   3.688   2.906   5.596
 5482POPC   C1A68907   3.347   3.059   6.140
 5482POPC   D2A68908   3.383   2.859   6.593
 5482POPC   C3A68909   3.307   3.092   7.016
 5482POPC   C4A68910   3.248   3.005   7.453
 5482POPC   C1B68911   3.694   2.629   5.972
 5482POPC   C2B68912   3.758   2.493   6.406
 5482POPC   C3B68913   3.745   2.552   6.859
 5482POPC   C4B68914   3.632   2.729   7.250
 5483POPC   NC368915  26.152   4.535   5.683
 5483POPC   PO468916  26.269   3.867   5.773
 5483POPC   GL168917  26.304   4.196   6.019
 5483POPC   GL268918  26.595   4.423   5.913
 5483POPC   C1A68919  26.027   4.143   6.336
 5483POPC   D2A68920  25.938   3.842   6.626
 5483POPC   C3A68921  26.023   4.039   6.989
 5483POPC   C4A68922  25.788   4.238   7.284
 5483POPC   C1B68923  26.492   4.605   6.302
 5483POPC   C2B68924  26.270   4.467   6.664
 5483POPC   C3B68925  26.140   4.560   7.082
 5483POPC   C4B68926  26.274   4.787   7.453
 5484POPC   NC368927  31.559  44.212   5.337
 5484POPC   PO468928  31.629  44.877   5.239
 5484POPC   GL168929  31.657  44.601   5.660
 5484POPC   GL268930  31.436  44.745   5.931
 5484POPC   C1A68931  31.723  44.391   6.114
 5484POPC   D2A68932  31.654  44.706   6.474
 5484POPC   C3A68933  31.660  44.571   6.909
 5484POPC   C4A68934  31.469  44.484   7.329
 5484POPC   C1B68935  31.162  44.924   6.268
 5484POPC   C2B68936  31.187   0.093   6.694
 5484POPC   C3B68937  31.401  44.987   7.096
 5484POPC   C4B68938  31.248  44.881   7.515
 5485POPC   NC368939   5.228  42.252   5.273
 5485POPC   PO468940   6.004  42.266   5.295
 5485POPC   GL168941   6.008  42.291   5.787
 5485POPC   GL268942   5.705  42.519   5.982
 5485POPC   C1A68943   6.065  42.284   6.215
 5485POPC   D2A68944   6.281  42.419   6.517
 5485POPC   C3A68945   6.106  42.221   6.857
 5485POPC   C4A68946   6.202  42.249   7.247
 5485POPC   C1B68947   5.442  42.327   6.277
 5485POPC   C2B68948   5.304  42.411   6.668
 5485POPC   C3B68949   5.435  42.608   7.012
 5485POPC   C4B68950   5.710  42.329   7.180
 5486POPC   NC368951   3.750   8.488   5.489
 5486POPC   PO468952   3.142   8.199   5.450
 5486POPC   GL168953   3.432   8.182   5.777
 5486POPC   GL268954   3.637   7.874   5.706
 5486POPC   C1A68955   3.669   8.236   6.159
 5486POPC   D2A68956   3.728   8.498   6.511
 5486POPC   C3A68957   3.843   8.314   6.911
 5486POPC   C4A68958   3.573   8.175   7.262
 5486POPC   C1B68959   3.427   7.776   6.098
 5486POPC   C2B68960   3.524   7.845   6.520
 5486POPC   C3B68961   3.458   7.765   6.959
 5486POPC   C4B68962   3.341   7.735   7.395
 5487POPC   NC368963  25.183  28.696   5.426
 5487POPC   PO468964  25.545  28.121   5.428
 5487POPC   GL168965  25.614  28.379   5.809
 5487POPC   GL268966  25.239  28.429   5.888
 5487POPC   C1A68967  25.582  28.568   6.248
 5487POPC   D2A68968  25.186  28.594   6.506
 5487POPC   C3A68969  25.195  28.614   6.953
 5487POPC   C4A68970  25.423  28.561   7.324
 5487POPC   C1B68971  24.997  28.120   6.143
 5487POPC   C2B68972  24.789  28.111   6.546
 5487POPC   C3B68973  24.891  28.204   6.955
 5487POPC   C4B68974  24.979  28.338   7.361
 5488POPC   NC368975  13.396  39.660   5.118
 5488POPC   PO468976  13.814  39.345   5.531
 5488POPC   GL168977  13.647  39.158   5.854
 5488POPC   GL268978  13.953  39.011   5.954
 5488POPC   C1A68979  13.500  38.990   6.256
 5488POPC   D2A68980  13.568  38.902   6.693
 5488POPC   C3A68981  13.482  39.249   6.935
 5488POPC   C4A68982  13.233  39.235   7.283
 5488POPC   C1B68983  13.918  39.284   6.298
 5488POPC   C2B68984  14.051  39.181   6.717
 5488POPC   C3B68985  13.911  39.047   7.121
 5488POPC   C4B68986  13.860  38.958   7.538
 5489POPC   NC368987  44.755  18.090   5.388
 5489POPC   PO468988  44.544  18.740   5.389
 5489POPC   GL168989  44.705  18.512   5.740
 5489POPC   GL268990  44.410  18.387   5.875
 5489POPC   C1A68991  44.855  18.311   6.149
 5489POPC   D2A68992  44.758  18.121   6.590
 5489POPC   C3A68993  44.902  18.372   6.949
 5489POPC   C4A68994  44.896  18.327   7.391
 5489POPC   C1B68995  44.359  18.214   6.293
 5489POPC   C2B68996  44.265  18.302   6.721
 5489POPC   C3B68997  44.447  18.299   7.126
 5489POPC   C4B68998  44.351  18.382   7.525
 5490POPC   NC368999  38.889  19.589   5.591
 5490POPC   PO469000  39.492  19.878   5.423
 5490POPC   GL169001  39.270  19.968   5.781
 5490POPC   GL269002  39.320  19.633   5.859
 5490POPC   C1A69003  39.085  19.930   6.189
 5490POPC   D2A69004  39.343  19.839   6.543
 5490POPC   C3A69005  39.350  20.040   6.951
 5490POPC   C4A69006  39.362  20.024   7.411
 5490POPC   C1B69007  39.188  19.435   6.222
 5490POPC   C2B69008  38.959  19.505   6.577
 5490POPC   C3B69009  39.128  19.581   6.951
 5490POPC   C4B69010  38.941  19.736   7.319
 5491POPC   NC369011  28.654   6.984   5.246
 5491POPC   PO469012  28.323   7.544   5.361
 5491POPC   GL169013  28.260   7.508   5.773
 5491POPC   GL269014  28.370   7.163   5.773
 5491POPC   C1A69015  28.392   7.645   6.176
 5491POPC   D2A69016  28.367   7.481   6.591
 5491POPC   C3A69017  28.258   7.701   6.950
 5491POPC   C4A69018  28.108   7.548   7.334
 5491POPC   C1B69019  28.180   7.171   6.174
 5491POPC   C2B69020  27.888   7.198   6.502
 5491POPC   C3B69021  28.030   7.222   6.916
 5491POPC   C4B69022  28.190   7.043   7.273
 5492POPC   NC369023   4.773  28.734   5.597
 5492POPC   PO469024   5.399  28.936   5.460
 5492POPC   GL169025   5.162  29.015   5.803
 5492POPC   GL269026   5.132  29.370   5.809
 5492POPC   C1A69027   4.964  28.940   6.186
 5492POPC   D2A69028   5.225  28.964   6.562
 5492POPC   C3A69029   5.049  28.887   6.940
 5492POPC   C4A69030   5.165  28.883   7.320
 5492POPC   C1B69031   5.321  29.328   6.221
 5492POPC   C2B69032   5.210  29.464   6.657
 5492POPC   C3B69033   5.221  29.357   7.104
 5492POPC   C4B69034   5.531  29.241   7.420
 5493POPC   NC369035  34.011   1.480   5.308
 5493POPC   PO469036  33.672   0.945   5.531
 5493POPC   GL169037  33.821   1.159   5.853
 5493POPC   GL269038  33.631   1.443   5.745
 5493POPC   C1A69039  33.664   1.293   6.276
 5493POPC   D2A69040  33.547   1.392   6.711
 5493POPC   C3A69041  33.777   1.205   7.076
 5493POPC   C4A69042  33.793   1.229   7.532
 5493POPC   C1B69043  33.968   1.622   6.012
 5493POPC   C2B69044  33.883   1.730   6.438
 5493POPC   C3B69045  33.933   1.683   6.882
 5493POPC   C4B69046  34.257   1.494   7.103
 5494POPC   NC369047  10.337  23.874   5.444
 5494POPC   PO469048  10.613  23.391   5.228
 5494POPC   GL169049  10.562  23.498   5.732
 5494POPC   GL269050  10.767  23.775   5.850
 5494POPC   C1A69051  10.373  23.704   6.156
 5494POPC   D2A69052  10.309  24.028   6.506
 5494POPC   C3A69053  10.409  23.894   6.905
 5494POPC   C4A69054  10.350  23.619   7.214
 5494POPC   C1B69055  10.845  23.431   6.148
 5494POPC   C2B69056  10.705  23.396   6.542
 5494POPC   C3B69057  10.779  23.525   6.924
 5494POPC   C4B69058  10.747  23.322   7.268
 5495POPC   NC369059  13.147  35.709   5.584
 5495POPC   PO469060  12.559  35.296   5.492
 5495POPC   GL169061  12.711  35.343   5.888
 5495POPC   GL269062  13.013  35.269   5.875
 5495POPC   C1A69063  12.792  35.248   6.329
 5495POPC   D2A69064  12.737  35.401   6.725
 5495POPC   C3A69065  12.772  35.228   7.151
 5495POPC   C4A69066  12.547  35.357   7.530
 5495POPC   C1B69067  13.197  35.568   6.206
 5495POPC   C2B69068  13.125  35.766   6.603
 5495POPC   C3B69069  13.072  35.636   7.018
 5495POPC   C4B69070  13.142  35.440   7.392
 5496POPC   NC369071  21.068  18.844   5.626
 5496POPC   PO469072  21.094  18.239   5.383
 5496POPC   GL169073  21.191  18.146   5.804
 5496POPC   GL269074  21.353  18.468   5.820
 5496POPC   C1A69075  21.322  18.007   6.235
 5496POPC   D2A69076  21.464  17.970   6.702
 5496POPC   C3A69077  21.141  17.946   7.041
 5496POPC   C4A69078  21.185  18.059   7.490
 5496POPC   C1B69079  21.288  18.522   6.248
 5496POPC   C2B69080  21.409  18.479   6.670
 5496POPC   C3B69081  21.208  18.450   7.028
 5496POPC   C4B69082  21.269  18.546   7.468
 5497POPC   NC369083   6.946  30.448   5.459
 5497POPC   PO469084   6.482  30.888   5.423
 5497POPC   GL169085   6.682  30.819   5.811
 5497POPC   GL269086   6.947  31.086   5.847
 5497POPC   C1A69087   6.471  30.850   6.208
 5497POPC   D2A69088   6.609  30.777   6.630
 5497POPC   C3A69089   6.427  30.950   6.999
 5497POPC   C4A69090   6.536  30.657   7.326
 5497POPC   C1B69091   6.971  30.874   6.257
 5497POPC   C2B69092   7.160  30.781   6.631
 5497POPC   C3B69093   6.963  30.860   7.008
 5497POPC   C4B69094   7.065  30.766   7.403
 5498POPC   NC369095   1.630  37.788   5.613
 5498POPC   PO469096   2.222  37.412   5.555
 5498POPC   GL169097   2.081  37.662   5.826
 5498POPC   GL269098   2.159  38.005   5.771
 5498POPC   C1A69099   1.822  37.564   6.187
 5498POPC   D2A69100   1.732  37.766   6.549
 5498POPC   C3A69101   1.786  37.478   6.895
 5498POPC   C4A69102   1.889  37.586   7.269
 5498POPC   C1B69103   2.133  37.982   6.229
 5498POPC   C2B69104   2.332  38.068   6.598
 5498POPC   C3B69105   2.141  37.958   6.980
 5498POPC   C4B69106   2.311  37.871   7.382
 5499POPC   NC369107   9.377  31.175   5.509
 5499POPC   PO469108   9.881  30.735   5.477
 5499POPC   GL169109   9.806  30.569   5.897
 5499POPC   GL269110   9.527  30.802   5.882
 5499POPC   C1A69111   9.752  30.462   6.349
 5499POPC   D2A69112   9.803  30.733   6.708
 5499POPC   C3A69113   9.756  30.633   7.117
 5499POPC   C4A69114  10.103  30.368   7.293
 5499POPC   C1B69115   9.602  30.953   6.276
 5499POPC   C2B69116   9.391  31.032   6.642
 5499POPC   C3B69117   9.264  30.764   6.909
 5499POPC   C4B69118   9.182  30.801   7.340
 5500POPC   NC369119  19.748   8.097   5.397
 5500POPC   PO469120  19.826   8.662   5.768
 5500POPC   GL169121  19.737   8.275   5.901
 5500POPC   GL269122  20.053   8.163   5.879
 5500POPC   C1A69123  19.843   8.224   6.341
 5500POPC   D2A69124  19.801   8.506   6.675
 5500POPC   C3A69125  19.934   8.227   6.942
 5500POPC   C4A69126  20.125   7.876   7.057
 5500POPC   C1B69127  20.304   8.418   6.208
 5500POPC   C2B69128  20.346   8.331   6.643
 5500POPC   C3B69129  20.404   8.437   7.074
 5500POPC   C4B69130  20.139   8.259   7.401
 5501POPC   NC369131  31.958  17.540   5.413
 5501POPC   PO469132  32.666  17.557   5.354
 5501POPC   GL169133  32.411  17.474   5.759
 5501POPC   GL269134  32.094  17.586   5.894
 5501POPC   C1A69135  32.402  17.322   6.199
 5501POPC   D2A69136  32.202  17.441   6.574
 5501POPC   C3A69137  32.109  17.152   6.861
 5501POPC   C4A69138  32.298  17.202   7.255
 5501POPC   C1B69139  32.192  17.840   6.240
 5501POPC   C2B69140  32.246  18.080   6.584
 5501POPC   C3B69141  32.238  17.867   6.950
 5501POPC   C4B69142  31.953  17.573   7.096
 5502POPC   NC369143  16.196  31.049   5.508
 5502POPC   PO469144  15.746  30.459   5.413
 5502POPC   GL169145  15.872  30.725   5.740
 5502POPC   GL269146  16.207  30.615   5.826
 5502POPC   C1A69147  15.882  30.813   6.182
 5502POPC   D2A69148  15.708  30.682   6.566
 5502POPC   C3A69149  15.840  30.882   6.944
 5502POPC   C4A69150  15.722  30.766   7.344
 5502POPC   C1B69151  16.402  30.886   6.142
 5502POPC   C2B69152  16.257  30.891   6.562
 5502POPC   C3B69153  16.390  30.870   6.968
 5502POPC   C4B69154  16.228  30.864   7.360
 5503POPC   NC369155  21.224  23.220   5.577
 5503POPC   PO469156  20.924  22.609   5.745
 5503POPC   GL169157  21.249  22.837   5.922
 5503POPC   GL269158  21.584  22.828   5.756
 5503POPC   C1A69159  21.344  23.043   6.318
 5503POPC   D2A69160  21.397  23.000   6.737
 5503POPC   C3A69161  21.118  22.728   6.910
 5503POPC   C4A69162  21.200  22.762   7.309
 5503POPC   C1B69163  21.793  23.095   6.065
 5503POPC   C2B69164  21.855  23.158   6.505
 5503POPC   C3B69165  21.767  23.278   6.933
 5503POPC   C4B69166  21.664  22.982   7.248
 5504POPC   NC369167  14.431  26.260   5.457
 5504POPC   PO469168  14.053  25.786   5.708
 5504POPC   GL169169  14.337  25.891   6.012
 5504POPC   GL269170  14.650  25.940   5.814
 5504POPC   C1A69171  14.404  25.760   6.436
 5504POPC   D2A69172  14.471  26.166   6.599
 5504POPC   C3A69173  14.302  26.213   6.956
 5504POPC   C4A69174  14.437  26.359   7.319
 5504POPC   C1B69175  14.852  25.804   6.204
 5504POPC   C2B69176  14.885  25.883   6.656
 5504POPC   C3B69177  14.682  25.841   7.069
 5504POPC   C4B69178  14.701  26.005   7.527
 5505POPC   NC369179  17.783  12.247   5.299
 5505POPC   PO469180  17.270  11.786   5.493
 5505POPC   GL169181  17.544  12.045   5.712
 5505POPC   GL269182  17.770  11.787   5.802
 5505POPC   C1A69183  17.591  12.167   6.140
 5505POPC   D2A69184  17.301  12.226   6.492
 5505POPC   C3A69185  17.463  12.268   6.885
 5505POPC   C4A69186  17.303  12.122   7.243
 5505POPC   C1B69187  17.837  11.745   6.266
 5505POPC   C2B69188  17.832  11.990   6.662
 5505POPC   C3B69189  17.740  11.878   7.110
 5505POPC   C4B69190  17.755  11.719   7.548
 5506POPC   NC369191  25.160  42.797   5.467
 5506POPC   PO469192  25.228  42.144   5.397
 5506POPC   GL169193  25.234  42.371   5.783
 5506POPC   GL269194  24.869  42.414   5.741
 5506POPC   C1A69195  25.431  42.467   6.225
 5506POPC   D2A69196  25.475  42.633   6.679
 5506POPC   C3A69197  25.451  42.433   7.124
 5506POPC   C4A69198  25.700  42.460   7.544
 5506POPC   C1B69199  24.903  42.298   6.170
 5506POPC   C2B69200  25.101  42.273   6.568
 5506POPC   C3B69201  24.971  42.159   6.953
 5506POPC   C4B69202  25.219  41.963   7.232
 5507POPC   NC369203  13.462   8.729   5.662
 5507POPC   PO469204  13.781   8.164   5.479
 5507POPC   GL169205  13.711   8.000   5.888
 5507POPC   GL269206  13.399   8.195   5.831
 5507POPC   C1A69207  13.902   8.044   6.303
 5507POPC   D2A69208  13.884   8.314   6.679
 5507POPC   C3A69209  13.624   8.188   7.022
 5507POPC   C4A69210  13.847   8.101   7.400
 5507POPC   C1B69211  13.291   7.962   6.209
 5507POPC   C2B69212  13.215   8.059   6.634
 5507POPC   C3B69213  13.182   7.863   7.018
 5507POPC   C4B69214  13.339   7.919   7.469
 5508POPC   NC369215  32.442  22.031   5.473
 5508POPC   PO469216  32.730  22.605   5.799
 5508POPC   GL169217  32.394  22.316   5.878
 5508POPC   GL269218  32.034  22.274   5.708
 5508POPC   C1A69219  32.498  22.031   6.208
 5508POPC   D2A69220  32.650  22.172   6.625
 5508POPC   C3A69221  32.415  22.103   7.014
 5508POPC   C4A69222  32.269  22.433   7.322
 5508POPC   C1B69223  31.957  22.093   6.134
 5508POPC   C2B69224  32.127  22.119   6.569
 5508POPC   C3B69225  31.914  22.103   6.979
 5508POPC   C4B69226  32.071  21.976   7.395
 5509POPC   NC369227  42.720  19.203   5.464
 5509POPC   PO469228  42.179  19.028   5.221
 5509POPC   GL169229  42.292  18.975   5.662
 5509POPC   GL269230  42.201  19.264   5.821
 5509POPC   C1A69231  42.280  18.824   6.092
 5509POPC   D2A69232  42.077  18.898   6.488
 5509POPC   C3A69233  42.374  18.945   6.812
 5509POPC   C4A69234  42.330  18.862   7.228
 5509POPC   C1B69235  42.390  19.285   6.263
 5509POPC   C2B69236  42.281  19.420   6.678
 5509POPC   C3B69237  42.411  19.351   7.134
 5509POPC   C4B69238  42.444  19.481   7.617
 5510POPC   NC369239   8.402  20.049   5.776
 5510POPC   PO469240   8.904  19.944   5.342
 5510POPC   GL169241   8.887  19.899   5.799
 5510POPC   GL269242   9.163  20.014   5.916
 5510POPC   C1A69243   8.790  20.016   6.272
 5510POPC   D2A69244   8.845  19.801   6.654
 5510POPC   C3A69245   8.903  20.013   7.012
 5510POPC   C4A69246   9.278  20.111   7.255
 5510POPC   C1B69247   9.198  19.707   6.260
 5510POPC   C2B69248   9.289  19.552   6.675
 5510POPC   C3B69249   9.064  19.516   7.053
 5510POPC   C4B69250   8.609  19.596   7.086
 5511POPC   NC369251  16.593  34.668   5.406
 5511POPC   PO469252  16.871  34.107   5.202
 5511POPC   GL169253  16.713  34.228   5.617
 5511POPC   GL269254  17.065  34.312   5.710
 5511POPC   C1A69255  16.618  34.452   6.043
 5511POPC   D2A69256  16.791  34.739   6.397
 5511POPC   C3A69257  16.642  34.658   6.826
 5511POPC   C4A69258  16.769  34.511   7.237
 5511POPC   C1B69259  17.099  34.345   6.166
 5511POPC   C2B69260  16.918  34.259   6.591
 5511POPC   C3B69261  17.144  34.249   6.993
 5511POPC   C4B69262  17.104  34.091   7.362
 5512POPC   NC369263  14.869  17.363   5.484
 5512POPC   PO469264  15.497  17.201   5.512
 5512POPC   GL169265  15.357  17.351   5.897
 5512POPC   GL269266  15.131  17.616   5.846
 5512POPC   C1A69267  15.340  17.598   6.289
 5512POPC   D2A69268  15.272  17.421   6.658
 5512POPC   C3A69269  15.502  17.609   6.953
 5512POPC   C4A69270  15.324  17.495   7.317
 5512POPC   C1B69271  14.828  17.554   6.223
 5512POPC   C2B69272  14.770  17.291   6.607
 5512POPC   C3B69273  14.893  17.322   7.057
 5512POPC   C4B69274  14.819  17.625   7.388
 5513POPC   NC369275   1.938  33.484   5.539
 5513POPC   PO469276   1.649  34.128   5.476
 5513POPC   GL169277   1.824  33.944   5.870
 5513POPC   GL269278   2.107  33.695   5.967
 5513POPC   C1A69279   1.722  33.781   6.290
 5513POPC   D2A69280   2.056  33.720   6.607
 5513POPC   C3A69281   1.985  33.884   7.031
 5513POPC   C4A69282   1.742  34.140   7.285
 5513POPC   C1B69283   2.348  33.382   6.190
 5513POPC   C2B69284   2.366  33.311   6.613
 5513POPC   C3B69285   2.433  33.587   6.969
 5513POPC   C4B69286   2.216  33.576   7.372
 5514POPC   NC369287  39.127  30.408   5.092
 5514POPC   PO469288  39.350  29.807   5.451
 5514POPC   GL169289  39.262  29.876   5.871
 5514POPC   GL269290  38.993  29.635   5.821
 5514POPC   C1A69291  39.398  29.941   6.321
 5514POPC   D2A69292  39.648  29.747   6.688
 5514POPC   C3A69293  39.502  29.923   7.071
 5514POPC   C4A69294  39.096  30.128   7.070
 5514POPC   C1B69295  38.842  29.825   6.205
 5514POPC   C2B69296  38.835  29.959   6.632
 5514POPC   C3B69297  38.836  29.700   7.009
 5514POPC   C4B69298  38.810  29.591   7.435
 5515POPC   NC369299  19.754  10.468   5.438
 5515POPC   PO469300  20.351  10.414   5.526
 5515POPC   GL169301  20.019  10.196   5.817
 5515POPC   GL269302  19.623  10.211   5.855
 5515POPC   C1A69303  19.970  10.402   6.232
 5515POPC   D2A69304  20.161  10.672   6.579
 5515POPC   C3A69305  20.031  10.541   6.991
 5515POPC   C4A69306  19.996  10.699   7.434
 5515POPC   C1B69307  19.466  10.385   6.236
 5515POPC   C2B69308  19.643  10.594   6.629
 5515POPC   C3B69309  19.546  10.671   7.071
 5515POPC   C4B69310  19.445  10.373   7.385
 5516POPC   NC369311  36.876  17.188   5.594
 5516POPC   PO469312  37.268  17.635   5.323
 5516POPC   GL169313  37.155  17.650   5.784
 5516POPC   GL269314  36.802  17.685   5.780
 5516POPC   C1A69315  37.139  17.576   6.274
 5516POPC   D2A69316  36.894  17.222   6.522
 5516POPC   C3A69317  36.678  17.298   6.920
 5516POPC   C4A69318  36.935  17.502   7.216
 5516POPC   C1B69319  36.646  17.489   6.159
 5516POPC   C2B69320  36.662  17.701   6.575
 5516POPC   C3B69321  36.805  17.918   6.944
 5516POPC   C4B69322  36.669  17.935   7.378
 5517POPC   NC369323  20.266   2.769   5.347
 5517POPC   PO469324  19.600   2.578   5.123
 5517POPC   GL169325  19.798   2.577   5.579
 5517POPC   GL269326  19.932   2.900   5.714
 5517POPC   C1A69327  19.838   2.541   6.049
 5517POPC   D2A69328  19.711   2.840   6.412
 5517POPC   C3A69329  19.695   2.721   6.883
 5517POPC   C4A69330  19.960   2.521   7.236
 5517POPC   C1B69331  20.174   2.957   6.119
 5517POPC   C2B69332  20.190   3.030   6.580
 5517POPC   C3B69333  20.021   3.157   6.975
 5517POPC   C4B69334  19.686   3.102   7.274
 5518POPC   NC369335   4.998  31.022   5.570
 5518POPC   PO469336   5.354  30.638   5.241
 5518POPC   GL169337   5.419  30.715   5.719
 5518POPC   GL269338   5.119  30.590   5.844
 5518POPC   C1A69339   5.352  30.771   6.236
 5518POPC   D2A69340   5.220  30.547   6.634
 5518POPC   C3A69341   5.268  30.771   7.047
 5518POPC   C4A69342   5.268  30.610   7.485
 5518POPC   C1B69343   4.840  30.739   6.190
 5518POPC   C2B69344   4.716  30.598   6.577
 5518POPC   C3B69345   4.767  30.768   6.981
 5518POPC   C4B69346   4.685  30.960   7.356
 5519POPC   NC369347  31.534  26.657   5.329
 5519POPC   PO469348  31.222  27.243   5.378
 5519POPC   GL169349  31.381  27.005   5.756
 5519POPC   GL269350  31.469  26.645   5.828
 5519POPC   C1A69351  31.447  27.002   6.209
 5519POPC   D2A69352  31.464  27.147   6.606
 5519POPC   C3A69353  31.330  26.993   6.999
 5519POPC   C4A69354  31.452  26.749   7.388
 5519POPC   C1B69355  31.771  26.616   6.156
 5519POPC   C2B69356  31.713  26.578   6.579
 5519POPC   C3B69357  31.771  26.772   6.950
 5519POPC   C4B69358  31.954  26.916   7.305
 5520POPC   NC369359   2.614  37.301   5.307
 5520POPC   PO469360   3.194  36.898   5.311
 5520POPC   GL169361   3.000  37.024   5.716
 5520POPC   GL269362   2.629  36.980   5.721
 5520POPC   C1A69363   2.980  36.777   6.119
 5520POPC   D2A69364   2.853  36.894   6.513
 5520POPC   C3A69365   3.144  36.887   6.829
 5520POPC   C4A69366   3.077  36.574   7.092
 5520POPC   C1B69367   2.506  37.026   6.142
 5520POPC   C2B69368   2.348  37.010   6.573
 5520POPC   C3B69369   2.627  37.100   6.927
 5520POPC   C4B69370   2.730  36.917   7.303
 5521POPC   NC369371  21.463  20.081   5.255
 5521POPC   PO469372  21.452  19.416   5.235
 5521POPC   GL169373  21.462  19.770   5.667
 5521POPC   GL269374  21.610  20.129   5.748
 5521POPC   C1A69375  21.272  19.991   6.088
 5521POPC   D2A69376  21.456  19.939   6.492
 5521POPC   C3A69377  21.374  19.997   6.928
 5521POPC   C4A69378  21.445  19.920   7.370
 5521POPC   C1B69379  21.768  20.220   6.200
 5521POPC   C2B69380  21.630  20.373   6.676
 5521POPC   C3B69381  21.768  20.255   7.143
 5521POPC   C4B69382  21.784  20.146   7.655
 5522POPC   NC369383   4.554  11.633   5.573
 5522POPC   PO469384   4.612  12.329   5.574
 5522POPC   GL169385   4.422  12.067   5.853
 5522POPC   GL269386   4.680  11.881   6.008
 5522POPC   C1A69387   4.211  12.079   6.250
 5522POPC   D2A69388   4.366  12.102   6.675
 5522POPC   C3A69389   4.156  11.936   7.027
 5522POPC   C4A69390   4.022  12.049   7.436
 5522POPC   C1B69391   4.696  12.276   6.252
 5522POPC   C2B69392   4.667  12.505   6.616
 5522POPC   C3B69393   4.732  12.277   6.998
 5522POPC   C4B69394   4.553  12.090   7.400
 5523POPC   NC369395   6.086  23.079   5.356
 5523POPC   PO469396   5.647  22.526   5.448
 5523POPC   GL169397   5.844  22.742   5.781
 5523POPC   GL269398   5.750  23.104   5.805
 5523POPC   C1A69399   6.020  22.686   6.182
 5523POPC   D2A69400   5.870  22.761   6.599
 5523POPC   C3A69401   5.703  22.713   7.022
 5523POPC   C4A69402   6.018  22.924   7.266
 5523POPC   C1B69403   5.594  22.980   6.215
 5523POPC   C2B69404   5.430  23.018   6.633
 5523POPC   C3B69405   5.714  23.202   6.911
 5523POPC   C4B69406   5.703  23.311   7.341
 5524POPC   NC369407  16.743  36.619   5.545
 5524POPC   PO469408  16.584  37.306   5.450
 5524POPC   GL169409  16.503  37.042   5.796
 5524POPC   GL269410  16.846  36.980   5.921
 5524POPC   C1A69411  16.406  36.797   6.159
 5524POPC   D2A69412  16.550  36.879   6.565
 5524POPC   C3A69413  16.493  36.605   6.886
 5524POPC   C4A69414  16.506  36.788   7.269
 5524POPC   C1B69415  16.907  36.664   6.248
 5524POPC   C2B69416  16.987  36.668   6.689
 5524POPC   C3B69417  16.935  36.902   7.012
 5524POPC   C4B69418  17.109  36.671   7.282
 5525POPC   NC369419  38.746  13.799   5.255
 5525POPC   PO469420  38.360  13.427   5.650
 5525POPC   GL169421  38.299  13.740   5.903
 5525POPC   GL269422  38.570  13.882   5.738
 5525POPC   C1A69423  38.204  13.705   6.328
 5525POPC   D2A69424  38.271  13.565   6.750
 5525POPC   C3A69425  38.154  13.710   7.132
 5525POPC   C4A69426  38.098  13.581   7.527
 5525POPC   C1B69427  38.717  13.738   6.167
 5525POPC   C2B69428  38.643  13.890   6.567
 5525POPC   C3B69429  38.707  13.757   6.971
 5525POPC   C4B69430  38.577  13.511   7.301
 5526POPC   NC369431  44.515   0.745   5.499
 5526POPC   PO469432  44.922   0.140   5.349
 5526POPC   GL169433   0.028   0.308   5.756
 5526POPC   GL269434  44.727   0.395   5.798
 5526POPC   C1A69435  44.889   0.206   6.229
 5526POPC   D2A69436  44.919   0.351   6.666
 5526POPC   C3A69437  44.591   0.138   6.897
 5526POPC   C4A69438  44.571   0.026   7.335
 5526POPC   C1B69439  44.847   0.725   6.095
 5526POPC   C2B69440  44.712   0.832   6.510
 5526POPC   C3B69441  44.666   0.862   6.945
 5526POPC   C4B69442  44.670   0.523   7.217
 5527POPC   NC369443  28.096  18.227   5.253
 5527POPC   PO469444  28.518  17.801   5.124
 5527POPC   GL169445  28.343  17.947   5.629
 5527POPC   GL269446  28.644  17.989   5.877
 5527POPC   C1A69447  28.290  18.307   6.009
 5527POPC   D2A69448  28.389  18.461   6.466
 5527POPC   C3A69449  28.120  18.396   6.858
 5527POPC   C4A69450  28.185  18.275   7.311
 5527POPC   C1B69451  28.509  17.931   6.283
 5527POPC   C2B69452  28.216  17.976   6.606
 5527POPC   C3B69453  28.489  18.061   6.941
 5527POPC   C4B69454  28.627  17.886   7.287
 5528POPC   NC369455  29.403   7.549   5.592
 5528POPC   PO469456  29.113   6.932   5.363
 5528POPC   GL169457  29.076   7.162   5.775
 5528POPC   GL269458  28.812   7.445   5.745
 5528POPC   C1A69459  29.245   7.267   6.223
 5528POPC   D2A69460  29.442   7.146   6.637
 5528POPC   C3A69461  29.186   7.289   6.987
 5528POPC   C4A69462  29.165   7.734   7.076
 5528POPC   C1B69463  28.719   7.241   6.164
 5528POPC   C2B69464  28.839   7.271   6.608
 5528POPC   C3B69465  28.695   7.427   7.022
 5528POPC   C4B69466  28.573   7.339   7.434
 5529POPC   NC369467  24.004   8.857   5.510
 5529POPC   PO469468  23.683   9.414   5.435
 5529POPC   GL169469  23.551   9.191   5.808
 5529POPC   GL269470  23.580   8.827   5.775
 5529POPC   C1A69471  23.715   9.023   6.211
 5529POPC   D2A69472  23.979   8.955   6.565
 5529POPC   C3A69473  23.672   8.906   6.884
 5529POPC   C4A69474  23.782   9.103   7.243
 5529POPC   C1B69475  23.472   8.563   6.116
 5529POPC   C2B69476  23.338   8.709   6.502
 5529POPC   C3B69477  23.306   8.478   6.853
 5529POPC   C4B69478  23.562   8.426   7.186
 5530POPC   NC369479  32.302  10.933   4.823
 5530POPC   PO469480  32.391  11.462   5.191
 5530POPC   GL169481  32.397  11.306   5.670
 5530POPC   GL269482  32.677  11.041   5.664
 5530POPC   C1A69483  32.174  11.298   6.095
 5530POPC   D2A69484  32.075  11.398   6.530
 5530POPC   C3A69485  31.952  11.176   6.896
 5530POPC   C4A69486  32.065  11.404   7.261
 5530POPC   C1B69487  32.552  10.960   6.074
 5530POPC   C2B69488  32.522  11.167   6.461
 5530POPC   C3B69489  32.441  11.215   6.889
 5530POPC   C4B69490  32.582  11.163   7.303
 5531POPC   NC369491  44.713  41.099   5.586
 5531POPC   PO469492  44.598  40.396   5.460
 5531POPC   GL169493  44.767  40.528   5.866
 5531POPC   GL269494   0.144  40.652   5.812
 5531POPC   C1A69495  44.552  40.708   6.240
 5531POPC   D2A69496  44.377  40.611   6.657
 5531POPC   C3A69497  44.641  40.658   7.039
 5531POPC   C4A69498   0.050  40.475   7.118
 5531POPC   C1B69499   0.032  40.897   6.178
 5531POPC   C2B69500  44.887  40.837   6.603
 5531POPC   C3B69501   0.062  40.968   6.966
 5531POPC   C4B69502  44.922  40.928   7.368
 5532POPC   NC369503  21.849   3.122   5.611
 5532POPC   PO469504  22.302   2.692   5.280
 5532POPC   GL169505  22.059   2.647   5.637
 5532POPC   GL269506  22.330   2.842   5.812
 5532POPC   C1A69507  21.970   2.543   6.082
 5532POPC   D2A69508  21.933   2.812   6.462
 5532POPC   C3A69509  21.892   2.738   6.916
 5532POPC   C4A69510  22.073   2.721   7.335
 5532POPC   C1B69511  22.518   3.045   6.193
 5532POPC   C2B69512  22.369   3.083   6.590
 5532POPC   C3B69513  22.301   3.082   7.033
 5532POPC   C4B69514  22.474   3.029   7.441
 5533POPC   NC369515  22.301   9.840   5.394
 5533POPC   PO469516  21.936   9.323   5.518
 5533POPC   GL169517  21.982   9.703   5.807
 5533POPC   GL269518  22.312   9.923   5.886
 5533POPC   C1A69519  22.006   9.610   6.252
 5533POPC   D2A69520  22.044   9.344   6.607
 5533POPC   C3A69521  22.218   9.563   6.981
 5533POPC   C4A69522  21.914   9.665   7.300
 5533POPC   C1B69523  22.102  10.116   6.224
 5533POPC   C2B69524  22.061   9.967   6.640
 5533POPC   C3B69525  22.246  10.059   7.008
 5533POPC   C4B69526  22.274  10.003   7.415
 5534POPC   NC369527   4.230  12.575   5.486
 5534POPC   PO469528   4.625  13.104   5.314
 5534POPC   GL169529   4.471  13.006   5.730
 5534POPC   GL269530   4.674  12.740   5.854
 5534POPC   C1A69531   4.398  13.103   6.175
 5534POPC   D2A69532   4.167  13.065   6.580
 5534POPC   C3A69533   4.403  12.864   6.909
 5534POPC   C4A69534   4.460  13.001   7.338
 5534POPC   C1B69535   4.328  12.600   6.130
 5534POPC   C2B69536   4.146  12.536   6.509
 5534POPC   C3B69537   3.995  12.407   6.887
 5534POPC   C4B69538   4.280  12.440   7.177
 5535POPC   NC369539  29.623  33.093   5.503
 5535POPC   PO469540  30.240  32.804   5.336
 5535POPC   GL169541  29.989  32.826   5.786
 5535POPC   GL269542  29.604  32.832   5.929
 5535POPC   C1A69543  29.970  32.896   6.255
 5535POPC   D2A69544  30.088  32.719   6.617
 5535POPC   C3A69545  29.860  32.810   6.943
 5535POPC   C4A69546  29.906  32.949   7.308
 5535POPC   C1B69547  29.490  33.112   6.254
 5535POPC   C2B69548  29.506  33.079   6.695
 5535POPC   C3B69549  29.759  33.319   6.967
 5535POPC   C4B69550  30.012  33.458   7.275
 5536POPC   NC369551   4.716   0.680   5.456
 5536POPC   PO469552   4.403   0.114   5.523
 5536POPC   GL169553   4.201   0.206   5.873
 5536POPC   GL269554   4.146   0.548   5.792
 5536POPC   C1A69555   4.275   0.266   6.300
 5536POPC   D2A69556   4.233   0.515   6.630
 5536POPC   C3A69557   4.466   0.429   6.942
 5536POPC   C4A69558   4.531   0.052   7.155
 5536POPC   C1B69559   4.272   0.794   6.170
 5536POPC   C2B69560   4.219   1.025   6.563
 5536POPC   C3B69561   4.145   0.887   6.981
 5536POPC   C4B69562   4.427   0.827   7.292
 5537POPC   NC369563   2.751  25.635   5.292
 5537POPC   PO469564   2.893  24.999   5.547
 5537POPC   GL169565   2.725  25.150   5.877
 5537POPC   GL269566   2.943  25.400   5.941
 5537POPC   C1A69567   2.798  25.042   6.288
 5537POPC   D2A69568   3.016  24.937   6.620
 5537POPC   C3A69569   2.745  24.949   6.953
 5537POPC   C4A69570   3.058  25.079   7.208
 5537POPC   C1B69571   2.668  25.567   6.270
 5537POPC   C2B69572   2.672  25.377   6.671
 5537POPC   C3B69573   2.735  25.458   7.090
 5537POPC   C4B69574   2.473  25.347   7.432
 5538POPC   NC369575  36.971  11.107   5.075
 5538POPC   PO469576  36.560  11.516   5.393
 5538POPC   GL169577  36.842  11.357   5.764
 5538POPC   GL269578  36.923  11.034   5.866
 5538POPC   C1A69579  36.933  11.440   6.185
 5538POPC   D2A69580  36.926  11.655   6.573
 5538POPC   C3A69581  36.728  11.461   6.927
 5538POPC   C4A69582  36.935  11.519   7.290
 5538POPC   C1B69583  36.915  10.743   6.223
 5538POPC   C2B69584  37.084  10.727   6.655
 5538POPC   C3B69585  36.956  10.994   7.006
 5538POPC   C4B69586  36.789  11.062   7.431
 5539POPC   NC369587  39.411  26.619   5.220
 5539POPC   PO469588  39.258  25.914   5.366
 5539POPC   GL169589  39.384  26.259   5.626
 5539POPC   GL269590  39.090  26.317   5.847
 5539POPC   C1A69591  39.575  26.249   6.035
 5539POPC   D2A69592  39.476  26.120   6.460
 5539POPC   C3A69593  39.472  26.342   6.825
 5539POPC   C4A69594  39.521  26.181   7.207
 5539POPC   C1B69595  39.121  25.946   6.107
 5539POPC   C2B69596  38.993  25.921   6.547
 5539POPC   C3B69597  39.140  25.915   6.963
 5539POPC   C4B69598  38.999  26.224   7.254
 5540POPC   NC369599  44.139  40.288   5.476
 5540POPC   PO469600  43.542  39.795   5.444
 5540POPC   GL169601  43.618  40.084   5.775
 5540POPC   GL269602  43.951  40.041   5.945
 5540POPC   C1A69603  43.551  40.197   6.213
 5540POPC   D2A69604  43.758  39.946   6.525
 5540POPC   C3A69605  43.578  40.034   6.919
 5540POPC   C4A69606  43.746  40.159   7.269
 5540POPC   C1B69607  44.249  39.762   6.201
 5540POPC   C2B69608  44.340  39.518   6.558
 5540POPC   C3B69609  44.115  39.597   6.905
 5540POPC   C4B69610  44.200  39.930   7.193
 5541POPC   NC369611   8.636  25.886   5.477
 5541POPC   PO469612   8.051  26.212   5.443
 5541POPC   GL169613   8.128  26.091   5.878
 5541POPC   GL269614   8.353  25.816   5.901
 5541POPC   C1A69615   7.963  25.920   6.263
 5541POPC   D2A69616   7.992  25.982   6.724
 5541POPC   C3A69617   7.954  25.806   7.149
 5541POPC   C4A69618   7.859  26.207   7.265
 5541POPC   C1B69619   8.461  25.969   6.326
 5541POPC   C2B69620   8.482  25.996   6.760
 5541POPC   C3B69621   8.446  25.896   7.189
 5541POPC   C4B69622   8.652  25.520   7.378
 5542POPC   NC369623  31.391  13.756   5.454
 5542POPC   PO469624  31.805  13.266   5.529
 5542POPC   GL169625  31.569  13.554   5.888
 5542POPC   GL269626  31.239  13.800   5.923
 5542POPC   C1A69627  31.656  13.682   6.325
 5542POPC   D2A69628  31.671  13.556   6.766
 5542POPC   C3A69629  31.414  13.674   7.147
 5542POPC   C4A69630  31.493  13.632   7.614
 5542POPC   C1B69631  31.169  13.511   6.216
 5542POPC   C2B69632  31.099  13.516   6.621
 5542POPC   C3B69633  31.051  13.334   7.002
 5542POPC   C4B69634  31.020  13.439   7.395
 5543POPC   NC369635   8.773  34.043   5.281
 5543POPC   PO469636   9.456  33.861   5.274
 5543POPC   GL169637   9.275  33.685   5.675
 5543POPC   GL269638   8.901  33.573   5.644
 5543POPC   C1A69639   9.083  33.882   6.042
 5543POPC   D2A69640   9.049  34.111   6.432
 5543POPC   C3A69641   9.057  33.866   6.786
 5543POPC   C4A69642   9.081  33.835   7.213
 5543POPC   C1B69643   8.671  33.580   6.034
 5543POPC   C2B69644   8.836  33.555   6.435
 5543POPC   C3B69645   8.684  33.541   6.857
 5543POPC   C4B69646   8.590  33.616   7.270
 5544POPC   NC369647  30.750   0.257   5.260
 5544POPC   PO469648  30.252   0.702   5.296
 5544POPC   GL169649  30.531   0.549   5.695
 5544POPC   GL269650  30.838   0.275   5.767
 5544POPC   C1A69651  30.722   0.687   6.121
 5544POPC   D2A69652  30.872   0.540   6.545
 5544POPC   C3A69653  30.795   0.628   6.984
 5544POPC   C4A69654  30.887   0.210   7.207
 5544POPC   C1B69655  30.686   0.175   6.186
 5544POPC   C2B69656  30.394   0.312   6.534
 5544POPC   C3B69657  30.388   0.345   7.000
 5544POPC   C4B69658  30.408   0.323   7.453
 5545POPC   NC369659  22.871  42.554   5.678
 5545POPC   PO469660  22.879  43.180   5.410
 5545POPC   GL169661  22.747  43.256   5.825
 5545POPC   GL269662  22.840  43.599   5.953
 5545POPC   C1A69663  22.750  43.062   6.243
 5545POPC   D2A69664  22.799  43.372   6.575
 5545POPC   C3A69665  22.780  43.207   6.970
 5545POPC   C4A69666  22.998  42.971   7.291
 5545POPC   C1B69667  23.159  43.337   6.189
 5545POPC   C2B69668  23.208  43.067   6.573
 5545POPC   C3B69669  23.294  43.255   6.958
 5545POPC   C4B69670  23.307  43.384   7.370
 5546POPC   NC369671  43.907  13.203   5.231
 5546POPC   PO469672  44.067  12.577   5.485
 5546POPC   GL169673  43.970  12.813   5.873
 5546POPC   GL269674  43.684  12.989   5.817
 5546POPC   C1A69675  43.785  12.723   6.292
 5546POPC   D2A69676  43.717  12.461   6.662
 5546POPC   C3A69677  43.731  12.712   7.011
 5546POPC   C4A69678  43.944  12.853   7.384
 5546POPC   C1B69679  43.713  13.228   6.216
 5546POPC   C2B69680  43.633  13.118   6.669
 5546POPC   C3B69681  43.673  13.214   7.108
 5546POPC   C4B69682  43.757  13.306   7.543
 5547POPC   NC369683  31.968  34.057   5.192
 5547POPC   PO469684  32.435  33.598   5.268
 5547POPC   GL169685  32.422  33.773   5.783
 5547POPC   GL269686  32.364  33.472   5.908
 5547POPC   C1A69687  32.267  33.886   6.207
 5547POPC   D2A69688  32.336  34.125   6.590
 5547POPC   C3A69689  32.327  33.831   6.932
 5547POPC   C4A69690  32.174  33.866   7.321
 5547POPC   C1B69691  32.469  33.289   6.317
 5547POPC   C2B69692  32.498  33.338   6.766
 5547POPC   C3B69693  32.570  33.377   7.216
 5547POPC   C4B69694  32.346  33.504   7.626
 5548POPC   NC369695  12.952  11.225   5.356
 5548POPC   PO469696  12.341  11.415   5.200
 5548POPC   GL169697  12.560  11.360   5.677
 5548POPC   GL269698  12.483  11.018   5.742
 5548POPC   C1A69699  12.857  11.464   6.104
 5548POPC   D2A69700  13.160  11.443   6.542
 5548POPC   C3A69701  13.031  11.589   6.996
 5548POPC   C4A69702  12.673  11.420   7.283
 5548POPC   C1B69703  12.751  10.926   6.097
 5548POPC   C2B69704  12.751  11.129   6.479
 5548POPC   C3B69705  12.824  11.119   6.894
 5548POPC   C4B69706  12.744  10.787   7.160
 5549POPC   NC369707  43.082  18.079   5.623
 5549POPC   PO469708  42.839  18.723   5.505
 5549POPC   GL169709  43.017  18.536   5.845
 5549POPC   GL269710  42.717  18.312   5.931
 5549POPC   C1A69711  43.261  18.453   6.226
 5549POPC   D2A69712  43.247  18.295   6.637
 5549POPC   C3A69713  43.200  18.481   7.034
 5549POPC   C4A69714  43.362  18.273   7.410
 5549POPC   C1B69715  42.799  18.210   6.386
 5549POPC   C2B69716  42.828  18.079   6.849
 5549POPC   C3B69717  42.860  18.173   7.307
 5549POPC   C4B69718  42.804  18.023   7.762
 5550POPC   NC369719  41.672  38.684   5.353
 5550POPC   PO469720  41.739  38.015   5.406
 5550POPC   GL169721  41.775  38.369   5.755
 5550POPC   GL269722  41.530  38.668   5.838
 5550POPC   C1A69723  41.633  38.341   6.208
 5550POPC   D2A69724  41.425  38.231   6.578
 5550POPC   C3A69725  41.648  38.226   6.924
 5550POPC   C4A69726  41.547  38.147   7.304
 5550POPC   C1B69727  41.678  38.866   6.230
 5550POPC   C2B69728  41.685  38.678   6.662
 5550POPC   C3B69729  41.531  38.749   7.085
 5550POPC   C4B69730  41.717  38.865   7.482
 5551POPC   NC369731  29.168  36.202   5.477
 5551POPC   PO469732  29.728  35.761   5.514
 5551POPC   GL169733  29.501  35.965   5.820
 5551POPC   GL269734  29.180  35.863   5.875
 5551POPC   C1A69735  29.451  36.084   6.247
 5551POPC   D2A69736  29.194  36.078   6.593
 5551POPC   C3A69737  29.391  36.055   7.002
 5551POPC   C4A69738  29.120  36.131   7.323
 5551POPC   C1B69739  28.863  36.014   6.173
 5551POPC   C2B69740  28.679  35.866   6.552
 5551POPC   C3B69741  28.827  35.964   6.927
 5551POPC   C4B69742  28.799  35.734   7.256
 5552POPC   NC369743  39.982  10.826   5.516
 5552POPC   PO469744  40.039  11.509   5.375
 5552POPC   GL169745  40.065  11.267   5.762
 5552POPC   GL269746  40.377  11.106   5.792
 5552POPC   C1A69747  39.955  11.106   6.165
 5552POPC   D2A69748  39.934  11.389   6.523
 5552POPC   C3A69749  39.781  11.197   6.893
 5552POPC   C4A69750  39.849  11.152   7.337
 5552POPC   C1B69751  40.395  11.390   6.166
 5552POPC   C2B69752  40.458  11.480   6.601
 5552POPC   C3B69753  40.479  11.268   6.999
 5552POPC   C4B69754  40.343  11.202   7.410
 5553POPC   NC369755  29.501  44.189   5.528
 5553POPC   PO469756  29.030  44.612   5.344
 5553POPC   GL169757  29.281  44.695   5.764
 5553POPC   GL269758  29.569  44.963   5.797
 5553POPC   C1A69759  29.150  44.543   6.192
 5553POPC   D2A69760  29.256  44.588   6.623
 5553POPC   C3A69761  29.025  44.486   6.996
 5553POPC   C4A69762  28.737  44.639   7.329
 5553POPC   C1B69763  29.387   0.017   6.229
 5553POPC   C2B69764  29.352   0.125   6.666
 5553POPC   C3B69765  29.374  44.848   7.045
 5553POPC   C4B69766  29.231  44.657   7.443
 5554POPC   NC369767  19.557  42.941   5.443
 5554POPC   PO469768  19.824  42.368   5.338
 5554POPC   GL169769  19.864  42.224   5.794
 5554POPC   GL269770  19.527  42.109   5.931
 5554POPC   C1A69771  19.900  42.225   6.270
 5554POPC   D2A69772  19.624  42.138   6.619
 5554POPC   C3A69773  19.786  42.310   6.989
 5554POPC   C4A69774  20.005  42.137   7.295
 5554POPC   C1B69775  19.483  42.510   6.214
 5554POPC   C2B69776  19.612  42.666   6.653
 5554POPC   C3B69777  19.668  42.810   7.117
 5554POPC   C4B69778  19.711  42.876   7.608
 5555POPC   NC369779   6.933   5.884   5.466
 5555POPC   PO469780   6.311   5.948   5.431
 5555POPC   GL169781   6.517   6.076   5.814
 5555POPC   GL269782   6.856   6.038   5.947
 5555POPC   C1A69783   6.406   5.883   6.188
 5555POPC   D2A69784   6.516   5.643   6.525
 5555POPC   C3A69785   6.846   5.801   6.724
 5555POPC   C4A69786   6.731   5.843   7.141
 5555POPC   C1B69787   6.761   6.193   6.388
 5555POPC   C2B69788   6.441   6.100   6.733
 5555POPC   C3B69789   6.427   6.248   7.156
 5555POPC   C4B69790   6.534   6.191   7.581
 5556POPC   NC369791  40.703   3.356   5.399
 5556POPC   PO469792  41.145   3.928   5.447
 5556POPC   GL169793  40.893   3.726   5.805
 5556POPC   GL269794  40.857   3.388   5.861
 5556POPC   C1A69795  40.725   3.641   6.268
 5556POPC   D2A69796  40.464   3.815   6.566
 5556POPC   C3A69797  40.613   3.827   6.953
 5556POPC   C4A69798  40.995   3.679   7.105
 5556POPC   C1B69799  40.550   3.175   6.078
 5556POPC   C2B69800  40.641   3.100   6.479
 5556POPC   C3B69801  40.743   3.377   6.785
 5556POPC   C4B69802  40.487   3.388   7.187
 5557POPC   NC369803  14.821  31.230   5.377
 5557POPC   PO469804  14.315  31.618   5.326
 5557POPC   GL169805  14.575  31.523   5.750
 5557POPC   GL269806  14.353  31.287   5.953
 5557POPC   C1A69807  14.693  31.526   6.224
 5557POPC   D2A69808  14.287  31.392   6.470
 5557POPC   C3A69809  14.302  31.513   6.880
 5557POPC   C4A69810  14.666  31.766   7.017
 5557POPC   C1B69811  14.588  31.010   6.291
 5557POPC   C2B69812  14.674  30.834   6.736
 5557POPC   C3B69813  14.714  30.988   7.192
 5557POPC   C4B69814  14.481  31.117   7.600
 5558POPC   NC369815  32.781  17.984   5.506
 5558POPC   PO469816  32.475  18.554   5.397
 5558POPC   GL169817  32.868  18.521   5.714
 5558POPC   GL269818  33.079  18.213   5.853
 5558POPC   C1A69819  32.937  18.654   6.157
 5558POPC   D2A69820  33.087  18.549   6.586
 5558POPC   C3A69821  32.948  18.653   6.971
 5558POPC   C4A69822  33.023  18.286   7.241
 5558POPC   C1B69823  33.140  18.035   6.279
 5558POPC   C2B69824  33.391  18.062   6.679
 5558POPC   C3B69825  33.276  17.837   7.070
 5558POPC   C4B69826  33.262  17.933   7.512
 5559POPC   NC369827  37.451  10.858   5.434
 5559POPC   PO469828  37.200  10.151   5.357
 5559POPC   GL169829  37.415  10.347   5.786
 5559POPC   GL269830  37.305  10.675   5.889
 5559POPC   C1A69831  37.615  10.371   6.220
 5559POPC   D2A69832  37.605  10.636   6.609
 5559POPC   C3A69833  37.658  10.412   6.946
 5559POPC   C4A69834  37.528  10.167   7.227
 5559POPC   C1B69835  37.632  10.879   6.159
 5559POPC   C2B69836  38.041  10.787   6.405
 5559POPC   C3B69837  38.072  10.802   6.873
 5559POPC   C4B69838  37.795  10.788   7.243
 5560POPC   NC369839  34.369  16.955   5.307
 5560POPC   PO469840  34.174  17.507   5.600
 5560POPC   GL169841  34.626  17.414   5.755
 5560POPC   GL269842  34.653  17.084   5.747
 5560POPC   C1A69843  34.751  17.534   6.179
 5560POPC   D2A69844  34.503  17.632   6.524
 5560POPC   C3A69845  34.724  17.620   6.875
 5560POPC   C4A69846  34.571  17.562   7.292
 5560POPC   C1B69847  34.422  17.123   6.133
 5560POPC   C2B69848  34.557  17.107   6.544
 5560POPC   C3B69849  34.462  17.192   6.945
 5560POPC   C4B69850  34.260  16.942   7.206
 5561POPC   NC369851  38.329  17.292   5.528
 5561POPC   PO469852  38.676  17.890   5.600
 5561POPC   GL169853  38.422  17.655   5.883
 5561POPC   GL269854  38.569  17.332   5.990
 5561POPC   C1A69855  38.306  17.796   6.264
 5561POPC   D2A69856  38.527  17.725   6.637
 5561POPC   C3A69857  38.307  17.538   6.970
 5561POPC   C4A69858  38.118  17.204   7.211
 5561POPC   C1B69859  38.847  17.657   6.228
 5561POPC   C2B69860  39.082  17.702   6.637
 5561POPC   C3B69861  38.879  17.517   6.992
 5561POPC   C4B69862  38.648  17.700   7.327
 5562POPC   NC369863  32.833  36.856   5.414
 5562POPC   PO469864  33.382  37.262   5.209
 5562POPC   GL169865  33.267  37.234   5.684
 5562POPC   GL269866  32.923  37.271   5.775
 5562POPC   C1A69867  33.207  37.043   6.125
 5562POPC   D2A69868  33.236  37.098   6.540
 5562POPC   C3A69869  33.281  36.775   6.864
 5562POPC   C4A69870  33.078  36.787   7.270
 5562POPC   C1B69871  32.739  37.255   6.181
 5562POPC   C2B69872  32.804  37.392   6.605
 5562POPC   C3B69873  32.968  37.193   6.970
 5562POPC   C4B69874  32.737  37.160   7.391
 5563POPC   NC369875   1.781  13.062   5.572
 5563POPC   PO469876   2.295  12.728   5.381
 5563POPC   GL169877   2.081  12.728   5.811
 5563POPC   GL269878   1.757  12.586   5.852
 5563POPC   C1A69879   1.936  12.909   6.213
 5563POPC   D2A69880   2.192  13.012   6.541
 5563POPC   C3A69881   1.960  13.062   6.902
 5563POPC   C4A69882   2.013  13.055   7.333
 5563POPC   C1B69883   1.591  12.490   6.271
 5563POPC   C2B69884   1.769  12.576   6.700
 5563POPC   C3B69885   1.795  12.610   7.167
 5563POPC   C4B69886   1.912  12.559   7.617
 5564POPC   NC369887  29.859   1.830   5.464
 5564POPC   PO469888  29.911   2.447   5.207
 5564POPC   GL169889  30.029   2.243   5.707
 5564POPC   GL269890  30.095   1.835   5.895
 5564POPC   C1A69891  30.102   2.237   6.176
 5564POPC   D2A69892  30.057   2.034   6.589
 5564POPC   C3A69893  29.780   2.168   6.945
 5564POPC   C4A69894  29.978   2.078   7.319
 5564POPC   C1B69895  29.717   1.901   6.195
 5564POPC   C2B69896  29.584   1.812   6.633
 5564POPC   C3B69897  29.740   1.638   7.047
 5564POPC   C4B69898  29.876   1.569   7.502
 5565POPC   NC369899   4.304  16.702   5.534
 5565POPC   PO469900   4.593  17.224   5.398
 5565POPC   GL169901   4.675  16.950   5.819
 5565POPC   GL269902   4.443  16.703   6.008
 5565POPC   C1A69903   4.797  16.856   6.298
 5565POPC   D2A69904   4.459  16.804   6.562
 5565POPC   C3A69905   4.617  16.584   6.914
 5565POPC   C4A69906   4.555  16.774   7.305
 5565POPC   C1B69907   4.191  16.385   6.226
 5565POPC   C2B69908   3.847  16.389   6.537
 5565POPC   C3B69909   3.806  16.570   6.950
 5565POPC   C4B69910   4.170  16.506   7.173
 5566POPC   NC369911   7.172   9.460   5.166
 5566POPC   PO469912   7.024   8.830   5.412
 5566POPC   GL169913   7.267   9.017   5.761
 5566POPC   GL269914   7.417   8.710   5.882
 5566POPC   C1A69915   7.492   9.116   6.174
 5566POPC   D2A69916   7.446   8.887   6.555
 5566POPC   C3A69917   7.465   9.158   6.903
 5566POPC   C4A69918   7.179   9.161   7.271
 5566POPC   C1B69919   7.790   8.686   6.167
 5566POPC   C2B69920   7.796   8.525   6.604
 5566POPC   C3B69921   7.815   8.671   7.017
 5566POPC   C4B69922   7.410   8.719   7.159
 5567POPC   NC369923  26.270  33.386   5.456
 5567POPC   PO469924  26.039  33.992   5.284
 5567POPC   GL169925  25.999  34.018   5.874
 5567POPC   GL269926  25.688  34.138   5.922
 5567POPC   C1A69927  26.136  33.823   6.334
 5567POPC   D2A69928  25.961  33.825   6.760
 5567POPC   C3A69929  26.185  33.794   7.158
 5567POPC   C4A69930  26.376  33.523   7.504
 5567POPC   C1B69931  25.638  33.908   6.281
 5567POPC   C2B69932  25.466  33.963   6.673
 5567POPC   C3B69933  25.629  34.060   7.077
 5567POPC   C4B69934  25.760  33.867   7.454
 5568POPC   NC369935   3.733  38.811   5.229
 5568POPC   PO469936   3.274  38.367   5.273
 5568POPC   GL169937   3.453  38.340   5.689
 5568POPC   GL269938   3.625  38.672   5.753
 5568POPC   C1A69939   3.661  38.296   6.095
 5568POPC   D2A69940   3.654  38.567   6.445
 5568POPC   C3A69941   3.537  38.313   6.808
 5568POPC   C4A69942   3.655  38.353   7.239
 5568POPC   C1B69943   3.279  38.694   6.089
 5568POPC   C2B69944   3.153  38.598   6.536
 5568POPC   C3B69945   3.290  38.733   6.967
 5568POPC   C4B69946   3.325  38.684   7.437
 5569POPC   NC369947   9.453   5.223   5.239
 5569POPC   PO469948  10.131   4.902   5.366
 5569POPC   GL169949  10.027   5.144   5.755
 5569POPC   GL269950   9.662   5.209   5.850
 5569POPC   C1A69951  10.027   5.070   6.186
 5569POPC   D2A69952   9.842   4.854   6.527
 5569POPC   C3A69953   9.996   4.983   6.878
 5569POPC   C4A69954  10.040   4.978   7.246
 5569POPC   C1B69955   9.567   5.258   6.322
 5569POPC   C2B69956   9.543   5.230   6.773
 5569POPC   C3B69957   9.608   5.277   7.207
 5569POPC   C4B69958   9.488   5.499   7.591
 5570POPC   NC369959   7.658  34.884   5.540
 5570POPC   PO469960   7.299  34.231   5.388
 5570POPC   GL169961   7.414  34.354   5.820
 5570POPC   GL269962   7.308  34.719   5.879
 5570POPC   C1A69963   7.438  34.438   6.300
 5570POPC   D2A69964   7.358  34.777   6.620
 5570POPC   C3A69965   7.343  34.720   7.052
 5570POPC   C4A69966   7.082  34.888   7.346
 5570POPC   C1B69967   7.618  34.919   6.195
 5570POPC   C2B69968   7.860  34.670   6.501
 5570POPC   C3B69969   7.682  34.375   6.786
 5570POPC   C4B69970   7.809  34.565   7.146
 5571POPC   NC369971  12.088  30.900   5.348
 5571POPC   PO469972  12.284  30.158   5.525
 5571POPC   GL169973  12.136  30.557   5.725
 5571POPC   GL269974  12.381  30.847   5.755
 5571POPC   C1A69975  11.998  30.770   6.096
 5571POPC   D2A69976  12.167  30.928   6.477
 5571POPC   C3A69977  12.096  30.689   6.828
 5571POPC   C4A69978  11.984  30.508   7.214
 5571POPC   C1B69979  12.552  30.803   6.151
 5571POPC   C2B69980  12.685  31.019   6.516
 5571POPC   C3B69981  12.497  30.986   6.889
 5571POPC   C4B69982  12.319  30.889   7.265
 5572POPC   NC369983  19.796  39.276   5.255
 5572POPC   PO469984  19.288  39.498   5.598
 5572POPC   GL169985  19.677  39.390   5.852
 5572POPC   GL269986  19.924  39.095   5.805
 5572POPC   C1A69987  19.776  39.329   6.318
 5572POPC   D2A69988  19.610  39.246   6.722
 5572POPC   C3A69989  19.833  39.256   7.105
 5572POPC   C4A69990  19.651  39.535   7.379
 5572POPC   C1B69991  20.210  39.118   6.200
 5572POPC   C2B69992  20.160  39.201   6.694
 5572POPC   C3B69993  20.415  39.090   7.101
 5572POPC   C4B69994  20.396  38.947   7.559
 5573POPC   NC369995  44.998  18.906   5.386
 5573POPC   PO469996  44.695  19.405   5.298
 5573POPC   GL169997  44.620  19.166   5.696
 5573POPC   GL269998  44.334  18.915   5.802
 5573POPC   C1A69999  44.751  19.185   6.094
 5573POPC   D2A70000  44.615  19.109   6.509
 5573POPC   C3A70001  44.935  18.982   6.812
 5573POPC   C4A70002  44.895  19.214   7.191
 5573POPC   C1B70003  44.453  18.760   6.181
 5573POPC   C2B70004  44.642  18.609   6.526
 5573POPC   C3B70005  44.492  18.750   6.888
 5573POPC   C4B70006  44.689  18.756   7.261
 5574POPC   NC370007  11.195  39.280   5.533
 5574POPC   PO470008  11.829  38.972   5.535
 5574POPC   GL170009  11.500  39.009   5.856
 5574POPC   GL270010  11.615  39.334   5.871
 5574POPC   C1A70011  11.142  38.983   6.224
 5574POPC   D2A70012  10.953  39.154   6.682
 5574POPC   C3A70013  11.109  38.945   7.085
 5574POPC   C4A70014  11.521  38.935   7.225
 5574POPC   C1B70015  11.630  39.194   6.309
 5574POPC   C2B70016  11.565  39.421   6.663
 5574POPC   C3B70017  11.388  39.367   7.026
 5574POPC   C4B70018  11.501  39.406   7.437
 5575POPC   NC370019  40.943   2.556   5.483
 5575POPC   PO470020  40.400   3.000   5.435
 5575POPC   GL170021  40.579   2.750   5.773
 5575POPC   GL270022  40.910   2.879   5.873
 5575POPC   C1A70023  40.531   2.659   6.210
 5575POPC   D2A70024  40.751   2.608   6.586
 5575POPC   C3A70025  40.604   2.503   7.015
 5575POPC   C4A70026  40.719   2.718   7.400
 5575POPC   C1B70027  41.105   3.126   6.218
 5575POPC   C2B70028  41.128   2.983   6.644
 5575POPC   C3B70029  40.866   2.935   6.968
 5575POPC   C4B70030  40.947   3.199   7.264
 5576POPC   NC370031  21.075  35.515   5.426
 5576POPC   PO470032  20.453  35.177   5.532
 5576POPC   GL170033  20.619  35.466   5.779
 5576POPC   GL270034  20.342  35.637   5.933
 5576POPC   C1A70035  20.754  35.366   6.161
 5576POPC   D2A70036  20.598  35.251   6.528
 5576POPC   C3A70037  20.477  35.433   6.874
 5576POPC   C4A70038  20.700  35.559   7.226
 5576POPC   C1B70039  20.240  35.239   6.154
 5576POPC   C2B70040  20.102  35.182   6.570
 5576POPC   C3B70041  20.186  34.984   6.978
 5576POPC   C4B70042  20.401  35.166   7.339
 5577POPC   NC370043  21.557  15.906   5.430
 5577POPC   PO470044  20.874  15.780   5.388
 5577POPC   GL170045  21.164  15.847   5.759
 5577POPC   GL270046  21.001  16.094   5.931
 5577POPC   C1A70047  21.444  15.973   6.160
 5577POPC   D2A70048  21.634  16.097   6.587
 5577POPC   C3A70049  21.472  15.982   7.016
 5577POPC   C4A70050  21.192  15.936   7.373
 5577POPC   C1B70051  21.053  16.281   6.318
 5577POPC   C2B70052  21.077  16.127   6.731
 5577POPC   C3B70053  21.126  16.371   7.126
 5577POPC   C4B70054  21.114  16.407   7.590
 5578POPC   NC370055  27.016  25.645   5.405
 5578POPC   PO470056  26.566  25.129   5.479
 5578POPC   GL170057  26.857  25.177   5.834
 5578POPC   GL270058  27.092  25.459   5.876
 5578POPC   C1A70059  26.779  25.022   6.264
 5578POPC   D2A70060  27.022  24.759   6.524
 5578POPC   C3A70061  26.960  24.905   6.922
 5578POPC   C4A70062  26.884  25.117   7.291
 5578POPC   C1B70063  26.917  25.512   6.269
 5578POPC   C2B70064  27.058  25.531   6.700
 5578POPC   C3B70065  26.815  25.579   7.100
 5578POPC   C4B70066  26.808  25.606   7.564
 5579POPC   NC370067   5.502  24.525   5.383
 5579POPC   PO470068   6.124  24.324   5.281
 5579POPC   GL170069   5.834  24.340   5.723
 5579POPC   GL270070   5.681  24.711   5.826
 5579POPC   C1A70071   5.881  24.375   6.203
 5579POPC   D2A70072   6.153  24.628   6.493
 5579POPC   C3A70073   6.161  24.534   6.933
 5579POPC   C4A70074   6.044  24.247   7.236
 5579POPC   C1B70075   5.757  24.863   6.256
 5579POPC   C2B70076   5.669  24.680   6.666
 5579POPC   C3B70077   5.657  24.586   7.102
 5579POPC   C4B70078   5.495  24.565   7.529
 5580POPC   NC370079  28.779  35.178   5.398
 5580POPC   PO470080  28.102  35.399   5.432
 5580POPC   GL170081  28.279  35.443   5.798
 5580POPC   GL270082  28.446  35.178   5.801
 5580POPC   C1A70083  28.174  35.344   6.209
 5580POPC   D2A70084  28.204  35.549   6.594
 5580POPC   C3A70085  28.458  35.486   6.944
 5580POPC   C4A70086  28.338  35.438   7.370
 5580POPC   C1B70087  28.560  34.992   6.169
 5580POPC   C2B70088  28.401  35.047   6.575
 5580POPC   C3B70089  28.707  35.028   6.880
 5580POPC   C4B70090  28.778  35.217   7.280
 5581POPC   NC370091  38.595  11.478   5.506
 5581POPC   PO470092  38.176  11.097   5.315
 5581POPC   GL170093  38.338  11.137   5.776
 5581POPC   GL270094  38.374  11.495   5.956
 5581POPC   C1A70095  38.476  10.984   6.175
 5581POPC   D2A70096  38.392  11.121   6.589
 5581POPC   C3A70097  38.289  11.492   6.785
 5581POPC   C4A70098  38.345  11.310   7.175
 5581POPC   C1B70099  38.773  11.392   6.179
 5581POPC   C2B70100  38.912  11.296   6.587
 5581POPC   C3B70101  38.816  11.338   6.980
 5581POPC   C4B70102  38.902  11.554   7.335
 5582POPC   NC370103  42.485  33.769   5.450
 5582POPC   PO470104  41.945  34.202   5.265
 5582POPC   GL170105  42.040  33.976   5.677
 5582POPC   GL270106  42.334  34.125   5.879
 5582POPC   C1A70107  42.026  33.821   6.134
 5582POPC   D2A70108  42.197  34.072   6.493
 5582POPC   C3A70109  42.271  33.924   6.927
 5582POPC   C4A70110  42.106  33.822   7.328
 5582POPC   C1B70111  42.553  33.798   6.138
 5582POPC   C2B70112  42.493  33.604   6.549
 5582POPC   C3B70113  42.666  33.548   6.954
 5582POPC   C4B70114  42.624  33.801   7.304
 5583POPC   NC370115  33.921  26.241   5.365
 5583POPC   PO470116  33.503  25.905   5.700
 5583POPC   GL170117  33.796  26.183   5.877
 5583POPC   GL270118  34.123  26.059   5.802
 5583POPC   C1A70119  33.896  26.261   6.309
 5583POPC   D2A70120  33.753  25.912   6.564
 5583POPC   C3A70121  33.566  25.977   6.954
 5583POPC   C4A70122  33.612  26.313   7.239
 5583POPC   C1B70123  34.147  25.825   6.191
 5583POPC   C2B70124  34.275  25.971   6.593
 5583POPC   C3B70125  34.032  26.207   6.889
 5583POPC   C4B70126  33.988  25.970   7.256
 5584POPC   NC370127  28.025  16.030   5.494
 5584POPC   PO470128  27.677  16.487   5.227
 5584POPC   GL170129  27.677  16.205   5.770
 5584POPC   GL270130  27.981  16.325   5.902
 5584POPC   C1A70131  27.600  15.844   6.118
 5584POPC   D2A70132  27.264  15.725   6.467
 5584POPC   C3A70133  27.394  15.739   6.920
 5584POPC   C4A70134  27.832  15.728   7.055
 5584POPC   C1B70135  27.766  16.310   6.283
 5584POPC   C2B70136  27.565  16.149   6.634
 5584POPC   C3B70137  27.685  16.259   7.031
 5584POPC   C4B70138  27.996  16.148   7.276
 5585POPC   NC370139   5.143  32.456   5.357
 5585POPC   PO470140   4.836  31.834   5.381
 5585POPC   GL170141   4.926  32.132   5.735
 5585POPC   GL270142   5.299  32.251   5.799
 5585POPC   C1A70143   4.917  32.317   6.168
 5585POPC   D2A70144   5.114  32.292   6.590
 5585POPC   C3A70145   4.859  32.421   6.954
 5585POPC   C4A70146   4.989  32.169   7.276
 5585POPC   C1B70147   5.403  32.471   6.190
 5585POPC   C2B70148   5.425  32.694   6.605
 5585POPC   C3B70149   5.370  32.497   7.035
 5585POPC   C4B70150   5.328  32.430   7.552
 5586POPC   NC370151  27.235   8.401   5.414
 5586POPC   PO470152  27.456   7.804   5.502
 5586POPC   GL170153  27.709   8.104   5.743
 5586POPC   GL270154  27.514   8.406   5.863
 5586POPC   C1A70155  27.786   8.091   6.190
 5586POPC   D2A70156  27.503   8.025   6.535
 5586POPC   C3A70157  27.627   8.121   6.963
 5586POPC   C4A70158  27.962   8.048   7.218
 5586POPC   C1B70159  27.599   8.564   6.292
 5586POPC   C2B70160  27.444   8.504   6.703
 5586POPC   C3B70161  27.468   8.595   7.126
 5586POPC   C4B70162  27.233   8.577   7.518
 5587POPC   NC370163   3.034   2.299   5.232
 5587POPC   PO470164   3.655   2.015   5.276
 5587POPC   GL170165   3.532   1.894   5.719
 5587POPC   GL270166   3.298   1.587   5.742
 5587POPC   C1A70167   3.497   2.069   6.172
 5587POPC   D2A70168   3.445   2.170   6.631
 5587POPC   C3A70169   3.845   2.044   6.875
 5587POPC   C4A70170   3.802   1.953   7.320
 5587POPC   C1B70171   3.355   1.570   6.211
 5587POPC   C2B70172   3.576   1.680   6.613
 5587POPC   C3B70173   3.375   1.833   7.014
 5587POPC   C4B70174   3.092   1.512   7.105
 5588POPC   NC370175  13.805  24.790   5.131
 5588POPC   PO470176  13.665  24.278   5.547
 5588POPC   GL170177  13.621  24.621   5.826
 5588POPC   GL270178  13.920  24.836   5.809
 5588POPC   C1A70179  13.453  24.650   6.254
 5588POPC   D2A70180  13.569  24.509   6.660
 5588POPC   C3A70181  13.344  24.480   7.067
 5588POPC   C4A70182  13.601  24.546   7.445
 5588POPC   C1B70183  13.967  24.578   6.208
 5588POPC   C2B70184  14.013  24.757   6.614
 5588POPC   C3B70185  13.889  24.666   7.022
 5588POPC   C4B70186  14.082  24.616   7.376
 5589POPC   NC370187  18.738   0.949   5.574
 5589POPC   PO470188  18.400   0.444   5.271
 5589POPC   GL170189  18.243   0.596   5.701
 5589POPC   GL270190  18.531   0.586   5.905
 5589POPC   C1A70191  18.074   0.423   6.134
 5589POPC   D2A70192  18.154   0.467   6.605
 5589POPC   C3A70193  18.026   0.214   6.967
 5589POPC   C4A70194  18.127   0.322   7.374
 5589POPC   C1B70195  18.575   0.392   6.317
 5589POPC   C2B70196  18.680   0.438   6.756
 5589POPC   C3B70197  18.545   0.247   7.131
 5589POPC   C4B70198  18.616   0.369   7.588
 5590POPC   NC370199  35.836   0.737   5.017
 5590POPC   PO470200  36.072   0.275   5.475
 5590POPC   GL170201  36.121   0.360   5.866
 5590POPC   GL270202  35.991   0.702   5.860
 5590POPC   C1A70203  35.896   0.314   6.249
 5590POPC   D2A70204  35.747   0.437   6.652
 5590POPC   C3A70205  35.982   0.255   7.003
 5590POPC   C4A70206  36.269  44.944   7.148
 5590POPC   C1B70207  36.252   0.686   6.252
 5590POPC   C2B70208  36.221   0.918   6.635
 5590POPC   C3B70209  36.387   0.974   7.010
 5590POPC   C4B70210  36.234   0.626   7.234
 5591POPC   NC370211  38.197  19.723   5.372
 5591POPC   PO470212  38.841  20.027   5.457
 5591POPC   GL170213  38.435  20.047   5.713
 5591POPC   GL270214  38.434  19.729   5.826
 5591POPC   C1A70215  38.213  20.063   6.135
 5591POPC   D2A70216  38.054  20.048   6.547
 5591POPC   C3A70217  38.311  19.973   6.883
 5591POPC   C4A70218  38.211  19.789   7.253
 5591POPC   C1B70219  38.604  19.575   6.195
 5591POPC   C2B70220  38.447  19.542   6.603
 5591POPC   C3B70221  38.602  19.552   6.975
 5591POPC   C4B70222  38.525  19.364   7.338
 5592POPC   NC370223  40.923  12.214   5.367
 5592POPC   PO470224  41.037  11.565   5.355
 5592POPC   GL170225  41.059  11.862   5.714
 5592POPC   GL270226  40.679  11.967   5.770
 5592POPC   C1A70227  41.030  12.095   6.114
 5592POPC   D2A70228  40.811  11.982   6.501
 5592POPC   C3A70229  40.947  12.174   6.858
 5592POPC   C4A70230  40.730  12.126   7.217
 5592POPC   C1B70231  40.534  12.242   6.152
 5592POPC   C2B70232  40.498  12.381   6.601
 5592POPC   C3B70233  40.465  12.543   7.018
 5592POPC   C4B70234  40.760  12.600   7.365
 5593POPC   NC370235  35.964  15.955   5.238
 5593POPC   PO470236  35.290  15.785   5.448
 5593POPC   GL170237  35.336  16.076   5.805
 5593POPC   GL270238  35.358  15.805   5.993
 5593POPC   C1A70239  35.405  16.221   6.267
 5593POPC   D2A70240  35.229  16.317   6.697
 5593POPC   C3A70241  35.341  16.052   7.051
 5593POPC   C4A70242  35.500  16.102   7.487
 5593POPC   C1B70243  35.006  15.714   6.220
 5593POPC   C2B70244  34.968  15.834   6.638
 5593POPC   C3B70245  34.883  15.651   7.013
 5593POPC   C4B70246  35.146  15.692   7.359
 5594POPC   NC370247   2.885  42.005   5.614
 5594POPC   PO470248   2.510  41.529   5.242
 5594POPC   GL170249   2.584  41.446   5.713
 5594POPC   GL270250   2.877  41.572   5.875
 5594POPC   C1A70251   2.542  41.283   6.187
 5594POPC   D2A70252   2.594  41.261   6.659
 5594POPC   C3A70253   2.985  41.349   6.828
 5594POPC   C4A70254   3.133  41.467   7.207
 5594POPC   C1B70255   2.639  41.810   6.189
 5594POPC   C2B70256   2.774  41.746   6.599
 5594POPC   C3B70257   2.611  41.712   6.980
 5594POPC   C4B70258   2.827  41.852   7.317
 5595POPC   NC370259  35.176  15.301   5.351
 5595POPC   PO470260  35.780  15.312   5.565
 5595POPC   GL170261  35.412  15.083   5.757
 5595POPC   GL270262  35.153  15.322   5.878
 5595POPC   C1A70263  35.291  14.908   6.165
 5595POPC   D2A70264  35.521  14.997   6.551
 5595POPC   C3A70265  35.335  14.914   6.913
 5595POPC   C4A70266  35.079  15.204   7.119
 5595POPC   C1B70267  35.531  15.374   6.177
 5595POPC   C2B70268  35.612  15.509   6.587
 5595POPC   C3B70269  35.659  15.306   6.969
 5595POPC   C4B70270  35.703  15.066   7.341
 5596POPC   NC370271  11.655  36.723   5.514
 5596POPC   PO470272  11.386  37.299   5.510
 5596POPC   GL170273  11.432  37.016   5.890
 5596POPC   GL270274  11.251  36.688   5.867
 5596POPC   C1A70275  11.349  36.918   6.330
 5596POPC   D2A70276  11.547  36.753   6.698
 5596POPC   C3A70277  11.335  36.894   7.067
 5596POPC   C4A70278  11.258  36.782   7.462
 5596POPC   C1B70279  10.956  36.622   6.226
 5596POPC   C2B70280  10.986  36.747   6.693
 5596POPC   C3B70281  10.939  36.557   7.133
 5596POPC   C4B70282  10.845  36.498   7.594
 5597POPC   NC370283  24.350  26.572   5.449
 5597POPC   PO470284  24.208  25.892   5.402
 5597POPC   GL170285  24.360  26.062   5.812
 5597POPC   GL270286  24.127  26.366   5.858
 5597POPC   C1A70287  24.693  26.117   6.197
 5597POPC   D2A70288  24.654  26.248   6.673
 5597POPC   C3A70289  24.705  25.951   7.059
 5597POPC   C4A70290  24.673  25.965   7.530
 5597POPC   C1B70291  24.197  26.214   6.280
 5597POPC   C2B70292  24.007  26.071   6.633
 5597POPC   C3B70293  24.218  26.127   6.987
 5597POPC   C4B70294  24.288  26.262   7.384
 5598POPC   NC370295  26.362   6.660   5.462
 5598POPC   PO470296  25.726   6.935   5.459
 5598POPC   GL170297  26.023   6.865   5.803
 5598POPC   GL270298  25.753   6.887   6.037
 5598POPC   C1A70299  26.224   6.689   6.213
 5598POPC   D2A70300  26.096   6.789   6.631
 5598POPC   C3A70301  26.301   6.683   7.019
 5598POPC   C4A70302  26.243   6.427   7.380
 5598POPC   C1B70303  25.791   6.432   6.130
 5598POPC   C2B70304  25.859   6.312   6.564
 5598POPC   C3B70305  25.830   6.478   6.980
 5598POPC   C4B70306  25.617   6.402   7.337
 5599POPC   NC370307  38.079   2.585   5.365
 5599POPC   PO470308  37.417   2.409   5.531
 5599POPC   GL170309  37.762   2.525   5.789
 5599POPC   GL270310  37.944   2.843   5.819
 5599POPC   C1A70311  37.703   2.486   6.220
 5599POPC   D2A70312  37.725   2.670   6.637
 5599POPC   C3A70313  37.480   2.778   6.992
 5599POPC   C4A70314  37.488   2.511   7.325
 5599POPC   C1B70315  37.939   2.934   6.248
 5599POPC   C2B70316  38.079   3.055   6.643
 5599POPC   C3B70317  38.001   2.855   7.039
 5599POPC   C4B70318  37.754   2.930   7.443
 5600POPC   NC370319   1.890   2.594   5.418
 5600POPC   PO470320   2.058   3.170   5.706
 5600POPC   GL170321   1.976   2.799   5.931
 5600POPC   GL270322   2.215   2.501   5.831
 5600POPC   C1A70323   1.914   2.903   6.383
 5600POPC   D2A70324   1.973   3.223   6.715
 5600POPC   C3A70325   1.999   2.943   7.056
 5600POPC   C4A70326   1.692   2.762   7.310
 5600POPC   C1B70327   2.096   2.396   6.263
 5600POPC   C2B70328   2.267   2.460   6.667
 5600POPC   C3B70329   2.151   2.454   7.113
 5600POPC   C4B70330   2.052   2.478   7.515
 5601POPC   NC370331   5.325  19.599   5.397
 5601POPC   PO470332   4.851  19.899   5.242
 5601POPC   GL170333   4.988  20.015   5.671
 5601POPC   GL270334   4.674  20.002   5.871
 5601POPC   C1A70335   5.226  19.953   6.082
 5601POPC   D2A70336   5.255  19.650   6.439
 5601POPC   C3A70337   5.359  19.752   6.911
 5601POPC   C4A70338   5.313  19.497   7.275
 5601POPC   C1B70339   4.780  19.848   6.309
 5601POPC   C2B70340   4.895  19.810   6.745
 5601POPC   C3B70341   4.887  19.781   7.203
 5601POPC   C4B70342   4.783  20.096   7.544
 5602POPC   NC370343  28.949  41.486   5.130
 5602POPC   PO470344  29.235  41.990   5.478
 5602POPC   GL170345  29.331  41.593   5.635
 5602POPC   GL270346  29.034  41.372   5.659
 5602POPC   C1A70347  29.382  41.510   6.068
 5602POPC   D2A70348  29.170  41.518   6.451
 5602POPC   C3A70349  29.276  41.359   6.831
 5602POPC   C4A70350  29.311  41.479   7.239
 5602POPC   C1B70351  28.947  41.223   6.089
 5602POPC   C2B70352  28.770  41.140   6.475
 5602POPC   C3B70353  28.850  41.098   6.913
 5602POPC   C4B70354  28.842  41.201   7.370
 5603POPC   NC370355   7.391   8.510   5.390
 5603POPC   PO470356   6.897   8.125   5.419
 5603POPC   GL170357   7.237   8.234   5.790
 5603POPC   GL270358   7.570   8.059   5.779
 5603POPC   C1A70359   7.476   8.302   6.223
 5603POPC   D2A70360   7.362   8.253   6.675
 5603POPC   C3A70361   7.548   8.218   7.065
 5603POPC   C4A70362   7.210   8.165   7.386
 5603POPC   C1B70363   7.718   7.844   6.182
 5603POPC   C2B70364   7.797   8.000   6.602
 5603POPC   C3B70365   7.886   7.820   7.006
 5603POPC   C4B70366   7.755   7.918   7.442
 5604POPC   NC370367  27.018  22.016   5.343
 5604POPC   PO470368  26.475  22.191   5.509
 5604POPC   GL170369  26.802  22.270   5.781
 5604POPC   GL270370  27.061  22.036   5.855
 5604POPC   C1A70371  26.780  22.235   6.229
 5604POPC   D2A70372  26.549  21.956   6.501
 5604POPC   C3A70373  26.576  22.130   6.903
 5604POPC   C4A70374  26.596  22.086   7.344
 5604POPC   C1B70375  27.067  21.786   6.261
 5604POPC   C2B70376  26.995  21.845   6.724
 5604POPC   C3B70377  27.065  22.122   7.116
 5604POPC   C4B70378  27.105  22.067   7.610
 5605POPC   NC370379  27.957   0.394   5.360
 5605POPC   PO470380  28.643   0.498   5.295
 5605POPC   GL170381  28.368   0.574   5.666
 5605POPC   GL270382  28.667   0.440   5.849
 5605POPC   C1A70383  28.177   0.699   6.102
 5605POPC   D2A70384  28.022   0.518   6.523
 5605POPC   C3A70385  27.966   0.697   6.931
 5605POPC   C4A70386  28.236   0.782   7.250
 5605POPC   C1B70387  28.434   0.226   6.165
 5605POPC   C2B70388  28.364   0.144   6.596
 5605POPC   C3B70389  28.421   0.445   6.906
 5605POPC   C4B70390  28.600   0.436   7.277
 5606POPC   NC370391  27.290  16.748   5.246
 5606POPC   PO470392  26.676  16.551   5.354
 5606POPC   GL170393  26.834  16.642   5.793
 5606POPC   GL270394  26.690  16.918   5.978
 5606POPC   C1A70395  26.875  16.532   6.238
 5606POPC   D2A70396  26.895  16.750   6.613
 5606POPC   C3A70397  26.756  16.490   6.959
 5606POPC   C4A70398  26.344  16.367   7.060
 5606POPC   C1B70399  26.708  17.177   6.354
 5606POPC   C2B70400  26.873  17.290   6.763
 5606POPC   C3B70401  26.909  16.968   7.078
 5606POPC   C4B70402  26.542  16.989   7.309
 5607POPC   NC370403  17.085  36.062   5.285
 5607POPC   PO470404  16.452  35.915   5.516
 5607POPC   GL170405  16.660  36.170   5.840
 5607POPC   GL270406  17.016  36.204   5.793
 5607POPC   C1A70407  16.546  36.276   6.280
 5607POPC   D2A70408  16.320  36.121   6.676
 5607POPC   C3A70409  16.552  36.129   7.066
 5607POPC   C4A70410  16.719  36.364   7.446
 5607POPC   C1B70411  17.067  36.163   6.242
 5607POPC   C2B70412  16.883  36.189   6.659
 5607POPC   C3B70413  17.059  36.188   7.074
 5607POPC   C4B70414  17.018  35.940   7.455
 5608POPC   NC370415  18.002   3.430   5.110
 5608POPC   PO470416  18.541   3.712   5.378
 5608POPC   GL170417  18.332   3.484   5.770
 5608POPC   GL270418  17.960   3.515   5.788
 5608POPC   C1A70419  18.322   3.452   6.252
 5608POPC   D2A70420  18.548   3.713   6.599
 5608POPC   C3A70421  18.383   3.690   7.012
 5608POPC   C4A70422  18.220   3.305   7.151
 5608POPC   C1B70423  17.904   3.762   6.195
 5608POPC   C2B70424  18.020   3.812   6.661
 5608POPC   C3B70425  17.914   3.824   7.136
 5608POPC   C4B70426  18.099   3.618   7.532
 5609POPC   NC370427  42.765   1.195   5.436
 5609POPC   PO470428  42.253   1.078   5.167
 5609POPC   GL170429  42.260   1.165   5.683
 5609POPC   GL270430  42.487   0.950   5.779
 5609POPC   C1A70431  42.536   1.333   6.099
 5609POPC   D2A70432  42.773   1.271   6.510
 5609POPC   C3A70433  42.514   1.236   6.888
 5609POPC   C4A70434  42.592   1.293   7.303
 5609POPC   C1B70435  42.302   0.882   6.156
 5609POPC   C2B70436  42.408   0.823   6.573
 5609POPC   C3B70437  42.113   0.763   6.901
 5609POPC   C4B70438  42.220   0.955   7.251
 5610POPC   NC370439  30.256  29.728   5.444
 5610POPC   PO470440  29.626  29.999   5.648
 5610POPC   GL170441  29.674  29.830   6.026
 5610POPC   GL270442  29.969  29.645   5.900
 5610POPC   C1A70443  29.742  29.882   6.468
 5610POPC   D2A70444  30.031  30.032   6.788
 5610POPC   C3A70445  29.836  29.966   7.181
 5610POPC   C4A70446  29.680  29.646   7.455
 5610POPC   C1B70447  30.163  29.664   6.302
 5610POPC   C2B70448  30.048  29.483   6.709
 5610POPC   C3B70449  30.237  29.615   7.119
 5610POPC   C4B70450  30.155  29.772   7.547
 5611POPC   NC370451   9.813  31.804   5.333
 5611POPC   PO470452   9.385  31.557   5.757
 5611POPC   GL170453   9.567  31.332   5.964
 5611POPC   GL270454   9.862  31.192   5.759
 5611POPC   C1A70455   9.475  31.462   6.385
 5611POPC   D2A70456   9.522  31.515   6.789
 5611POPC   C3A70457   9.903  31.631   7.001
 5611POPC   C4A70458   9.577  31.473   7.308
 5611POPC   C1B70459   9.987  31.310   6.198
 5611POPC   C2B70460   9.895  31.217   6.621
 5611POPC   C3B70461   9.864  31.132   7.056
 5611POPC   C4B70462  10.061  31.340   7.430
 5612POPC   NC370463  12.672  33.065   5.359
 5612POPC   PO470464  13.161  32.678   5.482
 5612POPC   GL170465  12.917  32.915   5.801
 5612POPC   GL270466  12.622  32.694   5.815
 5612POPC   C1A70467  12.877  33.195   6.197
 5612POPC   D2A70468  12.684  33.278   6.612
 5612POPC   C3A70469  12.947  33.427   6.918
 5612POPC   C4A70470  12.865  33.602   7.307
 5612POPC   C1B70471  12.835  32.661   6.238
 5612POPC   C2B70472  12.663  32.746   6.628
 5612POPC   C3B70473  12.773  32.712   7.055
 5612POPC   C4B70474  12.867  33.074   7.299
 5613POPC   NC370475  25.589   2.887   5.373
 5613POPC   PO470476  24.972   2.572   5.524
 5613POPC   GL170477  25.320   2.705   5.781
 5613POPC   GL270478  25.286   3.060   5.761
 5613POPC   C1A70479  25.286   2.788   6.203
 5613POPC   D2A70480  25.018   2.585   6.430
 5613POPC   C3A70481  25.060   2.729   6.832
 5613POPC   C4A70482  25.188   2.600   7.225
 5613POPC   C1B70483  25.652   3.118   6.032
 5613POPC   C2B70484  25.594   3.116   6.487
 5613POPC   C3B70485  25.560   2.822   6.845
 5613POPC   C4B70486  25.500   2.966   7.278
 5614POPC   NC370487  39.461  35.485   5.100
 5614POPC   PO470488  39.026  35.040   5.416
 5614POPC   GL170489  39.075  35.356   5.732
 5614POPC   GL270490  39.358  35.201   5.867
 5614POPC   C1A70491  38.952  35.271   6.147
 5614POPC   D2A70492  39.259  35.096   6.465
 5614POPC   C3A70493  39.292  35.334   6.856
 5614POPC   C4A70494  39.055  35.339   7.227
 5614POPC   C1B70495  39.381  35.535   6.199
 5614POPC   C2B70496  39.630  35.606   6.548
 5614POPC   C3B70497  39.724  35.595   6.952
 5614POPC   C4B70498  39.457  35.634   7.278
 5615POPC   NC370499  35.583  14.388   5.348
 5615POPC   PO470500  35.012  14.428   5.505
 5615POPC   GL170501  35.305  14.298   5.819
 5615POPC   GL270502  35.545  14.575   5.842
 5615POPC   C1A70503  35.368  14.289   6.272
 5615POPC   D2A70504  35.197  14.151   6.675
 5615POPC   C3A70505  35.282  14.370   7.045
 5615POPC   C4A70506  35.542  14.067   7.250
 5615POPC   C1B70507  35.743  14.658   6.245
 5615POPC   C2B70508  35.621  14.509   6.662
 5615POPC   C3B70509  35.720  14.624   7.078
 5615POPC   C4B70510  35.747  14.575   7.501
 5616POPC   NC370511  28.918   6.515   5.473
 5616POPC   PO470512  29.497   6.213   5.526
 5616POPC   GL170513  29.285   6.532   5.847
 5616POPC   GL270514  28.925   6.445   5.972
 5616POPC   C1A70515  29.229   6.731   6.285
 5616POPC   D2A70516  29.057   6.807   6.727
 5616POPC   C3A70517  29.375   6.803   7.054
 5616POPC   C4A70518  29.455   7.111   7.385
 5616POPC   C1B70519  28.842   6.210   6.357
 5616POPC   C2B70520  28.739   6.396   6.771
 5616POPC   C3B70521  28.958   6.469   7.150
 5616POPC   C4B70522  28.852   6.451   7.616
 5617POPC   NC370523  29.795  35.632   5.084
 5617POPC   PO470524  30.232  35.241   5.420
 5617POPC   GL170525  30.123  35.325   5.842
 5617POPC   GL270526  29.836  35.532   5.944
 5617POPC   C1A70527  30.260  35.592   6.193
 5617POPC   D2A70528  29.925  35.646   6.482
 5617POPC   C3A70529  29.994  35.493   6.879
 5617POPC   C4A70530  29.769  35.519   7.270
 5617POPC   C1B70531  29.773  35.194   6.219
 5617POPC   C2B70532  29.644  34.972   6.567
 5617POPC   C3B70533  29.583  35.178   6.944
 5617POPC   C4B70534  29.585  35.036   7.361
 5618POPC   NC370535  42.909  20.413   5.451
 5618POPC   PO470536  43.226  21.019   5.444
 5618POPC   GL170537  43.261  20.873   5.836
 5618POPC   GL270538  43.152  20.537   5.858
 5618POPC   C1A70539  43.024  20.847   6.238
 5618POPC   D2A70540  42.792  20.786   6.620
 5618POPC   C3A70541  43.070  20.913   6.961
 5618POPC   C4A70542  43.196  20.785   7.373
 5618POPC   C1B70543  42.961  20.343   6.218
 5618POPC   C2B70544  43.108  20.380   6.616
 5618POPC   C3B70545  42.922  20.436   7.010
 5618POPC   C4B70546  42.914  20.160   7.298
 5619POPC   NC370547  26.039  43.678   5.221
 5619POPC   PO470548  26.577  43.488   5.514
 5619POPC   GL170549  26.416  43.574   5.903
 5619POPC   GL270550  26.189  43.826   5.821
 5619POPC   C1A70551  26.382  43.694   6.353
 5619POPC   D2A70552  26.079  43.940   6.615
 5619POPC   C3A70553  26.020  43.760   7.035
 5619POPC   C4A70554  25.966  43.659   7.466
 5619POPC   C1B70555  25.878  43.763   6.167
 5619POPC   C2B70556  25.596  44.017   6.433
 5619POPC   C3B70557  25.643  44.089   6.878
 5619POPC   C4B70558  25.775  44.175   7.322
 5620POPC   NC370559  35.632   0.287   5.322
 5620POPC   PO470560  35.133   0.702   5.423
 5620POPC   GL170561  35.193   0.438   5.761
 5620POPC   GL270562  35.571   0.359   5.816
 5620POPC   C1A70563  35.079   0.461   6.202
 5620POPC   D2A70564  35.255   0.612   6.600
 5620POPC   C3A70565  35.058   0.416   6.942
 5620POPC   C4A70566  35.137   0.506   7.367
 5620POPC   C1B70567  35.444   0.113   6.151
 5620POPC   C2B70568  35.310   0.076   6.579
 5620POPC   C3B70569  35.489   0.153   6.985
 5620POPC   C4B70570  35.587   0.597   7.138
 5621POPC   NC370571   6.791   0.135   5.337
 5621POPC   PO470572   6.618  44.498   5.542
 5621POPC   GL170573   6.730  44.666   5.960
 5621POPC   GL270574   6.782  44.999   5.830
 5621POPC   C1A70575   6.637  44.451   6.384
 5621POPC   D2A70576   6.390  44.277   6.752
 5621POPC   C3A70577   6.519  44.435   7.147
 5621POPC   C4A70578   6.947  44.494   7.275
 5621POPC   C1B70579   6.707   0.157   6.232
 5621POPC   C2B70580   6.658  44.919   6.608
 5621POPC   C3B70581   6.759  44.894   7.062
 5621POPC   C4B70582   6.629  44.789   7.538
 5622POPC   NC370583  18.666  37.757   5.434
 5622POPC   PO470584  19.164  38.162   5.174
 5622POPC   GL170585  19.239  37.935   5.627
 5622POPC   GL270586  19.036  37.628   5.793
 5622POPC   C1A70587  19.289  37.943   6.097
 5622POPC   D2A70588  19.040  37.958   6.465
 5622POPC   C3A70589  19.074  37.919   6.929
 5622POPC   C4A70590  18.973  37.759   7.365
 5622POPC   C1B70591  18.977  37.481   6.253
 5622POPC   C2B70592  19.169  37.472   6.710
 5622POPC   C3B70593  19.397  37.576   7.154
 5622POPC   C4B70594  19.373  37.664   7.651
 5623POPC   NC370595  24.291  42.897   5.476
 5623POPC   PO470596  24.871  43.156   5.505
 5623POPC   GL170597  24.802  42.913   5.868
 5623POPC   GL270598  24.506  43.105   5.913
 5623POPC   C1A70599  24.667  42.810   6.299
 5623POPC   D2A70600  24.616  43.123   6.624
 5623POPC   C3A70601  24.712  42.977   7.049
 5623POPC   C4A70602  24.814  42.571   7.216
 5623POPC   C1B70603  24.140  43.211   6.146
 5623POPC   C2B70604  24.134  43.351   6.557
 5623POPC   C3B70605  24.286  43.330   6.951
 5623POPC   C4B70606  24.227  43.046   7.195
 5624POPC   NC370607  40.142  42.952   5.352
 5624POPC   PO470608  39.470  43.234   5.350
 5624POPC   GL170609  39.850  43.226   5.680
 5624POPC   GL270610  40.018  42.885   5.844
 5624POPC   C1A70611  39.887  43.245   6.161
 5624POPC   D2A70612  39.982  42.939   6.469
 5624POPC   C3A70613  40.249  43.086   6.785
 5624POPC   C4A70614  40.257  43.131   7.206
 5624POPC   C1B70615  40.380  42.895   6.170
 5624POPC   C2B70616  40.378  42.649   6.598
 5624POPC   C3B70617  40.440  42.679   7.028
 5624POPC   C4B70618  40.558  42.629   7.453
 5625POPC   NC370619  44.107  22.595   5.557
 5625POPC   PO470620  43.785  21.995   5.389
 5625POPC   GL170621  44.046  22.080   5.782
 5625POPC   GL270622  43.984  22.385   6.015
 5625POPC   C1A70623  44.065  21.926   6.229
 5625POPC   D2A70624  43.865  22.108   6.595
 5625POPC   C3A70625  44.020  22.037   6.986
 5625POPC   C4A70626  44.089  22.195   7.403
 5625POPC   C1B70627  43.578  22.163   6.165
 5625POPC   C2B70628  43.442  21.826   6.463
 5625POPC   C3B70629  43.549  21.816   6.912
 5625POPC   C4B70630  43.645  21.968   7.350
 5626POPC   NC370631   6.017  40.440   5.641
 5626POPC   PO470632   5.906  39.814   5.459
 5626POPC   GL170633   5.891  39.985   5.878
 5626POPC   GL270634   5.655  40.247   5.970
 5626POPC   C1A70635   5.693  39.844   6.262
 5626POPC   D2A70636   5.455  39.764   6.603
 5626POPC   C3A70637   5.720  39.720   6.911
 5626POPC   C4A70638   5.732  39.982   7.189
 5626POPC   C1B70639   5.924  40.297   6.337
 5626POPC   C2B70640   5.881  40.240   6.785
 5626POPC   C3B70641   6.024  40.390   7.215
 5626POPC   C4B70642   6.286  40.203   7.578
 5627POPC   NC370643  26.991  28.869   5.528
 5627POPC   PO470644  26.673  29.305   5.102
 5627POPC   GL170645  26.634  29.233   5.656
 5627POPC   GL270646  26.700  29.517   5.881
 5627POPC   C1A70647  26.674  29.058   6.115
 5627POPC   D2A70648  26.483  29.006   6.545
 5627POPC   C3A70649  26.633  29.223   6.936
 5627POPC   C4A70650  26.663  29.084   7.368
 5627POPC   C1B70651  27.027  29.558   6.249
 5627POPC   C2B70652  27.153  29.457   6.700
 5627POPC   C3B70653  27.069  29.452   7.162
 5627POPC   C4B70654  26.997  29.356   7.647
 5628POPC   NC370655  35.716  28.622   5.549
 5628POPC   PO470656  35.227  28.193   5.382
 5628POPC   GL170657  35.316  28.393   5.804
 5628POPC   GL270658  35.260  28.773   5.820
 5628POPC   C1A70659  35.395  28.346   6.254
 5628POPC   D2A70660  35.599  28.437   6.652
 5628POPC   C3A70661  35.427  28.211   7.022
 5628POPC   C4A70662  35.521  27.770   7.066
 5628POPC   C1B70663  35.023  28.903   6.203
 5628POPC   C2B70664  35.115  28.670   6.569
 5628POPC   C3B70665  35.289  28.706   6.966
 5628POPC   C4B70666  35.095  28.600   7.338
 5629POPC   NC370667  18.441   4.802   5.528
 5629POPC   PO470668  17.913   5.199   5.502
 5629POPC   GL170669  18.207   5.137   5.839
 5629POPC   GL270670  18.373   5.466   5.901
 5629POPC   C1A70671  18.167   4.967   6.247
 5629POPC   D2A70672  18.241   5.169   6.644
 5629POPC   C3A70673  18.319   4.876   6.968
 5629POPC   C4A70674  18.086   4.809   7.302
 5629POPC   C1B70675  18.607   5.248   6.245
 5629POPC   C2B70676  18.746   5.078   6.660
 5629POPC   C3B70677  18.700   5.185   7.130
 5629POPC   C4B70678  18.465   5.241   7.530
 5630POPC   NC370679  31.798  25.903   5.407
 5630POPC   PO470680  31.341  26.272   5.170
 5630POPC   GL170681  31.387  26.169   5.639
 5630POPC   GL270682  31.417  25.831   5.789
 5630POPC   C1A70683  31.413  26.214   6.123
 5630POPC   D2A70684  31.308  26.186   6.582
 5630POPC   C3A70685  31.466  26.341   6.984
 5630POPC   C4A70686  31.686  26.038   7.236
 5630POPC   C1B70687  31.269  25.601   6.151
 5630POPC   C2B70688  31.315  25.652   6.610
 5630POPC   C3B70689  31.515  25.599   7.012
 5630POPC   C4B70690  31.450  25.612   7.458
 5631POPC   NC370691  15.033  24.762   5.492
 5631POPC   PO470692  15.069  24.080   5.430
 5631POPC   GL170693  14.955  24.343   5.794
 5631POPC   GL270694  15.302  24.419   5.795
 5631POPC   C1A70695  14.871  24.578   6.192
 5631POPC   D2A70696  14.911  24.928   6.500
 5631POPC   C3A70697  14.965  24.825   6.937
 5631POPC   C4A70698  14.812  24.397   7.016
 5631POPC   C1B70699  15.381  24.506   6.221
 5631POPC   C2B70700  15.168  24.355   6.588
 5631POPC   C3B70701  15.312  24.449   6.985
 5631POPC   C4B70702  15.683  24.575   7.099
 5632POPC   NC370703   0.477  33.897   5.314
 5632POPC   PO470704   0.471  33.272   5.462
 5632POPC   GL170705   0.450  33.633   5.768
 5632POPC   GL270706   0.304  34.006   5.780
 5632POPC   C1A70707   0.536  33.785   6.181
 5632POPC   D2A70708   0.700  33.687   6.553
 5632POPC   C3A70709   0.419  33.592   6.874
 5632POPC   C4A70710   0.358  33.765   7.256
 5632POPC   C1B70711   0.123  34.136   6.184
 5632POPC   C2B70712   0.183  33.969   6.583
 5632POPC   C3B70713  44.997  33.984   6.966
 5632POPC   C4B70714   0.073  34.232   7.302
 5633POPC   NC370715  15.873  17.180   5.759
 5633POPC   PO470716  15.888  16.581   5.509
 5633POPC   GL170717  15.798  16.701   5.902
 5633POPC   GL270718  16.160  16.807   5.920
 5633POPC   C1A70719  15.850  16.783   6.347
 5633POPC   D2A70720  15.952  16.555   6.725
 5633POPC   C3A70721  15.705  16.691   7.067
 5633POPC   C4A70722  15.895  16.810   7.411
 5633POPC   C1B70723  16.310  17.124   6.222
 5633POPC   C2B70724  16.170  17.113   6.622
 5633POPC   C3B70725  16.140  16.973   7.008
 5633POPC   C4B70726  16.354  17.034   7.398
 5634POPC   NC370727  19.077  22.309   5.351
 5634POPC   PO470728  19.373  21.725   5.541
 5634POPC   GL170729  19.021  21.970   5.819
 5634POPC   GL270730  18.920  22.327   5.817
 5634POPC   C1A70731  19.163  22.272   6.239
 5634POPC   D2A70732  19.051  22.421   6.662
 5634POPC   C3A70733  18.944  22.037   6.914
 5634POPC   C4A70734  19.202  21.773   7.136
 5634POPC   C1B70735  18.686  22.416   6.207
 5634POPC   C2B70736  18.568  22.262   6.623
 5634POPC   C3B70737  18.614  22.385   7.080
 5634POPC   C4B70738  18.803  22.152   7.424
 5635POPC   NC370739   0.959  30.786   5.490
 5635POPC   PO470740   1.554  31.029   5.440
 5635POPC   GL170741   1.491  30.663   5.790
 5635POPC   GL270742   1.137  30.599   5.903
 5635POPC   C1A70743   1.456  30.409   6.228
 5635POPC   D2A70744   1.475  30.625   6.602
 5635POPC   C3A70745   1.357  30.544   7.028
 5635POPC   C4A70746   1.376  30.894   7.297
 5635POPC   C1B70747   1.078  30.773   6.272
 5635POPC   C2B70748   0.964  30.625   6.656
 5635POPC   C3B70749   0.931  30.815   7.014
 5635POPC   C4B70750   0.875  30.611   7.401
 5636POPC   NC370751  41.072  30.893   5.525
 5636POPC   PO470752  40.504  30.660   5.255
 5636POPC   GL170753  40.624  30.690   5.719
 5636POPC   GL270754  40.456  31.016   5.791
 5636POPC   C1A70755  40.917  30.665   6.126
 5636POPC   D2A70756  41.189  30.590   6.523
 5636POPC   C3A70757  41.034  30.735   6.914
 5636POPC   C4A70758  40.677  30.661   7.094
 5636POPC   C1B70759  40.413  30.808   6.183
 5636POPC   C2B70760  40.651  30.791   6.555
 5636POPC   C3B70761  40.346  30.915   6.805
 5636POPC   C4B70762  40.284  30.949   7.223
 5637POPC   NC370763  38.376  18.956   5.219
 5637POPC   PO470764  38.102  19.380   5.647
 5637POPC   GL170765  38.437  19.216   5.872
 5637POPC   GL270766  38.449  18.934   5.717
 5637POPC   C1A70767  38.332  19.146   6.303
 5637POPC   D2A70768  38.187  18.862   6.578
 5637POPC   C3A70769  38.260  19.027   6.979
 5637POPC   C4A70770  38.145  18.988   7.387
 5637POPC   C1B70771  38.528  18.730   6.111
 5637POPC   C2B70772  38.602  18.592   6.479
 5637POPC   C3B70773  38.575  18.563   6.891
 5637POPC   C4B70774  38.592  18.759   7.277
 5638POPC   NC370775  31.360  31.151   5.071
 5638POPC   PO470776  31.715  31.566   5.464
 5638POPC   GL170777  31.585  31.361   5.783
 5638POPC   GL270778  31.240  31.288   5.805
 5638POPC   C1A70779  31.685  31.411   6.165
 5638POPC   D2A70780  31.471  31.589   6.483
 5638POPC   C3A70781  31.691  31.564   6.846
 5638POPC   C4A70782  31.718  31.790   7.197
 5638POPC   C1B70783  31.129  31.249   6.253
 5638POPC   C2B70784  31.275  31.197   6.729
 5638POPC   C3B70785  31.327  31.347   7.163
 5638POPC   C4B70786  31.144  31.277   7.572
 5639POPC   NC370787  36.962  18.019   5.283
 5639POPC   PO470788  36.400  17.900   5.537
 5639POPC   GL170789  36.672  18.222   5.753
 5639POPC   GL270790  37.037  18.160   5.801
 5639POPC   C1A70791  36.704  18.470   6.160
 5639POPC   D2A70792  36.833  18.233   6.521
 5639POPC   C3A70793  37.050  18.378   6.888
 5639POPC   C4A70794  36.774  18.390   7.202
 5639POPC   C1B70795  37.323  18.078   6.147
 5639POPC   C2B70796  37.299  18.004   6.581
 5639POPC   C3B70797  37.355  17.874   6.991
 5639POPC   C4B70798  37.161  17.945   7.344
 5640POPC   NC370799   1.467  36.163   5.303
 5640POPC   PO470800   0.813  36.572   5.338
 5640POPC   GL170801   0.917  36.354   5.745
 5640POPC   GL270802   1.079  36.063   5.673
 5640POPC   C1A70803   1.231  36.340   6.132
 5640POPC   D2A70804   1.559  36.254   6.484
 5640POPC   C3A70805   1.432  36.361   6.938
 5640POPC   C4A70806   1.396  36.641   7.313
 5640POPC   C1B70807   1.056  35.864   6.057
 5640POPC   C2B70808   1.178  35.918   6.486
 5640POPC   C3B70809   0.971  36.054   6.847
 5640POPC   C4B70810   1.112  36.084   7.265
 5641POPC   NC370811  28.092  21.969   5.110
 5641POPC   PO470812  27.474  22.090   5.346
 5641POPC   GL170813  27.540  22.206   5.771
 5641POPC   GL270814  27.895  22.160   5.822
 5641POPC   C1A70815  27.458  22.130   6.207
 5641POPC   D2A70816  27.363  22.182   6.630
 5641POPC   C3A70817  27.703  22.083   6.883
 5641POPC   C4A70818  27.553  22.179   7.261
 5641POPC   C1B70819  27.807  22.509   6.129
 5641POPC   C2B70820  27.744  22.529   6.592
 5641POPC   C3B70821  27.909  22.534   7.029
 5641POPC   C4B70822  27.908  22.448   7.493
 5642POPC   NC370823  43.916  42.328   5.151
 5642POPC   PO470824  43.846  41.655   5.024
 5642POPC   GL170825  43.698  41.627   5.560
 5642POPC   GL270826  43.951  41.711   5.851
 5642POPC   C1A70827  43.605  41.416   6.050
 5642POPC   D2A70828  43.583  41.240   6.501
 5642POPC   C3A70829  43.822  41.359   6.888
 5642POPC   C4A70830  43.772  41.672   7.210
 5642POPC   C1B70831  44.128  41.889   6.285
 5642POPC   C2B70832  44.089  41.940   6.773
 5642POPC   C3B70833  44.276  41.691   7.130
 5642POPC   C4B70834  44.248  41.334   7.450
 5643POPC   NC370835  36.343  27.352   5.536
 5643POPC   PO470836  35.752  27.484   5.241
 5643POPC   GL170837  35.863  27.577   5.742
 5643POPC   GL270838  36.062  27.356   5.971
 5643POPC   C1A70839  35.995  27.803   6.198
 5643POPC   D2A70840  35.833  27.885   6.655
 5643POPC   C3A70841  36.044  27.708   7.043
 5643POPC   C4A70842  36.260  27.809   7.450
 5643POPC   C1B70843  36.396  27.422   6.263
 5643POPC   C2B70844  36.201  27.349   6.662
 5643POPC   C3B70845  36.359  27.291   7.036
 5643POPC   C4B70846  36.600  27.427   7.345
 5644POPC   NC370847  23.840  33.586   5.717
 5644POPC   PO470848  23.489  34.033   5.360
 5644POPC   GL170849  23.673  34.119   5.781
 5644POPC   GL270850  24.001  34.016   5.890
 5644POPC   C1A70851  23.584  34.010   6.233
 5644POPC   D2A70852  23.601  33.645   6.519
 5644POPC   C3A70853  23.675  33.673   6.974
 5644POPC   C4A70854  23.337  33.590   7.214
 5644POPC   C1B70855  24.119  33.919   6.276
 5644POPC   C2B70856  23.940  34.094   6.615
 5644POPC   C3B70857  24.052  34.020   6.988
 5644POPC   C4B70858  24.022  33.915   7.402
 5645POPC   NC370859  43.456  24.104   5.593
 5645POPC   PO470860  42.883  23.956   5.162
 5645POPC   GL170861  42.980  23.705   5.609
 5645POPC   GL270862  43.296  23.549   5.756
 5645POPC   C1A70863  42.950  23.684   6.128
 5645POPC   D2A70864  43.121  23.658   6.587
 5645POPC   C3A70865  42.928  23.705   7.022
 5645POPC   C4A70866  42.937  23.519   7.463
 5645POPC   C1B70867  43.454  23.791   6.154
 5645POPC   C2B70868  43.446  24.057   6.526
 5645POPC   C3B70869  43.345  24.054   6.962
 5645POPC   C4B70870  43.368  23.750   7.286
 5646POPC   NC370871   5.391  43.254   5.131
 5646POPC   PO470872   5.108  42.710   5.315
 5646POPC   GL170873   5.229  43.056   5.635
 5646POPC   GL270874   5.045  43.331   5.844
 5646POPC   C1A70875   5.428  43.020   6.066
 5646POPC   D2A70876   5.460  42.903   6.522
 5646POPC   C3A70877   5.122  42.984   6.829
 5646POPC   C4A70878   4.799  43.131   7.146
 5646POPC   C1B70879   5.006  43.263   6.320
 5646POPC   C2B70880   4.977  43.464   6.749
 5646POPC   C3B70881   5.175  43.501   7.182
 5646POPC   C4B70882   5.442  43.442   7.544
 5647POPC   NC370883  41.812   5.393   5.456
 5647POPC   PO470884  41.464   4.866   5.312
 5647POPC   GL170885  41.637   4.992   5.722
 5647POPC   GL270886  41.438   5.285   5.785
 5647POPC   C1A70887  41.842   5.174   6.119
 5647POPC   D2A70888  41.896   4.990   6.556
 5647POPC   C3A70889  41.798   5.219   6.927
 5647POPC   C4A70890  41.599   5.145   7.314
 5647POPC   C1B70891  41.358   5.017   6.166
 5647POPC   C2B70892  41.111   5.023   6.529
 5647POPC   C3B70893  41.194   5.086   6.958
 5647POPC   C4B70894  41.178   5.418   7.249
 5648POPC   NC370895  15.551  27.725   5.570
 5648POPC   PO470896  15.406  27.060   5.505
 5648POPC   GL170897  15.222  27.394   5.791
 5648POPC   GL270898  15.087  27.776   5.752
 5648POPC   C1A70899  15.266  27.404   6.239
 5648POPC   D2A70900  15.442  27.454   6.653
 5648POPC   C3A70901  15.139  27.374   6.975
 5648POPC   C4A70902  15.189  27.477   7.409
 5648POPC   C1B70903  15.212  27.911   6.182
 5648POPC   C2B70904  15.146  27.896   6.644
 5648POPC   C3B70905  15.266  27.861   7.072
 5648POPC   C4B70906  15.245  27.985   7.506
 5649POPC   NC370907   0.704  18.389   5.490
 5649POPC   PO470908   0.055  18.451   5.345
 5649POPC   GL170909   0.239  18.251   5.748
 5649POPC   GL270910   0.544  17.991   5.824
 5649POPC   C1A70911   0.359  18.497   6.122
 5649POPC   D2A70912   0.168  18.514   6.536
 5649POPC   C3A70913   0.400  18.424   6.902
 5649POPC   C4A70914   0.490  18.334   7.318
 5649POPC   C1B70915   0.603  18.085   6.291
 5649POPC   C2B70916   0.776  18.134   6.721
 5649POPC   C3B70917   0.753  17.916   7.138
 5649POPC   C4B70918   0.718  17.967   7.613
 5650POPC   NC370919  39.432  44.330   5.039
 5650POPC   PO470920  39.030  43.846   5.229
 5650POPC   GL170921  39.189  43.702   5.644
 5650POPC   GL270922  39.310  44.015   5.855
 5650POPC   C1A70923  39.017  43.665   6.076
 5650POPC   D2A70924  39.158  43.668   6.506
 5650POPC   C3A70925  38.865  43.660   6.815
 5650POPC   C4A70926  38.785  43.411   7.179
 5650POPC   C1B70927  39.099  44.136   6.291
 5650POPC   C2B70928  39.102  44.086   6.768
 5650POPC   C3B70929  38.879  44.036   7.176
 5650POPC   C4B70930  38.502  44.200   7.378
 5651POPC   NC370931   5.581  27.849   5.448
 5651POPC   PO470932   6.085  27.455   5.538
 5651POPC   GL170933   5.759  27.506   5.850
 5651POPC   GL270934   5.772  27.871   5.929
 5651POPC   C1A70935   5.756  27.525   6.307
 5651POPC   D2A70936   5.886  27.728   6.682
 5651POPC   C3A70937   5.686  27.585   7.063
 5651POPC   C4A70938   5.888  27.345   7.397
 5651POPC   C1B70939   6.117  28.092   6.162
 5651POPC   C2B70940   6.242  28.204   6.602
 5651POPC   C3B70941   6.307  27.911   6.933
 5651POPC   C4B70942   6.051  27.840   7.297
 5652POPC   NC370943  23.248  20.336   5.388
 5652POPC   PO470944  22.642  20.656   5.320
 5652POPC   GL170945  22.819  20.637   5.749
 5652POPC   GL270946  22.962  20.336   5.832
 5652POPC   C1A70947  22.761  20.646   6.228
 5652POPC   D2A70948  22.480  20.754   6.581
 5652POPC   C3A70949  22.656  20.687   6.998
 5652POPC   C4A70950  22.993  20.793   7.293
 5652POPC   C1B70951  23.170  20.324   6.259
 5652POPC   C2B70952  23.078  20.488   6.685
 5652POPC   C3B70953  23.193  20.333   7.100
 5652POPC   C4B70954  23.101  20.346   7.541
 5653POPC   NC370955  15.509  36.759   5.556
 5653POPC   PO470956  14.831  36.968   5.379
 5653POPC   GL170957  15.012  36.822   5.787
 5653POPC   GL270958  15.190  37.104   5.808
 5653POPC   C1A70959  15.148  36.670   6.227
 5653POPC   D2A70960  15.171  36.939   6.632
 5653POPC   C3A70961  15.225  36.795   7.045
 5653POPC   C4A70962  14.979  36.873   7.437
 5653POPC   C1B70963  15.261  37.206   6.222
 5653POPC   C2B70964  15.599  37.254   6.554
 5653POPC   C3B70965  15.665  37.140   6.996
 5653POPC   C4B70966  15.423  37.143   7.374
 5654POPC   NC370967  35.040  13.030   5.554
 5654POPC   PO470968  35.685  13.037   5.559
 5654POPC   GL170969  35.445  12.887   5.898
 5654POPC   GL270970  35.128  12.643   5.854
 5654POPC   C1A70971  35.565  13.058   6.310
 5654POPC   D2A70972  35.721  13.083   6.715
 5654POPC   C3A70973  35.453  13.168   7.059
 5654POPC   C4A70974  35.150  13.038   7.384
 5654POPC   C1B70975  35.139  12.778   6.281
 5654POPC   C2B70976  35.401  12.682   6.618
 5654POPC   C3B70977  35.330  12.680   7.032
 5654POPC   C4B70978  34.971  12.555   7.234
 5655POPC   NC370979  21.772  24.763   5.401
 5655POPC   PO470980  22.295  24.321   5.152
 5655POPC   GL170981  22.203  24.535   5.595
 5655POPC   GL270982  22.451  24.420   5.813
 5655POPC   C1A70983  22.043  24.596   6.078
 5655POPC   D2A70984  22.182  24.634   6.565
 5655POPC   C3A70985  21.960  24.604   6.985
 5655POPC   C4A70986  21.821  24.351   7.283
 5655POPC   C1B70987  22.544  24.655   6.199
 5655POPC   C2B70988  22.660  24.815   6.636
 5655POPC   C3B70989  22.443  24.749   7.045
 5655POPC   C4B70990  22.445  24.863   7.525
 5656POPC   NC370991  34.962  30.230   5.603
 5656POPC   PO470992  35.391  29.947   5.139
 5656POPC   GL170993  35.374  29.767   5.642
 5656POPC   GL270994  35.136  29.869   5.925
 5656POPC   C1A70995  35.541  29.666   6.119
 5656POPC   D2A70996  35.492  29.613   6.582
 5656POPC   C3A70997  35.611  29.911   6.895
 5656POPC   C4A70998  35.472  30.031   7.280
 5656POPC   C1B70999  35.155  29.994   6.315
 5656POPC   C2B71000  35.306  30.216   6.616
 5656POPC   C3B71001  35.070  30.189   6.966
 5656POPC   C4B71002  35.055  30.294   7.400
 5657POPC   NC371003  15.861  32.523   5.457
 5657POPC   PO471004  16.031  31.845   5.456
 5657POPC   GL171005  15.958  32.162   5.803
 5657POPC   GL271006  16.135  32.472   5.882
 5657POPC   C1A71007  15.756  32.103   6.211
 5657POPC   D2A71008  15.968  31.902   6.552
 5657POPC   C3A71009  15.799  32.033   6.942
 5657POPC   C4A71010  16.070  32.255   7.234
 5657POPC   C1B71011  16.193  32.363   6.299
 5657POPC   C2B71012  16.061  32.400   6.695
 5657POPC   C3B71013  16.361  32.559   6.916
 5657POPC   C4B71014  16.399  32.645   7.303
 5658POPC   NC371015  10.902   6.088   5.448
 5658POPC   PO471016  11.574   5.779   5.440
 5658POPC   GL171017  11.271   5.823   5.772
 5658POPC   GL271018  11.191   5.497   5.925
 5658POPC   C1A71019  11.306   5.887   6.231
 5658POPC   D2A71020  11.123   5.794   6.645
 5658POPC   C3A71021  11.122   6.143   6.948
 5658POPC   C4A71022  11.548   6.178   7.119
 5658POPC   C1B71023  11.568   5.306   6.174
 5658POPC   C2B71024  11.768   5.258   6.609
 5658POPC   C3B71025  11.621   5.448   7.022
 5658POPC   C4B71026  11.234   5.677   7.144
 5659POPC   NC371027  29.128   0.433   5.318
 5659POPC   PO471028  29.097   1.074   5.641
 5659POPC   GL171029  29.153   0.675   5.880
 5659POPC   GL271030  29.191   0.306   5.802
 5659POPC   C1A71031  29.067   0.439   6.270
 5659POPC   D2A71032  28.823   0.401   6.598
 5659POPC   C3A71033  29.068   0.466   6.919
 5659POPC   C4A71034  29.065   0.600   7.267
 5659POPC   C1B71035  28.909  45.000   6.013
 5659POPC   C2B71036  28.818  44.903   6.440
 5659POPC   C3B71037  28.894  44.960   6.869
 5659POPC   C4B71038  28.979   0.086   7.290
 5660POPC   NC371039  42.200  20.470   5.192
 5660POPC   PO471040  42.583  20.596   5.728
 5660POPC   GL171041  42.218  20.571   5.940
 5660POPC   GL271042  42.124  20.206   5.858
 5660POPC   C1A71043  42.290  20.663   6.370
 5660POPC   D2A71044  42.177  20.458   6.731
 5660POPC   C3A71045  42.432  20.714   7.012
 5660POPC   C4A71046  42.254  21.040   7.277
 5660POPC   C1B71047  42.405  20.182   6.226
 5660POPC   C2B71048  42.619  20.232   6.630
 5660POPC   C3B71049  42.456  20.184   7.066
 5660POPC   C4B71050  42.366  20.421   7.430
 5661POPC   NC371051  40.190  41.352   5.472
 5661POPC   PO471052  40.192  41.950   5.812
 5661POPC   GL171053  40.096  41.569   5.950
 5661POPC   GL271054  39.802  41.455   5.936
 5661POPC   C1A71055  40.118  41.397   6.363
 5661POPC   D2A71056  40.110  41.661   6.741
 5661POPC   C3A71057  40.107  41.391   7.107
 5661POPC   C4A71058  39.921  40.981   7.198
 5661POPC   C1B71059  39.702  41.665   6.345
 5661POPC   C2B71060  39.700  41.361   6.682
 5661POPC   C3B71061  39.549  41.356   7.093
 5661POPC   C4B71062  39.608  41.441   7.513
 5662POPC   NC371063  37.525  20.303   5.430
 5662POPC   PO471064  37.960  20.845   5.475
 5662POPC   GL171065  37.684  20.678   5.776
 5662POPC   GL271066  37.800  20.361   5.866
 5662POPC   C1A71067  37.691  20.771   6.188
 5662POPC   D2A71068  37.952  20.581   6.431
 5662POPC   C3A71069  37.865  20.850   6.750
 5662POPC   C4A71070  37.759  20.721   7.138
 5662POPC   C1B71071  37.418  20.360   6.164
 5662POPC   C2B71072  37.575  20.262   6.621
 5662POPC   C3B71073  37.454  20.273   7.083
 5662POPC   C4B71074  37.456  20.164   7.564
 5663POPC   NC371075  15.518  17.728   5.446
 5663POPC   PO471076  16.191  17.431   5.553
 5663POPC   GL171077  16.136  17.601   5.949
 5663POPC   GL271078  15.780  17.633   6.013
 5663POPC   C1A71079  16.129  17.597   6.408
 5663POPC   D2A71080  16.235  17.788   6.792
 5663POPC   C3A71081  16.191  17.487   7.101
 5663POPC   C4A71082  16.088  17.467   7.537
 5663POPC   C1B71083  15.732  17.294   6.368
 5663POPC   C2B71084  15.676  17.111   6.774
 5663POPC   C3B71085  15.746  17.245   7.226
 5663POPC   C4B71086  15.617  17.326   7.703
 5664POPC   NC371087  29.319  11.850   5.581
 5664POPC   PO471088  28.887  12.393   5.373
 5664POPC   GL171089  29.005  12.306   5.805
 5664POPC   GL271090  29.340  12.191   5.967
 5664POPC   C1A71091  29.006  12.418   6.255
 5664POPC   D2A71092  29.302  12.185   6.550
 5664POPC   C3A71093  29.108  11.951   6.899
 5664POPC   C4A71094  29.098  12.213   7.214
 5664POPC   C1B71095  29.476  11.819   6.225
 5664POPC   C2B71096  29.431  11.646   6.646
 5664POPC   C3B71097  29.527  11.701   7.077
 5664POPC   C4B71098  29.286  11.766   7.444
 5665POPC   NC371099  22.440  43.367   5.344
 5665POPC   PO471100  21.916  42.931   5.316
 5665POPC   GL171101  22.028  42.951   5.770
 5665POPC   GL271102  22.183  43.283   5.808
 5665POPC   C1A71103  22.248  42.912   6.199
 5665POPC   D2A71104  22.403  43.010   6.623
 5665POPC   C3A71105  22.129  43.087   6.938
 5665POPC   C4A71106  21.878  43.044   7.310
 5665POPC   C1B71107  22.384  43.412   6.193
 5665POPC   C2B71108  22.327  43.534   6.609
 5665POPC   C3B71109  22.351  43.524   7.026
 5665POPC   C4B71110  22.017  43.527   7.342
 5666POPC   NC371111  10.238  42.358   5.485
 5666POPC   PO471112  10.760  42.771   5.483
 5666POPC   GL171113  10.708  42.550   5.867
 5666POPC   GL271114  10.486  42.266   5.940
 5666POPC   C1A71115  10.574  42.612   6.295
 5666POPC   D2A71116  10.301  42.452   6.610
 5666POPC   C3A71117  10.494  42.306   6.973
 5666POPC   C4A71118  10.568  42.582   7.300
 5666POPC   C1B71119  10.236  42.082   6.271
 5666POPC   C2B71120  10.122  41.980   6.706
 5666POPC   C3B71121   9.984  42.301   6.998
 5666POPC   C4B71122  10.082  42.408   7.422
 5667POPC   NC371123  34.873  43.875   5.135
 5667POPC   PO471124  34.336  44.113   5.290
 5667POPC   GL171125  34.593  44.144   5.699
 5667POPC   GL271126  34.400  44.301   5.957
 5667POPC   C1A71127  34.749  43.944   6.127
 5667POPC   D2A71128  34.573  43.786   6.542
 5667POPC   C3A71129  34.758  43.868   6.963
 5667POPC   C4A71130  34.663  43.696   7.400
 5667POPC   C1B71131  34.227  43.881   6.157
 5667POPC   C2B71132  34.101  43.575   6.507
 5667POPC   C3B71133  33.997  43.693   6.929
 5667POPC   C4B71134  34.279  43.899   7.152
 5668POPC   NC371135   2.783  28.048   5.436
 5668POPC   PO471136   2.975  27.388   5.537
 5668POPC   GL171137   2.755  27.632   5.822
 5668POPC   GL271138   3.014  27.476   6.031
 5668POPC   C1A71139   2.736  27.830   6.236
 5668POPC   D2A71140   2.653  27.628   6.614
 5668POPC   C3A71141   2.712  27.538   7.028
 5668POPC   C4A71142   2.304  27.445   7.223
 5668POPC   C1B71143   3.118  27.087   6.208
 5668POPC   C2B71144   3.016  27.267   6.629
 5668POPC   C3B71145   3.141  27.300   7.026
 5668POPC   C4B71146   3.216  27.222   7.415
 5669POPC   NC371147  29.244  14.272   5.495
 5669POPC   PO471148  29.123  14.848   5.258
 5669POPC   GL171149  29.016  14.709   5.725
 5669POPC   GL271150  29.207  14.460   5.963
 5669POPC   C1A71151  28.837  14.679   6.193
 5669POPC   D2A71152  28.880  14.440   6.603
 5669POPC   C3A71153  29.244  14.384   6.888
 5669POPC   C4A71154  29.172  14.413   7.334
 5669POPC   C1B71155  29.234  14.172   6.315
 5669POPC   C2B71156  29.183  13.904   6.682
 5669POPC   C3B71157  29.206  13.925   7.157
 5669POPC   C4B71158  29.379  14.022   7.566
 5670POPC   NC371159  29.233  10.159   5.607
 5670POPC   PO471160  29.577   9.692   5.288
 5670POPC   GL171161  29.384   9.615   5.703
 5670POPC   GL271162  29.053   9.707   5.777
 5670POPC   C1A71163  29.336   9.420   6.105
 5670POPC   D2A71164  29.197   9.537   6.510
 5670POPC   C3A71165  29.413   9.560   6.901
 5670POPC   C4A71166  29.481   9.982   7.088
 5670POPC   C1B71167  28.972   9.908   6.209
 5670POPC   C2B71168  28.809   9.828   6.683
 5670POPC   C3B71169  28.963   9.726   7.137
 5670POPC   C4B71170  28.821   9.714   7.607
 5671POPC   NC371171  30.864  28.947   5.586
 5671POPC   PO471172  30.447  29.433   5.719
 5671POPC   GL171173  30.573  29.115   5.965
 5671POPC   GL271174  30.376  28.840   5.856
 5671POPC   C1A71175  30.848  29.061   6.317
 5671POPC   D2A71176  30.941  29.349   6.667
 5671POPC   C3A71177  30.889  29.119   7.043
 5671POPC   C4A71178  30.584  29.258   7.317
 5671POPC   C1B71179  30.397  28.777   6.297
 5671POPC   C2B71180  30.414  29.042   6.675
 5671POPC   C3B71181  30.411  28.859   7.089
 5671POPC   C4B71182  30.401  28.867   7.585
 5672POPC   NC371183   9.853   2.983   5.437
 5672POPC   PO471184   9.615   2.317   5.405
 5672POPC   GL171185   9.517   2.670   5.733
 5672POPC   GL271186   9.836   2.598   5.796
 5672POPC   C1A71187   9.577   2.950   6.150
 5672POPC   D2A71188   9.561   3.177   6.601
 5672POPC   C3A71189   9.624   2.965   7.027
 5672POPC   C4A71190   9.397   2.700   7.361
 5672POPC   C1B71191   9.881   2.541   6.222
 5672POPC   C2B71192   9.865   2.726   6.599
 5672POPC   C3B71193   9.941   2.553   6.970
 5672POPC   C4B71194   9.672   2.329   7.210
 5673POPC   NC371195  33.334  39.953   5.463
 5673POPC   PO471196  32.676  40.003   5.413
 5673POPC   GL171197  32.901  39.926   5.788
 5673POPC   GL271198  33.214  40.065   5.945
 5673POPC   C1A71199  32.853  39.661   6.126
 5673POPC   D2A71200  33.016  39.808   6.500
 5673POPC   C3A71201  32.781  39.760   6.866
 5673POPC   C4A71202  32.960  40.028   7.147
 5673POPC   C1B71203  33.437  40.433   6.143
 5673POPC   C2B71204  33.389  40.600   6.563
 5673POPC   C3B71205  33.285  40.390   6.965
 5673POPC   C4B71206  33.456  40.070   7.212
 5674POPC   NC371207   8.292   9.510   5.238
 5674POPC   PO471208   8.120  10.129   5.383
 5674POPC   GL171209   8.257   9.825   5.708
 5674POPC   GL271210   7.981   9.580   5.716
 5674POPC   C1A71211   8.407   9.598   6.088
 5674POPC   D2A71212   8.307   9.358   6.482
 5674POPC   C3A71213   8.359   9.520   6.901
 5674POPC   C4A71214   8.248   9.635   7.311
 5674POPC   C1B71215   7.911   9.700   6.173
 5674POPC   C2B71216   7.824   9.526   6.617
 5674POPC   C3B71217   7.786   9.585   7.086
 5674POPC   C4B71218   7.806   9.893   7.463
 5675POPC   NC371219   0.544   5.340   5.251
 5675POPC   PO471220   0.375   4.692   5.382
 5675POPC   GL171221   0.554   4.960   5.664
 5675POPC   GL271222   0.369   5.273   5.789
 5675POPC   C1A71223   0.619   4.836   6.086
 5675POPC   D2A71224   0.403   4.933   6.452
 5675POPC   C3A71225   0.578   4.902   6.859
 5675POPC   C4A71226   0.412   5.049   7.248
 5675POPC   C1B71227   0.192   5.357   6.238
 5675POPC   C2B71228   0.292   5.376   6.717
 5675POPC   C3B71229   0.683   5.400   6.997
 5675POPC   C4B71230   0.729   5.376   7.501
 5676POPC   NC371231  39.926  44.834   5.004
 5676POPC   PO471232  39.848  44.118   5.137
 5676POPC   GL171233  39.743  44.164   5.546
 5676POPC   GL271234  40.002  44.417   5.550
 5676POPC   C1A71235  39.773  44.210   6.003
 5676POPC   D2A71236  40.001  44.292   6.393
 5676POPC   C3A71237  39.987  43.979   6.730
 5676POPC   C4A71238  40.021  44.016   7.237
 5676POPC   C1B71239  40.230  44.480   5.954
 5676POPC   C2B71240  40.362  44.866   6.193
 5676POPC   C3B71241  40.711  44.982   6.491
 5676POPC   C4B71242  40.871   0.201   6.882
 5677POPC   NC371243  32.107  15.695   5.494
 5677POPC   PO471244  32.319  16.429   5.383
 5677POPC   GL171245  32.352  16.122   5.707
 5677POPC   GL271246  31.990  16.177   5.784
 5677POPC   C1A71247  32.302  16.007   6.161
 5677POPC   D2A71248  32.423  15.826   6.568
 5677POPC   C3A71249  32.520  16.013   6.915
 5677POPC   C4A71250  32.333  16.134   7.278
 5677POPC   C1B71251  31.768  16.088   6.171
 5677POPC   C2B71252  31.897  15.888   6.522
 5677POPC   C3B71253  31.980  15.924   6.940
 5677POPC   C4B71254  31.964  15.820   7.371
 5678POPC   NC371255  19.728  24.594   5.370
 5678POPC   PO471256  20.051  24.042   5.602
 5678POPC   GL171257  19.979  24.442   5.801
 5678POPC   GL271258  19.624  24.588   5.873
 5678POPC   C1A71259  20.071  24.690   6.142
 5678POPC   D2A71260  20.040  24.790   6.580
 5678POPC   C3A71261  20.170  24.427   6.801
 5678POPC   C4A71262  20.238  24.357   7.229
 5678POPC   C1B71263  19.492  24.407   6.269
 5678POPC   C2B71264  19.685  24.336   6.674
 5678POPC   C3B71265  19.736  24.459   7.105
 5678POPC   C4B71266  19.496  24.365   7.504
 5679POPC   NC371267   4.557  29.582   5.403
 5679POPC   PO471268   4.406  28.917   5.374
 5679POPC   GL171269   4.353  29.034   5.781
 5679POPC   GL271270   4.654  29.206   5.834
 5679POPC   C1A71271   4.416  28.968   6.227
 5679POPC   D2A71272   4.239  29.153   6.594
 5679POPC   C3A71273   4.302  28.965   7.008
 5679POPC   C4A71274   4.226  29.122   7.423
 5679POPC   C1B71275   4.826  29.404   6.248
 5679POPC   C2B71276   4.758  29.162   6.613
 5679POPC   C3B71277   4.718  29.252   7.029
 5679POPC   C4B71278   4.801  29.387   7.432
 5680POPC   NC371279  41.303  20.029   5.206
 5680POPC   PO471280  41.547  19.512   5.572
 5680POPC   GL171281  41.710  19.694   5.918
 5680POPC   GL271282  41.622  20.026   5.839
 5680POPC   C1A71283  41.579  19.674   6.323
 5680POPC   D2A71284  41.233  19.705   6.625
 5680POPC   C3A71285  41.471  19.610   6.935
 5680POPC   C4A71286  41.708  19.720   7.274
 5680POPC   C1B71287  41.810  20.130   6.258
 5680POPC   C2B71288  41.680  20.012   6.672
 5680POPC   C3B71289  41.570  20.145   7.024
 5680POPC   C4B71290  41.921  20.236   7.237
 5681POPC   NC371291  32.571   2.160   5.518
 5681POPC   PO471292  31.990   1.927   5.272
 5681POPC   GL171293  32.153   1.936   5.753
 5681POPC   GL271294  31.896   1.902   6.009
 5681POPC   C1A71295  32.339   1.856   6.223
 5681POPC   D2A71296  32.056   1.695   6.534
 5681POPC   C3A71297  32.082   1.844   6.942
 5681POPC   C4A71298  32.494   1.939   7.126
 5681POPC   C1B71299  32.123   2.317   6.148
 5681POPC   C2B71300  32.256   2.498   6.564
 5681POPC   C3B71301  32.199   2.341   7.015
 5681POPC   C4B71302  31.971   2.100   7.386
 5682POPC   NC371303  10.255   4.480   5.178
 5682POPC   PO471304  10.775   4.141   5.296
 5682POPC   GL171305  10.583   4.202   5.748
 5682POPC   GL271306  10.359   4.474   5.897
 5682POPC   C1A71307  10.436   4.091   6.201
 5682POPC   D2A71308  10.663   4.330   6.527
 5682POPC   C3A71309  10.791   4.215   6.941
 5682POPC   C4A71310  10.857   4.329   7.341
 5682POPC   C1B71311  10.252   4.600   6.331
 5682POPC   C2B71312  10.310   4.591   6.800
 5682POPC   C3B71313  10.374   4.406   7.224
 5682POPC   C4B71314  10.224   4.165   7.578
 5683POPC   NC371315  23.808   0.198   5.289
 5683POPC   PO471316  23.501   0.696   5.381
 5683POPC   GL171317  23.753   0.475   5.746
 5683POPC   GL271318  23.923   0.123   5.792
 5683POPC   C1A71319  23.758   0.456   6.208
 5683POPC   D2A71320  23.525   0.399   6.606
 5683POPC   C3A71321  23.597   0.719   6.913
 5683POPC   C4A71322  23.882   0.795   7.237
 5683POPC   C1B71323  24.122   0.083   6.219
 5683POPC   C2B71324  23.905   0.001   6.619
 5683POPC   C3B71325  23.778   0.165   7.028
 5683POPC   C4B71326  23.947   0.219   7.469
 5684POPC   NC371327  37.340  38.484   5.400
 5684POPC   PO471328  37.972  38.465   5.344
 5684POPC   GL171329  37.699  38.476   5.765
 5684POPC   GL271330  37.521  38.145   5.767
 5684POPC   C1A71331  37.500  38.571   6.197
 5684POPC   D2A71332  37.723  38.497   6.584
 5684POPC   C3A71333  37.972  38.624   6.946
 5684POPC   C4A71334  37.672  38.609   7.323
 5684POPC   C1B71335  37.724  38.119   6.177
 5684POPC   C2B71336  37.735  37.972   6.591
 5684POPC   C3B71337  37.717  38.165   6.980
 5684POPC   C4B71338  37.440  38.155   7.317
 5685POPC   NC371339  42.044  28.308   5.499
 5685POPC   PO471340  42.537  28.727   5.494
 5685POPC   GL171341  42.383  28.504   5.869
 5685POPC   GL271342  42.348  28.119   5.869
 5685POPC   C1A71343  42.368  28.410   6.308
 5685POPC   D2A71344  42.399  28.191   6.672
 5685POPC   C3A71345  42.350  28.428   7.025
 5685POPC   C4A71346  42.591  28.729   7.233
 5685POPC   C1B71347  42.171  27.925   6.244
 5685POPC   C2B71348  41.996  27.888   6.633
 5685POPC   C3B71349  42.010  28.040   7.043
 5685POPC   C4B71350  42.158  28.021   7.464
 5686POPC   NC371351  29.334  44.105   5.039
 5686POPC   PO471352  28.891  43.817   5.378
 5686POPC   GL171353  29.212  43.691   5.729
 5686POPC   GL271354  29.066  43.961   5.879
 5686POPC   C1A71355  29.390  43.755   6.191
 5686POPC   D2A71356  29.158  44.054   6.484
 5686POPC   C3A71357  29.287  44.062   6.934
 5686POPC   C4A71358  29.307  44.083   7.401
 5686POPC   C1B71359  28.915  43.612   6.206
 5686POPC   C2B71360  29.099  43.558   6.662
 5686POPC   C3B71361  29.157  43.618   7.139
 5686POPC   C4B71362  28.825  43.679   7.451
 5687POPC   NC371363  20.117  27.109   5.433
 5687POPC   PO471364  19.882  27.834   5.466
 5687POPC   GL171365  19.885  27.569   5.800
 5687POPC   GL271366  20.255  27.488   5.783
 5687POPC   C1A71367  19.635  27.621   6.183
 5687POPC   D2A71368  19.525  27.796   6.601
 5687POPC   C3A71369  19.670  27.529   6.956
 5687POPC   C4A71370  20.047  27.505   7.213
 5687POPC   C1B71371  20.210  27.818   6.106
 5687POPC   C2B71372  20.021  27.782   6.490
 5687POPC   C3B71373  20.091  27.888   6.895
 5687POPC   C4B71374  20.403  27.873   7.257
 5688POPC   NC371375   8.377  34.938   5.486
 5688POPC   PO471376   7.897  34.531   5.713
 5688POPC   GL171377   8.223  34.584   6.023
 5688POPC   GL271378   8.555  34.664   5.875
 5688POPC   C1A71379   8.260  34.346   6.407
 5688POPC   D2A71380   8.218  34.369   6.864
 5688POPC   C3A71381   8.228  34.826   7.022
 5688POPC   C4A71382   8.091  34.870   7.468
 5688POPC   C1B71383   8.740  34.561   6.258
 5688POPC   C2B71384   8.715  34.428   6.656
 5688POPC   C3B71385   8.681  34.562   7.046
 5688POPC   C4B71386   8.439  34.522   7.380
 5689POPC   NC371387   7.361   7.009   5.609
 5689POPC   PO471388   7.057   6.325   5.514
 5689POPC   GL171389   7.336   6.508   5.818
 5689POPC   GL271390   7.370   6.151   5.915
 5689POPC   C1A71391   7.566   6.702   6.173
 5689POPC   D2A71392   7.616   6.536   6.581
 5689POPC   C3A71393   7.503   6.778   6.913
 5689POPC   C4A71394   7.651   6.916   7.252
 5689POPC   C1B71395   7.250   6.284   6.273
 5689POPC   C2B71396   7.304   6.119   6.645
 5689POPC   C3B71397   7.507   6.234   6.998
 5689POPC   C4B71398   7.372   6.494   7.319
 5690POPC   NC371399  37.546  16.513   5.487
 5690POPC   PO471400  38.023  16.981   5.277
 5690POPC   GL171401  37.773  16.959   5.723
 5690POPC   GL271402  37.756  16.631   5.915
 5690POPC   C1A71403  37.900  16.984   6.216
 5690POPC   D2A71404  37.860  17.058   6.684
 5690POPC   C3A71405  37.584  16.745   6.884
 5690POPC   C4A71406  37.588  16.610   7.316
 5690POPC   C1B71407  37.702  16.409   6.300
 5690POPC   C2B71408  37.603  16.229   6.684
 5690POPC   C3B71409  37.848  16.277   7.040
 5690POPC   C4B71410  37.925  16.259   7.473
 5691POPC   NC371411   2.610  41.082   5.345
 5691POPC   PO471412   2.477  40.443   5.200
 5691POPC   GL171413   2.482  40.573   5.697
 5691POPC   GL271414   2.832  40.602   5.797
 5691POPC   C1A71415   2.580  40.705   6.206
 5691POPC   D2A71416   2.926  40.854   6.528
 5691POPC   C3A71417   2.791  40.877   6.960
 5691POPC   C4A71418   2.615  41.221   7.194
 5691POPC   C1B71419   3.046  40.456   6.215
 5691POPC   C2B71420   3.257  40.453   6.644
 5691POPC   C3B71421   3.177  40.544   7.089
 5691POPC   C4B71422   2.780  40.462   7.289
 5692POPC   NC371423   2.597  35.513   5.469
 5692POPC   PO471424   3.068  35.044   5.550
 5692POPC   GL171425   2.838  35.291   5.845
 5692POPC   GL271426   2.856  35.681   5.878
 5692POPC   C1A71427   2.675  35.288   6.240
 5692POPC   D2A71428   2.823  35.100   6.576
 5692POPC   C3A71429   2.582  35.074   6.932
 5692POPC   C4A71430   2.482  35.292   7.300
 5692POPC   C1B71431   2.562  35.775   6.217
 5692POPC   C2B71432   2.701  35.853   6.598
 5692POPC   C3B71433   2.796  35.609   6.969
 5692POPC   C4B71434   2.805  35.678   7.421
 5693POPC   NC371435  19.385  19.209   5.101
 5693POPC   PO471436  18.971  18.770   5.444
 5693POPC   GL171437  18.950  18.785   5.884
 5693POPC   GL271438  18.966  19.157   5.887
 5693POPC   C1A71439  19.200  18.868   6.270
 5693POPC   D2A71440  19.220  19.128   6.616
 5693POPC   C3A71441  19.185  18.964   7.058
 5693POPC   C4A71442  19.378  18.643   7.296
 5693POPC   C1B71443  18.908  19.435   6.207
 5693POPC   C2B71444  18.776  19.388   6.565
 5693POPC   C3B71445  18.941  19.394   6.941
 5693POPC   C4B71446  18.849  19.488   7.324
 5694POPC   NC371447  37.292  24.438   5.616
 5694POPC   PO471448  37.817  24.827   5.434
 5694POPC   GL171449  37.854  24.739   5.828
 5694POPC   GL271450  37.518  24.876   5.858
 5694POPC   C1A71451  37.875  24.366   6.131
 5694POPC   D2A71452  37.887  24.194   6.554
 5694POPC   C3A71453  37.870  24.386   6.948
 5694POPC   C4A71454  37.645  24.585   7.249
 5694POPC   C1B71455  37.611  24.776   6.269
 5694POPC   C2B71456  37.509  24.575   6.631
 5694POPC   C3B71457  37.210  24.694   6.927
 5694POPC   C4B71458  37.196  24.825   7.333
 5695POPC   NC371459   1.725  31.308   5.116
 5695POPC   PO471460   1.190  31.547   5.372
 5695POPC   GL171461   1.129  31.449   5.814
 5695POPC   GL271462   1.205  31.111   5.862
 5695POPC   C1A71463   1.063  31.603   6.245
 5695POPC   D2A71464   0.785  31.656   6.614
 5695POPC   C3A71465   0.998  31.681   6.995
 5695POPC   C4A71466   1.128  31.312   7.167
 5695POPC   C1B71467   1.382  31.176   6.299
 5695POPC   C2B71468   1.370  31.102   6.753
 5695POPC   C3B71469   1.620  31.323   7.068
 5695POPC   C4B71470   1.554  31.349   7.539
 5696POPC   NC371471  14.932  14.509   5.507
 5696POPC   PO471472  15.543  14.379   5.516
 5696POPC   GL171473  15.256  14.347   5.852
 5696POPC   GL271474  15.295  14.709   5.857
 5696POPC   C1A71475  14.946  14.515   6.186
 5696POPC   D2A71476  15.055  14.404   6.614
 5696POPC   C3A71477  15.068  14.535   7.038
 5696POPC   C4A71478  15.168  14.470   7.514
 5696POPC   C1B71479  15.441  14.537   6.283
 5696POPC   C2B71480  15.489  14.693   6.712
 5696POPC   C3B71481  15.542  14.655   7.158
 5696POPC   C4B71482  15.636  14.633   7.607
 5697POPC   NC371483  31.636  21.593   5.490
 5697POPC   PO471484  31.173  21.116   5.532
 5697POPC   GL171485  31.229  21.473   5.785
 5697POPC   GL271486  31.488  21.314   5.927
 5697POPC   C1A71487  31.188  21.624   6.195
 5697POPC   D2A71488  31.390  21.413   6.527
 5697POPC   C3A71489  31.141  21.387   6.890
 5697POPC   C4A71490  31.346  21.278   7.245
 5697POPC   C1B71491  31.697  21.651   6.153
 5697POPC   C2B71492  31.696  21.836   6.565
 5697POPC   C3B71493  31.551  21.725   6.967
 5697POPC   C4B71494  31.768  21.556   7.307
 5698POPC   NC371495  39.974   2.832   5.427
 5698POPC   PO471496  39.891   2.188   5.573
 5698POPC   GL171497  40.181   2.408   5.883
 5698POPC   GL271498  40.096   2.785   5.925
 5698POPC   C1A71499  40.068   2.473   6.343
 5698POPC   D2A71500  39.753   2.732   6.581
 5698POPC   C3A71501  39.826   2.729   7.030
 5698POPC   C4A71502  40.090   2.402   7.215
 5698POPC   C1B71503  40.141   2.981   6.336
 5698POPC   C2B71504  40.270   2.814   6.735
 5698POPC   C3B71505  40.298   2.904   7.175
 5698POPC   C4B71506  40.118   3.074   7.543
 5699POPC   NC371507  43.093  39.657   5.339
 5699POPC   PO471508  43.045  38.928   5.464
 5699POPC   GL171509  42.994  39.195   5.811
 5699POPC   GL271510  42.775  39.481   5.688
 5699POPC   C1A71511  42.996  39.051   6.225
 5699POPC   D2A71512  43.134  38.935   6.645
 5699POPC   C3A71513  43.047  39.255   6.914
 5699POPC   C4A71514  43.049  39.175   7.342
 5699POPC   C1B71515  42.775  39.593   6.078
 5699POPC   C2B71516  42.880  39.491   6.470
 5699POPC   C3B71517  42.629  39.546   6.819
 5699POPC   C4B71518  42.740  39.537   7.232
 5700POPC   NC371519  25.876   3.800   5.535
 5700POPC   PO471520  26.363   3.400   5.343
 5700POPC   GL171521  26.076   3.378   5.797
 5700POPC   GL271522  25.900   3.653   6.023
 5700POPC   C1A71523  26.092   3.269   6.277
 5700POPC   D2A71524  26.304   3.471   6.638
 5700POPC   C3A71525  26.127   3.526   7.029
 5700POPC   C4A71526  25.904   3.152   7.046
 5700POPC   C1B71527  25.564   3.824   6.228
 5700POPC   C2B71528  25.478   3.617   6.585
 5700POPC   C3B71529  25.627   3.580   6.971
 5700POPC   C4B71530  25.637   3.761   7.367
 5701POPC   NC371531  34.066   7.920   5.555
 5701POPC   PO471532  33.628   7.428   5.578
 5701POPC   GL171533  33.703   7.583   5.923
 5701POPC   GL271534  34.055   7.552   5.900
 5701POPC   C1A71535  33.809   7.298   6.265
 5701POPC   D2A71536  33.962   7.381   6.635
 5701POPC   C3A71537  33.638   7.471   6.909
 5701POPC   C4A71538  33.603   7.160   7.209
 5701POPC   C1B71539  33.988   7.799   6.273
 5701POPC   C2B71540  34.168   7.827   6.659
 5701POPC   C3B71541  34.059   7.693   7.059
 5701POPC   C4B71542  33.719   7.760   7.362
 5702POPC   NC371543   8.494  35.567   5.149
 5702POPC   PO471544   7.978  35.232   5.456
 5702POPC   GL171545   8.229  35.439   5.809
 5702POPC   GL271546   8.492  35.679   5.703
 5702POPC   C1A71547   8.294  35.505   6.281
 5702POPC   D2A71548   8.190  35.308   6.693
 5702POPC   C3A71549   7.994  35.578   7.037
 5702POPC   C4A71550   7.920  35.503   7.518
 5702POPC   C1B71551   8.717  35.747   6.124
 5702POPC   C2B71552   8.621  35.819   6.585
 5702POPC   C3B71553   8.544  35.548   6.957
 5702POPC   C4B71554   8.316  35.289   7.285
 5703POPC   NC371555  34.179  10.498   5.437
 5703POPC   PO471556  34.754  10.146   5.446
 5703POPC   GL171557  34.584  10.396   5.814
 5703POPC   GL271558  34.224  10.301   5.903
 5703POPC   C1A71559  34.772  10.631   6.181
 5703POPC   D2A71560  34.668  10.435   6.584
 5703POPC   C3A71561  34.654  10.633   6.992
 5703POPC   C4A71562  34.959  10.899   7.215
 5703POPC   C1B71563  34.278  10.685   6.153
 5703POPC   C2B71564  34.297  10.793   6.610
 5703POPC   C3B71565  34.193  10.843   7.069
 5703POPC   C4B71566  34.184  10.514   7.364
 5704POPC   NC371567   6.194  39.430   5.387
 5704POPC   PO471568   5.603  39.108   5.325
 5704POPC   GL171569   5.627  39.135   5.758
 5704POPC   GL271570   5.979  39.145   5.765
 5704POPC   C1A71571   5.701  39.065   6.203
 5704POPC   D2A71572   5.807  39.383   6.507
 5704POPC   C3A71573   5.769  39.213   6.916
 5704POPC   C4A71574   6.005  39.297   7.277
 5704POPC   C1B71575   6.171  39.299   6.144
 5704POPC   C2B71576   6.292  39.223   6.580
 5704POPC   C3B71577   6.425  39.350   6.980
 5704POPC   C4B71578   6.561  39.029   7.219
 5705POPC   NC371579   4.827  41.625   5.498
 5705POPC   PO471580   5.483  41.555   5.395
 5705POPC   GL171581   5.278  41.742   5.737
 5705POPC   GL271582   5.074  41.429   5.893
 5705POPC   C1A71583   5.249  41.815   6.167
 5705POPC   D2A71584   5.149  41.493   6.467
 5705POPC   C3A71585   5.136  41.592   6.873
 5705POPC   C4A71586   5.396  41.710   7.214
 5705POPC   C1B71587   4.778  41.267   6.221
 5705POPC   C2B71588   4.668  41.053   6.629
 5705POPC   C3B71589   4.677  41.203   7.038
 5705POPC   C4B71590   5.002  41.369   7.289
 5706POPC   NC371591  28.195  38.236   5.229
 5706POPC   PO471592  27.595  38.327   5.180
 5706POPC   GL171593  27.757  38.327   5.642
 5706POPC   GL271594  27.407  38.281   5.754
 5706POPC   C1A71595  27.927  38.407   6.092
 5706POPC   D2A71596  27.921  38.549   6.550
 5706POPC   C3A71597  27.961  38.255   6.914
 5706POPC   C4A71598  27.856  38.320   7.339
 5706POPC   C1B71599  27.397  38.506   6.131
 5706POPC   C2B71600  27.364  38.606   6.555
 5706POPC   C3B71601  27.550  38.558   6.977
 5706POPC   C4B71602  27.356  38.320   7.311
 5707POPC   NC371603  24.542  25.591   5.393
 5707POPC   PO471604  24.894  25.166   5.357
 5707POPC   GL171605  24.524  25.196   5.723
 5707POPC   GL271606  24.221  25.469   5.766
 5707POPC   C1A71607  24.345  25.130   6.156
 5707POPC   D2A71608  24.458  25.308   6.562
 5707POPC   C3A71609  24.512  25.139   6.996
 5707POPC   C4A71610  24.803  25.212   7.339
 5707POPC   C1B71611  24.502  25.628   6.099
 5707POPC   C2B71612  24.438  25.811   6.525
 5707POPC   C3B71613  24.330  25.635   6.920
 5707POPC   C4B71614  24.436  25.556   7.326
 5708POPC   NC371615   5.578  38.642   5.379
 5708POPC   PO471616   6.142  38.271   5.234
 5708POPC   GL171617   5.918  38.311   5.675
 5708POPC   GL271618   5.824  38.657   5.838
 5708POPC   C1A71619   5.960  38.289   6.153
 5708POPC   D2A71620   5.853  38.546   6.560
 5708POPC   C3A71621   5.926  38.382   7.001
 5708POPC   C4A71622   5.614  38.304   7.356
 5708POPC   C1B71623   6.154  38.768   6.182
 5708POPC   C2B71624   6.345  38.703   6.615
 5708POPC   C3B71625   6.140  38.874   6.967
 5708POPC   C4B71626   5.838  38.789   7.312
 5709POPC   NC371627  36.727  36.788   5.141
 5709POPC   PO471628  37.349  36.773   5.408
 5709POPC   GL171629  37.038  36.662   5.741
 5709POPC   GL271630  36.679  36.755   5.674
 5709POPC   C1A71631  37.073  36.794   6.196
 5709POPC   D2A71632  37.171  37.084   6.557
 5709POPC   C3A71633  37.119  36.918   6.973
 5709POPC   C4A71634  37.156  37.121   7.368
 5709POPC   C1B71635  36.579  36.941   6.098
 5709POPC   C2B71636  36.668  36.881   6.531
 5709POPC   C3B71637  36.606  37.058   6.918
 5709POPC   C4B71638  36.705  36.889   7.292
 5710POPC   NC371639   1.795   6.849   5.429
 5710POPC   PO471640   2.318   6.405   5.409
 5710POPC   GL171641   2.111   6.627   5.774
 5710POPC   GL271642   1.758   6.518   5.804
 5710POPC   C1A71643   1.998   6.674   6.237
 5710POPC   D2A71644   2.134   6.501   6.649
 5710POPC   C3A71645   1.987   6.672   7.054
 5710POPC   C4A71646   2.220   6.618   7.437
 5710POPC   C1B71647   1.725   6.239   6.136
 5710POPC   C2B71648   1.659   6.371   6.522
 5710POPC   C3B71649   1.706   6.249   6.930
 5710POPC   C4B71650   1.866   6.253   7.356
 5711POPC   NC371651  11.479  33.676   5.088
 5711POPC   PO471652  11.072  34.226   5.170
 5711POPC   GL171653  11.138  33.923   5.546
 5711POPC   GL271654  11.458  33.833   5.636
 5711POPC   C1A71655  11.068  33.760   5.993
 5711POPC   D2A71656  10.923  33.752   6.442
 5711POPC   C3A71657  11.131  33.574   6.812
 5711POPC   C4A71658  11.173  33.694   7.259
 5711POPC   C1B71659  11.580  33.882   6.066
 5711POPC   C2B71660  11.707  33.842   6.502
 5711POPC   C3B71661  11.615  33.729   6.908
 5711POPC   C4B71662  11.594  33.995   7.240
 5712POPC   NC371663   4.414  28.448   5.248
 5712POPC   PO471664   3.877  28.685   5.509
 5712POPC   GL171665   4.054  28.618   5.858
 5712POPC   GL271666   4.375  28.490   5.788
 5712POPC   C1A71667   4.141  28.514   6.256
 5712POPC   D2A71668   4.323  28.613   6.612
 5712POPC   C3A71669   4.362  28.227   6.784
 5712POPC   C4A71670   4.321  28.178   7.210
 5712POPC   C1B71671   4.667  28.482   6.181
 5712POPC   C2B71672   4.817  28.631   6.579
 5712POPC   C3B71673   4.656  28.573   7.015
 5712POPC   C4B71674   4.704  28.410   7.433
 5713POPC   NC371675  40.572  18.107   5.566
 5713POPC   PO471676  41.113  18.532   5.434
 5713POPC   GL171677  41.009  18.271   5.791
 5713POPC   GL271678  40.726  18.448   5.935
 5713POPC   C1A71679  40.993  18.081   6.196
 5713POPC   D2A71680  40.906  18.066   6.657
 5713POPC   C3A71681  40.894  18.442   6.926
 5713POPC   C4A71682  41.128  18.545   7.292
 5713POPC   C1B71683  40.493  18.182   6.253
 5713POPC   C2B71684  40.396  18.222   6.682
 5713POPC   C3B71685  40.548  18.102   7.071
 5713POPC   C4B71686  40.701  18.283   7.425
 5714POPC   NC371687  32.781  16.202   5.361
 5714POPC   PO471688  32.723  15.516   5.416
 5714POPC   GL171689  32.807  15.720   5.800
 5714POPC   GL271690  33.104  15.905   5.912
 5714POPC   C1A71691  32.773  15.715   6.239
 5714POPC   D2A71692  32.943  15.975   6.580
 5714POPC   C3A71693  33.001  15.823   6.997
 5714POPC   C4A71694  32.808  15.908   7.381
 5714POPC   C1B71695  33.215  16.242   6.220
 5714POPC   C2B71696  33.233  16.402   6.659
 5714POPC   C3B71697  33.234  16.276   7.122
 5714POPC   C4B71698  33.247  16.248   7.575
 5715POPC   NC371699  24.765   5.339   5.345
 5715POPC   PO471700  24.199   5.001   5.335
 5715POPC   GL171701  24.494   5.034   5.717
 5715POPC   GL271702  24.299   4.789   5.871
 5715POPC   C1A71703  24.614   5.089   6.212
 5715POPC   D2A71704  24.707   5.289   6.674
 5715POPC   C3A71705  24.458   5.153   7.085
 5715POPC   C4A71706  24.258   5.293   7.483
 5715POPC   C1B71707  24.348   4.640   6.254
 5715POPC   C2B71708  24.070   4.695   6.597
 5715POPC   C3B71709  24.139   4.772   7.003
 5715POPC   C4B71710  24.204   4.804   7.430
 5716POPC   NC371711  31.868   0.279   5.282
 5716POPC   PO471712  31.188   0.360   5.373
 5716POPC   GL171713  31.375   0.255   5.795
 5716POPC   GL271714  31.736   0.114   5.750
 5716POPC   C1A71715  31.232   0.428   6.204
 5716POPC   D2A71716  31.394   0.639   6.588
 5716POPC   C3A71717  31.291   0.505   7.017
 5716POPC   C4A71718  31.331   0.373   7.456
 5716POPC   C1B71719  31.670   0.150   6.213
 5716POPC   C2B71720  31.688   0.233   6.657
 5716POPC   C3B71721  31.798   0.555   6.951
 5716POPC   C4B71722  31.833   0.279   7.259
 5717POPC   NC371723  10.237  16.288   5.437
 5717POPC   PO471724   9.696  15.909   5.536
 5717POPC   GL171725   9.921  15.786   5.927
 5717POPC   GL271726  10.055  16.119   5.959
 5717POPC   C1A71727   9.784  15.562   6.341
 5717POPC   D2A71728   9.576  15.658   6.743
 5717POPC   C3A71729   9.835  15.847   7.069
 5717POPC   C4A71730  10.040  15.632   7.404
 5717POPC   C1B71731   9.785  16.079   6.350
 5717POPC   C2B71732   9.503  16.193   6.705
 5717POPC   C3B71733   9.510  16.523   7.008
 5717POPC   C4B71734   9.745  16.352   7.339
 5718POPC   NC371735  10.272  30.995   5.394
 5718POPC   PO471736  10.755  30.593   5.476
 5718POPC   GL171737  10.613  30.887   5.804
 5718POPC   GL271738  10.248  30.858   5.880
 5718POPC   C1A71739  10.662  30.816   6.253
 5718POPC   D2A71740  10.750  30.514   6.574
 5718POPC   C3A71741  10.733  30.642   6.983
 5718POPC   C4A71742  10.759  31.023   7.184
 5718POPC   C1B71743  10.132  30.827   6.296
 5718POPC   C2B71744  10.345  30.949   6.665
 5718POPC   C3B71745  10.271  30.824   7.073
 5718POPC   C4B71746  10.068  30.838   7.442
 5719POPC   NC371747  37.358  39.441   5.577
 5719POPC   PO471748  37.638  40.069   5.370
 5719POPC   GL171749  37.558  39.912   5.779
 5719POPC   GL271750  37.834  39.714   5.923
 5719POPC   C1A71751  37.407  39.952   6.204
 5719POPC   D2A71752  37.443  39.903   6.649
 5719POPC   C3A71753  37.817  39.867   6.869
 5719POPC   C4A71754  37.706  39.994   7.264
 5719POPC   C1B71755  37.698  39.527   6.309
 5719POPC   C2B71756  37.636  39.400   6.731
 5719POPC   C3B71757  37.549  39.524   7.173
 5719POPC   C4B71758  37.593  39.496   7.632
 5720POPC   NC371759  42.637  44.873   5.261
 5720POPC   PO471760  42.108  44.509   5.274
 5720POPC   GL171761  42.382  44.571   5.622
 5720POPC   GL271762  42.150  44.459   5.860
 5720POPC   C1A71763  42.569  44.673   6.056
 5720POPC   D2A71764  42.407  44.818   6.470
 5720POPC   C3A71765  42.494  44.512   6.789
 5720POPC   C4A71766  42.608  44.537   7.249
 5720POPC   C1B71767  42.327  44.274   6.285
 5720POPC   C2B71768  42.290  44.034   6.688
 5720POPC   C3B71769  42.334  44.143   7.121
 5720POPC   C4B71770  42.160  44.442   7.493
 5721POPC   NC371771   1.146  31.997   5.551
 5721POPC   PO471772   1.219  32.663   5.515
 5721POPC   GL171773   1.387  32.392   5.837
 5721POPC   GL271774   1.115  32.447   6.015
 5721POPC   C1A71775   1.397  32.062   6.201
 5721POPC   D2A71776   1.196  31.963   6.586
 5721POPC   C3A71777   1.398  31.998   6.928
 5721POPC   C4A71778   1.336  32.164   7.317
 5721POPC   C1B71779   0.868  32.135   6.238
 5721POPC   C2B71780   0.657  32.148   6.612
 5721POPC   C3B71781   0.901  32.210   6.962
 5721POPC   C4B71782   0.840  32.051   7.337
 5722POPC   NC371783  23.596  22.854   5.317
 5722POPC   PO471784  24.273  22.985   5.171
 5722POPC   GL171785  23.984  22.871   5.626
 5722POPC   GL271786  23.657  22.684   5.776
 5722POPC   C1A71787  23.931  22.964   6.106
 5722POPC   D2A71788  23.581  22.965   6.405
 5722POPC   C3A71789  23.645  22.983   6.867
 5722POPC   C4A71790  23.665  23.221   7.264
 5722POPC   C1B71791  23.726  22.495   6.150
 5722POPC   C2B71792  23.972  22.597   6.482
 5722POPC   C3B71793  23.965  22.575   6.924
 5722POPC   C4B71794  23.762  22.714   7.311
 5723POPC   NC371795  15.012  10.078   5.060
 5723POPC   PO471796  14.922  10.531   5.624
 5723POPC   GL171797  15.087  10.513   6.008
 5723POPC   GL271798  15.365  10.718   5.968
 5723POPC   C1A71799  15.045  10.427   6.440
 5723POPC   D2A71800  14.885  10.675   6.775
 5723POPC   C3A71801  14.859  10.386   7.099
 5723POPC   C4A71802  15.223  10.216   7.306
 5723POPC   C1B71803  15.548  10.471   6.292
 5723POPC   C2B71804  15.776  10.473   6.692
 5723POPC   C3B71805  15.589  10.613   7.082
 5723POPC   C4B71806  15.469  10.775   7.476
 5724POPC   NC371807  43.658  26.644   5.501
 5724POPC   PO471808  44.228  26.937   5.339
 5724POPC   GL171809  44.026  26.913   5.746
 5724POPC   GL271810  44.101  26.564   5.827
 5724POPC   C1A71811  43.781  26.795   6.141
 5724POPC   D2A71812  43.766  26.620   6.541
 5724POPC   C3A71813  43.609  26.897   6.810
 5724POPC   C4A71814  43.603  26.959   7.237
 5724POPC   C1B71815  44.248  26.598   6.284
 5724POPC   C2B71816  44.240  26.528   6.749
 5724POPC   C3B71817  44.011  26.718   7.038
 5724POPC   C4B71818  43.963  26.685   7.483
 5725POPC   NC371819  24.397  19.955   5.459
 5725POPC   PO471820  25.059  19.962   5.487
 5725POPC   GL171821  24.800  20.087   5.824
 5725POPC   GL271822  24.617  19.772   5.907
 5725POPC   C1A71823  24.767  20.049   6.297
 5725POPC   D2A71824  24.400  20.071   6.591
 5725POPC   C3A71825  24.527  19.971   6.996
 5725POPC   C4A71826  24.389  19.728   7.306
 5725POPC   C1B71827  24.468  19.638   6.343
 5725POPC   C2B71828  24.435  19.498   6.803
 5725POPC   C3B71829  24.188  19.291   7.135
 5725POPC   C4B71830  24.185  19.352   7.606
 5726POPC   NC371831  21.397   3.751   5.471
 5726POPC   PO471832  21.397   3.065   5.484
 5726POPC   GL171833  21.237   3.368   5.799
 5726POPC   GL271834  21.565   3.458   5.887
 5726POPC   C1A71835  21.247   3.722   6.137
 5726POPC   D2A71836  21.287   3.824   6.575
 5726POPC   C3A71837  21.429   3.512   6.856
 5726POPC   C4A71838  21.295   3.672   7.253
 5726POPC   C1B71839  21.735   3.789   6.222
 5726POPC   C2B71840  21.857   3.750   6.656
 5726POPC   C3B71841  21.779   3.787   7.113
 5726POPC   C4B71842  21.771   4.132   7.321
 5727POPC   NC371843  40.950  32.842   5.156
 5727POPC   PO471844  40.521  33.137   5.639
 5727POPC   GL171845  40.776  33.031   5.905
 5727POPC   GL271846  41.063  33.028   5.694
 5727POPC   C1A71847  40.712  33.161   6.305
 5727POPC   D2A71848  40.702  33.232   6.714
 5727POPC   C3A71849  40.661  32.923   6.987
 5727POPC   C4A71850  40.533  33.158   7.303
 5727POPC   C1B71851  41.200  33.169   6.133
 5727POPC   C2B71852  41.138  32.980   6.547
 5727POPC   C3B71853  41.138  33.109   6.952
 5727POPC   C4B71854  41.020  32.980   7.357
 5728POPC   NC371855  26.569  36.662   5.380
 5728POPC   PO471856  26.436  37.336   5.311
 5728POPC   GL171857  26.584  37.053   5.732
 5728POPC   GL271858  26.887  36.818   5.799
 5728POPC   C1A71859  26.577  36.820   6.183
 5728POPC   D2A71860  26.914  36.888   6.501
 5728POPC   C3A71861  26.818  37.131   6.874
 5728POPC   C4A71862  26.554  36.825   7.051
 5728POPC   C1B71863  27.011  36.508   6.156
 5728POPC   C2B71864  27.129  36.402   6.595
 5728POPC   C3B71865  27.092  36.711   6.954
 5728POPC   C4B71866  26.943  36.874   7.373
 5729POPC   NC371867  41.995   9.887   5.360
 5729POPC   PO471868  42.675   9.766   5.393
 5729POPC   GL171869  42.631   9.693   5.818
 5729POPC   GL271870  42.464  10.010   5.872
 5729POPC   C1A71871  42.731   9.444   6.197
 5729POPC   D2A71872  42.440   9.396   6.533
 5729POPC   C3A71873  42.570   9.343   6.944
 5729POPC   C4A71874  42.367   9.412   7.343
 5729POPC   C1B71875  42.247   9.735   6.184
 5729POPC   C2B71876  41.990   9.680   6.568
 5729POPC   C3B71877  42.131   9.725   7.010
 5729POPC   C4B71878  42.045   9.908   7.428
 5730POPC   NC371879  33.870  27.898   5.582
 5730POPC   PO471880  34.186  27.366   5.437
 5730POPC   GL171881  33.955  27.467   5.858
 5730POPC   GL271882  33.964  27.811   6.059
 5730POPC   C1A71883  33.947  27.376   6.290
 5730POPC   D2A71884  33.753  27.375   6.644
 5730POPC   C3A71885  33.952  27.625   6.911
 5730POPC   C4A71886  33.876  27.564   7.336
 5730POPC   C1B71887  33.716  27.848   6.440
 5730POPC   C2B71888  33.794  28.121   6.765
 5730POPC   C3B71889  33.780  28.029   7.169
 5730POPC   C4B71890  33.502  27.867   7.472
 5731POPC   NC371891  33.992  40.603   5.440
 5731POPC   PO471892  33.533  41.059   5.549
 5731POPC   GL171893  33.693  40.780   5.842
 5731POPC   GL271894  34.034  40.915   5.846
 5731POPC   C1A71895  33.727  40.887   6.284
 5731POPC   D2A71896  33.615  41.057   6.690
 5731POPC   C3A71897  33.593  40.780   7.017
 5731POPC   C4A71898  33.777  40.451   7.172
 5731POPC   C1B71899  34.258  40.962   6.211
 5731POPC   C2B71900  34.130  41.049   6.605
 5731POPC   C3B71901  34.083  40.890   7.008
 5731POPC   C4B71902  34.169  41.101   7.339
 5732POPC   NC371903   9.385  16.808   5.048
 5732POPC   PO471904   8.870  16.442   5.400
 5732POPC   GL171905   8.867  16.728   5.760
 5732POPC   GL271906   8.652  17.017   5.789
 5732POPC   C1A71907   9.086  16.759   6.137
 5732POPC   D2A71908   9.181  16.547   6.508
 5732POPC   C3A71909   9.048  16.713   6.866
 5732POPC   C4A71910   9.101  16.813   7.234
 5732POPC   C1B71911   8.593  16.845   6.208
 5732POPC   C2B71912   8.670  17.005   6.600
 5732POPC   C3B71913   8.613  16.947   7.042
 5732POPC   C4B71914   8.612  16.643   7.288
 5733POPC   NC371915  20.557  13.973   5.336
 5733POPC   PO471916  20.698  14.647   5.439
 5733POPC   GL171917  20.532  14.334   5.703
 5733POPC   GL271918  20.840  14.218   5.785
 5733POPC   C1A71919  20.388  14.186   6.104
 5733POPC   D2A71920  20.352  14.465   6.443
 5733POPC   C3A71921  20.469  14.367   6.855
 5733POPC   C4A71922  20.592  14.701   7.102
 5733POPC   C1B71923  20.759  14.554   6.120
 5733POPC   C2B71924  20.839  14.627   6.560
 5733POPC   C3B71925  20.992  14.405   6.924
 5733POPC   C4B71926  20.752  14.251   7.274
 5734POPC   NC371927  22.156   7.207   5.112
 5734POPC   PO471928  22.329   7.805   5.341
 5734POPC   GL171929  22.181   7.516   5.675
 5734POPC   GL271930  22.361   7.192   5.696
 5734POPC   C1A71931  22.041   7.361   6.104
 5734POPC   D2A71932  22.197   7.255   6.526
 5734POPC   C3A71933  21.916   7.445   6.851
 5734POPC   C4A71934  21.998   7.392   7.249
 5734POPC   C1B71935  22.556   7.125   6.131
 5734POPC   C2B71936  22.714   7.129   6.571
 5734POPC   C3B71937  22.492   7.240   6.973
 5734POPC   C4B71938  22.376   6.946   7.301
 5735POPC   NC371939  35.772  22.818   5.349
 5735POPC   PO471940  35.268  23.280   5.341
 5735POPC   GL171941  35.421  23.007   5.693
 5735POPC   GL271942  35.211  23.185   5.868
 5735POPC   C1A71943  35.364  22.794   6.128
 5735POPC   D2A71944  35.511  22.729   6.517
 5735POPC   C3A71945  35.352  22.817   6.889
 5735POPC   C4A71946  35.449  22.730   7.310
 5735POPC   C1B71947  35.364  23.271   6.313
 5735POPC   C2B71948  35.217  23.308   6.762
 5735POPC   C3B71949  35.406  23.246   7.161
 5735POPC   C4B71950  35.269  23.224   7.598
 5736POPC   NC371951  44.797   7.773   5.112
 5736POPC   PO471952  44.713   8.243   5.652
 5736POPC   GL171953  44.736   8.524   5.971
 5736POPC   GL271954   0.049   8.404   6.019
 5736POPC   C1A71955  44.582   8.434   6.381
 5736POPC   D2A71956  44.486   8.019   6.599
 5736POPC   C3A71957  44.604   7.977   7.041
 5736POPC   C4A71958  44.426   8.184   7.410
 5736POPC   C1B71959   0.098   8.328   6.445
 5736POPC   C2B71960  44.854   8.342   6.804
 5736POPC   C3B71961  44.711   8.551   7.162
 5736POPC   C4B71962  44.851   8.491   7.585
 5737POPC   NC371963  28.776  20.622   5.351
 5737POPC   PO471964  29.422  20.803   5.388
 5737POPC   GL171965  29.261  20.696   5.807
 5737POPC   GL271966  29.015  20.431   5.808
 5737POPC   C1A71967  29.423  20.475   6.176
 5737POPC   D2A71968  29.407  20.279   6.583
 5737POPC   C3A71969  29.440  20.569   6.954
 5737POPC   C4A71970  29.419  20.448   7.389
 5737POPC   C1B71971  28.929  20.579   6.230
 5737POPC   C2B71972  29.130  20.754   6.591
 5737POPC   C3B71973  28.978  20.828   7.021
 5737POPC   C4B71974  28.762  20.463   7.184
 5738POPC   NC371975  43.712   9.296   5.601
 5738POPC   PO471976  44.198   9.827   5.529
 5738POPC   GL171977  43.768   9.776   5.782
 5738POPC   GL271978  43.508  10.047   5.826
 5738POPC   C1A71979  43.647   9.646   6.223
 5738POPC   D2A71980  43.956   9.633   6.567
 5738POPC   C3A71981  43.913   9.564   7.016
 5738POPC   C4A71982  43.537   9.565   7.249
 5738POPC   C1B71983  43.852  10.115   6.156
 5738POPC   C2B71984  44.051  10.160   6.517
 5738POPC   C3B71985  44.039  10.039   6.894
 5738POPC   C4B71986  43.856  10.023   7.282
 5739POPC   NC371987  28.466  34.208   5.494
 5739POPC   PO471988  28.413  34.898   5.384
 5739POPC   GL171989  28.316  34.690   5.814
 5739POPC   GL271990  28.345  34.345   5.996
 5739POPC   C1A71991  28.082  34.776   6.205
 5739POPC   D2A71992  27.974  34.580   6.602
 5739POPC   C3A71993  28.085  34.823   6.940
 5739POPC   C4A71994  28.364  34.944   7.216
 5739POPC   C1B71995  28.573  34.452   6.337
 5739POPC   C2B71996  28.493  34.573   6.737
 5739POPC   C3B71997  28.362  34.429   7.127
 5739POPC   C4B71998  27.905  34.454   7.247
 5740POPC   NC371999   7.701  37.374   5.434
 5740POPC   PO472000   8.435  37.519   5.539
 5740POPC   GL172001   8.136  37.457   5.845
 5740POPC   GL272002   8.120  37.118   5.883
 5740POPC   C1A72003   8.003  37.591   6.269
 5740POPC   D2A72004   7.893  37.754   6.666
 5740POPC   C3A72005   8.201  37.794   6.962
 5740POPC   C4A72006   8.429  37.993   7.260
 5740POPC   C1B72007   8.385  37.251   6.265
 5740POPC   C2B72008   8.251  37.348   6.693
 5740POPC   C3B72009   8.046  37.302   7.079
 5740POPC   C4B72010   8.257  37.503   7.390
 5741POPC   NC372011  40.903  35.936   5.596
 5741POPC   PO472012  40.292  36.347   5.459
 5741POPC   GL172013  40.539  36.262   5.811
 5741POPC   GL272014  40.821  36.490   5.816
 5741POPC   C1A72015  40.570  36.149   6.259
 5741POPC   D2A72016  40.561  35.779   6.547
 5741POPC   C3A72017  40.857  35.791   6.888
 5741POPC   C4A72018  40.709  36.141   7.112
 5741POPC   C1B72019  41.061  36.419   6.204
 5741POPC   C2B72020  40.938  36.313   6.645
 5741POPC   C3B72021  41.098  36.443   7.048
 5741POPC   C4B72022  41.101  36.212   7.457
 5742POPC   NC372023  19.284  38.455   5.507
 5742POPC   PO472024  19.918  38.305   5.324
 5742POPC   GL172025  19.834  38.439   5.718
 5742POPC   GL272026  19.677  38.136   5.822
 5742POPC   C1A72027  19.745  38.683   6.082
 5742POPC   D2A72028  19.851  38.818   6.488
 5742POPC   C3A72029  19.715  38.492   6.760
 5742POPC   C4A72030  19.750  38.468   7.202
 5742POPC   C1B72031  20.039  38.144   6.117
 5742POPC   C2B72032  20.177  38.292   6.519
 5742POPC   C3B72033  20.103  38.194   6.948
 5742POPC   C4B72034  20.257  37.927   7.228
 5743POPC   NC372035  13.771  25.509   5.492
 5743POPC   PO472036  13.448  24.890   5.411
 5743POPC   GL172037  13.512  25.159   5.800
 5743POPC   GL272038  13.385  25.530   5.834
 5743POPC   C1A72039  13.729  25.073   6.203
 5743POPC   D2A72040  13.577  25.045   6.605
 5743POPC   C3A72041  13.806  25.163   6.956
 5743POPC   C4A72042  13.474  24.973   7.199
 5743POPC   C1B72043  13.405  25.459   6.290
 5743POPC   C2B72044  13.351  25.665   6.704
 5743POPC   C3B72045  13.463  25.509   7.129
 5743POPC   C4B72046  13.825  25.515   7.375
 5744POPC   NC372047  16.356  13.555   5.522
 5744POPC   PO472048  15.716  13.591   5.596
 5744POPC   GL172049  15.869  13.489   5.965
 5744POPC   GL272050  16.032  13.218   5.821
 5744POPC   C1A72051  15.873  13.544   6.412
 5744POPC   D2A72052  15.607  13.525   6.762
 5744POPC   C3A72053  15.723  13.776   7.056
 5744POPC   C4A72054  16.056  14.002   7.187
 5744POPC   C1B72055  16.322  13.323   6.156
 5744POPC   C2B72056  16.295  13.260   6.586
 5744POPC   C3B72057  16.180  13.526   6.929
 5744POPC   C4B72058  16.129  13.396   7.357
 5745POPC   NC372059  18.108  32.689   5.549
 5745POPC   PO472060  18.480  33.175   5.437
 5745POPC   GL172061  18.477  32.978   5.811
 5745POPC   GL272062  18.282  33.174   6.055
 5745POPC   C1A72063  18.440  32.686   6.150
 5745POPC   D2A72064  18.146  32.822   6.477
 5745POPC   C3A72065  18.075  32.720   6.918
 5745POPC   C4A72066  18.320  32.884   7.252
 5745POPC   C1B72067  17.874  33.242   6.271
 5745POPC   C2B72068  17.814  33.407   6.718
 5745POPC   C3B72069  18.028  33.268   7.126
 5745POPC   C4B72070  18.012  33.206   7.583
 5746POPC   NC372071  19.351   5.805   5.116
 5746POPC   PO472072  20.015   5.829   5.312
 5746POPC   GL172073  19.881   5.881   5.774
 5746POPC   GL272074  19.687   6.136   5.882
 5746POPC   C1A72075  20.043   5.968   6.221
 5746POPC   D2A72076  19.884   5.979   6.656
 5746POPC   C3A72077  20.099   6.075   7.035
 5746POPC   C4A72078  19.965   5.913   7.427
 5746POPC   C1B72079  19.516   6.003   6.283
 5746POPC   C2B72080  19.395   6.154   6.715
 5746POPC   C3B72081  19.545   6.028   7.145
 5746POPC   C4B72082  19.564   6.133   7.615
 5747POPC   NC372083   1.890  30.676   5.342
 5747POPC   PO472084   2.502  30.553   5.472
 5747POPC   GL172085   2.266  30.510   5.828
 5747POPC   GL272086   2.017  30.759   5.825
 5747POPC   C1A72087   2.346  30.657   6.259
 5747POPC   D2A72088   2.436  30.958   6.617
 5747POPC   C3A72089   2.272  30.722   6.997
 5747POPC   C4A72090   2.253  30.298   7.091
 5747POPC   C1B72091   1.810  30.781   6.213
 5747POPC   C2B72092   1.964  30.731   6.600
 5747POPC   C3B72093   1.777  30.830   6.981
 5747POPC   C4B72094   1.874  31.003   7.367
 5748POPC   NC372095  33.622  36.704   5.385
 5748POPC   PO472096  34.296  36.875   5.331
 5748POPC   GL172097  34.039  36.825   5.719
 5748POPC   GL272098  33.701  36.975   5.802
 5748POPC   C1A72099  33.977  36.777   6.184
 5748POPC   D2A72100  33.699  36.874   6.531
 5748POPC   C3A72101  33.865  36.863   6.920
 5748POPC   C4A72102  33.794  36.574   7.239
 5748POPC   C1B72103  33.677  37.231   6.170
 5748POPC   C2B72104  33.791  37.402   6.559
 5748POPC   C3B72105  33.541  37.276   6.901
 5748POPC   C4B72106  33.535  37.034   7.269
 5749POPC   NC372107  23.353  32.577   5.271
 5749POPC   PO472108  23.802  31.979   5.432
 5749POPC   GL172109  23.914  32.143   5.827
 5749POPC   GL272110  23.591  32.294   5.842
 5749POPC   C1A72111  23.801  32.066   6.253
 5749POPC   D2A72112  23.852  32.301   6.635
 5749POPC   C3A72113  23.969  32.234   7.064
 5749POPC   C4A72114  23.778  32.182   7.474
 5749POPC   C1B72115  23.593  32.533   6.251
 5749POPC   C2B72116  23.379  32.546   6.672
 5749POPC   C3B72117  23.300  32.702   7.108
 5749POPC   C4B72118  23.450  32.587   7.542
 5750POPC   NC372119  29.385  21.262   5.381
 5750POPC   PO472120  28.679  21.156   5.447
 5750POPC   GL172121  28.880  21.220   5.819
 5750POPC   GL272122  29.224  21.205   5.858
 5750POPC   C1A72123  28.947  21.443   6.200
 5750POPC   D2A72124  29.033  21.247   6.567
 5750POPC   C3A72125  28.914  21.396   6.939
 5750POPC   C4A72126  29.144  21.617   7.224
 5750POPC   C1B72127  29.452  21.072   6.230
 5750POPC   C2B72128  29.537  21.303   6.600
 5750POPC   C3B72129  29.391  21.205   6.997
 5750POPC   C4B72130  29.622  21.434   7.275
 5751POPC   NC372131  35.666   6.461   5.336
 5751POPC   PO472132  35.124   6.939   5.338
 5751POPC   GL172133  35.136   6.771   5.753
 5751POPC   GL272134  35.504   6.764   5.780
 5751POPC   C1A72135  35.204   6.765   6.207
 5751POPC   D2A72136  35.429   6.837   6.577
 5751POPC   C3A72137  35.178   6.771   6.901
 5751POPC   C4A72138  35.033   6.747   7.290
 5751POPC   C1B72139  35.457   6.355   6.002
 5751POPC   C2B72140  35.327   6.217   6.414
 5751POPC   C3B72141  35.404   6.288   6.854
 5751POPC   C4B72142  35.226   6.258   7.246
 5752POPC   NC372143   2.966  17.637   5.234
 5752POPC   PO472144   2.368  17.364   5.437
 5752POPC   GL172145   2.660  17.570   5.753
 5752POPC   GL272146   2.992  17.719   5.724
 5752POPC   C1A72147   2.877  17.437   6.156
 5752POPC   D2A72148   2.708  17.574   6.557
 5752POPC   C3A72149   2.733  17.421   6.977
 5752POPC   C4A72150   2.645  17.742   7.277
 5752POPC   C1B72151   3.011  17.937   6.095
 5752POPC   C2B72152   3.199  17.744   6.472
 5752POPC   C3B72153   3.049  17.807   6.894
 5752POPC   C4B72154   3.163  17.714   7.307
 5753POPC   NC372155  11.832  15.428   5.543
 5753POPC   PO472156  11.852  14.750   5.409
 5753POPC   GL172157  12.171  14.949   5.739
 5753POPC   GL272158  12.225  15.296   5.883
 5753POPC   C1A72159  12.277  14.909   6.202
 5753POPC   D2A72160  12.022  15.052   6.579
 5753POPC   C3A72161  11.986  15.184   7.003
 5753POPC   C4A72162  12.304  15.078   7.286
 5753POPC   C1B72163  12.243  15.442   6.322
 5753POPC   C2B72164  12.401  15.399   6.748
 5753POPC   C3B72165  12.275  15.598   7.153
 5753POPC   C4B72166  12.272  15.766   7.566
 5754POPC   NC372167  32.910  13.306   5.438
 5754POPC   PO472168  33.347  13.906   5.271
 5754POPC   GL172169  33.117  13.746   5.668
 5754POPC   GL272170  33.292  13.425   5.789
 5754POPC   C1A72171  32.871  13.570   6.052
 5754POPC   D2A72172  32.985  13.433   6.465
 5754POPC   C3A72173  32.718  13.502   6.829
 5754POPC   C4A72174  32.732  13.480   7.281
 5754POPC   C1B72175  33.466  13.361   6.232
 5754POPC   C2B72176  33.398  13.233   6.671
 5754POPC   C3B72177  33.171  13.324   7.049
 5754POPC   C4B72178  33.210  13.325   7.517
 5755POPC   NC372179  15.422  16.670   5.458
 5755POPC   PO472180  14.794  16.928   5.641
 5755POPC   GL172181  15.168  16.843   5.879
 5755POPC   GL272182  15.138  16.460   5.830
 5755POPC   C1A72183  15.321  16.984   6.300
 5755POPC   D2A72184  15.108  16.931   6.706
 5755POPC   C3A72185  15.291  17.013   7.098
 5755POPC   C4A72186  15.421  16.926   7.493
 5755POPC   C1B72187  15.419  16.483   6.173
 5755POPC   C2B72188  15.447  16.569   6.614
 5755POPC   C3B72189  15.227  16.500   7.004
 5755POPC   C4B72190  15.378  16.434   7.417
 5756POPC   NC372191  19.236   4.898   5.521
 5756POPC   PO472192  19.338   5.349   5.114
 5756POPC   GL172193  19.091   5.380   5.601
 5756POPC   GL272194  18.816   5.107   5.761
 5756POPC   C1A72195  19.122   5.339   6.098
 5756POPC   D2A72196  19.283   5.051   6.468
 5756POPC   C3A72197  19.196   5.141   6.912
 5756POPC   C4A72198  19.360   5.424   7.246
 5756POPC   C1B72199  18.918   4.843   6.166
 5756POPC   C2B72200  19.012   4.635   6.613
 5756POPC   C3B72201  18.824   4.711   7.017
 5756POPC   C4B72202  18.721   4.782   7.458
 5757POPC   NC372203  37.047  41.914   5.417
 5757POPC   PO472204  37.028  41.266   5.193
 5757POPC   GL172205  36.899  41.301   5.683
 5757POPC   GL272206  36.792  41.626   5.775
 5757POPC   C1A72207  36.985  41.336   6.202
 5757POPC   D2A72208  37.193  41.550   6.608
 5757POPC   C3A72209  37.029  41.596   7.029
 5757POPC   C4A72210  36.763  41.251   7.172
 5757POPC   C1B72211  36.601  41.668   6.192
 5757POPC   C2B72212  36.677  41.556   6.613
 5757POPC   C3B72213  36.538  41.689   6.990
 5757POPC   C4B72214  36.537  41.643   7.422
 5758POPC   NC372215  32.289   0.735   5.292
 5758POPC   PO472216  32.246   0.088   5.515
 5758POPC   GL172217  32.334   0.450   5.777
 5758POPC   GL272218  32.160   0.273   6.028
 5758POPC   C1A72219  32.337   0.711   6.174
 5758POPC   D2A72220  32.081   0.561   6.504
 5758POPC   C3A72221  32.280   0.399   6.864
 5758POPC   C4A72222  32.245   0.612   7.263
 5758POPC   C1B72223  32.504  44.975   6.142
 5758POPC   C2B72224  32.717   0.016   6.546
 5758POPC   C3B72225  32.646   0.008   6.978
 5758POPC   C4B72226  32.319   0.115   7.284
 5759POPC   NC372227  19.412  32.345   5.483
 5759POPC   PO472228  18.859  31.948   5.330
 5759POPC   GL172229  19.013  32.152   5.726
 5759POPC   GL272230  19.259  31.891   5.780
 5759POPC   C1A72231  18.925  32.439   6.111
 5759POPC   D2A72232  18.948  32.262   6.536
 5759POPC   C3A72233  18.820  32.456   6.951
 5759POPC   C4A72234  18.917  32.308   7.374
 5759POPC   C1B72235  19.335  32.130   6.160
 5759POPC   C2B72236  19.441  32.100   6.597
 5759POPC   C3B72237  19.278  32.191   7.000
 5759POPC   C4B72238  19.314  31.997   7.395
 5760POPC   NC372239  11.094  37.516   5.250
 5760POPC   PO472240  11.411  38.102   5.276
 5760POPC   GL172241  11.256  37.976   5.722
 5760POPC   GL272242  11.158  37.624   5.817
 5760POPC   C1A72243  11.191  37.962   6.196
 5760POPC   D2A72244  11.416  37.791   6.561
 5760POPC   C3A72245  11.385  38.028   6.930
 5760POPC   C4A72246  11.062  38.052   7.222
 5760POPC   C1B72247  11.301  37.418   6.212
 5760POPC   C2B72248  11.309  37.284   6.689
 5760POPC   C3B72249  11.393  37.409   7.142
 5760POPC   C4B72250  11.229  37.290   7.566
 5761POPC   NC372251  44.892  10.395   5.340
 5761POPC   PO472252  44.231  10.493   5.327
 5761POPC   GL172253  44.535  10.535   5.682
 5761POPC   GL272254  44.342  10.741   5.824
 5761POPC   C1A72255  44.762  10.600   6.131
 5761POPC   D2A72256  44.848  10.354   6.589
 5761POPC   C3A72257   0.006  10.594   6.968
 5761POPC   C4A72258  44.861  10.828   7.334
 5761POPC   C1B72259  44.293  10.398   6.117
 5761POPC   C2B72260  44.378  10.554   6.518
 5761POPC   C3B72261  44.498  10.531   6.946
 5761POPC   C4B72262  44.265  10.330   7.231
 5762POPC   NC372263   2.690   3.944   5.438
 5762POPC   PO472264   3.041   4.473   5.215
 5762POPC   GL172265   2.881   4.527   5.684
 5762POPC   GL272266   2.583   4.766   5.754
 5762POPC   C1A72267   2.716   4.269   6.063
 5762POPC   D2A72268   2.914   4.055   6.437
 5762POPC   C3A72269   2.860   4.166   6.856
 5762POPC   C4A72270   2.976   4.114   7.266
 5762POPC   C1B72271   2.795   4.779   6.153
 5762POPC   C2B72272   2.674   4.544   6.498
 5762POPC   C3B72273   2.673   4.630   6.902
 5762POPC   C4B72274   2.675   4.514   7.287
 5763POPC   NC372275   1.385  11.604   5.530
 5763POPC   PO472276   1.156  11.019   5.154
 5763POPC   GL172277   1.175  11.045   5.645
 5763POPC   GL272278   1.003  11.361   5.742
 5763POPC   C1A72279   1.151  11.089   6.140
 5763POPC   D2A72280   0.952  11.305   6.530
 5763POPC   C3A72281   1.136  11.186   6.915
 5763POPC   C4A72282   1.566  11.246   7.092
 5763POPC   C1B72283   1.134  11.602   6.141
 5763POPC   C2B72284   1.372  11.619   6.510
 5763POPC   C3B72285   1.281  11.683   6.908
 5763POPC   C4B72286   0.835  11.638   7.009
 5764POPC   NC372287  27.631  14.129   5.475
 5764POPC   PO472288  27.166  14.638   5.399
 5764POPC   GL172289  27.432  14.496   5.768
 5764POPC   GL272290  27.826  14.533   5.765
 5764POPC   C1A72291  27.389  14.273   6.173
 5764POPC   D2A72292  27.494  14.479   6.520
 5764POPC   C3A72293  27.443  14.299   6.890
 5764POPC   C4A72294  27.416  14.625   7.153
 5764POPC   C1B72295  27.894  14.339   6.200
 5764POPC   C2B72296  27.953  14.308   6.674
 5764POPC   C3B72297  27.922  14.473   7.112
 5764POPC   C4B72298  27.914  14.266   7.530
 5765POPC   NC372299  23.915  43.537   5.396
 5765POPC   PO472300  23.452  44.000   5.403
 5765POPC   GL172301  23.607  43.761   5.746
 5765POPC   GL272302  23.932  43.894   5.754
 5765POPC   C1A72303  23.774  43.617   6.149
 5765POPC   D2A72304  23.736  43.826   6.530
 5765POPC   C3A72305  23.870  43.631   6.917
 5765POPC   C4A72306  23.829  43.802   7.315
 5765POPC   C1B72307  23.951  44.127   6.112
 5765POPC   C2B72308  24.065  44.219   6.514
 5765POPC   C3B72309  23.882  44.151   6.902
 5765POPC   C4B72310  23.980  44.294   7.280
 5766POPC   NC372311   5.079  44.257   5.424
 5766POPC   PO472312   5.183  43.586   5.387
 5766POPC   GL172313   5.191  43.821   5.782
 5766POPC   GL272314   5.108  44.135   5.920
 5766POPC   C1A72315   5.272  43.767   6.223
 5766POPC   D2A72316   5.016  44.020   6.501
 5766POPC   C3A72317   5.108  43.940   6.911
 5766POPC   C4A72318   4.970  44.002   7.311
 5766POPC   C1B72319   4.771  44.349   6.151
 5766POPC   C2B72320   4.810  44.539   6.563
 5766POPC   C3B72321   4.870  44.382   6.981
 5766POPC   C4B72322   4.822  44.471   7.473
 5767POPC   NC372323  25.949   9.127   5.382
 5767POPC   PO472324  25.451   8.652   5.361
 5767POPC   GL172325  25.708   8.692   5.810
 5767POPC   GL272326  25.982   8.928   5.875
 5767POPC   C1A72327  25.883   8.589   6.241
 5767POPC   D2A72328  25.974   8.821   6.606
 5767POPC   C3A72329  26.141   8.680   6.978
 5767POPC   C4A72330  26.127   8.937   7.328
 5767POPC   C1B72331  26.225   9.077   6.259
 5767POPC   C2B72332  26.461   8.962   6.669
 5767POPC   C3B72333  26.571   9.040   7.099
 5767POPC   C4B72334  26.465   9.258   7.498
 5768POPC   NC372335  35.400  43.335   5.452
 5768POPC   PO472336  35.615  42.650   5.442
 5768POPC   GL172337  35.492  42.912   5.734
 5768POPC   GL272338  35.731  43.159   5.779
 5768POPC   C1A72339  35.307  43.014   6.103
 5768POPC   D2A72340  35.216  42.781   6.456
 5768POPC   C3A72341  35.103  42.986   6.820
 5768POPC   C4A72342  35.003  42.743   7.151
 5768POPC   C1B72343  35.739  43.319   6.178
 5768POPC   C2B72344  35.516  43.183   6.548
 5768POPC   C3B72345  35.639  43.066   6.952
 5768POPC   C4B72346  35.739  43.288   7.349
 5769POPC   NC372347  42.581  26.075   4.849
 5769POPC   PO472348  42.307  26.083   5.469
 5769POPC   GL172349  42.405  25.959   5.830
 5769POPC   GL272350  42.416  26.272   6.004
 5769POPC   C1A72351  42.240  25.843   6.213
 5769POPC   D2A72352  42.078  26.040   6.562
 5769POPC   C3A72353  42.249  25.841   6.878
 5769POPC   C4A72354  42.045  25.730   7.211
 5769POPC   C1B72355  42.412  26.501   6.396
 5769POPC   C2B72356  42.372  26.390   6.839
 5769POPC   C3B72357  42.313  26.202   7.237
 5769POPC   C4B72358  42.357  26.344   7.693
 5770POPC   NC372359   8.510  15.746   5.355
 5770POPC   PO472360   7.968  16.015   5.446
 5770POPC   GL172361   8.240  15.999   5.760
 5770POPC   GL272362   8.212  15.662   5.792
 5770POPC   C1A72363   8.423  15.960   6.150
 5770POPC   D2A72364   8.446  16.058   6.547
 5770POPC   C3A72365   8.603  15.798   6.844
 5770POPC   C4A72366   8.483  15.906   7.234
 5770POPC   C1B72367   7.981  15.747   6.199
 5770POPC   C2B72368   8.157  15.646   6.593
 5770POPC   C3B72369   8.078  15.792   6.981
 5770POPC   C4B72370   8.026  15.740   7.435
 5771POPC   NC372371   2.800   8.402   5.190
 5771POPC   PO472372   2.525   8.044   5.682
 5771POPC   GL172373   2.658   8.154   6.115
 5771POPC   GL272374   2.830   8.503   6.191
 5771POPC   C1A72375   2.497   8.286   6.501
 5771POPC   D2A72376   2.841   8.387   6.741
 5771POPC   C3A72377   2.898   8.049   7.023
 5771POPC   C4A72378   2.539   8.264   7.163
 5771POPC   C1B72379   3.167   8.222   6.354
 5771POPC   C2B72380   3.340   8.256   6.779
 5771POPC   C3B72381   3.158   8.446   7.159
 5771POPC   C4B72382   3.103   8.168   7.505
 5772POPC   NC372383   5.759  24.082   5.143
 5772POPC   PO472384   5.910  23.491   5.464
 5772POPC   GL172385   5.774  23.634   5.866
 5772POPC   GL272386   5.493  23.496   6.077
 5772POPC   C1A72387   5.888  23.867   6.205
 5772POPC   D2A72388   5.721  24.019   6.591
 5772POPC   C3A72389   5.962  23.868   6.912
 5772POPC   C4A72390   5.890  23.760   7.325
 5772POPC   C1B72391   5.802  23.410   6.415
 5772POPC   C2B72392   6.203  23.538   6.614
 5772POPC   C3B72393   6.172  23.414   7.039
 5772POPC   C4B72394   6.199  23.369   7.473
 5773POPC   NC372395  11.956  11.164   5.290
 5773POPC   PO472396  11.902  11.672   5.709
 5773POPC   GL172397  12.110  11.401   5.937
 5773POPC   GL272398  11.978  11.080   5.825
 5773POPC   C1A72399  12.386  11.466   6.319
 5773POPC   D2A72400  12.583  11.556   6.742
 5773POPC   C3A72401  12.262  11.621   7.054
 5773POPC   C4A72402  11.936  11.423   7.239
 5773POPC   C1B72403  12.245  10.994   6.209
 5773POPC   C2B72404  12.327  10.902   6.655
 5773POPC   C3B72405  12.300  11.051   7.076
 5773POPC   C4B72406  11.974  10.930   7.342
 5774POPC   NC372407  38.653  37.036   5.578
 5774POPC   PO472408  38.260  36.517   5.373
 5774POPC   GL172409  38.210  36.768   5.805
 5774POPC   GL272410  38.244  37.144   5.855
 5774POPC   C1A72411  38.440  36.769   6.234
 5774POPC   D2A72412  38.742  36.598   6.573
 5774POPC   C3A72413  38.636  36.748   7.021
 5774POPC   C4A72414  38.348  36.884   7.368
 5774POPC   C1B72415  38.118  37.166   6.284
 5774POPC   C2B72416  38.133  36.941   6.674
 5774POPC   C3B72417  37.992  37.095   7.056
 5774POPC   C4B72418  38.080  37.365   7.358
 5775POPC   NC372419  33.824   2.436   5.534
 5775POPC   PO472420  33.858   1.923   5.186
 5775POPC   GL172421  33.632   1.953   5.653
 5775POPC   GL272422  33.848   2.107   5.913
 5775POPC   C1A72423  33.474   1.781   6.104
 5775POPC   D2A72424  33.385   1.877   6.559
 5775POPC   C3A72425  33.508   1.968   6.967
 5775POPC   C4A72426  33.554   1.646   7.257
 5775POPC   C1B72427  33.682   2.207   6.293
 5775POPC   C2B72428  33.890   2.176   6.675
 5775POPC   C3B72429  33.863   2.340   7.055
 5775POPC   C4B72430  33.833   2.148   7.438
 5776POPC   NC372431  15.831  39.489   5.141
 5776POPC   PO472432  16.306  39.287   5.594
 5776POPC   GL172433  16.102  39.195   5.925
 5776POPC   GL272434  15.793  39.185   5.745
 5776POPC   C1A72435  15.912  39.371   6.275
 5776POPC   D2A72436  15.697  39.467   6.632
 5776POPC   C3A72437  16.052  39.505   6.903
 5776POPC   C4A72438  16.106  39.240   7.257
 5776POPC   C1B72439  15.683  38.951   6.117
 5776POPC   C2B72440  15.837  38.886   6.527
 5776POPC   C3B72441  15.775  39.041   6.918
 5776POPC   C4B72442  15.756  38.887   7.309
 5777POPC   NC372443   4.101   4.052   5.501
 5777POPC   PO472444   4.555   4.503   5.477
 5777POPC   GL172445   4.418   4.444   5.853
 5777POPC   GL272446   4.553   4.130   5.925
 5777POPC   C1A72447   4.173   4.334   6.202
 5777POPC   D2A72448   4.066   4.462   6.597
 5777POPC   C3A72449   4.184   4.238   6.934
 5777POPC   C4A72450   4.184   4.411   7.326
 5777POPC   C1B72451   4.713   4.424   6.273
 5777POPC   C2B72452   4.610   4.509   6.720
 5777POPC   C3B72453   4.662   4.301   7.121
 5777POPC   C4B72454   4.623   4.406   7.576
 5778POPC   NC372455  30.163  21.317   5.430
 5778POPC   PO472456  29.566  21.698   5.382
 5778POPC   GL172457  29.716  21.430   5.747
 5778POPC   GL272458  29.694  21.055   5.766
 5778POPC   C1A72459  29.754  21.538   6.187
 5778POPC   D2A72460  30.025  21.759   6.479
 5778POPC   C3A72461  30.016  21.563   6.882
 5778POPC   C4A72462  30.112  21.333   7.277
 5778POPC   C1B72463  29.983  21.069   6.123
 5778POPC   C2B72464  30.057  21.196   6.526
 5778POPC   C3B72465  29.881  21.073   6.907
 5778POPC   C4B72466  29.744  20.860   7.232
 5779POPC   NC372467   4.180  26.688   5.416
 5779POPC   PO472468   4.638  27.165   5.403
 5779POPC   GL172469   4.428  27.043   5.818
 5779POPC   GL272470   4.092  26.856   5.908
 5779POPC   C1A72471   4.445  26.891   6.271
 5779POPC   D2A72472   4.292  26.654   6.646
 5779POPC   C3A72473   4.549  26.791   6.975
 5779POPC   C4A72474   4.562  27.185   7.192
 5779POPC   C1B72475   3.948  26.556   6.269
 5779POPC   C2B72476   3.626  26.534   6.598
 5779POPC   C3B72477   3.846  26.775   6.876
 5779POPC   C4B72478   4.101  26.785   7.223
 5780POPC   NC372479  13.320   6.652   5.577
 5780POPC   PO472480  12.679   6.831   5.292
 5780POPC   GL172481  12.575   6.760   5.764
 5780POPC   GL272482  12.871   6.580   5.853
 5780POPC   C1A72483  12.675   6.803   6.255
 5780POPC   D2A72484  12.483   6.652   6.642
 5780POPC   C3A72485  12.662   6.666   7.039
 5780POPC   C4A72486  12.938   6.947   7.242
 5780POPC   C1B72487  13.063   6.363   6.218
 5780POPC   C2B72488  13.208   6.547   6.560
 5780POPC   C3B72489  13.140   6.537   6.968
 5780POPC   C4B72490  13.057   6.459   7.370
 5781POPC   NC372491  29.429  35.425   5.657
 5781POPC   PO472492  28.895  35.773   5.439
 5781POPC   GL172493  28.792  35.544   5.825
 5781POPC   GL272494  28.979  35.208   5.866
 5781POPC   C1A72495  28.963  35.517   6.262
 5781POPC   D2A72496  29.356  35.564   6.502
 5781POPC   C3A72497  29.207  35.572   6.932
 5781POPC   C4A72498  29.243  35.426   7.341
 5781POPC   C1B72499  29.254  35.087   6.229
 5781POPC   C2B72500  29.158  35.108   6.673
 5781POPC   C3B72501  29.160  34.967   7.115
 5781POPC   C4B72502  29.127  34.996   7.607
 5782POPC   NC372503  42.467  31.793   5.565
 5782POPC   PO472504  42.387  32.426   5.299
 5782POPC   GL172505  42.603  32.292   5.713
 5782POPC   GL272506  42.715  32.015   5.928
 5782POPC   C1A72507  42.529  32.440   6.157
 5782POPC   D2A72508  42.301  32.283   6.493
 5782POPC   C3A72509  42.356  32.167   6.925
 5782POPC   C4A72510  42.071  32.133   7.314
 5782POPC   C1B72511  42.693  31.989   6.354
 5782POPC   C2B72512  42.795  31.791   6.693
 5782POPC   C3B72513  42.634  31.735   7.056
 5782POPC   C4B72514  42.566  32.037   7.373
 5783POPC   NC372515  25.929  24.261   5.419
 5783POPC   PO472516  26.490  24.568   5.198
 5783POPC   GL172517  26.314  24.606   5.682
 5783POPC   GL272518  26.491  24.821   5.875
 5783POPC   C1A72519  26.115  24.439   6.088
 5783POPC   D2A72520  26.143  24.287   6.530
 5783POPC   C3A72521  25.790  24.395   6.805
 5783POPC   C4A72522  25.797  24.375   7.261
 5783POPC   C1B72523  26.280  24.913   6.242
 5783POPC   C2B72524  26.064  24.791   6.583
 5783POPC   C3B72525  26.147  24.684   6.975
 5783POPC   C4B72526  26.089  24.801   7.328
 5784POPC   NC372527  43.257   7.331   5.443
 5784POPC   PO472528  42.626   7.375   5.273
 5784POPC   GL172529  42.810   7.413   5.742
 5784POPC   GL272530  43.144   7.582   5.863
 5784POPC   C1A72531  42.963   7.181   6.146
 5784POPC   D2A72532  42.776   7.055   6.560
 5784POPC   C3A72533  43.044   7.129   6.907
 5784POPC   C4A72534  42.909   7.282   7.296
 5784POPC   C1B72535  43.037   7.685   6.279
 5784POPC   C2B72536  43.267   7.817   6.633
 5784POPC   C3B72537  43.602   7.721   6.902
 5784POPC   C4B72538  43.409   7.404   7.170
 5785POPC   NC372539   2.790   8.430   5.698
 5785POPC   PO472540   2.802   9.132   5.369
 5785POPC   GL172541   2.823   8.940   5.769
 5785POPC   GL272542   2.492   8.873   5.837
 5785POPC   C1A72543   2.793   9.024   6.230
 5785POPC   D2A72544   2.656   8.885   6.644
 5785POPC   C3A72545   2.876   9.114   6.915
 5785POPC   C4A72546   3.193   9.019   7.201
 5785POPC   C1B72547   2.369   8.739   6.255
 5785POPC   C2B72548   2.182   8.668   6.682
 5785POPC   C3B72549   2.361   8.736   7.060
 5785POPC   C4B72550   2.754   8.734   7.221
 5786POPC   NC372551  13.556   6.146   5.397
 5786POPC   PO472552  13.309   5.488   5.504
 5786POPC   GL172553  13.333   5.828   5.799
 5786POPC   GL272554  13.694   5.939   5.836
 5786POPC   C1A72555  13.372   5.886   6.237
 5786POPC   D2A72556  13.659   5.711   6.516
 5786POPC   C3A72557  13.569   5.664   6.920
 5786POPC   C4A72558  13.413   5.692   7.312
 5786POPC   C1B72559  13.938   6.028   6.202
 5786POPC   C2B72560  14.095   5.949   6.593
 5786POPC   C3B72561  13.936   6.035   6.991
 5786POPC   C4B72562  14.122   6.316   7.291
 5787POPC   NC372563  22.560  39.598   5.729
 5787POPC   PO472564  22.186  39.180   5.359
 5787POPC   GL172565  22.348  39.104   5.810
 5787POPC   GL272566  22.048  38.957   5.907
 5787POPC   C1A72567  22.238  39.187   6.307
 5787POPC   D2A72568  22.104  39.519   6.635
 5787POPC   C3A72569  22.195  39.353   7.079
 5787POPC   C4A72570  22.527  39.076   7.164
 5787POPC   C1B72571  21.784  38.888   6.262
 5787POPC   C2B72572  21.849  39.060   6.650
 5787POPC   C3B72573  21.723  38.934   7.020
 5787POPC   C4B72574  22.052  38.866   7.218
 5788POPC   NC372575  17.953   6.569   5.576
 5788POPC   PO472576  18.616   6.625   5.545
 5788POPC   GL172577  18.344   6.717   5.910
 5788POPC   GL272578  18.075   6.965   5.881
 5788POPC   C1A72579  18.073   6.510   6.244
 5788POPC   D2A72580  17.799   6.496   6.607
 5788POPC   C3A72581  18.139   6.462   6.906
 5788POPC   C4A72582  18.352   6.579   7.289
 5788POPC   C1B72583  18.116   7.035   6.303
 5788POPC   C2B72584  18.005   6.958   6.701
 5788POPC   C3B72585  18.274   6.981   6.989
 5788POPC   C4B72586  18.636   7.036   7.203
 5789POPC   NC372587   8.694  28.127   5.326
 5789POPC   PO472588   9.246  28.431   5.660
 5789POPC   GL172589   8.960  28.389   5.907
 5789POPC   GL272590   8.827  28.056   5.830
 5789POPC   C1A72591   8.747  28.556   6.307
 5789POPC   D2A72592   8.934  28.656   6.717
 5789POPC   C3A72593   8.870  28.281   6.958
 5789POPC   C4A72594   8.738  28.292   7.371
 5789POPC   C1B72595   9.003  28.098   6.287
 5789POPC   C2B72596   9.052  27.862   6.639
 5789POPC   C3B72597   9.274  27.926   7.000
 5789POPC   C4B72598   9.164  28.057   7.383
 5790POPC   NC372599  22.426  21.461   5.696
 5790POPC   PO472600  21.847  21.261   5.365
 5790POPC   GL172601  21.960  21.297   5.846
 5790POPC   GL272602  21.995  21.685   5.950
 5790POPC   C1A72603  22.176  21.323   6.287
 5790POPC   D2A72604  22.473  21.294   6.624
 5790POPC   C3A72605  22.285  21.063   6.949
 5790POPC   C4A72606  22.079  21.227   7.294
 5790POPC   C1B72607  22.341  21.898   6.222
 5790POPC   C2B72608  22.436  21.884   6.682
 5790POPC   C3B72609  22.127  21.754   6.998
 5790POPC   C4B72610  22.115  21.724   7.431
 5791POPC   NC372611   8.403  27.432   5.369
 5791POPC   PO472612   8.273  28.021   5.469
 5791POPC   GL172613   8.375  27.734   5.789
 5791POPC   GL272614   8.049  27.549   5.718
 5791POPC   C1A72615   8.324  27.403   6.114
 5791POPC   D2A72616   8.195  27.200   6.497
 5791POPC   C3A72617   8.047  27.443   6.817
 5791POPC   C4A72618   8.332  27.474   7.152
 5791POPC   C1B72619   7.950  27.801   6.076
 5791POPC   C2B72620   7.681  27.744   6.419
 5791POPC   C3B72621   7.782  27.923   6.811
 5791POPC   C4B72622   7.888  27.741   7.193
 5792POPC   NC372623  44.227  18.271   5.425
 5792POPC   PO472624  43.524  18.195   5.606
 5792POPC   GL172625  43.886  18.318   5.803
 5792POPC   GL272626  44.033  18.026   5.915
 5792POPC   C1A72627  43.971  18.500   6.175
 5792POPC   D2A72628  43.771  18.380   6.550
 5792POPC   C3A72629  43.858  18.590   6.905
 5792POPC   C4A72630  43.733  18.581   7.295
 5792POPC   C1B72631  43.686  18.011   6.198
 5792POPC   C2B72632  43.544  17.901   6.588
 5792POPC   C3B72633  43.586  18.097   6.981
 5792POPC   C4B72634  43.979  18.154   7.150
 5793POPC   NC372635  40.154  19.008   5.681
 5793POPC   PO472636  39.401  18.927   5.480
 5793POPC   GL172637  39.650  18.927   5.844
 5793POPC   GL272638  39.621  19.242   5.917
 5793POPC   C1A72639  39.835  18.936   6.274
 5793POPC   D2A72640  40.123  19.218   6.501
 5793POPC   C3A72641  40.032  19.241   6.933
 5793POPC   C4A72642  39.879  18.891   7.171
 5793POPC   C1B72643  39.699  19.479   6.268
 5793POPC   C2B72644  39.598  19.423   6.689
 5793POPC   C3B72645  39.656  19.564   7.104
 5793POPC   C4B72646  39.822  19.332   7.464
 5794POPC   NC372647  11.231   4.326   5.333
 5794POPC   PO472648  11.657   3.917   5.708
 5794POPC   GL172649  11.411   4.199   5.978
 5794POPC   GL272650  11.103   4.431   5.844
 5794POPC   C1A72651  11.449   4.268   6.419
 5794POPC   D2A72652  11.151   4.459   6.664
 5794POPC   C3A72653  11.238   4.561   7.070
 5794POPC   C4A72654  11.378   4.413   7.469
 5794POPC   C1B72655  10.944   4.093   6.129
 5794POPC   C2B72656  11.046   3.971   6.544
 5794POPC   C3B72657  11.278   4.052   6.939
 5794POPC   C4B72658  11.142   3.935   7.351
 5795POPC   NC372659  32.746  11.595   5.474
 5795POPC   PO472660  33.180  11.029   5.503
 5795POPC   GL172661  33.162  11.171   5.868
 5795POPC   GL272662  33.033  11.516   5.894
 5795POPC   C1A72663  32.999  11.130   6.240
 5795POPC   D2A72664  32.977  11.325   6.591
 5795POPC   C3A72665  32.910  11.024   6.894
 5795POPC   C4A72666  33.089  11.197   7.224
 5795POPC   C1B72667  32.651  11.562   6.167
 5795POPC   C2B72668  32.518  11.654   6.618
 5795POPC   C3B72669  32.780  11.562   6.994
 5795POPC   C4B72670  32.852  11.706   7.379
 5796POPC   NC372671  13.758   3.666   5.411
 5796POPC   PO472672  13.203   3.172   5.365
 5796POPC   GL172673  13.432   3.432   5.730
 5796POPC   GL272674  13.824   3.355   5.798
 5796POPC   C1A72675  13.580   3.539   6.183
 5796POPC   D2A72676  13.747   3.534   6.591
 5796POPC   C3A72677  13.505   3.791   6.852
 5796POPC   C4A72678  13.298   3.621   7.264
 5796POPC   C1B72679  14.078   3.408   6.200
 5796POPC   C2B72680  14.084   3.108   6.571
 5796POPC   C3B72681  13.869   3.193   6.973
 5796POPC   C4B72682  13.810   3.582   7.179
 5797POPC   NC372683  21.492  21.670   5.406
 5797POPC   PO472684  21.019  21.192   5.593
 5797POPC   GL172685  21.154  21.528   5.811
 5797POPC   GL272686  21.495  21.510   5.895
 5797POPC   C1A72687  21.128  21.571   6.252
 5797POPC   D2A72688  21.152  21.324   6.596
 5797POPC   C3A72689  21.157  21.492   7.023
 5797POPC   C4A72690  21.272  21.469   7.491
 5797POPC   C1B72691  21.673  21.380   6.310
 5797POPC   C2B72692  21.863  21.379   6.756
 5797POPC   C3B72693  21.688  21.540   7.178
 5797POPC   C4B72694  21.757  21.417   7.651
 5798POPC   NC372695  41.507   7.054   5.314
 5798POPC   PO472696  41.419   7.665   5.316
 5798POPC   GL172697  41.586   7.587   5.771
 5798POPC   GL272698  41.673   7.237   5.800
 5798POPC   C1A72699  41.691   7.517   6.262
 5798POPC   D2A72700  41.482   7.671   6.635
 5798POPC   C3A72701  41.584   7.514   7.054
 5798POPC   C4A72702  41.770   7.138   7.259
 5798POPC   C1B72703  41.285   7.284   6.088
 5798POPC   C2B72704  41.274   7.204   6.538
 5798POPC   C3B72705  41.318   7.089   6.980
 5798POPC   C4B72706  41.282   7.229   7.428
 5799POPC   NC372707  31.673   6.861   5.433
 5799POPC   PO472708  30.994   6.652   5.409
 5799POPC   GL172709  31.234   6.518   5.793
 5799POPC   GL272710  31.622   6.517   5.833
 5799POPC   C1A72711  31.282   6.739   6.183
 5799POPC   D2A72712  31.553   6.773   6.472
 5799POPC   C3A72713  31.384   6.715   6.825
 5799POPC   C4A72714  31.421   6.763   7.204
 5799POPC   C1B72715  31.803   6.397   6.242
 5799POPC   C2B72716  31.644   6.301   6.688
 5799POPC   C3B72717  31.782   6.427   7.126
 5799POPC   C4B72718  31.984   6.572   7.520
 5800POPC   NC372719  41.183  44.251   5.350
 5800POPC   PO472720  41.756  43.862   5.203
 5800POPC   GL172721  41.673  43.860   5.641
 5800POPC   GL272722  41.726  44.196   5.626
 5800POPC   C1A72723  41.597  43.619   6.057
 5800POPC   D2A72724  41.447  43.746   6.464
 5800POPC   C3A72725  41.676  43.971   6.800
 5800POPC   C4A72726  41.600  43.913   7.248
 5800POPC   C1B72727  41.482  44.116   6.038
 5800POPC   C2B72728  41.569  44.307   6.431
 5800POPC   C3B72729  41.433  44.425   6.843
 5800POPC   C4B72730  41.269  44.278   7.206
 5801POPC   NC372731  41.075  28.506   5.613
 5801POPC   PO472732  41.633  28.321   5.258
 5801POPC   GL172733  41.511  28.128   5.677
 5801POPC   GL272734  41.784  27.988   5.891
 5801POPC   C1A72735  41.363  28.204   6.139
 5801POPC   D2A72736  41.527  28.061   6.551
 5801POPC   C3A72737  41.429  28.236   6.980
 5801POPC   C4A72738  41.354  28.604   7.298
 5801POPC   C1B72739  41.866  28.324   6.208
 5801POPC   C2B72740  41.946  28.430   6.662
 5801POPC   C3B72741  41.843  28.531   7.101
 5801POPC   C4B72742  41.747  28.309   7.439
 5802POPC   NC372743   4.832  23.770   5.306
 5802POPC   PO472744   4.117  23.792   5.331
 5802POPC   GL172745   4.383  23.790   5.696
 5802POPC   GL272746   4.119  23.557   5.795
 5802POPC   C1A72747   4.467  23.658   6.144
 5802POPC   D2A72748   4.282  23.753   6.577
 5802POPC   C3A72749   4.558  23.974   6.887
 5802POPC   C4A72750   4.647  23.850   7.330
 5802POPC   C1B72751   3.961  23.506   6.170
 5802POPC   C2B72752   3.819  23.383   6.519
 5802POPC   C3B72753   4.039  23.380   6.854
 5802POPC   C4B72754   4.229  23.647   7.121
 5803POPC   NC372755  17.190  23.963   5.141
 5803POPC   PO472756  16.678  23.449   5.011
 5803POPC   GL172757  16.654  23.594   5.606
 5803POPC   GL272758  16.914  23.485   5.820
 5803POPC   C1A72759  16.496  23.686   6.064
 5803POPC   D2A72760  16.642  23.737   6.531
 5803POPC   C3A72761  16.391  23.701   6.914
 5803POPC   C4A72762  16.593  23.688   7.327
 5803POPC   C1B72763  17.065  23.475   6.271
 5803POPC   C2B72764  17.264  23.551   6.684
 5803POPC   C3B72765  17.036  23.631   7.067
 5803POPC   C4B72766  17.091  23.670   7.517
 5804POPC   NC372767  25.083  44.745   5.500
 5804POPC   PO472768  25.716  44.488   5.627
 5804POPC   GL172769  25.439  44.799   5.878
 5804POPC   GL272770  25.121  44.609   5.972
 5804POPC   C1A72771  25.324  44.897   6.322
 5804POPC   D2A72772  25.449  44.534   6.531
 5804POPC   C3A72773  25.561  44.591   6.952
 5804POPC   C4A72774  25.576  44.682   7.369
 5804POPC   C1B72775  24.936  44.523   6.359
 5804POPC   C2B72776  24.946  44.781   6.727
 5804POPC   C3B72777  25.120  44.838   7.123
 5804POPC   C4B72778  24.988  44.477   7.348
 5805POPC   NC372779  33.319  29.205   5.587
 5805POPC   PO472780  33.903  28.988   5.470
 5805POPC   GL172781  33.671  28.914   5.844
 5805POPC   GL272782  33.494  29.186   6.071
 5805POPC   C1A72783  33.740  28.778   6.244
 5805POPC   D2A72784  33.708  29.015   6.613
 5805POPC   C3A72785  33.947  28.913   6.986
 5805POPC   C4A72786  33.919  28.855   7.435
 5805POPC   C1B72787  33.955  29.244   6.151
 5805POPC   C2B72788  34.077  29.394   6.534
 5805POPC   C3B72789  33.862  29.420   6.903
 5805POPC   C4B72790  33.980  29.349   7.298
 5806POPC   NC372791  38.699   9.756   5.420
 5806POPC   PO472792  39.283   9.858   5.393
 5806POPC   GL172793  39.057   9.835   5.810
 5806POPC   GL272794  38.765   9.555   5.877
 5806POPC   C1A72795  39.299  10.029   6.196
 5806POPC   D2A72796  39.609  10.193   6.535
 5806POPC   C3A72797  39.383  10.056   6.903
 5806POPC   C4A72798  39.399   9.728   7.219
 5806POPC   C1B72799  38.823   9.752   6.269
 5806POPC   C2B72800  38.842   9.850   6.708
 5806POPC   C3B72801  38.940   9.556   7.035
 5806POPC   C4B72802  39.277   9.249   7.095
 5807POPC   NC372803  33.318  16.565   5.518
 5807POPC   PO472804  33.929  16.803   5.341
 5807POPC   GL172805  33.785  16.583   5.697
 5807POPC   GL272806  33.625  16.915   5.757
 5807POPC   C1A72807  33.656  16.525   6.138
 5807POPC   D2A72808  33.808  16.681   6.549
 5807POPC   C3A72809  33.656  16.501   6.940
 5807POPC   C4A72810  33.536  16.614   7.366
 5807POPC   C1B72811  33.530  17.049   6.164
 5807POPC   C2B72812  33.498  17.101   6.592
 5807POPC   C3B72813  33.584  17.016   7.017
 5807POPC   C4B72814  33.358  17.083   7.402
 5808POPC   NC372815  20.215  40.334   5.548
 5808POPC   PO472816  19.752  39.976   5.113
 5808POPC   GL172817  19.751  39.934   5.652
 5808POPC   GL272818  19.598  40.203   5.909
 5808POPC   C1A72819  19.779  39.801   6.133
 5808POPC   D2A72820  20.062  39.746   6.527
 5808POPC   C3A72821  19.890  39.772   6.965
 5808POPC   C4A72822  19.634  40.036   7.265
 5808POPC   C1B72823  20.010  40.253   6.173
 5808POPC   C2B72824  20.211  40.279   6.590
 5808POPC   C3B72825  20.083  40.262   7.040
 5808POPC   C4B72826  20.027  40.278   7.484
 5809POPC   NC372827   7.534   6.220   5.448
 5809POPC   PO472828   7.206   5.515   5.438
 5809POPC   GL172829   7.179   5.639   5.844
 5809POPC   GL272830   7.495   5.660   5.867
 5809POPC   C1A72831   7.137   5.783   6.274
 5809POPC   D2A72832   7.319   5.623   6.616
 5809POPC   C3A72833   7.235   5.793   7.039
 5809POPC   C4A72834   7.289   5.565   7.395
 5809POPC   C1B72835   7.646   5.836   6.266
 5809POPC   C2B72836   7.780   5.810   6.715
 5809POPC   C3B72837   7.717   5.770   7.165
 5809POPC   C4B72838   7.497   6.022   7.471
 5810POPC   NC372839  18.463  36.464   5.449
 5810POPC   PO472840  18.025  35.995   5.260
 5810POPC   GL172841  18.227  36.157   5.731
 5810POPC   GL272842  18.569  35.986   5.843
 5810POPC   C1A72843  18.338  36.310   6.167
 5810POPC   D2A72844  18.277  36.110   6.564
 5810POPC   C3A72845  18.540  36.270   6.862
 5810POPC   C4A72846  18.443  36.575   7.191
 5810POPC   C1B72847  18.761  35.726   6.179
 5810POPC   C2B72848  18.694  35.731   6.642
 5810POPC   C3B72849  18.557  35.764   7.066
 5810POPC   C4B72850  18.714  35.673   7.486
 5811POPC   NC372851   0.552  11.955   5.393
 5811POPC   PO472852   0.154  12.480   5.556
 5811POPC   GL172853   0.266  12.109   5.815
 5811POPC   GL272854   0.073  11.814   5.696
 5811POPC   C1A72855   0.516  12.071   6.194
 5811POPC   D2A72856   0.643  12.323   6.565
 5811POPC   C3A72857   0.484  12.100   6.930
 5811POPC   C4A72858   0.640  12.160   7.336
 5811POPC   C1B72859   0.132  11.691   6.139
 5811POPC   C2B72860   0.282  11.776   6.564
 5811POPC   C3B72861   0.052  11.777   6.942
 5811POPC   C4B72862   0.191  11.867   7.315
 5812POPC   NC372863  37.468  25.127   5.403
 5812POPC   PO472864  38.015  25.340   5.121
 5812POPC   GL172865  37.969  25.263   5.617
 5812POPC   GL272866  37.676  25.410   5.768
 5812POPC   C1A72867  37.976  25.162   6.108
 5812POPC   D2A72868  37.847  25.361   6.524
 5812POPC   C3A72869  38.029  25.360   6.952
 5812POPC   C4A72870  38.120  25.721   7.226
 5812POPC   C1B72871  37.447  25.271   6.166
 5812POPC   C2B72872  37.415  25.107   6.592
 5812POPC   C3B72873  37.680  24.977   6.888
 5812POPC   C4B72874  37.624  25.107   7.271
 5813POPC   NC372875  42.195  38.028   5.313
 5813POPC   PO472876  42.390  38.630   5.431
 5813POPC   GL172877  42.332  38.590   5.856
 5813POPC   GL272878  42.682  38.570   5.942
 5813POPC   C1A72879  42.134  38.257   6.112
 5813POPC   D2A72880  41.990  38.118   6.526
 5813POPC   C3A72881  42.137  38.358   6.883
 5813POPC   C4A72882  41.946  38.455   7.286
 5813POPC   C1B72883  42.478  38.540   6.369
 5813POPC   C2B72884  42.182  38.802   6.612
 5813POPC   C3B72885  42.125  38.876   7.067
 5813POPC   C4B72886  42.464  38.585   7.221
 5814POPC   NC372887   9.030  28.824   5.470
 5814POPC   PO472888   8.591  29.414   5.505
 5814POPC   GL172889   8.861  29.248   5.819
 5814POPC   GL272890   8.860  28.895   5.939
 5814POPC   C1A72891   8.978  29.269   6.248
 5814POPC   D2A72892   9.084  29.162   6.620
 5814POPC   C3A72893   9.058  29.451   6.941
 5814POPC   C4A72894   9.008  29.422   7.363
 5814POPC   C1B72895   9.210  28.775   6.260
 5814POPC   C2B72896   9.462  28.835   6.671
 5814POPC   C3B72897   9.260  28.983   7.072
 5814POPC   C4B72898   8.908  28.753   7.248
 5815POPC   NC372899  28.021  37.286   5.490
 5815POPC   PO472900  28.661  37.407   5.620
 5815POPC   GL172901  28.396  37.124   5.856
 5815POPC   GL272902  28.228  36.833   5.705
 5815POPC   C1A72903  28.492  36.886   6.225
 5815POPC   D2A72904  28.434  36.830   6.634
 5815POPC   C3A72905  28.307  36.947   7.013
 5815POPC   C4A72906  28.497  36.774   7.335
 5815POPC   C1B72907  28.040  36.680   6.076
 5815POPC   C2B72908  28.005  36.533   6.471
 5815POPC   C3B72909  28.095  36.486   6.886
 5815POPC   C4B72910  28.015  36.596   7.308
 5816POPC   NC372911  31.361  17.946   5.433
 5816POPC   PO472912  31.514  18.597   5.338
 5816POPC   GL172913  31.348  18.507   5.758
 5816POPC   GL272914  31.536  18.181   5.860
 5816POPC   C1A72915  31.306  18.433   6.229
 5816POPC   D2A72916  31.282  18.066   6.533
 5816POPC   C3A72917  31.328  18.229   6.928
 5816POPC   C4A72918  31.236  18.583   7.099
 5816POPC   C1B72919  31.745  18.124   6.278
 5816POPC   C2B72920  31.781  18.228   6.733
 5816POPC   C3B72921  31.775  18.054   7.175
 5816POPC   C4B72922  31.818  17.984   7.655
 5817POPC   NC372923  17.478  33.510   5.381
 5817POPC   PO472924  18.079  33.795   5.367
 5817POPC   GL172925  17.774  33.786   5.798
 5817POPC   GL272926  17.367  33.857   5.916
 5817POPC   C1A72927  17.704  33.718   6.271
 5817POPC   D2A72928  17.812  33.995   6.641
 5817POPC   C3A72929  17.594  33.949   7.050
 5817POPC   C4A72930  17.590  33.520   7.208
 5817POPC   C1B72931  17.218  33.884   6.329
 5817POPC   C2B72932  17.375  33.693   6.691
 5817POPC   C3B72933  17.137  33.694   7.067
 5817POPC   C4B72934  17.153  33.588   7.533
 5818POPC   NC372935   1.036  19.196   5.406
 5818POPC   PO472936   1.401  18.577   5.487
 5818POPC   GL172937   1.329  18.936   5.764
 5818POPC   GL272938   1.529  19.246   5.749
 5818POPC   C1A72939   1.262  18.994   6.197
 5818POPC   D2A72940   1.500  18.839   6.533
 5818POPC   C3A72941   1.296  18.867   6.931
 5818POPC   C4A72942   0.925  19.060   7.129
 5818POPC   C1B72943   1.457  19.483   6.140
 5818POPC   C2B72944   1.364  19.359   6.570
 5818POPC   C3B72945   1.478  19.436   6.985
 5818POPC   C4B72946   1.374  19.186   7.329
 5819POPC   NC372947  42.828  38.481   5.418
 5819POPC   PO472948  43.120  37.949   5.482
 5819POPC   GL172949  43.192  38.263   5.859
 5819POPC   GL272950  43.188  38.664   5.898
 5819POPC   C1A72951  43.510  38.379   6.186
 5819POPC   D2A72952  43.536  38.613   6.582
 5819POPC   C3A72953  43.299  38.438   6.925
 5819POPC   C4A72954  43.381  38.372   7.369
 5819POPC   C1B72955  43.022  38.529   6.338
 5819POPC   C2B72956  42.802  38.562   6.769
 5819POPC   C3B72957  42.957  38.726   7.162
 5819POPC   C4B72958  43.126  38.758   7.601
 5820POPC   NC372959  12.554  40.254   5.354
 5820POPC   PO472960  12.972  39.736   5.281
 5820POPC   GL172961  12.922  39.996   5.646
 5820POPC   GL272962  12.587  39.957   5.778
 5820POPC   C1A72963  13.010  40.048   6.099
 5820POPC   D2A72964  12.926  40.208   6.525
 5820POPC   C3A72965  13.075  39.965   6.859
 5820POPC   C4A72966  13.042  40.047   7.300
 5820POPC   C1B72967  12.498  40.024   6.223
 5820POPC   C2B72968  12.576  39.819   6.627
 5820POPC   C3B72969  12.598  39.994   7.044
 5820POPC   C4B72970  12.341  40.304   7.179
 5821POPC   NC372971   1.775  18.838   5.485
 5821POPC   PO472972   2.169  19.393   5.384
 5821POPC   GL172973   2.051  19.172   5.751
 5821POPC   GL272974   2.195  18.853   5.784
 5821POPC   C1A72975   1.836  19.031   6.142
 5821POPC   D2A72976   1.850  19.210   6.549
 5821POPC   C3A72977   1.806  19.019   6.925
 5821POPC   C4A72978   2.092  19.064   7.246
 5821POPC   C1B72979   2.235  18.660   6.146
 5821POPC   C2B72980   2.028  18.696   6.511
 5821POPC   C3B72981   2.245  18.757   6.856
 5821POPC   C4B72982   2.075  18.564   7.189
 5822POPC   NC372983  42.671  43.261   5.473
 5822POPC   PO472984  42.080  43.554   5.567
 5822POPC   GL172985  42.282  43.161   5.818
 5822POPC   GL272986  42.645  42.969   5.889
 5822POPC   C1A72987  42.383  43.134   6.263
 5822POPC   D2A72988  42.383  43.344   6.586
 5822POPC   C3A72989  42.362  43.120   6.913
 5822POPC   C4A72990  42.285  43.288   7.286
 5822POPC   C1B72991  42.826  43.338   6.140
 5822POPC   C2B72992  42.878  43.271   6.582
 5822POPC   C3B72993  42.836  43.231   7.027
 5822POPC   C4B72994  42.661  42.927   7.298
 5823POPC   NC372995  33.841  34.090   5.411
 5823POPC   PO472996  34.052  33.555   5.439
 5823POPC   GL172997  33.681  33.707   5.756
 5823POPC   GL272998  33.530  34.065   5.812
 5823POPC   C1A72999  33.570  33.751   6.223
 5823POPC   D2A73000  33.671  33.893   6.675
 5823POPC   C3A73001  33.840  33.562   7.009
 5823POPC   C4A73002  33.938  33.536   7.486
 5823POPC   C1B73003  33.570  34.305   6.220
 5823POPC   C2B73004  33.350  34.389   6.611
 5823POPC   C3B73005  33.320  34.177   6.985
 5823POPC   C4B73006  33.645  33.950   7.287
 5824POPC   NC373007  42.661  12.467   5.494
 5824POPC   PO473008  42.427  11.967   5.096
 5824POPC   GL173009  42.414  12.017   5.619
 5824POPC   GL273010  42.292  12.335   5.818
 5824POPC   C1A73011  42.513  11.982   6.116
 5824POPC   D2A73012  42.583  12.255   6.521
 5824POPC   C3A73013  42.706  12.146   6.955
 5824POPC   C4A73014  42.413  12.058   7.340
 5824POPC   C1B73015  42.342  12.577   6.215
 5824POPC   C2B73016  42.177  12.539   6.662
 5824POPC   C3B73017  42.350  12.496   7.086
 5824POPC   C4B73018  42.340  12.500   7.575
 5825POPC   NC373019   3.375   1.656   5.148
 5825POPC   PO473020   3.446   1.025   5.392
 5825POPC   GL173021   3.547   1.050   5.826
 5825POPC   GL273022   3.926   1.016   5.834
 5825POPC   C1A73023   3.295   1.051   6.239
 5825POPC   D2A73024   3.162   1.273   6.632
 5825POPC   C3A73025   3.143   1.029   7.033
 5825POPC   C4A73026   3.356   1.107   7.435
 5825POPC   C1B73027   3.808   1.063   6.266
 5825POPC   C2B73028   3.698   1.182   6.694
 5825POPC   C3B73029   3.655   0.945   7.066
 5825POPC   C4B73030   3.756   0.760   7.468
 5826POPC   NC373031  20.665  10.060   5.494
 5826POPC   PO473032  20.418   9.393   5.428
 5826POPC   GL173033  20.577   9.640   5.774
 5826POPC   GL273034  20.735   9.397   5.852
 5826POPC   C1A73035  20.849   9.789   6.136
 5826POPC   D2A73036  20.638   9.848   6.512
 5826POPC   C3A73037  20.724   9.770   6.920
 5826POPC   C4A73038  20.439   9.730   7.242
 5826POPC   C1B73039  20.531   9.380   6.243
 5826POPC   C2B73040  20.418   9.399   6.677
 5826POPC   C3B73041  20.231   9.310   7.064
 5826POPC   C4B73042  20.318   9.303   7.525
 5827POPC   NC373043  40.539   9.379   5.355
 5827POPC   PO473044  40.867  10.026   5.387
 5827POPC   GL173045  40.718   9.914   5.771
 5827POPC   GL273046  40.830  10.234   5.878
 5827POPC   C1A73047  40.603   9.619   6.128
 5827POPC   D2A73048  40.809   9.496   6.527
 5827POPC   C3A73049  40.683   9.344   6.954
 5827POPC   C4A73050  40.883   9.493   7.319
 5827POPC   C1B73051  40.511  10.152   6.185
 5827POPC   C2B73052  40.510   9.932   6.557
 5827POPC   C3B73053  40.579  10.156   6.954
 5827POPC   C4B73054  40.731   9.959   7.299
 5828POPC   NC373055  40.304  27.875   5.533
 5828POPC   PO473056  39.976  28.436   5.273
 5828POPC   GL173057  39.920  28.278   5.713
 5828POPC   GL273058  39.577  28.174   5.763
 5828POPC   C1A73059  39.975  28.169   6.161
 5828POPC   D2A73060  40.036  28.436   6.536
 5828POPC   C3A73061  40.134  28.213   6.926
 5828POPC   C4A73062  40.031  28.325   7.353
 5828POPC   C1B73063  39.465  28.135   6.234
 5828POPC   C2B73064  39.685  28.094   6.648
 5828POPC   C3B73065  39.658  28.066   7.098
 5828POPC   C4B73066  39.663  27.990   7.543
 5829POPC   NC373067  21.085  20.758   5.464
 5829POPC   PO473068  21.660  20.491   5.280
 5829POPC   GL173069  21.527  20.649   5.709
 5829POPC   GL273070  21.525  21.015   5.693
 5829POPC   C1A73071  21.345  20.511   6.134
 5829POPC   D2A73072  21.130  20.383   6.533
 5829POPC   C3A73073  21.214  20.608   6.921
 5829POPC   C4A73074  21.196  20.346   7.260
 5829POPC   C1B73075  21.367  21.022   6.120
 5829POPC   C2B73076  21.430  20.865   6.527
 5829POPC   C3B73077  21.462  21.083   6.908
 5829POPC   C4B73078  21.602  21.060   7.300
 5830POPC   NC373079  31.662  27.375   5.480
 5830POPC   PO473080  31.398  27.983   5.336
 5830POPC   GL173081  31.512  27.837   5.792
 5830POPC   GL273082  31.510  27.483   5.928
 5830POPC   C1A73083  31.231  27.788   6.193
 5830POPC   D2A73084  31.020  27.565   6.537
 5830POPC   C3A73085  31.300  27.529   6.883
 5830POPC   C4A73086  31.566  27.742   7.152
 5830POPC   C1B73087  31.754  27.422   6.264
 5830POPC   C2B73088  31.797  27.562   6.674
 5830POPC   C3B73089  31.777  27.289   6.996
 5830POPC   C4B73090  31.564  27.257   7.336
 5831POPC   NC373091  28.607  38.904   5.508
 5831POPC   PO473092  28.650  38.289   5.148
 5831POPC   GL173093  28.373  38.426   5.651
 5831POPC   GL273094  28.283  38.755   5.867
 5831POPC   C1A73095  28.438  38.324   6.136
 5831POPC   D2A73096  28.354  38.229   6.588
 5831POPC   C3A73097  28.604  38.248   6.966
 5831POPC   C4A73098  28.380  38.261   7.349
 5831POPC   C1B73099  28.635  38.800   6.185
 5831POPC   C2B73100  28.609  38.702   6.618
 5831POPC   C3B73101  28.293  38.636   6.928
 5831POPC   C4B73102  28.458  38.751   7.285
 5832POPC   NC373103  43.888   0.591   5.719
 5832POPC   PO473104  44.355   0.316   5.453
 5832POPC   GL173105  44.240   0.305   5.928
 5832POPC   GL273106  44.327   0.692   5.966
 5832POPC   C1A73107  43.869   0.283   6.277
 5832POPC   D2A73108  43.621   0.196   6.639
 5832POPC   C3A73109  43.758   0.244   6.989
 5832POPC   C4A73110  43.660   0.518   7.258
 5832POPC   C1B73111  44.273   0.593   6.371
 5832POPC   C2B73112  43.950   0.634   6.657
 5832POPC   C3B73113  44.087   0.675   7.038
 5832POPC   C4B73114  44.202   0.317   7.194
 5833POPC   NC373115  11.921  43.607   5.542
 5833POPC   PO473116  12.167  44.276   5.469
 5833POPC   GL173117  12.083  44.007   5.822
 5833POPC   GL273118  12.415  43.835   5.825
 5833POPC   C1A73119  11.843  43.794   6.209
 5833POPC   D2A73120  11.760  43.477   6.602
 5833POPC   C3A73121  11.777  43.733   6.999
 5833POPC   C4A73122  12.207  43.851   7.132
 5833POPC   C1B73123  12.381  44.141   6.208
 5833POPC   C2B73124  12.263  44.198   6.648
 5833POPC   C3B73125  12.426  44.291   7.058
 5833POPC   C4B73126  12.306  44.248   7.493
 5834POPC   NC373127  18.395   7.121   5.421
 5834POPC   PO473128  18.478   7.831   5.552
 5834POPC   GL173129  18.505   7.486   5.797
 5834POPC   GL273130  18.175   7.454   5.776
 5834POPC   C1A73131  18.434   7.443   6.227
 5834POPC   D2A73132  18.494   7.249   6.602
 5834POPC   C3A73133  18.435   7.489   6.957
 5834POPC   C4A73134  18.715   7.639   7.217
 5834POPC   C1B73135  17.937   7.501   6.169
 5834POPC   C2B73136  18.054   7.526   6.605
 5834POPC   C3B73137  17.924   7.397   7.023
 5834POPC   C4B73138  18.009   7.555   7.432
 5835POPC   NC373139  17.750   3.092   5.568
 5835POPC   PO473140  17.168   2.733   5.451
 5835POPC   GL173141  17.423   2.764   5.803
 5835POPC   GL273142  17.675   2.522   5.797
 5835POPC   C1A73143  17.392   2.883   6.228
 5835POPC   D2A73144  17.497   3.076   6.608
 5835POPC   C3A73145  17.503   2.980   7.029
 5835POPC   C4A73146  17.251   3.165   7.312
 5835POPC   C1B73147  17.443   2.366   6.162
 5835POPC   C2B73148  17.606   2.538   6.549
 5835POPC   C3B73149  17.483   2.491   6.953
 5835POPC   C4B73150  17.342   2.424   7.353
 5836POPC   NC373151  18.350   8.998   5.432
 5836POPC   PO473152  17.878   8.487   5.589
 5836POPC   GL173153  18.061   8.867   5.852
 5836POPC   GL273154  18.446   9.037   5.915
 5836POPC   C1A73155  18.105   9.042   6.281
 5836POPC   D2A73156  18.213   8.823   6.675
 5836POPC   C3A73157  17.976   8.841   7.057
 5836POPC   C4A73158  17.900   9.086   7.385
 5836POPC   C1B73159  18.439   8.671   6.183
 5836POPC   C2B73160  18.627   8.552   6.563
 5836POPC   C3B73161  18.611   8.682   6.998
 5836POPC   C4B73162  18.350   8.764   7.385
 5837POPC   NC373163  32.771  33.498   5.571
 5837POPC   PO473164  33.336  33.794   5.377
 5837POPC   GL173165  33.060  33.904   5.740
 5837POPC   GL273166  33.156  33.631   5.909
 5837POPC   C1A73167  33.150  34.049   6.190
 5837POPC   D2A73168  33.173  33.794   6.565
 5837POPC   C3A73169  33.331  33.662   6.977
 5837POPC   C4A73170  33.114  33.433   7.264
 5837POPC   C1B73171  32.793  33.680   6.171
 5837POPC   C2B73172  32.664  33.746   6.541
 5837POPC   C3B73173  32.829  33.737   6.957
 5837POPC   C4B73174  32.665  33.846   7.382
 5838POPC   NC373175  35.855   5.901   4.917
 5838POPC   PO473176  36.422   5.720   5.390
 5838POPC   GL173177  36.131   5.903   5.716
 5838POPC   GL273178  35.826   6.130   5.705
 5838POPC   C1A73179  36.130   5.719   6.131
 5838POPC   D2A73180  36.382   5.684   6.484
 5838POPC   C3A73181  36.168   5.695   6.855
 5838POPC   C4A73182  36.180   5.910   7.274
 5838POPC   C1B73183  36.007   6.235   6.099
 5838POPC   C2B73184  36.111   6.106   6.506
 5838POPC   C3B73185  35.933   6.160   6.910
 5838POPC   C4B73186  35.724   6.206   7.279
 5839POPC   NC373187  31.806  11.935   5.474
 5839POPC   PO473188  32.494  12.007   5.381
 5839POPC   GL173189  32.355  11.841   5.766
 5839POPC   GL273190  32.377  12.157   5.907
 5839POPC   C1A73191  32.095  11.791   6.170
 5839POPC   D2A73192  32.059  11.996   6.567
 5839POPC   C3A73193  31.985  11.927   7.017
 5839POPC   C4A73194  32.364  11.823   7.234
 5839POPC   C1B73195  32.533  12.050   6.269
 5839POPC   C2B73196  32.535  12.174   6.654
 5839POPC   C3B73197  32.753  12.058   7.003
 5839POPC   C4B73198  32.701  12.180   7.404
 5840POPC   NC373199  30.856   1.785   5.395
 5840POPC   PO473200  30.457   2.303   5.394
 5840POPC   GL173201  30.538   2.077   5.788
 5840POPC   GL273202  30.809   1.847   5.915
 5840POPC   C1A73203  30.633   2.264   6.184
 5840POPC   D2A73204  30.878   2.378   6.553
 5840POPC   C3A73205  30.681   2.229   6.913
 5840POPC   C4A73206  30.474   2.190   7.309
 5840POPC   C1B73207  30.477   1.768   6.281
 5840POPC   C2B73208  30.473   1.755   6.782
 5840POPC   C3B73209  30.743   1.786   7.176
 5840POPC   C4B73210  30.840   1.660   7.614
 5841POPC   NC373211  43.755  20.883   5.471
 5841POPC   PO473212  44.275  20.354   5.355
 5841POPC   GL173213  44.003  20.507   5.747
 5841POPC   GL273214  43.661  20.490   5.800
 5841POPC   C1A73215  43.979  20.823   6.106
 5841POPC   D2A73216  43.798  21.046   6.451
 5841POPC   C3A73217  43.883  20.819   6.875
 5841POPC   C4A73218  44.256  20.841   7.134
 5841POPC   C1B73219  43.504  20.620   6.214
 5841POPC   C2B73220  43.422  20.762   6.624
 5841POPC   C3B73221  43.443  20.530   7.008
 5841POPC   C4B73222  43.763  20.520   7.319
 5842POPC   NC373223  32.754  25.436   5.327
 5842POPC   PO473224  33.385  25.076   5.274
 5842POPC   GL173225  33.059  25.019   5.600
 5842POPC   GL273226  33.022  25.357   5.757
 5842POPC   C1A73227  32.932  24.984   6.060
 5842POPC   D2A73228  32.876  25.256   6.413
 5842POPC   C3A73229  32.771  25.092   6.788
 5842POPC   C4A73230  32.928  25.190   7.172
 5842POPC   C1B73231  33.183  25.573   6.163
 5842POPC   C2B73232  33.262  25.691   6.613
 5842POPC   C3B73233  33.248  25.604   7.067
 5842POPC   C4B73234  33.258  25.412   7.478
 5843POPC   NC373235  17.630  31.082   5.498
 5843POPC   PO473236  17.228  31.638   5.413
 5843POPC   GL173237  17.425  31.625   5.816
 5843POPC   GL273238  17.790  31.554   5.741
 5843POPC   C1A73239  17.257  31.461   6.211
 5843POPC   D2A73240  17.191  31.281   6.620
 5843POPC   C3A73241  17.312  31.559   6.950
 5843POPC   C4A73242  17.271  31.289   7.269
 5843POPC   C1B73243  17.828  31.297   6.110
 5843POPC   C2B73244  17.707  31.398   6.514
 5843POPC   C3B73245  17.671  31.208   6.891
 5843POPC   C4B73246  17.778  31.410   7.276
 5844POPC   NC373247  19.253  31.600   5.328
 5844POPC   PO473248  18.666  31.326   5.444
 5844POPC   GL173249  18.820  31.410   5.829
 5844POPC   GL273250  18.755  31.727   5.810
 5844POPC   C1A73251  19.004  31.256   6.215
 5844POPC   D2A73252  19.282  31.169   6.544
 5844POPC   C3A73253  19.013  31.229   6.908
 5844POPC   C4A73254  19.190  31.204   7.296
 5844POPC   C1B73255  18.985  31.764   6.194
 5844POPC   C2B73256  19.132  31.671   6.584
 5844POPC   C3B73257  19.265  31.663   7.007
 5844POPC   C4B73258  18.941  31.660   7.321
 5845POPC   NC373259  19.575  33.320   5.634
 5845POPC   PO473260  19.737  32.695   5.498
 5845POPC   GL173261  19.902  32.949   5.812
 5845POPC   GL273262  20.215  32.815   5.809
 5845POPC   C1A73263  19.795  33.014   6.250
 5845POPC   D2A73264  19.644  32.778   6.631
 5845POPC   C3A73265  19.749  32.949   7.065
 5845POPC   C4A73266  19.705  32.856   7.531
 5845POPC   C1B73267  20.318  32.949   6.206
 5845POPC   C2B73268  20.136  32.926   6.633
 5845POPC   C3B73269  20.264  32.862   7.074
 5845POPC   C4B73270  20.116  33.142   7.424
 5846POPC   NC373271  12.956  13.321   5.591
 5846POPC   PO473272  12.769  12.793   5.261
 5846POPC   GL173273  12.874  12.822   5.696
 5846POPC   GL273274  13.199  12.879   5.669
 5846POPC   C1A73275  12.806  12.650   6.118
 5846POPC   D2A73276  12.637  12.827   6.495
 5846POPC   C3A73277  12.700  12.617   6.887
 5846POPC   C4A73278  12.580  12.838   7.257
 5846POPC   C1B73279  13.173  13.006   6.123
 5846POPC   C2B73280  13.133  12.906   6.566
 5846POPC   C3B73281  13.020  13.015   6.979
 5846POPC   C4B73282  13.237  13.040   7.353
 5847POPC   NC373283  13.197  14.254   5.590
 5847POPC   PO473284  12.670  14.723   5.513
 5847POPC   GL173285  12.697  14.460   5.825
 5847POPC   GL273286  12.620  14.106   5.693
 5847POPC   C1A73287  12.978  14.485   6.188
 5847POPC   D2A73288  13.047  14.227   6.554
 5847POPC   C3A73289  12.920  14.500   6.917
 5847POPC   C4A73290  12.916  14.433   7.366
 5847POPC   C1B73291  12.714  14.055   6.124
 5847POPC   C2B73292  12.596  13.822   6.436
 5847POPC   C3B73293  12.786  13.793   6.813
 5847POPC   C4B73294  12.826  13.964   7.207
 5848POPC   NC373295   5.707  12.137   5.219
 5848POPC   PO473296   6.203  11.932   5.686
 5848POPC   GL173297   5.730  11.943   5.785
 5848POPC   GL273298   5.525  12.266   5.689
 5848POPC   C1A73299   5.708  11.881   6.258
 5848POPC   D2A73300   6.075  11.815   6.575
 5848POPC   C3A73301   6.009  11.898   7.018
 5848POPC   C4A73302   5.583  11.898   7.153
 5848POPC   C1B73303   5.838  12.363   6.022
 5848POPC   C2B73304   5.941  12.327   6.440
 5848POPC   C3B73305   5.896  12.412   6.858
 5848POPC   C4B73306   5.779  12.345   7.249
 5849POPC   NC373307  27.855  25.118   5.542
 5849POPC   PO473308  27.224  25.210   5.425
 5849POPC   GL173309  27.364  25.035   5.831
 5849POPC   GL273310  27.597  25.281   5.931
 5849POPC   C1A73311  27.277  25.145   6.291
 5849POPC   D2A73312  27.434  24.996   6.702
 5849POPC   C3A73313  27.348  25.256   7.022
 5849POPC   C4A73314  27.255  25.454   7.364
 5849POPC   C1B73315  27.786  25.207   6.322
 5849POPC   C2B73316  27.748  25.437   6.705
 5849POPC   C3B73317  27.837  25.375   7.137
 5849POPC   C4B73318  27.766  25.642   7.479
 5850POPC   NC373319  20.751   6.669   5.361
 5850POPC   PO473320  20.366   7.119   5.347
 5850POPC   GL173321  20.479   6.824   5.776
 5850POPC   GL273322  20.711   6.487   5.806
 5850POPC   C1A73323  20.564   6.625   6.238
 5850POPC   D2A73324  20.700   6.731   6.642
 5850POPC   C3A73325  20.482   6.510   6.979
 5850POPC   C4A73326  20.436   6.262   7.388
 5850POPC   C1B73327  21.034   6.375   6.055
 5850POPC   C2B73328  21.125   6.397   6.481
 5850POPC   C3B73329  20.999   6.387   6.863
 5850POPC   C4B73330  20.908   6.417   7.242
 5851POPC   NC373331   3.983  20.586   5.093
 5851POPC   PO473332   4.322  20.219   5.511
 5851POPC   GL173333   4.370  20.433   5.896
 5851POPC   GL273334   4.456  20.811   5.819
 5851POPC   C1A73335   4.382  20.281   6.325
 5851POPC   D2A73336   4.357  20.508   6.736
 5851POPC   C3A73337   4.020  20.676   7.010
 5851POPC   C4A73338   3.774  20.481   7.366
 5851POPC   C1B73339   4.536  20.783   6.265
 5851POPC   C2B73340   4.692  20.929   6.661
 5851POPC   C3B73341   4.739  20.713   7.034
 5851POPC   C4B73342   4.520  20.356   7.202
 5852POPC   NC373343   2.015  44.926   5.352
 5852POPC   PO473344   1.647  44.389   5.503
 5852POPC   GL173345   1.913  44.609   5.817
 5852POPC   GL273346   2.092  44.911   5.853
 5852POPC   C1A73347   1.798  44.793   6.238
 5852POPC   D2A73348   1.579  44.842   6.626
 5852POPC   C3A73349   1.861  44.699   6.948
 5852POPC   C4A73350   1.759  44.543   7.368
 5852POPC   C1B73351   2.297   0.028   6.236
 5852POPC   C2B73352   2.396  44.940   6.663
 5852POPC   C3B73353   2.222   0.087   7.042
 5852POPC   C4B73354   1.863   0.076   7.273
 5853POPC   NC373355  25.766  44.022   5.562
 5853POPC   PO473356  25.205  43.896   5.130
 5853POPC   GL173357  25.241  43.921   5.606
 5853POPC   GL273358  24.969  43.711   5.779
 5853POPC   C1A73359  25.196  44.122   6.039
 5853POPC   D2A73360  25.072  44.019   6.468
 5853POPC   C3A73361  25.147  44.287   6.841
 5853POPC   C4A73362  25.270  44.103   7.223
 5853POPC   C1B73363  25.359  43.646   6.053
 5853POPC   C2B73364  25.377  43.539   6.474
 5853POPC   C3B73365  25.241  43.707   6.871
 5853POPC   C4B73366  25.518  43.680   7.226
 5854POPC   NC373367  25.116  18.645   5.290
 5854POPC   PO473368  25.047  18.047   5.399
 5854POPC   GL173369  25.351  18.083   5.740
 5854POPC   GL273370  25.457  18.421   5.714
 5854POPC   C1A73371  25.343  17.992   6.193
 5854POPC   D2A73372  25.428  18.216   6.599
 5854POPC   C3A73373  25.235  18.019   6.990
 5854POPC   C4A73374  25.127  18.072   7.471
 5854POPC   C1B73375  25.477  18.513   6.149
 5854POPC   C2B73376  25.541  18.760   6.524
 5854POPC   C3B73377  25.446  18.869   6.950
 5854POPC   C4B73378  25.722  18.764   7.312
 5855POPC   NC373379  37.881  27.272   5.624
 5855POPC   PO473380  37.446  27.727   5.514
 5855POPC   GL173381  37.326  27.700   5.883
 5855POPC   GL273382  37.441  27.401   5.994
 5855POPC   C1A73383  37.285  27.884   6.249
 5855POPC   D2A73384  37.494  27.730   6.530
 5855POPC   C3A73385  37.339  27.763   6.899
 5855POPC   C4A73386  37.520  27.493   7.199
 5855POPC   C1B73387  37.796  27.360   6.314
 5855POPC   C2B73388  38.020  27.366   6.728
 5855POPC   C3B73389  38.017  27.418   7.179
 5855POPC   C4B73390  38.175  27.230   7.571
 5856POPC   NC373391  19.411   8.808   5.627
 5856POPC   PO473392  18.761   8.790   5.554
 5856POPC   GL173393  18.928   8.787   5.956
 5856POPC   GL273394  19.023   9.126   5.992
 5856POPC   C1A73395  19.187   8.797   6.346
 5856POPC   D2A73396  19.006   8.921   6.742
 5856POPC   C3A73397  19.154   9.184   7.058
 5856POPC   C4A73398  19.171   8.765   7.226
 5856POPC   C1B73399  18.713   9.050   6.353
 5856POPC   C2B73400  18.424   9.300   6.609
 5856POPC   C3B73401  18.338   9.205   7.029
 5856POPC   C4B73402  18.698   9.094   7.264
 5857POPC   NC373403  23.225  44.403   5.459
 5857POPC   PO473404  22.786  44.734   5.536
 5857POPC   GL173405  23.125  44.649   5.890
 5857POPC   GL273406  23.464  44.805   5.844
 5857POPC   C1A73407  23.138  44.632   6.357
 5857POPC   D2A73408  22.875  44.412   6.643
 5857POPC   C3A73409  22.912  44.518   7.065
 5857POPC   C4A73410  22.950  44.229   7.379
 5857POPC   C1B73411  23.510  44.978   6.284
 5857POPC   C2B73412  23.385  44.921   6.749
 5857POPC   C3B73413  23.185   0.076   7.142
 5857POPC   C4B73414  22.767   0.129   7.379
 5858POPC   NC373415  44.808  43.341   5.427
 5858POPC   PO473416   0.176  42.735   5.361
 5858POPC   GL173417  44.946  42.970   5.738
 5858POPC   GL273418  44.545  43.030   5.733
 5858POPC   C1A73419  44.993  43.182   6.155
 5858POPC   D2A73420  44.741  43.248   6.502
 5858POPC   C3A73421  44.815  43.326   6.922
 5858POPC   C4A73422  44.724  43.152   7.313
 5858POPC   C1B73423  44.411  43.072   6.174
 5858POPC   C2B73424  44.223  43.298   6.552
 5858POPC   C3B73425  44.327  43.220   6.981
 5858POPC   C4B73426  44.286  43.413   7.434
 5859POPC   NC373427  11.317  24.941   5.389
 5859POPC   PO473428  11.560  25.503   5.216
 5859POPC   GL173429  11.506  25.365   5.658
 5859POPC   GL273430  11.575  25.709   5.726
 5859POPC   C1A73431  11.368  25.090   6.062
 5859POPC   D2A73432  11.413  24.927   6.501
 5859POPC   C3A73433  11.119  25.104   6.813
 5859POPC   C4A73434  10.955  25.385   7.133
 5859POPC   C1B73435  11.423  25.597   6.114
 5859POPC   C2B73436  11.273  25.481   6.500
 5859POPC   C3B73437  11.377  25.573   6.919
 5859POPC   C4B73438  11.267  25.779   7.296
 5860POPC   NC373439  20.474   5.708   5.362
 5860POPC   PO473440  20.352   6.397   5.453
 5860POPC   GL173441  20.333   6.142   5.832
 5860POPC   GL273442  20.380   5.815   5.838
 5860POPC   C1A73443  20.598   6.074   6.221
 5860POPC   D2A73444  20.837   5.974   6.599
 5860POPC   C3A73445  20.641   6.021   6.995
 5860POPC   C4A73446  20.839   5.966   7.423
 5860POPC   C1B73447  20.352   5.564   6.195
 5860POPC   C2B73448  20.375   5.745   6.596
 5860POPC   C3B73449  20.325   5.588   6.989
 5860POPC   C4B73450  20.409   5.711   7.400
 5861POPC   NC373451  43.241   3.413   5.560
 5861POPC   PO473452  42.723   3.748   5.376
 5861POPC   GL173453  42.859   3.588   5.825
 5861POPC   GL273454  42.666   3.351   5.982
 5861POPC   C1A73455  43.182   3.633   6.208
 5861POPC   D2A73456  43.399   3.478   6.605
 5861POPC   C3A73457  43.341   3.656   7.034
 5861POPC   C4A73458  43.182   3.616   7.472
 5861POPC   C1B73459  42.729   3.131   6.351
 5861POPC   C2B73460  42.894   3.362   6.682
 5861POPC   C3B73461  42.854   3.452   7.097
 5861POPC   C4B73462  42.888   3.074   7.317
 5862POPC   NC373463  24.877  36.384   5.416
 5862POPC   PO473464  25.436  36.054   5.537
 5862POPC   GL173465  25.116  35.952   5.870
 5862POPC   GL273466  24.882  36.242   5.912
 5862POPC   C1A73467  25.060  35.995   6.348
 5862POPC   D2A73468  25.062  35.885   6.813
 5862POPC   C3A73469  25.389  35.987   7.128
 5862POPC   C4A73470  25.214  36.131   7.508
 5862POPC   C1B73471  24.828  36.518   6.296
 5862POPC   C2B73472  24.883  36.588   6.749
 5862POPC   C3B73473  25.048  36.371   7.072
 5862POPC   C4B73474  25.435  36.516   7.265
 5863POPC   NC373475  35.820   7.878   5.431
 5863POPC   PO473476  35.505   8.479   5.356
 5863POPC   GL173477  35.443   8.144   5.656
 5863POPC   GL273478  35.730   8.269   5.824
 5863POPC   C1A73479  35.271   8.180   6.082
 5863POPC   D2A73480  34.964   8.221   6.424
 5863POPC   C3A73481  35.120   8.168   6.850
 5863POPC   C4A73482  35.304   8.275   7.262
 5863POPC   C1B73483  35.840   8.038   6.194
 5863POPC   C2B73484  35.767   8.067   6.619
 5863POPC   C3B73485  35.789   8.317   6.963
 5863POPC   C4B73486  35.763   8.053   7.283
 5864POPC   NC373487   1.889  38.707   5.410
 5864POPC   PO473488   1.678  38.210   5.785
 5864POPC   GL173489   1.799  38.618   5.929
 5864POPC   GL273490   2.167  38.657   5.834
 5864POPC   C1A73491   1.703  38.609   6.363
 5864POPC   D2A73492   1.855  38.281   6.618
 5864POPC   C3A73493   2.013  38.438   6.987
 5864POPC   C4A73494   1.994  38.296   7.390
 5864POPC   C1B73495   2.201  38.503   6.259
 5864POPC   C2B73496   2.149  38.764   6.609
 5864POPC   C3B73497   2.356  38.888   6.971
 5864POPC   C4B73498   2.265  38.723   7.366
 5865POPC   NC373499   2.624  19.526   5.337
 5865POPC   PO473500   2.988  18.819   5.398
 5865POPC   GL173501   2.784  18.902   5.752
 5865POPC   GL273502   2.570  19.097   5.577
 5865POPC   C1A73503   2.733  18.829   6.187
 5865POPC   D2A73504   2.836  19.112   6.542
 5865POPC   C3A73505   2.790  18.920   6.935
 5865POPC   C4A73506   2.602  18.962   7.304
 5865POPC   C1B73507   2.480  19.237   6.016
 5865POPC   C2B73508   2.338  19.102   6.432
 5865POPC   C3B73509   2.396  19.248   6.864
 5865POPC   C4B73510   2.416  19.506   7.231
 5866POPC   NC373511  36.268  37.077   5.540
 5866POPC   PO473512  35.919  36.563   5.407
 5866POPC   GL173513  35.797  36.791   5.814
 5866POPC   GL273514  36.035  37.032   6.002
 5866POPC   C1A73515  35.810  36.644   6.242
 5866POPC   D2A73516  36.140  36.810   6.485
 5866POPC   C3A73517  35.977  36.803   6.881
 5866POPC   C4A73518  36.227  36.760   7.200
 5866POPC   C1B73519  35.963  37.431   6.246
 5866POPC   C2B73520  36.025  37.492   6.695
 5866POPC   C3B73521  36.161  37.264   7.049
 5866POPC   C4B73522  36.306  37.162   7.477
 5867POPC   NC373523  23.053  25.713   5.470
 5867POPC   PO473524  23.007  24.960   5.442
 5867POPC   GL173525  23.061  25.256   5.799
 5867POPC   GL273526  22.853  25.001   5.953
 5867POPC   C1A73527  22.908  25.461   6.227
 5867POPC   D2A73528  22.711  25.551   6.639
 5867POPC   C3A73529  22.666  25.240   6.965
 5867POPC   C4A73530  22.945  25.510   7.169
 5867POPC   C1B73531  23.201  25.045   6.242
 5867POPC   C2B73532  23.068  25.131   6.649
 5867POPC   C3B73533  23.195  25.044   7.055
 5867POPC   C4B73534  23.318  24.819   7.418
 5868POPC   NC373535  11.624   6.267   5.417
 5868POPC   PO473536  12.263   5.997   5.367
 5868POPC   GL173537  12.096   5.922   5.757
 5868POPC   GL273538  12.392   5.706   5.808
 5868POPC   C1A73539  11.841   5.788   6.115
 5868POPC   D2A73540  11.973   5.712   6.560
 5868POPC   C3A73541  11.991   5.878   6.991
 5868POPC   C4A73542  11.983   6.076   7.398
 5868POPC   C1B73543  12.347   5.835   6.213
 5868POPC   C2B73544  12.462   5.866   6.622
 5868POPC   C3B73545  12.538   5.695   6.997
 5868POPC   C4B73546  12.430   5.832   7.402
 5869POPC   NC373547  37.989  41.579   5.256
 5869POPC   PO473548  38.615  41.407   5.375
 5869POPC   GL173549  38.506  41.602   5.721
 5869POPC   GL273550  38.339  41.304   5.854
 5869POPC   C1A73551  38.300  41.761   6.095
 5869POPC   D2A73552  38.024  41.444   6.302
 5869POPC   C3A73553  38.071  41.483   6.737
 5869POPC   C4A73554  38.278  41.581   7.098
 5869POPC   C1B73555  38.699  41.139   6.106
 5869POPC   C2B73556  38.867  41.296   6.491
 5869POPC   C3B73557  38.676  41.369   6.861
 5869POPC   C4B73558  38.674  41.239   7.266
 5870POPC   NC373559  14.981   8.393   5.326
 5870POPC   PO473560  15.242   7.766   5.424
 5870POPC   GL173561  15.152   7.892   5.862
 5870POPC   GL273562  15.070   8.259   5.839
 5870POPC   C1A73563  15.091   8.045   6.304
 5870POPC   D2A73564  14.795   8.299   6.532
 5870POPC   C3A73565  14.785   8.153   6.950
 5870POPC   C4A73566  15.091   7.915   7.125
 5870POPC   C1B73567  15.410   8.404   6.142
 5870POPC   C2B73568  15.440   8.493   6.609
 5870POPC   C3B73569  15.338   8.395   7.055
 5870POPC   C4B73570  15.435   8.488   7.507
 5871POPC   NC373571  15.022  34.244   5.465
 5871POPC   PO473572  15.510  34.675   5.424
 5871POPC   GL173573  15.409  34.766   5.870
 5871POPC   GL273574  15.212  34.452   5.899
 5871POPC   C1A73575  15.264  34.824   6.329
 5871POPC   D2A73576  14.828  34.810   6.577
 5871POPC   C3A73577  14.901  34.608   6.990
 5871POPC   C4A73578  15.227  34.875   7.129
 5871POPC   C1B73579  14.928  34.431   6.255
 5871POPC   C2B73580  15.166  34.388   6.614
 5871POPC   C3B73581  15.435  34.458   6.944
 5871POPC   C4B73582  15.399  34.473   7.390
 5872POPC   NC373583  17.832  35.593   5.441
 5872POPC   PO473584  17.826  34.873   5.286
 5872POPC   GL173585  17.585  35.105   5.717
 5872POPC   GL273586  17.551  35.472   5.848
 5872POPC   C1A73587  17.479  35.136   6.215
 5872POPC   D2A73588  17.323  35.335   6.636
 5872POPC   C3A73589  17.619  35.522   6.941
 5872POPC   C4A73590  17.742  35.285   7.331
 5872POPC   C1B73591  17.327  35.661   6.223
 5872POPC   C2B73592  17.259  35.846   6.648
 5872POPC   C3B73593  17.091  35.651   7.005
 5872POPC   C4B73594  17.232  35.243   7.158
 5873POPC   NC373595  15.997  14.452   5.403
 5873POPC   PO473596  16.610  14.853   5.488
 5873POPC   GL173597  16.290  14.602   5.807
 5873POPC   GL273598  15.888  14.518   5.907
 5873POPC   C1A73599  16.237  14.334   6.197
 5873POPC   D2A73600  15.905  14.469   6.470
 5873POPC   C3A73601  15.875  14.372   6.885
 5873POPC   C4A73602  16.013  14.503   7.294
 5873POPC   C1B73603  15.760  14.113   6.115
 5873POPC   C2B73604  15.591  14.004   6.519
 5873POPC   C3B73605  15.421  14.170   6.893
 5873POPC   C4B73606  15.559  14.180   7.329
 5874POPC   NC373607  11.797  34.243   5.455
 5874POPC   PO473608  12.391  34.488   5.119
 5874POPC   GL173609  12.170  34.582   5.602
 5874POPC   GL273610  12.128  34.288   5.857
 5874POPC   C1A73611  12.045  34.719   6.088
 5874POPC   D2A73612  12.181  34.655   6.493
 5874POPC   C3A73613  12.055  34.809   6.875
 5874POPC   C4A73614  12.282  34.502   7.130
 5874POPC   C1B73615  11.846  34.296   6.258
 5874POPC   C2B73616  11.736  34.420   6.678
 5874POPC   C3B73617  11.766  34.467   7.128
 5874POPC   C4B73618  11.583  34.458   7.532
 5875POPC   NC373619   7.638  16.338   5.533
 5875POPC   PO473620   7.364  16.993   5.331
 5875POPC   GL173621   7.350  16.752   5.787
 5875POPC   GL273622   7.246  16.399   5.876
 5875POPC   C1A73623   7.537  16.873   6.234
 5875POPC   D2A73624   7.721  16.753   6.665
 5875POPC   C3A73625   7.579  16.991   7.057
 5875POPC   C4A73626   7.783  17.257   7.436
 5875POPC   C1B73627   7.129  16.560   6.284
 5875POPC   C2B73628   7.231  16.639   6.709
 5875POPC   C3B73629   7.508  16.420   6.995
 5875POPC   C4B73630   7.383  16.181   7.343
 5876POPC   NC373631   8.367  23.280   5.517
 5876POPC   PO473632   8.249  22.603   5.409
 5876POPC   GL173633   8.163  22.838   5.758
 5876POPC   GL273634   8.507  22.898   5.881
 5876POPC   C1A73635   7.904  22.873   6.127
 5876POPC   D2A73636   8.132  22.961   6.511
 5876POPC   C3A73637   7.900  22.928   6.892
 5876POPC   C4A73638   8.006  22.876   7.303
 5876POPC   C1B73639   8.543  23.269   6.151
 5876POPC   C2B73640   8.659  23.367   6.554
 5876POPC   C3B73641   8.466  23.146   6.865
 5876POPC   C4B73642   8.482  23.044   7.268
 5877POPC   NC373643  26.043  44.774   5.449
 5877POPC   PO473644  26.187  44.093   5.359
 5877POPC   GL173645  26.203  44.348   5.771
 5877POPC   GL273646  26.086  44.701   5.939
 5877POPC   C1A73647  26.031  44.284   6.215
 5877POPC   D2A73648  25.973  44.598   6.544
 5877POPC   C3A73649  26.056  44.443   6.939
 5877POPC   C4A73650  26.113  44.568   7.335
 5877POPC   C1B73651  26.251  44.968   6.264
 5877POPC   C2B73652  26.131   0.093   6.687
 5877POPC   C3B73653  25.901  44.972   7.081
 5877POPC   C4B73654  25.958  44.994   7.547
 5878POPC   NC373655  34.021  39.049   5.569
 5878POPC   PO473656  33.560  39.555   5.358
 5878POPC   GL173657  33.610  39.316   5.715
 5878POPC   GL273658  33.878  39.496   5.849
 5878POPC   C1A73659  33.601  39.124   6.134
 5878POPC   D2A73660  33.833  39.172   6.525
 5878POPC   C3A73661  33.599  39.050   6.882
 5878POPC   C4A73662  33.425  39.225   7.238
 5878POPC   C1B73663  34.093  39.644   6.198
 5878POPC   C2B73664  34.184  39.578   6.616
 5878POPC   C3B73665  34.052  39.370   6.967
 5878POPC   C4B73666  33.918  39.101   7.286
 5879POPC   NC373667  13.421  37.262   5.412
 5879POPC   PO473668  13.866  36.777   5.201
 5879POPC   GL173669  13.729  36.819   5.658
 5879POPC   GL273670  13.979  37.004   5.789
 5879POPC   C1A73671  13.441  36.893   6.060
 5879POPC   D2A73672  13.420  37.081   6.509
 5879POPC   C3A73673  13.356  36.844   6.922
 5879POPC   C4A73674  13.443  37.038   7.319
 5879POPC   C1B73675  13.880  37.109   6.203
 5879POPC   C2B73676  13.921  36.970   6.593
 5879POPC   C3B73677  13.793  37.094   6.962
 5879POPC   C4B73678  13.945  36.860   7.331
 5880POPC   NC373679  25.487  41.755   5.425
 5880POPC   PO473680  24.881  41.507   5.543
 5880POPC   GL173681  25.083  41.850   5.835
 5880POPC   GL273682  25.449  41.918   5.906
 5880POPC   C1A73683  25.122  41.829   6.295
 5880POPC   D2A73684  25.236  41.765   6.732
 5880POPC   C3A73685  25.195  41.356   6.905
 5880POPC   C4A73686  25.156  41.462   7.306
 5880POPC   C1B73687  25.724  41.632   6.173
 5880POPC   C2B73688  25.682  41.513   6.633
 5880POPC   C3B73689  25.625  41.568   7.088
 5880POPC   C4B73690  25.608  41.314   7.479
 5881POPC   NC373691  10.158  11.174   5.406
 5881POPC   PO473692  10.817  10.942   5.590
 5881POPC   GL173693  10.442  11.045   5.823
 5881POPC   GL273694  10.355  11.405   5.855
 5881POPC   C1A73695  10.365  11.065   6.264
 5881POPC   D2A73696  10.719  11.176   6.542
 5881POPC   C3A73697  10.542  11.052   6.951
 5881POPC   C4A73698  10.688  11.190   7.333
 5881POPC   C1B73699  10.473  11.567   6.263
 5881POPC   C2B73700  10.329  11.446   6.677
 5881POPC   C3B73701  10.474  11.558   7.059
 5881POPC   C4B73702  10.326  11.733   7.418
 5882POPC   NC373703  37.168  40.923   5.468
 5882POPC   PO473704  36.526  40.963   5.683
 5882POPC   GL173705  36.843  40.736   5.875
 5882POPC   GL273706  37.140  40.913   5.981
 5882POPC   C1A73707  36.834  40.717   6.334
 5882POPC   D2A73708  36.846  41.000   6.702
 5882POPC   C3A73709  36.692  40.747   7.058
 5882POPC   C4A73710  36.679  40.713   7.498
 5882POPC   C1B73711  37.337  40.825   6.387
 5882POPC   C2B73712  37.262  40.413   6.591
 5882POPC   C3B73713  37.354  40.362   7.006
 5882POPC   C4B73714  37.223  40.769   7.253
 5883POPC   NC373715   5.333   3.157   5.413
 5883POPC   PO473716   5.296   3.832   5.445
 5883POPC   GL173717   5.284   3.697   5.880
 5883POPC   GL273718   5.414   3.406   5.850
 5883POPC   C1A73719   5.047   3.463   6.225
 5883POPC   D2A73720   4.913   3.628   6.627
 5883POPC   C3A73721   4.775   3.383   6.962
 5883POPC   C4A73722   4.854   3.404   7.348
 5883POPC   C1B73723   5.563   3.379   6.239
 5883POPC   C2B73724   5.363   3.365   6.649
 5883POPC   C3B73725   5.285   3.489   7.069
 5883POPC   C4B73726   5.318   3.244   7.452
 5884POPC   NC373727  29.669  12.786   5.628
 5884POPC   PO473728  30.351  12.690   5.426
 5884POPC   GL173729  30.152  12.693   5.823
 5884POPC   GL273730  30.111  13.051   5.757
 5884POPC   C1A73731  29.895  12.683   6.221
 5884POPC   D2A73732  29.633  12.687   6.583
 5884POPC   C3A73733  29.873  12.808   6.921
 5884POPC   C4A73734  29.904  12.545   7.256
 5884POPC   C1B73735  30.177  13.098   6.188
 5884POPC   C2B73736  30.264  13.011   6.606
 5884POPC   C3B73737  30.407  12.833   6.968
 5884POPC   C4B73738  30.192  12.974   7.305
 5885POPC   NC373739  27.244  17.792   5.081
 5885POPC   PO473740  27.305  17.210   5.344
 5885POPC   GL173741  27.403  17.450   5.736
 5885POPC   GL273742  27.599  17.779   5.802
 5885POPC   C1A73743  27.531  17.405   6.155
 5885POPC   D2A73744  27.653  17.531   6.532
 5885POPC   C3A73745  27.296  17.635   6.763
 5885POPC   C4A73746  27.342  17.627   7.220
 5885POPC   C1B73747  27.430  17.906   6.228
 5885POPC   C2B73748  27.670  18.050   6.597
 5885POPC   C3B73749  27.795  18.023   7.035
 5885POPC   C4B73750  27.588  18.104   7.437
 5886POPC   NC373751  32.861  20.079   5.615
 5886POPC   PO473752  33.375  19.799   5.345
 5886POPC   GL173753  33.159  19.657   5.710
 5886POPC   GL273754  33.299  19.958   5.848
 5886POPC   C1A73755  32.930  19.712   6.134
 5886POPC   D2A73756  32.897  19.982   6.503
 5886POPC   C3A73757  32.848  19.756   6.909
 5886POPC   C4A73758  32.960  19.527   7.278
 5886POPC   C1B73759  33.500  20.224   6.134
 5886POPC   C2B73760  33.323  20.342   6.537
 5886POPC   C3B73761  33.258  20.094   6.880
 5886POPC   C4B73762  33.326  19.869   7.240
 5887POPC   NC373763  32.216  30.238   5.414
 5887POPC   PO473764  32.171  29.522   5.468
 5887POPC   GL173765  32.344  29.704   5.823
 5887POPC   GL273766  32.279  30.057   5.881
 5887POPC   C1A73767  32.171  29.691   6.243
 5887POPC   D2A73768  32.187  29.901   6.625
 5887POPC   C3A73769  32.293  29.710   6.971
 5887POPC   C4A73770  32.462  29.946   7.279
 5887POPC   C1B73771  32.211  30.263   6.276
 5887POPC   C2B73772  32.183  30.432   6.671
 5887POPC   C3B73773  32.286  30.381   7.105
 5887POPC   C4B73774  32.156  30.371   7.546
 5888POPC   NC373775  31.208  24.847   5.459
 5888POPC   PO473776  31.493  25.536   5.395
 5888POPC   GL173777  31.309  25.283   5.702
 5888POPC   GL273778  31.612  25.129   5.863
 5888POPC   C1A73779  31.160  25.084   6.098
 5888POPC   D2A73780  31.450  25.189   6.414
 5888POPC   C3A73781  31.350  25.142   6.832
 5888POPC   C4A73782  31.288  25.005   7.270
 5888POPC   C1B73783  31.927  25.069   6.204
 5888POPC   C2B73784  31.868  25.010   6.649
 5888POPC   C3B73785  31.791  25.139   7.064
 5888POPC   C4B73786  31.899  24.834   7.315
 5889POPC   NC373787  37.554  44.030   5.340
 5889POPC   PO473788  38.140  43.810   5.308
 5889POPC   GL173789  37.813  43.713   5.667
 5889POPC   GL273790  37.650  44.005   5.828
 5889POPC   C1A73791  37.585  43.578   6.065
 5889POPC   D2A73792  37.687  43.747   6.474
 5889POPC   C3A73793  37.604  43.630   6.883
 5889POPC   C4A73794  37.747  43.736   7.270
 5889POPC   C1B73795  37.411  44.064   6.201
 5889POPC   C2B73796  37.239  43.954   6.628
 5889POPC   C3B73797  37.267  43.984   7.084
 5889POPC   C4B73798  37.287  43.798   7.466
 5890POPC   NC373799  34.859   7.321   5.446
 5890POPC   PO473800  34.504   7.853   5.352
 5890POPC   GL173801  34.570   7.625   5.779
 5890POPC   GL273802  34.483   7.270   5.814
 5890POPC   C1A73803  34.436   7.545   6.254
 5890POPC   D2A73804  34.472   7.383   6.686
 5890POPC   C3A73805  34.248   7.211   7.043
 5890POPC   C4A73806  34.472   7.433   7.366
 5890POPC   C1B73807  34.842   7.224   6.137
 5890POPC   C2B73808  34.864   7.047   6.575
 5890POPC   C3B73809  34.763   7.128   7.036
 5890POPC   C4B73810  34.867   7.151   7.490
 5891POPC   NC373811   6.678   2.220   5.437
 5891POPC   PO473812   6.905   1.566   5.371
 5891POPC   GL173813   6.761   1.839   5.753
 5891POPC   GL273814   6.381   1.871   5.723
 5891POPC   C1A73815   6.758   2.119   6.125
 5891POPC   D2A73816   6.607   2.239   6.538
 5891POPC   C3A73817   6.694   1.993   6.910
 5891POPC   C4A73818   6.959   2.078   7.271
 5891POPC   C1B73819   6.238   2.082   6.121
 5891POPC   C2B73820   6.204   1.916   6.552
 5891POPC   C3B73821   6.254   1.739   6.934
 5891POPC   C4B73822   6.382   1.931   7.295
 5892POPC   NC373823  24.969   2.113   5.509
 5892POPC   PO473824  25.598   1.748   5.539
 5892POPC   GL173825  25.344   1.909   5.867
 5892POPC   GL273826  25.005   1.743   5.861
 5892POPC   C1A73827  25.445   2.262   6.186
 5892POPC   D2A73828  25.410   2.364   6.640
 5892POPC   C3A73829  25.436   2.006   6.885
 5892POPC   C4A73830  25.664   1.896   7.285
 5892POPC   C1B73831  24.969   2.061   6.191
 5892POPC   C2B73832  24.867   2.101   6.596
 5892POPC   C3B73833  24.968   2.243   6.950
 5892POPC   C4B73834  25.168   2.104   7.296
 5893POPC   NC373835  36.805   5.571   5.187
 5893POPC   PO473836  36.716   4.971   5.405
 5893POPC   GL173837  36.961   5.207   5.651
 5893POPC   GL273838  36.734   5.395   5.721
 5893POPC   C1A73839  37.042   5.111   6.093
 5893POPC   D2A73840  36.989   4.875   6.481
 5893POPC   C3A73841  36.970   5.072   6.892
 5893POPC   C4A73842  37.077   4.943   7.303
 5893POPC   C1B73843  36.587   5.352   6.137
 5893POPC   C2B73844  36.591   5.231   6.571
 5893POPC   C3B73845  36.611   5.425   6.989
 5893POPC   C4B73846  36.578   5.092   7.284
 5894POPC   NC373847  32.001   4.646   5.293
 5894POPC   PO473848  32.268   4.030   5.479
 5894POPC   GL173849  32.112   4.198   5.816
 5894POPC   GL273850  32.312   4.484   5.730
 5894POPC   C1A73851  32.063   4.095   6.256
 5894POPC   D2A73852  31.887   4.178   6.656
 5894POPC   C3A73853  32.194   4.069   6.936
 5894POPC   C4A73854  32.313   4.137   7.326
 5894POPC   C1B73855  32.165   4.581   6.159
 5894POPC   C2B73856  32.117   4.640   6.577
 5894POPC   C3B73857  32.357   4.540   6.924
 5894POPC   C4B73858  32.221   4.647   7.298
 5895POPC   NC373859  22.318  22.253   5.447
 5895POPC   PO473860  21.630  22.129   5.465
 5895POPC   GL173861  21.928  22.248   5.817
 5895POPC   GL273862  22.292  22.361   5.920
 5895POPC   C1A73863  21.935  22.225   6.250
 5895POPC   D2A73864  21.940  21.963   6.561
 5895POPC   C3A73865  22.040  22.239   6.875
 5895POPC   C4A73866  21.949  22.209   7.295
 5895POPC   C1B73867  22.596  22.503   6.189
 5895POPC   C2B73868  22.430  22.390   6.560
 5895POPC   C3B73869  22.498  22.468   6.983
 5895POPC   C4B73870  22.437  22.110   7.216
 5896POPC   NC373871  26.144  22.510   5.586
 5896POPC   PO473872  26.376  23.186   5.529
 5896POPC   GL173873  26.186  22.973   5.868
 5896POPC   GL273874  25.801  23.032   5.922
 5896POPC   C1A73875  26.165  23.123   6.298
 5896POPC   D2A73876  26.042  23.109   6.735
 5896POPC   C3A73877  26.313  23.019   7.068
 5896POPC   C4A73878  26.134  22.823   7.430
 5896POPC   C1B73879  25.919  22.676   6.200
 5896POPC   C2B73880  26.037  22.577   6.646
 5896POPC   C3B73881  25.857  22.718   7.009
 5896POPC   C4B73882  25.642  22.777   7.331
 5897POPC   NC373883   3.660  32.580   5.592
 5897POPC   PO473884   3.404  32.021   5.326
 5897POPC   GL173885   3.464  32.100   5.786
 5897POPC   GL273886   3.186  31.877   5.857
 5897POPC   C1A73887   3.670  32.327   6.196
 5897POPC   D2A73888   3.726  32.619   6.581
 5897POPC   C3A73889   3.816  32.406   6.969
 5897POPC   C4A73890   3.728  31.987   7.137
 5897POPC   C1B73891   3.189  32.112   6.270
 5897POPC   C2B73892   3.294  32.175   6.733
 5897POPC   C3B73893   3.201  32.305   7.173
 5897POPC   C4B73894   3.204  32.221   7.631
 5898POPC   NC373895  22.574  12.800   5.235
 5898POPC   PO473896  22.120  13.265   5.178
 5898POPC   GL173897  22.217  13.037   5.580
 5898POPC   GL273898  22.295  13.263   5.840
 5898POPC   C1A73899  22.152  12.774   5.987
 5898POPC   D2A73900  21.998  12.741   6.454
 5898POPC   C3A73901  22.104  12.727   6.922
 5898POPC   C4A73902  21.877  12.726   7.334
 5898POPC   C1B73903  22.146  13.214   6.270
 5898POPC   C2B73904  22.359  13.069   6.654
 5898POPC   C3B73905  22.325  13.143   7.116
 5898POPC   C4B73906  22.287  12.990   7.546
 5899POPC   NC373907  32.994  37.479   5.312
 5899POPC   PO473908  33.437  37.954   5.337
 5899POPC   GL173909  33.150  37.798   5.704
 5899POPC   GL273910  32.770  37.766   5.684
 5899POPC   C1A73911  33.085  37.642   6.138
 5899POPC   D2A73912  33.310  37.603   6.532
 5899POPC   C3A73913  33.155  37.724   6.895
 5899POPC   C4A73914  33.022  37.566   7.279
 5899POPC   C1B73915  32.620  37.891   6.103
 5899POPC   C2B73916  32.801  37.902   6.547
 5899POPC   C3B73917  32.674  37.827   7.015
 5899POPC   C4B73918  32.870  38.002   7.450
 5900POPC   NC373919  42.392  21.871   5.470
 5900POPC   PO473920  42.227  22.555   5.526
 5900POPC   GL173921  42.237  22.216   5.828
 5900POPC   GL273922  42.552  22.050   5.926
 5900POPC   C1A73923  42.175  22.089   6.255
 5900POPC   D2A73924  42.321  22.264   6.637
 5900POPC   C3A73925  42.126  22.002   6.961
 5900POPC   C4A73926  42.447  21.889   7.191
 5900POPC   C1B73927  42.569  22.460   6.162
 5900POPC   C2B73928  42.783  22.587   6.544
 5900POPC   C3B73929  42.738  22.355   6.925
 5900POPC   C4B73930  42.373  22.391   7.188
 5901POPC   NC373931  23.635   6.468   5.222
 5901POPC   PO473932  23.995   6.998   5.357
 5901POPC   GL173933  23.745   6.704   5.691
 5901POPC   GL273934  23.580   6.341   5.710
 5901POPC   C1A73935  23.841   6.580   6.127
 5901POPC   D2A73936  23.997   6.407   6.528
 5901POPC   C3A73937  23.909   6.652   6.903
 5901POPC   C4A73938  23.764   6.530   7.304
 5901POPC   C1B73939  23.350   6.400   6.098
 5901POPC   C2B73940  23.438   6.560   6.466
 5901POPC   C3B73941  23.435   6.495   6.889
 5901POPC   C4B73942  23.369   6.818   7.157
 5902POPC   NC373943  22.899  28.793   5.326
 5902POPC   PO473944  23.066  28.169   5.193
 5902POPC   GL173945  22.972  28.142   5.687
 5902POPC   GL273946  22.815  28.460   5.798
 5902POPC   C1A73947  23.154  28.227   6.123
 5902POPC   D2A73948  23.122  28.480   6.519
 5902POPC   C3A73949  23.035  28.236   6.907
 5902POPC   C4A73950  23.173  28.045   7.289
 5902POPC   C1B73951  22.655  28.404   6.260
 5902POPC   C2B73952  22.602  28.558   6.711
 5902POPC   C3B73953  22.697  28.516   7.169
 5902POPC   C4B73954  22.758  28.245   7.537
 5903POPC   NC373955  42.056  35.558   5.279
 5903POPC   PO473956  42.333  34.947   5.242
 5903POPC   GL173957  42.421  35.112   5.667
 5903POPC   GL273958  42.405  35.504   5.706
 5903POPC   C1A73959  42.239  35.187   6.092
 5903POPC   D2A73960  42.106  35.068   6.499
 5903POPC   C3A73961  42.347  35.098   6.857
 5903POPC   C4A73962  42.139  35.195   7.231
 5903POPC   C1B73963  42.437  35.655   6.165
 5903POPC   C2B73964  42.424  35.551   6.598
 5903POPC   C3B73965  42.629  35.507   6.969
 5903POPC   C4B73966  42.628  35.256   7.336
 5904POPC   NC373967  13.315  33.183   5.454
 5904POPC   PO473968  13.868  32.798   5.562
 5904POPC   GL173969  13.666  33.038   5.834
 5904POPC   GL273970  13.410  32.850   5.903
 5904POPC   C1A73971  13.785  33.143   6.238
 5904POPC   D2A73972  13.661  33.012   6.634
 5904POPC   C3A73973  13.779  33.203   6.995
 5904POPC   C4A73974  13.765  33.004   7.397
 5904POPC   C1B73975  13.300  32.962   6.282
 5904POPC   C2B73976  13.101  32.986   6.676
 5904POPC   C3B73977  13.309  33.004   7.056
 5904POPC   C4B73978  13.363  33.402   7.242
 5905POPC   NC373979  41.559  10.904   5.153
 5905POPC   PO473980  41.774  10.305   5.408
 5905POPC   GL173981  41.612  10.605   5.691
 5905POPC   GL273982  41.496  10.330   5.847
 5905POPC   C1A73983  41.768  10.658   6.140
 5905POPC   D2A73984  41.718  10.822   6.565
 5905POPC   C3A73985  41.870  10.646   6.967
 5905POPC   C4A73986  41.757  10.866   7.344
 5905POPC   C1B73987  41.338  10.313   6.224
 5905POPC   C2B73988  41.429  10.378   6.635
 5905POPC   C3B73989  41.116  10.382   6.947
 5905POPC   C4B73990  41.317  10.301   7.291
 5906POPC   NC373991  18.154  34.239   5.487
 5906POPC   PO473992  17.961  34.746   5.790
 5906POPC   GL173993  18.413  34.708   5.911
 5906POPC   GL273994  18.607  34.450   5.763
 5906POPC   C1A73995  18.557  34.722   6.306
 5906POPC   D2A73996  18.304  34.849   6.635
 5906POPC   C3A73997  18.507  34.839   6.990
 5906POPC   C4A73998  18.356  34.578   7.280
 5906POPC   C1B73999  18.402  34.231   6.130
 5906POPC   C2B74000  18.273  34.338   6.548
 5906POPC   C3B74001  18.137  34.252   6.962
 5906POPC   C4B74002  18.355  34.067   7.309
 5907POPC   NC374003  33.858  31.495   5.307
 5907POPC   PO474004  33.441  31.020   5.428
 5907POPC   GL174005  33.515  31.425   5.707
 5907POPC   GL274006  33.867  31.550   5.798
 5907POPC   C1A74007  33.481  31.728   6.074
 5907POPC   D2A74008  33.488  31.568   6.520
 5907POPC   C3A74009  33.689  31.679   6.932
 5907POPC   C4A74010  33.746  31.500   7.360
 5907POPC   C1B74011  33.842  31.351   6.202
 5907POPC   C2B74012  34.009  31.459   6.607
 5907POPC   C3B74013  34.202  31.545   7.000
 5907POPC   C4B74014  34.146  31.180   7.234
 5908POPC   NC374015   6.438  42.412   5.188
 5908POPC   PO474016   7.069  42.348   5.389
 5908POPC   GL174017   6.685  42.282   5.661
 5908POPC   GL274018   6.739  42.023   5.921
 5908POPC   C1A74019   6.545  42.472   6.078
 5908POPC   D2A74020   6.760  42.626   6.494
 5908POPC   C3A74021   6.592  42.447   6.904
 5908POPC   C4A74022   6.527  42.606   7.290
 5908POPC   C1B74023   7.005  42.267   6.238
 5908POPC   C2B74024   7.021  42.235   6.719
 5908POPC   C3B74025   6.865  42.064   7.126
 5908POPC   C4B74026   7.078  41.972   7.526
 5909POPC   NC374027   1.031   0.480   5.416
 5909POPC   PO474028   1.622   0.731   5.634
 5909POPC   GL174029   1.260   0.565   5.867
 5909POPC   GL274030   1.005   0.812   5.798
 5909POPC   C1A74031   1.119   0.312   6.233
 5909POPC   D2A74032   0.795   0.208   6.540
 5909POPC   C3A74033   0.946   0.199   6.975
 5909POPC   C4A74034   1.390   0.017   7.086
 5909POPC   C1B74035   1.195   0.925   6.220
 5909POPC   C2B74036   1.400   0.988   6.617
 5909POPC   C3B74037   1.153   0.996   6.975
 5909POPC   C4B74038   1.110   0.639   7.147
 5910POPC   NC374039  14.799  44.781   5.429
 5910POPC   PO474040  15.427  44.565   5.474
 5910POPC   GL174041  15.209  44.754   5.803
 5910POPC   GL274042  14.860  44.762   5.926
 5910POPC   C1A74043  15.245  44.826   6.231
 5910POPC   D2A74044  15.058  44.879   6.614
 5910POPC   C3A74045  15.282  44.709   6.943
 5910POPC   C4A74046  15.185  44.763   7.335
 5910POPC   C1B74047  14.624  44.398   6.103
 5910POPC   C2B74048  14.699  44.220   6.492
 5910POPC   C3B74049  14.822  44.472   6.869
 5910POPC   C4B74050  14.742  44.528   7.280
 5911POPC   NC374051  40.287  23.680   5.374
 5911POPC   PO474052  39.772  24.103   5.415
 5911POPC   GL174053  39.945  23.892   5.816
 5911POPC   GL274054  40.289  23.730   5.867
 5911POPC   C1A74055  40.024  23.849   6.277
 5911POPC   D2A74056  40.065  23.603   6.653
 5911POPC   C3A74057  40.159  23.849   7.027
 5911POPC   C4A74058  40.037  23.619   7.441
 5911POPC   C1B74059  40.328  23.408   6.190
 5911POPC   C2B74060  40.483  23.295   6.612
 5911POPC   C3B74061  40.389  23.409   7.041
 5911POPC   C4B74062  40.480  23.397   7.481
 5912POPC   NC374063  28.434  43.767   5.318
 5912POPC   PO474064  28.196  44.317   5.481
 5912POPC   GL174065  28.249  43.921   5.770
 5912POPC   GL274066  28.580  43.749   5.809
 5912POPC   C1A74067  28.241  43.786   6.198
 5912POPC   D2A74068  28.252  44.143   6.479
 5912POPC   C3A74069  28.150  44.035   6.907
 5912POPC   C4A74070  28.306  43.801   7.281
 5912POPC   C1B74071  28.659  44.050   6.153
 5912POPC   C2B74072  28.666  43.877   6.573
 5912POPC   C3B74073  28.759  43.892   6.974
 5912POPC   C4B74074  28.817  44.148   7.306
 5913POPC   NC374075  40.084  34.276   5.535
 5913POPC   PO474076  39.713  33.642   5.456
 5913POPC   GL174077  39.790  33.638   5.911
 5913POPC   GL274078  40.008  33.931   5.933
 5913POPC   C1A74079  40.041  33.433   6.256
 5913POPC   D2A74080  40.196  33.409   6.693
 5913POPC   C3A74081  39.947  33.443   7.094
 5913POPC   C4A74082  39.719  33.793   7.268
 5913POPC   C1B74083  40.136  33.939   6.363
 5913POPC   C2B74084  40.057  33.969   6.798
 5913POPC   C3B74085  40.215  33.897   7.186
 5913POPC   C4B74086  40.292  34.100   7.569
 5914POPC   NC374087  18.461  44.270   5.404
 5914POPC   PO474088  18.482  43.599   5.390
 5914POPC   GL174089  18.228  43.706   5.753
 5914POPC   GL274090  18.013  44.016   5.681
 5914POPC   C1A74091  18.346  43.796   6.189
 5914POPC   D2A74092  18.317  43.582   6.599
 5914POPC   C3A74093  18.405  43.736   7.027
 5914POPC   C4A74094  18.388  43.934   7.412
 5914POPC   C1B74095  17.885  44.000   6.116
 5914POPC   C2B74096  18.106  44.109   6.502
 5914POPC   C3B74097  17.970  43.957   6.862
 5914POPC   C4B74098  17.912  44.048   7.276
 5915POPC   NC374099  35.153  44.424   5.487
 5915POPC   PO474100  35.813  44.521   5.454
 5915POPC   GL174101  35.506  44.720   5.759
 5915POPC   GL274102  35.212  44.929   5.709
 5915POPC   C1A74103  35.327  44.635   6.184
 5915POPC   D2A74104  35.249  44.445   6.598
 5915POPC   C3A74105  35.368  44.616   7.016
 5915POPC   C4A74106  35.434  44.596   7.479
 5915POPC   C1B74107  34.936  44.970   6.097
 5915POPC   C2B74108  34.876  44.802   6.517
 5915POPC   C3B74109  34.959  44.929   6.931
 5915POPC   C4B74110  35.187   0.010   7.348
 5916POPC   NC374111  11.087  15.668   5.475
 5916POPC   PO474112  10.444  15.891   5.455
 5916POPC   GL174113  10.555  16.083   5.840
 5916POPC   GL274114  10.442  15.764   5.992
 5916POPC   C1A74115  10.444  16.179   6.285
 5916POPC   D2A74116  10.229  15.832   6.474
 5916POPC   C3A74117  10.351  15.804   6.882
 5916POPC   C4A74118  10.275  16.094   7.191
 5916POPC   C1B74119  10.806  15.828   6.290
 5916POPC   C2B74120  10.858  15.872   6.757
 5916POPC   C3B74121  10.836  15.872   7.209
 5916POPC   C4B74122  10.969  15.791   7.688
 5917POPC   NC374123  33.174   6.898   5.356
 5917POPC   PO474124  32.693   6.516   5.556
 5917POPC   GL174125  33.088   6.576   5.754
 5917POPC   GL274126  33.185   6.272   5.814
 5917POPC   C1A74127  33.154   6.751   6.164
 5917POPC   D2A74128  32.974   6.632   6.552
 5917POPC   C3A74129  33.152   6.783   6.921
 5917POPC   C4A74130  32.957   6.655   7.277
 5917POPC   C1B74131  33.416   6.322   6.175
 5917POPC   C2B74132  33.454   6.469   6.570
 5917POPC   C3B74133  33.322   6.296   6.952
 5917POPC   C4B74134  33.237   6.199   7.358
 5918POPC   NC374135  32.704   0.194   5.506
 5918POPC   PO474136  33.361   0.400   5.435
 5918POPC   GL174137  33.095   0.435   5.776
 5918POPC   GL274138  32.950   0.151   5.960
 5918POPC   C1A74139  33.217   0.569   6.155
 5918POPC   D2A74140  33.153   0.315   6.487
 5918POPC   C3A74141  33.167   0.555   6.823
 5918POPC   C4A74142  33.235   0.444   7.211
 5918POPC   C1B74143  32.734   0.422   6.188
 5918POPC   C2B74144  32.655   0.612   6.572
 5918POPC   C3B74145  32.696   0.708   6.990
 5918POPC   C4B74146  32.740   0.401   7.267
 5919POPC   NC374147  26.188  24.909   5.314
 5919POPC   PO474148  25.953  25.507   5.121
 5919POPC   GL174149  26.146  25.410   5.589
 5919POPC   GL274150  26.062  25.104   5.775
 5919POPC   C1A74151  26.419  25.382   6.049
 5919POPC   D2A74152  26.489  25.370   6.543
 5919POPC   C3A74153  26.409  25.134   6.969
 5919POPC   C4A74154  26.436  25.244   7.450
 5919POPC   C1B74155  25.939  25.287   6.180
 5919POPC   C2B74156  25.742  25.172   6.560
 5919POPC   C3B74157  25.773  25.054   6.977
 5919POPC   C4B74158  25.983  25.282   7.261
 5920POPC   NC374159  39.205  16.999   5.510
 5920POPC   PO474160  38.783  16.517   5.298
 5920POPC   GL174161  39.014  16.596   5.715
 5920POPC   GL274162  39.357  16.522   5.769
 5920POPC   C1A74163  39.095  16.818   6.133
 5920POPC   D2A74164  39.004  16.649   6.571
 5920POPC   C3A74165  39.091  16.840   6.993
 5920POPC   C4A74166  39.370  16.925   7.356
 5920POPC   C1B74167  39.370  16.419   6.244
 5920POPC   C2B74168  39.427  16.394   6.718
 5920POPC   C3B74169  39.371  16.441   7.172
 5920POPC   C4B74170  39.382  16.415   7.627
 5921POPC   NC374171  43.671  34.844   5.516
 5921POPC   PO474172  44.228  34.431   5.376
 5921POPC   GL174173  44.077  34.696   5.745
 5921POPC   GL274174  43.896  34.403   5.803
 5921POPC   C1A74175  43.859  34.764   6.173
 5921POPC   D2A74176  43.810  34.517   6.568
 5921POPC   C3A74177  43.845  34.728   6.972
 5921POPC   C4A74178  43.573  34.737   7.325
 5921POPC   C1B74179  44.094  34.261   6.194
 5921POPC   C2B74180  44.147  34.129   6.638
 5921POPC   C3B74181  44.074  34.269   7.099
 5921POPC   C4B74182  44.158  34.203   7.581
 5922POPC   NC374183  38.360   3.941   5.521
 5922POPC   PO474184  38.716   4.468   5.388
 5922POPC   GL174185  38.725   4.211   5.794
 5922POPC   GL274186  38.376   4.164   5.967
 5922POPC   C1A74187  38.782   4.323   6.244
 5922POPC   D2A74188  38.655   4.194   6.645
 5922POPC   C3A74189  38.767   4.415   7.014
 5922POPC   C4A74190  38.861   4.418   7.460
 5922POPC   C1B74191  38.286   4.419   6.326
 5922POPC   C2B74192  38.258   4.508   6.750
 5922POPC   C3B74193  38.320   4.202   7.049
 5922POPC   C4B74194  38.117   3.971   7.284
 5923POPC   NC374195  42.966   0.280   5.785
 5923POPC   PO474196  43.547   0.449   5.444
 5923POPC   GL174197  43.424   0.476   5.868
 5923POPC   GL274198  43.202   0.743   5.845
 5923POPC   C1A74199  43.328   0.383   6.286
 5923POPC   D2A74200  43.113   0.159   6.601
 5923POPC   C3A74201  43.062   0.386   6.967
 5923POPC   C4A74202  42.892   0.334   7.363
 5923POPC   C1B74203  43.405   0.878   6.239
 5923POPC   C2B74204  43.445   0.689   6.682
 5923POPC   C3B74205  43.305   0.827   7.079
 5923POPC   C4B74206  43.304   0.758   7.537
 5924POPC   NC374207  26.614  37.734   5.193
 5924POPC   PO474208  27.093  38.084   5.404
 5924POPC   GL174209  26.923  37.947   5.810
 5924POPC   GL274210  27.074  38.095   6.104
 5924POPC   C1A74211  26.871  37.606   6.146
 5924POPC   D2A74212  27.102  37.365   6.472
 5924POPC   C3A74213  27.159  37.528   6.903
 5924POPC   C4A74214  26.983  37.384   7.289
 5924POPC   C1B74215  27.062  37.913   6.527
 5924POPC   C2B74216  26.715  37.631   6.683
 5924POPC   C3B74217  26.541  37.591   7.100
 5924POPC   C4B74218  26.628  37.860   7.476
 5925POPC   NC374219   5.551  33.943   5.307
 5925POPC   PO474220   4.939  33.809   5.184
 5925POPC   GL174221   5.192  33.926   5.680
 5925POPC   GL274222   5.384  33.678   5.852
 5925POPC   C1A74223   5.060  33.965   6.164
 5925POPC   D2A74224   4.902  33.720   6.565
 5925POPC   C3A74225   4.992  33.896   6.981
 5925POPC   C4A74226   5.315  33.850   7.242
 5925POPC   C1B74227   5.108  33.448   6.170
 5925POPC   C2B74228   5.187  33.221   6.519
 5925POPC   C3B74229   5.261  33.445   6.865
 5925POPC   C4B74230   4.936  33.424   7.159
 5926POPC   NC374231  29.686  18.507   5.419
 5926POPC   PO474232  29.990  17.824   5.348
 5926POPC   GL174233  29.916  18.113   5.687
 5926POPC   GL274234  29.775  17.934   5.943
 5926POPC   C1A74235  29.906  18.423   6.057
 5926POPC   D2A74236  29.730  18.637   6.442
 5926POPC   C3A74237  29.874  18.551   6.871
 5926POPC   C4A74238  29.870  18.405   7.302
 5926POPC   C1B74239  30.102  17.963   6.224
 5926POPC   C2B74240  30.009  18.116   6.598
 5926POPC   C3B74241  30.124  18.064   7.013
 5926POPC   C4B74242  29.811  17.912   7.279
 5927POPC   NC374243  13.876  35.463   5.459
 5927POPC   PO474244  13.151  35.279   5.378
 5927POPC   GL174245  13.486  35.317   5.745
 5927POPC   GL274246  13.507  34.980   5.876
 5927POPC   C1A74247  13.723  35.408   6.162
 5927POPC   D2A74248  13.890  35.296   6.601
 5927POPC   C3A74249  13.530  35.324   6.865
 5927POPC   C4A74250  13.559  35.643   7.123
 5927POPC   C1B74251  13.278  35.068   6.254
 5927POPC   C2B74252  13.117  35.062   6.690
 5927POPC   C3B74253  13.218  34.951   7.120
 5927POPC   C4B74254  13.531  35.120   7.380
 5928POPC   NC374255  31.403   1.332   5.381
 5928POPC   PO474256  31.942   1.021   5.408
 5928POPC   GL174257  31.750   1.335   5.791
 5928POPC   GL274258  31.360   1.291   5.906
 5928POPC   C1A74259  31.678   1.472   6.276
 5928POPC   D2A74260  31.568   1.705   6.725
 5928POPC   C3A74261  31.686   1.559   7.172
 5928POPC   C4A74262  31.656   1.737   7.619
 5928POPC   C1B74263  31.159   0.989   6.264
 5928POPC   C2B74264  31.054   0.995   6.733
 5928POPC   C3B74265  31.328   1.093   7.127
 5928POPC   C4B74266  31.269   1.372   7.549
 5929POPC   NC374267  31.881  25.284   5.454
 5929POPC   PO474268  32.545  24.979   5.375
 5929POPC   GL174269  32.485  25.250   5.738
 5929POPC   GL274270  32.150  25.372   5.857
 5929POPC   C1A74271  32.436  25.175   6.200
 5929POPC   D2A74272  32.351  25.407   6.556
 5929POPC   C3A74273  32.283  25.193   6.922
 5929POPC   C4A74274  32.421  25.392   7.257
 5929POPC   C1B74275  31.811  25.567   6.117
 5929POPC   C2B74276  31.828  25.541   6.570
 5929POPC   C3B74277  32.038  25.647   6.951
 5929POPC   C4B74278  31.933  25.528   7.353
 5930POPC   NC374279  38.051   1.587   5.420
 5930POPC   PO474280  37.371   1.425   5.358
 5930POPC   GL174281  37.342   1.532   5.802
 5930POPC   GL274282  37.694   1.536   5.792
 5930POPC   C1A74283  37.436   1.365   6.260
 5930POPC   D2A74284  37.509   1.370   6.746
 5930POPC   C3A74285  37.696   1.034   7.011
 5930POPC   C4A74286  37.817   0.835   7.412
 5930POPC   C1B74287  38.003   1.581   6.108
 5930POPC   C2B74288  37.897   1.652   6.532
 5930POPC   C3B74289  37.928   1.719   6.959
 5930POPC   C4B74290  37.705   1.497   7.262
 5931POPC   NC374291  10.151  40.571   5.334
 5931POPC   PO474292  10.521  41.031   5.324
 5931POPC   GL174293  10.556  40.765   5.710
 5931POPC   GL274294  10.790  40.984   5.885
 5931POPC   C1A74295  10.488  40.716   6.181
 5931POPC   D2A74296  10.458  40.910   6.613
 5931POPC   C3A74297  10.310  40.702   6.990
 5931POPC   C4A74298  10.276  40.783   7.402
 5931POPC   C1B74299  11.001  41.046   6.292
 5931POPC   C2B74300  10.915  41.072   6.746
 5931POPC   C3B74301  10.716  41.016   7.154
 5931POPC   C4B74302  11.005  41.091   7.493
 5932POPC   NC374303  27.142  17.912   5.619
 5932POPC   PO474304  27.610  18.154   5.215
 5932POPC   GL174305  27.701  18.279   5.640
 5932POPC   GL274306  27.394  18.338   5.801
 5932POPC   C1A74307  27.795  18.246   6.106
 5932POPC   D2A74308  27.824  18.555   6.449
 5932POPC   C3A74309  27.617  18.494   6.852
 5932POPC   C4A74310  27.761  18.573   7.256
 5932POPC   C1B74311  27.329  18.428   6.247
 5932POPC   C2B74312  27.164  18.177   6.582
 5932POPC   C3B74313  27.274  18.090   6.989
 5932POPC   C4B74314  27.244  18.439   7.190
 5933POPC   NC374315   8.810   1.530   5.489
 5933POPC   PO474316   9.381   1.360   5.410
 5933POPC   GL174317   9.170   1.226   5.766
 5933POPC   GL274318   9.191   1.573   5.864
 5933POPC   C1A74319   8.908   1.225   6.147
 5933POPC   D2A74320   8.708   1.093   6.519
 5933POPC   C3A74321   8.914   1.015   6.909
 5933POPC   C4A74322   8.831   1.291   7.234
 5933POPC   C1B74323   9.398   1.365   6.226
 5933POPC   C2B74324   9.283   1.215   6.600
 5933POPC   C3B74325   9.232   1.431   6.964
 5933POPC   C4B74326   9.411   1.453   7.337
 5934POPC   NC374327   5.607   9.969   5.634
 5934POPC   PO474328   5.998   9.482   5.301
 5934POPC   GL174329   5.933   9.599   5.739
 5934POPC   GL274330   6.111   9.918   5.734
 5934POPC   C1A74331   5.792   9.677   6.202
 5934POPC   D2A74332   5.846   9.935   6.576
 5934POPC   C3A74333   5.888   9.717   6.956
 5934POPC   C4A74334   5.831   9.929   7.344
 5934POPC   C1B74335   6.188  10.002   6.172
 5934POPC   C2B74336   6.327  10.107   6.592
 5934POPC   C3B74337   6.188  10.125   6.997
 5934POPC   C4B74338   6.283  10.135   7.444
 5935POPC   NC374339  20.897  37.087   5.485
 5935POPC   PO474340  20.377  36.641   5.550
 5935POPC   GL174341  20.580  36.931   5.855
 5935POPC   GL274342  20.914  37.007   5.963
 5935POPC   C1A74343  20.523  37.102   6.262
 5935POPC   D2A74344  20.564  36.822   6.593
 5935POPC   C3A74345  20.533  37.035   6.915
 5935POPC   C4A74346  20.491  36.939   7.277
 5935POPC   C1B74347  20.934  36.733   6.254
 5935POPC   C2B74348  21.052  36.845   6.650
 5935POPC   C3B74349  20.952  36.765   7.078
 5935POPC   C4B74350  20.937  36.914   7.513
 5936POPC   NC374351   0.189  39.055   5.479
 5936POPC   PO474352   0.842  39.229   5.553
 5936POPC   GL174353   0.587  39.401   5.940
 5936POPC   GL274354   0.283  39.308   5.915
 5936POPC   C1A74355   0.502  39.425   6.413
 5936POPC   D2A74356   0.796  39.069   6.598
 5936POPC   C3A74357   0.752  39.012   7.053
 5936POPC   C4A74358   0.723  39.297   7.459
 5936POPC   C1B74359   0.345  38.990   6.260
 5936POPC   C2B74360   0.324  39.061   6.745
 5936POPC   C3B74361   0.378  39.402   7.080
 5936POPC   C4B74362   0.229  39.391   7.529
 5937POPC   NC374363   1.502  41.026   5.306
 5937POPC   PO474364   2.141  40.994   5.477
 5937POPC   GL174365   1.953  40.903   5.839
 5937POPC   GL274366   1.710  40.649   5.810
 5937POPC   C1A74367   2.123  40.931   6.221
 5937POPC   D2A74368   2.124  41.134   6.572
 5937POPC   C3A74369   2.250  40.871   6.922
 5937POPC   C4A74370   1.930  40.724   7.227
 5937POPC   C1B74371   1.627  40.785   6.254
 5937POPC   C2B74372   1.725  40.705   6.704
 5937POPC   C3B74373   1.455  40.699   7.108
 5937POPC   C4B74374   1.558  40.699   7.579
 5938POPC   NC374375   3.072   3.121   5.017
 5938POPC   PO474376   2.583   3.518   5.276
 5938POPC   GL174377   2.654   3.517   5.735
 5938POPC   GL274378   2.953   3.340   5.883
 5938POPC   C1A74379   2.662   3.708   6.147
 5938POPC   D2A74380   2.516   3.588   6.568
 5938POPC   C3A74381   2.802   3.654   6.921
 5938POPC   C4A74382   2.679   3.709   7.327
 5938POPC   C1B74383   2.795   3.208   6.285
 5938POPC   C2B74384   2.881   3.175   6.741
 5938POPC   C3B74385   2.822   3.154   7.201
 5938POPC   C4B74386   2.937   3.366   7.602
 5939POPC   NC374387  19.428  11.076   5.367
 5939POPC   PO474388  18.887  11.343   5.551
 5939POPC   GL174389  18.954  11.179   5.887
 5939POPC   GL274390  19.290  11.114   5.857
 5939POPC   C1A74391  19.049  11.357   6.259
 5939POPC   D2A74392  19.203  11.490   6.623
 5939POPC   C3A74393  18.882  11.422   6.911
 5939POPC   C4A74394  19.012  11.455   7.280
 5939POPC   C1B74395  19.284  10.887   6.228
 5939POPC   C2B74396  19.410  11.031   6.610
 5939POPC   C3B74397  19.259  11.093   6.987
 5939POPC   C4B74398  19.146  10.894   7.330
 5940POPC   NC374399  18.091  26.519   5.093
 5940POPC   PO474400  18.333  25.952   5.414
 5940POPC   GL174401  18.300  25.929   5.827
 5940POPC   GL274402  17.919  25.944   5.814
 5940POPC   C1A74403  18.532  25.894   6.236
 5940POPC   D2A74404  18.742  26.068   6.587
 5940POPC   C3A74405  18.552  26.290   6.918
 5940POPC   C4A74406  18.320  26.047   7.217
 5940POPC   C1B74407  18.049  26.119   6.226
 5940POPC   C2B74408  18.173  26.011   6.635
 5940POPC   C3B74409  17.881  25.995   6.932
 5940POPC   C4B74410  17.847  26.180   7.315
 5941POPC   NC374411  27.151  26.558   5.465
 5941POPC   PO474412  26.714  26.035   5.496
 5941POPC   GL174413  27.001  25.964   5.828
 5941POPC   GL274414  27.029  26.277   5.872
 5941POPC   C1A74415  27.047  25.992   6.292
 5941POPC   D2A74416  26.754  25.943   6.632
 5941POPC   C3A74417  26.981  26.048   7.017
 5941POPC   C4A74418  26.807  26.151   7.424
 5941POPC   C1B74419  26.680  26.337   6.211
 5941POPC   C2B74420  26.482  26.451   6.579
 5941POPC   C3B74421  26.501  26.270   6.970
 5941POPC   C4B74422  26.479  26.573   7.262
 5942POPC   NC374423  27.497  19.515   5.342
 5942POPC   PO474424  27.925  19.977   5.564
 5942POPC   GL174425  27.535  19.868   5.798
 5942POPC   GL274426  27.559  20.200   5.953
 5942POPC   C1A74427  27.449  19.605   6.224
 5942POPC   D2A74428  27.431  19.496   6.707
 5942POPC   C3A74429  27.468  19.839   7.006
 5942POPC   C4A74430  27.252  19.805   7.379
 5942POPC   C1B74431  27.861  19.948   6.197
 5942POPC   C2B74432  27.801  19.847   6.579
 5942POPC   C3B74433  27.909  19.602   6.857
 5942POPC   C4B74434  27.978  19.794   7.194
 5943POPC   NC374435  17.567   9.577   5.434
 5943POPC   PO474436  17.616  10.261   5.402
 5943POPC   GL174437  17.368   9.977   5.771
 5943POPC   GL274438  17.417   9.572   5.905
 5943POPC   C1A74439  17.302   9.917   6.242
 5943POPC   D2A74440  17.512   9.619   6.527
 5943POPC   C3A74441  17.351   9.607   6.933
 5943POPC   C4A74442  17.271   9.882   7.285
 5943POPC   C1B74443  17.778   9.806   6.078
 5943POPC   C2B74444  17.768  10.074   6.439
 5943POPC   C3B74445  17.678   9.999   6.882
 5943POPC   C4B74446  17.905   9.917   7.251
 5944POPC   NC374447  43.393  22.271   5.463
 5944POPC   PO474448  42.884  21.808   5.426
 5944POPC   GL174449  43.022  22.137   5.777
 5944POPC   GL274450  43.076  22.541   5.812
 5944POPC   C1A74451  43.032  22.202   6.233
 5944POPC   D2A74452  43.242  22.289   6.642
 5944POPC   C3A74453  43.167  22.115   7.062
 5944POPC   C4A74454  43.207  22.179   7.505
 5944POPC   C1B74455  43.302  22.656   6.240
 5944POPC   C2B74456  43.664  22.580   6.557
 5944POPC   C3B74457  43.646  22.421   7.005
 5944POPC   C4B74458  43.360  22.624   7.307
 5945POPC   NC374459  20.405  10.864   5.379
 5945POPC   PO474460  20.962  10.396   5.366
 5945POPC   GL174461  21.027  10.269   5.820
 5945POPC   GL274462  20.713  10.423   5.888
 5945POPC   C1A74463  20.923  10.264   6.308
 5945POPC   D2A74464  20.677  10.498   6.591
 5945POPC   C3A74465  20.600  10.320   6.986
 5945POPC   C4A74466  20.477  10.658   7.208
 5945POPC   C1B74467  20.435  10.160   6.156
 5945POPC   C2B74468  20.256  10.166   6.583
 5945POPC   C3B74469  20.159  10.035   6.970
 5945POPC   C4B74470  20.119  10.213   7.386
 5946POPC   NC374471  43.859  20.156   5.412
 5946POPC   PO474472  44.086  19.551   5.392
 5946POPC   GL174473  44.038  19.793   5.750
 5946POPC   GL274474  43.704  19.936   5.839
 5946POPC   C1A74475  44.201  19.847   6.156
 5946POPC   D2A74476  44.165  20.010   6.557
 5946POPC   C3A74477  43.894  19.737   6.838
 5946POPC   C4A74478  43.671  19.497   7.152
 5946POPC   C1B74479  43.817  20.199   6.178
 5946POPC   C2B74480  43.645  20.272   6.569
 5946POPC   C3B74481  43.855  20.240   6.917
 5946POPC   C4B74482  43.741  20.000   7.273
 5947POPC   NC374483  29.805  32.180   5.139
 5947POPC   PO474484  29.415  32.610   5.511
 5947POPC   GL174485  29.717  32.361   5.771
 5947POPC   GL274486  29.877  32.071   5.649
 5947POPC   C1A74487  29.954  32.393   6.169
 5947POPC   D2A74488  30.182  32.215   6.524
 5947POPC   C3A74489  30.019  32.329   6.941
 5947POPC   C4A74490  30.092  32.136   7.338
 5947POPC   C1B74491  29.782  31.916   6.071
 5947POPC   C2B74492  29.681  32.063   6.501
 5947POPC   C3B74493  29.773  31.905   6.913
 5947POPC   C4B74494  29.553  31.940   7.303
 5948POPC   NC374495  17.007   0.571   5.450
 5948POPC   PO474496  17.454   0.163   5.432
 5948POPC   GL174497  17.537   0.444   5.819
 5948POPC   GL274498  17.346   0.775   5.810
 5948POPC   C1A74499  17.401   0.491   6.278
 5948POPC   D2A74500  17.281   0.660   6.724
 5948POPC   C3A74501  17.416   0.421   7.121
 5948POPC   C4A74502  17.351   0.607   7.535
 5948POPC   C1B74503  17.751   0.854   6.046
 5948POPC   C2B74504  17.780   0.807   6.487
 5948POPC   C3B74505  17.811   0.679   6.933
 5948POPC   C4B74506  17.814   0.702   7.382
 5949POPC   NC374507  33.597   4.081   5.243
 5949POPC   PO474508  33.989   4.523   5.546
 5949POPC   GL174509  33.773   4.381   5.850
 5949POPC   GL274510  33.624   4.093   5.740
 5949POPC   C1A74511  33.917   4.325   6.250
 5949POPC   D2A74512  33.965   4.007   6.537
 5949POPC   C3A74513  34.108   4.205   6.917
 5949POPC   C4A74514  33.951   4.328   7.338
 5949POPC   C1B74515  33.538   3.972   6.146
 5949POPC   C2B74516  33.433   4.074   6.582
 5949POPC   C3B74517  33.605   4.158   7.015
 5949POPC   C4B74518  33.490   4.106   7.491
 5950POPC   NC374519  26.688   2.790   5.223
 5950POPC   PO474520  27.171   2.305   5.344
 5950POPC   GL174521  26.994   2.623   5.672
 5950POPC   GL274522  27.291   2.580   5.853
 5950POPC   C1A74523  26.821   2.862   6.083
 5950POPC   D2A74524  26.804   2.833   6.526
 5950POPC   C3A74525  27.048   2.990   6.859
 5950POPC   C4A74526  26.842   2.938   7.217
 5950POPC   C1B74527  27.015   2.412   6.171
 5950POPC   C2B74528  27.192   2.488   6.566
 5950POPC   C3B74529  26.983   2.476   6.918
 5950POPC   C4B74530  27.109   2.540   7.303
 5951POPC   NC374531  26.941  34.847   5.470
 5951POPC   PO474532  27.088  34.175   5.331
 5951POPC   GL174533  26.868  34.353   5.715
 5951POPC   GL274534  26.540  34.205   5.756
 5951POPC   C1A74535  26.832  34.572   6.133
 5951POPC   D2A74536  27.017  34.711   6.510
 5951POPC   C3A74537  26.854  34.567   6.898
 5951POPC   C4A74538  27.052  34.586   7.273
 5951POPC   C1B74539  26.492  34.178   6.213
 5951POPC   C2B74540  26.429  34.325   6.643
 5951POPC   C3B74541  26.530  34.184   7.065
 5951POPC   C4B74542  26.546  34.390   7.439
 5952POPC   NC374543   3.165  28.685   5.349
 5952POPC   PO474544   2.493  28.415   5.404
 5952POPC   GL174545   2.725  28.574   5.768
 5952POPC   GL274546   2.917  28.269   5.870
 5952POPC   C1A74547   2.452  28.700   6.153
 5952POPC   D2A74548   2.298  28.518   6.564
 5952POPC   C3A74549   2.505  28.540   6.938
 5952POPC   C4A74550   2.831  28.536   7.238
 5952POPC   C1B74551   2.801  28.348   6.287
 5952POPC   C2B74552   2.704  28.156   6.655
 5952POPC   C3B74553   2.888  28.049   7.034
 5952POPC   C4B74554   3.241  28.207   7.257
 5953POPC   NC374555   5.630  43.659   5.562
 5953POPC   PO474556   6.238  43.958   5.430
 5953POPC   GL174557   5.953  44.019   5.777
 5953POPC   GL274558   5.616  44.207   5.799
 5953POPC   C1A74559   5.985  43.793   6.148
 5953POPC   D2A74560   6.077  43.914   6.547
 5953POPC   C3A74561   5.937  43.654   6.888
 5953POPC   C4A74562   5.933  43.807   7.314
 5953POPC   C1B74563   5.656  44.157   6.259
 5953POPC   C2B74564   5.563  43.925   6.626
 5953POPC   C3B74565   5.583  44.043   7.045
 5953POPC   C4B74566   5.474  43.947   7.464
 5954POPC   NC374567  19.358  39.866   5.333
 5954POPC   PO474568  18.932  40.424   5.469
 5954POPC   GL174569  19.111  40.038   5.761
 5954POPC   GL274570  18.958  39.703   5.931
 5954POPC   C1A74571  19.198  40.043   6.226
 5954POPC   D2A74572  18.963  39.787   6.550
 5954POPC   C3A74573  18.850  39.917   6.982
 5954POPC   C4A74574  18.633  39.781   7.350
 5954POPC   C1B74575  19.308  39.540   6.232
 5954POPC   C2B74576  19.510  39.724   6.573
 5954POPC   C3B74577  19.360  39.688   6.971
 5954POPC   C4B74578  19.142  39.715   7.348
 5955POPC   NC374579  34.293   8.232   5.168
 5955POPC   PO474580  33.652   8.152   5.422
 5955POPC   GL174581  33.725   8.115   5.844
 5955POPC   GL274582  33.445   8.249   5.901
 5955POPC   C1A74583  33.984   8.291   6.186
 5955POPC   D2A74584  34.121   8.397   6.551
 5955POPC   C3A74585  33.958   8.229   6.862
 5955POPC   C4A74586  33.939   8.194   7.270
 5955POPC   C1B74587  33.516   8.063   6.289
 5955POPC   C2B74588  33.501   8.268   6.641
 5955POPC   C3B74589  33.506   8.065   7.001
 5955POPC   C4B74590  33.362   8.177   7.346
 5956POPC   NC374591  33.716  17.477   5.610
 5956POPC   PO474592  33.233  17.903   5.422
 5956POPC   GL174593  33.460  17.835   5.884
 5956POPC   GL274594  33.869  17.793   5.962
 5956POPC   C1A74595  33.522  17.662   6.326
 5956POPC   D2A74596  33.592  17.554   6.782
 5956POPC   C3A74597  33.810  17.837   7.030
 5956POPC   C4A74598  34.264  17.858   6.982
 5956POPC   C1B74599  33.956  17.382   6.234
 5956POPC   C2B74600  34.024  17.181   6.643
 5956POPC   C3B74601  33.975  17.336   7.064
 5956POPC   C4B74602  33.863  17.127   7.458
 5957POPC   NC374603  31.462  30.375   5.373
 5957POPC   PO474604  31.481  29.763   5.256
 5957POPC   GL174605  31.547  29.933   5.655
 5957POPC   GL274606  31.808  29.699   5.786
 5957POPC   C1A74607  31.325  29.973   6.063
 5957POPC   D2A74608  31.226  29.797   6.470
 5957POPC   C3A74609  31.346  29.864   6.892
 5957POPC   C4A74610  31.306  29.458   7.046
 5957POPC   C1B74611  31.816  30.025   6.089
 5957POPC   C2B74612  31.699  30.038   6.530
 5957POPC   C3B74613  31.833  30.127   6.942
 5957POPC   C4B74614  31.776  30.486   7.187
 5958POPC   NC374615  18.964  38.867   5.178
 5958POPC   PO474616  18.869  38.288   5.607
 5958POPC   GL174617  19.050  38.470   5.948
 5958POPC   GL274618  18.789  38.718   5.925
 5958POPC   C1A74619  19.326  38.429   6.310
 5958POPC   D2A74620  19.099  38.396   6.694
 5958POPC   C3A74621  19.270  38.396   7.039
 5958POPC   C4A74622  18.984  38.254   7.299
 5958POPC   C1B74623  18.929  38.749   6.348
 5958POPC   C2B74624  18.731  38.762   6.693
 5958POPC   C3B74625  18.669  38.572   7.065
 5958POPC   C4B74626  19.004  38.781   7.245
 5959POPC   NC374627  33.886  32.473   5.418
 5959POPC   PO474628  33.564  31.885   5.380
 5959POPC   GL174629  33.543  32.172   5.718
 5959POPC   GL274630  33.848  32.061   5.865
 5959POPC   C1A74631  33.509  32.245   6.202
 5959POPC   D2A74632  33.483  32.066   6.645
 5959POPC   C3A74633  33.691  32.275   6.997
 5959POPC   C4A74634  33.825  32.375   7.432
 5959POPC   C1B74635  33.899  31.886   6.319
 5959POPC   C2B74636  34.058  32.012   6.740
 5959POPC   C3B74637  34.216  32.377   7.035
 5959POPC   C4B74638  34.333  32.532   7.463
 5960POPC   NC374639  39.829  26.038   5.407
 5960POPC   PO474640  40.413  26.387   5.528
 5960POPC   GL174641  40.141  26.175   5.861
 5960POPC   GL274642  39.973  25.863   5.868
 5960POPC   C1A74643  39.978  26.074   6.304
 5960POPC   D2A74644  39.956  26.302   6.646
 5960POPC   C3A74645  40.220  26.234   6.967
 5960POPC   C4A74646  40.003  26.147   7.336
 5960POPC   C1B74647  39.604  25.727   6.161
 5960POPC   C2B74648  39.634  25.647   6.647
 5960POPC   C3B74649  39.602  25.681   7.131
 5960POPC   C4B74650  39.636  25.824   7.579
 5961POPC   NC374651  42.186   8.479   5.475
 5961POPC   PO474652  42.727   8.874   5.421
 5961POPC   GL174653  42.397   8.941   5.730
 5961POPC   GL274654  42.485   8.654   5.875
 5961POPC   C1A74655  42.052   8.929   6.089
 5961POPC   D2A74656  41.874   9.186   6.461
 5961POPC   C3A74657  42.063   9.238   6.872
 5961POPC   C4A74658  41.938   9.109   7.298
 5961POPC   C1B74659  42.538   8.940   6.251
 5961POPC   C2B74660  42.416   8.901   6.681
 5961POPC   C3B74661  42.356   8.905   7.121
 5961POPC   C4B74662  42.373   8.934   7.563
 5962POPC   NC374663   6.991  26.855   5.254
 5962POPC   PO474664   7.675  27.116   5.234
 5962POPC   GL174665   7.411  26.905   5.596
 5962POPC   GL274666   7.571  26.607   5.706
 5962POPC   C1A74667   7.241  26.861   6.055
 5962POPC   D2A74668   7.066  26.677   6.459
 5962POPC   C3A74669   7.309  26.835   6.847
 5962POPC   C4A74670   7.180  26.987   7.260
 5962POPC   C1B74671   7.720  26.723   6.081
 5962POPC   C2B74672   7.592  26.640   6.474
 5962POPC   C3B74673   7.679  26.459   6.865
 5962POPC   C4B74674   7.670  26.672   7.262
 5963POPC   NC374675  21.446   5.524   5.510
 5963POPC   PO474676  21.329   4.843   5.431
 5963POPC   GL174677  21.392   5.052   5.827
 5963POPC   GL274678  21.144   5.299   5.873
 5963POPC   C1A74679  21.307   4.956   6.276
 5963POPC   D2A74680  21.131   4.951   6.697
 5963POPC   C3A74681  21.440   4.915   7.031
 5963POPC   C4A74682  21.672   5.254   7.254
 5963POPC   C1B74683  21.392   5.458   6.201
 5963POPC   C2B74684  21.514   5.363   6.610
 5963POPC   C3B74685  21.312   5.443   6.981
 5963POPC   C4B74686  21.095   5.199   7.269
 5964POPC   NC374687  37.972  38.880   5.557
 5964POPC   PO474688  37.299  38.935   5.559
 5964POPC   GL174689  37.520  38.960   5.884
 5964POPC   GL274690  37.715  39.209   5.890
 5964POPC   C1A74691  37.419  39.080   6.310
 5964POPC   D2A74692  37.339  38.877   6.671
 5964POPC   C3A74693  37.611  38.973   6.988
 5964POPC   C4A74694  37.808  39.111   7.353
 5964POPC   C1B74695  37.902  38.905   6.215
 5964POPC   C2B74696  38.127  38.995   6.576
 5964POPC   C3B74697  38.099  39.211   6.943
 5964POPC   C4B74698  38.305  39.124   7.324
 5965POPC   NC374699  12.270  44.972   5.407
 5965POPC   PO474700  11.808   0.482   5.358
 5965POPC   GL174701  11.794   0.363   5.789
 5965POPC   GL274702  12.120   0.478   5.844
 5965POPC   C1A74703  11.855   0.245   6.215
 5965POPC   D2A74704  12.147   0.361   6.552
 5965POPC   C3A74705  12.008   0.458   6.963
 5965POPC   C4A74706  11.605   0.489   7.159
 5965POPC   C1B74707  12.335   0.700   6.198
 5965POPC   C2B74708  12.520   0.711   6.623
 5965POPC   C3B74709  12.371   0.831   7.013
 5965POPC   C4B74710  12.358   0.575   7.348
 5966POPC   NC374711  25.489  14.487   5.554
 5966POPC   PO474712  24.871  14.573   5.421
 5966POPC   GL174713  25.064  14.598   5.845
 5966POPC   GL274714  25.146  14.249   5.865
 5966POPC   C1A74715  25.040  14.499   6.333
 5966POPC   D2A74716  25.143  14.127   6.626
 5966POPC   C3A74717  25.164  14.255   7.056
 5966POPC   C4A74718  24.998  14.238   7.479
 5966POPC   C1B74719  25.429  14.196   6.215
 5966POPC   C2B74720  25.562  14.405   6.620
 5966POPC   C3B74721  25.563  14.584   7.051
 5966POPC   C4B74722  25.583  14.328   7.435
 5967POPC   NC374723  17.921  28.308   5.072
 5967POPC   PO474724  17.398  28.235   5.454
 5967POPC   GL174725  17.298  28.508   5.781
 5967POPC   GL274726  17.176  28.245   5.958
 5967POPC   C1A74727  17.320  28.649   6.223
 5967POPC   D2A74728  17.474  28.436   6.597
 5967POPC   C3A74729  17.246  28.475   6.965
 5967POPC   C4A74730  17.388  28.493   7.372
 5967POPC   C1B74731  17.469  28.050   6.256
 5967POPC   C2B74732  17.542  27.846   6.662
 5967POPC   C3B74733  17.568  28.082   7.048
 5967POPC   C4B74734  17.212  28.029   7.315
 5968POPC   NC374735  41.883  21.403   5.366
 5968POPC   PO474736  41.223  21.144   5.499
 5968POPC   GL174737  41.543  21.432   5.770
 5968POPC   GL274738  41.931  21.402   5.874
 5968POPC   C1A74739  41.533  21.597   6.210
 5968POPC   D2A74740  41.236  21.550   6.586
 5968POPC   C3A74741  41.396  21.630   7.016
 5968POPC   C4A74742  41.478  21.451   7.452
 5968POPC   C1B74743  41.997  21.332   6.327
 5968POPC   C2B74744  41.753  21.394   6.715
 5968POPC   C3B74745  41.770  21.196   7.138
 5968POPC   C4B74746  41.889  21.181   7.612
 5969POPC   NC374747  16.057  25.545   5.534
 5969POPC   PO474748  15.696  25.032   5.494
 5969POPC   GL174749  15.808  25.215   5.856
 5969POPC   GL274750  15.624  25.504   5.898
 5969POPC   C1A74751  16.101  25.249   6.185
 5969POPC   D2A74752  16.171  25.083   6.604
 5969POPC   C3A74753  16.029  25.341   6.977
 5969POPC   C4A74754  16.203  25.361   7.392
 5969POPC   C1B74755  15.666  25.471   6.333
 5969POPC   C2B74756  15.611  25.668   6.719
 5969POPC   C3B74757  15.601  25.660   7.144
 5969POPC   C4B74758  15.684  25.347   7.426
 5970POPC   NC374759  43.475   4.710   5.462
 5970POPC   PO474760  43.267   5.359   5.522
 5970POPC   GL174761  43.412   5.223   5.901
 5970POPC   GL274762  43.098   5.029   5.913
 5970POPC   C1A74763  43.341   5.145   6.366
 5970POPC   D2A74764  43.232   4.809   6.694
 5970POPC   C3A74765  43.187   4.960   7.119
 5970POPC   C4A74766  43.290   5.286   7.384
 5970POPC   C1B74767  42.804   5.318   6.149
 5970POPC   C2B74768  42.776   5.555   6.524
 5970POPC   C3B74769  42.633   5.534   6.925
 5970POPC   C4B74770  42.775   5.266   7.207
 5971POPC   NC374771  15.207  22.412   5.457
 5971POPC   PO474772  15.304  21.745   5.297
 5971POPC   GL174773  15.268  22.017   5.741
 5971POPC   GL274774  15.470  22.341   5.906
 5971POPC   C1A74775  15.046  22.268   6.123
 5971POPC   D2A74776  15.264  22.313   6.533
 5971POPC   C3A74777  14.971  22.296   6.854
 5971POPC   C4A74778  14.818  22.218   7.263
 5971POPC   C1B74779  15.479  21.954   6.179
 5971POPC   C2B74780  15.279  21.789   6.520
 5971POPC   C3B74781  15.315  21.930   6.911
 5971POPC   C4B74782  15.381  22.239   7.223
 5972POPC   NC374783  36.882   1.484   5.359
 5972POPC   PO474784  36.941   2.130   5.149
 5972POPC   GL174785  36.948   2.167   5.647
 5972POPC   GL274786  36.677   2.142   5.887
 5972POPC   C1A74787  37.135   2.172   6.108
 5972POPC   D2A74788  37.284   2.393   6.495
 5972POPC   C3A74789  37.254   2.298   6.917
 5972POPC   C4A74790  36.951   2.137   7.212
 5972POPC   C1B74791  36.720   1.866   6.241
 5972POPC   C2B74792  36.858   2.072   6.616
 5972POPC   C3B74793  36.561   2.225   6.905
 5972POPC   C4B74794  36.476   1.859   7.144
 5973POPC   NC374795  29.456  22.933   5.207
 5973POPC   PO474796  28.835  23.089   5.456
 5973POPC   GL174797  29.051  22.922   5.811
 5973POPC   GL274798  29.420  22.914   5.731
 5973POPC   C1A74799  29.099  23.056   6.247
 5973POPC   D2A74800  28.961  23.243   6.661
 5973POPC   C3A74801  28.948  23.040   7.064
 5973POPC   C4A74802  29.224  23.050   7.459
 5973POPC   C1B74803  29.564  22.835   6.151
 5973POPC   C2B74804  29.457  22.982   6.601
 5973POPC   C3B74805  29.370  22.762   6.983
 5973POPC   C4B74806  29.645  22.729   7.317
 5974POPC   NC374807   3.284  19.204   5.453
 5974POPC   PO474808   3.796  18.739   5.291
 5974POPC   GL174809   3.645  18.894   5.673
 5974POPC   GL274810   3.300  18.787   5.800
 5974POPC   C1A74811   3.633  19.127   6.068
 5974POPC   D2A74812   3.510  19.314   6.488
 5974POPC   C3A74813   3.728  19.099   6.863
 5974POPC   C4A74814   3.744  19.278   7.281
 5974POPC   C1B74815   3.233  18.912   6.267
 5974POPC   C2B74816   3.275  18.927   6.728
 5974POPC   C3B74817   3.252  19.080   7.122
 5974POPC   C4B74818   3.139  18.871   7.461
 5975POPC   NC374819  29.070  10.258   5.049
 5975POPC   PO474820  29.471  10.656   5.409
 5975POPC   GL174821  29.379  10.591   5.823
 5975POPC   GL274822  29.015  10.600   5.822
 5975POPC   C1A74823  29.248  10.358   6.204
 5975POPC   D2A74824  29.070  10.249   6.563
 5975POPC   C3A74825  29.149  10.503   6.842
 5975POPC   C4A74826  29.208  10.434   7.229
 5975POPC   C1B74827  28.750  10.424   6.182
 5975POPC   C2B74828  28.681  10.569   6.631
 5975POPC   C3B74829  28.697  10.579   7.101
 5975POPC   C4B74830  28.347  10.580   7.398
 5976POPC   NC374831  18.738  16.017   5.510
 5976POPC   PO474832  18.200  16.222   5.207
 5976POPC   GL174833  18.210  16.187   5.674
 5976POPC   GL274834  18.308  15.862   5.731
 5976POPC   C1A74835  18.184  16.176   6.149
 5976POPC   D2A74836  17.971  15.964   6.501
 5976POPC   C3A74837  18.207  15.996   6.888
 5976POPC   C4A74838  18.260  16.262   7.243
 5976POPC   C1B74839  18.526  15.783   6.113
 5976POPC   C2B74840  18.384  15.629   6.504
 5976POPC   C3B74841  18.600  15.641   6.883
 5976POPC   C4B74842  18.547  15.848   7.261
 5977POPC   NC374843  33.598  18.452   5.374
 5977POPC   PO474844  34.118  18.212   5.671
 5977POPC   GL174845  33.713  18.289   5.862
 5977POPC   GL274846  33.441  18.579   5.833
 5977POPC   C1A74847  33.771  18.159   6.291
 5977POPC   D2A74848  34.056  18.394   6.505
 5977POPC   C3A74849  33.915  18.308   6.858
 5977POPC   C4A74850  34.081  18.291   7.221
 5977POPC   C1B74851  33.406  18.471   6.217
 5977POPC   C2B74852  33.594  18.619   6.573
 5977POPC   C3B74853  33.456  18.531   6.972
 5977POPC   C4B74854  33.541  18.238   7.209
 5978POPC   NC374855   9.883  13.796   5.445
 5978POPC   PO474856   9.845  13.131   5.457
 5978POPC   GL174857   9.801  13.415   5.816
 5978POPC   GL274858   9.493  13.658   5.793
 5978POPC   C1A74859   9.711  13.483   6.265
 5978POPC   D2A74860   9.663  13.367   6.697
 5978POPC   C3A74861   9.969  13.608   6.932
 5978POPC   C4A74862   9.942  13.718   7.355
 5978POPC   C1B74863   9.465  13.922   6.181
 5978POPC   C2B74864   9.644  13.899   6.619
 5978POPC   C3B74865   9.515  13.853   7.079
 5978POPC   C4B74866   9.544  13.937   7.568
 5979POPC   NC374867  12.419  27.935   5.362
 5979POPC   PO474868  12.961  27.513   5.268
 5979POPC   GL174869  12.768  27.648   5.714
 5979POPC   GL274870  12.648  28.002   5.827
 5979POPC   C1A74871  12.799  27.686   6.196
 5979POPC   D2A74872  12.810  27.451   6.579
 5979POPC   C3A74873  12.637  27.639   6.947
 5979POPC   C4A74874  12.785  27.403   7.254
 5979POPC   C1B74875  12.567  28.165   6.272
 5979POPC   C2B74876  12.424  28.103   6.719
 5979POPC   C3B74877  12.554  28.134   7.148
 5979POPC   C4B74878  12.564  27.835   7.478
 5980POPC   NC374879  34.658  39.191   4.950
 5980POPC   PO474880  34.280  39.420   5.497
 5980POPC   GL174881  34.357  39.246   5.901
 5980POPC   GL274882  34.696  39.157   5.908
 5980POPC   C1A74883  34.317  39.158   6.335
 5980POPC   D2A74884  34.612  39.229   6.659
 5980POPC   C3A74885  34.537  39.354   7.098
 5980POPC   C4A74886  34.402  39.055   7.391
 5980POPC   C1B74887  34.810  38.897   6.261
 5980POPC   C2B74888  35.043  38.954   6.647
 5980POPC   C3B74889  34.805  38.912   7.018
 5980POPC   C4B74890  34.905  39.093   7.381
 5981POPC   NC374891  14.629  40.144   5.470
 5981POPC   PO474892  13.991  39.948   5.368
 5981POPC   GL174893  14.249  39.987   5.769
 5981POPC   GL274894  14.345  40.307   5.877
 5981POPC   C1A74895  14.529  39.859   6.117
 5981POPC   D2A74896  14.412  39.586   6.473
 5981POPC   C3A74897  14.383  39.855   6.805
 5981POPC   C4A74898  14.415  39.882   7.220
 5981POPC   C1B74899  14.703  40.352   6.146
 5981POPC   C2B74900  14.617  40.386   6.559
 5981POPC   C3B74901  14.791  40.343   6.935
 5981POPC   C4B74902  14.747  40.233   7.333
 5982POPC   NC374903  17.212  21.402   5.385
 5982POPC   PO474904  16.598  21.150   5.444
 5982POPC   GL174905  16.767  21.170   5.829
 5982POPC   GL274906  16.549  20.886   5.904
 5982POPC   C1A74907  16.815  21.455   6.210
 5982POPC   D2A74908  16.591  21.495   6.625
 5982POPC   C3A74909  16.861  21.525   6.975
 5982POPC   C4A74910  16.877  21.386   7.392
 5982POPC   C1B74911  16.554  21.021   6.327
 5982POPC   C2B74912  16.414  20.996   6.730
 5982POPC   C3B74913  16.511  21.152   7.102
 5982POPC   C4B74914  16.413  21.589   7.207
 5983POPC   NC374915  16.832  41.471   5.215
 5983POPC   PO474916  16.610  41.948   5.551
 5983POPC   GL174917  16.736  41.729   5.889
 5983POPC   GL274918  17.038  41.584   5.822
 5983POPC   C1A74919  16.593  41.506   6.271
 5983POPC   D2A74920  16.548  41.249   6.646
 5983POPC   C3A74921  16.702  41.364   7.059
 5983POPC   C4A74922  16.528  41.602   7.407
 5983POPC   C1B74923  17.038  41.772   6.284
 5983POPC   C2B74924  16.862  41.686   6.686
 5983POPC   C3B74925  16.910  41.848   7.094
 5983POPC   C4B74926  16.993  41.745   7.514
 5984POPC   NC374927  15.681  22.914   5.423
 5984POPC   PO474928  16.242  23.271   5.579
 5984POPC   GL174929  15.945  23.096   5.888
 5984POPC   GL274930  15.848  22.724   5.862
 5984POPC   C1A74931  16.096  23.064   6.314
 5984POPC   D2A74932  16.209  23.239   6.716
 5984POPC   C3A74933  16.156  22.905   7.025
 5984POPC   C4A74934  16.030  22.896   7.456
 5984POPC   C1B74935  15.650  22.766   6.238
 5984POPC   C2B74936  15.867  22.693   6.631
 5984POPC   C3B74937  15.706  22.624   7.027
 5984POPC   C4B74938  15.602  22.646   7.464
 5985POPC   NC374939  17.152  12.230   5.400
 5985POPC   PO474940  16.492  12.163   5.255
 5985POPC   GL174941  16.716  12.188   5.678
 5985POPC   GL274942  16.629  11.925   5.879
 5985POPC   C1A74943  16.924  12.258   6.140
 5985POPC   D2A74944  16.763  12.303   6.620
 5985POPC   C3A74945  16.822  12.187   7.076
 5985POPC   C4A74946  16.942  12.306   7.537
 5985POPC   C1B74947  16.473  12.035   6.299
 5985POPC   C2B74948  16.497  11.844   6.754
 5985POPC   C3B74949  16.400  11.709   7.195
 5985POPC   C4B74950  16.379  11.738   7.665
 5986POPC   NC374951  23.513  24.821   5.510
 5986POPC   PO474952  23.424  25.465   5.351
 5986POPC   GL174953  23.699  25.412   5.715
 5986POPC   GL274954  23.845  25.092   5.859
 5986POPC   C1A74955  23.606  25.433   6.153
 5986POPC   D2A74956  23.553  25.296   6.557
 5986POPC   C3A74957  23.356  25.500   6.862
 5986POPC   C4A74958  23.530  25.362   7.274
 5986POPC   C1B74959  23.883  24.974   6.316
 5986POPC   C2B74960  23.995  25.079   6.753
 5986POPC   C3B74961  24.035  25.275   7.166
 5986POPC   C4B74962  23.949  25.376   7.623
 5987POPC   NC374963   4.311  37.370   5.464
 5987POPC   PO474964   4.604  37.999   5.414
 5987POPC   GL174965   4.352  37.787   5.763
 5987POPC   GL274966   4.529  37.491   5.918
 5987POPC   C1A74967   4.096  37.695   6.147
 5987POPC   D2A74968   3.827  37.711   6.542
 5987POPC   C3A74969   4.060  37.701   6.925
 5987POPC   C4A74970   4.329  37.549   7.231
 5987POPC   C1B74971   4.660  37.597   6.349
 5987POPC   C2B74972   4.647  37.686   6.807
 5987POPC   C3B74973   4.833  37.608   7.207
 5987POPC   C4B74974   4.720  37.327   7.542
 5988POPC   NC374975  31.474  12.760   5.453
 5988POPC   PO474976  31.905  12.298   5.760
 5988POPC   GL174977  31.716  12.703   5.919
 5988POPC   GL274978  31.489  13.042   5.862
 5988POPC   C1A74979  31.394  12.688   6.186
 5988POPC   D2A74980  31.252  12.642   6.569
 5988POPC   C3A74981  31.549  12.636   6.895
 5988POPC   C4A74982  31.359  12.706   7.269
 5988POPC   C1B74983  31.564  13.173   6.277
 5988POPC   C2B74984  31.414  13.111   6.681
 5988POPC   C3B74985  31.544  13.166   7.096
 5988POPC   C4B74986  31.427  13.145   7.529
 5989POPC   NC374987  20.721  30.983   5.501
 5989POPC   PO474988  20.576  31.659   5.355
 5989POPC   GL174989  20.608  31.549   5.807
 5989POPC   GL274990  20.436  31.232   5.878
 5989POPC   C1A74991  20.660  31.550   6.283
 5989POPC   D2A74992  20.870  31.632   6.707
 5989POPC   C3A74993  20.627  31.563   7.089
 5989POPC   C4A74994  20.636  31.749   7.541
 5989POPC   C1B74995  20.325  31.125   6.305
 5989POPC   C2B74996  20.560  31.185   6.683
 5989POPC   C3B74997  20.535  31.077   7.099
 5989POPC   C4B74998  20.765  31.245   7.488
 5990POPC   NC374999   0.032   2.810   5.467
 5990POPC   PO475000   0.681   2.488   5.452
 5990POPC   GL175001   0.569   2.738   5.853
 5990POPC   GL275002   0.270   2.940   5.891
 5990POPC   C1A75003   0.467   2.793   6.321
 5990POPC   D2A75004   0.538   2.949   6.685
 5990POPC   C3A75005   0.357   2.730   7.043
 5990POPC   C4A75006   0.085   2.360   7.090
 5990POPC   C1B75007  44.987   2.743   6.178
 5990POPC   C2B75008   0.047   2.615   6.617
 5990POPC   C3B75009  44.856   2.833   6.964
 5990POPC   C4B75010  44.958   2.938   7.360
 5991POPC   NC375011   2.417  39.420   5.641
 5991POPC   PO475012   2.974  39.058   5.417
 5991POPC   GL175013   2.883  39.244   5.805
 5991POPC   GL275014   2.903  39.624   5.812
 5991POPC   C1A75015   2.846  39.030   6.207
 5991POPC   D2A75016   2.629  39.157   6.572
 5991POPC   C3A75017   2.852  39.045   6.910
 5991POPC   C4A75018   2.847  38.736   7.228
 5991POPC   C1B75019   2.769  39.559   6.242
 5991POPC   C2B75020   2.542  39.678   6.617
 5991POPC   C3B75021   2.490  39.508   7.002
 5991POPC   C4B75022   2.932  39.549   7.079
 5992POPC   NC375023  15.168  33.345   5.447
 5992POPC   PO475024  15.515  32.825   5.554
 5992POPC   GL175025  15.097  32.960   5.803
 5992POPC   GL275026  14.986  33.296   5.914
 5992POPC   C1A75027  14.938  32.875   6.230
 5992POPC   D2A75028  15.063  32.632   6.606
 5992POPC   C3A75029  15.038  32.851   6.975
 5992POPC   C4A75030  15.357  32.857   7.270
 5992POPC   C1B75031  15.296  33.283   6.202
 5992POPC   C2B75032  15.193  33.184   6.609
 5992POPC   C3B75033  15.317  33.317   7.005
 5992POPC   C4B75034  15.068  33.335   7.330
 5993POPC   NC375035  30.228  35.769   5.556
 5993POPC   PO475036  30.038  36.267   5.200
 5993POPC   GL175037  29.928  36.212   5.647
 5993POPC   GL275038  29.663  36.438   5.677
 5993POPC   C1A75039  29.948  36.002   6.091
 5993POPC   D2A75040  30.078  36.141   6.485
 5993POPC   C3A75041  29.901  36.022   6.887
 5993POPC   C4A75042  30.133  35.889   7.252
 5993POPC   C1B75043  29.795  36.466   6.158
 5993POPC   C2B75044  29.624  36.421   6.595
 5993POPC   C3B75045  29.689  36.508   7.005
 5993POPC   C4B75046  29.981  36.370   7.323
 5994POPC   NC375047   2.878  38.594   5.314
 5994POPC   PO475048   2.259  38.372   5.280
 5994POPC   GL175049   2.563  38.330   5.691
 5994POPC   GL275050   2.937  38.211   5.692
 5994POPC   C1A75051   2.708  38.462   6.146
 5994POPC   D2A75052   2.646  38.629   6.595
 5994POPC   C3A75053   2.518  38.382   6.961
 5994POPC   C4A75054   2.600  38.325   7.392
 5994POPC   C1B75055   3.124  38.161   6.135
 5994POPC   C2B75056   2.892  38.158   6.553
 5994POPC   C3B75057   3.019  38.297   6.956
 5994POPC   C4B75058   3.144  38.198   7.350
 5995POPC   NC375059  20.081  35.474   5.533
 5995POPC   PO475060  19.584  35.023   5.512
 5995POPC   GL175061  19.820  35.107   5.857
 5995POPC   GL275062  19.668  35.441   5.856
 5995POPC   C1A75063  19.646  35.160   6.277
 5995POPC   D2A75064  19.628  35.462   6.600
 5995POPC   C3A75065  19.818  35.361   6.962
 5995POPC   C4A75066  19.887  35.192   7.338
 5995POPC   C1B75067  19.907  35.608   6.202
 5995POPC   C2B75068  20.267  35.681   6.457
 5995POPC   C3B75069  20.097  35.809   6.846
 5995POPC   C4B75070  20.172  35.618   7.233
 5996POPC   NC375071  20.736  41.721   5.310
 5996POPC   PO475072  20.080  41.774   5.354
 5996POPC   GL175073  20.367  41.540   5.651
 5996POPC   GL275074  20.526  41.824   5.809
 5996POPC   C1A75075  20.449  41.394   6.114
 5996POPC   D2A75076  20.442  41.553   6.582
 5996POPC   C3A75077  20.641  41.438   6.985
 5996POPC   C4A75078  20.427  41.110   7.157
 5996POPC   C1B75079  20.758  41.798   6.204
 5996POPC   C2B75080  20.908  41.755   6.610
 5996POPC   C3B75081  20.810  41.914   7.025
 5996POPC   C4B75082  20.721  41.775   7.459
 5997POPC   NC375083  26.985  44.515   5.238
 5997POPC   PO475084  26.546   0.017   5.429
 5997POPC   GL175085  26.585  44.726   5.795
 5997POPC   GL275086  26.754  44.399   5.773
 5997POPC   C1A75087  26.603  44.602   6.249
 5997POPC   D2A75088  26.542  44.636   6.707
 5997POPC   C3A75089  26.929  44.777   6.960
 5997POPC   C4A75090  27.265  44.533   7.189
 5997POPC   C1B75091  26.999  44.278   6.202
 5997POPC   C2B75092  26.993  44.349   6.658
 5997POPC   C3B75093  26.900  44.200   7.052
 5997POPC   C4B75094  26.610  44.480   7.228
 5998POPC   NC375095  42.493  23.889   5.430
 5998POPC   PO475096  42.002  23.576   5.637
 5998POPC   GL175097  42.196  23.864   5.865
 5998POPC   GL275098  42.519  23.695   5.878
 5998POPC   C1A75099  42.339  23.943   6.278
 5998POPC   D2A75100  42.636  23.846   6.584
 5998POPC   C3A75101  42.406  23.685   6.905
 5998POPC   C4A75102  42.165  23.871   7.226
 5998POPC   C1B75103  42.478  23.439   6.240
 5998POPC   C2B75104  42.568  23.213   6.616
 5998POPC   C3B75105  42.698  23.255   7.044
 5998POPC   C4B75106  42.453  23.444   7.352
 5999POPC   NC375107  14.241  39.562   5.471
 5999POPC   PO475108  14.431  38.986   5.386
 5999POPC   GL175109  14.440  39.114   5.827
 5999POPC   GL275110  14.289  39.437   5.951
 5999POPC   C1A75111  14.382  39.092   6.302
 5999POPC   D2A75112  14.434  38.821   6.623
 5999POPC   C3A75113  14.398  38.954   7.040
 5999POPC   C4A75114  14.366  38.999   7.506
 5999POPC   C1B75115  14.747  39.396   6.131
 5999POPC   C2B75116  14.893  39.397   6.581
 5999POPC   C3B75117  14.625  39.404   6.948
 5999POPC   C4B75118  14.213  39.435   7.143
 6000POPC   NC375119  18.367  28.980   5.272
 6000POPC   PO475120  17.729  28.911   5.307
 6000POPC   GL175121  18.044  29.140   5.651
 6000POPC   GL275122  18.440  29.241   5.696
 6000POPC   C1A75123  18.168  29.125   6.109
 6000POPC   D2A75124  18.189  29.042   6.540
 6000POPC   C3A75125  17.906  29.145   6.885
 6000POPC   C4A75126  18.180  29.324   7.210
 6000POPC   C1B75127  18.609  29.362   6.136
 6000POPC   C2B75128  18.482  29.503   6.569
 6000POPC   C3B75129  18.616  29.323   6.960
 6000POPC   C4B75130  18.642  29.188   7.406
 6001POPC   NC375131  23.316   1.103   5.407
 6001POPC   PO475132  22.798   1.393   5.238
 6001POPC   GL175133  22.812   1.328   5.705
 6001POPC   GL275134  23.146   1.329   5.879
 6001POPC   C1A75135  22.706   1.190   6.145
 6001POPC   D2A75136  22.777   1.229   6.602
 6001POPC   C3A75137  22.603   1.256   7.006
 6001POPC   C4A75138  22.874   1.104   7.318
 6001POPC   C1B75139  23.102   1.493   6.314
 6001POPC   C2B75140  22.960   1.704   6.707
 6001POPC   C3B75141  23.017   1.562   7.142
 6001POPC   C4B75142  22.857   1.571   7.588
 6002POPC   NC375143  22.260  41.841   5.483
 6002POPC   PO475144  21.919  41.251   5.475
 6002POPC   GL175145  22.006  41.539   5.816
 6002POPC   GL275146  22.332  41.555   5.900
 6002POPC   C1A75147  21.786  41.713   6.175
 6002POPC   D2A75148  21.698  41.533   6.598
 6002POPC   C3A75149  21.783  41.747   6.986
 6002POPC   C4A75150  22.138  41.638   7.194
 6002POPC   C1B75151  22.183  41.435   6.337
 6002POPC   C2B75152  22.345  41.301   6.746
 6002POPC   C3B75153  22.314  41.158   7.175
 6002POPC   C4B75154  22.586  41.474   7.379
 6003POPC   NC375155  27.773  39.356   5.464
 6003POPC   PO475156  27.181  39.108   5.466
 6003POPC   GL175157  27.303  39.238   5.907
 6003POPC   GL275158  27.575  39.495   5.905
 6003POPC   C1A75159  27.338  39.096   6.364
 6003POPC   D2A75160  27.650  38.991   6.701
 6003POPC   C3A75161  27.476  39.078   7.093
 6003POPC   C4A75162  27.547  39.381   7.389
 6003POPC   C1B75163  27.781  39.200   6.144
 6003POPC   C2B75164  27.871  39.403   6.504
 6003POPC   C3B75165  27.927  39.354   6.963
 6003POPC   C4B75166  27.994  38.967   7.193
 6004POPC   NC375167  39.902  24.545   5.310
 6004POPC   PO475168  40.489  24.840   5.348
 6004POPC   GL175169  40.144  24.773   5.700
 6004POPC   GL275170  40.033  24.404   5.774
 6004POPC   C1A75171  40.250  24.665   6.138
 6004POPC   D2A75172  40.091  24.500   6.514
 6004POPC   C3A75173  39.904  24.775   6.815
 6004POPC   C4A75174  40.022  24.623   7.215
 6004POPC   C1B75175  39.779  24.296   6.144
 6004POPC   C2B75176  39.591  24.378   6.561
 6004POPC   C3B75177  39.774  24.264   6.967
 6004POPC   C4B75178  39.937  24.117   7.382
 6005POPC   NC375179   0.357  13.889   5.474
 6005POPC   PO475180   0.969  13.727   5.342
 6005POPC   GL175181   0.699  13.610   5.724
 6005POPC   GL275182   0.490  13.321   5.776
 6005POPC   C1A75183   0.526  13.761   6.134
 6005POPC   D2A75184   0.218  13.839   6.464
 6005POPC   C3A75185   0.355  13.679   6.863
 6005POPC   C4A75186   0.478  13.840   7.259
 6005POPC   C1B75187   0.240  13.327   6.179
 6005POPC   C2B75188   0.077  13.329   6.609
 6005POPC   C3B75189   0.224  13.144   6.994
 6005POPC   C4B75190   0.506  13.311   7.240
 6006POPC   NC375191   4.742   1.487   5.590
 6006POPC   PO475192   4.298   0.914   5.433
 6006POPC   GL175193   4.530   1.035   5.784
 6006POPC   GL275194   4.345   1.334   5.879
 6006POPC   C1A75195   4.678   1.111   6.194
 6006POPC   D2A75196   4.595   1.407   6.511
 6006POPC   C3A75197   4.548   1.209   6.923
 6006POPC   C4A75198   4.491   1.335   7.355
 6006POPC   C1B75199   4.136   1.456   6.248
 6006POPC   C2B75200   4.094   1.527   6.670
 6006POPC   C3B75201   4.062   1.406   7.067
 6006POPC   C4B75202   3.651   1.446   7.176
 6007POPC   NC375203  20.584  21.255   5.471
 6007POPC   PO475204  20.102  21.660   5.423
 6007POPC   GL175205  20.265  21.434   5.842
 6007POPC   GL275206  20.314  21.043   5.843
 6007POPC   C1A75207  20.423  21.369   6.285
 6007POPC   D2A75208  20.701  21.621   6.603
 6007POPC   C3A75209  20.638  21.509   7.045
 6007POPC   C4A75210  20.430  21.135   7.235
 6007POPC   C1B75211  20.693  20.929   6.091
 6007POPC   C2B75212  20.914  20.877   6.479
 6007POPC   C3B75213  20.849  21.026   6.899
 6007POPC   C4B75214  21.085  21.035   7.265
 6008POPC   NC375215  12.636  28.889   5.351
 6008POPC   PO475216  13.160  29.247   5.461
 6008POPC   GL175217  12.946  28.987   5.786
 6008POPC   GL275218  12.559  29.012   5.827
 6008POPC   C1A75219  13.068  29.098   6.202
 6008POPC   D2A75220  13.018  29.436   6.502
 6008POPC   C3A75221  13.182  29.394   6.902
 6008POPC   C4A75222  12.984  29.370   7.266
 6008POPC   C1B75223  12.544  29.195   6.220
 6008POPC   C2B75224  12.615  29.166   6.645
 6008POPC   C3B75225  12.791  28.981   6.982
 6008POPC   C4B75226  12.507  29.153   7.248
 6009POPC   NC375227  36.504  25.012   5.483
 6009POPC   PO475228  37.130  25.390   5.584
 6009POPC   GL175229  37.027  25.034   5.824
 6009POPC   GL275230  36.737  25.148   5.903
 6009POPC   C1A75231  37.000  25.052   6.303
 6009POPC   D2A75232  36.975  25.371   6.622
 6009POPC   C3A75233  37.106  25.206   6.994
 6009POPC   C4A75234  37.197  25.355   7.400
 6009POPC   C1B75235  36.692  25.513   6.203
 6009POPC   C2B75236  36.479  25.525   6.612
 6009POPC   C3B75237  36.619  25.444   7.037
 6009POPC   C4B75238  36.741  25.135   7.330
 6010POPC   NC375239  30.892  26.221   5.126
 6010POPC   PO475240  30.558  25.824   5.601
 6010POPC   GL175241  30.907  25.972   5.836
 6010POPC   GL275242  30.921  26.323   5.846
 6010POPC   C1A75243  30.956  25.984   6.276
 6010POPC   D2A75244  30.817  25.777   6.659
 6010POPC   C3A75245  31.058  25.944   6.990
 6010POPC   C4A75246  30.863  25.932   7.361
 6010POPC   C1B75247  30.668  26.401   6.241
 6010POPC   C2B75248  30.803  26.293   6.679
 6010POPC   C3B75249  30.630  26.306   7.108
 6010POPC   C4B75250  30.611  26.319   7.582
 6011POPC   NC375251  11.045  12.698   5.356
 6011POPC   PO475252  11.588  13.063   5.292
 6011POPC   GL175253  11.541  12.896   5.728
 6011POPC   GL275254  11.451  12.531   5.698
 6011POPC   C1A75255  11.405  13.021   6.184
 6011POPC   D2A75256  11.083  12.995   6.535
 6011POPC   C3A75257  11.231  13.036   6.973
 6011POPC   C4A75258  11.221  13.247   7.381
 6011POPC   C1B75259  11.196  12.546   6.087
 6011POPC   C2B75260  11.374  12.558   6.503
 6011POPC   C3B75261  11.319  12.506   6.938
 6011POPC   C4B75262  11.020  12.601   7.230
 6012POPC   NC375263  14.229  22.453   5.253
 6012POPC   PO475264  14.807  22.072   5.516
 6012POPC   GL175265  14.436  22.241   5.714
 6012POPC   GL275266  14.157  22.037   5.588
 6012POPC   C1A75267  14.417  22.309   6.154
 6012POPC   D2A75268  14.647  22.518   6.482
 6012POPC   C3A75269  14.468  22.350   6.864
 6012POPC   C4A75270  14.334  22.398   7.277
 6012POPC   C1B75271  14.173  21.852   6.007
 6012POPC   C2B75272  14.187  21.770   6.461
 6012POPC   C3B75273  14.226  21.888   6.905
 6012POPC   C4B75274  14.411  21.890   7.305
 6013POPC   NC375275  17.545   2.294   5.368
 6013POPC   PO475276  17.178   1.733   5.443
 6013POPC   GL175277  17.466   1.778   5.817
 6013POPC   GL275278  17.762   2.011   5.814
 6013POPC   C1A75279  17.419   1.831   6.267
 6013POPC   D2A75280  17.633   2.026   6.617
 6013POPC   C3A75281  17.414   1.994   7.013
 6013POPC   C4A75282  17.208   1.930   7.394
 6013POPC   C1B75283  17.936   2.263   6.203
 6013POPC   C2B75284  18.059   2.289   6.669
 6013POPC   C3B75285  17.889   2.219   7.090
 6013POPC   C4B75286  17.697   1.991   7.430
 6014POPC   NC375287  36.904  42.640   5.334
 6014POPC   PO475288  36.621  42.065   5.541
 6014POPC   GL175289  36.730  42.376   5.770
 6014POPC   GL275290  37.106  42.345   5.721
 6014POPC   C1A75291  36.571  42.340   6.194
 6014POPC   D2A75292  36.475  42.049   6.550
 6014POPC   C3A75293  36.783  42.123   6.904
 6014POPC   C4A75294  36.864  42.009   7.343
 6014POPC   C1B75295  37.025  42.643   6.076
 6014POPC   C2B75296  36.955  42.587   6.498
 6014POPC   C3B75297  37.091  42.529   6.899
 6014POPC   C4B75298  36.930  42.502   7.298
 6015POPC   NC375299  35.000  13.962   5.452
 6015POPC   PO475300  35.707  13.938   5.343
 6015POPC   GL175301  35.408  13.795   5.697
 6015POPC   GL275302  35.336  13.419   5.777
 6015POPC   C1A75303  35.407  13.773   6.162
 6015POPC   D2A75304  35.169  13.665   6.547
 6015POPC   C3A75305  35.410  13.668   6.930
 6015POPC   C4A75306  35.351  13.557   7.369
 6015POPC   C1B75307  35.138  13.289   6.195
 6015POPC   C2B75308  35.111  13.169   6.665
 6015POPC   C3B75309  34.970  13.404   7.076
 6015POPC   C4B75310  34.906  13.455   7.570
 6016POPC   NC375311   0.413  28.786   5.520
 6016POPC   PO475312   0.972  28.512   5.543
 6016POPC   GL175313   0.650  28.258   5.766
 6016POPC   GL275314   0.275  28.295   5.791
 6016POPC   C1A75315   0.561  28.265   6.206
 6016POPC   D2A75316   0.488  28.021   6.542
 6016POPC   C3A75317   0.533  28.223   6.940
 6016POPC   C4A75318   0.740  28.203   7.317
 6016POPC   C1B75319   0.061  28.418   6.201
 6016POPC   C2B75320   0.182  28.437   6.607
 6016POPC   C3B75321   0.009  28.350   6.987
 6016POPC   C4B75322   0.224  28.500   7.312
 6017POPC   NC375323  29.759  24.636   5.431
 6017POPC   PO475324  30.261  24.203   5.426
 6017POPC   GL175325  30.033  24.371   5.814
 6017POPC   GL275326  29.847  24.684   5.923
 6017POPC   C1A75327  29.859  24.295   6.258
 6017POPC   D2A75328  29.766  24.106   6.662
 6017POPC   C3A75329  30.013  24.199   7.002
 6017POPC   C4A75330  29.901  24.292   7.447
 6017POPC   C1B75331  30.248  24.683   6.160
 6017POPC   C2B75332  30.184  24.537   6.578
 6017POPC   C3B75333  29.972  24.731   6.925
 6017POPC   C4B75334  30.227  24.590   7.235
 6018POPC   NC375335   5.720   3.845   5.636
 6018POPC   PO475336   6.080   4.263   5.175
 6018POPC   GL175337   5.879   4.377   5.692
 6018POPC   GL275338   5.853   4.104   6.032
 6018POPC   C1A75339   5.793   4.564   6.166
 6018POPC   D2A75340   5.830   4.695   6.592
 6018POPC   C3A75341   5.789   4.410   6.931
 6018POPC   C4A75342   5.975   4.436   7.283
 6018POPC   C1B75343   5.514   3.904   6.310
 6018POPC   C2B75344   5.439   3.886   6.777
 6018POPC   C3B75345   5.501   4.023   7.230
 6018POPC   C4B75346   5.547   4.032   7.701
 6019POPC   NC375347  19.563  14.564   5.625
 6019POPC   PO475348  20.110  14.165   5.453
 6019POPC   GL175349  19.993  14.354   5.791
 6019POPC   GL275350  19.711  14.098   5.800
 6019POPC   C1A75351  19.878  14.402   6.206
 6019POPC   D2A75352  19.987  14.128   6.526
 6019POPC   C3A75353  19.968  14.465   6.811
 6019POPC   C4A75354  20.105  14.526   7.220
 6019POPC   C1B75355  19.519  14.033   6.212
 6019POPC   C2B75356  19.507  14.208   6.642
 6019POPC   C3B75357  19.586  14.307   7.082
 6019POPC   C4B75358  19.670  14.112   7.430
 6020POPC   NC375359  29.365   2.355   5.263
 6020POPC   PO475360  29.436   1.735   5.609
 6020POPC   GL175361  29.354   2.082   5.848
 6020POPC   GL275362  29.057   1.942   5.958
 6020POPC   C1A75363  29.289   2.192   6.314
 6020POPC   D2A75364  29.086   1.937   6.643
 6020POPC   C3A75365  29.260   2.079   7.029
 6020POPC   C4A75366  29.500   1.952   7.384
 6020POPC   C1B75367  28.813   1.698   6.274
 6020POPC   C2B75368  28.820   1.419   6.657
 6020POPC   C3B75369  28.707   1.536   7.076
 6020POPC   C4B75370  28.937   1.831   7.343
 6021POPC   NC375371  11.097   1.954   5.524
 6021POPC   PO475372  11.655   1.465   5.464
 6021POPC   GL175373  11.589   1.810   5.785
 6021POPC   GL275374  11.289   1.700   5.951
 6021POPC   C1A75375  11.500   2.031   6.241
 6021POPC   D2A75376  11.158   1.975   6.604
 6021POPC   C3A75377  11.305   1.988   7.047
 6021POPC   C4A75378  11.575   2.312   7.254
 6021POPC   C1B75379  10.975   1.625   6.273
 6021POPC   C2B75380  11.026   1.466   6.700
 6021POPC   C3B75381  10.910   1.621   7.096
 6021POPC   C4B75382  11.113   1.801   7.504
 6022POPC   NC375383   4.794  42.502   5.581
 6022POPC   PO475384   5.514  42.255   5.619
 6022POPC   GL175385   5.163  42.251   5.827
 6022POPC   GL275386   5.188  42.596   5.895
 6022POPC   C1A75387   4.926  42.223   6.205
 6022POPC   D2A75388   4.984  41.976   6.565
 6022POPC   C3A75389   4.991  42.108   6.969
 6022POPC   C4A75390   5.219  42.215   7.288
 6022POPC   C1B75391   5.022  42.716   6.311
 6022POPC   C2B75392   4.831  42.554   6.694
 6022POPC   C3B75393   4.933  42.619   7.132
 6022POPC   C4B75394   4.925  42.746   7.532
 6023POPC   NC375395  34.519  25.097   5.453
 6023POPC   PO475396  34.809  25.644   5.431
 6023POPC   GL175397  34.698  25.417   5.806
 6023POPC   GL275398  34.361  25.466   5.892
 6023POPC   C1A75399  34.770  25.202   6.178
 6023POPC   D2A75400  34.621  24.949   6.499
 6023POPC   C3A75401  34.710  25.102   6.904
 6023POPC   C4A75402  34.490  25.130   7.283
 6023POPC   C1B75403  34.238  25.301   6.309
 6023POPC   C2B75404  34.195  25.126   6.740
 6023POPC   C3B75405  33.982  25.063   7.140
 6023POPC   C4B75406  34.078  25.157   7.597
 6024POPC   NC375407  25.034  12.214   5.616
 6024POPC   PO475408  25.320  12.834   5.430
 6024POPC   GL175409  25.156  12.971   5.815
 6024POPC   GL275410  24.966  12.668   5.875
 6024POPC   C1A75411  25.245  13.032   6.251
 6024POPC   D2A75412  25.095  13.056   6.667
 6024POPC   C3A75413  25.395  12.942   6.953
 6024POPC   C4A75414  25.392  13.129   7.319
 6024POPC   C1B75415  24.828  12.448   6.246
 6024POPC   C2B75416  24.881  12.385   6.697
 6024POPC   C3B75417  24.938  12.667   7.006
 6024POPC   C4B75418  25.208  12.653   7.338
 6025POPC   NC375419   1.717  14.729   5.375
 6025POPC   PO475420   1.010  14.449   5.446
 6025POPC   GL175421   1.119  14.249   5.846
 6025POPC   GL275422   1.477  14.318   5.843
 6025POPC   C1A75423   1.007  13.974   6.205
 6025POPC   D2A75424   0.728  13.951   6.589
 6025POPC   C3A75425   0.863  14.099   7.009
 6025POPC   C4A75426   1.243  14.176   7.283
 6025POPC   C1B75427   1.401  14.323   6.270
 6025POPC   C2B75428   1.152  14.292   6.615
 6025POPC   C3B75429   1.095  14.560   6.941
 6025POPC   C4B75430   1.247  14.686   7.302
 6026POPC   NC375431  32.635   3.755   5.547
 6026POPC   PO475432  32.032   3.447   5.452
 6026POPC   GL175433  32.212   3.591   5.799
 6026POPC   GL275434  32.490   3.349   5.863
 6026POPC   C1A75435  32.019   3.585   6.189
 6026POPC   D2A75436  32.111   3.701   6.593
 6026POPC   C3A75437  32.039   3.412   6.880
 6026POPC   C4A75438  32.268   3.206   7.155
 6026POPC   C1B75439  32.497   3.421   6.305
 6026POPC   C2B75440  32.636   3.716   6.588
 6026POPC   C3B75441  32.478   3.663   6.980
 6026POPC   C4B75442  32.605   3.741   7.325
 6027POPC   NC375443  34.322  23.912   5.400
 6027POPC   PO475444  34.965  24.068   5.484
 6027POPC   GL175445  34.718  23.856   5.778
 6027POPC   GL275446  34.537  23.546   5.693
 6027POPC   C1A75447  34.616  23.905   6.207
 6027POPC   D2A75448  34.587  24.029   6.625
 6027POPC   C3A75449  34.472  23.798   7.033
 6027POPC   C4A75450  34.793  23.921   7.367
 6027POPC   C1B75451  34.488  23.394   6.109
 6027POPC   C2B75452  34.420  23.525   6.532
 6027POPC   C3B75453  34.655  23.356   6.862
 6027POPC   C4B75454  34.519  23.290   7.243
 6028POPC   NC375455   7.921   7.784   5.494
 6028POPC   PO475456   8.461   7.358   5.420
 6028POPC   GL175457   8.143   7.385   5.739
 6028POPC   GL275458   7.932   7.088   5.737
 6028POPC   C1A75459   8.183   7.534   6.167
 6028POPC   D2A75460   8.334   7.281   6.541
 6028POPC   C3A75461   8.180   7.349   6.966
 6028POPC   C4A75462   8.335   7.529   7.355
 6028POPC   C1B75463   7.799   7.212   6.139
 6028POPC   C2B75464   7.845   7.474   6.547
 6028POPC   C3B75465   7.655   7.316   6.902
 6028POPC   C4B75466   7.765   7.408   7.297
 6029POPC   NC375467   1.996  10.066   5.340
 6029POPC   PO475468   1.979   9.400   5.287
 6029POPC   GL175469   1.809   9.596   5.678
 6029POPC   GL275470   2.149   9.714   5.791
 6029POPC   C1A75471   1.830   9.483   6.149
 6029POPC   D2A75472   2.066   9.622   6.542
 6029POPC   C3A75473   1.837   9.660   6.945
 6029POPC   C4A75474   1.874  10.025   7.216
 6029POPC   C1B75475   2.203   9.982   6.174
 6029POPC   C2B75476   2.384  10.038   6.600
 6029POPC   C3B75477   2.345   9.956   7.051
 6029POPC   C4B75478   2.190   9.607   7.319
 6030POPC   NC375479  15.319   4.240   5.652
 6030POPC   PO475480  14.958   4.619   5.206
 6030POPC   GL175481  14.852   4.512   5.708
 6030POPC   GL275482  14.800   4.142   5.840
 6030POPC   C1A75483  15.036   4.518   6.181
 6030POPC   D2A75484  15.324   4.660   6.545
 6030POPC   C3A75485  15.161   4.554   6.943
 6030POPC   C4A75486  15.353   4.446   7.313
 6030POPC   C1B75487  15.065   3.991   6.204
 6030POPC   C2B75488  15.176   4.167   6.601
 6030POPC   C3B75489  15.120   4.064   7.044
 6030POPC   C4B75490  15.077   4.017   7.506
 6031POPC   NC375491   0.622  22.004   5.180
 6031POPC   PO475492   0.274  22.462   5.533
 6031POPC   GL175493   0.414  22.274   5.909
 6031POPC   GL275494   0.549  21.999   5.712
 6031POPC   C1A75495   0.378  22.352   6.384
 6031POPC   D2A75496   0.204  22.437   6.817
 6031POPC   C3A75497   0.442  22.219   7.111
 6031POPC   C4A75498   0.403  21.779   7.214
 6031POPC   C1B75499   0.567  21.874   6.188
 6031POPC   C2B75500   0.594  21.934   6.660
 6031POPC   C3B75501   0.852  21.916   7.049
 6031POPC   C4B75502   0.793  21.817   7.542
 6032POPC   NC375503  36.418   9.424   5.607
 6032POPC   PO475504  36.032   8.933   5.264
 6032POPC   GL175505  35.995   8.740   5.684
 6032POPC   GL275506  36.265   8.961   5.858
 6032POPC   C1A75507  35.886   8.795   6.148
 6032POPC   D2A75508  36.136   8.912   6.525
 6032POPC   C3A75509  35.889   8.847   6.897
 6032POPC   C4A75510  36.048   8.865   7.307
 6032POPC   C1B75511  36.194   9.313   6.211
 6032POPC   C2B75512  36.275   9.406   6.680
 6032POPC   C3B75513  35.983   9.331   7.058
 6032POPC   C4B75514  35.902   9.325   7.540
 6033POPC   NC375515  20.235  14.705   5.441
 6033POPC   PO475516  20.478  15.381   5.481
 6033POPC   GL175517  20.576  15.069   5.826
 6033POPC   GL275518  20.939  14.927   5.812
 6033POPC   C1A75519  20.421  14.951   6.274
 6033POPC   D2A75520  20.264  14.891   6.723
 6033POPC   C3A75521  20.394  15.161   7.069
 6033POPC   C4A75522  20.748  15.442   7.150
 6033POPC   C1B75523  20.910  15.098   6.240
 6033POPC   C2B75524  20.765  15.121   6.680
 6033POPC   C3B75525  21.010  14.980   7.029
 6033POPC   C4B75526  21.054  14.658   7.359
 6034POPC   NC375527  34.988  22.940   5.418
 6034POPC   PO475528  34.371  22.695   5.473
 6034POPC   GL175529  34.588  22.861   5.842
 6034POPC   GL275530  34.921  22.748   5.902
 6034POPC   C1A75531  34.514  22.763   6.288
 6034POPC   D2A75532  34.375  23.001   6.609
 6034POPC   C3A75533  34.475  22.821   7.015
 6034POPC   C4A75534  34.464  22.790   7.478
 6034POPC   C1B75535  34.902  23.070   6.254
 6034POPC   C2B75536  34.882  22.944   6.679
 6034POPC   C3B75537  34.942  22.969   7.131
 6034POPC   C4B75538  34.997  22.511   7.185
 6035POPC   NC375539  30.972  25.697   5.390
 6035POPC   PO475540  30.724  25.003   5.464
 6035POPC   GL175541  30.673  25.125   5.875
 6035POPC   GL275542  30.840  25.449   5.862
 6035POPC   C1A75543  30.636  25.148   6.327
 6035POPC   D2A75544  30.939  25.295   6.541
 6035POPC   C3A75545  30.870  25.216   6.948
 6035POPC   C4A75546  31.051  25.463   7.222
 6035POPC   C1B75547  30.594  25.633   6.202
 6035POPC   C2B75548  30.296  25.556   6.504
 6035POPC   C3B75549  30.427  25.415   6.817
 6035POPC   C4B75550  30.559  25.542   7.205
 6036POPC   NC375551  25.378  22.148   5.398
 6036POPC   PO475552  25.738  22.733   5.513
 6036POPC   GL175553  25.673  22.357   5.811
 6036POPC   GL275554  25.316  22.217   5.890
 6036POPC   C1A75555  25.693  22.022   6.146
 6036POPC   D2A75556  25.391  22.031   6.493
 6036POPC   C3A75557  25.442  22.415   6.743
 6036POPC   C4A75558  25.408  22.368   7.194
 6036POPC   C1B75559  25.010  21.983   6.138
 6036POPC   C2B75560  24.844  22.173   6.513
 6036POPC   C3B75561  25.046  22.137   6.895
 6036POPC   C4B75562  25.014  22.077   7.312
 6037POPC   NC375563   2.431  24.936   5.502
 6037POPC   PO475564   2.825  24.512   5.190
 6037POPC   GL175565   2.716  24.529   5.677
 6037POPC   GL275566   2.603  24.211   5.850
 6037POPC   C1A75567   2.909  24.535   6.113
 6037POPC   D2A75568   2.941  24.229   6.463
 6037POPC   C3A75569   3.047  24.448   6.861
 6037POPC   C4A75570   2.882  24.561   7.243
 6037POPC   C1B75571   2.448  24.229   6.237
 6037POPC   C2B75572   2.462  24.082   6.635
 6037POPC   C3B75573   2.737  24.062   6.968
 6037POPC   C4B75574   2.540  24.114   7.321
 6038POPC   NC375575  31.808   3.915   5.448
 6038POPC   PO475576  31.263   3.415   5.421
 6038POPC   GL175577  31.420   3.690   5.736
 6038POPC   GL275578  31.099   3.873   5.836
 6038POPC   C1A75579  31.592   3.910   6.131
 6038POPC   D2A75580  31.599   3.722   6.565
 6038POPC   C3A75581  31.753   3.822   6.998
 6038POPC   C4A75582  31.649   3.902   7.440
 6038POPC   C1B75583  31.211   3.579   6.175
 6038POPC   C2B75584  31.256   3.351   6.568
 6038POPC   C3B75585  31.344   3.521   7.012
 6038POPC   C4B75586  31.282   3.247   7.385
 6039POPC   NC375587  11.422  10.988   5.530
 6039POPC   PO475588  11.044  10.549   5.194
 6039POPC   GL175589  11.150  10.556   5.672
 6039POPC   GL275590  11.041  10.256   5.785
 6039POPC   C1A75591  11.301  10.692   6.114
 6039POPC   D2A75592  11.199  10.696   6.579
 6039POPC   C3A75593  11.426  10.598   6.968
 6039POPC   C4A75594  11.545  10.668   7.405
 6039POPC   C1B75595  10.959  10.295   6.229
 6039POPC   C2B75596  10.860  10.178   6.659
 6039POPC   C3B75597  11.121  10.185   7.003
 6039POPC   C4B75598  11.134  10.385   7.366
 6040POPC   NC375599  18.358  37.180   5.346
 6040POPC   PO475600  18.019  36.643   5.447
 6040POPC   GL175601  18.239  36.812   5.792
 6040POPC   GL275602  18.568  36.694   5.905
 6040POPC   C1A75603  18.183  36.849   6.228
 6040POPC   D2A75604  18.310  36.729   6.631
 6040POPC   C3A75605  18.204  37.008   6.937
 6040POPC   C4A75606  18.013  36.871   7.300
 6040POPC   C1B75607  18.636  37.080   6.156
 6040POPC   C2B75608  18.680  37.160   6.587
 6040POPC   C3B75609  18.716  36.963   6.979
 6040POPC   C4B75610  18.511  37.085   7.352
 6041POPC   NC375611  14.632  25.282   5.401
 6041POPC   PO475612  13.992  25.178   5.260
 6041POPC   GL175613  14.184  25.272   5.707
 6041POPC   GL275614  14.490  25.451   5.831
 6041POPC   C1A75615  14.144  25.356   6.181
 6041POPC   D2A75616  14.251  25.219   6.581
 6041POPC   C3A75617  14.256  25.485   6.937
 6041POPC   C4A75618  14.231  25.188   7.258
 6041POPC   C1B75619  14.656  25.290   6.208
 6041POPC   C2B75620  14.733  25.393   6.638
 6041POPC   C3B75621  14.714  25.279   7.065
 6041POPC   C4B75622  14.606  25.490   7.459
 6042POPC   NC375623  42.551  27.491   5.513
 6042POPC   PO475624  42.044  27.857   5.474
 6042POPC   GL175625  42.164  27.617   5.827
 6042POPC   GL275626  42.507  27.637   5.999
 6042POPC   C1A75627  42.032  27.424   6.188
 6042POPC   D2A75628  42.324  27.496   6.515
 6042POPC   C3A75629  42.160  27.496   6.926
 6042POPC   C4A75630  42.505  27.417   7.162
 6042POPC   C1B75631  42.687  27.962   6.284
 6042POPC   C2B75632  42.813  27.913   6.718
 6042POPC   C3B75633  42.527  27.900   7.075
 6042POPC   C4B75634  42.571  27.758   7.536
 6043POPC   NC375635   6.034  35.546   5.419
 6043POPC   PO475636   5.795  34.981   5.482
 6043POPC   GL175637   5.705  35.172   5.839
 6043POPC   GL275638   5.727  35.542   5.827
 6043POPC   C1A75639   5.830  35.100   6.221
 6043POPC   D2A75640   6.045  35.200   6.576
 6043POPC   C3A75641   5.862  34.992   6.894
 6043POPC   C4A75642   5.823  35.182   7.266
 6043POPC   C1B75643   5.996  35.586   6.191
 6043POPC   C2B75644   5.876  35.680   6.625
 6043POPC   C3B75645   5.985  35.642   7.059
 6043POPC   C4B75646   5.665  35.776   7.356
 6044POPC   NC375647  44.208  41.685   5.403
 6044POPC   PO475648  44.806  41.498   5.364
 6044POPC   GL175649  44.737  41.554   5.821
 6044POPC   GL275650  44.458  41.778   5.853
 6044POPC   C1A75651  44.716  41.334   6.254
 6044POPC   D2A75652  44.813  41.336   6.711
 6044POPC   C3A75653  44.673  41.301   7.138
 6044POPC   C4A75654   0.048  41.420   7.393
 6044POPC   C1B75655  44.659  41.843   6.246
 6044POPC   C2B75656  44.564  41.769   6.672
 6044POPC   C3B75657  44.780  41.785   7.069
 6044POPC   C4B75658  44.616  41.750   7.520
 6045POPC   NC375659  12.022  32.512   5.618
 6045POPC   PO475660  11.506  32.144   5.338
 6045POPC   GL175661  11.682  32.092   5.791
 6045POPC   GL275662  11.828  32.392   6.060
 6045POPC   C1A75663  11.864  31.893   6.162
 6045POPC   D2A75664  11.994  32.146   6.482
 6045POPC   C3A75665  12.157  32.019   6.811
 6045POPC   C4A75666  12.137  32.105   7.254
 6045POPC   C1B75667  12.235  32.546   6.324
 6045POPC   C2B75668  12.240  32.527   6.777
 6045POPC   C3B75669  12.231  32.595   7.206
 6045POPC   C4B75670  12.398  32.623   7.611
 6046POPC   NC375671   7.780  17.183   5.492
 6046POPC   PO475672   8.460  17.277   5.330
 6046POPC   GL175673   8.232  17.295   5.727
 6046POPC   GL275674   8.129  17.579   5.856
 6046POPC   C1A75675   8.359  17.288   6.176
 6046POPC   D2A75676   8.207  17.305   6.595
 6046POPC   C3A75677   8.525  17.409   6.872
 6046POPC   C4A75678   8.412  17.396   7.269
 6046POPC   C1B75679   8.119  17.779   6.227
 6046POPC   C2B75680   7.980  17.778   6.606
 6046POPC   C3B75681   8.202  17.772   6.968
 6046POPC   C4B75682   8.034  17.747   7.337
 6047POPC   NC375683  16.994  18.544   5.438
 6047POPC   PO475684  16.499  18.194   5.150
 6047POPC   GL175685  16.576  18.260   5.648
 6047POPC   GL275686  16.899  18.273   5.839
 6047POPC   C1A75687  16.477  18.355   6.107
 6047POPC   D2A75688  16.637  18.452   6.536
 6047POPC   C3A75689  16.380  18.286   6.863
 6047POPC   C4A75690  16.513  18.413   7.241
 6047POPC   C1B75691  16.876  18.045   6.222
 6047POPC   C2B75692  16.718  17.942   6.630
 6047POPC   C3B75693  16.882  18.209   6.953
 6047POPC   C4B75694  17.035  18.113   7.352
 6048POPC   NC375695  24.402   0.034   5.545
 6048POPC   PO475696  24.726  44.455   5.488
 6048POPC   GL175697  24.458  44.511   5.846
 6048POPC   GL275698  24.653  44.807   5.928
 6048POPC   C1A75699  24.371  44.605   6.301
 6048POPC   D2A75700  24.255  44.646   6.744
 6048POPC   C3A75701  24.535  44.457   7.044
 6048POPC   C4A75702  24.481  44.425   7.482
 6048POPC   C1B75703  24.802   0.028   6.289
 6048POPC   C2B75704  24.546   0.158   6.642
 6048POPC   C3B75705  24.568  44.985   7.053
 6048POPC   C4B75706  24.719  44.871   7.444
 6049POPC   NC375707  14.944  11.901   5.486
 6049POPC   PO475708  15.574  11.885   5.477
 6049POPC   GL175709  15.314  11.947   5.843
 6049POPC   GL275710  15.210  12.287   5.803
 6049POPC   C1A75711  15.078  12.051   6.224
 6049POPC   D2A75712  14.988  12.167   6.634
 6049POPC   C3A75713  15.278  12.001   6.928
 6049POPC   C4A75714  15.081  11.997   7.294
 6049POPC   C1B75715  15.355  12.513   6.202
 6049POPC   C2B75716  15.211  12.633   6.632
 6049POPC   C3B75717  15.191  12.481   7.102
 6049POPC   C4B75718  15.202  12.518   7.570
 6050POPC   NC375719  28.651   9.407   5.362
 6050POPC   PO475720  28.864  10.017   5.378
 6050POPC   GL175721  28.640  10.006   5.814
 6050POPC   GL275722  28.534   9.648   5.815
 6050POPC   C1A75723  28.467   9.866   6.277
 6050POPC   D2A75724  28.202   9.659   6.610
 6050POPC   C3A75725  28.114   9.795   7.027
 6050POPC   C4A75726  28.478   9.825   7.258
 6050POPC   C1B75727  28.805   9.443   6.141
 6050POPC   C2B75728  28.727   9.311   6.552
 6050POPC   C3B75729  28.537   9.445   6.918
 6050POPC   C4B75730  28.475   9.314   7.315
 6051POPC   NC375731  43.784  37.396   5.217
 6051POPC   PO475732  44.098  36.808   5.335
 6051POPC   GL175733  43.975  36.897   5.730
 6051POPC   GL275734  43.677  37.095   5.783
 6051POPC   C1A75735  44.157  36.932   6.110
 6051POPC   D2A75736  44.220  36.827   6.530
 6051POPC   C3A75737  44.241  37.133   6.853
 6051POPC   C4A75738  44.029  36.931   7.193
 6051POPC   C1B75739  43.694  37.174   6.244
 6051POPC   C2B75740  43.719  37.080   6.693
 6051POPC   C3B75741  43.538  37.046   7.104
 6051POPC   C4B75742  43.708  37.269   7.440
 6052POPC   NC375743   4.475  33.787   5.128
 6052POPC   PO475744   4.786  33.616   5.659
 6052POPC   GL175745   4.531  33.847   5.922
 6052POPC   GL275746   4.248  33.811   5.709
 6052POPC   C1A75747   4.485  33.944   6.330
 6052POPC   D2A75748   4.391  33.604   6.591
 6052POPC   C3A75749   4.515  33.700   6.998
 6052POPC   C4A75750   4.550  34.146   7.153
 6052POPC   C1B75751   4.044  34.040   6.036
 6052POPC   C2B75752   4.040  34.206   6.441
 6052POPC   C3B75753   4.139  34.074   6.853
 6052POPC   C4B75754   3.872  34.038   7.196
 6053POPC   NC375755  12.649  20.835   5.569
 6053POPC   PO475756  13.051  20.373   5.436
 6053POPC   GL175757  12.987  20.588   5.845
 6053POPC   GL275758  13.059  20.981   5.865
 6053POPC   C1A75759  12.868  20.438   6.234
 6053POPC   D2A75760  12.971  20.587   6.643
 6053POPC   C3A75761  12.917  20.308   6.981
 6053POPC   C4A75762  13.165  20.241   7.377
 6053POPC   C1B75763  12.810  20.969   6.251
 6053POPC   C2B75764  12.708  21.034   6.686
 6053POPC   C3B75765  12.696  20.802   7.032
 6053POPC   C4B75766  12.942  20.698   7.350
 6054POPC   NC375767  12.637  44.304   5.566
 6054POPC   PO475768  12.840  44.944   5.430
 6054POPC   GL175769  12.829  44.763   5.814
 6054POPC   GL275770  13.059  44.487   5.754
 6054POPC   C1A75771  12.951  44.931   6.197
 6054POPC   D2A75772  12.990  44.711   6.555
 6054POPC   C3A75773  12.992  44.940   6.899
 6054POPC   C4A75774  13.074  44.797   7.313
 6054POPC   C1B75775  12.856  44.342   6.169
 6054POPC   C2B75776  12.793  44.226   6.587
 6054POPC   C3B75777  12.916  44.405   6.987
 6054POPC   C4B75778  12.771  44.426   7.424
 6055POPC   NC375779  30.161  44.058   5.267
 6055POPC   PO475780  29.523  43.743   5.296
 6055POPC   GL175781  29.718  43.809   5.764
 6055POPC   GL275782  30.071  43.862   5.829
 6055POPC   C1A75783  29.774  44.080   6.186
 6055POPC   D2A75784  29.640  44.230   6.594
 6055POPC   C3A75785  29.819  44.021   6.975
 6055POPC   C4A75786  29.874  44.086   7.446
 6055POPC   C1B75787  30.284  44.129   6.152
 6055POPC   C2B75788  30.156  44.230   6.589
 6055POPC   C3B75789  30.284  44.222   7.020
 6055POPC   C4B75790  30.330  43.897   7.334
 6056POPC   NC375791  32.728  18.945   5.386
 6056POPC   PO475792  33.417  18.886   5.436
 6056POPC   GL175793  33.129  19.016   5.735
 6056POPC   GL275794  33.401  19.218   5.823
 6056POPC   C1A75795  32.916  19.174   6.135
 6056POPC   D2A75796  32.874  19.397   6.528
 6056POPC   C3A75797  32.930  19.177   6.889
 6056POPC   C4A75798  32.770  19.058   7.254
 6056POPC   C1B75799  33.385  18.972   6.176
 6056POPC   C2B75800  33.311  19.085   6.549
 6056POPC   C3B75801  33.538  19.015   6.883
 6056POPC   C4B75802  33.308  18.971   7.196
 6057POPC   NC375803  42.777   4.172   5.192
 6057POPC   PO475804  43.009   4.698   5.501
 6057POPC   GL175805  43.029   4.410   5.870
 6057POPC   GL275806  42.801   4.088   5.803
 6057POPC   C1A75807  43.094   4.418   6.334
 6057POPC   D2A75808  43.251   4.280   6.733
 6057POPC   C3A75809  43.136   4.449   7.119
 6057POPC   C4A75810  43.292   4.189   7.472
 6057POPC   C1B75811  42.720   3.854   6.232
 6057POPC   C2B75812  42.947   3.866   6.630
 6057POPC   C3B75813  42.961   3.975   7.059
 6057POPC   C4B75814  42.804   3.941   7.455
 6058POPC   NC375815  26.652  27.307   5.397
 6058POPC   PO475816  27.090  27.800   5.389
 6058POPC   GL175817  26.982  27.525   5.724
 6058POPC   GL275818  26.668  27.566   5.844
 6058POPC   C1A75819  27.090  27.518   6.156
 6058POPC   D2A75820  26.990  27.413   6.568
 6058POPC   C3A75821  27.095  27.644   6.934
 6058POPC   C4A75822  26.853  27.757   7.306
 6058POPC   C1B75823  26.588  27.633   6.295
 6058POPC   C2B75824  26.466  27.448   6.708
 6058POPC   C3B75825  26.466  27.427   7.175
 6058POPC   C4B75826  26.412  27.303   7.632
 6059POPC   NC375827  36.759  18.697   5.530
 6059POPC   PO475828  37.119  19.270   5.471
 6059POPC   GL175829  36.947  19.244   5.845
 6059POPC   GL275830  36.589  19.216   5.796
 6059POPC   C1A75831  37.089  18.935   6.142
 6059POPC   D2A75832  36.998  18.748   6.512
 6059POPC   C3A75833  37.210  18.914   6.858
 6059POPC   C4A75834  37.061  18.808   7.229
 6059POPC   C1B75835  36.603  19.090   6.249
 6059POPC   C2B75836  36.763  19.185   6.684
 6059POPC   C3B75837  36.757  19.241   7.146
 6059POPC   C4B75838  36.427  19.296   7.462
 6060POPC   NC375839  32.677   5.370   5.428
 6060POPC   PO475840  33.153   4.905   5.507
 6060POPC   GL175841  32.875   5.002   5.819
 6060POPC   GL275842  32.856   5.360   5.916
 6060POPC   C1A75843  32.991   4.995   6.252
 6060POPC   D2A75844  32.856   5.240   6.599
 6060POPC   C3A75845  33.092   5.179   6.965
 6060POPC   C4A75846  33.098   4.866   7.280
 6060POPC   C1B75847  32.765   5.658   6.264
 6060POPC   C2B75848  32.676   5.728   6.658
 6060POPC   C3B75849  32.639   5.473   7.006
 6060POPC   C4B75850  32.867   5.332   7.396
 6061POPC   NC375851   3.096  20.175   5.302
 6061POPC   PO475852   2.449  20.041   5.301
 6061POPC   GL175853   2.754  19.878   5.682
 6061POPC   GL275854   2.872  19.488   5.776
 6061POPC   C1A75855   2.800  19.844   6.147
 6061POPC   D2A75856   2.669  20.106   6.505
 6061POPC   C3A75857   2.613  19.876   6.906
 6061POPC   C4A75858   2.884  19.878   7.256
 6061POPC   C1B75859   3.093  19.402   6.157
 6061POPC   C2B75860   3.051  19.593   6.576
 6061POPC   C3B75861   2.885  19.432   6.980
 6061POPC   C4B75862   2.890  19.348   7.434
 6062POPC   NC375863  31.633  10.934   5.565
 6062POPC   PO475864  31.425  11.559   5.470
 6062POPC   GL175865  31.434  11.387   5.883
 6062POPC   GL275866  31.176  11.131   5.920
 6062POPC   C1A75867  31.631  11.271   6.285
 6062POPC   D2A75868  31.604  10.946   6.608
 6062POPC   C3A75869  31.440  11.093   6.969
 6062POPC   C4A75870  31.552  11.182   7.351
 6062POPC   C1B75871  31.154  11.128   6.390
 6062POPC   C2B75872  31.230  11.452   6.695
 6062POPC   C3B75873  31.148  11.571   7.127
 6062POPC   C4B75874  31.174  11.480   7.593
 6063POPC   NC375875  19.901  34.685   5.481
 6063POPC   PO475876  19.439  34.280   5.351
 6063POPC   GL175877  19.617  34.398   5.811
 6063POPC   GL275878  19.977  34.402   5.907
 6063POPC   C1A75879  19.665  34.626   6.262
 6063POPC   D2A75880  19.729  34.876   6.695
 6063POPC   C3A75881  19.765  34.656   7.071
 6063POPC   C4A75882  19.364  34.444   7.109
 6063POPC   C1B75883  20.234  34.470   6.306
 6063POPC   C2B75884  20.171  34.424   6.785
 6063POPC   C3B75885  20.099  34.316   7.225
 6063POPC   C4B75886  20.262  34.324   7.683
 6064POPC   NC375887   3.067  29.551   5.361
 6064POPC   PO475888   2.800  28.952   5.418
 6064POPC   GL175889   2.937  29.172   5.753
 6064POPC   GL275890   2.651  29.380   5.721
 6064POPC   C1A75891   2.838  29.053   6.172
 6064POPC   D2A75892   2.744  28.793   6.556
 6064POPC   C3A75893   2.762  29.006   6.951
 6064POPC   C4A75894   3.005  29.189   7.271
 6064POPC   C1B75895   2.518  29.464   6.144
 6064POPC   C2B75896   2.681  29.363   6.557
 6064POPC   C3B75897   2.636  29.537   6.916
 6064POPC   C4B75898   2.602  29.487   7.322
 6065POPC   NC375899  44.254   4.098   5.598
 6065POPC   PO475900  43.626   4.177   5.404
 6065POPC   GL175901  43.802   4.399   5.790
 6065POPC   GL275902  43.681   4.742   5.925
 6065POPC   C1A75903  43.963   4.319   6.216
 6065POPC   D2A75904  44.138   4.064   6.550
 6065POPC   C3A75905  44.169   4.265   6.939
 6065POPC   C4A75906  44.117   4.423   7.333
 6065POPC   C1B75907  43.564   4.619   6.326
 6065POPC   C2B75908  43.742   4.430   6.691
 6065POPC   C3B75909  43.653   4.430   7.121
 6065POPC   C4B75910  43.689   4.840   7.252
 6066POPC   NC375911  14.516   3.934   5.424
 6066POPC   PO475912  14.153   3.404   5.411
 6066POPC   GL175913  14.379   3.318   5.799
 6066POPC   GL275914  14.514   3.646   5.882
 6066POPC   C1A75915  14.516   3.173   6.202
 6066POPC   D2A75916  14.475   3.438   6.543
 6066POPC   C3A75917  14.370   3.343   6.950
 6066POPC   C4A75918  14.294   3.581   7.302
 6066POPC   C1B75919  14.566   3.892   6.260
 6066POPC   C2B75920  14.777   3.848   6.662
 6066POPC   C3B75921  14.717   3.763   7.084
 6066POPC   C4B75922  14.563   3.987   7.458
 6067POPC   NC375923  21.305  29.061   5.327
 6067POPC   PO475924  21.317  29.687   5.219
 6067POPC   GL175925  21.293  29.364   5.711
 6067POPC   GL275926  21.149  29.032   5.828
 6067POPC   C1A75927  21.417  29.351   6.185
 6067POPC   D2A75928  21.509  29.531   6.602
 6067POPC   C3A75929  21.356  29.393   6.991
 6067POPC   C4A75930  21.617  29.363   7.321
 6067POPC   C1B75931  21.160  28.924   6.282
 6067POPC   C2B75932  21.436  28.989   6.635
 6067POPC   C3B75933  21.502  28.892   7.061
 6067POPC   C4B75934  21.237  29.014   7.359
 6068POPC   NC375935   9.436   8.088   5.385
 6068POPC   PO475936   9.802   8.685   5.392
 6068POPC   GL175937   9.851   8.513   5.805
 6068POPC   GL275938   9.577   8.297   5.823
 6068POPC   C1A75939  10.016   8.115   6.040
 6068POPC   D2A75940   9.962   7.875   6.454
 6068POPC   C3A75941   9.696   8.068   6.794
 6068POPC   C4A75942   9.711   8.094   7.247
 6068POPC   C1B75943   9.601   8.302   6.272
 6068POPC   C2B75944   9.830   8.539   6.569
 6068POPC   C3B75945   9.632   8.656   6.923
 6068POPC   C4B75946   9.780   8.608   7.298
 6069POPC   NC375947  13.856  26.506   5.492
 6069POPC   PO475948  13.665  27.133   5.353
 6069POPC   GL175949  13.580  27.163   5.778
 6069POPC   GL275950  13.576  26.815   5.817
 6069POPC   C1A75951  13.522  27.141   6.222
 6069POPC   D2A75952  13.277  27.152   6.598
 6069POPC   C3A75953  13.539  27.075   6.951
 6069POPC   C4A75954  13.601  26.684   7.189
 6069POPC   C1B75955  13.706  26.672   6.215
 6069POPC   C2B75956  13.619  26.665   6.631
 6069POPC   C3B75957  13.808  26.352   6.882
 6069POPC   C4B75958  13.923  26.290   7.289
 6070POPC   NC375959  33.916  43.943   5.319
 6070POPC   PO475960  33.298  43.886   5.307
 6070POPC   GL175961  33.574  44.014   5.722
 6070POPC   GL275962  33.940  44.148   5.787
 6070POPC   C1A75963  33.627  43.974   6.189
 6070POPC   D2A75964  33.607  43.730   6.587
 6070POPC   C3A75965  33.574  43.992   6.960
 6070POPC   C4A75966  33.298  44.022   7.304
 6070POPC   C1B75967  33.977  44.331   6.223
 6070POPC   C2B75968  34.034  44.138   6.631
 6070POPC   C3B75969  33.985  44.301   7.048
 6070POPC   C4B75970  34.154  44.230   7.503
 6071POPC   NC375971   0.282  10.869   5.505
 6071POPC   PO475972   0.421  11.500   5.397
 6071POPC   GL175973   0.552  11.589   5.798
 6071POPC   GL275974   0.539  11.196   5.892
 6071POPC   C1A75975   0.627  11.564   6.231
 6071POPC   D2A75976   0.359  11.281   6.436
 6071POPC   C3A75977   0.263  11.318   6.847
 6071POPC   C4A75978   0.430  11.436   7.215
 6071POPC   C1B75979   0.682  10.928   6.280
 6071POPC   C2B75980   0.638  10.954   6.752
 6071POPC   C3B75981   0.413  10.922   7.142
 6071POPC   C4B75982   0.295  11.042   7.543
 6072POPC   NC375983   0.512  20.472   5.281
 6072POPC   PO475984   0.216  21.012   5.571
 6072POPC   GL175985   0.307  20.607   5.743
 6072POPC   GL275986   0.638  20.570   5.776
 6072POPC   C1A75987   0.297  20.472   6.192
 6072POPC   D2A75988   0.267  20.686   6.625
 6072POPC   C3A75989   0.244  20.501   7.067
 6072POPC   C4A75990   0.136  20.827   7.379
 6072POPC   C1B75991   0.788  20.720   6.189
 6072POPC   C2B75992   0.798  20.618   6.637
 6072POPC   C3B75993   0.634  20.834   6.995
 6072POPC   C4B75994   0.624  20.668   7.418
 6073POPC   NC375995  43.406   6.494   5.586
 6073POPC   PO475996  42.953   6.973   5.510
 6073POPC   GL175997  43.029   6.727   5.860
 6073POPC   GL275998  43.358   6.859   5.960
 6073POPC   C1A75999  42.999   6.677   6.291
 6073POPC   D2A76000  43.323   6.847   6.552
 6073POPC   C3A76001  43.427   6.730   6.984
 6073POPC   C4A76002  43.128   6.787   7.302
 6073POPC   C1B76003  43.441   6.452   6.213
 6073POPC   C2B76004  43.246   6.327   6.590
 6073POPC   C3B76005  43.026   6.436   6.950
 6073POPC   C4B76006  43.297   6.299   7.296
 6074POPC   NC376007  17.431   8.606   5.538
 6074POPC   PO476008  17.634   7.963   5.362
 6074POPC   GL176009  17.539   8.161   5.795
 6074POPC   GL276010  17.569   8.495   5.998
 6074POPC   C1A76011  17.662   8.041   6.200
 6074POPC   D2A76012  17.546   8.156   6.592
 6074POPC   C3A76013  17.657   7.818   6.833
 6074POPC   C4A76014  17.645   7.878   7.216
 6074POPC   C1B76015  17.425   8.686   6.367
 6074POPC   C2B76016  17.634   8.688   6.738
 6074POPC   C3B76017  17.731   8.349   7.034
 6074POPC   C4B76018  17.276   8.250   7.097
 6075POPC   NC376019  16.014  28.580   5.335
 6075POPC   PO476020  15.916  27.925   5.384
 6075POPC   GL176021  16.047  28.184   5.712
 6075POPC   GL276022  15.850  28.510   5.803
 6075POPC   C1A76023  15.972  28.137   6.161
 6075POPC   D2A76024  15.884  28.469   6.455
 6075POPC   C3A76025  15.871  28.408   6.911
 6075POPC   C4A76026  15.896  28.114   7.291
 6075POPC   C1B76027  16.252  28.555   6.030
 6075POPC   C2B76028  16.405  28.680   6.445
 6075POPC   C3B76029  16.429  28.501   6.854
 6075POPC   C4B76030  16.239  28.493   7.249
 6076POPC   NC376031  26.785  19.529   5.537
 6076POPC   PO476032  27.208  19.988   5.281
 6076POPC   GL176033  26.951  19.988   5.690
 6076POPC   GL276034  26.590  20.005   5.702
 6076POPC   C1A76035  26.971  19.856   6.134
 6076POPC   D2A76036  27.167  19.908   6.550
 6076POPC   C3A76037  26.958  19.713   6.908
 6076POPC   C4A76038  26.768  20.024   7.160
 6076POPC   C1B76039  26.451  19.835   6.117
 6076POPC   C2B76040  26.541  19.875   6.576
 6076POPC   C3B76041  26.327  19.845   6.991
 6076POPC   C4B76042  26.370  19.884   7.476
 6077POPC   NC376043  24.372  13.505   5.431
 6077POPC   PO476044  23.648  13.672   5.409
 6077POPC   GL176045  23.703  13.624   5.819
 6077POPC   GL276046  24.008  13.393   5.840
 6077POPC   C1A76047  23.508  13.800   6.216
 6077POPC   D2A76048  23.687  13.796   6.647
 6077POPC   C3A76049  23.509  13.559   7.001
 6077POPC   C4A76050  23.527  13.463   7.453
 6077POPC   C1B76051  24.016  13.698   6.207
 6077POPC   C2B76052  24.225  13.710   6.588
 6077POPC   C3B76053  24.096  13.888   6.950
 6077POPC   C4B76054  23.944  13.674   7.263
 6078POPC   NC376055   5.223  16.312   5.589
 6078POPC   PO476056   4.897  15.686   5.427
 6078POPC   GL176057   5.061  15.849   5.777
 6078POPC   GL276058   5.221  15.565   5.856
 6078POPC   C1A76059   4.894  15.969   6.160
 6078POPC   D2A76060   4.642  16.103   6.515
 6078POPC   C3A76061   4.911  16.115   6.895
 6078POPC   C4A76062   5.077  16.066   7.323
 6078POPC   C1B76063   5.416  15.814   6.219
 6078POPC   C2B76064   5.427  15.919   6.684
 6078POPC   C3B76065   5.225  15.668   7.023
 6078POPC   C4B76066   5.133  15.599   7.450
 6079POPC   NC376067  17.637  29.394   5.239
 6079POPC   PO476068  18.311  29.719   5.264
 6079POPC   GL176069  18.421  29.773   5.734
 6079POPC   GL276070  18.148  29.600   5.920
 6079POPC   C1A76071  18.465  29.867   6.200
 6079POPC   D2A76072  18.261  30.053   6.572
 6079POPC   C3A76073  18.382  29.920   6.991
 6079POPC   C4A76074  18.579  29.687   7.307
 6079POPC   C1B76075  17.988  29.561   6.336
 6079POPC   C2B76076  18.015  29.623   6.764
 6079POPC   C3B76077  17.879  29.707   7.151
 6079POPC   C4B76078  18.121  29.772   7.522
 6080POPC   NC376079  22.466  13.483   5.412
 6080POPC   PO476080  21.787  13.398   5.621
 6080POPC   GL176081  21.943  13.640   5.959
 6080POPC   GL276082  22.277  13.785   5.881
 6080POPC   C1A76083  22.091  13.761   6.353
 6080POPC   D2A76084  22.185  13.537   6.672
 6080POPC   C3A76085  21.913  13.483   6.986
 6080POPC   C4A76086  21.859  13.272   7.360
 6080POPC   C1B76087  22.530  13.534   6.215
 6080POPC   C2B76088  22.695  13.484   6.628
 6080POPC   C3B76089  22.506  13.624   7.045
 6080POPC   C4B76090  22.675  13.419   7.381
 6081POPC   NC376091   1.043  37.016   5.422
 6081POPC   PO476092   1.646  36.655   5.374
 6081POPC   GL176093   1.324  36.695   5.742
 6081POPC   GL276094   0.966  36.845   5.873
 6081POPC   C1A76095   1.400  36.829   6.167
 6081POPC   D2A76096   1.516  36.747   6.575
 6081POPC   C3A76097   1.299  36.910   6.898
 6081POPC   C4A76098   1.531  37.142   7.214
 6081POPC   C1B76099   0.892  36.730   6.285
 6081POPC   C2B76100   1.036  36.515   6.627
 6081POPC   C3B76101   0.951  36.541   7.069
 6081POPC   C4B76102   0.955  36.513   7.523
 6082POPC   NC376103  39.690  18.572   5.488
 6082POPC   PO476104  40.260  18.452   5.671
 6082POPC   GL176105  40.083  18.159   5.933
 6082POPC   GL276106  39.739  18.170   5.873
 6082POPC   C1A76107  39.988  18.290   6.374
 6082POPC   D2A76108  40.099  18.666   6.665
 6082POPC   C3A76109  40.275  18.558   7.073
 6082POPC   C4A76110  40.080  18.359   7.421
 6082POPC   C1B76111  39.556  18.468   6.194
 6082POPC   C2B76112  39.587  18.629   6.623
 6082POPC   C3B76113  39.702  18.438   7.013
 6082POPC   C4B76114  39.588  18.124   7.299
 6083POPC   NC376115  30.239  42.559   5.336
 6083POPC   PO476116  29.642  42.364   5.109
 6083POPC   GL176117  29.689  42.459   5.605
 6083POPC   GL276118  30.019  42.369   5.782
 6083POPC   C1A76119  29.609  42.344   6.076
 6083POPC   D2A76120  29.839  42.416   6.489
 6083POPC   C3A76121  29.759  42.216   6.922
 6083POPC   C4A76122  29.697  42.452   7.304
 6083POPC   C1B76123  30.207  42.172   6.175
 6083POPC   C2B76124  30.335  42.337   6.578
 6083POPC   C3B76125  30.185  42.507   6.948
 6083POPC   C4B76126  30.168  42.249   7.284
 6084POPC   NC376127   1.041  22.878   5.200
 6084POPC   PO476128   1.434  23.003   5.697
 6084POPC   GL176129   1.083  23.016   5.906
 6084POPC   GL276130   1.110  22.667   5.910
 6084POPC   C1A76131   1.137  23.200   6.315
 6084POPC   D2A76132   1.373  23.079   6.693
 6084POPC   C3A76133   1.113  22.885   6.983
 6084POPC   C4A76134   0.952  22.917   7.333
 6084POPC   C1B76135   1.323  22.715   6.275
 6084POPC   C2B76136   1.289  22.558   6.633
 6084POPC   C3B76137   1.544  22.639   6.940
 6084POPC   C4B76138   1.571  22.964   7.202
 6085POPC   NC376139  22.465  15.510   5.564
 6085POPC   PO476140  21.824  15.471   5.346
 6085POPC   GL176141  21.980  15.752   5.741
 6085POPC   GL276142  22.329  15.928   5.818
 6085POPC   C1A76143  21.961  15.984   6.176
 6085POPC   D2A76144  22.212  16.010   6.579
 6085POPC   C3A76145  21.986  16.060   6.979
 6085POPC   C4A76146  21.826  15.914   7.381
 6085POPC   C1B76147  22.339  15.645   6.177
 6085POPC   C2B76148  22.498  15.558   6.558
 6085POPC   C3B76149  22.297  15.600   6.921
 6085POPC   C4B76150  22.275  15.739   7.297
 6086POPC   NC376151  17.197  10.459   5.390
 6086POPC   PO476152  16.551  10.296   5.263
 6086POPC   GL176153  16.596  10.494   5.691
 6086POPC   GL276154  16.924  10.592   5.822
 6086POPC   C1A76155  16.493  10.653   6.105
 6086POPC   D2A76156  16.809  10.642   6.455
 6086POPC   C3A76157  16.673  10.444   6.825
 6086POPC   C4A76158  16.485  10.543   7.251
 6086POPC   C1B76159  16.802  10.241   6.095
 6086POPC   C2B76160  16.880  10.066   6.477
 6086POPC   C3B76161  17.102  10.084   6.848
 6086POPC   C4B76162  16.896  10.233   7.224
 6087POPC   NC376163  44.049  24.142   5.073
 6087POPC   PO476164  43.645  23.717   5.424
 6087POPC   GL176165  43.821  23.608   5.830
 6087POPC   GL276166  43.983  23.910   5.888
 6087POPC   C1A76167  43.883  23.571   6.305
 6087POPC   D2A76168  43.770  23.726   6.737
 6087POPC   C3A76169  43.760  23.435   7.101
 6087POPC   C4A76170  43.908  23.418   7.527
 6087POPC   C1B76171  44.179  24.010   6.290
 6087POPC   C2B76172  44.256  24.270   6.645
 6087POPC   C3B76173  44.208  24.129   7.059
 6087POPC   C4B76174  43.817  23.947   7.203
 6088POPC   NC376175  20.517  24.055   5.486
 6088POPC   PO476176  20.688  24.704   5.342
 6088POPC   GL176177  20.500  24.701   5.782
 6088POPC   GL276178  20.666  24.398   5.887
 6088POPC   C1A76179  20.582  24.767   6.247
 6088POPC   D2A76180  20.675  24.583   6.652
 6088POPC   C3A76181  20.488  24.767   7.011
 6088POPC   C4A76182  20.407  24.814   7.443
 6088POPC   C1B76183  20.397  24.263   6.258
 6088POPC   C2B76184  20.522  24.085   6.668
 6088POPC   C3B76185  20.699  24.230   7.056
 6088POPC   C4B76186  20.911  24.145   7.432
 6089POPC   NC376187   5.690  41.175   5.536
 6089POPC   PO476188   5.554  40.503   5.543
 6089POPC   GL176189   5.601  40.756   5.903
 6089POPC   GL276190   5.917  40.901   5.917
 6089POPC   C1A76191   5.639  40.724   6.362
 6089POPC   D2A76192   5.580  40.652   6.826
 6089POPC   C3A76193   5.799  40.862   7.172
 6089POPC   C4A76194   6.145  41.039   7.373
 6089POPC   C1B76195   6.137  40.774   6.301
 6089POPC   C2B76196   6.109  40.708   6.769
 6089POPC   C3B76197   6.417  40.702   7.126
 6089POPC   C4B76198   6.502  40.670   7.577
 6090POPC   NC376199   9.712   7.217   4.978
 6090POPC   PO476200   9.699   7.693   5.463
 6090POPC   GL176201   9.905   7.629   5.881
 6090POPC   GL276202  10.156   7.356   5.863
 6090POPC   C1A76203   9.716   7.436   6.247
 6090POPC   D2A76204   9.563   7.567   6.652
 6090POPC   C3A76205   9.611   7.269   6.968
 6090POPC   C4A76206  10.006   7.108   7.145
 6090POPC   C1B76207  10.210   7.429   6.293
 6090POPC   C2B76208  10.038   7.385   6.676
 6090POPC   C3B76209   9.966   7.653   7.002
 6090POPC   C4B76210  10.250   7.859   7.244
 6091POPC   NC376211  39.500  21.979   5.395
 6091POPC   PO476212  39.411  22.601   5.571
 6091POPC   GL176213  39.381  22.268   5.902
 6091POPC   GL276214  39.208  21.955   5.820
 6091POPC   C1A76215  39.115  22.181   6.274
 6091POPC   D2A76216  39.057  21.993   6.683
 6091POPC   C3A76217  39.037  22.238   7.063
 6091POPC   C4A76218  38.914  22.082   7.439
 6091POPC   C1B76219  39.419  21.772   6.191
 6091POPC   C2B76220  39.643  21.953   6.529
 6091POPC   C3B76221  39.516  22.104   6.926
 6091POPC   C4B76222  39.281  21.785   7.149
 6092POPC   NC376223  31.407   5.901   5.351
 6092POPC   PO476224  31.156   5.307   5.589
 6092POPC   GL176225  31.413   5.598   5.856
 6092POPC   GL276226  31.498   5.973   5.875
 6092POPC   C1A76227  31.301   5.698   6.289
 6092POPC   D2A76228  31.160   5.890   6.691
 6092POPC   C3A76229  31.281   5.682   7.093
 6092POPC   C4A76230  31.657   5.601   7.382
 6092POPC   C1B76231  31.319   6.217   6.226
 6092POPC   C2B76232  31.085   6.389   6.570
 6092POPC   C3B76233  31.131   6.307   7.037
 6092POPC   C4B76234  31.394   6.097   7.347
 6093POPC   NC376235  16.289  43.742   5.460
 6093POPC   PO476236  15.615  43.953   5.381
 6093POPC   GL176237  15.824  43.731   5.730
 6093POPC   GL276238  16.027  43.989   5.832
 6093POPC   C1A76239  15.852  43.643   6.190
 6093POPC   D2A76240  16.056  43.620   6.600
 6093POPC   C3A76241  16.015  43.946   6.907
 6093POPC   C4A76242  15.757  43.942   7.271
 6093POPC   C1B76243  15.883  44.190   6.182
 6093POPC   C2B76244  15.724  44.407   6.518
 6093POPC   C3B76245  15.549  44.257   6.896
 6093POPC   C4B76246  15.561  44.434   7.290
 6094POPC   NC376247  12.487   6.410   5.373
 6094POPC   PO476248  11.862   6.785   5.419
 6094POPC   GL176249  11.875   6.668   5.807
 6094POPC   GL276250  12.118   6.449   5.726
 6094POPC   C1A76251  12.170   6.793   6.144
 6094POPC   D2A76252  12.155   7.032   6.527
 6094POPC   C3A76253  12.014   6.737   6.808
 6094POPC   C4A76254  11.961   6.517   7.172
 6094POPC   C1B76255  12.070   6.273   6.136
 6094POPC   C2B76256  12.117   6.252   6.591
 6094POPC   C3B76257  12.360   6.234   6.972
 6094POPC   C4B76258  12.408   6.362   7.377
 6095POPC   NC376259  14.806   7.666   5.547
 6095POPC   PO476260  14.109   7.589   5.339
 6095POPC   GL176261  14.381   7.399   5.671
 6095POPC   GL276262  14.399   7.684   5.840
 6095POPC   C1A76263  14.529   7.240   6.094
 6095POPC   D2A76264  14.849   7.140   6.450
 6095POPC   C3A76265  14.678   7.146   6.890
 6095POPC   C4A76266  14.337   7.227   7.189
 6095POPC   C1B76267  14.205   7.617   6.224
 6095POPC   C2B76268  14.359   7.443   6.586
 6095POPC   C3B76269  14.105   7.587   6.903
 6095POPC   C4B76270  14.137   7.681   7.315
 6096POPC   NC376271  44.674  13.438   5.257
 6096POPC   PO476272  44.847  12.803   5.148
 6096POPC   GL176273  44.784  12.868   5.640
 6096POPC   GL276274  44.484  12.719   5.821
 6096POPC   C1A76275  44.773  13.093   6.040
 6096POPC   D2A76276  44.638  13.087   6.468
 6096POPC   C3A76277  44.901  12.860   6.728
 6096POPC   C4A76278  44.867  12.790   7.146
 6096POPC   C1B76279  44.316  12.749   6.258
 6096POPC   C2B76280  44.175  12.720   6.700
 6096POPC   C3B76281  44.358  12.866   7.074
 6096POPC   C4B76282  44.432  12.911   7.541
 6097POPC   NC376283  22.651  25.327   5.508
 6097POPC   PO476284  22.038  25.088   5.586
 6097POPC   GL176285  22.351  25.088   5.875
 6097POPC   GL276286  22.293  25.445   5.913
 6097POPC   C1A76287  22.473  25.175   6.308
 6097POPC   D2A76288  22.246  25.329   6.650
 6097POPC   C3A76289  21.989  25.085   6.832
 6097POPC   C4A76290  22.139  25.123   7.212
 6097POPC   C1B76291  21.944  25.399   6.231
 6097POPC   C2B76292  21.822  25.653   6.601
 6097POPC   C3B76293  21.830  25.537   7.058
 6097POPC   C4B76294  21.913  25.640   7.499
 6098POPC   NC376295  24.532   9.489   5.385
 6098POPC   PO476296  24.464   8.801   5.421
 6098POPC   GL176297  24.526   8.948   5.800
 6098POPC   GL276298  24.328   9.231   5.792
 6098POPC   C1A76299  24.394   8.861   6.210
 6098POPC   D2A76300  24.446   8.703   6.625
 6098POPC   C3A76301  24.596   8.943   6.997
 6098POPC   C4A76302  24.254   8.886   7.299
 6098POPC   C1B76303  24.579   9.334   6.157
 6098POPC   C2B76304  24.450   9.224   6.579
 6098POPC   C3B76305  24.225   9.282   6.964
 6098POPC   C4B76306  24.446   9.360   7.339
 6099POPC   NC376307   2.965  36.548   5.504
 6099POPC   PO476308   2.786  35.937   5.382
 6099POPC   GL176309   2.711  36.176   5.781
 6099POPC   GL276310   2.387  36.147   5.931
 6099POPC   C1A76311   2.874  36.174   6.185
 6099POPC   D2A76312   2.928  36.382   6.566
 6099POPC   C3A76313   2.979  36.122   6.904
 6099POPC   C4A76314   3.052  36.087   7.309
 6099POPC   C1B76315   2.155  36.120   6.318
 6099POPC   C2B76316   2.194  35.940   6.741
 6099POPC   C3B76317   2.465  35.998   7.103
 6099POPC   C4B76318   2.632  36.389   7.233
 6100POPC   NC376319  37.567  35.683   5.467
 6100POPC   PO476320  37.391  35.044   5.553
 6100POPC   GL176321  37.609  35.192   5.929
 6100POPC   GL276322  37.754  35.547   5.936
 6100POPC   C1A76323  37.522  35.304   6.375
 6100POPC   D2A76324  37.832  35.472   6.699
 6100POPC   C3A76325  37.777  35.510   7.120
 6100POPC   C4A76326  37.384  35.520   7.269
 6100POPC   C1B76327  38.023  35.345   6.249
 6100POPC   C2B76328  38.259  35.228   6.626
 6100POPC   C3B76329  38.173  35.065   7.045
 6100POPC   C4B76330  38.051  35.126   7.492
 6101POPC   NC376331   1.989  23.424   5.276
 6101POPC   PO476332   2.236  24.081   5.505
 6101POPC   GL176333   2.028  23.936   5.885
 6101POPC   GL276334   1.962  23.576   5.802
 6101POPC   C1A76335   2.027  23.956   6.347
 6101POPC   D2A76336   1.878  24.135   6.718
 6101POPC   C3A76337   2.118  23.961   7.020
 6101POPC   C4A76338   1.856  23.855   7.324
 6101POPC   C1B76339   1.864  23.264   6.127
 6101POPC   C2B76340   1.808  23.319   6.549
 6101POPC   C3B76341   1.765  23.544   6.913
 6101POPC   C4B76342   2.044  23.396   7.162
 6102POPC   NC376343   5.305  34.877   5.563
 6102POPC   PO476344   4.930  35.481   5.424
 6102POPC   GL176345   4.865  35.223   5.788
 6102POPC   GL276346   5.201  35.276   5.879
 6102POPC   C1A76347   4.863  35.165   6.248
 6102POPC   D2A76348   5.036  35.417   6.578
 6102POPC   C3A76349   4.991  35.282   6.990
 6102POPC   C4A76350   4.916  35.493   7.346
 6102POPC   C1B76351   5.422  35.424   6.228
 6102POPC   C2B76352   5.529  35.267   6.613
 6102POPC   C3B76353   5.488  35.461   6.981
 6102POPC   C4B76354   5.374  35.345   7.384
 6103POPC   NC376355  26.741  39.215   5.403
 6103POPC   PO476356  26.397  39.725   5.537
 6103POPC   GL176357  26.608  39.419   5.850
 6103POPC   GL276358  26.553  39.038   5.837
 6103POPC   C1A76359  26.859  39.271   6.213
 6103POPC   D2A76360  27.019  39.427   6.637
 6103POPC   C3A76361  26.739  39.658   6.913
 6103POPC   C4A76362  26.708  39.783   7.343
 6103POPC   C1B76363  26.483  38.911   6.268
 6103POPC   C2B76364  26.555  39.176   6.640
 6103POPC   C3B76365  26.789  39.006   6.963
 6103POPC   C4B76366  26.711  38.989   7.448
 6104POPC   NC376367  40.271  43.923   5.228
 6104POPC   PO476368  40.913  43.853   5.309
 6104POPC   GL176369  40.908  43.751   5.747
 6104POPC   GL276370  40.572  43.676   5.743
 6104POPC   C1A76371  40.951  43.939   6.172
 6104POPC   D2A76372  41.124  44.124   6.537
 6104POPC   C3A76373  41.205  43.851   6.925
 6104POPC   C4A76374  40.964  43.752   7.300
 6104POPC   C1B76375  40.390  43.436   6.071
 6104POPC   C2B76376  40.592  43.340   6.462
 6104POPC   C3B76377  40.570  43.438   6.948
 6104POPC   C4B76378  40.465  43.665   7.361
 6105POPC   NC376379  29.246  42.441   5.322
 6105POPC   PO476380  28.611  42.166   5.333
 6105POPC   GL176381  28.792  42.345   5.749
 6105POPC   GL276382  29.139  42.359   5.831
 6105POPC   C1A76383  28.735  42.264   6.205
 6105POPC   D2A76384  28.917  42.070   6.591
 6105POPC   C3A76385  28.821  42.244   6.972
 6105POPC   C4A76386  29.130  42.348   7.304
 6105POPC   C1B76387  29.214  42.009   6.155
 6105POPC   C2B76388  29.440  41.956   6.551
 6105POPC   C3B76389  29.319  41.937   6.987
 6105POPC   C4B76390  29.453  41.973   7.424
 6106POPC   NC376391   0.231  12.902   5.386
 6106POPC   PO476392   0.896  12.907   5.343
 6106POPC   GL176393   0.621  12.806   5.743
 6106POPC   GL276394   0.251  12.872   5.892
 6106POPC   C1A76395   0.653  12.981   6.179
 6106POPC   D2A76396   0.421  12.931   6.561
 6106POPC   C3A76397   0.713  12.923   6.904
 6106POPC   C4A76398   0.771  12.659   7.283
 6106POPC   C1B76399   0.291  12.549   6.213
 6106POPC   C2B76400   0.148  12.408   6.616
 6106POPC   C3B76401   0.310  12.587   6.988
 6106POPC   C4B76402   0.268  12.495   7.412
 6107POPC   NC376403  15.379  25.471   5.446
 6107POPC   PO476404  14.984  25.083   5.180
 6107POPC   GL176405  15.027  25.212   5.711
 6107POPC   GL276406  15.314  25.027   5.829
 6107POPC   C1A76407  15.160  25.397   6.138
 6107POPC   D2A76408  15.252  25.300   6.582
 6107POPC   C3A76409  15.145  25.544   6.930
 6107POPC   C4A76410  15.163  25.429   7.340
 6107POPC   C1B76411  15.499  25.003   6.221
 6107POPC   C2B76412  15.511  24.840   6.644
 6107POPC   C3B76413  15.464  25.071   7.032
 6107POPC   C4B76414  15.362  24.900   7.428
 6108POPC   NC376415  38.110  29.188   5.544
 6108POPC   PO476416  38.764  29.026   5.381
 6108POPC   GL176417  38.779  29.166   5.807
 6108POPC   GL276418  38.456  29.112   5.919
 6108POPC   C1A76419  38.806  29.307   6.248
 6108POPC   D2A76420  38.653  29.330   6.676
 6108POPC   C3A76421  38.753  29.142   7.061
 6108POPC   C4A76422  38.573  29.153   7.447
 6108POPC   C1B76423  38.342  29.060   6.338
 6108POPC   C2B76424  38.200  28.851   6.702
 6108POPC   C3B76425  38.233  28.931   7.132
 6108POPC   C4B76426  38.442  28.674   7.411
 6109POPC   NC376427  29.393  32.122   5.450
 6109POPC   PO476428  28.729  32.228   5.391
 6109POPC   GL176429  28.791  32.017   5.788
 6109POPC   GL276430  29.135  32.157   5.879
 6109POPC   C1A76431  28.896  31.834   6.193
 6109POPC   D2A76432  29.161  32.082   6.455
 6109POPC   C3A76433  29.241  31.992   6.866
 6109POPC   C4A76434  29.163  32.261   7.206
 6109POPC   C1B76435  29.386  32.418   6.149
 6109POPC   C2B76436  29.573  32.609   6.483
 6109POPC   C3B76437  29.489  32.471   6.883
 6109POPC   C4B76438  29.652  32.467   7.302
 6110POPC   NC376439  18.093  43.344   5.319
 6110POPC   PO476440  18.458  42.783   5.397
 6110POPC   GL176441  18.399  43.122   5.685
 6110POPC   GL276442  18.267  42.873   5.876
 6110POPC   C1A76443  18.356  43.293   6.126
 6110POPC   D2A76444  18.248  43.060   6.528
 6110POPC   C3A76445  18.295  43.226   6.972
 6110POPC   C4A76446  18.304  43.391   7.417
 6110POPC   C1B76447  17.943  42.850   6.149
 6110POPC   C2B76448  17.951  42.643   6.525
 6110POPC   C3B76449  18.032  42.778   6.911
 6110POPC   C4B76450  17.855  43.029   7.164
 6111POPC   NC376451   4.851  24.592   5.472
 6111POPC   PO476452   5.359  24.085   5.367
 6111POPC   GL176453   5.230  24.427   5.771
 6111POPC   GL276454   4.909  24.412   5.964
 6111POPC   C1A76455   5.349  24.484   6.194
 6111POPC   D2A76456   5.022  24.395   6.486
 6111POPC   C3A76457   5.245  24.392   6.843
 6111POPC   C4A76458   5.118  24.395   7.245
 6111POPC   C1B76459   4.818  24.786   6.155
 6111POPC   C2B76460   4.676  24.821   6.550
 6111POPC   C3B76461   4.860  24.728   6.942
 6111POPC   C4B76462   4.683  24.698   7.359
 6112POPC   NC376463  25.735  33.743   5.544
 6112POPC   PO476464  25.036  33.429   5.486
 6112POPC   GL176465  25.103  33.713   5.856
 6112POPC   GL276466  25.213  34.066   5.762
 6112POPC   C1A76467  25.204  33.646   6.286
 6112POPC   D2A76468  25.025  33.708   6.682
 6112POPC   C3A76469  25.231  33.678   7.058
 6112POPC   C4A76470  24.937  33.614   7.387
 6112POPC   C1B76471  25.185  34.160   6.222
 6112POPC   C2B76472  24.952  34.213   6.618
 6112POPC   C3B76473  25.134  34.182   7.029
 6112POPC   C4B76474  25.274  34.010   7.444
 6113POPC   NC376475  40.757  21.087   5.368
 6113POPC   PO476476  40.601  21.722   5.565
 6113POPC   GL176477  40.672  21.332   5.844
 6113POPC   GL276478  40.560  20.960   5.839
 6113POPC   C1A76479  40.811  21.468   6.252
 6113POPC   D2A76480  40.695  21.689   6.604
 6113POPC   C3A76481  40.871  21.543   6.977
 6113POPC   C4A76482  41.141  21.204   7.152
 6113POPC   C1B76483  40.784  20.962   6.235
 6113POPC   C2B76484  40.902  21.140   6.652
 6113POPC   C3B76485  40.678  21.015   7.004
 6113POPC   C4B76486  40.426  20.879   7.323
 6114POPC   NC376487   5.521   8.404   5.338
 6114POPC   PO476488   4.856   8.223   5.294
 6114POPC   GL176489   5.114   8.227   5.667
 6114POPC   GL276490   5.130   7.861   5.733
 6114POPC   C1A76491   5.109   8.324   6.134
 6114POPC   D2A76492   4.806   8.267   6.496
 6114POPC   C3A76493   4.889   8.374   6.957
 6114POPC   C4A76494   5.264   8.501   7.173
 6114POPC   C1B76495   4.993   7.823   6.164
 6114POPC   C2B76496   5.196   7.945   6.554
 6114POPC   C3B76497   5.310   7.761   6.913
 6114POPC   C4B76498   5.186   7.972   7.229
 6115POPC   NC376499   0.540   9.178   5.392
 6115POPC   PO476500   0.668   8.456   5.444
 6115POPC   GL176501   0.725   8.814   5.716
 6115POPC   GL276502   0.356   8.858   5.766
 6115POPC   C1A76503   0.672   9.020   6.143
 6115POPC   D2A76504   0.665   9.208   6.546
 6115POPC   C3A76505   0.469   9.039   6.900
 6115POPC   C4A76506   0.593   9.209   7.262
 6115POPC   C1B76507   0.507   8.546   6.104
 6115POPC   C2B76508   0.461   8.686   6.516
 6115POPC   C3B76509   0.301   8.551   6.920
 6115POPC   C4B76510   0.198   8.768   7.300
 6116POPC   NC376511  35.147  38.149   5.264
 6116POPC   PO476512  35.800  38.357   5.273
 6116POPC   GL176513  35.680  38.242   5.730
 6116POPC   GL276514  35.323  38.329   5.752
 6116POPC   C1A76515  35.696  38.426   6.180
 6116POPC   D2A76516  35.514  38.491   6.609
 6116POPC   C3A76517  35.487  38.164   6.928
 6116POPC   C4A76518  35.473  37.982   7.325
 6116POPC   C1B76519  35.186  38.527   6.154
 6116POPC   C2B76520  35.001  38.470   6.566
 6116POPC   C3B76521  35.146  38.533   7.008
 6116POPC   C4B76522  34.918  38.577   7.402
 6117POPC   NC376523  40.038  27.377   5.037
 6117POPC   PO476524  39.860  27.917   5.359
 6117POPC   GL176525  39.902  27.764   5.811
 6117POPC   GL276526  39.822  27.446   5.848
 6117POPC   C1A76527  40.218  27.670   6.174
 6117POPC   D2A76528  40.388  27.927   6.535
 6117POPC   C3A76529  40.393  27.735   6.961
 6117POPC   C4A76530  40.093  27.821   7.301
 6117POPC   C1B76531  39.733  27.696   6.296
 6117POPC   C2B76532  39.881  27.610   6.720
 6117POPC   C3B76533  39.850  27.198   6.911
 6117POPC   C4B76534  39.756  27.041   7.334
 6118POPC   NC376535  16.499  43.159   5.366
 6118POPC   PO476536  17.056  43.379   5.657
 6118POPC   GL176537  16.725  43.119   5.825
 6118POPC   GL276538  16.460  43.368   5.824
 6118POPC   C1A76539  16.654  42.789   6.140
 6118POPC   D2A76540  16.764  42.686   6.576
 6118POPC   C3A76541  16.526  42.898   6.917
 6118POPC   C4A76542  16.587  43.237   7.208
 6118POPC   C1B76543  16.379  43.506   6.225
 6118POPC   C2B76544  16.510  43.362   6.649
 6118POPC   C3B76545  16.915  43.422   6.862
 6118POPC   C4B76546  17.006  43.673   7.211
 6119POPC   NC376547  40.367  42.329   5.591
 6119POPC   PO476548  41.132  42.097   5.504
 6119POPC   GL176549  40.847  42.330   5.801
 6119POPC   GL276550  40.668  42.059   5.956
 6119POPC   C1A76551  40.686  42.478   6.224
 6119POPC   D2A76552  40.829  42.449   6.673
 6119POPC   C3A76553  40.763  42.300   7.111
 6119POPC   C4A76554  41.141  42.391   7.327
 6119POPC   C1B76555  40.899  42.015   6.346
 6119POPC   C2B76556  40.959  41.971   6.789
 6119POPC   C3B76557  41.067  41.888   7.203
 6119POPC   C4B76558  40.805  41.879   7.571
 6120POPC   NC376559  34.980   3.422   5.508
 6120POPC   PO476560  34.257   3.561   5.494
 6120POPC   GL176561  34.444   3.588   5.860
 6120POPC   GL276562  34.688   3.854   5.827
 6120POPC   C1A76563  34.467   3.286   6.162
 6120POPC   D2A76564  34.622   3.276   6.548
 6120POPC   C3A76565  34.361   3.209   6.904
 6120POPC   C4A76566  34.440   2.996   7.296
 6120POPC   C1B76567  34.867   3.596   6.187
 6120POPC   C2B76568  35.019   3.582   6.592
 6120POPC   C3B76569  34.752   3.564   6.952
 6120POPC   C4B76570  34.758   3.763   7.356
 6121POPC   NC376571   2.074  41.445   5.450
 6121POPC   PO476572   2.450  42.023   5.464
 6121POPC   GL176573   2.239  41.806   5.818
 6121POPC   GL276574   2.127  41.459   5.952
 6121POPC   C1A76575   2.088  41.908   6.233
 6121POPC   D2A76576   2.277  41.662   6.535
 6121POPC   C3A76577   2.117  41.552   6.895
 6121POPC   C4A76578   1.972  41.762   7.238
 6121POPC   C1B76579   1.767  41.294   6.159
 6121POPC   C2B76580   1.617  41.216   6.576
 6121POPC   C3B76581   1.799  41.132   6.960
 6121POPC   C4B76582   2.103  41.220   7.270
 6122POPC   NC376583  32.037  33.618   5.500
 6122POPC   PO476584  31.406  33.908   5.452
 6122POPC   GL176585  31.466  33.702   5.823
 6122POPC   GL276586  31.785  33.807   5.877
 6122POPC   C1A76587  31.262  33.576   6.204
 6122POPC   D2A76588  31.297  33.798   6.605
 6122POPC   C3A76589  31.160  33.625   6.993
 6122POPC   C4A76590  31.369  33.791   7.347
 6122POPC   C1B76591  31.742  33.751   6.275
 6122POPC   C2B76592  31.882  33.888   6.642
 6122POPC   C3B76593  31.753  33.809   7.027
 6122POPC   C4B76594  31.802  33.540   7.400
 6123POPC   NC376595  16.743  40.591   5.682
 6123POPC   PO476596  16.971  41.085   5.411
 6123POPC   GL176597  16.732  41.158   5.827
 6123POPC   GL276598  16.452  40.937   5.958
 6123POPC   C1A76599  16.872  41.064   6.278
 6123POPC   D2A76600  17.052  41.200   6.697
 6123POPC   C3A76601  17.002  40.893   7.039
 6123POPC   C4A76602  16.984  40.428   7.122
 6123POPC   C1B76603  16.574  40.617   6.290
 6123POPC   C2B76604  16.761  40.580   6.671
 6123POPC   C3B76605  16.526  40.622   7.014
 6123POPC   C4B76606  16.141  40.613   7.205
 6124POPC   NC376607   0.857  17.555   5.282
 6124POPC   PO476608   1.647  17.585   5.263
 6124POPC   GL176609   1.326  17.642   5.671
 6124POPC   GL276610   0.948  17.560   5.792
 6124POPC   C1A76611   1.296  17.653   6.159
 6124POPC   D2A76612   1.134  17.740   6.609
 6124POPC   C3A76613   1.342  17.622   6.992
 6124POPC   C4A76614   1.431  17.473   7.415
 6124POPC   C1B76615   0.957  17.256   6.170
 6124POPC   C2B76616   0.870  17.302   6.596
 6124POPC   C3B76617   0.858  17.319   7.013
 6124POPC   C4B76618   0.950  17.037   7.346
 6125POPC   NC376619   3.834  30.100   5.611
 6125POPC   PO476620   3.170  29.951   5.609
 6125POPC   GL176621   3.437  29.746   5.904
 6125POPC   GL276622   3.582  30.079   6.051
 6125POPC   C1A76623   3.533  29.665   6.339
 6125POPC   D2A76624   3.644  30.007   6.596
 6125POPC   C3A76625   3.485  30.112   7.007
 6125POPC   C4A76626   3.507  29.840   7.381
 6125POPC   C1B76627   3.983  29.899   6.225
 6125POPC   C2B76628   4.009  29.638   6.596
 6125POPC   C3B76629   3.849  29.753   6.997
 6125POPC   C4B76630   3.961  30.115   7.254
 6126POPC   NC376631  29.653  13.512   5.219
 6126POPC   PO476632  30.335  13.615   5.272
 6126POPC   GL176633  30.037  13.661   5.645
 6126POPC   GL276634  29.776  13.444   5.726
 6126POPC   C1A76635  30.072  13.735   6.104
 6126POPC   D2A76636  30.181  13.538   6.482
 6126POPC   C3A76637  30.060  13.782   6.831
 6126POPC   C4A76638  30.173  13.758   7.237
 6126POPC   C1B76639  29.755  13.341   6.161
 6126POPC   C2B76640  29.795  13.216   6.613
 6126POPC   C3B76641  29.946  13.326   7.053
 6126POPC   C4B76642  30.030  13.384   7.553
 6127POPC   NC376643  22.425  20.249   5.469
 6127POPC   PO476644  23.029  19.951   5.451
 6127POPC   GL176645  23.110  19.860   5.888
 6127POPC   GL276646  22.727  19.856   5.889
 6127POPC   C1A76647  23.006  19.684   6.303
 6127POPC   D2A76648  22.672  19.734   6.624
 6127POPC   C3A76649  22.834  19.691   7.036
 6127POPC   C4A76650  23.256  19.824   7.194
 6127POPC   C1B76651  22.709  20.108   6.238
 6127POPC   C2B76652  22.618  20.250   6.627
 6127POPC   C3B76653  22.706  20.182   7.063
 6127POPC   C4B76654  22.750  19.966   7.454
 6128POPC   NC376655   5.343  23.647   5.580
 6128POPC   PO476656   4.862  24.145   5.550
 6128POPC   GL176657   5.034  23.906   5.876
 6128POPC   GL276658   5.398  23.998   5.951
 6128POPC   C1A76659   4.981  23.547   6.159
 6128POPC   D2A76660   4.779  23.654   6.538
 6128POPC   C3A76661   4.906  23.594   6.922
 6128POPC   C4A76662   5.091  23.912   7.116
 6128POPC   C1B76663   5.256  23.920   6.364
 6128POPC   C2B76664   5.312  23.536   6.606
 6128POPC   C3B76665   5.498  23.649   6.988
 6128POPC   C4B76666   5.556  24.094   7.135
 6129POPC   NC376667  34.792  28.279   5.512
 6129POPC   PO476668  34.632  28.927   5.535
 6129POPC   GL176669  34.732  28.663   5.860
 6129POPC   GL276670  34.452  28.437   5.897
 6129POPC   C1A76671  34.889  28.392   6.183
 6129POPC   D2A76672  34.847  28.151   6.556
 6129POPC   C3A76673  34.916  28.347   6.934
 6129POPC   C4A76674  34.602  28.473   7.246
 6129POPC   C1B76675  34.474  28.071   6.173
 6129POPC   C2B76676  34.327  28.077   6.580
 6129POPC   C3B76677  34.512  28.041   6.973
 6129POPC   C4B76678  34.271  27.851   7.252
 6130POPC   NC376679  17.827  14.478   5.279
 6130POPC   PO476680  17.277  14.220   5.540
 6130POPC   GL176681  17.389  14.451   5.852
 6130POPC   GL276682  17.729  14.517   5.764
 6130POPC   C1A76683  17.285  14.349   6.254
 6130POPC   D2A76684  17.519  14.153   6.544
 6130POPC   C3A76685  17.309  14.388   6.819
 6130POPC   C4A76686  17.352  14.377   7.226
 6130POPC   C1B76687  17.785  14.373   6.157
 6130POPC   C2B76688  17.765  14.601   6.521
 6130POPC   C3B76689  17.787  14.525   6.944
 6130POPC   C4B76690  17.730  14.745   7.301
 6131POPC   NC376691  34.841   9.105   5.422
 6131POPC   PO476692  34.522   8.621   5.240
 6131POPC   GL176693  34.655   8.699   5.728
 6131POPC   GL276694  34.387   8.595   5.997
 6131POPC   C1A76695  34.585   9.032   6.093
 6131POPC   D2A76696  34.729   9.044   6.518
 6131POPC   C3A76697  34.603   8.976   6.957
 6131POPC   C4A76698  34.714   9.220   7.320
 6131POPC   C1B76699  34.566   8.564   6.385
 6131POPC   C2B76700  34.564   8.478   6.800
 6131POPC   C3B76701  34.242   8.596   7.076
 6131POPC   C4B76702  34.075   8.610   7.513
 6132POPC   NC376703   0.441  19.621   5.568
 6132POPC   PO476704   0.599  19.011   5.465
 6132POPC   GL176705   0.273  19.057   5.826
 6132POPC   GL276706   0.336  19.381   6.027
 6132POPC   C1A76707   0.172  18.965   6.279
 6132POPC   D2A76708   0.361  19.192   6.596
 6132POPC   C3A76709   0.465  18.944   6.925
 6132POPC   C4A76710   0.195  18.760   7.223
 6132POPC   C1B76711   0.694  19.103   6.197
 6132POPC   C2B76712   0.897  19.135   6.608
 6132POPC   C3B76713   0.704  19.448   6.882
 6132POPC   C4B76714   0.281  19.507   7.029
 6133POPC   NC376715  38.637  35.282   5.495
 6133POPC   PO476716  37.996  35.506   5.443
 6133POPC   GL176717  38.235  35.322   5.802
 6133POPC   GL276718  38.517  35.567   5.896
 6133POPC   C1A76719  38.469  35.119   6.161
 6133POPC   D2A76720  38.736  35.034   6.542
 6133POPC   C3A76721  38.657  35.221   6.953
 6133POPC   C4A76722  38.565  35.178   7.421
 6133POPC   C1B76723  38.503  35.599   6.333
 6133POPC   C2B76724  38.498  35.673   6.765
 6133POPC   C3B76725  38.281  35.553   7.102
 6133POPC   C4B76726  38.250  35.594   7.537
 6134POPC   NC376727  43.562  38.761   5.524
 6134POPC   PO476728  43.882  38.138   5.584
 6134POPC   GL176729  43.959  38.513   5.815
 6134POPC   GL276730  44.158  38.317   6.012
 6134POPC   C1A76731  43.931  38.698   6.245
 6134POPC   D2A76732  44.039  38.483   6.620
 6134POPC   C3A76733  43.811  38.474   7.019
 6134POPC   C4A76734  43.911  38.683   7.419
 6134POPC   C1B76735  43.920  38.085   6.321
 6134POPC   C2B76736  43.973  38.002   6.752
 6134POPC   C3B76737  44.270  38.186   6.990
 6134POPC   C4B76738  44.301  38.332   7.381
 6135POPC   NC376739   6.976  18.438   5.294
 6135POPC   PO476740   6.574  17.934   5.405
 6135POPC   GL176741   6.638  18.184   5.753
 6135POPC   GL276742   6.575  18.526   5.601
 6135POPC   C1A76743   6.476  18.139   6.198
 6135POPC   D2A76744   6.353  18.340   6.573
 6135POPC   C3A76745   6.463  18.078   6.894
 6135POPC   C4A76746   6.415  18.203   7.295
 6135POPC   C1B76747   6.612  18.597   6.048
 6135POPC   C2B76748   6.813  18.518   6.479
 6135POPC   C3B76749   6.666  18.603   6.922
 6135POPC   C4B76750   6.505  18.679   7.363
 6136POPC   NC376751  23.485  42.635   5.353
 6136POPC   PO476752  23.873  43.096   5.484
 6136POPC   GL176753  23.606  43.043   5.801
 6136POPC   GL276754  23.264  43.091   5.745
 6136POPC   C1A76755  23.623  43.131   6.206
 6136POPC   D2A76756  23.636  43.326   6.570
 6136POPC   C3A76757  23.803  43.122   6.916
 6136POPC   C4A76758  23.804  43.280   7.318
 6136POPC   C1B76759  23.214  42.830   6.123
 6136POPC   C2B76760  23.262  42.539   6.456
 6136POPC   C3B76761  23.276  42.604   6.897
 6136POPC   C4B76762  23.470  42.857   7.209
 6137POPC   NC376763  33.314   7.798   5.472
 6137POPC   PO476764  32.844   7.237   5.384
 6137POPC   GL176765  32.890   7.554   5.721
 6137POPC   GL276766  33.187   7.509   5.869
 6137POPC   C1A76767  32.706   7.549   6.144
 6137POPC   D2A76768  32.874   7.468   6.565
 6137POPC   C3A76769  32.733   7.589   6.985
 6137POPC   C4A76770  32.747   7.215   7.262
 6137POPC   C1B76771  33.327   7.483   6.283
 6137POPC   C2B76772  33.348   7.159   6.598
 6137POPC   C3B76773  33.165   7.293   6.985
 6137POPC   C4B76774  33.235   7.666   7.223
 6138POPC   NC376775  30.407   1.128   5.330
 6138POPC   PO476776  30.983   1.379   5.208
 6138POPC   GL176777  30.824   1.338   5.648
 6138POPC   GL276778  30.479   1.484   5.735
 6138POPC   C1A76779  30.859   1.371   6.096
 6138POPC   D2A76780  30.757   1.395   6.531
 6138POPC   C3A76781  31.043   1.488   6.878
 6138POPC   C4A76782  30.878   1.289   7.235
 6138POPC   C1B76783  30.370   1.190   6.107
 6138POPC   C2B76784  30.477   0.949   6.497
 6138POPC   C3B76785  30.526   1.105   6.912
 6138POPC   C4B76786  30.463   0.938   7.319
 6139POPC   NC376787  19.429  12.078   5.425
 6139POPC   PO476788  18.805  12.088   5.304
 6139POPC   GL176789  19.003  11.926   5.662
 6139POPC   GL276790  19.085  12.264   5.772
 6139POPC   C1A76791  19.087  11.880   6.112
 6139POPC   D2A76792  18.840  11.827   6.480
 6139POPC   C3A76793  19.029  11.902   6.881
 6139POPC   C4A76794  19.052  12.006   7.284
 6139POPC   C1B76795  19.185  12.449   6.147
 6139POPC   C2B76796  19.223  12.207   6.507
 6139POPC   C3B76797  19.192  12.380   6.917
 6139POPC   C4B76798  19.314  12.454   7.327
 6140POPC   NC376799  23.683  40.888   5.338
 6140POPC   PO476800  23.717  40.233   5.453
 6140POPC   GL176801  23.843  40.612   5.748
 6140POPC   GL276802  23.819  41.015   5.809
 6140POPC   C1A76803  23.851  40.633   6.202
 6140POPC   D2A76804  23.702  40.885   6.548
 6140POPC   C3A76805  23.610  40.740   6.951
 6140POPC   C4A76806  23.931  40.716   7.260
 6140POPC   C1B76807  23.626  41.215   6.162
 6140POPC   C2B76808  23.712  41.379   6.589
 6140POPC   C3B76809  23.858  41.187   6.977
 6140POPC   C4B76810  23.587  41.101   7.331
 6141POPC   NC376811  27.374   5.877   5.359
 6141POPC   PO476812  27.975   5.818   5.348
 6141POPC   GL176813  27.748   5.735   5.738
 6141POPC   GL276814  27.448   5.511   5.756
 6141POPC   C1A76815  27.578   5.934   6.095
 6141POPC   D2A76816  27.668   6.234   6.425
 6141POPC   C3A76817  27.629   5.963   6.799
 6141POPC   C4A76818  27.534   5.907   7.220
 6141POPC   C1B76819  27.242   5.531   6.180
 6141POPC   C2B76820  27.396   5.539   6.624
 6141POPC   C3B76821  27.234   5.510   7.065
 6141POPC   C4B76822  27.358   5.526   7.532
 6142POPC   NC376823  41.931   4.659   5.406
 6142POPC   PO476824  42.320   4.179   5.103
 6142POPC   GL176825  42.321   4.278   5.594
 6142POPC   GL276826  42.547   4.518   5.752
 6142POPC   C1A76827  42.155   4.402   6.033
 6142POPC   D2A76828  42.280   4.644   6.440
 6142POPC   C3A76829  42.217   4.443   6.855
 6142POPC   C4A76830  42.010   4.383   7.253
 6142POPC   C1B76831  42.613   4.337   6.212
 6142POPC   C2B76832  42.709   4.350   6.688
 6142POPC   C3B76833  42.623   4.340   7.163
 6142POPC   C4B76834  42.846   4.451   7.551
 6143POPC   NC376835  38.618  42.580   5.459
 6143POPC   PO476836  38.081  42.425   5.110
 6143POPC   GL176837  38.166  42.326   5.601
 6143POPC   GL276838  38.504  42.126   5.697
 6143POPC   C1A76839  38.253  42.327   6.099
 6143POPC   D2A76840  38.378  42.187   6.544
 6143POPC   C3A76841  38.207  42.392   6.933
 6143POPC   C4A76842  38.333  42.083   7.210
 6143POPC   C1B76843  38.755  42.163   6.104
 6143POPC   C2B76844  38.864  42.308   6.526
 6143POPC   C3B76845  38.716  42.388   6.962
 6143POPC   C4B76846  38.596  42.468   7.394
 6144POPC   NC376847  36.481  11.074   5.543
 6144POPC   PO476848  35.936  11.466   5.488
 6144POPC   GL176849  36.204  11.534   5.826
 6144POPC   GL276850  36.420  11.311   6.018
 6144POPC   C1A76851  36.083  11.619   6.242
 6144POPC   D2A76852  36.351  11.551   6.571
 6144POPC   C3A76853  36.171  11.415   6.909
 6144POPC   C4A76854  36.278  11.503   7.309
 6144POPC   C1B76855  36.037  11.094   6.114
 6144POPC   C2B76856  35.989  10.833   6.490
 6144POPC   C3B76857  35.974  10.920   6.901
 6144POPC   C4B76858  35.917  11.121   7.274
 6145POPC   NC376859  14.002   7.137   5.421
 6145POPC   PO476860  13.644   6.574   5.236
 6145POPC   GL176861  13.781   6.482   5.694
 6145POPC   GL276862  13.839   6.804   5.780
 6145POPC   C1A76863  13.568   6.372   6.113
 6145POPC   D2A76864  13.611   6.230   6.541
 6145POPC   C3A76865  13.275   6.049   6.745
 6145POPC   C4A76866  13.416   6.159   7.135
 6145POPC   C1B76867  13.593   6.895   6.138
 6145POPC   C2B76868  13.658   6.783   6.542
 6145POPC   C3B76869  13.432   6.928   6.882
 6145POPC   C4B76870  13.437   7.013   7.287
 6146POPC   NC376871   9.896  29.520   5.403
 6146POPC   PO476872   9.461  28.972   5.366
 6146POPC   GL176873   9.371  29.123   5.813
 6146POPC   GL276874   9.550  29.439   5.792
 6146POPC   C1A76875   9.624  29.074   6.230
 6146POPC   D2A76876   9.952  29.168   6.543
 6146POPC   C3A76877   9.828  29.060   6.968
 6146POPC   C4A76878   9.679  28.785   7.278
 6146POPC   C1B76879   9.683  29.573   6.225
 6146POPC   C2B76880   9.528  29.452   6.651
 6146POPC   C3B76881   9.544  29.459   7.104
 6146POPC   C4B76882   9.737  29.681   7.457
 6147POPC   NC376883   1.326  34.442   5.356
 6147POPC   PO476884   1.310  35.067   5.417
 6147POPC   GL176885   1.142  34.724   5.745
 6147POPC   GL276886   1.296  34.348   5.840
 6147POPC   C1A76887   1.006  34.600   6.156
 6147POPC   D2A76888   1.193  34.484   6.537
 6147POPC   C3A76889   0.887  34.528   6.817
 6147POPC   C4A76890   0.887  34.594   7.212
 6147POPC   C1B76891   1.523  34.252   6.211
 6147POPC   C2B76892   1.587  34.138   6.657
 6147POPC   C3B76893   1.558  34.462   6.959
 6147POPC   C4B76894   1.394  34.481   7.396
 6148POPC   NC376895  26.050  25.899   5.347
 6148POPC   PO476896  26.317  26.584   5.275
 6148POPC   GL176897  26.127  26.334   5.646
 6148POPC   GL276898  25.785  26.249   5.727
 6148POPC   C1A76899  26.126  26.340   6.121
 6148POPC   D2A76900  26.206  26.035   6.461
 6148POPC   C3A76901  26.018  26.106   6.859
 6148POPC   C4A76902  26.063  26.297   7.251
 6148POPC   C1B76903  25.805  25.929   6.079
 6148POPC   C2B76904  25.788  25.725   6.471
 6148POPC   C3B76905  25.911  25.586   6.860
 6148POPC   C4B76906  25.879  25.798   7.261
 6149POPC   NC376907   3.927  28.204   5.534
 6149POPC   PO476908   3.234  28.207   5.373
 6149POPC   GL176909   3.428  28.320   5.808
 6149POPC   GL276910   3.462  28.687   5.850
 6149POPC   C1A76911   3.301  28.450   6.275
 6149POPC   D2A76912   3.143  28.522   6.731
 6149POPC   C3A76913   3.516  28.518   6.991
 6149POPC   C4A76914   3.746  28.108   7.159
 6149POPC   C1B76915   3.702  28.793   6.266
 6149POPC   C2B76916   3.861  28.788   6.702
 6149POPC   C3B76917   4.013  28.546   7.065
 6149POPC   C4B76918   3.725  28.539   7.467
 6150POPC   NC376919  15.473  21.340   5.479
 6150POPC   PO476920  14.833  21.170   5.493
 6150POPC   GL176921  15.113  21.199   5.871
 6150POPC   GL276922  15.261  21.529   5.897
 6150POPC   C1A76923  15.089  21.317   6.329
 6150POPC   D2A76924  15.002  21.453   6.773
 6150POPC   C3A76925  15.137  21.243   7.093
 6150POPC   C4A76926  15.524  21.015   7.091
 6150POPC   C1B76927  14.972  21.776   6.112
 6150POPC   C2B76928  14.774  22.011   6.470
 6150POPC   C3B76929  14.725  21.858   6.883
 6150POPC   C4B76930  14.980  21.727   7.222
 6151POPC   NC376931  31.186  20.668   5.427
 6151POPC   PO476932  31.779  20.742   5.452
 6151POPC   GL176933  31.515  20.722   5.849
 6151POPC   GL276934  31.597  20.337   5.920
 6151POPC   C1A76935  31.383  20.950   6.263
 6151POPC   D2A76936  31.595  20.937   6.688
 6151POPC   C3A76937  31.409  20.804   7.082
 6151POPC   C4A76938  31.467  20.784   7.541
 6151POPC   C1B76939  31.326  20.444   6.292
 6151POPC   C2B76940  31.255  20.435   6.749
 6151POPC   C3B76941  31.379  20.303   7.184
 6151POPC   C4B76942  31.783  20.486   7.295
 6152POPC   NC376943  24.130  29.957   5.509
 6152POPC   PO476944  24.678  30.134   5.774
 6152POPC   GL176945  24.425  29.872   5.994
 6152POPC   GL276946  24.383  29.599   5.791
 6152POPC   C1A76947  24.665  29.560   6.210
 6152POPC   D2A76948  24.805  29.498   6.599
 6152POPC   C3A76949  24.751  29.828   6.885
 6152POPC   C4A76950  24.717  30.109   7.244
 6152POPC   C1B76951  24.171  29.447   6.174
 6152POPC   C2B76952  24.286  29.573   6.559
 6152POPC   C3B76953  24.354  29.497   6.934
 6152POPC   C4B76954  24.402  29.677   7.287
 6153POPC   NC376955  29.292  12.543   5.233
 6153POPC   PO476956  29.463  13.151   5.431
 6153POPC   GL176957  29.162  13.089   5.776
 6153POPC   GL276958  29.246  12.732   5.888
 6153POPC   C1A76959  28.930  12.989   6.179
 6153POPC   D2A76960  29.072  12.823   6.558
 6153POPC   C3A76961  28.903  13.019   6.879
 6153POPC   C4A76962  28.926  12.710   7.157
 6153POPC   C1B76963  29.425  12.985   6.225
 6153POPC   C2B76964  29.294  13.287   6.568
 6153POPC   C3B76965  29.422  13.141   6.999
 6153POPC   C4B76966  29.690  12.994   7.371
 6154POPC   NC376967  10.388   6.636   5.431
 6154POPC   PO476968  10.969   6.783   5.672
 6154POPC   GL176969  10.698   6.408   5.817
 6154POPC   GL276970  10.310   6.349   5.848
 6154POPC   C1A76971  10.616   6.329   6.266
 6154POPC   D2A76972  10.470   6.616   6.600
 6154POPC   C3A76973  10.622   6.577   7.030
 6154POPC   C4A76974  10.657   6.942   7.278
 6154POPC   C1B76975  10.095   6.449   6.217
 6154POPC   C2B76976  10.052   6.303   6.635
 6154POPC   C3B76977  10.129   6.508   7.026
 6154POPC   C4B76978  10.283   6.629   7.434
 6155POPC   NC376979   8.559   4.833   5.459
 6155POPC   PO476980   8.159   5.314   5.541
 6155POPC   GL176981   8.267   5.083   5.843
 6155POPC   GL276982   8.072   4.799   5.843
 6155POPC   C1A76983   8.109   5.143   6.252
 6155POPC   D2A76984   7.803   5.355   6.488
 6155POPC   C3A76985   8.008   5.350   6.892
 6155POPC   C4A76986   7.859   5.287   7.313
 6155POPC   C1B76987   8.394   4.714   6.189
 6155POPC   C2B76988   8.345   4.858   6.626
 6155POPC   C3B76989   8.140   4.839   7.027
 6155POPC   C4B76990   8.346   5.104   7.314
 6156POPC   NC376991  39.414  25.341   5.404
 6156POPC   PO476992  38.714  24.918   5.396
 6156POPC   GL176993  38.895  24.990   5.782
 6156POPC   GL276994  39.250  24.998   5.760
 6156POPC   C1A76995  39.014  25.386   5.994
 6156POPC   D2A76996  39.171  25.476   6.402
 6156POPC   C3A76997  39.018  25.206   6.729
 6156POPC   C4A76998  38.978  25.454   7.127
 6156POPC   C1B76999  39.489  25.213   6.106
 6156POPC   C2B77000  39.533  25.140   6.578
 6156POPC   C3B77001  39.427  25.205   7.012
 6156POPC   C4B77002  39.643  24.967   7.273
 6157POPC   NC377003  27.308  27.324   5.364
 6157POPC   PO477004  27.866  27.722   5.434
 6157POPC   GL177005  27.705  27.463   5.759
 6157POPC   GL277006  27.451  27.688   5.824
 6157POPC   C1A77007  27.598  27.383   6.214
 6157POPC   D2A77008  27.477  27.282   6.645
 6157POPC   C3A77009  27.636  27.529   6.920
 6157POPC   C4A77010  27.504  27.704   7.256
 6157POPC   C1B77011  27.779  27.853   6.138
 6157POPC   C2B77012  27.928  27.834   6.587
 6157POPC   C3B77013  27.972  27.965   7.031
 6157POPC   C4B77014  27.710  28.150   7.351
 6158POPC   NC377015  27.453  30.903   5.508
 6158POPC   PO477016  27.912  30.518   5.528
 6158POPC   GL177017  27.724  30.661   5.881
 6158POPC   GL277018  27.399  30.478   5.814
 6158POPC   C1A77019  27.518  30.892   6.229
 6158POPC   D2A77020  27.527  31.093   6.635
 6158POPC   C3A77021  27.614  30.882   7.002
 6158POPC   C4A77022  27.206  30.718   7.108
 6158POPC   C1B77023  27.487  30.375   6.222
 6158POPC   C2B77024  27.406  30.534   6.632
 6158POPC   C3B77025  27.597  30.357   7.004
 6158POPC   C4B77026  27.612  30.540   7.402
 6159POPC   NC377027  34.673   1.933   5.372
 6159POPC   PO477028  35.112   1.524   5.493
 6159POPC   GL177029  34.803   1.736   5.810
 6159POPC   GL277030  34.671   2.152   5.823
 6159POPC   C1A77031  34.843   1.883   6.206
 6159POPC   D2A77032  34.900   1.789   6.597
 6159POPC   C3A77033  34.779   2.136   6.830
 6159POPC   C4A77034  34.757   2.117   7.232
 6159POPC   C1B77035  34.335   2.015   6.146
 6159POPC   C2B77036  34.357   1.875   6.597
 6159POPC   C3B77037  34.296   2.007   7.028
 6159POPC   C4B77038  34.312   2.317   7.326
 6160POPC   NC377039  12.497  13.561   5.415
 6160POPC   PO477040  13.058  13.802   5.558
 6160POPC   GL177041  12.988  13.677   5.951
 6160POPC   GL277042  12.638  13.589   5.939
 6160POPC   C1A77043  13.106  13.721   6.365
 6160POPC   D2A77044  13.196  13.414   6.677
 6160POPC   C3A77045  13.213  13.617   7.063
 6160POPC   C4A77046  13.098  13.646   7.482
 6160POPC   C1B77047  12.779  13.320   6.298
 6160POPC   C2B77048  12.651  13.289   6.731
 6160POPC   C3B77049  12.722  13.405   7.158
 6160POPC   C4B77050  12.827  13.230   7.561
 6161POPC   NC377051   1.596  18.149   5.543
 6161POPC   PO477052   0.917  17.987   5.444
 6161POPC   GL177053   1.134  18.103   5.841
 6161POPC   GL277054   1.302  18.446   5.954
 6161POPC   C1A77055   1.123  18.139   6.294
 6161POPC   D2A77056   1.195  18.421   6.630
 6161POPC   C3A77057   1.224  18.145   6.988
 6161POPC   C4A77058   1.244  17.939   7.409
 6161POPC   C1B77059   0.903  18.592   6.147
 6161POPC   C2B77060   0.712  18.648   6.559
 6161POPC   C3B77061   0.867  18.572   7.009
 6161POPC   C4B77062   0.984  18.365   7.394
 6162POPC   NC377063  26.625   3.749   5.500
 6162POPC   PO477064  26.860   3.108   5.500
 6162POPC   GL177065  26.708   3.370   5.828
 6162POPC   GL277066  27.010   3.525   5.925
 6162POPC   C1A77067  26.636   3.552   6.255
 6162POPC   D2A77068  26.817   3.387   6.639
 6162POPC   C3A77069  26.615   3.380   7.037
 6162POPC   C4A77070  26.544   3.753   7.258
 6162POPC   C1B77071  27.125   3.814   6.279
 6162POPC   C2B77072  27.000   3.919   6.686
 6162POPC   C3B77073  27.013   3.696   7.038
 6162POPC   C4B77074  27.246   3.731   7.407
 6163POPC   NC377075  25.341  33.021   5.398
 6163POPC   PO477076  24.729  32.683   5.445
 6163POPC   GL177077  25.093  32.696   5.801
 6163POPC   GL277078  25.224  33.047   5.892
 6163POPC   C1A77079  25.081  32.771   6.292
 6163POPC   D2A77080  25.330  32.880   6.663
 6163POPC   C3A77081  25.238  32.735   7.076
 6163POPC   C4A77082  25.250  32.650   7.532
 6163POPC   C1B77083  25.490  33.212   6.240
 6163POPC   C2B77084  25.443  33.381   6.659
 6163POPC   C3B77085  25.437  33.219   7.070
 6163POPC   C4B77086  25.781  33.431   7.214
 6164POPC   NC377087  44.718  36.326   5.492
 6164POPC   PO477088  44.912  37.045   5.531
 6164POPC   GL177089  44.622  36.899   5.874
 6164POPC   GL277090  44.405  36.592   5.802
 6164POPC   C1A77091  44.627  37.073   6.323
 6164POPC   D2A77092  44.841  37.283   6.698
 6164POPC   C3A77093  44.732  37.079   7.062
 6164POPC   C4A77094  44.913  36.708   7.222
 6164POPC   C1B77095  44.626  36.539   6.245
 6164POPC   C2B77096  44.691  36.696   6.685
 6164POPC   C3B77097  44.424  36.639   7.025
 6164POPC   C4B77098  44.256  36.485   7.413
 6165POPC   NC377099  39.102   2.768   4.942
 6165POPC   PO477100  38.825   2.484   5.470
 6165POPC   GL177101  39.110   2.420   5.843
 6165POPC   GL277102  38.886   2.166   5.950
 6165POPC   C1A77103  39.262   2.640   6.245
 6165POPC   D2A77104  39.274   2.595   6.709
 6165POPC   C3A77105  39.374   2.977   6.925
 6165POPC   C4A77106  39.130   3.140   7.263
 6165POPC   C1B77107  39.044   2.190   6.381
 6165POPC   C2B77108  38.970   2.188   6.820
 6165POPC   C3B77109  39.250   2.265   7.167
 6165POPC   C4B77110  39.377   2.645   7.319
 6166POPC   NC377111  32.133  37.120   5.458
 6166POPC   PO477112  32.437  36.574   5.359
 6166POPC   GL177113  32.263  36.736   5.761
 6166POPC   GL277114  32.532  36.935   5.809
 6166POPC   C1A77115  32.191  37.011   6.162
 6166POPC   D2A77116  32.198  36.874   6.600
 6166POPC   C3A77117  32.046  37.029   6.989
 6166POPC   C4A77118  32.261  37.012   7.365
 6166POPC   C1B77119  32.747  36.743   6.158
 6166POPC   C2B77120  32.774  36.862   6.587
 6166POPC   C3B77121  32.587  36.864   6.979
 6166POPC   C4B77122  32.596  36.643   7.365
 6167POPC   NC377123  39.418  19.395   5.381
 6167POPC   PO477124  38.803  19.163   5.400
 6167POPC   GL177125  39.097  19.152   5.797
 6167POPC   GL277126  38.926  18.927   5.893
 6167POPC   C1A77127  39.320  18.950   6.217
 6167POPC   D2A77128  39.217  19.061   6.650
 6167POPC   C3A77129  39.416  19.077   7.048
 6167POPC   C4A77130  39.291  19.351   7.372
 6167POPC   C1B77131  38.831  19.082   6.294
 6167POPC   C2B77132  38.696  19.063   6.710
 6167POPC   C3B77133  38.901  19.143   7.094
 6167POPC   C4B77134  39.012  18.959   7.495
 6168POPC   NC377135   5.044  12.469   5.464
 6168POPC   PO477136   5.330  11.850   5.296
 6168POPC   GL177137   5.102  11.937   5.715
 6168POPC   GL277138   5.052  12.249   5.908
 6168POPC   C1A77139   5.144  11.824   6.200
 6168POPC   D2A77140   4.936  11.977   6.602
 6168POPC   C3A77141   5.096  11.905   7.023
 6168POPC   C4A77142   4.958  11.789   7.433
 6168POPC   C1B77143   5.372  12.275   6.244
 6168POPC   C2B77144   5.459  12.158   6.693
 6168POPC   C3B77145   5.291  12.370   7.080
 6168POPC   C4B77146   4.946  12.437   7.417
 6169POPC   NC377147  43.187   0.706   5.319
 6169POPC   PO477148  43.174   1.431   5.453
 6169POPC   GL177149  43.314   1.247   5.826
 6169POPC   GL277150  42.972   1.217   5.894
 6169POPC   C1A77151  43.251   1.366   6.278
 6169POPC   D2A77152  43.275   1.169   6.663
 6169POPC   C3A77153  43.054   1.308   7.003
 6169POPC   C4A77154  43.266   1.260   7.353
 6169POPC   C1B77155  42.831   0.893   6.154
 6169POPC   C2B77156  42.974   0.730   6.493
 6169POPC   C3B77157  42.859   0.864   6.855
 6169POPC   C4B77158  42.843   0.849   7.301
 6170POPC   NC377159  33.120  10.685   5.215
 6170POPC   PO477160  33.722  10.619   5.452
 6170POPC   GL177161  33.822  10.637   5.875
 6170POPC   GL277162  33.698  10.296   5.885
 6170POPC   C1A77163  33.845  10.535   6.338
 6170POPC   D2A77164  34.159  10.279   6.556
 6170POPC   C3A77165  34.007  10.182   6.963
 6170POPC   C4A77166  33.719  10.468   7.158
 6170POPC   C1B77167  33.395  10.329   6.241
 6170POPC   C2B77168  33.513  10.311   6.687
 6170POPC   C3B77169  33.281  10.231   7.069
 6170POPC   C4B77170  33.385  10.254   7.511
 6171POPC   NC377171  15.455  35.139   5.355
 6171POPC   PO477172  14.980  35.503   5.235
 6171POPC   GL177173  14.940  35.462   5.683
 6171POPC   GL277174  15.242  35.294   5.841
 6171POPC   C1A77175  14.776  35.295   6.094
 6171POPC   D2A77176  15.060  35.297   6.449
 6171POPC   C3A77177  14.952  35.236   6.873
 6171POPC   C4A77178  15.223  35.376   7.204
 6171POPC   C1B77179  15.555  35.475   6.148
 6171POPC   C2B77180  15.757  35.409   6.536
 6171POPC   C3B77181  15.568  35.511   6.883
 6171POPC   C4B77182  15.598  35.722   7.288
 6172POPC   NC377183  44.959  30.779   5.518
 6172POPC   PO477184  44.280  30.496   5.514
 6172POPC   GL177185  44.500  30.796   5.807
 6172POPC   GL277186  44.699  30.515   5.888
 6172POPC   C1A77187  44.743  30.888   6.208
 6172POPC   D2A77188  44.764  30.664   6.587
 6172POPC   C3A77189  44.871  30.860   6.970
 6172POPC   C4A77190  44.697  30.940   7.370
 6172POPC   C1B77191  44.500  30.371   6.236
 6172POPC   C2B77192  44.329  30.370   6.664
 6172POPC   C3B77193  44.563  30.460   7.047
 6172POPC   C4B77194  44.442  30.474   7.470
 6173POPC   NC377195  26.811   6.218   5.519
 6173POPC   PO477196  26.995   5.624   5.293
 6173POPC   GL177197  26.998   5.772   5.746
 6173POPC   GL277198  26.680   5.850   5.894
 6173POPC   C1A77199  27.086   6.082   6.096
 6173POPC   D2A77200  27.225   5.993   6.486
 6173POPC   C3A77201  27.159   6.141   6.892
 6173POPC   C4A77202  27.021   5.957   7.236
 6173POPC   C1B77203  26.753   5.660   6.313
 6173POPC   C2B77204  26.865   5.716   6.748
 6173POPC   C3B77205  26.646   5.660   7.115
 6173POPC   C4B77206  26.526   6.036   7.291
 6174POPC   NC377207  44.386   2.361   5.356
 6174POPC   PO477208  44.591   3.023   5.457
 6174POPC   GL177209  44.624   2.664   5.736
 6174POPC   GL277210  44.309   2.677   5.765
 6174POPC   C1A77211  44.544   2.496   6.170
 6174POPC   D2A77212  44.554   2.718   6.536
 6174POPC   C3A77213  44.566   2.430   6.864
 6174POPC   C4A77214  44.611   2.492   7.285
 6174POPC   C1B77215  44.192   2.932   6.152
 6174POPC   C2B77216  44.197   3.101   6.593
 6174POPC   C3B77217  44.278   2.850   6.973
 6174POPC   C4B77218  44.329   2.892   7.412
 6175POPC   NC377219  30.623   9.858   5.448
 6175POPC   PO477220  30.599   9.270   5.257
 6175POPC   GL177221  30.807   9.449   5.702
 6175POPC   GL277222  31.007   9.794   5.776
 6175POPC   C1A77223  30.727   9.586   6.154
 6175POPC   D2A77224  30.691   9.760   6.575
 6175POPC   C3A77225  30.452   9.650   6.939
 6175POPC   C4A77226  30.634   9.685   7.337
 6175POPC   C1B77227  30.926  10.070   6.175
 6175POPC   C2B77228  31.091  10.056   6.588
 6175POPC   C3B77229  31.046   9.907   6.987
 6175POPC   C4B77230  31.043  10.273   7.210
 6176POPC   NC377231  38.935  40.306   5.462
 6176POPC   PO477232  39.449  39.873   5.308
 6176POPC   GL177233  39.322  39.972   5.733
 6176POPC   GL277234  38.970  39.872   5.766
 6176POPC   C1A77235  39.295  40.142   6.156
 6176POPC   D2A77236  39.094  40.199   6.541
 6176POPC   C3A77237  39.334  40.113   6.912
 6176POPC   C4A77238  39.224  40.243   7.320
 6176POPC   C1B77239  38.816  39.907   6.186
 6176POPC   C2B77240  38.819  39.785   6.605
 6176POPC   C3B77241  38.812  40.030   6.978
 6176POPC   C4B77242  38.841  39.917   7.411
 6177POPC   NC377243  33.216   0.852   5.493
 6177POPC   PO477244  32.845   1.410   5.222
 6177POPC   GL177245  33.065   1.391   5.639
 6177POPC   GL277246  32.793   1.215   5.786
 6177POPC   C1A77247  33.159   1.337   6.137
 6177POPC   D2A77248  33.261   0.988   6.494
 6177POPC   C3A77249  33.292   1.029   6.986
 6177POPC   C4A77250  33.276   1.251   7.413
 6177POPC   C1B77251  32.808   0.952   6.187
 6177POPC   C2B77252  32.769   1.109   6.632
 6177POPC   C3B77253  32.815   1.208   7.071
 6177POPC   C4B77254  32.489   1.055   7.358
 6178POPC   NC377255   7.360   4.300   5.403
 6178POPC   PO477256   7.868   3.908   5.342
 6178POPC   GL177257   7.802   4.265   5.648
 6178POPC   GL277258   7.718   4.054   5.881
 6178POPC   C1A77259   7.478   4.480   6.018
 6178POPC   D2A77260   7.386   4.584   6.513
 6178POPC   C3A77261   7.252   4.456   6.975
 6178POPC   C4A77262   7.183   4.197   7.372
 6178POPC   C1B77263   7.602   4.103   6.312
 6178POPC   C2B77264   7.749   4.117   6.671
 6178POPC   C3B77265   7.766   4.373   6.951
 6178POPC   C4B77266   7.666   4.294   7.327
 6179POPC   NC377267  13.456  18.435   5.482
 6179POPC   PO477268  14.066  18.082   5.403
 6179POPC   GL177269  13.883  18.216   5.814
 6179POPC   GL277270  13.771  18.587   5.867
 6179POPC   C1A77271  14.011  18.251   6.266
 6179POPC   D2A77272  13.715  18.188   6.625
 6179POPC   C3A77273  13.724  18.126   7.067
 6179POPC   C4A77274  13.824  18.497   7.178
 6179POPC   C1B77275  13.503  18.354   6.175
 6179POPC   C2B77276  13.235  18.108   6.489
 6179POPC   C3B77277  13.222  18.022   6.945
 6179POPC   C4B77278  13.271  18.184   7.348
 6180POPC   NC377279   6.911  42.740   5.586
 6180POPC   PO477280   7.479  42.930   5.350
 6180POPC   GL177281   7.470  43.151   5.748
 6180POPC   GL277282   7.713  43.409   5.646
 6180POPC   C1A77283   7.292  43.202   6.163
 6180POPC   D2A77284   7.117  43.014   6.538
 6180POPC   C3A77285   7.237  43.167   6.935
 6180POPC   C4A77286   7.070  43.038   7.327
 6180POPC   C1B77287   7.686  43.514   6.091
 6180POPC   C2B77288   7.800  43.453   6.524
 6180POPC   C3B77289   7.730  43.467   6.936
 6180POPC   C4B77290   7.587  43.255   7.294
 6181POPC   NC377291  36.262  38.514   5.260
 6181POPC   PO477292  36.958  38.528   5.132
 6181POPC   GL177293  36.898  38.359   5.615
 6181POPC   GL277294  36.685  38.560   5.800
 6181POPC   C1A77295  37.108  38.244   6.050
 6181POPC   D2A77296  37.279  38.168   6.487
 6181POPC   C3A77297  37.278  38.393   6.876
 6181POPC   C4A77298  36.990  38.356   7.204
 6181POPC   C1B77299  36.979  38.728   6.135
 6181POPC   C2B77300  36.923  38.598   6.583
 6181POPC   C3B77301  36.604  38.416   6.886
 6181POPC   C4B77302  36.595  38.718   7.205
 6182POPC   NC377303  30.263  11.496   5.451
 6182POPC   PO477304  29.606  11.487   5.432
 6182POPC   GL177305  29.885  11.322   5.748
 6182POPC   GL277306  30.036  11.011   5.747
 6182POPC   C1A77307  30.134  11.337   6.122
 6182POPC   D2A77308  29.866  11.523   6.387
 6182POPC   C3A77309  29.881  11.445   6.793
 6182POPC   C4A77310  29.942  11.410   7.199
 6182POPC   C1B77311  29.775  10.942   6.093
 6182POPC   C2B77312  29.929  10.998   6.521
 6182POPC   C3B77313  29.960  10.967   6.958
 6182POPC   C4B77314  30.050  10.882   7.358
 6183POPC   NC377315  27.819  29.086   5.468
 6183POPC   PO477316  27.118  29.301   5.648
 6183POPC   GL177317  27.475  29.190   5.833
 6183POPC   GL277318  27.699  29.479   5.821
 6183POPC   C1A77319  27.515  28.858   6.114
 6183POPC   D2A77320  27.637  28.891   6.522
 6183POPC   C3A77321  27.398  28.988   6.866
 6183POPC   C4A77322  27.665  28.915   7.204
 6183POPC   C1B77323  27.888  29.539   6.219
 6183POPC   C2B77324  27.699  29.532   6.623
 6183POPC   C3B77325  27.691  29.393   7.032
 6183POPC   C4B77326  27.513  29.362   7.421
 6184POPC   NC377327  20.167   4.767   5.508
 6184POPC   PO477328  19.915   4.048   5.436
 6184POPC   GL177329  19.686   4.178   5.795
 6184POPC   GL277330  19.915   4.453   5.840
 6184POPC   C1A77331  19.509   4.369   6.173
 6184POPC   D2A77332  19.687   4.556   6.540
 6184POPC   C3A77333  19.490   4.675   6.919
 6184POPC   C4A77334  19.656   4.600   7.374
 6184POPC   C1B77335  20.029   4.269   6.208
 6184POPC   C2B77336  20.172   4.379   6.606
 6184POPC   C3B77337  19.994   4.542   6.986
 6184POPC   C4B77338  20.186   4.421   7.368
 6185POPC   NC377339  40.616  30.246   5.421
 6185POPC   PO477340  40.939  29.612   5.387
 6185POPC   GL177341  40.705  29.850   5.749
 6185POPC   GL277342  40.859  30.207   5.857
 6185POPC   C1A77343  40.581  29.980   6.201
 6185POPC   D2A77344  40.757  30.222   6.567
 6185POPC   C3A77345  40.560  30.092   6.913
 6185POPC   C4A77346  40.433  30.072   7.300
 6185POPC   C1B77347  41.121  30.181   6.229
 6185POPC   C2B77348  41.199  29.897   6.551
 6185POPC   C3B77349  41.150  30.064   6.940
 6185POPC   C4B77350  40.891  29.822   7.177
 6186POPC   NC377351  10.692  34.177   5.447
 6186POPC   PO477352  10.227  33.739   5.444
 6186POPC   GL177353  10.425  33.876   5.818
 6186POPC   GL277354  10.428  33.535   5.936
 6186POPC   C1A77355  10.544  34.042   6.247
 6186POPC   D2A77356  10.413  33.972   6.707
 6186POPC   C3A77357  10.768  33.920   7.019
 6186POPC   C4A77358  10.816  33.985   7.497
 6186POPC   C1B77359  10.393  33.566   6.364
 6186POPC   C2B77360  10.590  33.475   6.717
 6186POPC   C3B77361  10.486  33.485   7.105
 6186POPC   C4B77362  10.678  33.511   7.491
 6187POPC   NC377363   4.222  22.370   5.322
 6187POPC   PO477364   4.256  21.797   5.620
 6187POPC   GL177365   4.203  22.211   5.817
 6187POPC   GL277366   4.538  22.311   5.765
 6187POPC   C1A77367   4.097  22.424   6.211
 6187POPC   D2A77368   4.021  22.160   6.570
 6187POPC   C3A77369   4.221  22.144   6.961
 6187POPC   C4A77370   4.283  22.507   7.205
 6187POPC   C1B77371   4.595  22.289   6.216
 6187POPC   C2B77372   4.489  22.461   6.625
 6187POPC   C3B77373   4.716  22.303   6.978
 6187POPC   C4B77374   4.613  22.000   7.280
 6188POPC   NC377375   2.635  31.031   5.424
 6188POPC   PO477376   3.044  31.544   5.477
 6188POPC   GL177377   2.760  31.439   5.786
 6188POPC   GL277378   2.453  31.624   5.783
 6188POPC   C1A77379   2.635  31.333   6.207
 6188POPC   D2A77380   2.884  31.251   6.549
 6188POPC   C3A77381   2.672  31.353   6.875
 6188POPC   C4A77382   2.826  31.438   7.257
 6188POPC   C1B77383   2.264  31.710   6.204
 6188POPC   C2B77384   2.261  31.569   6.639
 6188POPC   C3B77385   2.448  31.753   7.061
 6188POPC   C4B77386   2.486  31.679   7.562
 6189POPC   NC377387   5.622  21.389   5.373
 6189POPC   PO477388   6.182  21.537   5.657
 6189POPC   GL177389   5.994  21.441   5.964
 6189POPC   GL277390   5.768  21.237   5.837
 6189POPC   C1A77391   5.886  21.591   6.331
 6189POPC   D2A77392   5.822  21.327   6.648
 6189POPC   C3A77393   6.120  21.432   6.942
 6189POPC   C4A77394   5.985  21.601   7.329
 6189POPC   C1B77395   5.513  20.941   6.055
 6189POPC   C2B77396   5.503  20.927   6.499
 6189POPC   C3B77397   5.720  20.862   6.869
 6189POPC   C4B77398   5.733  21.198   7.154
 6190POPC   NC377399  11.897  42.658   5.701
 6190POPC   PO477400  12.315  42.379   5.230
 6190POPC   GL177401  12.305  42.340   5.739
 6190POPC   GL277402  12.020  42.147   5.841
 6190POPC   C1A77403  12.148  42.428   6.231
 6190POPC   D2A77404  11.926  42.488   6.618
 6190POPC   C3A77405  12.162  42.417   6.957
 6190POPC   C4A77406  12.214  42.568   7.315
 6190POPC   C1B77407  11.793  42.045   6.253
 6190POPC   C2B77408  11.719  42.021   6.695
 6190POPC   C3B77409  11.770  42.142   7.113
 6190POPC   C4B77410  12.002  42.073   7.477
 6191POPC   NC377411  23.077  31.131   5.517
 6191POPC   PO477412  22.714  30.644   5.482
 6191POPC   GL177413  22.923  30.743   5.863
 6191POPC   GL277414  23.262  30.676   5.750
 6191POPC   C1A77415  22.961  30.767   6.323
 6191POPC   D2A77416  23.073  30.999   6.692
 6191POPC   C3A77417  22.943  30.827   7.084
 6191POPC   C4A77418  22.837  30.881   7.532
 6191POPC   C1B77419  23.280  30.420   6.143
 6191POPC   C2B77420  23.121  30.303   6.579
 6191POPC   C3B77421  23.237  30.414   7.009
 6191POPC   C4B77422  22.969  30.410   7.390
 6192POPC   NC377423   9.135  11.459   5.511
 6192POPC   PO477424   9.177  10.804   5.672
 6192POPC   GL177425   9.045  11.121   5.902
 6192POPC   GL277426   8.848  11.444   5.962
 6192POPC   C1A77427   8.947  11.090   6.302
 6192POPC   D2A77428   8.825  11.414   6.507
 6192POPC   C3A77429   8.902  11.300   6.908
 6192POPC   C4A77430   8.889  11.302   7.340
 6192POPC   C1B77431   9.255  11.524   6.136
 6192POPC   C2B77432   9.330  11.572   6.522
 6192POPC   C3B77433   9.155  11.729   6.894
 6192POPC   C4B77434   9.291  11.592   7.301
 6193POPC   NC377435   2.865  30.262   5.423
 6193POPC   PO477436   3.082  30.907   5.329
 6193POPC   GL177437   2.888  30.752   5.766
 6193POPC   GL277438   2.783  30.404   5.898
 6193POPC   C1A77439   2.830  30.846   6.210
 6193POPC   D2A77440   3.014  30.758   6.611
 6193POPC   C3A77441   2.936  30.954   7.017
 6193POPC   C4A77442   2.534  31.029   7.279
 6193POPC   C1B77443   2.803  30.339   6.338
 6193POPC   C2B77444   2.598  30.477   6.709
 6193POPC   C3B77445   2.719  30.494   7.166
 6193POPC   C4B77446   2.724  30.347   7.619
 6194POPC   NC377447  41.837  26.073   5.518
 6194POPC   PO477448  41.213  25.788   5.501
 6194POPC   GL177449  41.452  25.894   5.843
 6194POPC   GL277450  41.464  26.263   5.862
 6194POPC   C1A77451  41.349  25.843   6.279
 6194POPC   D2A77452  41.114  25.629   6.607
 6194POPC   C3A77453  41.235  25.813   6.969
 6194POPC   C4A77454  41.536  25.870   7.245
 6194POPC   C1B77455  41.694  26.226   6.233
 6194POPC   C2B77456  41.575  26.159   6.662
 6194POPC   C3B77457  41.800  26.233   7.033
 6194POPC   C4B77458  41.520  26.375   7.378
 6195POPC   NC377459  36.361   2.167   5.492
 6195POPC   PO477460  35.855   1.651   5.601
 6195POPC   GL177461  36.141   1.873   5.854
 6195POPC   GL277462  36.181   2.213   5.958
 6195POPC   C1A77463  36.182   1.803   6.270
 6195POPC   D2A77464  36.367   1.793   6.641
 6195POPC   C3A77465  36.033   1.909   6.885
 6195POPC   C4A77466  35.970   1.924   7.305
 6195POPC   C1B77467  35.761   2.190   6.066
 6195POPC   C2B77468  35.746   2.154   6.542
 6195POPC   C3B77469  35.628   2.226   7.049
 6195POPC   C4B77470  35.635   2.184   7.569
 6196POPC   NC377471  28.755  18.089   5.400
 6196POPC   PO477472  29.445  18.112   5.338
 6196POPC   GL177473  29.400  18.236   5.761
 6196POPC   GL277474  29.051  18.311   5.786
 6196POPC   C1A77475  29.443  18.237   6.219
 6196POPC   D2A77476  29.306  18.410   6.616
 6196POPC   C3A77477  29.449  18.255   7.016
 6196POPC   C4A77478  29.354  18.509   7.363
 6196POPC   C1B77479  28.824  18.388   6.171
 6196POPC   C2B77480  28.840  18.206   6.587
 6196POPC   C3B77481  28.928  18.381   6.979
 6196POPC   C4B77482  28.617  18.535   7.162
 6197POPC   NC377483  32.125  31.730   5.345
 6197POPC   PO477484  31.866  31.028   5.232
 6197POPC   GL177485  31.976  31.031   5.737
 6197POPC   GL277486  32.135  31.359   5.686
 6197POPC   C1A77487  32.254  31.171   6.114
 6197POPC   D2A77488  32.339  31.470   6.477
 6197POPC   C3A77489  32.199  31.369   6.863
 6197POPC   C4A77490  32.422  31.233   7.246
 6197POPC   C1B77491  32.125  31.663   6.033
 6197POPC   C2B77492  31.945  31.799   6.422
 6197POPC   C3B77493  32.084  31.902   6.828
 6197POPC   C4B77494  32.234  31.729   7.224
 6198POPC   NC377495  33.153  32.563   5.329
 6198POPC   PO477496  32.755  32.108   5.579
 6198POPC   GL177497  32.934  32.009   5.917
 6198POPC   GL277498  33.089  32.317   5.917
 6198POPC   C1A77499  33.083  31.974   6.303
 6198POPC   D2A77500  33.015  32.284   6.584
 6198POPC   C3A77501  33.023  32.093   6.989
 6198POPC   C4A77502  33.355  31.917   7.238
 6198POPC   C1B77503  32.811  32.560   6.191
 6198POPC   C2B77504  32.659  32.788   6.538
 6198POPC   C3B77505  32.686  32.534   6.875
 6198POPC   C4B77506  32.818  32.555   7.240
 6199POPC   NC377507  33.985  35.796   5.177
 6199POPC   PO477508  33.469  36.270   5.310
 6199POPC   GL177509  33.543  36.341   5.774
 6199POPC   GL277510  33.891  36.356   5.863
 6199POPC   C1A77511  33.540  36.480   6.218
 6199POPC   D2A77512  33.813  36.340   6.576
 6199POPC   C3A77513  33.527  36.125   6.868
 6199POPC   C4A77514  33.330  36.318   7.218
 6199POPC   C1B77515  33.789  36.007   6.165
 6199POPC   C2B77516  33.965  35.801   6.543
 6199POPC   C3B77517  34.005  35.981   6.944
 6199POPC   C4B77518  33.783  36.089   7.359
 6200POPC   NC377519  38.965  41.713   5.431
 6200POPC   PO477520  39.670  41.452   5.443
 6200POPC   GL177521  39.330  41.562   5.780
 6200POPC   GL277522  39.021  41.336   5.773
 6200POPC   C1A77523  39.283  41.424   6.225
 6200POPC   D2A77524  39.251  41.610   6.661
 6200POPC   C3A77525  39.078  41.592   7.100
 6200POPC   C4A77526  39.149  41.700   7.528
 6200POPC   C1B77527  38.842  41.645   6.089
 6200POPC   C2B77528  38.798  41.808   6.508
 6200POPC   C3B77529  38.680  41.873   6.926
 6200POPC   C4B77530  38.644  41.739   7.396
 6201POPC   NC377531   6.052  15.752   5.455
 6201POPC   PO477532   5.670  16.263   5.696
 6201POPC   GL177533   5.893  15.968   5.897
 6201POPC   GL277534   5.723  15.643   5.830
 6201POPC   C1A77535   5.919  16.091   6.301
 6201POPC   D2A77536   5.813  16.275   6.684
 6201POPC   C3A77537   5.941  16.047   7.024
 6201POPC   C4A77538   5.573  15.959   7.235
 6201POPC   C1B77539   5.929  15.553   6.217
 6201POPC   C2B77540   5.922  15.703   6.614
 6201POPC   C3B77541   5.719  15.572   6.957
 6201POPC   C4B77542   5.578  15.398   7.365
 6202POPC   NC377543  18.710  19.166   5.441
 6202POPC   PO477544  18.081  18.832   5.359
 6202POPC   GL177545  18.181  19.068   5.723
 6202POPC   GL277546  18.476  18.954   5.852
 6202POPC   C1A77547  18.095  19.049   6.175
 6202POPC   D2A77548  18.301  19.098   6.577
 6202POPC   C3A77549  18.068  19.109   6.921
 6202POPC   C4A77550  18.129  19.284   7.303
 6202POPC   C1B77551  18.677  18.949   6.279
 6202POPC   C2B77552  18.745  18.926   6.752
 6202POPC   C3B77553  18.597  19.039   7.171
 6202POPC   C4B77554  18.522  18.729   7.510
 6203POPC   NC377555  31.506  24.141   5.471
 6203POPC   PO477556  31.705  24.821   5.398
 6203POPC   GL177557  31.696  24.625   5.797
 6203POPC   GL277558  31.370  24.528   5.828
 6203POPC   C1A77559  31.568  24.716   6.245
 6203POPC   D2A77560  31.499  24.466   6.599
 6203POPC   C3A77561  31.514  24.662   6.968
 6203POPC   C4A77562  31.636  24.386   7.260
 6203POPC   C1B77563  31.193  24.363   6.193
 6203POPC   C2B77564  31.142  24.087   6.564
 6203POPC   C3B77565  31.176  24.243   6.986
 6203POPC   C4B77566  31.166  24.502   7.361
 6204POPC   NC377567  42.593  24.610   5.570
 6204POPC   PO477568  42.000  24.356   5.408
 6204POPC   GL177569  42.187  24.382   5.770
 6204POPC   GL277570  42.111  24.739   5.864
 6204POPC   C1A77571  42.355  24.427   6.181
 6204POPC   D2A77572  42.132  24.430   6.569
 6204POPC   C3A77573  42.316  24.252   6.917
 6204POPC   C4A77574  42.420  24.382   7.325
 6204POPC   C1B77575  42.391  24.929   6.232
 6204POPC   C2B77576  42.453  24.856   6.700
 6204POPC   C3B77577  42.728  24.712   7.059
 6204POPC   C4B77578  42.718  24.727   7.547
 6205POPC   NC377579   0.973  27.158   5.585
 6205POPC   PO477580   1.349  27.676   5.336
 6205POPC   GL177581   1.332  27.522   5.811
 6205POPC   GL277582   1.017  27.384   6.043
 6205POPC   C1A77583   1.382  27.601   6.271
 6205POPC   D2A77584   1.174  27.337   6.628
 6205POPC   C3A77585   1.276  27.570   6.985
 6205POPC   C4A77586   1.565  27.917   7.025
 6205POPC   C1B77587   0.723  27.505   6.395
 6205POPC   C2B77588   0.657  27.677   6.854
 6205POPC   C3B77589   0.826  27.693   7.219
 6205POPC   C4B77590   0.909  27.263   7.170
 6206POPC   NC377591   2.060  32.430   5.402
 6206POPC   PO477592   1.625  32.013   5.587
 6206POPC   GL177593   1.923  32.218   5.860
 6206POPC   GL277594   1.890  32.561   5.879
 6206POPC   C1A77595   2.173  32.304   6.224
 6206POPC   D2A77596   2.229  32.072   6.594
 6206POPC   C3A77597   2.236  32.209   6.997
 6206POPC   C4A77598   2.108  31.961   7.368
 6206POPC   C1B77599   1.622  32.519   6.277
 6206POPC   C2B77600   1.731  32.335   6.678
 6206POPC   C3B77601   1.770  32.284   7.119
 6206POPC   C4B77602   1.780  32.320   7.550
 6207POPC   NC377603  27.389  32.327   5.119
 6207POPC   PO477604  27.365  32.487   5.731
 6207POPC   GL177605  27.628  32.321   6.042
 6207POPC   GL277606  27.897  32.104   5.961
 6207POPC   C1A77607  27.575  32.315   6.472
 6207POPC   D2A77608  27.370  32.557   6.755
 6207POPC   C3A77609  27.598  32.492   7.126
 6207POPC   C4A77610  27.878  32.131   7.166
 6207POPC   C1B77611  27.767  31.879   6.305
 6207POPC   C2B77612  27.771  31.876   6.720
 6207POPC   C3B77613  27.453  32.027   6.928
 6207POPC   C4B77614  27.155  31.799   7.138
 6208POPC   NC377615  21.214  42.456   5.309
 6208POPC   PO477616  21.807  42.028   5.378
 6208POPC   GL177617  21.556  42.141   5.740
 6208POPC   GL277618  21.688  42.490   5.773
 6208POPC   C1A77619  21.645  42.207   6.201
 6208POPC   D2A77620  21.496  42.424   6.579
 6208POPC   C3A77621  21.361  42.203   6.962
 6208POPC   C4A77622  21.532  42.122   7.336
 6208POPC   C1B77623  21.760  42.727   6.174
 6208POPC   C2B77624  21.913  42.730   6.614
 6208POPC   C3B77625  21.640  42.750   6.966
 6208POPC   C4B77626  21.321  42.599   7.259
 6209POPC   NC377627  37.206  27.314   5.505
 6209POPC   PO477628  36.691  27.699   5.510
 6209POPC   GL177629  36.831  27.429   5.839
 6209POPC   GL277630  36.845  27.752   6.014
 6209POPC   C1A77631  36.980  27.329   6.242
 6209POPC   D2A77632  36.877  27.631   6.546
 6209POPC   C3A77633  36.929  27.437   6.922
 6209POPC   C4A77634  37.048  27.619   7.283
 6209POPC   C1B77635  36.515  27.951   6.238
 6209POPC   C2B77636  36.354  27.838   6.622
 6209POPC   C3B77637  36.559  27.775   6.996
 6209POPC   C4B77638  36.718  27.993   7.361
 6210POPC   NC377639  34.546  41.982   5.410
 6210POPC   PO477640  34.890  41.330   5.446
 6210POPC   GL177641  34.618  41.559   5.729
 6210POPC   GL277642  34.852  41.821   5.791
 6210POPC   C1A77643  34.455  41.463   6.134
 6210POPC   D2A77644  34.573  41.482   6.568
 6210POPC   C3A77645  34.392  41.333   6.944
 6210POPC   C4A77646  34.173  41.600   7.285
 6210POPC   C1B77647  34.738  41.922   6.218
 6210POPC   C2B77648  34.682  41.980   6.652
 6210POPC   C3B77649  34.656  41.917   7.084
 6210POPC   C4B77650  34.676  41.578   7.274
 6211POPC   NC377651   1.548  32.894   5.728
 6211POPC   PO477652   2.199  32.863   5.511
 6211POPC   GL177653   2.063  33.069   5.879
 6211POPC   GL277654   2.310  32.828   6.004
 6211POPC   C1A77655   1.829  33.271   6.252
 6211POPC   D2A77656   1.623  33.418   6.654
 6211POPC   C3A77657   1.919  33.379   6.989
 6211POPC   C4A77658   2.271  33.143   7.105
 6211POPC   C1B77659   2.043  32.802   6.320
 6211POPC   C2B77660   1.996  32.952   6.699
 6211POPC   C3B77661   1.948  32.758   7.081
 6211POPC   C4B77662   1.605  32.754   7.307
 6212POPC   NC377663  39.410  34.009   5.368
 6212POPC   PO477664  38.915  33.696   5.486
 6212POPC   GL177665  39.195  33.854   5.817
 6212POPC   GL277666  39.504  34.098   5.849
 6212POPC   C1A77667  39.351  33.755   6.207
 6212POPC   D2A77668  39.674  33.723   6.508
 6212POPC   C3A77669  39.460  33.601   6.863
 6212POPC   C4A77670  39.232  33.621   7.249
 6212POPC   C1B77671  39.300  34.310   6.171
 6212POPC   C2B77672  39.296  34.146   6.558
 6212POPC   C3B77673  39.560  34.115   6.881
 6212POPC   C4B77674  39.404  34.180   7.274
 6213POPC   NC377675  21.239   2.826   5.124
 6213POPC   PO477676  21.557   2.302   5.488
 6213POPC   GL177677  21.553   2.663   5.808
 6213POPC   GL277678  21.228   2.844   5.904
 6213POPC   C1A77679  21.480   2.587   6.266
 6213POPC   D2A77680  21.578   2.408   6.650
 6213POPC   C3A77681  21.370   2.580   6.993
 6213POPC   C4A77682  21.394   2.459   7.399
 6213POPC   C1B77683  21.382   3.095   6.243
 6213POPC   C2B77684  21.470   3.001   6.692
 6213POPC   C3B77685  21.329   3.077   7.139
 6213POPC   C4B77686  20.976   3.246   7.360
 6214POPC   NC377687  39.764  21.017   5.466
 6214POPC   PO477688  39.901  20.375   5.328
 6214POPC   GL177689  40.079  20.584   5.712
 6214POPC   GL277690  40.129  20.213   5.826
 6214POPC   C1A77691  40.063  20.903   6.074
 6214POPC   D2A77692  39.972  20.869   6.522
 6214POPC   C3A77693  40.109  20.941   6.939
 6214POPC   C4A77694  39.925  20.897   7.377
 6214POPC   C1B77695  40.298  20.109   6.249
 6214POPC   C2B77696  40.120  20.346   6.576
 6214POPC   C3B77697  39.857  20.469   6.895
 6214POPC   C4B77698  40.108  20.448   7.237
 6215POPC   NC377699  42.303  18.587   5.340
 6215POPC   PO477700  42.571  17.904   5.517
 6215POPC   GL177701  42.244  18.089   5.822
 6215POPC   GL277702  42.151  18.442   5.802
 6215POPC   C1A77703  42.291  18.235   6.252
 6215POPC   D2A77704  42.427  18.532   6.538
 6215POPC   C3A77705  42.513  18.459   6.970
 6215POPC   C4A77706  42.382  18.094   7.192
 6215POPC   C1B77707  41.872  18.523   6.154
 6215POPC   C2B77708  41.900  18.375   6.572
 6215POPC   C3B77709  41.963  18.602   6.940
 6215POPC   C4B77710  42.052  18.456   7.355
 6216POPC   NC377711  38.523  33.553   5.283
 6216POPC   PO477712  38.648  34.215   5.246
 6216POPC   GL177713  38.509  33.933   5.678
 6216POPC   GL277714  38.480  33.571   5.776
 6216POPC   C1A77715  38.348  33.887   6.128
 6216POPC   D2A77716  38.569  33.787   6.495
 6216POPC   C3A77717  38.429  33.831   6.878
 6216POPC   C4A77718  38.217  33.617   7.177
 6216POPC   C1B77719  38.822  33.624   6.096
 6216POPC   C2B77720  38.992  33.498   6.479
 6216POPC   C3B77721  38.933  33.659   6.848
 6216POPC   C4B77722  38.733  33.586   7.211
 6217POPC   NC377723  12.243  21.331   5.639
 6217POPC   PO477724  11.717  21.607   5.491
 6217POPC   GL177725  11.771  21.342   5.867
 6217POPC   GL277726  11.717  20.969   5.783
 6217POPC   C1A77727  12.022  21.491   6.253
 6217POPC   D2A77728  12.104  21.454   6.693
 6217POPC   C3A77729  12.114  21.548   7.129
 6217POPC   C4A77730  12.389  21.651   7.488
 6217POPC   C1B77731  11.991  20.967   6.168
 6217POPC   C2B77732  12.228  20.981   6.554
 6217POPC   C3B77733  12.243  21.049   6.977
 6217POPC   C4B77734  12.006  20.967   7.304
 6218POPC   NC377735   6.746  35.154   5.603
 6218POPC   PO477736   6.462  35.724   5.387
 6218POPC   GL177737   6.415  35.516   5.802
 6218POPC   GL277738   6.218  35.198   5.758
 6218POPC   C1A77739   6.624  35.519   6.230
 6218POPC   D2A77740   6.397  35.664   6.591
 6218POPC   C3A77741   6.624  35.571   6.948
 6218POPC   C4A77742   6.856  35.330   7.224
 6218POPC   C1B77743   6.349  35.086   6.173
 6218POPC   C2B77744   6.546  35.145   6.592
 6218POPC   C3B77745   6.363  35.150   6.998
 6218POPC   C4B77746   6.210  34.866   7.245
 6219POPC   NC377747  26.631  42.445   5.527
 6219POPC   PO477748  27.257  42.760   5.602
 6219POPC   GL177749  27.021  42.425   5.870
 6219POPC   GL277750  26.660  42.519   6.022
 6219POPC   C1A77751  26.984  42.225   6.302
 6219POPC   D2A77752  26.718  42.456   6.614
 6219POPC   C3A77753  26.713  42.408   7.063
 6219POPC   C4A77754  26.986  42.458   7.405
 6219POPC   C1B77755  26.385  42.231   6.290
 6219POPC   C2B77756  26.524  41.969   6.661
 6219POPC   C3B77757  26.403  41.997   7.099
 6219POPC   C4B77758  26.559  42.145   7.494
 6220POPC   NC377759  16.637  23.167   5.387
 6220POPC   PO477760  17.111  22.770   5.568
 6220POPC   GL177761  16.988  22.989   5.953
 6220POPC   GL277762  16.613  23.083   5.911
 6220POPC   C1A77763  16.907  22.846   6.390
 6220POPC   D2A77764  16.534  22.838   6.667
 6220POPC   C3A77765  16.700  22.734   7.062
 6220POPC   C4A77766  16.963  22.394   7.207
 6220POPC   C1B77767  16.594  23.255   6.323
 6220POPC   C2B77768  16.816  23.275   6.709
 6220POPC   C3B77769  16.598  23.242   7.063
 6220POPC   C4B77770  16.223  23.332   7.255
 6221POPC   NC377771  32.493  10.041   5.171
 6221POPC   PO477772  32.034   9.608   5.509
 6221POPC   GL177773  32.211   9.793   5.845
 6221POPC   GL277774  32.054  10.088   5.716
 6221POPC   C1A77775  32.144   9.670   6.299
 6221POPC   D2A77776  32.004   9.549   6.736
 6221POPC   C3A77777  32.326   9.647   7.061
 6221POPC   C4A77778  32.414   9.581   7.496
 6221POPC   C1B77779  31.959  10.127   6.148
 6221POPC   C2B77780  32.097  10.103   6.602
 6221POPC   C3B77781  31.931   9.985   7.017
 6221POPC   C4B77782  32.018   9.915   7.469
 6222POPC   NC377783  29.848   3.749   5.529
 6222POPC   PO477784  29.854   4.462   5.348
 6222POPC   GL177785  29.822   4.514   5.777
 6222POPC   GL277786  29.778   4.153   5.861
 6222POPC   C1A77787  30.056   4.550   6.166
 6222POPC   D2A77788  30.059   4.292   6.527
 6222POPC   C3A77789  30.066   4.536   6.872
 6222POPC   C4A77790  30.067   4.351   7.236
 6222POPC   C1B77791  29.593   4.302   6.254
 6222POPC   C2B77792  29.539   4.383   6.700
 6222POPC   C3B77793  29.553   4.332   7.151
 6222POPC   C4B77794  29.694   4.444   7.581
 6223POPC   NC377795  37.673  19.465   5.477
 6223POPC   PO477796  37.975  20.130   5.397
 6223POPC   GL177797  37.894  19.861   5.778
 6223POPC   GL277798  37.748  19.550   5.954
 6223POPC   C1A77799  37.706  19.964   6.191
 6223POPC   D2A77800  37.617  19.718   6.536
 6223POPC   C3A77801  37.771  19.847   6.921
 6223POPC   C4A77802  37.525  19.779   7.235
 6223POPC   C1B77803  38.038  19.566   6.288
 6223POPC   C2B77804  37.971  19.371   6.701
 6223POPC   C3B77805  37.918  19.397   7.153
 6223POPC   C4B77806  37.655  19.389   7.530
 6224POPC   NC377807  43.008  14.341   5.464
 6224POPC   PO477808  42.685  13.708   5.504
 6224POPC   GL177809  42.854  14.058   5.865
 6224POPC   GL277810  43.198  14.285   5.915
 6224POPC   C1A77811  42.902  14.277   6.306
 6224POPC   D2A77812  42.856  14.204   6.739
 6224POPC   C3A77813  43.154  14.426   7.047
 6224POPC   C4A77814  43.296  14.869   7.116
 6224POPC   C1B77815  43.429  14.227   6.296
 6224POPC   C2B77816  43.343  14.025   6.726
 6224POPC   C3B77817  43.522  14.082   7.163
 6224POPC   C4B77818  43.367  14.190   7.595
 6225POPC   NC377819  20.057  15.539   5.598
 6225POPC   PO477820  19.737  14.921   5.395
 6225POPC   GL177821  19.781  15.122   5.779
 6225POPC   GL277822  20.005  14.879   5.922
 6225POPC   C1A77823  19.804  15.384   6.173
 6225POPC   D2A77824  20.083  15.440   6.521
 6225POPC   C3A77825  19.852  15.457   6.891
 6225POPC   C4A77826  20.006  15.407   7.295
 6225POPC   C1B77827  19.610  14.883   6.191
 6225POPC   C2B77828  19.537  14.702   6.576
 6225POPC   C3B77829  19.485  14.802   6.970
 6225POPC   C4B77830  19.875  14.967   7.068
 6226POPC   NC377831   3.420  18.495   5.360
 6226POPC   PO477832   3.391  17.789   5.407
 6226POPC   GL177833   3.401  18.145   5.767
 6226POPC   GL277834   3.696  18.344   5.767
 6226POPC   C1A77835   3.506  18.152   6.249
 6226POPC   D2A77836   3.309  18.206   6.643
 6226POPC   C3A77837   3.499  18.018   6.989
 6226POPC   C4A77838   3.461  18.294   7.317
 6226POPC   C1B77839   3.657  18.611   6.089
 6226POPC   C2B77840   3.593  18.612   6.491
 6226POPC   C3B77841   3.628  18.541   6.907
 6226POPC   C4B77842   3.632  18.773   7.275
 6227POPC   NC377843   6.913  32.149   5.473
 6227POPC   PO477844   6.359  32.640   5.435
 6227POPC   GL177845   6.581  32.441   5.793
 6227POPC   GL277846   6.557  32.090   5.861
 6227POPC   C1A77847   6.710  32.406   6.231
 6227POPC   D2A77848   6.956  32.247   6.558
 6227POPC   C3A77849   6.880  32.454   6.933
 6227POPC   C4A77850   6.771  32.366   7.343
 6227POPC   C1B77851   6.704  31.873   6.226
 6227POPC   C2B77852   6.734  31.753   6.658
 6227POPC   C3B77853   6.652  31.868   7.120
 6227POPC   C4B77854   6.345  31.949   7.461
 6228POPC   NC377855  21.999  35.870   5.567
 6228POPC   PO477856  22.256  35.281   5.412
 6228POPC   GL177857  22.249  35.341   5.831
 6228POPC   GL277858  22.513  35.067   5.861
 6228POPC   C1A77859  22.022  35.512   6.215
 6228POPC   D2A77860  21.935  35.296   6.615
 6228POPC   C3A77861  21.986  35.530   6.989
 6228POPC   C4A77862  22.056  35.156   7.236
 6228POPC   C1B77863  22.402  35.196   6.296
 6228POPC   C2B77864  22.377  35.557   6.621
 6228POPC   C3B77865  22.483  35.488   7.059
 6228POPC   C4B77866  22.516  35.239   7.413
 6229POPC   NC377867   1.762   0.768   5.189
 6229POPC   PO477868   2.168   1.234   5.144
 6229POPC   GL177869   2.252   1.211   5.626
 6229POPC   GL277870   1.946   1.313   5.728
 6229POPC   C1A77871   2.247   1.050   6.113
 6229POPC   D2A77872   2.005   0.834   6.474
 6229POPC   C3A77873   2.002   1.057   6.874
 6229POPC   C4A77874   2.158   1.247   7.239
 6229POPC   C1B77875   2.020   1.517   6.114
 6229POPC   C2B77876   2.150   1.426   6.518
 6229POPC   C3B77877   1.963   1.572   6.884
 6229POPC   C4B77878   1.849   1.673   7.287
 6230POPC   NC377879  13.541  32.465   5.606
 6230POPC   PO477880  13.896  32.001   5.503
 6230POPC   GL177881  13.963  32.331   5.813
 6230POPC   GL277882  13.884  32.107   6.065
 6230POPC   C1A77883  13.837  32.595   6.198
 6230POPC   D2A77884  13.828  32.371   6.582
 6230POPC   C3A77885  13.773  32.641   6.970
 6230POPC   C4A77886  13.862  32.505   7.363
 6230POPC   C1B77887  13.505  31.981   6.285
 6230POPC   C2B77888  13.383  32.065   6.692
 6230POPC   C3B77889  13.664  32.146   7.020
 6230POPC   C4B77890  13.500  32.107   7.387
 6231POPC   NC377891  21.861  14.771   5.571
 6231POPC   PO477892  22.256  14.509   5.129
 6231POPC   GL177893  22.199  14.326   5.685
 6231POPC   GL277894  22.295  14.645   5.825
 6231POPC   C1A77895  21.996  14.213   6.130
 6231POPC   D2A77896  21.791  14.109   6.571
 6231POPC   C3A77897  22.111  13.994   6.891
 6231POPC   C4A77898  22.108  13.839   7.311
 6231POPC   C1B77899  22.376  14.628   6.264
 6231POPC   C2B77900  22.473  14.616   6.715
 6231POPC   C3B77901  22.345  14.458   7.100
 6231POPC   C4B77902  22.285  14.288   7.476
 6232POPC   NC377903  18.889  21.584   5.453
 6232POPC   PO477904  19.322  21.155   5.185
 6232POPC   GL177905  19.328  21.217   5.676
 6232POPC   GL277906  19.010  21.328   5.863
 6232POPC   C1A77907  19.419  21.361   6.144
 6232POPC   D2A77908  19.187  21.513   6.522
 6232POPC   C3A77909  19.307  21.305   6.906
 6232POPC   C4A77910  19.077  21.090   7.230
 6232POPC   C1B77911  18.836  21.663   6.155
 6232POPC   C2B77912  18.681  21.757   6.548
 6232POPC   C3B77913  18.686  21.498   6.918
 6232POPC   C4B77914  18.778  21.602   7.311
 6233POPC   NC377915  11.100  30.807   5.231
 6233POPC   PO477916  11.744  30.593   5.326
 6233POPC   GL177917  11.549  30.858   5.702
 6233POPC   GL277918  11.164  30.813   5.768
 6233POPC   C1A77919  11.502  30.850   6.194
 6233POPC   D2A77920  11.674  30.885   6.637
 6233POPC   C3A77921  11.647  30.866   7.137
 6233POPC   C4A77922  11.569  30.555   7.545
 6233POPC   C1B77923  11.099  30.529   6.148
 6233POPC   C2B77924  11.262  30.572   6.580
 6233POPC   C3B77925  11.198  30.843   6.920
 6233POPC   C4B77926  11.127  30.644   7.313
 6234POPC   NC377927   9.363   9.825   5.395
 6234POPC   PO477928   8.679   9.676   5.436
 6234POPC   GL177929   8.805   9.854   5.817
 6234POPC   GL277930   9.150   9.916   5.870
 6234POPC   C1A77931   8.757   9.990   6.222
 6234POPC   D2A77932   8.702   9.698   6.533
 6234POPC   C3A77933   8.852   9.698   6.925
 6234POPC   C4A77934   8.719   9.850   7.319
 6234POPC   C1B77935   9.178   9.691   6.280
 6234POPC   C2B77936   9.228   9.426   6.662
 6234POPC   C3B77937   9.291   9.534   7.100
 6234POPC   C4B77938   9.183  10.004   7.161
 6235POPC   NC377939  10.938  43.938   5.616
 6235POPC   PO477940  11.616  44.030   5.538
 6235POPC   GL177941  11.391  43.854   5.860
 6235POPC   GL277942  11.211  43.528   5.813
 6235POPC   C1A77943  11.271  44.017   6.243
 6235POPC   D2A77944  11.492  43.906   6.597
 6235POPC   C3A77945  11.382  44.113   6.933
 6235POPC   C4A77946  10.988  44.149   7.094
 6235POPC   C1B77947  11.382  43.502   6.240
 6235POPC   C2B77948  11.252  43.420   6.676
 6235POPC   C3B77949  11.199  43.640   7.082
 6235POPC   C4B77950  11.468  43.675   7.443
 6236POPC   NC377951   6.409  12.344   5.653
 6236POPC   PO477952   6.738  11.842   5.276
 6236POPC   GL177953   6.756  11.966   5.755
 6236POPC   GL277954   6.846  12.350   5.913
 6236POPC   C1A77955   6.804  11.962   6.227
 6236POPC   D2A77956   6.999  12.226   6.559
 6236POPC   C3A77957   6.826  12.167   6.970
 6236POPC   C4A77958   6.650  11.845   7.202
 6236POPC   C1B77959   6.549  12.409   6.328
 6236POPC   C2B77960   6.390  12.346   6.790
 6236POPC   C3B77961   6.303  12.233   7.279
 6236POPC   C4B77962   6.385  12.149   7.781
 6237POPC   NC377963   5.783  42.624   5.502
 6237POPC   PO477964   5.817  43.296   5.346
 6237POPC   GL177965   5.969  43.313   5.776
 6237POPC   GL277966   5.990  42.959   5.865
 6237POPC   C1A77967   5.840  43.306   6.239
 6237POPC   D2A77968   5.911  43.147   6.660
 6237POPC   C3A77969   5.624  43.197   6.980
 6237POPC   C4A77970   5.894  43.308   7.312
 6237POPC   C1B77971   5.961  42.799   6.293
 6237POPC   C2B77972   5.851  42.623   6.679
 6237POPC   C3B77973   6.075  42.712   7.037
 6237POPC   C4B77974   5.793  42.819   7.304
 6238POPC   NC377975   7.118  33.817   5.549
 6238POPC   PO477976   6.470  33.839   5.202
 6238POPC   GL177977   6.490  33.856   5.690
 6238POPC   GL277978   6.792  33.829   5.919
 6238POPC   C1A77979   6.378  33.599   6.076
 6238POPC   D2A77980   6.536  33.488   6.484
 6238POPC   C3A77981   6.378  33.623   6.877
 6238POPC   C4A77982   6.536  33.514   7.273
 6238POPC   C1B77983   6.679  33.959   6.322
 6238POPC   C2B77984   6.845  33.847   6.717
 6238POPC   C3B77985   6.764  33.945   7.142
 6238POPC   C4B77986   6.512  34.200   7.405
 6239POPC   NC377987  17.096  25.199   5.624
 6239POPC   PO477988  17.787  25.118   5.487
 6239POPC   GL177989  17.682  25.124   5.887
 6239POPC   GL277990  17.580  25.457   5.922
 6239POPC   C1A77991  17.854  25.191   6.291
 6239POPC   D2A77992  17.857  25.533   6.611
 6239POPC   C3A77993  17.819  25.265   6.920
 6239POPC   C4A77994  17.557  25.097   7.205
 6239POPC   C1B77995  17.418  25.434   6.369
 6239POPC   C2B77996  17.324  25.154   6.697
 6239POPC   C3B77997  17.073  25.109   7.073
 6239POPC   C4B77998  17.259  25.469   7.328
 6240POPC   NC377999  42.846   5.138   5.442
 6240POPC   PO478000  42.134   5.079   5.497
 6240POPC   GL178001  42.214   4.911   5.872
 6240POPC   GL278002  42.557   5.011   5.830
 6240POPC   C1A78003  42.326   5.128   6.263
 6240POPC   D2A78004  42.289   5.325   6.630
 6240POPC   C3A78005  42.290   5.103   7.041
 6240POPC   C4A78006  42.043   4.893   7.423
 6240POPC   C1B78007  42.734   4.821   6.201
 6240POPC   C2B78008  42.737   5.017   6.608
 6240POPC   C3B78009  42.723   4.800   6.979
 6240POPC   C4B78010  42.534   4.798   7.376
 6241POPC   NC378011  22.037   2.180   5.336
 6241POPC   PO478012  22.564   1.791   5.582
 6241POPC   GL178013  22.304   2.008   5.832
 6241POPC   GL278014  22.404   2.339   5.862
 6241POPC   C1A78015  22.203   2.017   6.268
 6241POPC   D2A78016  22.066   2.324   6.553
 6241POPC   C3A78017  22.102   2.257   6.993
 6241POPC   C4A78018  22.112   1.930   7.260
 6241POPC   C1B78019  22.436   2.560   6.297
 6241POPC   C2B78020  22.400   2.619   6.779
 6241POPC   C3B78021  22.526   2.530   7.187
 6241POPC   C4B78022  22.304   2.305   7.529
 6242POPC   NC378023  43.632  41.115   5.488
 6242POPC   PO478024  44.251  41.308   5.679
 6242POPC   GL178025  44.016  40.879   5.762
 6242POPC   GL278026  44.198  40.558   5.904
 6242POPC   C1A78027  43.742  40.791   6.124
 6242POPC   D2A78028  43.935  40.859   6.534
 6242POPC   C3A78029  43.758  40.835   6.943
 6242POPC   C4A78030  43.885  41.020   7.298
 6242POPC   C1B78031  44.031  40.393   6.309
 6242POPC   C2B78032  43.912  40.388   6.753
 6242POPC   C3B78033  44.159  40.463   7.121
 6242POPC   C4B78034  44.302  40.308   7.527
 6243POPC   NC378035  29.774  42.002   5.362
 6243POPC   PO478036  30.025  41.445   5.198
 6243POPC   GL178037  29.897  41.501   5.665
 6243POPC   GL278038  30.045  41.816   5.792
 6243POPC   C1A78039  29.864  41.347   6.129
 6243POPC   D2A78040  29.676  41.495   6.500
 6243POPC   C3A78041  29.768  41.454   6.906
 6243POPC   C4A78042  29.719  41.181   7.240
 6243POPC   C1B78043  29.791  41.866   6.159
 6243POPC   C2B78044  29.985  41.921   6.571
 6243POPC   C3B78045  30.189  41.855   6.957
 6243POPC   C4B78046  29.889  41.799   7.257
 6244POPC   NC378047   3.863  11.048   5.449
 6244POPC   PO478048   3.341  11.527   5.355
 6244POPC   GL178049   3.248  11.294   5.740
 6244POPC   GL278050   3.594  11.178   5.868
 6244POPC   C1A78051   3.251  11.451   6.155
 6244POPC   D2A78052   3.426  11.606   6.524
 6244POPC   C3A78053   3.556  11.351   6.829
 6244POPC   C4A78054   3.333  11.436   7.191
 6244POPC   C1B78055   3.632  11.132   6.313
 6244POPC   C2B78056   3.517  10.849   6.620
 6244POPC   C3B78057   3.350  10.903   7.019
 6244POPC   C4B78058   3.655  11.039   7.240
 6245POPC   NC378059   6.036   7.909   5.281
 6245POPC   PO478060   5.795   7.282   5.350
 6245POPC   GL178061   5.886   7.532   5.724
 6245POPC   GL278062   5.596   7.680   5.887
 6245POPC   C1A78063   5.906   7.391   6.177
 6245POPC   D2A78064   6.035   7.266   6.614
 6245POPC   C3A78065   5.784   7.144   6.928
 6245POPC   C4A78066   5.816   7.330   7.325
 6245POPC   C1B78067   5.441   7.611   6.258
 6245POPC   C2B78068   5.692   7.655   6.575
 6245POPC   C3B78069   5.831   7.683   6.966
 6245POPC   C4B78070   5.656   7.821   7.374
 6246POPC   NC378071   0.572  42.552   5.167
 6246POPC   PO478072   0.249  42.077   5.356
 6246POPC   GL178073   0.434  42.385   5.658
 6246POPC   GL278074   0.146  42.485   5.807
 6246POPC   C1A78075   0.559  42.401   6.125
 6246POPC   D2A78076   0.784  42.315   6.555
 6246POPC   C3A78077   0.587  42.478   6.949
 6246POPC   C4A78078   0.715  42.445   7.374
 6246POPC   C1B78079   0.051  42.239   6.156
 6246POPC   C2B78080   0.238  42.284   6.566
 6246POPC   C3B78081   0.049  42.397   6.951
 6246POPC   C4B78082   0.217  42.395   7.336
 6247POPC   NC378083  32.146  24.810   5.210
 6247POPC   PO478084  32.520  24.267   5.233
 6247POPC   GL178085  32.334  24.480   5.605
 6247POPC   GL278086  32.173  24.830   5.725
 6247POPC   C1A78087  32.133  24.347   5.998
 6247POPC   D2A78088  32.287  24.184   6.414
 6247POPC   C3A78089  32.018  24.280   6.789
 6247POPC   C4A78090  32.129  24.370   7.214
 6247POPC   C1B78091  32.500  24.699   6.046
 6247POPC   C2B78092  32.504  24.739   6.523
 6247POPC   C3B78093  32.477  24.724   7.001
 6247POPC   C4B78094  32.572  24.916   7.413
 6248POPC   NC378095   5.846   4.814   5.424
 6248POPC   PO478096   5.576   5.385   5.053
 6248POPC   GL178097   5.686   5.310   5.546
 6248POPC   GL278098   6.051   5.396   5.631
 6248POPC   C1A78099   5.744   5.244   6.055
 6248POPC   D2A78100   5.626   5.175   6.541
 6248POPC   C3A78101   5.932   5.068   6.915
 6248POPC   C4A78102   5.833   4.903   7.307
 6248POPC   C1B78103   6.245   5.403   6.066
 6248POPC   C2B78104   6.124   5.334   6.518
 6248POPC   C3B78105   6.234   5.491   6.961
 6248POPC   C4B78106   6.169   5.271   7.366
 6249POPC   NC378107  44.722  14.675   5.436
 6249POPC   PO478108  44.943  14.054   5.553
 6249POPC   GL178109  44.840  14.368   5.844
 6249POPC   GL278110  44.514  14.404   5.881
 6249POPC   C1A78111  44.816  14.371   6.279
 6249POPC   D2A78112  44.655  14.456   6.644
 6249POPC   C3A78113  44.914  14.456   6.937
 6249POPC   C4A78114  44.813  14.584   7.289
 6249POPC   C1B78115  44.299  14.501   6.289
 6249POPC   C2B78116  44.165  14.531   6.740
 6249POPC   C3B78117  44.352  14.438   7.163
 6249POPC   C4B78118  44.488  14.117   7.460
 6250POPC   NC378119   2.350  14.485   5.563
 6250POPC   PO478120   1.740  14.261   5.410
 6250POPC   GL178121   2.021  14.200   5.793
 6250POPC   GL278122   1.959  14.511   5.885
 6250POPC   C1A78123   2.236  14.269   6.227
 6250POPC   D2A78124   2.096  14.470   6.629
 6250POPC   C3A78125   2.338  14.519   6.978
 6250POPC   C4A78126   2.138  14.322   7.296
 6250POPC   C1B78127   1.801  14.658   6.264
 6250POPC   C2B78128   1.593  14.667   6.664
 6250POPC   C3B78129   1.679  14.545   7.079
 6250POPC   C4B78130   1.677  14.371   7.513
 6251POPC   NC378131   4.819  44.906   5.515
 6251POPC   PO478132   5.433  44.552   5.453
 6251POPC   GL178133   5.156  44.627   5.789
 6251POPC   GL278134   5.435  44.764   5.959
 6251POPC   C1A78135   4.985  44.842   6.149
 6251POPC   D2A78136   5.258   0.043   6.418
 6251POPC   C3A78137   5.194  44.859   6.777
 6251POPC   C4A78138   5.017  44.821   7.162
 6251POPC   C1B78139   5.261  44.457   6.282
 6251POPC   C2B78140   5.335  44.375   6.702
 6251POPC   C3B78141   5.515  44.572   7.048
 6251POPC   C4B78142   5.282  44.383   7.280
 6252POPC   NC378143  36.528   3.806   5.408
 6252POPC   PO478144  36.889   3.184   5.441
 6252POPC   GL178145  36.857   3.509   5.812
 6252POPC   GL278146  37.124   3.756   5.782
 6252POPC   C1A78147  36.714   3.509   6.303
 6252POPC   D2A78148  36.531   3.637   6.741
 6252POPC   C3A78149  36.789   3.501   7.089
 6252POPC   C4A78150  37.118   3.156   7.101
 6252POPC   C1B78151  37.209   3.605   6.191
 6252POPC   C2B78152  37.169   3.419   6.582
 6252POPC   C3B78153  37.322   3.593   6.938
 6252POPC   C4B78154  37.166   3.762   7.280
 6253POPC   NC378155  44.350  38.154   5.541
 6253POPC   PO478156  44.843  38.722   5.488
 6253POPC   GL178157  44.581  38.553   5.793
 6253POPC   GL278158  44.412  38.778   6.016
 6253POPC   C1A78159  44.628  38.312   6.178
 6253POPC   D2A78160  44.537  38.471   6.599
 6253POPC   C3A78161  44.758  38.245   6.878
 6253POPC   C4A78162  44.739  38.101   7.265
 6253POPC   C1B78163  44.833  38.764   6.299
 6253POPC   C2B78164  44.945  38.734   6.762
 6253POPC   C3B78165  44.686  38.691   7.123
 6253POPC   C4B78166  44.266  38.713   7.041
 6254POPC   NC378167  39.708  17.768   5.346
 6254POPC   PO478168  40.334  17.672   5.477
 6254POPC   GL178169  40.206  17.447   5.832
 6254POPC   GL278170  39.925  17.651   5.824
 6254POPC   C1A78171  40.009  17.252   6.201
 6254POPC   D2A78172  40.163  17.345   6.608
 6254POPC   C3A78173  39.853  17.299   6.926
 6254POPC   C4A78174  39.813  17.167   7.360
 6254POPC   C1B78175  40.148  17.754   6.236
 6254POPC   C2B78176  39.987  17.850   6.633
 6254POPC   C3B78177  40.039  18.038   7.020
 6254POPC   C4B78178  40.251  17.868   7.403
 6255POPC   NC378179  31.517  10.435   5.191
 6255POPC   PO478180  31.164  10.915   5.437
 6255POPC   GL178181  31.278  10.633   5.772
 6255POPC   GL278182  31.574  10.417   5.756
 6255POPC   C1A78183  31.390  10.715   6.186
 6255POPC   D2A78184  31.341  10.494   6.558
 6255POPC   C3A78185  31.225  10.656   6.922
 6255POPC   C4A78186  31.327  10.709   7.341
 6255POPC   C1B78187  31.437  10.194   6.144
 6255POPC   C2B78188  31.596  10.041   6.535
 6255POPC   C3B78189  31.471  10.199   6.948
 6255POPC   C4B78190  31.650  10.317   7.360
 6256POPC   NC378191   1.053  25.777   5.419
 6256POPC   PO478192   1.537  26.225   5.190
 6256POPC   GL178193   1.359  26.194   5.659
 6256POPC   GL278194   1.356  25.904   5.853
 6256POPC   C1A78195   1.339  26.379   6.138
 6256POPC   D2A78196   1.475  26.283   6.596
 6256POPC   C3A78197   1.216  26.290   7.006
 6256POPC   C4A78198   1.361  26.213   7.449
 6256POPC   C1B78199   1.444  25.661   6.214
 6256POPC   C2B78200   1.170  25.748   6.566
 6256POPC   C3B78201   0.953  25.631   6.924
 6256POPC   C4B78202   1.016  25.719   7.320
 6257POPC   NC378203   7.147   0.934   5.628
 6257POPC   PO478204   6.541   0.980   5.291
 6257POPC   GL178205   6.612   1.044   5.753
 6257POPC   GL278206   6.591   1.376   5.800
 6257POPC   C1A78207   6.486   1.136   6.228
 6257POPC   D2A78208   6.420   0.967   6.661
 6257POPC   C3A78209   6.374   1.254   7.027
 6257POPC   C4A78210   6.562   1.467   7.382
 6257POPC   C1B78211   6.529   1.647   6.180
 6257POPC   C2B78212   6.544   1.498   6.596
 6257POPC   C3B78213   6.860   1.403   6.897
 6257POPC   C4B78214   7.029   1.571   7.254
 6258POPC   NC378215  18.550  15.119   5.314
 6258POPC   PO478216  18.021  15.469   5.551
 6258POPC   GL178217  18.431  15.356   5.783
 6258POPC   GL278218  18.428  15.015   5.844
 6258POPC   C1A78219  18.667  15.274   6.205
 6258POPC   D2A78220  18.580  15.152   6.647
 6258POPC   C3A78221  18.219  15.313   6.891
 6258POPC   C4A78222  18.389  15.373   7.308
 6258POPC   C1B78223  18.255  14.918   6.278
 6258POPC   C2B78224  18.193  14.794   6.731
 6258POPC   C3B78225  18.417  14.898   7.099
 6258POPC   C4B78226  18.196  14.944   7.473
 6259POPC   NC378227  33.244  10.148   5.505
 6259POPC   PO478228  32.697  10.470   5.209
 6259POPC   GL178229  32.940  10.562   5.662
 6259POPC   GL278230  33.306  10.608   5.746
 6259POPC   C1A78231  32.952  10.625   6.109
 6259POPC   D2A78232  32.750  10.719   6.492
 6259POPC   C3A78233  32.916  10.494   6.813
 6259POPC   C4A78234  32.779  10.475   7.209
 6259POPC   C1B78235  33.432  10.828   6.138
 6259POPC   C2B78236  33.271  10.785   6.526
 6259POPC   C3B78237  33.347  10.745   6.925
 6259POPC   C4B78238  33.249  10.692   7.310
 6260POPC   NC378239   8.962   3.432   5.500
 6260POPC   PO478240   8.650   4.032   5.464
 6260POPC   GL178241   8.689   3.752   5.839
 6260POPC   GL278242   8.656   3.373   5.897
 6260POPC   C1A78243   8.703   3.728   6.280
 6260POPC   D2A78244   9.047   3.683   6.575
 6260POPC   C3A78245   9.041   3.807   7.018
 6260POPC   C4A78246   8.784   3.489   7.200
 6260POPC   C1B78247   8.891   3.262   6.257
 6260POPC   C2B78248   9.007   3.169   6.672
 6260POPC   C3B78249   8.714   3.018   6.963
 6260POPC   C4B78250   8.465   3.109   7.318
 6261POPC   NC378251   2.493   2.177   5.472
 6261POPC   PO478252   2.972   1.777   5.385
 6261POPC   GL178253   2.813   1.902   5.781
 6261POPC   GL278254   2.891   2.239   5.820
 6261POPC   C1A78255   2.865   1.876   6.224
 6261POPC   D2A78256   3.055   1.795   6.604
 6261POPC   C3A78257   2.789   1.867   6.940
 6261POPC   C4A78258   2.948   1.968   7.325
 6261POPC   C1B78259   2.635   2.343   6.203
 6261POPC   C2B78260   2.746   2.271   6.649
 6261POPC   C3B78261   2.634   2.326   7.093
 6261POPC   C4B78262   2.547   2.349   7.552
 6262POPC   NC378263  17.198  42.935   5.602
 6262POPC   PO478264  17.644  43.310   5.232
 6262POPC   GL178265  17.591  43.350   5.690
 6262POPC   GL278266  17.923  43.289   5.835
 6262POPC   C1A78267  17.515  43.155   6.127
 6262POPC   D2A78268  17.607  42.997   6.535
 6262POPC   C3A78269  17.410  43.126   6.899
 6262POPC   C4A78270  17.361  42.991   7.298
 6262POPC   C1B78271  17.911  43.448   6.279
 6262POPC   C2B78272  17.866  43.384   6.731
 6262POPC   C3B78273  17.912  43.534   7.137
 6262POPC   C4B78274  17.782  43.345   7.540
 6263POPC   NC378275  31.428  32.726   5.544
 6263POPC   PO478276  31.664  33.359   5.448
 6263POPC   GL178277  31.423  33.179   5.811
 6263POPC   GL278278  31.672  32.961   5.904
 6263POPC   C1A78279  31.340  33.049   6.254
 6263POPC   D2A78280  31.342  33.268   6.623
 6263POPC   C3A78281  31.255  33.074   6.977
 6263POPC   C4A78282  31.352  33.279   7.328
 6263POPC   C1B78283  31.794  32.790   6.293
 6263POPC   C2B78284  31.630  32.830   6.693
 6263POPC   C3B78285  31.745  32.953   7.092
 6263POPC   C4B78286  31.823  32.656   7.386
 6264POPC   NC378287   3.643  23.745   5.304
 6264POPC   PO478288   3.386  23.166   5.340
 6264POPC   GL178289   3.598  23.425   5.748
 6264POPC   GL278290   3.686  23.820   5.835
 6264POPC   C1A78291   3.446  23.568   6.201
 6264POPC   D2A78292   3.328  23.477   6.628
 6264POPC   C3A78293   3.593  23.619   6.952
 6264POPC   C4A78294   3.809  23.420   7.296
 6264POPC   C1B78295   3.431  24.086   6.175
 6264POPC   C2B78296   3.346  23.998   6.644
 6264POPC   C3B78297   3.410  24.078   7.085
 6264POPC   C4B78298   3.777  23.927   7.351
 6265POPC   NC378299   2.479  44.067   5.297
 6265POPC   PO478300   3.114  44.297   5.390
 6265POPC   GL178301   2.885  44.035   5.702
 6265POPC   GL278302   2.550  43.922   5.780
 6265POPC   C1A78303   2.949  43.883   6.126
 6265POPC   D2A78304   3.059  43.750   6.530
 6265POPC   C3A78305   2.911  43.849   6.905
 6265POPC   C4A78306   2.924  44.097   7.240
 6265POPC   C1B78307   2.471  43.750   6.186
 6265POPC   C2B78308   2.540  43.622   6.614
 6265POPC   C3B78309   2.399  43.814   6.994
 6265POPC   C4B78310   2.378  43.905   7.428
 6266POPC   NC378311  35.759   4.559   5.379
 6266POPC   PO478312  36.319   4.242   5.477
 6266POPC   GL178313  36.370   4.478   5.892
 6266POPC   GL278314  36.490   4.845   5.857
 6266POPC   C1A78315  36.101   4.481   6.294
 6266POPC   D2A78316  35.870   4.304   6.667
 6266POPC   C3A78317  36.118   4.219   7.028
 6266POPC   C4A78318  36.349   3.888   7.183
 6266POPC   C1B78319  36.513   4.783   6.322
 6266POPC   C2B78320  36.390   4.608   6.774
 6266POPC   C3B78321  36.377   4.611   7.260
 6266POPC   C4B78322  36.219   4.667   7.722
 6267POPC   NC378323   0.067  38.289   5.516
 6267POPC   PO478324   0.739  38.286   5.404
 6267POPC   GL178325   0.476  38.547   5.696
 6267POPC   GL278326   0.584  38.870   5.819
 6267POPC   C1A78327   0.261  38.524   6.097
 6267POPC   D2A78328   0.374  38.563   6.526
 6267POPC   C3A78329   0.255  38.282   6.799
 6267POPC   C4A78330   0.172  38.423   7.166
 6267POPC   C1B78331   0.767  38.677   6.200
 6267POPC   C2B78332   0.866  38.505   6.611
 6267POPC   C3B78333   0.683  38.496   7.003
 6267POPC   C4B78334   0.907  38.586   7.357
 6268POPC   NC378335   1.881  25.744   5.294
 6268POPC   PO478336   2.311  26.140   5.551
 6268POPC   GL178337   1.880  26.054   5.741
 6268POPC   GL278338   1.824  25.702   5.816
 6268POPC   C1A78339   1.764  26.087   6.186
 6268POPC   D2A78340   1.922  25.945   6.607
 6268POPC   C3A78341   1.735  26.073   7.007
 6268POPC   C4A78342   1.872  26.293   7.381
 6268POPC   C1B78343   2.120  25.694   6.151
 6268POPC   C2B78344   2.183  25.507   6.563
 6268POPC   C3B78345   2.327  25.702   6.916
 6268POPC   C4B78346   2.162  25.870   7.272
 6269POPC   NC378347   5.428  11.551   5.641
 6269POPC   PO478348   5.920  11.274   5.358
 6269POPC   GL178349   5.924  11.454   5.760
 6269POPC   GL278350   5.757  11.155   5.884
 6269POPC   C1A78351   6.071  11.426   6.196
 6269POPC   D2A78352   6.209  11.297   6.623
 6269POPC   C3A78353   5.858  11.412   6.916
 6269POPC   C4A78354   5.830  11.509   7.360
 6269POPC   C1B78355   5.505  10.879   6.170
 6269POPC   C2B78356   5.301  11.015   6.544
 6269POPC   C3B78357   5.355  11.077   6.928
 6269POPC   C4B78358   5.624  11.041   7.224
 6270POPC   NC378359   7.308  18.946   5.577
 6270POPC   PO478360   7.791  19.344   5.378
 6270POPC   GL178361   7.814  19.083   5.767
 6270POPC   GL278362   7.816  18.714   5.721
 6270POPC   C1A78363   7.841  19.150   6.217
 6270POPC   D2A78364   7.529  19.309   6.505
 6270POPC   C3A78365   7.495  19.154   6.936
 6270POPC   C4A78366   7.300  18.826   7.201
 6270POPC   C1B78367   7.624  18.692   6.168
 6270POPC   C2B78368   7.714  18.819   6.610
 6270POPC   C3B78369   7.754  18.636   7.044
 6270POPC   C4B78370   7.778  18.631   7.500
 6271POPC   NC378371  24.367  11.870   5.211
 6271POPC   PO478372  24.633  12.427   5.521
 6271POPC   GL178373  24.549  12.198   5.863
 6271POPC   GL278374  24.374  11.917   5.750
 6271POPC   C1A78375  24.651  11.964   6.236
 6271POPC   D2A78376  24.460  12.132   6.590
 6271POPC   C3A78377  24.472  11.997   7.003
 6271POPC   C4A78378  24.749  12.173   7.277
 6271POPC   C1B78379  24.152  12.001   6.176
 6271POPC   C2B78380  23.957  12.117   6.581
 6271POPC   C3B78381  23.969  11.926   6.961
 6271POPC   C4B78382  24.152  11.689   7.297
 6272POPC   NC378383   1.411  28.760   5.562
 6272POPC   PO478384   1.307  29.453   5.494
 6272POPC   GL178385   1.013  29.360   5.807
 6272POPC   GL278386   1.073  29.030   5.865
 6272POPC   C1A78387   0.812  29.526   6.168
 6272POPC   D2A78388   0.831  29.645   6.612
 6272POPC   C3A78389   1.067  29.366   6.903
 6272POPC   C4A78390   0.922  29.047   7.182
 6272POPC   C1B78391   1.253  29.232   6.236
 6272POPC   C2B78392   1.340  28.962   6.581
 6272POPC   C3B78393   1.498  28.887   6.971
 6272POPC   C4B78394   1.404  29.148   7.274
 6273POPC   NC378395  36.421   9.374   5.100
 6273POPC   PO478396  35.950   9.762   5.454
 6273POPC   GL178397  36.072   9.841   5.838
 6273POPC   GL278398  36.382   9.972   5.769
 6273POPC   C1A78399  35.985   9.979   6.249
 6273POPC   D2A78400  35.971   9.829   6.678
 6273POPC   C3A78401  35.889   9.903   7.100
 6273POPC   C4A78402  35.606   9.641   7.271
 6273POPC   C1B78403  36.448   9.779   6.182
 6273POPC   C2B78404  36.458   9.928   6.582
 6273POPC   C3B78405  36.380   9.864   6.992
 6273POPC   C4B78406  36.266   9.633   7.327
 6274POPC   NC378407  27.786  35.707   5.576
 6274POPC   PO478408  27.437  35.105   5.451
 6274POPC   GL178409  27.475  35.391   5.777
 6274POPC   GL278410  27.798  35.279   5.834
 6274POPC   C1A78411  27.350  35.532   6.188
 6274POPC   D2A78412  27.283  35.272   6.564
 6274POPC   C3A78413  27.326  35.465   6.977
 6274POPC   C4A78414  27.473  35.331   7.385
 6274POPC   C1B78415  27.691  35.150   6.202
 6274POPC   C2B78416  27.874  35.142   6.586
 6274POPC   C3B78417  27.745  35.180   6.986
 6274POPC   C4B78418  27.937  35.106   7.399
 6275POPC   NC378419  14.503  15.242   5.347
 6275POPC   PO478420  14.494  14.619   5.463
 6275POPC   GL178421  14.534  14.954   5.773
 6275POPC   GL278422  14.330  15.299   5.819
 6275POPC   C1A78423  14.605  15.038   6.192
 6275POPC   D2A78424  14.773  14.859   6.564
 6275POPC   C3A78425  14.677  15.073   6.925
 6275POPC   C4A78426  14.787  14.865   7.278
 6275POPC   C1B78427  14.312  15.466   6.250
 6275POPC   C2B78428  14.230  15.205   6.623
 6275POPC   C3B78429  14.178  15.088   7.057
 6275POPC   C4B78430  14.351  15.421   7.251
 6276POPC   NC378431   1.147   3.931   5.361
 6276POPC   PO478432   1.371   4.611   5.423
 6276POPC   GL178433   1.115   4.318   5.726
 6276POPC   GL278434   1.337   4.065   5.838
 6276POPC   C1A78435   1.050   4.282   6.195
 6276POPC   D2A78436   1.179   4.536   6.541
 6276POPC   C3A78437   1.006   4.432   6.942
 6276POPC   C4A78438   1.344   4.538   7.209
 6276POPC   C1B78439   1.404   3.883   6.239
 6276POPC   C2B78440   1.462   4.118   6.592
 6276POPC   C3B78441   1.470   4.057   7.007
 6276POPC   C4B78442   1.110   3.996   7.200
 6277POPC   NC378443  20.663  18.057   5.270
 6277POPC   PO478444  20.631  18.746   5.415
 6277POPC   GL178445  20.755  18.452   5.770
 6277POPC   GL278446  20.676  18.096   5.765
 6277POPC   C1A78447  20.837  18.274   6.201
 6277POPC   D2A78448  20.993  18.158   6.590
 6277POPC   C3A78449  20.719  18.207   6.907
 6277POPC   C4A78450  20.792  18.390   7.296
 6277POPC   C1B78451  20.409  17.983   6.117
 6277POPC   C2B78452  20.218  18.013   6.547
 6277POPC   C3B78453  20.323  17.901   6.937
 6277POPC   C4B78454  20.288  18.169   7.277
 6278POPC   NC378455   5.411   0.924   5.410
 6278POPC   PO478456   5.093   0.307   5.443
 6278POPC   GL178457   5.107   0.560   5.788
 6278POPC   GL278458   5.227   0.271   5.957
 6278POPC   C1A78459   5.032   0.732   6.206
 6278POPC   D2A78460   4.694   0.686   6.506
 6278POPC   C3A78461   4.824   0.774   6.907
 6278POPC   C4A78462   5.191   0.688   7.113
 6278POPC   C1B78463   4.779   0.292   6.145
 6278POPC   C2B78464   4.719   0.122   6.576
 6278POPC   C3B78465   4.945   0.275   6.950
 6278POPC   C4B78466   4.786   0.466   7.361
 6279POPC   NC378467  15.282   9.340   5.445
 6279POPC   PO478468  14.833   8.821   5.409
 6279POPC   GL178469  15.056   9.008   5.774
 6279POPC   GL278470  14.894   9.353   5.765
 6279POPC   C1A78471  15.149   8.864   6.219
 6279POPC   D2A78472  15.417   9.020   6.554
 6279POPC   C3A78473  15.164   8.863   6.888
 6279POPC   C4A78474  15.118   8.806   7.284
 6279POPC   C1B78475  15.094   9.369   6.180
 6279POPC   C2B78476  14.917   9.188   6.599
 6279POPC   C3B78477  14.943   9.328   7.071
 6279POPC   C4B78478  14.986   9.234   7.546
 6280POPC   NC378479  19.631  30.774   5.315
 6280POPC   PO478480  20.259  30.886   5.532
 6280POPC   GL178481  19.945  30.748   5.861
 6280POPC   GL278482  19.597  30.764   5.808
 6280POPC   C1A78483  19.718  30.511   6.214
 6280POPC   D2A78484  19.853  30.371   6.607
 6280POPC   C3A78485  19.639  30.139   6.923
 6280POPC   C4A78486  19.618  30.260   7.354
 6280POPC   C1B78487  19.652  31.036   6.187
 6280POPC   C2B78488  19.752  30.883   6.610
 6280POPC   C3B78489  19.757  30.655   7.024
 6280POPC   C4B78490  19.577  30.893   7.362
 6281POPC   NC378491  30.902  21.627   5.437
 6281POPC   PO478492  30.570  21.159   5.270
 6281POPC   GL178493  30.714  21.273   5.749
 6281POPC   GL278494  30.749  21.633   5.916
 6281POPC   C1A78495  30.863  21.234   6.202
 6281POPC   D2A78496  30.592  21.154   6.573
 6281POPC   C3A78497  30.620  21.331   6.990
 6281POPC   C4A78498  30.562  21.168   7.400
 6281POPC   C1B78499  30.492  21.599   6.293
 6281POPC   C2B78500  30.488  21.765   6.723
 6281POPC   C3B78501  30.388  21.764   7.167
 6281POPC   C4B78502  30.419  21.621   7.581
 6282POPC   NC378503   4.419  30.385   5.344
 6282POPC   PO478504   4.143  29.758   5.511
 6282POPC   GL178505   4.426  29.948   5.765
 6282POPC   GL278506   4.657  29.710   5.884
 6282POPC   C1A78507   4.484  30.062   6.192
 6282POPC   D2A78508   4.301  30.244   6.501
 6282POPC   C3A78509   4.260  30.014   6.839
 6282POPC   C4A78510   4.459  30.009   7.210
 6282POPC   C1B78511   4.361  29.553   6.215
 6282POPC   C2B78512   4.509  29.602   6.668
 6282POPC   C3B78513   4.304  29.531   7.085
 6282POPC   C4B78514   4.342  29.627   7.538
 6283POPC   NC378515  20.415  15.801   5.276
 6283POPC   PO478516  20.324  16.333   5.615
 6283POPC   GL178517  20.464  15.924   5.803
 6283POPC   GL278518  20.708  15.640   5.847
 6283POPC   C1A78519  20.604  15.986   6.236
 6283POPC   D2A78520  20.589  16.282   6.577
 6283POPC   C3A78521  20.643  16.063   6.977
 6283POPC   C4A78522  20.671  16.275   7.364
 6283POPC   C1B78523  20.521  15.469   6.206
 6283POPC   C2B78524  20.581  15.602   6.628
 6283POPC   C3B78525  20.321  15.648   6.960
 6283POPC   C4B78526  20.283  15.863   7.296
 6284POPC   NC378527  36.749   7.968   5.072
 6284POPC   PO478528  36.784   7.348   5.416
 6284POPC   GL178529  36.836   7.397   5.821
 6284POPC   GL278530  36.535   7.387   5.926
 6284POPC   C1A78531  37.033   7.568   6.158
 6284POPC   D2A78532  37.136   7.451   6.551
 6284POPC   C3A78533  36.865   7.226   6.771
 6284POPC   C4A78534  36.619   7.374   7.122
 6284POPC   C1B78535  36.577   7.459   6.360
 6284POPC   C2B78536  36.295   7.424   6.671
 6284POPC   C3B78537  36.154   7.239   7.022
 6284POPC   C4B78538  36.221   7.342   7.439
 6285POPC   NC378539   7.702  13.666   5.429
 6285POPC   PO478540   7.182  13.243   5.381
 6285POPC   GL178541   7.329  13.586   5.748
 6285POPC   GL278542   7.638  13.820   5.881
 6285POPC   C1A78543   7.324  13.619   6.200
 6285POPC   D2A78544   7.520  13.377   6.497
 6285POPC   C3A78545   7.523  13.419   6.901
 6285POPC   C4A78546   7.217  13.439   7.213
 6285POPC   C1B78547   7.864  13.704   6.213
 6285POPC   C2B78548   7.791  13.814   6.604
 6285POPC   C3B78549   7.435  13.922   6.786
 6285POPC   C4B78550   7.517  13.847   7.193
 6286POPC   NC378551  26.272  20.123   5.321
 6286POPC   PO478552  26.369  19.448   5.350
 6286POPC   GL178553  26.180  19.670   5.692
 6286POPC   GL278554  25.999  19.970   5.723
 6286POPC   C1A78555  25.996  19.563   6.091
 6286POPC   D2A78556  26.093  19.617   6.511
 6286POPC   C3A78557  25.836  19.700   6.868
 6286POPC   C4A78558  25.897  19.868   7.297
 6286POPC   C1B78559  25.996  20.072   6.159
 6286POPC   C2B78560  26.043  20.116   6.616
 6286POPC   C3B78561  25.896  20.289   7.006
 6286POPC   C4B78562  25.691  20.321   7.424
 6287POPC   NC378563  26.747  17.009   5.453
 6287POPC   PO478564  26.723  17.748   5.435
 6287POPC   GL178565  26.885  17.505   5.809
 6287POPC   GL278566  26.578  17.367   5.785
 6287POPC   C1A78567  27.036  17.562   6.276
 6287POPC   D2A78568  26.809  17.797   6.625
 6287POPC   C3A78569  26.853  17.746   7.053
 6287POPC   C4A78570  26.865  17.412   7.293
 6287POPC   C1B78571  26.530  17.631   6.171
 6287POPC   C2B78572  26.367  17.543   6.574
 6287POPC   C3B78573  26.421  17.400   6.984
 6287POPC   C4B78574  26.335  17.449   7.397
 6288POPC   NC378575  42.269   3.816   5.365
 6288POPC   PO478576  41.927   3.306   5.497
 6288POPC   GL178577  42.178   3.453   5.875
 6288POPC   GL278578  42.369   3.771   5.851
 6288POPC   C1A78579  42.340   3.515   6.331
 6288POPC   D2A78580  42.103   3.549   6.705
 6288POPC   C3A78581  42.319   3.498   7.096
 6288POPC   C4A78582  42.532   3.488   7.510
 6288POPC   C1B78583  42.066   3.906   6.161
 6288POPC   C2B78584  42.283   4.042   6.518
 6288POPC   C3B78585  42.473   3.932   6.892
 6288POPC   C4B78586  42.322   3.957   7.326
 6289POPC   NC378587   5.708  17.110   5.441
 6289POPC   PO478588   5.950  17.709   5.520
 6289POPC   GL178589   5.869  17.455   5.852
 6289POPC   GL278590   5.504  17.332   5.873
 6289POPC   C1A78591   5.892  17.589   6.275
 6289POPC   D2A78592   6.058  17.722   6.665
 6289POPC   C3A78593   5.844  17.668   7.047
 6289POPC   C4A78594   6.122  17.796   7.355
 6289POPC   C1B78595   5.387  17.457   6.310
 6289POPC   C2B78596   5.647  17.341   6.657
 6289POPC   C3B78597   5.839  17.138   6.977
 6289POPC   C4B78598   5.842  17.233   7.382
 6290POPC   NC378599  25.161   4.427   5.447
 6290POPC   PO478600  25.850   4.291   5.428
 6290POPC   GL178601  25.544   4.357   5.797
 6290POPC   GL278602  25.312   4.656   5.858
 6290POPC   C1A78603  25.342   4.284   6.199
 6290POPC   D2A78604  25.585   4.243   6.570
 6290POPC   C3A78605  25.476   4.068   6.928
 6290POPC   C4A78606  25.220   4.072   7.277
 6290POPC   C1B78607  25.454   4.770   6.265
 6290POPC   C2B78608  25.261   4.673   6.641
 6290POPC   C3B78609  25.119   4.530   7.033
 6290POPC   C4B78610  25.316   4.545   7.425
 6291POPC   NC378611  23.629  30.754   5.347
 6291POPC   PO478612  24.177  31.178   5.458
 6291POPC   GL178613  23.839  30.981   5.764
 6291POPC   GL278614  23.780  30.598   5.785
 6291POPC   C1A78615  23.533  30.875   6.134
 6291POPC   D2A78616  23.445  30.692   6.557
 6291POPC   C3A78617  23.479  30.875   6.966
 6291POPC   C4A78618  23.779  30.991   7.280
 6291POPC   C1B78619  23.788  30.316   6.087
 6291POPC   C2B78620  23.640  30.240   6.476
 6291POPC   C3B78621  23.775  30.405   6.865
 6291POPC   C4B78622  23.672  30.512   7.255
 6292POPC   NC378623  37.864  12.142   5.664
 6292POPC   PO478624  37.470  11.741   5.428
 6292POPC   GL178625  37.558  11.765   5.863
 6292POPC   GL278626  37.898  11.720   5.995
 6292POPC   C1A78627  37.518  12.043   6.227
 6292POPC   D2A78628  37.617  12.280   6.596
 6292POPC   C3A78629  37.480  12.090   6.957
 6292POPC   C4A78630  37.530  12.251   7.354
 6292POPC   C1B78631  38.033  12.055   6.305
 6292POPC   C2B78632  38.135  12.348   6.658
 6292POPC   C3B78633  38.003  12.206   7.082
 6292POPC   C4B78634  37.839  11.785   7.165
 6293POPC   NC378635  31.291  41.266   5.604
 6293POPC   PO478636  31.857  41.644   5.446
 6293POPC   GL178637  31.664  41.543   5.862
 6293POPC   GL278638  31.924  41.383   6.097
 6293POPC   C1A78639  31.348  41.483   6.252
 6293POPC   D2A78640  31.079  41.253   6.587
 6293POPC   C3A78641  31.104  41.371   7.031
 6293POPC   C4A78642  31.084  41.448   7.496
 6293POPC   C1B78643  31.763  41.773   6.286
 6293POPC   C2B78644  31.596  41.969   6.633
 6293POPC   C3B78645  31.526  41.823   7.034
 6293POPC   C4B78646  31.564  41.421   7.252
 6294POPC   NC378647  37.521  15.854   5.536
 6294POPC   PO478648  37.981  16.302   5.577
 6294POPC   GL178649  37.780  16.094   5.910
 6294POPC   GL278650  37.454  16.207   5.908
 6294POPC   C1A78651  37.671  15.875   6.299
 6294POPC   D2A78652  37.529  15.658   6.674
 6294POPC   C3A78653  37.585  15.852   7.075
 6294POPC   C4A78654  37.707  15.788   7.491
 6294POPC   C1B78655  37.240  16.142   6.276
 6294POPC   C2B78656  37.117  16.023   6.692
 6294POPC   C3B78657  37.259  16.235   7.080
 6294POPC   C4B78658  37.370  16.197   7.522
 6295POPC   NC378659  11.426   1.066   5.449
 6295POPC   PO478660  10.952   1.503   5.637
 6295POPC   GL178661  11.193   1.200   5.878
 6295POPC   GL278662  11.587   1.253   5.907
 6295POPC   C1A78663  11.289   1.239   6.289
 6295POPC   D2A78664  11.555   1.096   6.546
 6295POPC   C3A78665  11.320   1.082   6.907
 6295POPC   C4A78666  11.411   0.961   7.312
 6295POPC   C1B78667  11.725   1.543   6.187
 6295POPC   C2B78668  11.520   1.617   6.540
 6295POPC   C3B78669  11.645   1.493   6.892
 6295POPC   C4B78670  11.362   1.466   7.218
 6296POPC   NC378671  25.580   8.274   5.113
 6296POPC   PO478672  25.048   8.332   5.510
 6296POPC   GL178673  25.074   8.058   5.843
 6296POPC   GL278674  25.196   8.358   6.011
 6296POPC   C1A78675  25.010   7.984   6.294
 6296POPC   D2A78676  25.159   8.266   6.592
 6296POPC   C3A78677  25.102   8.295   7.023
 6296POPC   C4A78678  25.199   7.907   7.250
 6296POPC   C1B78679  25.361   8.624   6.286
 6296POPC   C2B78680  25.573   8.536   6.664
 6296POPC   C3B78681  25.648   8.354   7.034
 6296POPC   C4B78682  25.493   8.246   7.446
 6297POPC   NC378683  17.501   6.573   5.252
 6297POPC   PO478684  17.304   7.111   5.484
 6297POPC   GL178685  17.557   6.867   5.763
 6297POPC   GL278686  17.463   6.622   5.773
 6297POPC   C1A78687  17.658   6.813   6.208
 6297POPC   D2A78688  17.363   6.837   6.554
 6297POPC   C3A78689  17.549   6.814   6.938
 6297POPC   C4A78690  17.646   7.033   7.298
 6297POPC   C1B78691  17.242   6.508   6.173
 6297POPC   C2B78692  17.286   6.327   6.602
 6297POPC   C3B78693  17.137   6.497   6.998
 6297POPC   C4B78694  17.346   6.603   7.382
 6298POPC   NC378695  25.803  12.821   5.415
 6298POPC   PO478696  26.204  12.392   5.586
 6298POPC   GL178697  26.076  12.801   5.853
 6298POPC   GL278698  25.709  13.022   5.864
 6298POPC   C1A78699  26.223  12.799   6.287
 6298POPC   D2A78700  26.000  12.605   6.630
 6298POPC   C3A78701  25.996  12.653   7.074
 6298POPC   C4A78702  26.176  12.612   7.511
 6298POPC   C1B78703  25.763  12.980   6.301
 6298POPC   C2B78704  26.032  13.120   6.661
 6298POPC   C3B78705  25.853  13.151   7.037
 6298POPC   C4B78706  25.882  13.018   7.422
 6299POPC   NC378707  24.765  33.914   5.524
 6299POPC   PO478708  24.137  33.610   5.338
 6299POPC   GL178709  24.363  33.508   5.754
 6299POPC   GL278710  24.478  33.787   5.919
 6299POPC   C1A78711  24.318  33.424   6.245
 6299POPC   D2A78712  24.093  33.573   6.661
 6299POPC   C3A78713  24.307  33.575   7.077
 6299POPC   C4A78714  24.441  33.651   7.532
 6299POPC   C1B78715  24.714  33.792   6.266
 6299POPC   C2B78716  24.534  33.829   6.666
 6299POPC   C3B78717  24.676  33.950   7.076
 6299POPC   C4B78718  24.776  34.081   7.513
 6300POPC   NC378719   5.398  30.191   5.400
 6300POPC   PO478720   4.890  29.759   5.135
 6300POPC   GL178721   5.045  29.843   5.579
 6300POPC   GL278722   4.892  30.156   5.728
 6300POPC   C1A78723   5.167  29.815   6.057
 6300POPC   D2A78724   5.383  30.048   6.432
 6300POPC   C3A78725   5.272  29.935   6.877
 6300POPC   C4A78726   4.880  29.748   7.061
 6300POPC   C1B78727   4.946  30.248   6.214
 6300POPC   C2B78728   4.793  30.103   6.651
 6300POPC   C3B78729   4.883  30.271   7.075
 6300POPC   C4B78730   5.196  30.108   7.372
 6301POPC   NC378731  21.090  25.834   5.301
 6301POPC   PO478732  21.771  26.006   5.295
 6301POPC   GL178733  21.673  26.026   5.729
 6301POPC   GL278734  21.325  26.123   5.786
 6301POPC   C1A78735  21.653  26.211   6.151
 6301POPC   D2A78736  21.496  26.095   6.554
 6301POPC   C3A78737  21.378  26.180   6.971
 6301POPC   C4A78738  21.653  26.003   7.261
 6301POPC   C1B78739  21.123  26.034   6.182
 6301POPC   C2B78740  20.937  25.991   6.616
 6301POPC   C3B78741  20.888  25.793   7.037
 6301POPC   C4B78742  21.186  25.855   7.392
 6302POPC   NC378743   2.324  30.073   5.373
 6302POPC   PO478744   2.857  29.909   5.134
 6302POPC   GL178745   2.666  29.882   5.668
 6302POPC   GL278746   2.854  29.827   5.975
 6302POPC   C1A78747   2.435  30.072   6.072
 6302POPC   D2A78748   2.575  29.881   6.473
 6302POPC   C3A78749   2.767  30.030   6.850
 6302POPC   C4A78750   2.600  29.978   7.238
 6302POPC   C1B78751   3.042  29.553   6.265
 6302POPC   C2B78752   3.165  29.537   6.726
 6302POPC   C3B78753   3.056  29.715   7.146
 6302POPC   C4B78754   3.077  30.124   7.316
 6303POPC   NC378755  36.597   7.776   5.566
 6303POPC   PO478756  36.966   8.300   5.318
 6303POPC   GL178757  36.980   8.324   5.805
 6303POPC   GL278758  36.652   8.265   5.820
 6303POPC   C1A78759  37.005   8.095   6.271
 6303POPC   D2A78760  37.203   7.935   6.689
 6303POPC   C3A78761  37.159   8.153   7.081
 6303POPC   C4A78762  37.034   8.623   7.027
 6303POPC   C1B78763  36.695   8.497   6.219
 6303POPC   C2B78764  36.649   8.294   6.619
 6303POPC   C3B78765  36.666   8.244   7.065
 6303POPC   C4B78766  36.716   7.883   7.322
 6304POPC   NC378767  25.477  35.588   5.512
 6304POPC   PO478768  24.917  35.270   5.195
 6304POPC   GL178769  25.034  35.344   5.668
 6304POPC   GL278770  25.298  35.130   5.843
 6304POPC   C1A78771  25.101  35.495   6.127
 6304POPC   D2A78772  25.164  35.449   6.568
 6304POPC   C3A78773  24.960  35.283   6.934
 6304POPC   C4A78774  25.171  35.526   7.269
 6304POPC   C1B78775  25.219  35.009   6.264
 6304POPC   C2B78776  25.390  34.995   6.676
 6304POPC   C3B78777  25.445  35.116   7.088
 6304POPC   C4B78778  25.842  35.078   7.234
 6305POPC   NC378779   9.171   2.459   5.402
 6305POPC   PO478780   9.318   3.142   5.478
 6305POPC   GL178781   9.023   2.965   5.796
 6305POPC   GL278782   8.769   2.658   5.794
 6305POPC   C1A78783   9.069   2.793   6.199
 6305POPC   D2A78784   8.951   2.637   6.573
 6305POPC   C3A78785   9.163   2.751   6.919
 6305POPC   C4A78786   9.137   3.107   7.214
 6305POPC   C1B78787   8.599   2.502   6.232
 6305POPC   C2B78788   8.687   2.197   6.590
 6305POPC   C3B78789   8.698   2.466   6.974
 6305POPC   C4B78790   8.818   2.679   7.326
 6306POPC   NC378791  12.305  11.763   5.499
 6306POPC   PO478792  12.026  12.352   5.349
 6306POPC   GL178793  12.085  12.164   5.730
 6306POPC   GL278794  11.772  12.163   5.898
 6306POPC   C1A78795  12.272  12.137   6.123
 6306POPC   D2A78796  12.289  11.925   6.536
 6306POPC   C3A78797  12.137  12.098   6.926
 6306POPC   C4A78798  12.241  12.219   7.337
 6306POPC   C1B78799  11.819  12.145   6.341
 6306POPC   C2B78800  11.641  12.155   6.725
 6306POPC   C3B78801  11.698  11.828   6.990
 6306POPC   C4B78802  11.845  11.910   7.369
 6307POPC   NC378803  26.941  43.251   5.283
 6307POPC   PO478804  26.341  42.808   5.261
 6307POPC   GL178805  26.643  42.959   5.659
 6307POPC   GL278806  26.986  43.155   5.775
 6307POPC   C1A78807  26.602  43.122   6.108
 6307POPC   D2A78808  26.560  43.257   6.558
 6307POPC   C3A78809  26.691  42.969   6.919
 6307POPC   C4A78810  26.688  42.876   7.389
 6307POPC   C1B78811  27.338  43.366   6.041
 6307POPC   C2B78812  27.385  43.440   6.500
 6307POPC   C3B78813  27.051  43.328   6.765
 6307POPC   C4B78814  27.014  43.260   7.211
 6308POPC   NC378815   8.712  36.106   5.486
 6308POPC   PO478816   9.298  35.853   5.494
 6308POPC   GL178817   9.103  35.924   5.848
 6308POPC   GL278818   8.911  36.211   5.952
 6308POPC   C1A78819   9.262  35.913   6.240
 6308POPC   D2A78820   9.326  35.705   6.597
 6308POPC   C3A78821   9.067  35.920   6.861
 6308POPC   C4A78822   8.764  36.102   7.114
 6308POPC   C1B78823   8.857  36.253   6.414
 6308POPC   C2B78824   8.499  36.394   6.694
 6308POPC   C3B78825   8.378  36.470   7.139
 6308POPC   C4B78826   8.509  36.278   7.533
 6309POPC   NC378827   0.175  25.977   4.983
 6309POPC   PO478828   0.631  25.941   5.505
 6309POPC   GL178829   0.302  26.000   5.797
 6309POPC   GL278830   0.025  26.236   5.750
 6309POPC   C1A78831   0.314  25.829   6.170
 6309POPC   D2A78832   0.631  25.783   6.482
 6309POPC   C3A78833   0.466  25.799   6.851
 6309POPC   C4A78834   0.585  25.973   7.192
 6309POPC   C1B78835   0.122  26.295   6.196
 6309POPC   C2B78836   0.147  26.105   6.574
 6309POPC   C3B78837   0.217  26.259   6.946
 6309POPC   C4B78838   0.050  26.157   7.271
 6310POPC   NC378839  43.783  17.820   5.504
 6310POPC   PO478840  44.376  17.858   5.207
 6310POPC   GL178841  44.163  17.546   5.667
 6310POPC   GL278842  44.055  17.185   5.670
 6310POPC   C1A78843  43.953  17.536   6.133
 6310POPC   D2A78844  43.621  17.392   6.489
 6310POPC   C3A78845  43.625  17.558   6.944
 6310POPC   C4A78846  44.034  17.628   7.119
 6310POPC   C1B78847  44.180  17.041   6.107
 6310POPC   C2B78848  44.279  16.957   6.565
 6310POPC   C3B78849  44.188  17.101   7.000
 6310POPC   C4B78850  43.798  17.182   7.229
 6311POPC   NC378851  41.344  28.674   5.039
 6311POPC   PO478852  41.675  28.946   5.507
 6311POPC   GL178853  41.570  29.296   5.786
 6311POPC   GL278854  41.177  29.295   5.765
 6311POPC   C1A78855  41.873  29.436   6.117
 6311POPC   D2A78856  42.094  29.316   6.522
 6311POPC   C3A78857  41.846  29.317   6.928
 6311POPC   C4A78858  41.659  29.019   7.237
 6311POPC   C1B78859  41.276  29.042   6.133
 6311POPC   C2B78860  41.485  29.151   6.537
 6311POPC   C3B78861  41.313  29.402   6.870
 6311POPC   C4B78862  41.206  29.260   7.282
 6312POPC   NC378863  14.617  38.574   5.431
 6312POPC   PO478864  14.002  38.372   5.503
 6312POPC   GL178865  14.219  38.577   5.807
 6312POPC   GL278866  14.378  38.238   5.869
 6312POPC   C1A78867  14.526  38.647   6.123
 6312POPC   D2A78868  14.674  38.381   6.465
 6312POPC   C3A78869  14.500  38.407   6.903
 6312POPC   C4A78870  14.656  38.594   7.279
 6312POPC   C1B78871  14.155  38.289   6.287
 6312POPC   C2B78872  14.000  38.149   6.713
 6312POPC   C3B78873  14.158  38.107   7.147
 6312POPC   C4B78874  14.141  38.129   7.626
 6313POPC   NC378875  12.881  43.341   5.454
 6313POPC   PO478876  12.311  42.833   5.536
 6313POPC   GL178877  12.716  42.980   5.802
 6313POPC   GL278878  12.927  43.316   5.944
 6313POPC   C1A78879  12.982  42.833   6.154
 6313POPC   D2A78880  12.948  42.624   6.555
 6313POPC   C3A78881  12.924  42.858   6.940
 6313POPC   C4A78882  12.924  43.062   7.333
 6313POPC   C1B78883  12.585  43.299   6.202
 6313POPC   C2B78884  12.719  43.181   6.584
 6313POPC   C3B78885  12.812  43.376   6.943
 6313POPC   C4B78886  13.012  43.565   7.302
 6314POPC   NC378887   5.100  40.553   5.422
 6314POPC   PO478888   4.717  41.080   5.444
 6314POPC   GL178889   4.729  40.943   5.830
 6314POPC   GL278890   5.098  40.892   5.824
 6314POPC   C1A78891   4.833  40.772   6.233
 6314POPC   D2A78892   5.155  40.740   6.523
 6314POPC   C3A78893   5.079  40.710   6.920
 6314POPC   C4A78894   4.947  40.839   7.288
 6314POPC   C1B78895   5.317  41.089   6.184
 6314POPC   C2B78896   5.479  41.137   6.637
 6314POPC   C3B78897   5.366  41.114   7.068
 6314POPC   C4B78898   5.375  40.962   7.509
 6315POPC   NC378899   0.431  26.351   5.435
 6315POPC   PO478900   0.550  26.992   5.495
 6315POPC   GL178901   0.329  26.952   5.874
 6315POPC   GL278902   0.385  26.602   5.911
 6315POPC   C1A78903   0.478  26.938   6.312
 6315POPC   D2A78904   0.696  27.072   6.687
 6315POPC   C3A78905   0.477  26.914   7.044
 6315POPC   C4A78906   0.653  26.932   7.445
 6315POPC   C1B78907   0.613  26.422   6.302
 6315POPC   C2B78908   0.689  26.271   6.751
 6315POPC   C3B78909   0.640  26.458   7.190
 6315POPC   C4B78910   0.260  26.594   7.399
 6316POPC   NC378911  29.595  26.975   5.496
 6316POPC   PO478912  30.129  26.647   5.478
 6316POPC   GL178913  29.819  26.502   5.749
 6316POPC   GL278914  29.588  26.720   5.931
 6316POPC   C1A78915  29.838  26.364   6.196
 6316POPC   D2A78916  30.176  26.522   6.444
 6316POPC   C3A78917  30.193  26.418   6.862
 6316POPC   C4A78918  30.239  26.557   7.299
 6316POPC   C1B78919  29.900  26.938   6.190
 6316POPC   C2B78920  29.999  26.980   6.632
 6316POPC   C3B78921  29.840  26.773   7.021
 6316POPC   C4B78922  29.576  26.882   7.403
 6317POPC   NC378923   2.654  22.393   5.613
 6317POPC   PO478924   2.905  21.840   5.469
 6317POPC   GL178925   2.887  22.030   5.894
 6317POPC   GL278926   2.893  22.405   6.056
 6317POPC   C1A78927   2.726  21.964   6.291
 6317POPC   D2A78928   2.744  22.188   6.661
 6317POPC   C3A78929   2.706  21.914   7.045
 6317POPC   C4A78930   2.888  21.994   7.451
 6317POPC   C1B78931   2.461  22.444   6.261
 6317POPC   C2B78932   2.255  22.532   6.646
 6317POPC   C3B78933   2.388  22.293   6.989
 6317POPC   C4B78934   2.482  22.313   7.401
 6318POPC   NC378935  16.310   0.959   5.621
 6318POPC   PO478936  16.967   1.054   5.436
 6318POPC   GL178937  16.787   1.090   5.827
 6318POPC   GL278938  16.830   0.762   5.906
 6318POPC   C1A78939  16.556   1.079   6.233
 6318POPC   D2A78940  16.354   1.068   6.658
 6318POPC   C3A78941  16.544   1.352   6.930
 6318POPC   C4A78942  16.724   1.355   7.320
 6318POPC   C1B78943  17.022   0.840   6.280
 6318POPC   C2B78944  16.894   1.101   6.615
 6318POPC   C3B78945  17.007   1.094   6.997
 6318POPC   C4B78946  16.999   0.708   7.192
 6319POPC   NC378947   5.483  20.498   5.461
 6319POPC   PO478948   5.895  20.989   5.385
 6319POPC   GL178949   5.900  20.741   5.799
 6319POPC   GL278950   5.749  20.408   5.876
 6319POPC   C1A78951   5.899  20.660   6.282
 6319POPC   D2A78952   5.957  20.325   6.595
 6319POPC   C3A78953   6.078  20.503   6.991
 6319POPC   C4A78954   5.855  20.740   7.352
 6319POPC   C1B78955   5.416  20.430   6.198
 6319POPC   C2B78956   5.330  20.182   6.576
 6319POPC   C3B78957   5.490  20.367   6.969
 6319POPC   C4B78958   5.761  20.258   7.292
 6320POPC   NC378959   0.930  24.415   5.601
 6320POPC   PO478960   0.316  24.111   5.379
 6320POPC   GL178961   0.395  24.375   5.751
 6320POPC   GL278962   0.646  24.246   5.970
 6320POPC   C1A78963   0.312  24.693   6.086
 6320POPC   D2A78964   0.443  24.892   6.504
 6320POPC   C3A78965   0.190  24.772   6.862
 6320POPC   C4A78966   0.314  24.588   7.288
 6320POPC   C1B78967   0.687  24.470   6.349
 6320POPC   C2B78968   0.584  24.437   6.780
 6320POPC   C3B78969   0.654  24.223   7.172
 6320POPC   C4B78970   0.720  24.431   7.618
 6321POPC   NC378971  30.488  18.953   5.428
 6321POPC   PO478972  30.962  19.407   5.539
 6321POPC   GL178973  30.842  19.009   5.826
 6321POPC   GL278974  30.481  18.842   5.909
 6321POPC   C1A78975  30.822  18.817   6.262
 6321POPC   D2A78976  30.519  18.864   6.588
 6321POPC   C3A78977  30.697  18.809   6.956
 6321POPC   C4A78978  30.910  18.897   7.292
 6321POPC   C1B78979  30.476  19.200   6.220
 6321POPC   C2B78980  30.712  19.331   6.622
 6321POPC   C3B78981  30.721  19.317   7.068
 6321POPC   C4B78982  30.476  19.140   7.433
 6322POPC   NC378983  13.178  34.812   5.488
 6322POPC   PO478984  13.666  34.495   5.032
 6322POPC   GL178985  13.668  34.535   5.581
 6322POPC   GL278986  13.959  34.711   5.838
 6322POPC   C1A78987  13.608  34.477   6.077
 6322POPC   D2A78988  13.911  34.441   6.460
 6322POPC   C3A78989  13.663  34.396   6.838
 6322POPC   C4A78990  13.364  34.419   7.177
 6322POPC   C1B78991  13.898  34.919   6.219
 6322POPC   C2B78992  13.619  34.860   6.569
 6322POPC   C3B78993  13.772  34.885   6.969
 6322POPC   C4B78994  13.772  34.684   7.343
 6323POPC   NC378995  23.427   4.230   5.490
 6323POPC   PO478996  24.085   4.232   5.558
 6323POPC   GL178997  24.098   4.304   5.946
 6323POPC   GL278998  23.726   4.327   5.928
 6323POPC   C1A78999  24.021   4.236   6.363
 6323POPC   D2A79000  23.691   4.338   6.619
 6323POPC   C3A79001  23.567   4.197   7.008
 6323POPC   C4A79002  23.805   4.097   7.348
 6323POPC   C1B79003  23.728   4.655   6.191
 6323POPC   C2B79004  23.499   4.787   6.530
 6323POPC   C3B79005  23.630   4.817   6.923
 6323POPC   C4B79006  23.747   4.602   7.268
 6324POPC   NC379007  44.563  28.883   5.588
 6324POPC   PO479008  44.585  29.568   5.411
 6324POPC   GL179009  44.671  29.353   5.803
 6324POPC   GL279010  44.973  29.160   5.773
 6324POPC   C1A79011  44.584  29.136   6.204
 6324POPC   D2A79012  44.595  29.225   6.659
 6324POPC   C3A79013  44.398  29.053   7.017
 6324POPC   C4A79014  44.434  29.194   7.429
 6324POPC   C1B79015   0.091  28.968   6.151
 6324POPC   C2B79016  44.884  28.831   6.492
 6324POPC   C3B79017  44.927  28.852   6.912
 6324POPC   C4B79018  44.888  29.068   7.274
 6325POPC   NC379019  19.733  28.311   5.413
 6325POPC   PO479020  20.286  28.387   5.320
 6325POPC   GL179021  20.062  28.205   5.778
 6325POPC   GL279022  19.641  28.083   5.859
 6325POPC   C1A79023  19.944  28.247   6.217
 6325POPC   D2A79024  19.797  28.244   6.624
 6325POPC   C3A79025  19.987  28.438   6.955
 6325POPC   C4A79026  20.008  28.194   7.282
 6325POPC   C1B79027  19.452  28.367   6.233
 6325POPC   C2B79028  19.293  28.240   6.659
 6325POPC   C3B79029  19.501  28.249   7.072
 6325POPC   C4B79030  19.558  28.665   7.187
 6326POPC   NC379031   3.551  35.090   5.516
 6326POPC   PO479032   3.642  35.694   5.064
 6326POPC   GL179033   3.652  35.616   5.541
 6326POPC   GL279034   3.318  35.551   5.683
 6326POPC   C1A79035   3.729  35.566   6.020
 6326POPC   D2A79036   3.869  35.679   6.453
 6326POPC   C3A79037   3.660  35.452   6.792
 6326POPC   C4A79038   3.630  35.254   7.206
 6326POPC   C1B79039   3.244  35.375   6.121
 6326POPC   C2B79040   3.154  35.498   6.548
 6326POPC   C3B79041   3.195  35.247   6.895
 6326POPC   C4B79042   3.114  35.318   7.251
 6327POPC   NC379043  41.955   1.399   5.288
 6327POPC   PO479044  41.790   0.848   5.670
 6327POPC   GL179045  41.698   1.252   5.902
 6327POPC   GL279046  41.936   1.549   5.803
 6327POPC   C1A79047  41.562   1.302   6.385
 6327POPC   D2A79048  41.411   1.447   6.822
 6327POPC   C3A79049  41.395   1.112   7.147
 6327POPC   C4A79050  41.717   0.837   7.269
 6327POPC   C1B79051  42.054   1.365   6.227
 6327POPC   C2B79052  42.020   1.230   6.674
 6327POPC   C3B79053  41.876   1.337   7.100
 6327POPC   C4B79054  42.049   1.378   7.526
 6328POPC   NC379055  21.733  30.190   5.624
 6328POPC   PO479056  22.176  29.837   5.239
 6328POPC   GL179057  22.198  29.923   5.688
 6328POPC   GL279058  22.254  30.290   5.690
 6328POPC   C1A79059  22.112  29.726   6.117
 6328POPC   D2A79060  21.891  29.878   6.499
 6328POPC   C3A79061  21.959  29.651   6.871
 6328POPC   C4A79062  21.945  29.755   7.289
 6328POPC   C1B79063  22.146  30.232   6.129
 6328POPC   C2B79064  22.366  30.051   6.431
 6328POPC   C3B79065  22.306  30.026   6.861
 6328POPC   C4B79066  22.142  30.247   7.183
 6329POPC   NC379067  27.819   4.950   5.421
 6329POPC   PO479068  27.220   5.062   5.624
 6329POPC   GL179069  27.489   4.805   5.843
 6329POPC   GL279070  27.746   5.058   5.922
 6329POPC   C1A79071  27.589   4.694   6.252
 6329POPC   D2A79072  27.691   5.049   6.517
 6329POPC   C3A79073  27.437   5.066   6.861
 6329POPC   C4A79074  27.532   5.095   7.276
 6329POPC   C1B79075  27.753   5.438   6.183
 6329POPC   C2B79076  27.901   5.548   6.594
 6329POPC   C3B79077  27.743   5.466   7.003
 6329POPC   C4B79078  27.861   5.465   7.437
 6330POPC   NC379079  44.085   3.122   5.460
 6330POPC   PO479080  43.908   2.458   5.306
 6330POPC   GL179081  43.852   2.492   5.708
 6330POPC   GL279082  43.823   2.824   5.799
 6330POPC   C1A79083  44.029   2.431   6.127
 6330POPC   D2A79084  44.059   2.600   6.546
 6330POPC   C3A79085  44.060   2.388   6.931
 6330POPC   C4A79086  44.027   2.475   7.337
 6330POPC   C1B79087  43.676   2.815   6.244
 6330POPC   C2B79088  43.719   2.962   6.692
 6330POPC   C3B79089  43.761   2.892   7.151
 6330POPC   C4B79090  43.887   3.070   7.565
 6331POPC   NC379091  26.564  32.156   5.572
 6331POPC   PO479092  27.158  31.954   5.319
 6331POPC   GL179093  27.027  32.103   5.783
 6331POPC   GL279094  26.856  32.468   5.820
 6331POPC   C1A79095  27.195  32.056   6.228
 6331POPC   D2A79096  27.038  31.983   6.634
 6331POPC   C3A79097  27.013  32.267   6.983
 6331POPC   C4A79098  26.742  32.072   7.211
 6331POPC   C1B79099  26.737  32.280   6.196
 6331POPC   C2B79100  26.769  32.461   6.575
 6331POPC   C3B79101  26.516  32.386   6.890
 6331POPC   C4B79102  26.280  32.317   7.244
 6332POPC   NC379103  22.735   6.845   5.490
 6332POPC   PO479104  23.198   6.455   5.336
 6332POPC   GL179105  23.171   6.700   5.731
 6332POPC   GL279106  22.904   6.451   5.829
 6332POPC   C1A79107  23.000   6.812   6.188
 6332POPC   D2A79108  22.983   6.680   6.637
 6332POPC   C3A79109  22.730   6.788   6.966
 6332POPC   C4A79110  22.920   6.884   7.340
 6332POPC   C1B79111  22.863   6.287   6.273
 6332POPC   C2B79112  23.064   6.184   6.656
 6332POPC   C3B79113  22.992   6.372   7.078
 6332POPC   C4B79114  23.221   6.408   7.459
 6333POPC   NC379115  26.803  23.173   5.300
 6333POPC   PO479116  26.866  22.475   5.285
 6333POPC   GL179117  26.650  22.749   5.643
 6333POPC   GL279118  26.818  23.088   5.802
 6333POPC   C1A79119  26.615  22.762   6.125
 6333POPC   D2A79120  26.728  23.083   6.472
 6333POPC   C3A79121  26.828  22.912   6.917
 6333POPC   C4A79122  26.594  22.591   7.129
 6333POPC   C1B79123  27.084  23.296   6.142
 6333POPC   C2B79124  27.242  23.233   6.572
 6333POPC   C3B79125  27.318  23.107   6.994
 6333POPC   C4B79126  27.103  23.010   7.385
 6334POPC   NC379127  19.636  41.945   5.413
 6334POPC   PO479128  19.475  41.260   5.542
 6334POPC   GL179129  19.591  41.597   5.842
 6334POPC   GL279130  19.928  41.717   5.846
 6334POPC   C1A79131  19.668  41.727   6.293
 6334POPC   D2A79132  19.777  41.467   6.661
 6334POPC   C3A79133  19.809  41.618   7.090
 6334POPC   C4A79134  19.553  41.901   7.289
 6334POPC   C1B79135  20.185  41.820   6.225
 6334POPC   C2B79136  20.064  41.892   6.684
 6334POPC   C3B79137  20.302  41.806   7.067
 6334POPC   C4B79138  20.206  41.736   7.515
 6335POPC   NC379139   7.195  31.416   5.476
 6335POPC   PO479140   6.535  31.782   5.458
 6335POPC   GL179141   6.725  31.564   5.780
 6335POPC   GL279142   7.006  31.740   5.822
 6335POPC   C1A79143   6.572  31.357   6.151
 6335POPC   D2A79144   6.404  31.239   6.543
 6335POPC   C3A79145   6.368  31.480   6.901
 6335POPC   C4A79146   6.384  31.426   7.336
 6335POPC   C1B79147   7.065  31.442   6.201
 6335POPC   C2B79148   6.936  31.263   6.599
 6335POPC   C3B79149   6.903  31.397   7.026
 6335POPC   C4B79150   6.861  31.531   7.456
 6336POPC   NC379151  31.810  14.743   5.566
 6336POPC   PO479152  31.767  14.033   5.472
 6336POPC   GL179153  31.653  14.090   5.881
 6336POPC   GL279154  31.563  14.427   5.890
 6336POPC   C1A79155  31.518  14.164   6.318
 6336POPC   D2A79156  31.344  13.972   6.695
 6336POPC   C3A79157  31.341  14.194   7.091
 6336POPC   C4A79158  31.593  14.115   7.472
 6336POPC   C1B79159  31.320  14.620   6.224
 6336POPC   C2B79160  31.061  14.744   6.560
 6336POPC   C3B79161  30.948  14.806   6.962
 6336POPC   C4B79162  31.273  14.688   7.233
 6337POPC   NC379163  34.340  21.539   5.444
 6337POPC   PO479164  34.826  21.106   5.303
 6337POPC   GL179165  34.565  21.195   5.712
 6337POPC   GL279166  34.512  21.014   5.962
 6337POPC   C1A79167  34.441  21.527   6.077
 6337POPC   D2A79168  34.635  21.721   6.468
 6337POPC   C3A79169  34.551  21.542   6.887
 6337POPC   C4A79170  34.198  21.571   7.218
 6337POPC   C1B79171  34.572  21.160   6.389
 6337POPC   C2B79172  34.346  21.003   6.682
 6337POPC   C3B79173  34.378  21.102   7.061
 6337POPC   C4B79174  34.720  21.099   7.277
 6338POPC   NC379175  27.418  18.590   5.288
 6338POPC   PO479176  27.768  19.141   5.178
 6338POPC   GL179177  27.799  19.044   5.621
 6338POPC   GL279178  27.485  18.870   5.725
 6338POPC   C1A79179  27.863  18.948   6.079
 6338POPC   D2A79180  27.753  19.206   6.448
 6338POPC   C3A79181  27.734  19.083   6.897
 6338POPC   C4A79182  27.610  19.381   7.215
 6338POPC   C1B79183  27.343  18.955   6.156
 6338POPC   C2B79184  27.398  18.854   6.580
 6338POPC   C3B79185  27.277  18.921   7.032
 6338POPC   C4B79186  27.356  18.827   7.488
 6339POPC   NC379187   2.253  37.814   5.294
 6339POPC   PO479188   2.916  37.664   5.334
 6339POPC   GL179189   2.626  37.779   5.679
 6339POPC   GL279190   2.632  37.478   5.860
 6339POPC   C1A79191   2.640  37.920   6.148
 6339POPC   D2A79192   2.683  37.683   6.583
 6339POPC   C3A79193   2.713  37.869   7.023
 6339POPC   C4A79194   3.007  37.704   7.361
 6339POPC   C1B79195   2.344  37.496   6.219
 6339POPC   C2B79196   2.190  37.546   6.601
 6339POPC   C3B79197   2.329  37.499   7.002
 6339POPC   C4B79198   2.572  37.419   7.365
 6340POPC   NC379199  44.583   9.465   5.537
 6340POPC   PO479200   0.083  10.004   5.517
 6340POPC   GL179201  44.887   9.785   5.818
 6340POPC   GL279202  44.602  10.020   5.834
 6340POPC   C1A79203  44.851   9.627   6.219
 6340POPC   D2A79204  44.923   9.823   6.589
 6340POPC   C3A79205  44.899   9.610   6.932
 6340POPC   C4A79206  44.807   9.667   7.317
 6340POPC   C1B79207  44.355   9.866   6.193
 6340POPC   C2B79208  44.430   9.817   6.625
 6340POPC   C3B79209  44.578  10.008   6.975
 6340POPC   C4B79210  44.324   9.803   7.263
 6341POPC   NC379211  20.349   1.802   5.530
 6341POPC   PO479212  20.995   1.955   5.588
 6341POPC   GL179213  20.672   2.086   5.846
 6341POPC   GL279214  20.605   1.753   5.985
 6341POPC   C1A79215  20.514   2.178   6.271
 6341POPC   D2A79216  20.670   2.042   6.678
 6341POPC   C3A79217  20.567   2.031   7.108
 6341POPC   C4A79218  20.827   1.754   7.348
 6341POPC   C1B79219  20.402   1.682   6.402
 6341POPC   C2B79220  20.164   1.852   6.768
 6341POPC   C3B79221  20.189   1.667   7.197
 6341POPC   C4B79222  20.508   1.343   7.363
 6342POPC   NC379223  18.071  23.513   5.329
 6342POPC   PO479224  18.457  22.954   5.378
 6342POPC   GL179225  18.463  23.115   5.778
 6342POPC   GL279226  18.138  22.987   5.870
 6342POPC   C1A79227  18.550  22.936   6.169
 6342POPC   D2A79228  18.430  22.723   6.523
 6342POPC   C3A79229  18.508  22.859   6.911
 6342POPC   C4A79230  18.292  22.834   7.241
 6342POPC   C1B79231  18.018  22.937   6.311
 6342POPC   C2B79232  18.008  22.891   6.762
 6342POPC   C3B79233  17.784  22.893   7.139
 6342POPC   C4B79234  17.946  23.205   7.408
 6343POPC   NC379235  43.274  36.852   5.465
 6343POPC   PO479236  42.724  36.659   5.175
 6343POPC   GL179237  42.831  36.664   5.700
 6343POPC   GL279238  43.179  36.649   5.914
 6343POPC   C1A79239  42.769  36.606   6.183
 6343POPC   D2A79240  42.723  36.845   6.564
 6343POPC   C3A79241  42.844  36.680   6.979
 6343POPC   C4A79242  43.057  36.636   7.388
 6343POPC   C1B79243  43.180  36.952   6.284
 6343POPC   C2B79244  43.155  37.084   6.745
 6343POPC   C3B79245  42.997  37.114   7.179
 6343POPC   C4B79246  43.240  37.090   7.541
 6344POPC   NC379247  23.429  34.474   5.445
 6344POPC   PO479248  22.829  34.764   5.500
 6344POPC   GL179249  22.935  34.758   5.910
 6344POPC   GL279250  23.273  34.800   5.805
 6344POPC   C1A79251  22.682  34.749   6.316
 6344POPC   D2A79252  22.586  34.446   6.646
 6344POPC   C3A79253  22.868  34.501   6.987
 6344POPC   C4A79254  22.847  34.559   7.406
 6344POPC   C1B79255  23.328  34.928   6.207
 6344POPC   C2B79256  23.116  34.878   6.571
 6344POPC   C3B79257  23.272  34.799   6.944
 6344POPC   C4B79258  23.204  34.909   7.334
 6345POPC   NC379259  12.688  42.600   5.390
 6345POPC   PO479260  13.152  42.171   5.409
 6345POPC   GL179261  13.001  42.339   5.759
 6345POPC   GL279262  12.762  42.078   5.780
 6345POPC   C1A79263  13.128  42.313   6.182
 6345POPC   D2A79264  13.240  42.148   6.577
 6345POPC   C3A79265  13.093  42.323   6.949
 6345POPC   C4A79266  13.249  42.595   7.214
 6345POPC   C1B79267  12.623  42.276   6.156
 6345POPC   C2B79268  12.731  42.147   6.564
 6345POPC   C3B79269  12.756  41.954   6.953
 6345POPC   C4B79270  12.626  42.285   7.209
 6346POPC   NC379271  36.613  35.837   5.225
 6346POPC   PO479272  36.248  35.669   5.713
 6346POPC   GL179273  36.248  35.373   5.980
 6346POPC   GL279274  36.486  35.133   5.820
 6346POPC   C1A79275  36.150  35.402   6.421
 6346POPC   D2A79276  36.397  35.377   6.806
 6346POPC   C3A79277  36.122  35.411   7.155
 6346POPC   C4A79278  35.964  35.215   7.497
 6346POPC   C1B79279  36.340  34.942   6.234
 6346POPC   C2B79280  36.166  34.926   6.685
 6346POPC   C3B79281  36.162  34.880   7.156
 6346POPC   C4B79282  36.073  34.734   7.620
 6347POPC   NC379283  35.198  18.232   5.487
 6347POPC   PO479284  35.643  18.555   5.841
 6347POPC   GL179285  35.392  18.236   5.953
 6347POPC   GL279286  35.460  17.921   5.794
 6347POPC   C1A79287  35.222  18.204   6.333
 6347POPC   D2A79288  35.065  18.195   6.724
 6347POPC   C3A79289  35.349  18.369   6.971
 6347POPC   C4A79290  35.219  18.552   7.309
 6347POPC   C1B79291  35.384  17.755   6.190
 6347POPC   C2B79292  35.089  17.733   6.521
 6347POPC   C3B79293  35.217  17.764   6.959
 6347POPC   C4B79294  35.276  18.002   7.343
 6348POPC   NC379295  13.916  17.548   5.454
 6348POPC   PO479296  13.450  17.999   5.573
 6348POPC   GL179297  13.637  17.653   5.871
 6348POPC   GL279298  13.975  17.468   5.961
 6348POPC   C1A79299  13.532  17.465   6.271
 6348POPC   D2A79300  13.527  17.689   6.684
 6348POPC   C3A79301  13.330  17.513   7.057
 6348POPC   C4A79302  13.256  17.276   7.449
 6348POPC   C1B79303  13.941  17.748   6.346
 6348POPC   C2B79304  14.009  17.808   6.789
 6348POPC   C3B79305  13.852  17.642   7.182
 6348POPC   C4B79306  13.952  17.747   7.646
 6349POPC   NC379307  19.287  18.310   5.410
 6349POPC   PO479308  18.726  18.101   5.583
 6349POPC   GL179309  19.039  18.272   5.856
 6349POPC   GL279310  19.399  18.071   5.829
 6349POPC   C1A79311  18.922  18.440   6.290
 6349POPC   D2A79312  19.123  18.588   6.696
 6349POPC   C3A79313  18.879  18.539   7.086
 6349POPC   C4A79314  18.741  18.185   7.301
 6349POPC   C1B79315  19.417  18.307   6.201
 6349POPC   C2B79316  19.329  18.130   6.590
 6349POPC   C3B79317  19.390  18.243   6.990
 6349POPC   C4B79318  19.269  18.146   7.387
 6350POPC   NC379319  26.707  18.793   5.432
 6350POPC   PO479320  27.151  19.250   5.538
 6350POPC   GL179321  26.912  19.025   5.849
 6350POPC   GL279322  27.015  18.683   5.832
 6350POPC   C1A79323  26.850  19.056   6.289
 6350POPC   D2A79324  27.029  19.196   6.655
 6350POPC   C3A79325  26.780  19.222   6.991
 6350POPC   C4A79326  26.509  19.049   7.322
 6350POPC   C1B79327  26.839  18.569   6.214
 6350POPC   C2B79328  26.941  18.655   6.641
 6350POPC   C3B79329  26.806  18.729   7.038
 6350POPC   C4B79330  26.873  18.676   7.465
 6351POPC   NC379331  24.191  42.143   5.000
 6351POPC   PO479332  23.531  42.188   5.192
 6351POPC   GL179333  23.757  42.339   5.667
 6351POPC   GL279334  23.911  42.628   5.693
 6351POPC   C1A79335  23.851  42.120   6.080
 6351POPC   D2A79336  23.796  42.286   6.505
 6351POPC   C3A79337  23.623  42.134   6.898
 6351POPC   C4A79338  23.513  42.333   7.271
 6351POPC   C1B79339  23.684  42.624   6.105
 6351POPC   C2B79340  23.704  42.779   6.555
 6351POPC   C3B79341  23.822  42.600   6.951
 6351POPC   C4B79342  23.908  42.715   7.380
 6352POPC   NC379343  22.289  10.363   5.599
 6352POPC   PO479344  22.338  11.019   5.495
 6352POPC   GL179345  22.195  10.856   5.839
 6352POPC   GL279346  21.878  10.768   5.700
 6352POPC   C1A79347  22.343  10.697   6.223
 6352POPC   D2A79348  22.329  10.452   6.574
 6352POPC   C3A79349  22.504  10.652   6.887
 6352POPC   C4A79350  22.417  10.479   7.260
 6352POPC   C1B79351  21.857  10.554   6.104
 6352POPC   C2B79352  21.826  10.418   6.545
 6352POPC   C3B79353  21.983  10.471   6.955
 6352POPC   C4B79354  21.923  10.371   7.384
 6353POPC   NC379355  42.481  30.986   5.284
 6353POPC   PO479356  42.204  30.395   5.480
 6353POPC   GL179357  42.318  30.542   5.874
 6353POPC   GL279358  42.530  30.842   5.826
 6353POPC   C1A79359  42.128  30.617   6.292
 6353POPC   D2A79360  42.171  30.920   6.626
 6353POPC   C3A79361  42.186  30.801   7.085
 6353POPC   C4A79362  42.145  30.852   7.608
 6353POPC   C1B79363  42.622  30.750   6.279
 6353POPC   C2B79364  42.574  30.652   6.715
 6353POPC   C3B79365  42.688  30.754   7.134
 6353POPC   C4B79366  42.630  30.652   7.585
 6354POPC   NC379367  39.220  11.325   5.419
 6354POPC   PO479368  39.520  10.826   5.468
 6354POPC   GL179369  39.534  11.153   5.833
 6354POPC   GL279370  39.180  11.221   5.917
 6354POPC   C1A79371  39.492  11.263   6.318
 6354POPC   D2A79372  39.417  11.531   6.707
 6354POPC   C3A79373  39.342  11.373   7.146
 6354POPC   C4A79374  39.515  11.519   7.599
 6354POPC   C1B79375  39.101  10.948   6.279
 6354POPC   C2B79376  39.305  10.977   6.699
 6354POPC   C3B79377  39.109  10.913   7.055
 6354POPC   C4B79378  38.911  11.023   7.389
 6355POPC   NC379379  21.723  37.643   5.580
 6355POPC   PO479380  21.199  37.930   5.596
 6355POPC   GL179381  21.355  37.659   5.922
 6355POPC   GL279382  21.311  37.309   5.845
 6355POPC   C1A79383  21.538  37.473   6.278
 6355POPC   D2A79384  21.385  37.564   6.669
 6355POPC   C3A79385  21.400  37.507   7.083
 6355POPC   C4A79386  21.398  37.872   7.338
 6355POPC   C1B79387  21.037  37.398   6.261
 6355POPC   C2B79388  20.922  37.325   6.718
 6355POPC   C3B79389  20.920  37.287   7.163
 6355POPC   C4B79390  21.112  37.457   7.532
 6356POPC   NC379391   4.412  32.875   5.535
 6356POPC   PO479392   3.841  33.283   5.375
 6356POPC   GL179393   4.033  33.145   5.788
 6356POPC   GL279394   4.376  33.316   5.846
 6356POPC   C1A79395   4.191  32.951   6.187
 6356POPC   D2A79396   4.189  32.871   6.637
 6356POPC   C3A79397   4.191  33.228   6.921
 6356POPC   C4A79398   4.165  33.207   7.359
 6356POPC   C1B79399   4.650  33.206   6.224
 6356POPC   C2B79400   4.664  33.179   6.689
 6356POPC   C3B79401   4.557  32.868   7.030
 6356POPC   C4B79402   4.574  32.929   7.472
 6357POPC   NC379403   9.392  22.861   5.355
 6357POPC   PO479404   8.770  23.097   5.412
 6357POPC   GL179405   9.024  22.900   5.736
 6357POPC   GL279406   8.909  22.557   5.760
 6357POPC   C1A79407   9.013  23.029   6.171
 6357POPC   D2A79408   9.174  22.976   6.588
 6357POPC   C3A79409   9.036  23.274   6.904
 6357POPC   C4A79410   8.977  23.139   7.300
 6357POPC   C1B79411   8.808  22.551   6.184
 6357POPC   C2B79412   8.662  22.828   6.512
 6357POPC   C3B79413   8.825  22.798   6.940
 6357POPC   C4B79414   9.084  22.614   7.253
 6358POPC   NC379415  34.910  29.994   5.161
 6358POPC   PO479416  34.363  29.660   5.232
 6358POPC   GL179417  34.417  29.857   5.722
 6358POPC   GL279418  34.198  29.577   5.804
 6358POPC   C1A79419  34.619  30.081   6.152
 6358POPC   D2A79420  34.613  30.278   6.610
 6358POPC   C3A79421  34.382  30.117   6.952
 6358POPC   C4A79422  34.712  29.890   7.148
 6358POPC   C1B79423  34.284  29.712   6.202
 6358POPC   C2B79424  34.471  29.764   6.591
 6358POPC   C3B79425  34.319  29.612   6.983
 6358POPC   C4B79426  34.394  29.613   7.437
 6359W        W79427  43.509  13.888  11.894
 6360W        W79428  33.097  22.781   2.788
 6361W        W79429  15.793  36.035  11.614
 6362W        W79430  23.072  24.658   0.327
 6363W        W79431  17.170   4.250   4.387
 6364W        W79432  18.912   5.192  13.650
 6365W        W79433  32.650  36.995   4.218
 6366W        W79434   9.772   6.398  12.011
 6367W        W79435  41.515  22.503   1.434
 6368W        W79436  26.656  20.762   1.420
 6369W        W79437  40.492  23.450   0.355
 6370W        W79438   1.458  13.654   4.290
 6371W        W79439  33.990  27.779   4.582
 6372W        W79440  24.087  27.956   3.056
 6373W        W79441   9.024   2.315   0.102
 6374W        W79442  27.204  13.807   3.688
 6375W        W79443  11.654  37.874   3.649
 6376W        W79444  18.711   8.804  13.301
 6377W        W79445  29.098  39.503  13.361
 6378W        W79446  18.323  32.460  13.805
 6379W        W79447  39.291  29.643   1.273
 6380W        W79448  43.432   6.293   2.324
 6381W        W79449  22.179   7.156  12.112
 6382W        W79450  19.320   7.771  14.418
 6383W        W79451  17.274   2.215  10.510
 6384W        W79452  13.576   0.829  10.570
 6385W        W79453  11.190  42.548   2.942
 6386W        W79454  42.005  22.643   0.332
 6387W        W79455   0.436  37.063  13.546
 6388W        W79456  20.522  41.248  13.851
 6389W        W79457  28.492   3.382  14.246
 6390W        W79458   8.357  20.742   5.080
 6391W        W79459  28.503  31.983   3.404
 6392W        W79460   4.815  28.635   4.774
 6393W        W79461  41.033  44.791   0.264
 6394W        W79462   1.911  37.529  14.461
 6395W        W79463  10.350  38.909   1.395
 6396W        W79464  44.056  38.486   5.243
 6397W        W79465  34.381  11.600  10.324
 6398W        W79466  22.597  43.035   0.176
 6399W        W79467  39.533  14.290   3.792
 6400W        W79468  36.079  43.605  11.314
 6401W        W79469   4.938  25.096  14.820
 6402W        W79470  14.301  30.612   2.444
 6403W        W79471  18.730  27.272   2.681
 6404W        W79472  39.604   6.661   2.617
 6405W        W79473   2.045  10.701  14.880
 6406W        W79474  38.392   9.790   4.613
 6407W        W79475  22.549  20.645   2.182
 6408W        W79476  42.910  21.260  11.176
 6409W        W79477  40.353  40.404   4.210
 6410W        W79478  14.444  22.860   3.187
 6411W        W79479  28.590  40.519  13.893
 6412W        W79480  28.620  17.623   1.325
 6413W        W79481  14.674  28.079   1.706
 6414W        W79482  20.628  40.488   3.951
 6415W        W79483   5.984  13.887  12.356
 6416W        W79484  43.692  43.911  13.849
 6417W        W79485  41.781   6.880  10.666
 6418W        W79486  26.916   9.629  14.398
 6419W        W79487  30.073  34.544   3.046
 6420W        W79488  27.435  36.772   5.017
 6421W        W79489   7.587  15.608   4.422
 6422W        W79490  21.753  30.699   1.828
 6423W        W79491  42.029  22.658   3.709
 6424W        W79492  40.424  20.591   4.038
 6425W        W79493  11.378   4.284  10.693
 6426W        W79494  35.367  38.298  14.090
 6427W        W79495  33.342   8.197  12.788
 6428W        W79496  23.193  31.081   4.089
 6429W        W79497  39.608  39.989   0.395
 6430W        W79498  13.700  22.761  12.476
 6431W        W79499  26.637   3.548  13.098
 6432W        W79500  31.314  27.608   3.884
 6433W        W79501   7.030  13.830  10.928
 6434W        W79502   8.457  44.969  13.524
 6435W        W79503  34.527  31.661  10.711
 6436W        W79504  42.226  42.398   0.297
 6437W        W79505  24.270  11.387   2.747
 6438W        W79506  17.914   1.440   1.432
 6439W        W79507   8.003  29.054   1.730
 6440W        W79508  21.101  15.983   0.281
 6441W        W79509  31.599  16.534  11.095
 6442W        W79510  40.016  34.146   0.841
 6443W        W79511  13.713  29.901  14.819
 6444W        W79512  31.367   9.258   0.033
 6445W        W79513   4.178  41.384  12.131
 6446W        W79514  26.662  34.672  13.893
 6447W        W79515  22.961  42.934   3.657
 6448W        W79516   0.975   5.692   1.795
 6449W        W79517  13.088   2.988  13.422
 6450W        W79518   6.356  18.777  11.946
 6451W        W79519  15.128  13.539   3.392
 6452W        W79520  40.956  16.637  14.307
 6453W        W79521  21.900  30.158   0.689
 6454W        W79522  42.355  33.147  13.380
 6455W        W79523  41.192   3.207  13.051
 6456W        W79524  33.542  34.626  14.772
 6457W        W79525  35.412  40.897   3.767
 6458W        W79526  36.480  11.297   3.922
 6459W        W79527  27.118   0.471  11.779
 6460W        W79528  34.629  36.880   2.554
 6461W        W79529  21.618  27.579   4.328
 6462W        W79530   1.418   3.254   2.272
 6463W        W79531  13.842   2.997  14.465
 6464W        W79532   9.636  18.205  14.787
 6465W        W79533  29.599  31.151  12.972
 6466W        W79534  34.235  21.149  12.134
 6467W        W79535  32.477  17.791  10.500
 6468W        W79536  18.048  15.615   1.317
 6469W        W79537  19.754  38.286   0.551
 6470W        W79538   7.975  14.064  11.073
 6471W        W79539  28.678  42.388   4.732
 6472W        W79540  33.902  17.080   2.763
 6473W        W79541  35.604  19.249   2.810
 6474W        W79542  27.751  10.815  13.800
 6475W        W79543   9.224  22.105  13.507
 6476W        W79544  21.316  37.863  13.821
 6477W        W79545  27.585  25.193   2.299
 6478W        W79546  39.916   3.786  11.940
 6479W        W79547  39.084  44.919  10.294
 6480W        W79548  26.161  15.531   2.853
 6481W        W79549  20.651   5.780  11.961
 6482W        W79550  11.909  39.460   2.557
 6483W        W79551  17.722  11.697  12.921
 6484W        W79552   9.825  43.859  13.759
 6485W        W79553  38.569   4.712   3.136
 6486W        W79554  17.111  30.475   4.525
 6487W        W79555  34.672  39.757  12.500
 6488W        W79556  23.112  39.976   3.197
 6489W        W79557  37.391  32.017  12.050
 6490W        W79558  22.377  35.851  12.411
 6491W        W79559  12.835  29.755  11.929
 6492W        W79560  28.555  32.372   3.075
 6493W        W79561  27.194  15.265   4.555
 6494W        W79562   2.385  19.760  11.457
 6495W        W79563  33.564   4.658  12.065
 6496W        W79564  43.429  20.487  12.852
 6497W        W79565  22.063   1.580  11.072
 6498W        W79566  31.534  14.175  13.379
 6499W        W79567  27.876  43.828   0.629
 6500W        W79568  42.378  27.606   3.265
 6501W        W79569  18.251  35.867   4.302
 6502W        W79570  32.466   0.801   0.473
 6503W        W79571   7.637   3.433   1.502
 6504W        W79572  23.619   4.372  12.270
 6505W        W79573  28.712  41.898   2.216
 6506W        W79574  19.115  28.340   2.161
 6507W        W79575  31.922  44.707  14.926
 6508W        W79576  40.999  40.297   2.118
 6509W        W79577  44.063   1.316   4.690
 6510W        W79578  38.801  30.880   1.648
 6511W        W79579  19.793   9.139  11.616
 6512W        W79580  12.278  19.653   2.560
 6513W        W79581  39.222  25.176   1.163
 6514W        W79582  24.082  34.563  11.854
 6515W        W79583   0.295  36.344   3.275
 6516W        W79584  34.470  14.146   2.347
 6517W        W79585  11.826  31.341  10.615
 6518W        W79586  41.439   8.195  10.837
 6519W        W79587  39.069  34.286   4.076
 6520W        W79588  34.896  17.707   4.155
 6521W        W79589  43.538  27.862  11.477
 6522W        W79590   8.866  44.843  13.884
 6523W        W79591  10.266  24.771  11.047
 6524W        W79592  41.495  20.892   2.468
 6525W        W79593  42.517  17.822   1.540
 6526W        W79594  11.318  23.538  13.859
 6527W        W79595  27.936   2.549  14.512
 6528W        W79596  31.004   6.553   0.981
 6529W        W79597  15.911  33.567   4.605
 6530W        W79598  11.219   9.285  12.543
 6531W        W79599   4.838   4.695   5.105
 6532W        W79600   6.276  42.132   0.872
 6533W        W79601  16.890   3.315  13.642
 6534W        W79602  37.189  14.575   3.641
 6535W        W79603  16.539  36.780   2.295
 6536W        W79604  27.398  31.340  13.815
 6537W        W79605   8.961  12.328  13.983
 6538W        W79606   1.139  41.099  11.971
 6539W        W79607  34.567   6.220   3.687
 6540W        W79608   3.304  34.321   4.976
 6541W        W79609  26.287   7.286  11.137
 6542W        W79610  27.800   5.324   4.141
 6543W        W79611   0.321  20.321   3.541
 6544W        W79612  11.311  28.560  12.042
 6545W        W79613  31.958  31.916  14.817
 6546W        W79614  38.354  44.554  12.840
 6547W        W79615  29.087   0.976  12.905
 6548W        W79616  40.610  28.562  13.491
 6549W        W79617  19.518  29.448  13.001
 6550W        W79618  25.359  15.751  14.752
 6551W        W79619  17.983  17.398  11.150
 6552W        W79620  10.680  32.578   3.648
 6553W        W79621   9.883  40.510   3.268
 6554W        W79622  21.074  20.043   0.762
 6555W        W79623  34.154  26.120   0.343
 6556W        W79624  11.155  38.013   3.849
 6557W        W79625  15.379  31.923  11.017
 6558W        W79626  36.947  24.555  11.203
 6559W        W79627  16.158   1.058   1.794
 6560W        W79628  32.766  38.000  14.357
 6561W        W79629  32.400  37.033  12.915
 6562W        W79630  15.856   1.321  14.785
 6563W        W79631  31.880  19.258  11.131
 6564W        W79632   1.299  15.908  13.822
 6565W        W79633  35.678  39.578   1.349
 6566W        W79634  23.617  26.486  14.106
 6567W        W79635  13.040  21.073  11.146
 6568W        W79636  39.841  28.500   2.904
 6569W        W79637   5.456  16.358   1.367
 6570W        W79638  28.037  17.975  11.912
 6571W        W79639  36.314  44.005   0.480
 6572W        W79640  29.568   8.286   3.620
 6573W        W79641  25.519  34.371   3.223
 6574W        W79642  18.207  34.947  13.012
 6575W        W79643  10.477  35.126  11.139
 6576W        W79644  25.048  39.156   4.556
 6577W        W79645   7.989   8.681   2.378
 6578W        W79646  33.082  19.584  10.726
 6579W        W79647   8.448   0.833  13.678
 6580W        W79648  35.164   7.342  12.439
 6581W        W79649  12.033  17.954  10.649
 6582W        W79650  16.970  35.101  10.337
 6583W        W79651   5.158  12.634  12.920
 6584W        W79652   5.709  34.143   4.195
 6585W        W79653  14.703  18.838   1.260
 6586W        W79654  34.490  43.560  13.949
 6587W        W79655  39.765  43.270  12.583
 6588W        W79656  36.028   2.480  13.847
 6589W        W79657   7.386  30.453  12.824
 6590W        W79658  15.596   7.926   4.138
 6591W        W79659   3.232  36.342   4.336
 6592W        W79660  28.895  37.133  13.883
 6593W        W79661  43.377  39.875   1.675
 6594W        W79662  21.757  37.873   3.082
 6595W        W79663  24.776  23.195   1.201
 6596W        W79664  19.537  10.200  10.441
 6597W        W79665  30.047  32.406  12.597
 6598W        W79666  28.560  20.140  12.027
 6599W        W79667  18.141   1.921   2.822
 6600W        W79668   1.294  31.684   0.407
 6601W        W79669   2.393  23.761   1.176
 6602W        W79670  31.402   1.226  13.509
 6603W        W79671   1.886  33.298   4.569
 6604W        W79672  23.742  17.134   4.082
 6605W        W79673  21.740   1.396  13.372
 6606W        W79674  16.683  16.993  10.619
 6607W        W79675  33.128  27.259  14.515
 6608W        W79676  27.610  18.666  14.286
 6609W        W79677   8.351  13.651   1.506
 6610W        W79678  25.555  40.519   1.329
 6611W        W79679  14.257  26.419  12.933
 6612W        W79680  14.709  35.528   2.731
 6613W        W79681  34.172  37.994  14.975
 6614W        W79682  20.098  36.993   0.803
 6615W        W79683  37.104  21.106  10.984
 6616W        W79684   8.898   6.032   2.741
 6617W        W79685  32.638  10.448   0.407
 6618W        W79686  36.933  24.643   1.382
 6619W        W79687  30.772   8.470   2.824
 6620W        W79688  30.234  26.083   1.480
 6621W        W79689  28.512  29.748   0.765
 6622W        W79690   4.443  10.784  12.368
 6623W        W79691   9.568  27.213   2.914
 6624W        W79692  21.755  33.292   3.773
 6625W        W79693   8.371   9.124  11.139
 6626W        W79694   3.300   0.150  14.056
 6627W        W79695  12.350  43.795  13.372
 6628W        W79696  39.482   8.872   1.273
 6629W        W79697  26.710   2.716  14.298
 6630W        W79698  36.292  16.183  13.998
 6631W        W79699  16.337   6.715   3.181
 6632W        W79700  21.441  41.271  10.666
 6633W        W79701  17.756   7.205  13.402
 6634W        W79702   9.286  28.785   1.799
 6635W        W79703  15.777  38.595  14.943
 6636W        W79704  41.410  22.311   3.246
 6637W        W79705  42.128   5.873   2.924
 6638W        W79706   4.935  27.090  14.975
 6639W        W79707  22.747   3.931   1.795
 6640W        W79708  30.479   8.761   2.469
 6641W        W79709  24.169   1.414  12.624
 6642W        W79710  12.335  34.420   1.316
 6643W        W79711  32.533  31.816   0.302
 6644W        W79712  36.001   7.262   1.234
 6645W        W79713  19.110  43.781  11.057
 6646W        W79714   8.806   1.045  11.533
 6647W        W79715  39.908  20.262   0.872
 6648W        W79716   5.299  16.704  14.623
 6649W        W79717  38.743  18.587  10.956
 6650W        W79718   1.378  20.807   4.563
 6651W        W79719  13.964   4.631  11.533
 6652W        W79720  40.994   3.736  11.071
 6653W        W79721  40.799  42.870  10.721
 6654W        W79722   7.949  21.273  14.988
 6655W        W79723   2.979  24.796  11.548
 6656W        W79724  32.046  10.721  10.795
 6657W        W79725  10.878   4.376  13.455
 6658W        W79726  18.234  35.393  10.899
 6659W        W79727  12.862  14.125  12.102
 6660W        W79728  21.831  34.617  14.924
 6661W        W79729  34.980  35.376   0.915
 6662W        W79730  41.500  14.424  14.411
 6663W        W79731   1.809   1.683  12.615
 6664W        W79732   7.755  11.126  11.152
 6665W        W79733   7.548  36.672  13.918
 6666W        W79734   1.156  17.070  12.137
 6667W        W79735   6.716  16.044  14.090
 6668W        W79736  22.178   0.523   3.267
 6669W        W79737   8.203  14.686  11.053
 6670W        W79738  40.969  11.221   0.293
 6671W        W79739  10.624   9.373   2.694
 6672W        W79740   7.296  23.684  10.719
 6673W        W79741  10.187  11.227  13.575
 6674W        W79742  19.190  39.510   1.726
 6675W        W79743  15.642  38.340   3.280
 6676W        W79744  33.628  40.521   0.381
 6677W        W79745  39.076   6.912  13.038
 6678W        W79746  25.498  39.398   3.917
 6679W        W79747  16.591   3.093   0.989
 6680W        W79748  43.685   6.496   1.853
 6681W        W79749  32.901  30.558   3.816
 6682W        W79750  42.373   1.164   2.471
 6683W        W79751   1.563  21.244   3.762
 6684W        W79752   4.661   2.427   3.091
 6685W        W79753  33.763  26.604  12.676
 6686W        W79754  16.557  38.843  13.277
 6687W        W79755  16.160  23.240  12.492
 6688W        W79756  38.628  11.468   4.966
 6689W        W79757  21.282  17.497  11.440
 6690W        W79758   1.357   9.804   4.228
 6691W        W79759  42.831   5.218  10.736
 6692W        W79760   9.340  19.030  11.612
 6693W        W79761  41.712  28.512   2.790
 6694W        W79762  20.929  43.731   2.823
 6695W        W79763  18.459   8.345   1.963
 6696W        W79764  17.268  26.772   4.537
 6697W        W79765  22.546  37.841  14.973
 6698W        W79766  44.845   8.864   1.456
 6699W        W79767  32.964  29.699   2.167
 6700W        W79768  27.613  34.107  11.265
 6701W        W79769  20.769  39.535  11.055
 6702W        W79770   3.437   1.009   1.508
 6703W        W79771   9.440  14.912  13.906
 6704W        W79772  10.917  14.544  14.835
 6705W        W79773  29.550   3.130  12.554
 6706W        W79774  16.375  33.008   3.259
 6707W        W79775  21.472  39.965   0.295
 6708W        W79776  33.602  19.700  13.292
 6709W        W79777  11.064  20.759  14.400
 6710W        W79778   3.334  30.468   4.650
 6711W        W79779  41.025  38.095   0.918
 6712W        W79780   0.296  17.085  11.656
 6713W        W79781  22.984  12.366  13.987
 6714W        W79782  24.941  18.160   3.689
 6715W        W79783   6.831  33.177  13.807
 6716W        W79784  12.819  41.510   2.561
 6717W        W79785  41.850   9.810   3.410
 6718W        W79786   3.474  20.636  14.362
 6719W        W79787  29.840  28.529  13.821
 6720W        W79788  44.510  13.302  11.529
 6721W        W79789  22.973  16.508  10.265
 6722W        W79790  27.091   4.690  14.688
 6723W        W79791  10.236  30.154   2.145
 6724W        W79792  24.245  19.649  12.786
 6725W        W79793  11.557  33.166  11.848
 6726W        W79794  15.139   2.660   2.198
 6727W        W79795  43.529  22.775  13.466
 6728W        W79796  35.744  42.615   0.410
 6729W        W79797   5.258   5.865  14.319
 6730W        W79798  38.977  25.130   2.411
 6731W        W79799  36.000  20.111   0.874
 6732W        W79800  25.640   5.676  12.556
 6733W        W79801   1.842  25.317   3.912
 6734W        W79802  41.261  20.689   3.430
 6735W        W79803  30.578  38.937   1.322
 6736W        W79804  27.120   8.874   2.597
 6737W        W79805  11.868  22.340  14.834
 6738W        W79806  37.563   1.750  14.870
 6739W        W79807  16.790   8.568   1.380
 6740W        W79808   7.297  36.314  14.233
 6741W        W79809  37.635  13.250   1.248
 6742W        W79810   5.849  43.911  14.949
 6743W        W79811  43.475  18.278  12.023
 6744W        W79812  14.952  16.068  12.008
 6745W        W79813  16.620  41.537   4.750
 6746W        W79814  27.610  20.686  14.411
 6747W        W79815  27.031   1.061   0.515
 6748W        W79816  28.175  24.113   1.557
 6749W        W79817  12.723   7.720   3.922
 6750W        W79818  27.572  27.813   2.297
 6751W        W79819  15.302  36.856  10.710
 6752W        W79820   1.475  22.986  11.487
 6753W        W79821   1.963  40.828   3.346
 6754W        W79822  10.676  11.362  14.796
 6755W        W79823  13.127  18.272  12.370
 6756W        W79824  44.286  16.103   3.831
 6757W        W79825   7.382  14.925  13.609
 6758W        W79826   8.315   2.361   3.219
 6759W        W79827  11.951   5.702  10.548
 6760W        W79828  43.412   5.433  10.338
 6761W        W79829  33.636  36.578   2.719
 6762W        W79830  18.038  12.875  11.817
 6763W        W79831   8.760  15.790  14.669
 6764W        W79832  20.210  16.092   0.840
 6765W        W79833  28.993  36.973  12.411
 6766W        W79834  25.980   2.559  12.086
 6767W        W79835   4.493  28.684   2.099
 6768W        W79836  41.843  32.382   2.332
 6769W        W79837  17.281  11.481   2.822
 6770W        W79838  33.133  43.883  10.768
 6771W        W79839   7.884   7.065  10.596
 6772W        W79840  14.852  11.027  13.482
 6773W        W79841  26.263   8.941   0.760
 6774W        W79842  29.109  11.148   1.476
 6775W        W79843   1.797  41.285  14.061
 6776W        W79844   0.472  19.544  12.830
 6777W        W79845  36.847  14.157   4.298
 6778W        W79846  36.149  31.039   0.908
 6779W        W79847   8.051  35.909   0.470
 6780W        W79848  19.695  42.927   3.867
 6781W        W79849  12.747  12.919   2.922
 6782W        W79850  17.533  38.446   4.272
 6783W        W79851   3.458  30.490  12.466
 6784W        W79852  18.327  18.634  13.831
 6785W        W79853  40.150  31.126  11.944
 6786W        W79854  31.094  23.028  14.359
 6787W        W79855  12.160  15.025  14.798
 6788W        W79856  15.153  25.070  14.948
 6789W        W79857  23.961  36.923   3.218
 6790W        W79858  10.674  20.371   3.694
 6791W        W79859  34.764  22.392  11.686
 6792W        W79860   3.311   6.462   1.711
 6793W        W79861   2.900  16.750   4.030
 6794W        W79862  39.990  19.989   1.307
 6795W        W79863   8.389  41.513  12.568
 6796W        W79864  22.038   1.786  14.901
 6797W        W79865   1.371   6.939   1.711
 6798W        W79866  31.498   0.350  13.569
 6799W        W79867  15.248  31.180   3.482
 6800W        W79868  24.497  35.407  12.386
 6801W        W79869  44.450  12.054   2.668
 6802W        W79870  40.040  35.917   2.331
 6803W        W79871  28.238  30.239   3.369
 6804W        W79872  10.214  18.070   1.489
 6805W        W79873  18.805  15.771   0.583
 6806W        W79874  10.116  17.328  14.782
 6807W        W79875   1.807  35.788   2.366
 6808W        W79876  17.252  21.910  12.510
 6809W        W79877   1.306  41.588  11.965
 6810W        W79878  37.443  12.541  14.401
 6811W        W79879  36.579   7.241  14.305
 6812W        W79880   6.280  44.517   1.023
 6813W        W79881   2.768  14.548  14.491
 6814W        W79882  40.887  16.734   4.334
 6815W        W79883  27.457  32.416   3.586
 6816W        W79884   9.149  25.521   3.276
 6817W        W79885  15.868  28.847  13.544
 6818W        W79886  29.498  33.342   3.302
 6819W        W79887  44.715  41.934  12.552
 6820W        W79888   6.893   6.304  14.324
 6821W        W79889  15.103  41.573  13.548
 6822W        W79890  23.317  16.159   4.428
 6823W        W79891  17.735   9.198  11.509
 6824W        W79892  19.688  21.929  12.761
 6825W        W79893   6.989   1.849  12.516
 6826W        W79894  24.004  20.424  13.302
 6827W        W79895   9.610   9.028  11.451
 6828W        W79896  27.828  18.665  14.943
 6829W        W79897  24.725   6.898   1.428
 6830W        W79898  10.613  17.080  12.986
 6831W        W79899  21.505  16.595  14.008
 6832W        W79900  18.579  42.467  12.456
 6833W        W79901  25.722  44.321   0.366
 6834W        W79902   6.443  28.219  10.345
 6835W        W79903  35.102  40.346  11.866
 6836W        W79904   4.447  24.458  12.014
 6837W        W79905  23.123  43.328  10.978
 6838W        W79906  15.333  42.357  13.904
 6839W        W79907  36.322  33.498  12.600
 6840W        W79908  23.291  15.760   3.740
 6841W        W79909  30.594  41.028   1.175
 6842W        W79910  31.385  40.152  11.062
 6843W        W79911  30.010  43.821  14.270
 6844W        W79912  43.021   6.756  14.404
 6845W        W79913  15.178  38.730   1.197
 6846W        W79914  35.454   9.703   3.739
 6847W        W79915   9.900  13.651   1.222
 6848W        W79916  35.634  39.403  12.562
 6849W        W79917  18.118   1.259  11.291
 6850W        W79918   9.145  14.734   3.210
 6851W        W79919  33.343  14.519   0.485
 6852W        W79920  16.596  43.021   2.113
 6853W        W79921  31.362  13.670  14.541
 6854W        W79922  40.678   5.776  13.752
 6855W        W79923  12.339  21.324   4.197
 6856W        W79924  18.652  35.777  12.359
 6857W        W79925  27.589  30.160   1.321
 6858W        W79926  36.573  38.775  13.552
 6859W        W79927  21.778  12.227  11.200
 6860W        W79928  19.235  41.012   1.885
 6861W        W79929  25.545  19.930   5.093
 6862W        W79930  40.983   1.393   0.355
 6863W        W79931  12.274  43.705   3.799
 6864W        W79932  34.602  31.389   1.898
 6865W        W79933  36.185  39.156   4.305
 6866W        W79934  19.963   9.846   3.241
 6867W        W79935  12.334  30.219  14.308
 6868W        W79936  10.735  31.524   0.347
 6869W        W79937  36.589   3.883   0.935
 6870W        W79938  40.587  34.825  10.366
 6871W        W79939  11.269  43.616  14.021
 6872W        W79940   9.771  44.213  13.296
 6873W        W79941  43.173   9.342   4.626
 6874W        W79942  41.105  40.317   2.652
 6875W        W79943  24.204   9.190  11.980
 6876W        W79944   5.552   9.727   3.214
 6877W        W79945   7.131  17.100   4.724
 6878W        W79946  11.704  15.195   4.076
 6879W        W79947  34.405   9.381   2.786
 6880W        W79948  21.193   3.421   1.435
 6881W        W79949  31.943  42.553  12.789
 6882W        W79950  21.018  24.447  10.920
 6883W        W79951   3.417  31.170  10.602
 6884W        W79952  27.574  34.202   2.222
 6885W        W79953  24.495  27.026  10.566
 6886W        W79954   9.106  28.861  10.712
 6887W        W79955  38.488  13.871   0.649
 6888W        W79956  24.723  36.632   2.898
 6889W        W79957  25.873  31.721  13.350
 6890W        W79958  31.340  35.649   3.368
 6891W        W79959  17.280  18.720   2.663
 6892W        W79960  39.046  29.886  14.931
 6893W        W79961   2.339   7.878   0.028
 6894W        W79962  14.971  35.856  12.853
 6895W        W79963   1.867  22.320  11.868
 6896W        W79964  36.360  44.573   1.343
 6897W        W79965  10.742  21.188  14.443
 6898W        W79966  11.798  25.079   1.203
 6899W        W79967   8.987   1.020  12.476
 6900W        W79968   7.209   3.243  10.993
 6901W        W79969   0.921   2.696  12.381
 6902W        W79970  24.020   0.937  11.428
 6903W        W79971  29.703  12.261   0.375
 6904W        W79972   2.225  37.634  14.894
 6905W        W79973   1.559  18.732   0.901
 6906W        W79974  44.965  32.853  11.321
 6907W        W79975  24.131  35.196   4.141
 6908W        W79976  44.933  15.543   2.213
 6909W        W79977  40.165   0.580  11.626
 6910W        W79978  24.164   2.382   1.074
 6911W        W79979  26.982   5.647  14.371
 6912W        W79980  35.454  31.849  10.221
 6913W        W79981  10.364  41.132  12.374
 6914W        W79982  25.167  34.595  10.597
 6915W        W79983   7.693  11.045   4.739
 6916W        W79984  41.579  12.474   0.696
 6917W        W79985  44.371  28.726  12.122
 6918W        W79986  35.196  32.083   4.148
 6919W        W79987  35.157   0.722  10.620
 6920W        W79988   0.764   4.058  13.829
 6921W        W79989  31.662  40.725   0.289
 6922W        W79990  10.784  12.269  12.845
 6923W        W79991   9.564  32.560   4.748
 6924W        W79992  35.942  12.798  14.640
 6925W        W79993  24.534  32.493  12.418
 6926W        W79994  31.199  34.056  13.796
 6927W        W79995   6.456  15.513  10.639
 6928W        W79996  11.764  19.007  14.907
 6929W        W79997  30.407   3.401  10.775
 6930W        W79998  18.325  12.696   4.086
 6931W        W79999  41.809  38.406   0.691
 6932W        W80000  30.833  44.381  10.388
 6933W        W80001  33.487  13.185   0.806
 6934W        W80002  29.531  21.554  10.727
 6935W        W80003  43.437  30.666  11.987
 6936W        W80004   1.715  21.329   1.759
 6937W        W80005   5.362  41.059   3.832
 6938W        W80006  30.623   6.957   4.574
 6939W        W80007  35.972   7.763  10.883
 6940W        W80008  29.508  22.021   2.137
 6941W        W80009  17.669  12.879   1.474
 6942W        W80010  38.243  13.621   2.727
 6943W        W80011  10.773  38.043   0.406
 6944W        W80012  26.537  13.809   1.913
 6945W        W80013  29.286   2.560   1.834
 6946W        W80014  25.559  17.231  10.758
 6947W        W80015  20.299   6.211   1.629
 6948W        W80016  13.118  21.614  13.816
 6949W        W80017   5.366   9.357  13.084
 6950W        W80018   4.231  13.406  13.538
 6951W        W80019  32.958  33.476  14.868
 6952W        W80020  31.587  17.332   0.450
 6953W        W80021  31.331  19.086   4.626
 6954W        W80022  26.984   1.104   1.440
 6955W        W80023  18.722  32.965   0.833
 6956W        W80024   8.410  38.482   4.564
 6957W        W80025  17.413  37.113   1.340
 6958W        W80026   5.697  35.563  12.972
 6959W        W80027   8.953   9.253   3.669
 6960W        W80028  13.347  26.722   4.534
 6961W        W80029   9.359  25.633   2.811
 6962W        W80030   7.831   3.337  11.095
 6963W        W80031  35.911  35.971   4.356
 6964W        W80032   4.836  10.446   4.158
 6965W        W80033  16.786  23.061   0.254
 6966W        W80034  37.141  26.702   3.250
 6967W        W80035  10.271  23.539  14.402
 6968W        W80036  17.519  44.547   0.266
 6969W        W80037  41.787  30.401   0.948
 6970W        W80038   3.730  20.970  12.921
 6971W        W80039  38.151  15.734  14.275
 6972W        W80040   2.927  26.161  14.878
 6973W        W80041  44.017   9.085   0.927
 6974W        W80042  37.843   6.309  12.628
 6975W        W80043  27.557  33.861   3.220
 6976W        W80044  39.836  38.622   1.792
 6977W        W80045  33.620  19.267  12.994
 6978W        W80046  42.583  18.484   3.259
 6979W        W80047  43.681  40.910   0.414
 6980W        W80048  13.343  36.819   4.803
 6981W        W80049   5.740  18.074   0.015
 6982W        W80050  20.987  33.555  14.447
 6983W        W80051   5.245  34.830   4.840
 6984W        W80052  37.884   7.650   1.323
 6985W        W80053  42.230  32.879  11.365
 6986W        W80054  17.432  14.364   4.524
 6987W        W80055  15.187  11.332   0.941
 6988W        W80056  39.001  18.466  10.533
 6989W        W80057  11.092  11.886   1.786
 6990W        W80058   5.781  15.122   0.915
 6991W        W80059   6.790  17.075   1.441
 6992W        W80060  16.134  23.426   4.943
 6993W        W80061  32.365  38.252   2.775
 6994W        W80062  35.020  34.041   4.995
 6995W        W80063   5.112   7.115  11.669
 6996W        W80064  19.641   9.781  13.377
 6997W        W80065  20.150  37.001  11.524
 6998W        W80066  21.000  40.346  14.006
 6999W        W80067   6.876  18.163  11.130
 7000W        W80068  35.914   5.361   3.326
 7001W        W80069  13.167  12.425   5.189
 7002W        W80070  38.603  23.898   3.133
 7003W        W80071  38.489   5.758   4.005
 7004W        W80072  44.496  30.520   2.247
 7005W        W80073  25.596  44.929   3.112
 7006W        W80074  39.216   9.892  11.453
 7007W        W80075  20.441  42.634   0.453
 7008W        W80076  20.192  12.571   1.354
 7009W        W80077  40.044  29.067   4.144
 7010W        W80078   4.413  36.514  12.424
 7011W        W80079  13.264   8.707   4.606
 7012W        W80080  40.642  44.514   0.463
 7013W        W80081  14.153  25.749   1.491
 7014W        W80082  31.964  35.532   0.176
 7015W        W80083  12.362  24.458   4.204
 7016W        W80084   4.784   2.361   4.031
 7017W        W80085  39.989  15.879  13.726
 7018W        W80086  17.318  26.468  12.421
 7019W        W80087  41.922  26.818  12.018
 7020W        W80088  14.808  37.440  13.370
 7021W        W80089  21.705  39.754   3.189
 7022W        W80090   6.629  20.907   2.782
 7023W        W80091  43.908  15.505   3.237
 7024W        W80092  42.470  20.532   3.121
 7025W        W80093  31.165  35.713   2.572
 7026W        W80094  38.345  33.018  11.266
 7027W        W80095   3.471  38.448  10.720
 7028W        W80096  35.581  25.014  11.050
 7029W        W80097  18.768  15.367  12.566
 7030W        W80098   7.847   4.626  11.629
 7031W        W80099  23.652  21.771  12.007
 7032W        W80100   7.824  36.489   0.917
 7033W        W80101  44.389  31.892  12.495
 7034W        W80102  16.850  16.534   4.576
 7035W        W80103  21.027   5.087   4.981
 7036W        W80104  25.136   4.471  12.816
 7037W        W80105   7.825  33.944   2.289
 7038W        W80106  14.835  29.239  10.466
 7039W        W80107  35.583  40.299  14.400
 7040W        W80108   3.307  39.668   0.243
 7041W        W80109  10.573   5.901   4.067
 7042W        W80110  30.407  37.952  14.742
 7043W        W80111   3.729  24.932  13.279
 7044W        W80112  26.868  34.018   3.524
 7045W        W80113  11.042  24.596   0.524
 7046W        W80114  30.945  18.821  14.983
 7047W        W80115  37.426  11.831   4.642
 7048W        W80116  29.110  35.094   1.195
 7049W        W80117  11.992  32.439   1.388
 7050W        W80118  38.045  24.674   1.489
 7051W        W80119   0.906  28.603  10.489
 7052W        W80120  40.932  32.447   1.667
 7053W        W80121  24.702  23.438  13.337
 7054W        W80122   0.584  32.822   0.955
 7055W        W80123  34.010  25.799   0.781
 7056W        W80124   8.259  33.916  12.702
 7057W        W80125  12.967  32.875  11.958
 7058W        W80126  31.581  39.749   0.266
 7059W        W80127  36.463  40.475   0.834
 7060W        W80128  33.575   0.854  12.498
 7061W        W80129  33.541  16.177  14.892
 7062W        W80130  41.992  32.491   0.451
 7063W        W80131  31.336  43.573  13.240
 7064W        W80132  33.817   9.241  14.400
 7065W        W80133  33.570  17.731  11.839
 7066W        W80134   9.108  27.443   4.220
 7067W        W80135  25.174  26.958   1.315
 7068W        W80136  35.999  33.173   1.434
 7069W        W80137  38.543   0.837   0.791
 7070W        W80138  38.736  27.767  14.805
 7071W        W80139  44.062  15.744   2.350
 7072W        W80140  26.460  29.984  12.073
 7073W        W80141  35.517  32.376  11.883
 7074W        W80142  33.441  39.357   4.665
 7075W        W80143  19.742  40.252  12.155
 7076W        W80144   0.319  34.312  12.811
 7077W        W80145   3.297  19.747   1.870
 7078W        W80146  28.758  12.257  12.443
 7079W        W80147  23.271  28.348  11.591
 7080W        W80148  15.325  39.496   4.612
 7081W        W80149  31.662  33.379  13.491
 7082W        W80150  12.616  37.278   1.677
 7083W        W80151  28.389  22.480   4.355
 7084W        W80152  37.541  36.464   4.124
 7085W        W80153  29.391  11.058  14.972
 7086W        W80154   3.248   7.307   4.249
 7087W        W80155  29.156  22.240  11.105
 7088W        W80156  33.443   2.792   3.345
 7089W        W80157  38.803   2.886   0.434
 7090W        W80158  17.771  10.230  11.689
 7091W        W80159  11.272   4.901  11.241
 7092W        W80160   4.363  42.516   2.565
 7093W        W80161  25.202  32.574  14.152
 7094W        W80162  20.263   7.108  13.770
 7095W        W80163  32.428   1.172   3.744
 7096W        W80164  34.809  42.495   4.632
 7097W        W80165  21.966  42.834   3.703
 7098W        W80166  27.992  34.135   4.332
 7099W        W80167  30.126  14.106   1.820
 7100W        W80168   8.888  44.303   3.089
 7101W        W80169  42.770  37.646  10.287
 7102W        W80170  41.896  12.572  11.499
 7103W        W80171  28.982  33.802   2.536
 7104W        W80172  32.949  11.096   4.481
 7105W        W80173  44.514  13.082  13.887
 7106W        W80174  14.119  35.667  14.906
 7107W        W80175  19.041   0.434   3.340
 7108W        W80176  18.712  24.634   1.902
 7109W        W80177  41.076  36.412  14.313
 7110W        W80178   5.851  15.039  12.261
 7111W        W80179  14.050  12.636  11.222
 7112W        W80180  29.544   5.350   3.759
 7113W        W80181  25.218   6.632  11.868
 7114W        W80182  28.383   0.373   3.148
 7115W        W80183  26.727  13.147   1.167
 7116W        W80184   0.357  22.968  10.872
 7117W        W80185  23.242  16.531  13.531
 7118W        W80186  18.278  42.023  14.926
 7119W        W80187  44.457   2.421   1.738
 7120W        W80188  17.570   2.932  10.416
 7121W        W80189  19.208  27.178  12.410
 7122W        W80190   6.718  34.751  11.622
 7123W        W80191  34.331   8.437  11.162
 7124W        W80192  32.022  13.015  12.811
 7125W        W80193  25.171  25.183  12.298
 7126W        W80194  43.373  20.685   0.671
 7127W        W80195  16.102  11.100   0.407
 7128W        W80196  37.483  24.312  14.535
 7129W        W80197  37.972  41.244   4.885
 7130W        W80198  27.761  11.769  13.634
 7131W        W80199   3.444  25.516   0.250
 7132W        W80200  23.102  35.499  11.851
 7133W        W80201  10.618  29.057   4.759
 7134W        W80202  37.920  14.939   0.423
 7135W        W80203   6.921  26.956   0.981
 7136W        W80204  23.141  12.919  11.012
 7137W        W80205  34.341  34.483  12.502
 7138W        W80206  34.831  12.505  11.273
 7139W        W80207  38.437  38.983  10.466
 7140W        W80208  37.584  16.781  12.460
 7141W        W80209  42.336  25.423   2.325
 7142W        W80210  19.875  13.852  12.116
 7143W        W80211  17.384  13.147   0.471
 7144W        W80212  16.230  12.157   3.550
 7145W        W80213  38.663  40.967  12.955
 7146W        W80214  44.432  23.131   0.287
 7147W        W80215   6.961  39.276  13.037
 7148W        W80216  30.334   8.184   0.814
 7149W        W80217  24.158  26.477  14.013
 7150W        W80218  42.689   7.893  13.501
 7151W        W80219  12.303  31.616  14.290
 7152W        W80220  30.981   9.250   4.893
 7153W        W80221  35.485  36.880   3.605
 7154W        W80222  20.579  42.859  11.704
 7155W        W80223  11.379  10.301   2.373
 7156W        W80224   5.185  26.964   3.394
 7157W        W80225  27.859  31.102   4.340
 7158W        W80226  20.608   5.312  11.703
 7159W        W80227  43.634  28.955  12.204
 7160W        W80228   4.789  31.399   4.196
 7161W        W80229  34.935  17.175   4.090
 7162W        W80230  15.876   8.719   1.312
 7163W        W80231  24.212   7.982   5.015
 7164W        W80232  28.059  31.120   3.875
 7165W        W80233  10.649  23.684  14.701
 7166W        W80234  11.137  44.469  14.304
 7167W        W80235  12.376  24.405   1.358
 7168W        W80236  15.043  15.520   3.089
 7169W        W80237  16.808  41.037   4.670
 7170W        W80238   2.972  15.732   3.688
 7171W        W80239  10.197   4.622  12.753
 7172W        W80240  17.679  26.565   9.988
 7173W        W80241  25.710  44.839   0.333
 7174W        W80242  24.539  26.747  13.705
 7175W        W80243  13.274  33.421   2.875
 7176W        W80244  15.826  22.804   1.059
 7177W        W80245  25.585  40.731  14.555
 7178W        W80246   4.471  20.661   2.398
 7179W        W80247  36.405   8.088  14.491
 7180W        W80248  28.047  12.939  11.061
 7181W        W80249  20.683  22.769   4.582
 7182W        W80250  26.476   8.804   1.312
 7183W        W80251   9.514   0.731   0.898
 7184W        W80252  29.966   8.621  13.504
 7185W        W80253  24.640  22.120  13.065
 7186W        W80254  41.313  36.971   1.800
 7187W        W80255  42.210  22.982   0.931
 7188W        W80256  31.060  17.386  11.044
 7189W        W80257  20.275   4.894   2.347
 7190W        W80258  25.368  33.886  11.090
 7191W        W80259   9.815   5.360   3.156
 7192W        W80260   1.302  15.627   0.274
 7193W        W80261  34.309  16.427  11.574
 7194W        W80262  40.725  37.881   4.162
 7195W        W80263  23.940   9.234   4.101
 7196W        W80264   9.518  26.413   0.375
 7197W        W80265  11.803  13.352   3.126
 7198W        W80266   4.924  31.734   4.719
 7199W        W80267  37.485  11.978   0.668
 7200W        W80268  24.709  37.078  11.540
 7201W        W80269   3.635  10.315  12.532
 7202W        W80270  10.885  32.607  11.647
 7203W        W80271   7.720   6.406  12.923
 7204W        W80272  26.955  18.752   4.859
 7205W        W80273  39.383  40.075  13.994
 7206W        W80274  27.031  32.684  11.166
 7207W        W80275  37.202  41.557   3.190
 7208W        W80276   7.133  11.786  12.482
 7209W        W80277  26.408   1.176  11.971
 7210W        W80278  42.991  40.401  11.760
 7211W        W80279  39.026   8.151  14.225
 7212W        W80280   7.900  20.356   4.683
 7213W        W80281  11.386  16.645  10.944
 7214W        W80282   5.233   6.487   0.688
 7215W        W80283  15.496   7.717   1.110
 7216W        W80284   2.196  14.776   2.879
 7217W        W80285   2.900   9.878   2.630
 7218W        W80286  44.792  29.537   2.668
 7219W        W80287  15.620  26.215   1.730
 7220W        W80288   1.912  14.381   0.806
 7221W        W80289  10.669  34.311   0.693
 7222W        W80290  38.402  19.242  12.413
 7223W        W80291  41.554  34.042  14.860
 7224W        W80292   6.124  15.646  14.442
 7225W        W80293   6.804  33.886  11.214
 7226W        W80294  12.687  13.712   0.440
 7227W        W80295   6.348  43.276  14.958
 7228W        W80296   7.633  13.556  13.447
 7229W        W80297  13.853   5.311   0.037
 7230W        W80298  21.725  39.536   0.213
 7231W        W80299  38.962  20.236  13.356
 7232W        W80300  11.222  14.995  14.350
 7233W        W80301  34.982  39.517   3.656
 7234W        W80302  14.379  20.690   4.777
 7235W        W80303  27.738  10.645   1.462
 7236W        W80304  31.987   3.134  13.817
 7237W        W80305  14.679  26.718   0.233
 7238W        W80306  13.097  35.432  14.509
 7239W        W80307  32.424  24.713  12.853
 7240W        W80308  12.270  17.352   1.923
 7241W        W80309  13.940  24.426   0.579
 7242W        W80310  22.057  43.325   1.059
 7243W        W80311  10.118  39.035  12.649
 7244W        W80312   4.806  11.989  10.729
 7245W        W80313  39.525  39.044   0.802
 7246W        W80314  42.106  42.501  12.994
 7247W        W80315   2.450  10.246   4.462
 7248W        W80316  27.602  22.573   2.736
 7249W        W80317  26.969  19.292  11.106
 7250W        W80318  13.702   3.311   1.786
 7251W        W80319  35.902  14.751  11.160
 7252W        W80320  43.904  44.010   1.690
 7253W        W80321  32.150  15.199   4.043
 7254W        W80322  30.948  35.400   2.133
 7255W        W80323  17.284  41.808   1.672
 7256W        W80324  28.454  14.309   2.784
 7257W        W80325  34.756  19.071  12.956
 7258W        W80326   0.436   9.910  10.384
 7259W        W80327  18.017  13.427  11.057
 7260W        W80328  27.572  16.787   2.839
 7261W        W80329  27.629  19.131  13.231
 7262W        W80330  17.724  43.541  13.146
 7263W        W80331  43.450  41.390  13.927
 7264W        W80332   2.978  22.946   3.291
 7265W        W80333  25.903   9.886  12.064
 7266W        W80334  39.832  37.487  14.047
 7267W        W80335  33.086  30.354  14.339
 7268W        W80336   2.195   3.662   2.178
 7269W        W80337  43.312  26.151   4.643
 7270W        W80338  23.492  33.142  10.762
 7271W        W80339   7.288  40.438  14.796
 7272W        W80340  38.839  37.967  10.457
 7273W        W80341  41.602   5.324  11.512
 7274W        W80342  44.002  43.399  13.027
 7275W        W80343  38.889  30.638   1.200
 7276W        W80344  28.206  21.593   4.162
 7277W        W80345  10.790  24.686   0.955
 7278W        W80346  37.828  19.515  13.965
 7279W        W80347  13.124  19.778   0.432
 7280W        W80348   5.393   0.879   3.267
 7281W        W80349  18.092  32.392   1.375
 7282W        W80350  44.769  24.565   0.801
 7283W        W80351  25.017  27.280   0.924
 7284W        W80352  15.218  34.298  10.746
 7285W        W80353  34.531  39.979   2.179
 7286W        W80354  14.689  42.052  12.146
 7287W        W80355  20.640  14.819  10.711
 7288W        W80356  25.164  10.667   2.604
 7289W        W80357  25.909  12.140   0.921
 7290W        W80358  37.152  26.552  11.584
 7291W        W80359   6.313   3.369   4.642
 7292W        W80360   0.225  41.354  11.179
 7293W        W80361  16.216  37.884   3.598
 7294W        W80362   9.310  15.743   3.584
 7295W        W80363   7.221  37.038   2.729
 7296W        W80364   7.835  37.586  11.951
 7297W        W80365  17.592  13.080  12.968
 7298W        W80366  41.690  11.600  11.677
 7299W        W80367   0.519  23.098   3.207
 7300W        W80368  21.139  24.964  12.016
 7301W        W80369  11.816  19.004   3.632
 7302W        W80370  43.754  41.953   0.796
 7303W        W80371  15.538  15.632  13.101
 7304W        W80372  18.616  23.890   2.691
 7305W        W80373  22.035  27.715   4.611
 7306W        W80374  41.379  38.955   1.633
 7307W        W80375  40.899  27.456  13.021
 7308W        W80376  22.556  18.129  11.650
 7309W        W80377  23.826  39.453   3.183
 7310W        W80378  21.069   6.430  13.395
 7311W        W80379  33.569  14.018   2.364
 7312W        W80380  25.907   4.434   4.545
 7313W        W80381  36.709   9.709   1.995
 7314W        W80382  15.076  17.563  10.657
 7315W        W80383  36.047  10.254  12.952
 7316W        W80384   3.457  39.224   2.868
 7317W        W80385  19.866   7.791   1.771
 7318W        W80386  11.870  11.818  10.471
 7319W        W80387  24.698  33.262  11.542
 7320W        W80388   0.536  25.485  11.454
 7321W        W80389  38.259  10.849  10.298
 7322W        W80390   9.832  11.407  11.214
 7323W        W80391  11.393  39.842  10.786
 7324W        W80392   6.457   7.072   0.831
 7325W        W80393  41.949  33.011  14.272
 7326W        W80394  41.229  32.880  11.052
 7327W        W80395  31.938   9.124   2.097
 7328W        W80396  30.010  10.059  13.405
 7329W        W80397   7.226  18.119  14.538
 7330W        W80398  18.684  12.362  14.367
 7331W        W80399   5.300  19.317  10.639
 7332W        W80400  43.257   7.912  13.132
 7333W        W80401  30.636  14.165   1.737
 7334W        W80402  18.475   7.308   4.928
 7335W        W80403  26.048  12.294   2.694
 7336W        W80404  30.701  32.352  14.288
 7337W        W80405  15.612  27.095  14.420
 7338W        W80406   2.495   0.520  14.876
 7339W        W80407  40.269  15.658  12.879
 7340W        W80408  31.449  18.331   1.257
 7341W        W80409   1.254  37.992  14.840
 7342W        W80410  18.600  20.979  13.735
 7343W        W80411  37.345  35.515  10.647
 7344W        W80412   8.868  27.652  12.074
 7345W        W80413  23.481  11.356  10.889
 7346W        W80414  33.299   9.481   0.679
 7347W        W80415  22.512   4.613  14.762
 7348W        W80416   6.480  12.675  13.285
 7349W        W80417  27.442  10.252   1.698
 7350W        W80418  35.878  25.064  11.914
 7351W        W80419  38.522  23.650   1.252
 7352W        W80420  22.525   6.270  13.864
 7353W        W80421  20.304  16.095   2.739
 7354W        W80422  33.391  38.781  11.975
 7355W        W80423  11.624  27.020  13.021
 7356W        W80424   9.727   0.285  13.291
 7357W        W80425  37.360   2.724   4.671
 7358W        W80426  32.512  27.186   2.508
 7359W        W80427  13.136  17.364  10.029
 7360W        W80428   3.905  43.467   3.462
 7361W        W80429  30.733  36.388   4.819
 7362W        W80430   9.201  16.640  11.506
 7363W        W80431  22.503  30.715  13.414
 7364W        W80432   0.459  22.677   4.652
 7365W        W80433  25.469  44.302   2.668
 7366W        W80434  36.397  31.391  14.306
 7367W        W80435  39.787  33.103   0.760
 7368W        W80436  18.617  17.792   1.183
 7369W        W80437  11.233  18.715  10.766
 7370W        W80438  13.296  30.823  10.412
 7371W        W80439  17.103  13.126  11.461
 7372W        W80440  22.588  16.973   3.189
 7373W        W80441  19.264  23.114   3.600
 7374W        W80442  15.104  34.055  11.186
 7375W        W80443   6.670  36.903  10.827
 7376W        W80444  13.363  26.021   0.856
 7377W        W80445  19.112  29.840   3.615
 7378W        W80446  22.386  38.526   3.275
 7379W        W80447  39.887   3.263   1.366
 7380W        W80448  21.340  15.333   2.777
 7381W        W80449  32.377  36.730  13.865
 7382W        W80450  20.729   4.821  10.893
 7383W        W80451   5.744  34.572  13.031
 7384W        W80452  23.163  14.223  14.441
 7385W        W80453  17.156  16.692  12.100
 7386W        W80454  11.123  12.455   4.230
 7387W        W80455  19.732   6.830   1.332
 7388W        W80456   0.901  40.539  13.140
 7389W        W80457  13.009  14.589   3.624
 7390W        W80458  37.115  10.404  10.860
 7391W        W80459  30.838  27.611  12.980
 7392W        W80460  33.508  10.665  13.050
 7393W        W80461  12.641  22.114   0.297
 7394W        W80462   4.878  34.619  13.893
 7395W        W80463   1.434   8.471   1.948
 7396W        W80464  32.857  14.731  13.544
 7397W        W80465   7.006  38.413   2.167
 7398W        W80466  42.302   9.812   0.737
 7399W        W80467  31.408  26.566  14.316
 7400W        W80468  20.045  24.094   4.740
 7401W        W80469  13.731   8.386  11.815
 7402W        W80470   4.699   3.843  12.910
 7403W        W80471  44.737  31.397  13.777
 7404W        W80472   9.046  10.188  11.974
 7405W        W80473  20.194  26.685  13.076
 7406W        W80474  16.150  16.386   1.761
 7407W        W80475  36.198  19.663   2.790
 7408W        W80476  31.021   7.396  12.611
 7409W        W80477  23.733  28.623   1.266
 7410W        W80478  16.724  30.147   3.291
 7411W        W80479  10.466   6.345  12.572
 7412W        W80480   8.740   3.933  10.956
 7413W        W80481  30.532  23.037  11.584
 7414W        W80482  31.680  38.214  11.227
 7415W        W80483  27.838  44.472   0.786
 7416W        W80484  27.613  42.872   0.710
 7417W        W80485  26.387  43.073   3.620
 7418W        W80486  12.819  11.760  14.280
 7419W        W80487  23.833  11.477   0.157
 7420W        W80488   6.922  10.229   1.883
 7421W        W80489   9.162  11.246   3.630
 7422W        W80490  23.706  25.064   2.086
 7423W        W80491   0.904  22.734  10.453
 7424W        W80492  43.055  32.953  12.393
 7425W        W80493   7.918  40.836  11.500
 7426W        W80494  26.922  30.582  14.861
 7427W        W80495  15.172  25.245   3.712
 7428W        W80496  14.810  31.476   1.886
 7429W        W80497  21.672  10.496  14.776
 7430W        W80498  15.950  20.464   9.901
 7431W        W80499  21.029  30.413   3.591
 7432W        W80500  18.840   1.860  11.128
 7433W        W80501  33.587  44.727   2.800
 7434W        W80502  32.952  11.106   1.842
 7435W        W80503  30.580  44.752   0.034
 7436W        W80504  10.435  30.958  14.316
 7437W        W80505  27.486  19.810  13.571
 7438W        W80506  38.940  34.703   3.136
 7439W        W80507   6.855  23.584   3.679
 7440W        W80508  43.842  12.622   4.220
 7441W        W80509  21.284  36.107  10.760
 7442W        W80510  23.257  33.765   1.232
 7443W        W80511   6.751  13.212  11.157
 7444W        W80512  44.294  23.773   3.333
 7445W        W80513  17.784  37.869   3.288
 7446W        W80514  43.303  28.695  11.918
 7447W        W80515  40.987  17.188   0.763
 7448W        W80516  21.589  19.789  12.547
 7449W        W80517  11.162  29.430   4.141
 7450W        W80518  19.295  33.973   2.484
 7451W        W80519  27.061  18.148   3.442
 7452W        W80520  11.826  20.542   1.386
 7453W        W80521  40.575  12.389   3.260
 7454W        W80522  17.656   8.007   2.361
 7455W        W80523   7.360  37.575  11.547
 7456W        W80524  25.175  13.767  12.800
 7457W        W80525  16.302  17.314  14.919
 7458W        W80526  12.765  17.073  11.680
 7459W        W80527   8.168  33.187  13.714
 7460W        W80528  44.803  35.922   0.553
 7461W        W80529  33.612  31.542  10.254
 7462W        W80530  44.326  32.589  11.510
 7463W        W80531  36.440  14.586  14.388
 7464W        W80532  30.301  17.564  11.303
 7465W        W80533   1.069  24.753  11.202
 7466W        W80534  38.358  36.842   3.111
 7467W        W80535  10.154  22.248  14.357
 7468W        W80536  40.910  30.020   0.933
 7469W        W80537  43.466  35.590   3.664
 7470W        W80538  43.788  34.911   1.794
 7471W        W80539  10.942  29.013  11.461
 7472W        W80540  26.951  29.990  11.132
 7473W        W80541  27.991  21.506   3.283
 7474W        W80542  37.085   4.916  13.002
 7475W        W80543  41.057   2.741  12.029
 7476W        W80544  31.121  10.256   9.770
 7477W        W80545  12.757  31.874   1.919
 7478W        W80546  34.605  16.520   2.334
 7479W        W80547  25.997  40.502  12.672
 7480W        W80548  38.188  18.064  12.332
 7481W        W80549   6.736  16.281   1.833
 7482W        W80550  44.441  17.352   5.292
 7483W        W80551  17.155  32.055  14.969
 7484W        W80552  34.091  39.395  11.655
 7485W        W80553  29.511   0.465  13.778
 7486W        W80554  44.510  44.863   1.091
 7487W        W80555  42.032   1.719   1.722
 7488W        W80556  34.468  34.468   5.042
 7489W        W80557  38.786  25.020  12.524
 7490W        W80558  10.135  41.296  14.196
 7491W        W80559   6.690   5.530   2.847
 7492W        W80560   0.430  15.606   0.151
 7493W        W80561  32.631   2.692   2.256
 7494W        W80562  33.368  19.243   4.731
 7495W        W80563  44.512  37.561  13.967
 7496W        W80564  32.455  31.135  12.433
 7497W        W80565   3.509  34.104  14.465
 7498W        W80566  16.883  36.882   1.336
 7499W        W80567  15.847  30.954  11.439
 7500W        W80568   5.164  31.534  11.561
 7501W        W80569   6.485  10.823   2.252
 7502W        W80570  41.378  37.437   2.445
 7503W        W80571   4.168  13.172   0.894
 7504W        W80572  34.341   0.840   1.852
 7505W        W80573   6.849  12.390  13.017
 7506W        W80574  30.988   6.965   3.039
 7507W        W80575  27.010  20.844   4.119
 7508W        W80576  18.093  33.076  13.645
 7509W        W80577   2.437   3.977  13.521
 7510W        W80578   6.659   0.496  13.622
 7511W        W80579  18.552  18.565  14.364
 7512W        W80580  12.599  14.287  10.329
 7513W        W80581  34.832  34.632  12.519
 7514W        W80582  15.659  20.735   1.765
 7515W        W80583  31.647   5.793  14.457
 7516W        W80584   7.151  18.263  12.082
 7517W        W80585  23.658  34.171   3.680
 7518W        W80586   8.777   8.344  11.313
 7519W        W80587   0.037  34.134  14.888
 7520W        W80588  17.570  15.320  13.400
 7521W        W80589   2.426  11.130   1.517
 7522W        W80590   3.708  43.726  11.502
 7523W        W80591  16.115  38.935  13.562
 7524W        W80592  39.817  36.981   0.328
 7525W        W80593   1.990  37.285  13.039
 7526W        W80594  27.335  30.484   0.959
 7527W        W80595  34.376   4.300   2.743
 7528W        W80596  27.447  16.667   0.262
 7529W        W80597  43.078  32.608   1.957
 7530W        W80598  16.248  25.593  13.968
 7531W        W80599  12.587  21.039  12.915
 7532W        W80600  18.531  26.086   3.683
 7533W        W80601  22.825   8.129  11.534
 7534W        W80602  20.146  23.560  12.244
 7535W        W80603  29.015   1.651  12.180
 7536W        W80604   9.174   6.725  11.492
 7537W        W80605  23.171  17.045  12.453
 7538W        W80606   6.706  34.342   0.905
 7539W        W80607  42.913  35.190   4.100
 7540W        W80608  18.644  36.746  13.888
 7541W        W80609   5.676  20.085  10.632
 7542W        W80610   9.409  33.116  13.964
 7543W        W80611  39.488   2.047   5.073
 7544W        W80612  36.257  12.591  11.081
 7545W        W80613   7.185  32.891  12.356
 7546W        W80614   5.721  30.385  13.394
 7547W        W80615  20.721  20.371   0.998
 7548W        W80616  18.215  27.452   4.791
 7549W        W80617  34.180  42.989   3.319
 7550W        W80618  40.362  39.548  14.859
 7551W        W80619  34.080  32.988  12.885
 7552W        W80620   4.402   4.795   0.300
 7553W        W80621  40.280  41.574   3.218
 7554W        W80622  12.228   3.709   4.629
 7555W        W80623  15.951   9.804  12.000
 7556W        W80624   8.699  42.625  14.711
 7557W        W80625  35.175  20.158  11.664
 7558W        W80626  35.661   0.271   2.894
 7559W        W80627  20.320  34.369   0.258
 7560W        W80628  36.587   7.167   2.335
 7561W        W80629   8.662   8.884   3.364
 7562W        W80630  32.664  35.504   2.855
 7563W        W80631  29.059  24.623   3.674
 7564W        W80632  30.382  29.498   4.563
 7565W        W80633  36.003   7.351  13.664
 7566W        W80634  36.838  23.521   4.226
 7567W        W80635  13.046   6.890  13.768
 7568W        W80636  17.367  41.492   2.609
 7569W        W80637  10.919  33.391  14.842
 7570W        W80638  26.374  26.650  14.423
 7571W        W80639  33.318   0.893  14.481
 7572W        W80640  21.779  24.603   0.927
 7573W        W80641  26.561   9.309  13.326
 7574W        W80642  31.330  21.728  12.953
 7575W        W80643   4.719  10.180   1.409
 7576W        W80644  19.148  39.771  13.149
 7577W        W80645   0.711  13.383  14.573
 7578W        W80646  17.131  18.072   1.498
 7579W        W80647  23.134  29.982  10.717
 7580W        W80648   9.456  11.744  14.554
 7581W        W80649  42.765  38.995   2.826
 7582W        W80650   8.133  18.696   0.188
 7583W        W80651  17.051  31.211   0.431
 7584W        W80652  41.597  39.546   0.258
 7585W        W80653  11.268  18.757   0.232
 7586W        W80654  25.143  42.780   4.327
 7587W        W80655  26.796  19.679   4.705
 7588W        W80656  41.583  32.158   3.037
 7589W        W80657  39.046   3.804   1.704
 7590W        W80658   7.158  41.217   3.743
 7591W        W80659  33.015  25.968   2.663
 7592W        W80660  39.453  13.641  11.050
 7593W        W80661  38.331  25.861  13.451
 7594W        W80662  19.848  41.175   2.891
 7595W        W80663  25.192  28.167  12.033
 7596W        W80664  28.019  22.042  13.815
 7597W        W80665  23.964   1.848  11.130
 7598W        W80666  33.585  34.014   0.753
 7599W        W80667  24.622   2.875   0.889
 7600W        W80668  12.272  26.501  11.049
 7601W        W80669  16.439  32.487  13.887
 7602W        W80670  23.632  23.340   2.357
 7603W        W80671   3.025   5.382  12.014
 7604W        W80672   0.061  40.743  13.293
 7605W        W80673  43.703  23.067   4.965
 7606W        W80674  27.516  16.713  10.594
 7607W        W80675  24.014  19.745   1.955
 7608W        W80676  37.937  37.544  12.744
 7609W        W80677   5.640  28.575  14.114
 7610W        W80678  32.375  35.642   3.249
 7611W        W80679   6.169  30.901  13.768
 7612W        W80680  24.130   0.851  11.920
 7613W        W80681  14.975  10.958  12.601
 7614W        W80682   3.951  33.996   0.814
 7615W        W80683  35.092  29.534   0.849
 7616W        W80684   8.266  39.406  11.100
 7617W        W80685  33.791  17.502   1.829
 7618W        W80686   5.296  31.905   1.233
 7619W        W80687   7.245  19.038  11.442
 7620W        W80688  40.838   8.393   4.653
 7621W        W80689  22.035  34.866   3.092
 7622W        W80690  24.074  44.347   4.572
 7623W        W80691   8.678  36.747  11.186
 7624W        W80692  39.631  10.914   1.711
 7625W        W80693  22.984  21.164  10.652
 7626W        W80694   4.949  29.683  13.466
 7627W        W80695  41.526  40.891   4.960
 7628W        W80696  28.071  30.663   2.690
 7629W        W80697  20.546  39.358  11.469
 7630W        W80698  19.270  15.276  12.847
 7631W        W80699  26.609  23.565  10.744
 7632W        W80700  35.411  12.561  13.357
 7633W        W80701  31.020  43.788   2.325
 7634W        W80702  15.818  20.575   2.265
 7635W        W80703  15.173   8.426  13.054
 7636W        W80704  41.364  26.930   3.331
 7637W        W80705  15.350  18.174  14.556
 7638W        W80706  17.523   0.732   1.681
 7639W        W80707  40.454   3.575   3.714
 7640W        W80708  24.447  36.295  11.692
 7641W        W80709  31.593  37.494  13.000
 7642W        W80710   9.791  15.819   3.359
 7643W        W80711  29.967  32.574  13.076
 7644W        W80712  10.670  23.721  12.789
 7645W        W80713  14.587  43.034  12.633
 7646W        W80714  13.873   3.486   4.134
 7647W        W80715  21.254  20.702  10.611
 7648W        W80716  18.708  39.029  12.052
 7649W        W80717   6.891   8.738  11.853
 7650W        W80718  18.103  21.049   4.586
 7651W        W80719  29.625  13.848   3.180
 7652W        W80720  16.784  27.806  12.909
 7653W        W80721  23.449  31.970   1.873
 7654W        W80722   1.920  39.917  11.169
 7655W        W80723   8.456  21.216  14.986
 7656W        W80724   5.188  30.557   2.855
 7657W        W80725  30.960  11.307   1.461
 7658W        W80726  37.176   8.902   3.438
 7659W        W80727  19.252  10.025  12.060
 7660W        W80728  15.653  43.425   4.132
 7661W        W80729  17.084  36.858   2.281
 7662W        W80730  30.897  16.594   2.225
 7663W        W80731  26.276  19.165   2.404
 7664W        W80732   7.090  17.614  13.193
 7665W        W80733  25.195  23.155  10.726
 7666W        W80734  17.587  37.498  10.215
 7667W        W80735  14.869  35.147  12.924
 7668W        W80736  42.303  37.894   4.265
 7669W        W80737   0.921  39.262   2.199
 7670W        W80738   5.963   9.242   3.192
 7671W        W80739  26.420  35.485  12.384
 7672W        W80740  33.023  34.117  12.064
 7673W        W80741  24.581  29.385  13.854
 7674W        W80742  28.313   4.225  11.574
 7675W        W80743  37.334   1.874  12.552
 7676W        W80744  10.121  13.749   0.483
 7677W        W80745  10.273  34.602  14.801
 7678W        W80746  31.566  32.360  12.410
 7679W        W80747  44.554  35.106   1.392
 7680W        W80748  28.105  43.488   2.668
 7681W        W80749  27.762   7.897  14.164
 7682W        W80750  13.541  25.339   2.756
 7683W        W80751  42.520  25.450  13.840
 7684W        W80752  41.808  24.019   1.401
 7685W        W80753  28.688  12.875   4.267
 7686W        W80754  20.324  37.835   4.271
 7687W        W80755  26.903  31.352  11.795
 7688W        W80756  35.265   1.817  14.925
 7689W        W80757  21.195  31.576  12.439
 7690W        W80758  34.611  23.165   1.429
 7691W        W80759  44.279   3.467   1.818
 7692W        W80760  32.667  28.412   0.961
 7693W        W80761  28.969  32.603   4.763
 7694W        W80762  40.287  10.344  14.334
 7695W        W80763   7.550  41.074   2.404
 7696W        W80764  38.891  16.846   2.227
 7697W        W80765   9.680  14.599  12.030
 7698W        W80766  32.428  14.247   3.143
 7699W        W80767  26.753  19.514   3.873
 7700W        W80768   8.239  41.587  11.140
 7701W        W80769  12.325  32.929  10.760
 7702W        W80770   2.389  10.176   4.993
 7703W        W80771  40.599  17.111   1.625
 7704W        W80772   7.590   1.938   2.589
 7705W        W80773  11.749  38.380   3.614
 7706W        W80774  26.337  41.566   2.856
 7707W        W80775  37.957  18.220  10.605
 7708W        W80776  27.728  14.747  14.462
 7709W        W80777  25.993  37.315   1.839
 7710W        W80778   0.784  40.953   4.052
 7711W        W80779  17.198  36.814   0.917
 7712W        W80780  11.728   4.315   4.379
 7713W        W80781  19.037  23.004  13.439
 7714W        W80782  28.728  17.603  12.546
 7715W        W80783   0.386  36.182   0.857
 7716W        W80784  28.219  14.701   3.213
 7717W        W80785  24.222  31.621  13.794
 7718W        W80786   6.353   5.442  14.864
 7719W        W80787  43.735  38.729   2.896
 7720W        W80788  40.518  29.033  10.717
 7721W        W80789  23.077  15.196   3.191
 7722W        W80790  36.582  12.331  11.384
 7723W        W80791  17.241  42.340  14.734
 7724W        W80792  40.724  36.964  11.001
 7725W        W80793  25.960  35.864   3.658
 7726W        W80794  13.427  19.582   1.699
 7727W        W80795  30.139  29.031  14.986
 7728W        W80796  41.612  23.994   0.948
 7729W        W80797  33.656  38.387   5.123
 7730W        W80798  44.984   1.478  13.906
 7731W        W80799  41.461  28.775  10.362
 7732W        W80800  40.331  23.185   0.783
 7733W        W80801  20.787   6.275  12.049
 7734W        W80802  33.450   7.769   0.639
 7735W        W80803  37.830  17.117  10.677
 7736W        W80804   5.932  16.048   2.195
 7737W        W80805   6.533  43.834  13.100
 7738W        W80806  38.255  39.431  12.581
 7739W        W80807  13.110  12.238   2.719
 7740W        W80808  11.670  22.917   5.068
 7741W        W80809  24.035   3.061  11.564
 7742W        W80810  25.436  34.945   1.273
 7743W        W80811   9.091  44.256   2.138
 7744W        W80812   0.796  38.568  10.331
 7745W        W80813  11.729  23.449  13.516
 7746W        W80814  14.702  18.069  13.940
 7747W        W80815  10.928   7.903  14.310
 7748W        W80816   1.379   8.082   3.266
 7749W        W80817  33.540  18.834   0.901
 7750W        W80818  43.851   4.130  13.436
 7751W        W80819  41.910  30.547   3.722
 7752W        W80820  23.951   5.862   0.234
 7753W        W80821  16.521  44.205  11.002
 7754W        W80822  24.446  29.879  11.173
 7755W        W80823  38.746   9.005   0.674
 7756W        W80824  39.290  19.656   4.501
 7757W        W80825  15.228  31.773   4.583
 7758W        W80826  26.995  15.819   3.744
 7759W        W80827   7.423  13.939   4.379
 7760W        W80828  44.215  10.114   2.667
 7761W        W80829  32.150  26.703  11.502
 7762W        W80830  34.586  22.495  11.173
 7763W        W80831  35.597   6.425  11.957
 7764W        W80832   1.286  35.059   2.694
 7765W        W80833   3.751  17.706  11.372
 7766W        W80834  43.411  25.528  10.717
 7767W        W80835  14.655  24.005  12.798
 7768W        W80836  32.058  39.282   0.700
 7769W        W80837  42.378   3.170   1.289
 7770W        W80838   5.324  23.736  12.826
 7771W        W80839   4.898  17.763  14.591
 7772W        W80840  34.553  39.351   3.382
 7773W        W80841  27.160  42.053  10.728
 7774W        W80842  11.167  22.828   4.751
 7775W        W80843  23.167  30.426   0.929
 7776W        W80844   7.860  31.679  10.872
 7777W        W80845  28.549  10.458   0.246
 7778W        W80846   7.330  36.053  12.460
 7779W        W80847   2.373   9.797  11.041
 7780W        W80848  42.418  26.826  11.095
 7781W        W80849  30.010   5.034  10.002
 7782W        W80850  25.953  26.443  13.828
 7783W        W80851   6.749  31.903   1.912
 7784W        W80852  35.961  27.019   4.140
 7785W        W80853  19.777  31.097  13.555
 7786W        W80854   2.774  35.638   0.273
 7787W        W80855  41.465  42.614   5.029
 7788W        W80856  10.424  35.691  12.001
 7789W        W80857  20.788  21.268  14.014
 7790W        W80858  44.260  12.870  13.489
 7791W        W80859  17.190   7.956   2.637
 7792W        W80860  21.202  28.561   3.332
 7793W        W80861  14.685  24.204  10.591
 7794W        W80862  16.098  11.128  12.034
 7795W        W80863  42.018  21.163  11.039
 7796W        W80864  15.600  43.259  13.991
 7797W        W80865   3.137  21.370  14.956
 7798W        W80866  28.454   7.682   3.711
 7799W        W80867  36.363  15.758   2.214
 7800W        W80868  37.467  34.430   2.377
 7801W        W80869  21.024  37.178  12.090
 7802W        W80870  40.898  20.240   4.902
 7803W        W80871   0.863  16.135  12.174
 7804W        W80872  35.925  10.609  12.559
 7805W        W80873  24.930  18.328  12.873
 7806W        W80874  23.030  14.397  13.969
 7807W        W80875   4.846  30.956  10.614
 7808W        W80876   8.645  31.180  11.847
 7809W        W80877  34.415   9.872  11.199
 7810W        W80878   5.220   6.954   1.902
 7811W        W80879  41.349  21.198  13.327
 7812W        W80880  31.573  32.180   0.915
 7813W        W80881  12.589  18.018   0.168
 7814W        W80882   4.909  11.342  13.982
 7815W        W80883  23.985   6.666   0.718
 7816W        W80884   3.692   2.821  11.896
 7817W        W80885  40.674  21.905   0.285
 7818W        W80886  38.026  15.064  12.001
 7819W        W80887  17.198  22.282   3.697
 7820W        W80888  18.739  29.227   2.226
 7821W        W80889  19.389  12.125   2.913
 7822W        W80890  35.731  37.530  12.095
 7823W        W80891  42.400   7.396   4.352
 7824W        W80892  18.534  14.985  14.335
 7825W        W80893   9.889  19.043   3.366
 7826W        W80894   0.134  31.962   0.744
 7827W        W80895  23.162  27.945   2.473
 7828W        W80896   1.285  34.801  14.827
 7829W        W80897  26.547  32.061   1.939
 7830W        W80898   7.635  33.479   5.007
 7831W        W80899  26.527   8.717   0.360
 7832W        W80900  40.010   5.211   2.175
 7833W        W80901  30.506   0.535  14.529
 7834W        W80902  16.955  12.303  12.932
 7835W        W80903  35.404  10.348   1.366
 7836W        W80904   7.463  11.941   2.304
 7837W        W80905  14.621  12.243   3.170
 7838W        W80906  26.603  18.791   4.461
 7839W        W80907  11.810  22.760  13.851
 7840W        W80908  21.596   8.492   3.198
 7841W        W80909  22.202   6.540   2.537
 7842W        W80910  38.912  24.234   2.874
 7843W        W80911   7.657  22.222  12.442
 7844W        W80912  36.552   3.623   2.295
 7845W        W80913  27.886  19.812   0.386
 7846W        W80914  12.801  10.406   3.282
 7847W        W80915  37.561  21.964  11.903
 7848W        W80916  20.918   3.852   3.755
 7849W        W80917  31.513   6.640   3.332
 7850W        W80918  28.436  38.101   3.155
 7851W        W80919  11.757  22.257  13.952
 7852W        W80920   5.632  30.637   0.684
 7853W        W80921   0.355  27.175   0.307
 7854W        W80922  18.592   0.706  11.682
 7855W        W80923  13.150  34.374   5.045
 7856W        W80924   8.359   5.910  14.007
 7857W        W80925   4.884   3.367  10.997
 7858W        W80926  20.829  20.685  10.924
 7859W        W80927  38.318  38.393   1.914
 7860W        W80928  35.711  20.952   4.813
 7861W        W80929   4.726  32.606  14.112
 7862W        W80930  10.598  14.139  10.949
 7863W        W80931  24.196  11.328  11.564
 7864W        W80932  40.623   3.260  11.072
 7865W        W80933  30.958  28.915   3.368
 7866W        W80934  18.981  15.631  10.281
 7867W        W80935  21.989  14.245  12.675
 7868W        W80936   7.790  40.071  10.851
 7869W        W80937   8.475  34.138  11.902
 7870W        W80938   4.791  11.618   0.351
 7871W        W80939  31.073  15.863   1.945
 7872W        W80940  20.286  35.413  14.762
 7873W        W80941   1.555   0.389   0.823
 7874W        W80942   0.487  28.515   0.967
 7875W        W80943  12.400  41.593   2.842
 7876W        W80944  38.556  15.640  11.168
 7877W        W80945  43.926   3.284  11.576
 7878W        W80946   3.290  23.426   2.679
 7879W        W80947  17.290  33.890   0.729
 7880W        W80948  41.086  34.023  10.446
 7881W        W80949   8.638  44.387   4.689
 7882W        W80950  37.991   9.457   4.518
 7883W        W80951   8.850   4.799   5.026
 7884W        W80952  26.838  10.432  13.961
 7885W        W80953  22.572  37.145  11.378
 7886W        W80954  18.018  35.585   3.073
 7887W        W80955   7.214  27.967  12.353
 7888W        W80956   8.286   0.563   0.763
 7889W        W80957  39.159  27.975  12.547
 7890W        W80958  17.517  36.680  11.465
 7891W        W80959  19.637  19.322   3.802
 7892W        W80960  19.424  42.995  14.885
 7893W        W80961  34.074  36.768   0.429
 7894W        W80962   4.809  35.069   4.597
 7895W        W80963   0.387  14.899  14.370
 7896W        W80964  42.985   5.913   2.339
 7897W        W80965  24.660  24.584   1.436
 7898W        W80966  18.888  41.527   0.917
 7899W        W80967  38.389  41.646   3.971
 7900W        W80968   2.518   9.766   1.276
 7901W        W80969  11.047   7.518  10.947
 7902W        W80970   2.252  41.760   0.808
 7903W        W80971  39.921   3.712  14.764
 7904W        W80972  42.374  20.710  12.419
 7905W        W80973   3.739  24.136   4.971
 7906W        W80974  19.478  11.209  13.985
 7907W        W80975   8.045  30.855  11.108
 7908W        W80976  44.450  39.936   4.193
 7909W        W80977  18.289   9.343  13.930
 7910W        W80978  25.204   8.408   0.482
 7911W        W80979  35.011  18.764  10.682
 7912W        W80980  11.480  29.646   1.893
 7913W        W80981   9.711  21.013   4.602
 7914W        W80982   1.762  16.730   0.238
 7915W        W80983  42.433  20.509   1.044
 7916W        W80984   7.420   7.193   3.070
 7917W        W80985   4.471   7.795  12.042
 7918W        W80986  13.783  43.132   1.301
 7919W        W80987  39.894  37.935   2.933
 7920W        W80988   1.332  15.834   4.135
 7921W        W80989  30.234  37.189  14.353
 7922W        W80990  34.348  36.053  14.044
 7923W        W80991  15.510  28.979   0.614
 7924W        W80992  39.987  18.752   2.390
 7925W        W80993  36.063  20.513   1.780
 7926W        W80994  27.840  29.227   4.763
 7927W        W80995  14.557   0.897  12.535
 7928W        W80996  25.411  15.546   1.390
 7929W        W80997  43.466   6.254  11.563
 7930W        W80998  11.854  41.707  14.344
 7931W        W80999   2.763   4.559   2.352
 7932W        W81000  36.470  29.014   0.919
 7933W        W81001  44.376  24.481   4.127
 7934W        W81002  25.417  40.770   0.399
 7935W        W81003  28.591  13.545   1.328
 7936W        W81004  26.218  13.442  14.797
 7937W        W81005  13.313  23.223   1.453
 7938W        W81006  32.389  44.443  10.704
 7939W        W81007   9.711   1.207  13.793
 7940W        W81008  23.481  30.405   3.215
 7941W        W81009   7.932  35.295  13.815
 7942W        W81010   4.365  13.392   3.099
 7943W        W81011  25.399   0.770   0.320
 7944W        W81012  16.150  17.332   2.861
 7945W        W81013   4.481  24.710   4.131
 7946W        W81014  38.088  24.381  13.807
 7947W        W81015  43.647  37.115   3.861
 7948W        W81016  33.481  14.350  13.036
 7949W        W81017  11.329  30.170   1.332
 7950W        W81018  29.521  10.673  13.638
 7951W        W81019  35.322  21.995   0.300
 7952W        W81020  17.272  20.569  10.421
 7953W        W81021   5.146  38.636   3.232
 7954W        W81022   7.824  37.546  14.810
 7955W        W81023  15.725  43.388   2.108
 7956W        W81024  32.929  21.788  13.523
 7957W        W81025  15.862   2.364   4.304
 7958W        W81026  22.755  44.221   1.823
 7959W        W81027  33.012  24.196  12.661
 7960W        W81028   1.682  21.010   0.901
 7961W        W81029  15.311  35.035  14.777
 7962W        W81030   1.813  40.426  11.086
 7963W        W81031  13.585  16.336  13.820
 7964W        W81032  40.803  11.756   2.294
 7965W        W81033  42.702  43.690  13.179
 7966W        W81034  32.113  31.937   3.583
 7967W        W81035   4.194  13.831  10.653
 7968W        W81036  26.048  24.099  12.822
 7969W        W81037  38.494   8.630  10.428
 7970W        W81038  44.852   1.365   1.712
 7971W        W81039   7.129   2.648  14.484
 7972W        W81040  34.489  37.787   4.998
 7973W        W81041  10.145   3.498  12.019
 7974W        W81042  35.996  20.274  11.586
 7975W        W81043  27.120  14.339  10.760
 7976W        W81044  20.745   4.817  13.837
 7977W        W81045   5.091  32.613   0.024
 7978W        W81046  15.025  43.848  12.682
 7979W        W81047  36.411  16.231   2.431
 7980W        W81048  44.294  40.354  12.138
 7981W        W81049  16.268  12.151  10.801
 7982W        W81050  17.029  34.473  14.424
 7983W        W81051   0.248  19.858   2.830
 7984W        W81052  12.578  19.882  12.235
 7985W        W81053  39.447  27.945   1.890
 7986W        W81054   2.245   6.798  12.386
 7987W        W81055  17.577  20.357   1.236
 7988W        W81056  31.782  10.210  11.684
 7989W        W81057   6.740  40.689  11.547
 7990W        W81058  34.322  25.539  12.524
 7991W        W81059  18.005  22.035  12.196
 7992W        W81060  44.291   2.386   2.284
 7993W        W81061  19.697  39.507   1.366
 7994W        W81062  38.891   7.937  10.012
 7995W        W81063  23.408  10.239   0.134
 7996W        W81064   2.204  17.915   4.041
 7997W        W81065  26.995   8.981  11.152
 7998W        W81066  40.467  28.111   1.468
 7999W        W81067   4.751  10.306  13.517
 8000W        W81068  40.318  15.653   4.672
 8001W        W81069  11.032  33.369  11.948
 8002W        W81070  36.617   0.281  10.545
 8003W        W81071  35.635  20.303  13.997
 8004W        W81072  41.064   7.727   2.639
 8005W        W81073  19.135  28.524   4.169
 8006W        W81074  44.849   1.607  14.883
 8007W        W81075  17.660  41.009  12.125
 8008W        W81076  18.896  19.251  11.020
 8009W        W81077  15.114  40.265   2.776
 8010W        W81078  10.872  11.817  10.697
 8011W        W81079  17.173  41.491  10.130
 8012W        W81080  28.302   9.612  12.415
 8013W        W81081  30.003  39.091   1.959
 8014W        W81082  43.962  17.267  12.551
 8015W        W81083  30.733  39.328  14.040
 8016W        W81084   6.132  18.640   2.301
 8017W        W81085  38.885  30.505  14.221
 8018W        W81086  25.904  44.765  12.941
 8019W        W81087  41.577  17.361  13.440
 8020W        W81088   1.202  24.025   2.847
 8021W        W81089   9.708  15.401   4.272
 8022W        W81090  40.704  30.015   1.457
 8023W        W81091  22.464  18.684  14.346
 8024W        W81092  33.775   8.667   4.000
 8025W        W81093  36.031  11.092   3.657
 8026W        W81094   6.851  21.777  12.844
 8027W        W81095  29.088   0.286   2.449
 8028W        W81096  37.896  15.703   4.048
 8029W        W81097  11.286  27.596   0.929
 8030W        W81098   8.253  14.429   2.197
 8031W        W81099  19.166  25.571  10.758
 8032W        W81100  17.026  27.570  11.656
 8033W        W81101  42.257  41.558  12.952
 8034W        W81102  29.837  44.981  14.886
 8035W        W81103  44.996   9.438   3.571
 8036W        W81104   5.986   8.705  11.678
 8037W        W81105  24.693  41.446   2.363
 8038W        W81106  13.417  44.351   2.281
 8039W        W81107   3.334  28.074   0.130
 8040W        W81108  19.587  23.551  10.310
 8041W        W81109  42.741  23.605   2.445
 8042W        W81110  35.110  25.747  11.183
 8043W        W81111  14.818  28.047  14.738
 8044W        W81112  43.471  28.545   2.185
 8045W        W81113  33.807  31.913   1.410
 8046W        W81114  39.309  21.140   0.905
 8047W        W81115   5.005  13.494  11.018
 8048W        W81116  21.785  27.084   0.045
 8049W        W81117  12.679  43.724   3.326
 8050W        W81118   1.594   4.278   0.598
 8051W        W81119  31.952  35.316   2.362
 8052W        W81120  42.665  39.371  14.710
 8053W        W81121   7.430  34.561   0.471
 8054W        W81122  18.239  24.825  11.143
 8055W        W81123  30.949  33.030  10.739
 8056W        W81124   1.639  32.841   4.549
 8057W        W81125  39.399  20.526   1.790
 8058W        W81126  33.267  11.295  10.692
 8059W        W81127   8.240  16.779  13.117
 8060W        W81128   1.976   7.176  13.456
 8061W        W81129  37.142  35.529   1.665
 8062W        W81130  24.022   7.723  11.184
 8063W        W81131  37.292  41.019  10.742
 8064W        W81132  42.825  18.154  14.748
 8065W        W81133  32.208  37.465   0.916
 8066W        W81134  12.481  32.295   1.273
 8067W        W81135  39.133  42.889   0.742
 8068W        W81136  30.699   5.261   2.299
 8069W        W81137  16.133   4.844   4.560
 8070W        W81138   7.891  14.363  11.479
 8071W        W81139   6.313   1.484  11.114
 8072W        W81140  15.540   6.465  12.018
 8073W        W81141  11.536  33.397   4.237
 8074W        W81142  12.774  16.316  11.966
 8075W        W81143  12.858  12.424   3.134
 8076W        W81144  32.992  28.523  11.162
 8077W        W81145  28.368   2.579  11.122
 8078W        W81146  24.444  21.611  13.319
 8079W        W81147  42.047  38.740  12.607
 8080W        W81148  18.582  26.024   1.550
 8081W        W81149  34.692  29.113  10.688
 8082W        W81150  41.704  26.546   0.287
 8083W        W81151  44.981  31.866  11.244
 8084W        W81152  14.147   8.669   0.974
 8085W        W81153  18.768  41.930   2.600
 8086W        W81154  35.492  33.702  11.928
 8087W        W81155  17.550  16.263  10.961
 8088W        W81156  41.354  26.530   2.235
 8089W        W81157  28.888  44.623   0.788
 8090W        W81158  10.855  34.465   2.211
 8091W        W81159  35.380  35.800  13.064
 8092W        W81160  40.410  32.098   3.820
 8093W        W81161  20.625  22.236  14.937
 8094W        W81162   3.832  31.966   0.198
 8095W        W81163   9.529  26.300  10.716
 8096W        W81164  15.242   2.951   1.265
 8097W        W81165   8.670  14.528   3.057
 8098W        W81166  40.075  41.883   2.796
 8099W        W81167   7.134  18.723   2.491
 8100W        W81168  35.419  43.758   1.802
 8101W        W81169   8.793  22.895   4.357
 8102W        W81170   1.693   1.528  13.478
 8103W        W81171  39.931  31.544  14.401
 8104W        W81172  38.410   1.343  12.892
 8105W        W81173  10.801  20.066  10.326
 8106W        W81174  42.033  33.668  10.274
 8107W        W81175   3.788  44.459   4.390
 8108W        W81176  27.158   8.806  12.508
 8109W        W81177   8.346  29.217   3.295
 8110W        W81178  15.085  29.462  13.274
 8111W        W81179  18.178  26.446  14.987
 8112W        W81180  13.546  14.722  11.990
 8113W        W81181  20.532  28.017   2.113
 8114W        W81182  39.734  44.973   4.538
 8115W        W81183  12.737  25.012  11.523
 8116W        W81184  19.008   2.871   1.663
 8117W        W81185  15.161   6.167   1.684
 8118W        W81186  17.716  34.750  12.894
 8119W        W81187  17.012   8.095   4.030
 8120W        W81188  34.548  11.128  10.556
 8121W        W81189   6.134  27.011   3.663
 8122W        W81190  17.056  39.705  12.566
 8123W        W81191  26.551  21.245   5.278
 8124W        W81192   2.507  35.592  14.598
 8125W        W81193  15.889  17.143  14.563
 8126W        W81194  11.668  28.397  14.455
 8127W        W81195  16.680  23.288  12.426
 8128W        W81196  10.321  37.979  13.490
 8129W        W81197   7.458  28.871   2.972
 8130W        W81198  39.026  39.586   2.185
 8131W        W81199  31.548  20.018  14.223
 8132W        W81200  22.583  17.022  13.080
 8133W        W81201  11.992   2.122   4.187
 8134W        W81202  30.155  26.232   0.415
 8135W        W81203  43.509  39.852   0.628
 8136W        W81204  38.608  32.491   2.208
 8137W        W81205  22.983  32.437   3.674
 8138W        W81206   2.794   8.304   1.911
 8139W        W81207   9.387  18.595  10.479
 8140W        W81208  34.075   9.855   4.133
 8141W        W81209  37.374  31.073   3.500
 8142W        W81210  31.772  10.302   0.315
 8143W        W81211  18.539  14.041   2.036
 8144W        W81212  41.213   6.885  13.546
 8145W        W81213  31.393  10.906   2.208
 8146W        W81214   8.345  22.077   4.199
 8147W        W81215  37.490  12.280   2.836
 8148W        W81216  34.478  10.101  13.030
 8149W        W81217  26.398  28.023  12.926
 8150W        W81218  41.011  43.521   4.900
 8151W        W81219  10.029  36.978  11.421
 8152W        W81220  10.240  36.509  11.663
 8153W        W81221  34.988  15.024   0.883
 8154W        W81222   1.123  20.248   3.242
 8155W        W81223   4.380  26.705   0.806
 8156W        W81224  11.134  42.032   1.699
 8157W        W81225   0.021  44.937  12.492
 8158W        W81226  18.648  32.861  12.387
 8159W        W81227   0.215  13.756   4.788
 8160W        W81228  20.761  19.332  13.526
 8161W        W81229  26.197  25.068  12.536
 8162W        W81230  37.452  33.895   3.765
 8163W        W81231  31.371  44.670  11.046
 8164W        W81232   1.406  27.382  12.448
 8165W        W81233  29.919   4.033   0.669
 8166W        W81234  25.304  33.053   2.664
 8167W        W81235   9.707   4.734   4.523
 8168W        W81236  22.216   7.283  14.442
 8169W        W81237  23.975   4.753  14.337
 8170W        W81238   6.433  11.145  13.910
 8171W        W81239  31.627   6.797   4.652
 8172W        W81240   0.519   7.305   2.641
 8173W        W81241   3.676   6.009   0.862
 8174W        W81242   3.230  16.172  14.793
 8175W        W81243  27.450  35.296  14.011
 8176W        W81244   9.462  19.175   2.420
 8177W        W81245  11.268  16.544   3.655
 8178W        W81246  15.809  31.619  10.684
 8179W        W81247  27.125  32.562  13.952
 8180W        W81248  17.708   1.456   2.263
 8181W        W81249   9.343  18.121  12.431
 8182W        W81250   3.387  33.837  14.904
 8183W        W81251  33.648  13.034  12.594
 8184W        W81252  13.847   0.279   3.240
 8185W        W81253  38.381  32.104  13.029
 8186W        W81254  28.600  44.686   0.374
 8187W        W81255  34.065  13.125   0.390
 8188W        W81256  14.802  20.291   1.517
 8189W        W81257  40.973  19.797  14.546
 8190W        W81258   5.313  28.405   3.770
 8191W        W81259  13.324  27.572  14.207
 8192W        W81260  32.698  40.076  13.666
 8193W        W81261  14.242   3.660  10.741
 8194W        W81262  22.040  23.491   1.731
 8195W        W81263  23.048  19.526  13.003
 8196W        W81264  26.881   3.432   1.328
 8197W        W81265  29.155  20.269   4.594
 8198W        W81266   7.558  33.401  10.247
 8199W        W81267  10.207  27.990   1.496
 8200W        W81268  32.589  37.158  11.554
 8201W        W81269   7.385   0.897  10.583
 8202W        W81270  30.183  16.317  12.923
 8203W        W81271   3.144   5.820   4.534
 8204W        W81272  20.156  22.532  13.755
 8205W        W81273  35.933   6.920  13.400
 8206W        W81274   2.937  38.902   4.862
 8207W        W81275  14.282  17.257   4.344
 8208W        W81276  31.077  41.071  14.584
 8209W        W81277  29.695  38.403  13.648
 8210W        W81278   6.295   9.072   2.223
 8211W        W81279  39.461  38.557   3.726
 8212W        W81280  14.243  24.723   0.890
 8213W        W81281   6.042  40.962  11.652
 8214W        W81282  21.484  29.141  12.554
 8215W        W81283  19.332   7.703   1.884
 8216W        W81284  17.030  13.641   1.223
 8217W        W81285  10.063   0.029   2.692
 8218W        W81286  20.023  21.680  13.322
 8219W        W81287  19.780  39.491  10.208
 8220W        W81288  17.636   7.646  14.902
 8221W        W81289  36.285  33.144  13.080
 8222W        W81290  11.427  29.534   4.551
 8223W        W81291  25.453  20.681   3.193
 8224W        W81292  30.396  34.299  12.447
 8225W        W81293  41.866  36.866   0.944
 8226W        W81294  23.117  36.308   1.488
 8227W        W81295  12.810  10.753   4.522
 8228W        W81296  37.779  19.751   1.804
 8229W        W81297  29.907   2.468   1.212
 8230W        W81298  41.521   3.933   0.889
 8231W        W81299  12.787  27.267  13.477
 8232W        W81300  21.763   9.653   3.591
 8233W        W81301  42.431  21.970  10.993
 8234W        W81302  23.972  13.882   0.309
 8235W        W81303  17.980  33.608   3.771
 8236W        W81304   0.815  28.166  14.779
 8237W        W81305  29.121  29.131   1.407
 8238W        W81306  32.994   3.202   3.941
 8239W        W81307   1.869  26.510  12.474
 8240W        W81308  33.034   3.221   4.440
 8241W        W81309  31.821  42.187   2.820
 8242W        W81310  15.119   7.892   4.880
 8243W        W81311  12.720  12.628  12.651
 8244W        W81312  39.401  35.508   4.587
 8245W        W81313  21.601  41.177  14.782
 8246W        W81314  29.536  10.138   0.480
 8247W        W81315  24.835  38.878  10.018
 8248W        W81316   7.277   9.068   2.221
 8249W        W81317  41.820  30.332  11.917
 8250W        W81318  13.733  13.675  11.141
 8251W        W81319  16.842  39.138   0.731
 8252W        W81320  12.267  40.358  13.526
 8253W        W81321  13.631   0.545  14.607
 8254W        W81322  35.483  38.610   3.753
 8255W        W81323  15.805  18.407  11.156
 8256W        W81324  10.633  37.985   3.778
 8257W        W81325   1.280  43.543   0.065
 8258W        W81326  31.621   7.811   4.520
 8259W        W81327   1.403  24.672   4.352
 8260W        W81328  21.099  41.281   2.845
 8261W        W81329  24.989   2.707   4.132
 8262W        W81330  21.461  29.591  10.737
 8263W        W81331  25.155   6.136   1.220
 8264W        W81332  13.171  32.469  12.206
 8265W        W81333   4.853   7.297   9.859
 8266W        W81334  26.567  16.549  11.187
 8267W        W81335  43.903   0.121   4.728
 8268W        W81336  12.793  30.356   4.619
 8269W        W81337   0.036  22.450  13.375
 8270W        W81338  26.682  14.027   2.375
 8271W        W81339  36.762  37.362  12.214
 8272W        W81340  18.385  13.701  10.798
 8273W        W81341  18.074  18.057   1.464
 8274W        W81342  14.241  23.095   4.827
 8275W        W81343   7.943  27.609   3.582
 8276W        W81344  39.413  18.495  13.322
 8277W        W81345  26.547  26.263   4.228
 8278W        W81346  14.766  37.561   0.738
 8279W        W81347   2.726  15.819  11.191
 8280W        W81348  25.697  36.908  13.471
 8281W        W81349  42.286  15.168   2.322
 8282W        W81350  19.123  19.338   2.152
 8283W        W81351  31.295  35.148  14.435
 8284W        W81352  38.654   4.735   4.079
 8285W        W81353  39.132   4.216   2.854
 8286W        W81354  43.802  36.050  10.630
 8287W        W81355  12.227   0.072  13.818
 8288W        W81356  15.164  11.797  12.998
 8289W        W81357  44.768  24.309   2.907
 8290W        W81358  21.144   6.306  12.882
 8291W        W81359  28.966  42.774  12.908
 8292W        W81360  20.044  20.037  12.017
 8293W        W81361   3.463   6.432   4.094
 8294W        W81362  28.116  28.889  11.170
 8295W        W81363  10.393  36.966   3.343
 8296W        W81364  12.179  36.471  14.556
 8297W        W81365  23.969  24.510   1.937
 8298W        W81366   0.857   0.073  14.553
 8299W        W81367  25.939  17.207   2.140
 8300W        W81368  19.226  16.940   1.979
 8301W        W81369   7.687  11.554   2.779
 8302W        W81370  33.785   8.128  13.057
 8303W        W81371   3.759  24.624   0.001
 8304W        W81372  30.271  24.978  14.528
 8305W        W81373  29.294  41.674   0.996
 8306W        W81374   8.171  13.748   2.009
 8307W        W81375  42.513  28.666  13.256
 8308W        W81376  25.515  12.795  10.903
 8309W        W81377  42.392  41.885  12.581
 8310W        W81378  23.205  34.622  11.890
 8311W        W81379  41.575  26.299   2.638
 8312W        W81380  32.637  14.173   2.675
 8313W        W81381  36.329  22.068  10.679
 8314W        W81382  29.546  20.325   0.817
 8315W        W81383  18.836   9.114  14.460
 8316W        W81384   5.309   3.196  13.496
 8317W        W81385   9.846  24.203  12.960
 8318W        W81386  31.152  35.965   4.870
 8319W        W81387  10.913   4.372   2.310
 8320W        W81388  28.413  40.382  14.791
 8321W        W81389   6.442  23.573  12.877
 8322W        W81390  12.103  36.898   3.769
 8323W        W81391   5.210  39.916  13.352
 8324W        W81392  27.116   8.410   4.384
 8325W        W81393  21.640  34.798   0.390
 8326W        W81394   9.060  32.563   4.638
 8327W        W81395  29.837  22.895   2.185
 8328W        W81396  44.391  41.417   2.050
 8329W        W81397  23.470   1.517  12.077
 8330W        W81398   9.760   6.422   1.022
 8331W        W81399  30.914  33.372   1.974
 8332W        W81400  25.520  28.995  11.413
 8333W        W81401  14.606  19.170  12.149
 8334W        W81402  44.781  17.807   2.157
 8335W        W81403  15.349  21.244   0.687
 8336W        W81404   5.346  14.824   0.904
 8337W        W81405  14.368  10.701  11.213
 8338W        W81406  26.708   3.983   2.227
 8339W        W81407  10.627  23.201  12.872
 8340W        W81408  34.779  33.519  12.982
 8341W        W81409  31.426  29.083   1.004
 8342W        W81410  15.723  21.105  10.663
 8343W        W81411  14.714  27.703  13.857
 8344W        W81412  30.170   1.240   4.513
 8345W        W81413  10.579  35.690  12.588
 8346W        W81414  34.337   1.986  10.699
 8347W        W81415   0.213   0.851  11.429
 8348W        W81416   6.633  10.738   2.748
 8349W        W81417   2.467   2.897   1.796
 8350W        W81418  28.513  22.196   2.164
 8351W        W81419  32.996   3.367  13.899
 8352W        W81420  32.412  16.301   4.651
 8353W        W81421  32.992  14.057  12.998
 8354W        W81422   4.322  36.366  13.776
 8355W        W81423   7.920  42.486   3.779
 8356W        W81424  13.284  24.575   1.805
 8357W        W81425   6.921  25.071   0.860
 8358W        W81426  13.901  10.506  11.275
 8359W        W81427  40.666  40.451   1.726
 8360W        W81428  40.039  15.442   3.615
 8361W        W81429  40.167  18.193  10.263
 8362W        W81430  31.166  13.179   4.715
 8363W        W81431  21.656  15.750   1.934
 8364W        W81432  40.992  22.494   4.630
 8365W        W81433  17.775  32.834  11.132
 8366W        W81434  36.883  39.345   3.740
 8367W        W81435  18.693  36.796  12.390
 8368W        W81436  13.080   5.885   1.420
 8369W        W81437   6.314   1.003   0.892
 8370W        W81438  23.808  31.938   2.727
 8371W        W81439  36.827  20.351  10.806
 8372W        W81440   1.889   1.827  14.010
 8373W        W81441   6.253  43.918   0.934
 8374W        W81442  17.746  15.281   3.210
 8375W        W81443   0.319   1.324   3.967
 8376W        W81444  16.060  23.133   2.880
 8377W        W81445  40.702   8.291  13.271
 8378W        W81446  41.851   2.599   5.121
 8379W        W81447  40.544   2.422  12.889
 8380W        W81448   6.928  22.504  12.102
 8381W        W81449  15.873  41.716   2.347
 8382W        W81450  15.622  11.900  13.853
 8383W        W81451  13.448  30.156   2.488
 8384W        W81452  26.528  20.310  13.949
 8385W        W81453  35.522   6.834  11.173
 8386W        W81454   0.479  16.336  13.813
 8387W        W81455  32.361  35.645   4.162
 8388W        W81456  39.085  10.223   1.716
 8389W        W81457  28.461  39.518   0.433
 8390W        W81458  30.769  11.599  11.960
 8391W        W81459  10.942   7.248  14.826
 8392W        W81460  14.071  40.884   4.256
 8393W        W81461  35.556  31.221   5.083
 8394W        W81462  24.761  31.419   2.427
 8395W        W81463   7.692  42.803  14.334
 8396W        W81464   9.669  21.501   3.807
 8397W        W81465  35.402  36.934  11.837
 8398W        W81466  44.084  42.761   2.727
 8399W        W81467  43.310  18.200  12.861
 8400W        W81468  34.464  44.462  13.506
 8401W        W81469  12.242  35.525   2.841
 8402W        W81470  32.380  12.586   2.226
 8403W        W81471  39.595  36.450  11.885
 8404W        W81472  30.470  37.058   1.461
 8405W        W81473  32.368  36.558   3.230
 8406W        W81474   7.608  11.934  13.980
 8407W        W81475  10.226  44.878  11.702
 8408W        W81476  16.209  28.609   4.659
 8409W        W81477  18.663  12.760  12.552
 8410W        W81478   5.406  24.115   1.811
 8411W        W81479  32.863   5.802   1.696
 8412W        W81480  12.100  44.837   1.756
 8413W        W81481   0.550  40.372   1.907
 8414W        W81482  36.946  41.412  14.943
 8415W        W81483  34.641  12.058  12.937
 8416W        W81484  42.349  36.176  12.004
 8417W        W81485  40.832  24.078   4.587
 8418W        W81486  18.657   3.778  10.719
 8419W        W81487  29.083  12.723  13.988
 8420W        W81488  39.934  12.009  14.772
 8421W        W81489  42.903  25.639  13.523
 8422W        W81490  33.440  36.979  11.131
 8423W        W81491  16.012  39.477  14.249
 8424W        W81492  30.363   9.409  11.381
 8425W        W81493   5.132  13.562  13.881
 8426W        W81494  26.096  41.819  13.079
 8427W        W81495  12.051   2.454  10.716
 8428W        W81496  36.355  31.933  11.989
 8429W        W81497  21.789  20.820   4.401
 8430W        W81498  20.998  29.435   1.381
 8431W        W81499   2.425  19.641  13.008
 8432W        W81500  15.654  15.203  11.217
 8433W        W81501  18.777   7.137  10.254
 8434W        W81502  33.052   0.146   1.543
 8435W        W81503  40.342  40.246  14.374
 8436W        W81504   2.670   1.863   4.990
 8437W        W81505  28.472  32.009   4.262
 8438W        W81506  36.805  37.967  10.691
 8439W        W81507  22.545  30.253   4.120
 8440W        W81508   4.322  16.613   2.398
 8441W        W81509  25.899   8.773  10.350
 8442W        W81510  21.633  29.008   2.690
 8443W        W81511  40.003  23.539   4.342
 8444W        W81512   5.357   1.516   2.701
 8445W        W81513  26.994  33.244  13.007
 8446W        W81514   6.336  43.728  13.561
 8447W        W81515  40.381  14.696   3.574
 8448W        W81516  28.777  25.699  13.935
 8449W        W81517  42.306   1.497  11.166
 8450W        W81518   2.929  19.644  13.118
 8451W        W81519   4.291  30.963   1.792
 8452W        W81520  39.826   3.047  13.440
 8453W        W81521  19.743  41.583   5.020
 8454W        W81522   1.724  28.304  12.853
 8455W        W81523  20.781  32.606   3.351
 8456W        W81524  17.513  42.921  11.635
 8457W        W81525   3.402  34.040   3.209
 8458W        W81526  16.350  32.474  14.912
 8459W        W81527  16.832  28.448   3.538
 8460W        W81528   4.975  42.792   0.939
 8461W        W81529  31.599  23.297   4.251
 8462W        W81530  21.781   2.216  14.773
 8463W        W81531  34.058  37.979   2.997
 8464W        W81532   3.644  15.120  12.953
 8465W        W81533   7.192  29.187   0.678
 8466W        W81534  12.586   5.489  14.534
 8467W        W81535  28.806  28.527  13.909
 8468W        W81536  22.433  40.471  11.588
 8469W        W81537  42.315  42.936   4.083
 8470W        W81538   3.703  24.395  14.371
 8471W        W81539   1.477  15.629  10.608
 8472W        W81540   5.293  26.510   3.659
 8473W        W81541  20.612  12.113   2.409
 8474W        W81542  31.975  26.041  12.147
 8475W        W81543   2.195  36.453   0.455
 8476W        W81544  30.676   8.311   1.265
 8477W        W81545  17.156  40.766   3.343
 8478W        W81546  38.493  27.888  11.606
 8479W        W81547  19.178  27.218   4.539
 8480W        W81548  16.493  11.784   4.629
 8481W        W81549  28.557  20.038  13.982
 8482W        W81550  28.340  21.179   5.079
 8483W        W81551  35.623   6.939   1.465
 8484W        W81552   9.810  28.846  10.998
 8485W        W81553  39.134  13.932   4.954
 8486W        W81554   8.041  35.070  12.622
 8487W        W81555  27.138   2.358   3.805
 8488W        W81556  24.621  28.091  12.502
 8489W        W81557   8.975  34.578  10.835
 8490W        W81558  44.785  15.080   0.961
 8491W        W81559  25.726  22.160   4.299
 8492W        W81560  16.368  41.678   1.667
 8493W        W81561   5.758   0.766  14.025
 8494W        W81562  23.862  26.521   4.266
 8495W        W81563   2.861  36.418  13.349
 8496W        W81564  16.768  15.538  13.521
 8497W        W81565   8.648  21.714   3.268
 8498W        W81566  38.880   6.365  13.761
 8499W        W81567  36.990  43.351   1.748
 8500W        W81568  41.162  12.744   0.498
 8501W        W81569  38.785  25.967   3.266
 8502W        W81570  23.232  37.052   0.719
 8503W        W81571  43.970  31.192   1.006
 8504W        W81572  41.307  22.705   0.975
 8505W        W81573   5.623  26.679  11.502
 8506W        W81574  42.952  30.411   0.367
 8507W        W81575   3.177  43.904  13.354
 8508W        W81576  28.393   4.449   0.833
 8509W        W81577  15.145  24.972  11.634
 8510W        W81578   3.308  28.379   1.491
 8511W        W81579   1.785  41.578   4.060
 8512W        W81580   5.247   1.531   1.677
 8513W        W81581  29.446  43.021   2.858
 8514W        W81582  13.298  43.415  13.029
 8515W        W81583  39.854  18.063  14.086
 8516W        W81584  41.316  12.530   4.748
 8517W        W81585  41.400   1.622   4.250
 8518W        W81586  33.785  43.906   1.793
 8519W        W81587  30.467   2.935   1.883
 8520W        W81588  30.313  29.524   3.791
 8521W        W81589   5.885  32.436   0.943
 8522W        W81590  19.062  41.924  14.998
 8523W        W81591  32.404   9.694  10.726
 8524W        W81592  25.793  32.352   1.435
 8525W        W81593   5.702  20.078  12.815
 8526W        W81594  11.751  40.301   1.806
 8527W        W81595  41.246  42.503   1.303
 8528W        W81596  19.238  18.023   1.659
 8529W        W81597  13.307  32.320  14.247
 8530W        W81598  27.651   3.842   3.903
 8531W        W81599  39.212  34.157  11.124
 8532W        W81600   2.958  24.201  14.932
 8533W        W81601  20.589   6.146  11.582
 8534W        W81602   9.671  11.369   0.736
 8535W        W81603  25.936   5.952  13.494
 8536W        W81604  14.571   4.795  10.740
 8537W        W81605  40.249  43.885  11.226
 8538W        W81606  12.373  32.802   1.459
 8539W        W81607  22.134   2.152   4.170
 8540W        W81608  30.248  31.893   0.397
 8541W        W81609  26.989  29.707  10.603
 8542W        W81610  30.612  43.170   4.315
 8543W        W81611  24.142   2.200   3.854
 8544W        W81612  12.340   0.878   1.043
 8545W        W81613  12.656  20.477   4.478
 8546W        W81614  44.927  12.162  12.546
 8547W        W81615  12.473  17.825   1.916
 8548W        W81616  34.083  12.622   0.212
 8549W        W81617   7.244  15.028   0.871
 8550W        W81618  20.003  28.334   0.231
 8551W        W81619  27.650   8.851  10.711
 8552W        W81620   2.186  27.974   3.231
 8553W        W81621  35.568   2.340   0.984
 8554W        W81622  35.565  31.529   2.890
 8555W        W81623  24.133  38.387  14.225
 8556W        W81624  17.109  43.966   2.950
 8557W        W81625  16.015  14.834  11.183
 8558W        W81626  35.802  24.532  13.533
 8559W        W81627  28.228  34.462   1.752
 8560W        W81628  23.216  16.673   9.837
 8561W        W81629  33.562  14.768  10.556
 8562W        W81630   8.119   3.844   1.930
 8563W        W81631  18.721  16.197  10.902
 8564W        W81632  21.647  14.828  11.535
 8565W        W81633  12.768  25.767  11.149
 8566W        W81634  19.694  13.194   1.289
 8567W        W81635  40.288  16.884   0.287
 8568W        W81636  23.868  20.904  11.547
 8569W        W81637  44.207  22.368   4.209
 8570W        W81638  22.621  31.534   4.642
 8571W        W81639  43.707   2.326   4.224
 8572W        W81640  11.256  38.412   2.912
 8573W        W81641   4.091  41.114  12.600
 8574W        W81642   0.002   1.293  12.100
 8575W        W81643  35.979   4.446   3.149
 8576W        W81644   3.952  19.791  11.658
 8577W        W81645  14.793  34.614  10.707
 8578W        W81646  39.218  43.904   4.149
 8579W        W81647   9.569  26.224   3.679
 8580W        W81648   0.166  11.109  11.107
 8581W        W81649  32.987  23.035   1.765
 8582W        W81650  39.318  23.305   2.808
 8583W        W81651  43.561  33.559   4.302
 8584W        W81652   0.954  37.617  13.960
 8585W        W81653  11.439  17.311   2.628
 8586W        W81654   1.933  11.699   3.241
 8587W        W81655  14.505   0.368  11.165
 8588W        W81656  42.721  23.612  11.468
 8589W        W81657  15.900  38.330   1.037
 8590W        W81658  24.508  44.345   4.946
 8591W        W81659  13.828  12.561  11.696
 8592W        W81660  29.631  31.984  13.857
 8593W        W81661  25.101   6.185   4.992
 8594W        W81662   1.909  18.696  14.869
 8595W        W81663   4.878  10.183   3.719
 8596W        W81664   7.162  43.913   2.274
 8597W        W81665  23.175  19.020  12.092
 8598W        W81666  35.210  38.645  13.698
 8599W        W81667  13.884  22.024  12.111
 8600W        W81668  10.733  28.145   9.935
 8601W        W81669  29.983   8.607   2.325
 8602W        W81670   9.439   0.765  12.489
 8603W        W81671  28.563   1.685  11.922
 8604W        W81672  40.271  41.288  13.575
 8605W        W81673   8.653  39.805   4.583
 8606W        W81674   8.604  18.341   2.322
 8607W        W81675  33.885   1.551   0.671
 8608W        W81676  34.020  42.384   2.090
 8609W        W81677   6.808  29.395  10.547
 8610W        W81678   2.435  29.657   0.970
 8611W        W81679  13.286  22.558   1.899
 8612W        W81680  32.059  21.252  12.262
 8613W        W81681  14.707   1.011   0.418
 8614W        W81682   1.431   5.435   0.465
 8615W        W81683  20.075  11.557   1.457
 8616W        W81684  28.401  32.938  13.901
 8617W        W81685   3.409   3.313  13.137
 8618W        W81686  22.964  14.477  12.590
 8619W        W81687  23.224  11.369   1.415
 8620W        W81688  43.781  13.240  14.826
 8621W        W81689  30.666  18.736   4.977
 8622W        W81690  23.104  27.286   1.752
 8623W        W81691  20.870   1.403  12.559
 8624W        W81692  28.571  23.238   2.436
 8625W        W81693   2.008  40.801  14.841
 8626W        W81694  35.632  23.410   5.003
 8627W        W81695  36.121  13.474   3.233
 8628W        W81696  20.617  23.735   3.380
 8629W        W81697  43.455  20.264  10.652
 8630W        W81698  41.847   2.102   2.507
 8631W        W81699  11.335   1.033  14.756
 8632W        W81700   5.385  33.093  13.332
 8633W        W81701  38.055   9.809   0.034
 8634W        W81702  17.590  26.357  11.660
 8635W        W81703   2.215  14.367  13.787
 8636W        W81704  26.473  13.747   0.184
 8637W        W81705  23.588  33.326  11.819
 8638W        W81706  29.984  30.464  14.982
 8639W        W81707  35.870  40.844  13.417
 8640W        W81708   7.254  39.035  12.157
 8641W        W81709  28.395  42.282   2.377
 8642W        W81710  23.658  28.715  12.456
 8643W        W81711  35.129  39.326  12.940
 8644W        W81712   9.878  39.398   3.603
 8645W        W81713  13.177  22.219   2.820
 8646W        W81714  11.399  24.067   1.260
 8647W        W81715  13.574  35.040  11.941
 8648W        W81716  13.697  17.051   0.890
 8649W        W81717  22.022   3.173   4.220
 8650W        W81718  41.740  32.965  12.941
 8651W        W81719  17.093   2.623   4.541
 8652W        W81720   8.248  22.917   3.082
 8653W        W81721  35.055  34.871   4.128
 8654W        W81722  16.066  30.084   1.770
 8655W        W81723  30.537   8.167   3.642
 8656W        W81724  44.482   8.357   4.700
 8657W        W81725   9.382  12.384   3.646
 8658W        W81726  23.375  14.601  14.998
 8659W        W81727   3.649   7.998  12.972
 8660W        W81728  18.290  28.365   4.686
 8661W        W81729  23.739  12.109   1.644
 8662W        W81730  34.038  23.265   3.065
 8663W        W81731  44.474  21.251   5.178
 8664W        W81732   1.825  27.271  13.047
 8665W        W81733  19.524  38.191   4.098
 8666W        W81734  34.166   6.775  10.719
 8667W        W81735  43.769  12.649   3.644
 8668W        W81736   9.622  42.483   0.387
 8669W        W81737  22.550  39.921  14.013
 8670W        W81738  16.309  40.221   1.290
 8671W        W81739  35.310   9.739  11.258
 8672W        W81740  14.330  41.856  14.562
 8673W        W81741  24.247  17.347  12.948
 8674W        W81742  36.923   8.121  11.142
 8675W        W81743  23.046  28.606  12.003
 8676W        W81744  43.315   0.288   3.145
 8677W        W81745  20.762  37.776   1.424
 8678W        W81746  38.833  44.826  10.722
 8679W        W81747  18.606  22.480   5.219
 8680W        W81748  44.268  23.866  10.197
 8681W        W81749  27.680  32.454  11.532
 8682W        W81750  42.788  27.949  12.036
 8683W        W81751   8.193   5.453   2.664
 8684W        W81752  23.627  31.043   3.769
 8685W        W81753  39.839   1.790  13.951
 8686W        W81754  42.031   6.684  13.352
 8687W        W81755  41.188   8.699   5.443
 8688W        W81756   3.937  36.916   4.135
 8689W        W81757   9.879   6.213  13.053
 8690W        W81758   6.185  23.698   0.073
 8691W        W81759  39.578  41.911   2.750
 8692W        W81760  40.529  25.714   2.894
 8693W        W81761  34.116  11.871  13.878
 8694W        W81762  31.564  36.393  14.228
 8695W        W81763  18.362  43.252   2.644
 8696W        W81764  41.275  32.617  13.932
 8697W        W81765  43.012  18.721   1.232
 8698W        W81766   8.217  33.896   4.241
 8699W        W81767  22.169  21.729  13.849
 8700W        W81768  21.506  20.512   3.713
 8701W        W81769   1.344  42.109  12.855
 8702W        W81770   5.135  36.267  14.258
 8703W        W81771  18.694  39.528   1.851
 8704W        W81772  42.333   2.262   0.041
 8705W        W81773  41.106  40.109  14.438
 8706W        W81774  29.271  17.684   4.705
 8707W        W81775  19.368  41.459   0.714
 8708W        W81776  34.097   9.988   2.372
 8709W        W81777  42.053  23.591   1.241
 8710W        W81778   2.574  29.343   3.348
 8711W        W81779  37.588  27.029   0.448
 8712W        W81780  12.516  38.881   4.316
 8713W        W81781  37.744  21.151   2.987
 8714W        W81782  13.935  41.968  12.479
 8715W        W81783  24.609  36.032  12.501
 8716W        W81784  39.057   9.222   1.584
 8717W        W81785  31.545   3.911   1.846
 8718W        W81786  40.975   7.609  11.946
 8719W        W81787  20.294  15.728   4.023
 8720W        W81788   5.710   0.722   2.416
 8721W        W81789  14.243  24.515  11.623
 8722W        W81790  40.402  31.801  11.452
 8723W        W81791  20.258  14.566   4.245
 8724W        W81792  26.404  36.507   4.187
 8725W        W81793  14.253  43.585   3.718
 8726W        W81794  34.092  35.511   3.322
 8727W        W81795  14.711  15.623  10.740
 8728W        W81796  40.287  30.861  14.219
 8729W        W81797  17.229  35.790  10.605
 8730W        W81798  14.688  41.117  10.641
 8731W        W81799  32.840  42.925   3.792
 8732W        W81800  31.654  17.654  14.804
 8733W        W81801   7.348   9.780   4.496
 8734W        W81802  35.831  14.181  12.902
 8735W        W81803  40.351   1.319  13.453
 8736W        W81804  17.649   7.224   3.453
 8737W        W81805  41.833  26.104  10.777
 8738W        W81806  40.686   5.897  12.446
 8739W        W81807   8.332  38.996   4.569
 8740W        W81808  39.277  16.328  11.621
 8741W        W81809  34.854  15.561  11.086
 8742W        W81810  18.492  40.723   2.799
 8743W        W81811  29.472  14.737  11.486
 8744W        W81812  42.477  19.683   1.928
 8745W        W81813   9.776  34.907  13.134
 8746W        W81814  21.258  44.129   4.203
 8747W        W81815   0.981  36.608   4.559
 8748W        W81816   3.302   5.316  12.971
 8749W        W81817   4.280  11.011  13.884
 8750W        W81818  29.711  44.072   1.258
 8751W        W81819  19.212  29.948   4.557
 8752W        W81820  22.964   5.532   1.014
 8753W        W81821  34.444  16.024   1.431
 8754W        W81822  12.908  38.126   4.534
 8755W        W81823  27.927  27.974   2.644
 8756W        W81824  23.540   3.671   1.363
 8757W        W81825  19.722   7.148   4.151
 8758W        W81826  33.322  31.960  13.583
 8759W        W81827   0.030  14.000  14.383
 8760W        W81828  25.874  25.996  12.075
 8761W        W81829  18.495  19.766   2.938
 8762W        W81830  12.406  39.966   1.439
 8763W        W81831  12.624  17.643  14.400
 8764W        W81832  42.479  30.518   3.234
 8765W        W81833  28.924  24.213   2.789
 8766W        W81834  29.310  13.634   1.691
 8767W        W81835  31.615  33.168   2.239
 8768W        W81836   1.006  17.627   1.234
 8769W        W81837  30.171   5.655  13.613
 8770W        W81838  18.075  15.570  11.406
 8771W        W81839  42.404   3.457   0.857
 8772W        W81840  34.163   2.934  14.543
 8773W        W81841  26.190  41.987   1.982
 8774W        W81842  27.676  39.566  14.464
 8775W        W81843  20.607   0.817   1.728
 8776W        W81844  10.418  10.865   3.218
 8777W        W81845   3.960   5.149   2.126
 8778W        W81846   1.735  11.293  14.729
 8779W        W81847  28.276  37.605  14.334
 8780W        W81848   3.478   0.469   4.051
 8781W        W81849  32.993   1.377  11.538
 8782W        W81850  16.485  43.414   3.239
 8783W        W81851  40.540   9.753  11.521
 8784W        W81852  29.035   3.759  10.656
 8785W        W81853  12.135   9.239   3.156
 8786W        W81854  17.685  39.447   4.374
 8787W        W81855   7.141  26.186  12.507
 8788W        W81856   1.377  37.914  13.901
 8789W        W81857   6.874  26.009  12.922
 8790W        W81858  23.567  28.260   2.252
 8791W        W81859  26.207  40.196  10.930
 8792W        W81860  27.613  29.483  13.471
 8793W        W81861  34.674   2.474  14.233
 8794W        W81862  29.983  21.267  10.602
 8795W        W81863  38.621  27.417   0.170
 8796W        W81864  23.168   1.719   1.862
 8797W        W81865   1.387   5.451   1.376
 8798W        W81866  17.122  28.187  14.290
 8799W        W81867  14.532  23.609  11.187
 8800W        W81868  20.172  32.946   2.867
 8801W        W81869  39.886  29.052   1.605
 8802W        W81870   3.962   0.561  14.979
 8803W        W81871  28.056   8.534   0.711
 8804W        W81872  39.484  29.335  13.057
 8805W        W81873  29.749  44.453  14.264
 8806W        W81874  39.617  26.450  11.017
 8807W        W81875  24.703  29.433  11.192
 8808W        W81876  17.835  32.763  11.829
 8809W        W81877  15.159  43.871   1.496
 8810W        W81878   0.259  35.400  12.916
 8811W        W81879  21.607  39.490  11.330
 8812W        W81880  36.249  12.317   4.387
 8813W        W81881  19.061  13.830   3.232
 8814W        W81882   0.021  31.790   0.229
 8815W        W81883  36.394  26.650  10.917
 8816W        W81884  12.395  33.460   3.167
 8817W        W81885  17.257  31.619  13.330
 8818W        W81886  23.738  40.339   4.326
 8819W        W81887  29.133  39.984   2.609
 8820W        W81888  38.581  38.615  13.829
 8821W        W81889  25.207  44.641   2.378
 8822W        W81890  24.499  11.842  10.394
 8823W        W81891  43.747  36.402   4.118
 8824W        W81892  16.138  22.523  10.317
 8825W        W81893  43.052  28.567   0.929
 8826W        W81894  28.547   3.146   3.483
 8827W        W81895  12.294   9.185   2.310
 8828W        W81896  15.234  39.562   2.197
 8829W        W81897  19.697  39.790  11.517
 8830W        W81898  43.523  32.470   1.741
 8831W        W81899  25.019  24.317   4.986
 8832W        W81900  38.579  41.028   3.352
 8833W        W81901   2.937  26.025  10.801
 8834W        W81902  30.661  44.947   2.448
 8835W        W81903  22.744   7.939   3.147
 8836W        W81904   9.559  39.421  12.014
 8837W        W81905   4.280  29.852   3.445
 8838W        W81906  33.528   1.905   0.522
 8839W        W81907  16.052  41.282   2.120
 8840W        W81908   7.498  14.751   4.338
 8841W        W81909   5.468  33.896   2.884
 8842W        W81910  29.871  37.075  13.110
 8843W        W81911  33.826   9.355   1.859
 8844W        W81912  38.472  36.163  12.908
 8845W        W81913  11.805  22.632  10.785
 8846W        W81914  29.381  11.617   1.542
 8847W        W81915  30.785  30.188   1.895
 8848W        W81916  17.669  41.105  11.610
 8849W        W81917  34.063  40.360  11.639
 8850W        W81918   3.181  42.316  13.851
 8851W        W81919  25.189  44.585  11.172
 8852W        W81920  43.317  15.294  11.872
 8853W        W81921  13.612   6.569   3.736
 8854W        W81922  29.631  39.561  12.819
 8855W        W81923  43.267  35.674  12.080
 8856W        W81924  26.590  11.710   4.065
 8857W        W81925  36.929   5.304  11.447
 8858W        W81926  38.077  37.999  12.055
 8859W        W81927  11.014  22.100   1.726
 8860W        W81928  42.259   0.937   4.291
 8861W        W81929  38.157  24.249   2.346
 8862W        W81930  17.424   2.498   3.308
 8863W        W81931  38.142  35.618  13.444
 8864W        W81932  23.152  26.580  13.866
 8865W        W81933  28.661  19.980   1.730
 8866W        W81934  20.598  29.680  14.584
 8867W        W81935  25.250  20.796  10.516
 8868W        W81936  38.781  36.978   0.505
 8869W        W81937   2.767  25.441   1.906
 8870W        W81938  31.135  28.884  11.565
 8871W        W81939   0.750  38.151   4.401
 8872W        W81940   7.421  32.157  14.425
 8873W        W81941  34.489  10.664   2.307
 8874W        W81942  21.938  41.216   4.728
 8875W        W81943  38.195  28.642  14.930
 8876W        W81944  12.299  12.727  10.750
 8877W        W81945  44.042   5.303  13.155
 8878W        W81946  32.018  10.406  14.826
 8879W        W81947   7.042  18.789   1.254
 8880W        W81948   7.017  31.916  14.240
 8881W        W81949  24.076   2.043   2.998
 8882W        W81950   7.371  33.916   3.813
 8883W        W81951   4.930  35.025   2.850
 8884W        W81952  23.348  43.454   0.878
 8885W        W81953  35.924  38.904  12.498
 8886W        W81954  17.122  23.445  11.583
 8887W        W81955   4.393  12.855  10.954
 8888W        W81956  38.579  31.015  11.368
 8889W        W81957  21.277   7.320   4.886
 8890W        W81958  21.552  26.232   2.251
 8891W        W81959   8.071  40.430   1.909
 8892W        W81960  28.886  25.494   1.038
 8893W        W81961  15.882  15.856   4.361
 8894W        W81962  27.686  10.982  14.273
 8895W        W81963  27.023  15.448   2.302
 8896W        W81964  31.666  15.684  13.455
 8897W        W81965  37.423  10.984   0.423
 8898W        W81966   6.802  13.879  13.036
 8899W        W81967   6.226  32.243  10.702
 8900W        W81968  37.278   7.959   5.038
 8901W        W81969  14.598  14.781  13.850
 8902W        W81970  10.116  31.007   4.083
 8903W        W81971  21.159  40.803   4.840
 8904W        W81972  30.793  13.580  14.502
 8905W        W81973  16.370  21.754   2.769
 8906W        W81974  13.691  37.494  14.360
 8907W        W81975   6.387  38.973  14.233
 8908W        W81976   2.506  18.266   2.443
 8909W        W81977   5.915  11.166  13.873
 8910W        W81978  17.315   0.425  12.282
 8911W        W81979  14.828   1.845   0.953
 8912W        W81980  31.610  35.618   0.840
 8913W        W81981  19.078  18.069   1.155
 8914W        W81982   6.137  30.939  12.494
 8915W        W81983  14.698  17.859   3.176
 8916W        W81984  17.992  25.047  14.845
 8917W        W81985  30.513  19.567   3.212
 8918W        W81986  37.175  25.263  12.998
 8919W        W81987  19.495  32.498  10.607
 8920W        W81988  27.940  23.522   3.606
 8921W        W81989  34.915  21.639  12.975
 8922W        W81990   7.266  24.189   2.792
 8923W        W81991   0.890   6.692   1.517
 8924W        W81992   7.772   0.537  11.202
 8925W        W81993  31.220  15.398   1.033
 8926W        W81994  29.191  32.071   0.554
 8927W        W81995  25.035  43.863   0.489
 8928W        W81996  41.958  36.556  12.171
 8929W        W81997  25.601  28.891   2.820
 8930W        W81998  31.444   9.300   1.045
 8931W        W81999  36.628  15.156  11.109
 8932W        W82000  41.985  39.065  14.421
 8933W        W82001  12.845  10.037   0.428
 8934W        W82002  13.832   0.079  13.488
 8935W        W82003  38.956   5.465  12.083
 8936W        W82004  35.812   1.317   3.873
 8937W        W82005  42.066  14.224   3.699
 8938W        W82006  11.724  13.555   2.643
 8939W        W82007   7.604  13.734   3.270
 8940W        W82008  34.184  27.944  13.045
 8941W        W82009  39.031  25.669   1.253
 8942W        W82010  27.721   2.921   3.157
 8943W        W82011  11.571  22.114  13.490
 8944W        W82012  29.281   5.961  13.395
 8945W        W82013  21.620  14.289   0.420
 8946W        W82014  10.207  41.276  12.991
 8947W        W82015  34.282  18.095   4.724
 8948W        W82016  42.224  10.335   9.822
 8949W        W82017   3.514   2.800   1.759
 8950W        W82018  36.292  13.766   1.897
 8951W        W82019   8.950  20.336  10.722
 8952W        W82020  12.195  43.982  10.409
 8953W        W82021  18.455  28.557   2.858
 8954W        W82022  43.907  37.904   1.491
 8955W        W82023  38.724  23.998  14.895
 8956W        W82024  22.671  25.434   0.817
 8957W        W82025  12.808   8.731   1.713
 8958W        W82026  26.726  10.805  13.025
 8959W        W82027  35.909  37.102   0.409
 8960W        W82028  33.712  28.322   2.901
 8961W        W82029   9.840  29.565  14.856
 8962W        W82030   5.678  25.559  12.070
 8963W        W82031  11.435  14.711   2.267
 8964W        W82032  22.611   1.948   4.120
 8965W        W82033  39.110   5.934  13.958
 8966W        W82034   2.718  17.842   4.081
 8967W        W82035  16.550  10.277   4.513
 8968W        W82036   1.977  14.845  13.595
 8969W        W82037   2.964  44.397  13.656
 8970W        W82038  33.450  36.079   2.947
 8971W        W82039  34.770   5.759   0.469
 8972W        W82040  25.913  10.767  10.356
 8973W        W82041   1.405   8.005  12.448
 8974W        W82042  29.021  13.988  13.274
 8975W        W82043   1.876   1.012  11.011
 8976W        W82044   0.159  25.464  12.384
 8977W        W82045   7.267  14.416  13.570
 8978W        W82046  10.552  29.655   0.947
 8979W        W82047   4.755  27.678  13.826
 8980W        W82048  32.097   1.715   2.874
 8981W        W82049   3.262  39.885  11.001
 8982W        W82050  30.139  27.442  11.984
 8983W        W82051   3.459  43.971  14.859
 8984W        W82052  10.892  36.482  11.545
 8985W        W82053  18.616  39.085   3.311
 8986W        W82054  32.553  23.788  14.976
 8987W        W82055  40.518  13.834   1.323
 8988W        W82056  14.608   1.917   3.725
 8989W        W82057   2.074  17.055  11.272
 8990W        W82058  11.364  10.321   1.418
 8991W        W82059  21.210  17.031  14.427
 8992W        W82060  39.563  10.422  13.287
 8993W        W82061  17.066  11.259   0.518
 8994W        W82062  37.548   7.102   3.119
 8995W        W82063   7.229  26.982   2.907
 8996W        W82064  32.520  25.452  14.215
 8997W        W82065   9.056   6.963   0.456
 8998W        W82066  26.669   1.480  10.611
 8999W        W82067  26.985  36.410   0.711
 9000W        W82068  30.205   6.101  13.344
 9001W        W82069  14.134  13.291  13.913
 9002W        W82070  19.167   9.192   4.542
 9003W        W82071  20.768  35.450  14.975
 9004W        W82072  13.292  32.045   2.242
 9005W        W82073  25.142  37.372  11.551
 9006W        W82074  15.103  30.450  14.907
 9007W        W82075  30.671  10.167   3.326
 9008W        W82076   0.038  38.870   3.725
 9009W        W82077  41.305  20.477   2.245
 9010W        W82078   6.204  24.630  10.373
 9011W        W82079  35.950  26.702  10.686
 9012W        W82080  28.973   4.619   2.520
 9013W        W82081  41.867   0.672  12.095
 9014W        W82082  11.105  11.344  13.567
 9015W        W82083  40.000  37.860   3.927
 9016W        W82084   5.671  12.807   4.782
 9017W        W82085   3.319   7.452  12.154
 9018W        W82086  17.332   1.361   4.773
 9019W        W82087  18.175  44.719   4.067
 9020W        W82088  18.686  19.163   4.666
 9021W        W82089  30.699   7.462   0.524
 9022W        W82090  11.053  41.217  10.197
 9023W        W82091  30.830  30.117   0.998
 9024W        W82092  24.562  30.167   0.529
 9025W        W82093   3.398  43.707   4.806
 9026W        W82094  25.972  44.351   2.661
 9027W        W82095  14.099  43.491  14.960
 9028W        W82096  23.088  27.484  12.427
 9029W        W82097   1.784  39.141   0.414
 9030W        W82098  10.174  28.638   1.775
 9031W        W82099   0.211  33.855  11.127
 9032W        W82100  27.606  20.468  10.697
 9033W        W82101   5.965   7.380   2.148
 9034W        W82102  15.798  43.266   0.332
 9035W        W82103   9.034   3.841   4.558
 9036W        W82104  12.823  13.952   4.912
 9037W        W82105  40.472  15.378   1.261
 9038W        W82106  42.430  28.567  12.417
 9039W        W82107   3.731  13.422  13.361
 9040W        W82108   6.554  40.864  11.086
 9041W        W82109  16.694   3.052  10.728
 9042W        W82110  26.671  19.012  13.448
 9043W        W82111  24.142   7.391   0.389
 9044W        W82112  18.602  16.517  14.499
 9045W        W82113  44.249  30.993  14.397
 9046W        W82114  30.125  25.819   4.038
 9047W        W82115  13.795  25.407   2.307
 9048W        W82116   1.444  40.247  14.725
 9049W        W82117  29.008  25.233   3.717
 9050W        W82118   9.266  12.909  12.454
 9051W        W82119  31.583  35.605   2.892
 9052W        W82120  16.145   5.884  11.130
 9053W        W82121   4.477  19.159  11.965
 9054W        W82122  23.114  24.690   4.593
 9055W        W82123  35.433  17.028   3.663
 9056W        W82124  35.697  41.418   0.465
 9057W        W82125  29.537  44.996   0.299
 9058W        W82126  21.628  44.817   2.257
 9059W        W82127  44.530  24.857  11.849
 9060W        W82128  36.311  13.094  11.240
 9061W        W82129  33.025  35.551  10.616
 9062W        W82130  42.427  24.571  11.160
 9063W        W82131  18.666  28.875   1.791
 9064W        W82132   8.152  38.246  10.300
 9065W        W82133  39.542   2.827  11.818
 9066W        W82134  33.360  13.637   4.630
 9067W        W82135  28.078  29.664   0.140
 9068W        W82136  31.130  18.319   3.199
 9069W        W82137  34.983  39.525   3.137
 9070W        W82138  26.454  43.526   2.655
 9071W        W82139  41.497   6.385   0.336
 9072W        W82140  43.215  28.793   1.800
 9073W        W82141  16.891  41.404  14.049
 9074W        W82142  18.271  32.403  10.411
 9075W        W82143  10.936  23.022  12.489
 9076W        W82144  18.709  29.380   5.241
 9077W        W82145  37.840   1.886  12.491
 9078W        W82146  40.527  19.673  12.546
 9079W        W82147   9.770   2.913  12.799
 9080W        W82148  13.125  29.093  14.790
 9081W        W82149  26.092  35.137   1.434
 9082W        W82150  30.884  30.387  14.765
 9083W        W82151  33.588  25.510   1.172
 9084W        W82152  39.311  34.977  11.682
 9085W        W82153   8.146  24.199  13.413
 9086W        W82154  14.757  12.847   0.267
 9087W        W82155   9.194   9.089  11.143
 9088W        W82156  29.167  14.595  11.893
 9089W        W82157  29.134   3.775   2.234
 9090W        W82158   0.751   4.237  10.226
 9091W        W82159  34.866   7.292   4.405
 9092W        W82160  13.712  28.577   2.073
 9093W        W82161  17.721  25.955  11.934
 9094W        W82162  26.978  31.681   3.702
 9095W        W82163  44.826  38.409  10.822
 9096W        W82164  20.954   4.103  14.979
 9097W        W82165  22.131  42.847  10.899
 9098W        W82166  40.172  40.309   1.796
 9099W        W82167  29.052  21.900  14.453
 9100W        W82168  30.064  21.951   0.229
 9101W        W82169  34.924  29.542   1.513
 9102W        W82170  10.707  43.837  13.341
 9103W        W82171   8.317  28.127   1.530
 9104W        W82172  24.411  17.685   1.156
 9105W        W82173  33.534   8.378   3.645
 9106W        W82174  29.955  23.352   1.392
 9107W        W82175   5.490  29.967   2.662
 9108W        W82176  33.423  13.639   3.736
 9109W        W82177   1.382  39.426   2.422
 9110W        W82178   1.223   5.222   2.681
 9111W        W82179   8.798  21.657   2.285
 9112W        W82180  36.881  41.972   3.142
 9113W        W82181  31.146   9.358   3.165
 9114W        W82182  10.147   6.821  11.513
 9115W        W82183  13.732  26.008   4.585
 9116W        W82184  10.736   6.353   1.328
 9117W        W82185  24.476   3.304  12.095
 9118W        W82186  44.986  17.355  10.973
 9119W        W82187  15.336   6.753  12.932
 9120W        W82188  38.816   7.861  13.240
 9121W        W82189  26.455  31.059  11.891
 9122W        W82190  33.357  22.050  10.617
 9123W        W82191  16.149  22.904  14.905
 9124W        W82192  25.727   9.258   1.837
 9125W        W82193  10.647   2.471   1.460
 9126W        W82194  38.184   1.534   1.832
 9127W        W82195  37.896  29.592  10.601
 9128W        W82196   7.212   5.247   4.178
 9129W        W82197   9.820  41.231   1.407
 9130W        W82198  20.213   0.309  13.153
 9131W        W82199  19.279  23.568   2.314
 9132W        W82200  40.944  43.869  11.427
 9133W        W82201  24.934   4.711  11.555
 9134W        W82202  35.379  29.488   1.274
 9135W        W82203  43.344  12.697  14.481
 9136W        W82204  36.349   8.390   3.155
 9137W        W82205  36.279   6.062   1.853
 9138W        W82206  30.967  40.114  11.434
 9139W        W82207  24.119   4.376  12.947
 9140W        W82208  15.348  26.271  14.834
 9141W        W82209  32.130  30.560   0.753
 9142W        W82210  11.772   2.970  14.612
 9143W        W82211   5.524  33.887   1.634
 9144W        W82212  25.606  37.019   3.969
 9145W        W82213  17.197  18.568  12.309
 9146W        W82214  24.886   7.776  13.765
 9147W        W82215   4.868  23.167  13.360
 9148W        W82216  11.091  12.065  13.827
 9149W        W82217   8.463   0.207   4.672
 9150W        W82218   6.920   3.254   3.021
 9151W        W82219  14.281  23.077  12.939
 9152W        W82220   8.400  11.272   2.723
 9153W        W82221  10.380  15.211  11.135
 9154W        W82222  33.576   9.672   3.194
 9155W        W82223  26.941  32.115   0.499
 9156W        W82224  10.216  15.315   1.268
 9157W        W82225  31.639  18.799  11.142
 9158W        W82226   0.870  16.920  12.768
 9159W        W82227  17.921  14.364  11.058
 9160W        W82228  25.637  29.176   4.752
 9161W        W82229   2.801  41.859   3.297
 9162W        W82230  33.932  17.285  11.211
 9163W        W82231  39.511  24.510   2.262
 9164W        W82232  30.956  16.840   1.753
 9165W        W82233  20.756  28.458   1.936
 9166W        W82234  39.603  31.127   1.478
 9167W        W82235  29.450   3.533   0.444
 9168W        W82236  40.594  42.438  13.905
 9169W        W82237  32.460   0.047   4.192
 9170W        W82238  14.306  14.828  13.416
 9171W        W82239   1.383  29.072  10.381
 9172W        W82240  13.557  14.112   0.799
 9173W        W82241  41.839  12.665   1.817
 9174W        W82242  29.353   2.840  10.975
 9175W        W82243  39.932  41.238   1.797
 9176W        W82244   4.902   2.676  14.074
 9177W        W82245  25.497  19.972   4.552
 9178W        W82246  37.951   5.712   5.073
 9179W        W82247   2.868   1.564  12.291
 9180W        W82248  20.738  41.782  11.117
 9181W        W82249  21.482   0.555   1.607
 9182W        W82250  34.883  11.614   4.999
 9183W        W82251   1.017  28.988   0.264
 9184W        W82252  23.262  31.995  11.597
 9185W        W82253   6.802  31.524  10.726
 9186W        W82254  36.508  22.766  12.732
 9187W        W82255   0.809   2.585  13.279
 9188W        W82256  31.104  20.712   2.279
 9189W        W82257  12.211   7.981   1.786
 9190W        W82258  39.892   4.970  10.618
 9191W        W82259  30.120  12.396   4.631
 9192W        W82260   2.942  21.364  13.812
 9193W        W82261  44.363  13.074  10.747
 9194W        W82262  22.114  37.546  14.631
 9195W        W82263  22.560  21.457   1.525
 9196W        W82264  18.011   5.375  10.538
 9197W        W82265   4.174  26.999  12.889
 9198W        W82266  33.417  31.169  12.617
 9199W        W82267  32.153   9.754   4.855
 9200W        W82268   1.558  33.658   3.372
 9201W        W82269  39.588  28.541  14.361
 9202W        W82270   6.712  26.899  12.958
 9203W        W82271  41.627   7.303  10.322
 9204W        W82272  27.756  36.530   0.437
 9205W        W82273  24.421  39.748   4.786
 9206W        W82274  44.242  42.990   3.717
 9207W        W82275  18.508  19.037  14.136
 9208W        W82276  27.493  25.994   1.889
 9209W        W82277  29.462  29.466  11.568
 9210W        W82278   2.664  35.024   2.038
 9211W        W82279  37.491  33.886   2.451
 9212W        W82280  36.430  27.621   0.182
 9213W        W82281  11.435  14.608   1.337
 9214W        W82282  30.409  43.267  12.967
 9215W        W82283  44.676   8.273   5.156
 9216W        W82284  33.531  15.021  10.994
 9217W        W82285   7.720   7.107  11.631
 9218W        W82286  17.269   0.478   3.732
 9219W        W82287  28.358  44.882  12.896
 9220W        W82288  40.469  21.708   0.840
 9221W        W82289  27.723   6.666  11.300
 9222W        W82290  38.399  40.614  12.406
 9223W        W82291  31.475  34.648  14.428
 9224W        W82292   6.754  43.417   3.803
 9225W        W82293  29.525  23.520  13.398
 9226W        W82294   3.330  21.685  14.587
 9227W        W82295  30.080   2.221   3.719
 9228W        W82296  11.253  37.897  14.990
 9229W        W82297  10.080  34.357  11.467
 9230W        W82298  21.220  17.171   1.924
 9231W        W82299  38.501  41.505   0.000
 9232W        W82300  36.564   5.186   0.330
 9233W        W82301  17.654  33.333  11.157
 9234W        W82302  24.387  27.309  12.982
 9235W        W82303  12.759  33.374   0.940
 9236W        W82304  34.013   5.697   4.188
 9237W        W82305  36.609   1.359   3.336
 9238W        W82306  21.329  32.641   3.351
 9239W        W82307   6.247  26.665  10.423
 9240W        W82308  13.972  22.493   3.259
 9241W        W82309   0.993  15.176  12.652
 9242W        W82310  43.319  41.093  14.775
 9243W        W82311  24.663  41.190   3.822
 9244W        W82312  39.794  38.361  14.362
 9245W        W82313  27.041  36.305   1.215
 9246W        W82314   9.210   5.459  13.925
 9247W        W82315  20.540  44.588  12.782
 9248W        W82316  15.647  31.398  11.591
 9249W        W82317   9.710  10.821  14.030
 9250W        W82318  34.664  12.229   1.757
 9251W        W82319   2.221  37.305  13.524
 9252W        W82320  43.262  39.043   1.447
 9253W        W82321  10.622  43.930  12.037
 9254W        W82322  13.623  16.690  13.418
 9255W        W82323  40.438  40.030  12.438
 9256W        W82324  33.857   0.519   1.277
 9257W        W82325  33.633   6.140  12.937
 9258W        W82326  10.832   9.701   4.377
 9259W        W82327  33.076   5.462  11.577
 9260W        W82328  27.314  36.939  14.909
 9261W        W82329   7.279   6.709  12.908
 9262W        W82330  13.144  40.821   0.402
 9263W        W82331  27.681  29.682   4.989
 9264W        W82332  29.187  29.614  13.375
 9265W        W82333  36.354  25.063   4.507
 9266W        W82334  18.656  20.136  10.430
 9267W        W82335  10.778  20.522  11.162
 9268W        W82336  17.647  42.014   1.997
 9269W        W82337  26.939   2.232   4.262
 9270W        W82338   2.832   5.993   3.589
 9271W        W82339   4.655  21.293  13.818
 9272W        W82340  41.983  42.024  11.853
 9273W        W82341   1.892   1.875   3.355
 9274W        W82342  10.911  22.955   1.258
 9275W        W82343   2.270  20.258   0.997
 9276W        W82344  34.141  43.393   3.673
 9277W        W82345  27.454   7.808  11.557
 9278W        W82346   3.598  11.883   2.554
 9279W        W82347  19.466  15.651  14.242
 9280W        W82348  40.907  43.528  13.014
 9281W        W82349  40.549   1.566   1.748
 9282W        W82350   1.622  26.549   1.334
 9283W        W82351  12.829  33.514  11.683
 9284W        W82352  31.914   3.202  12.496
 9285W        W82353  11.322   0.992   2.150
 9286W        W82354   5.293  43.208   0.872
 9287W        W82355  42.417  37.549   2.756
 9288W        W82356  14.996  18.461   1.005
 9289W        W82357  28.449  43.830   0.273
 9290W        W82358   4.956  35.544   1.395
 9291W        W82359  19.312  32.489  13.961
 9292W        W82360  25.464  29.849   3.606
 9293W        W82361  28.170  41.291   2.173
 9294W        W82362  30.517  28.268   0.279
 9295W        W82363   7.736  21.187   3.108
 9296W        W82364  27.668  26.148  11.988
 9297W        W82365  35.950  40.463   1.893
 9298W        W82366  31.564  33.894   4.084
 9299W        W82367  19.747  13.867   0.479
 9300W        W82368   8.308  10.466  12.365
 9301W        W82369   6.306   8.751  14.362
 9302W        W82370  31.945  42.056  10.728
 9303W        W82371  25.444  28.487   2.427
 9304W        W82372  44.174  19.427  13.154
 9305W        W82373  29.502  36.616  11.837
 9306W        W82374  15.157  37.079   2.455
 9307W        W82375   9.069  15.735  12.488
 9308W        W82376  41.431  32.375  13.515
 9309W        W82377  34.086  21.434   2.160
 9310W        W82378  19.620  38.956  12.328
 9311W        W82379  19.378  27.921   3.072
 9312W        W82380  19.196  42.052  10.616
 9313W        W82381  31.355  37.023  12.043
 9314W        W82382  33.839   4.946   3.687
 9315W        W82383  16.629  14.163   0.902
 9316W        W82384  37.090  28.693  10.591
 9317W        W82385  16.466   4.358  14.895
 9318W        W82386  39.370   3.718  11.925
 9319W        W82387  34.837  19.255   2.405
 9320W        W82388  27.610   4.498  12.599
 9321W        W82389  37.162  21.341  11.421
 9322W        W82390  30.913  11.359  11.529
 9323W        W82391  38.070  40.298   3.694
 9324W        W82392  23.594  14.322  11.491
 9325W        W82393  34.635  43.508   3.517
 9326W        W82394  13.047  27.358   3.205
 9327W        W82395  30.108   6.773   3.702
 9328W        W82396  17.634  23.927   1.402
 9329W        W82397  14.132  28.764   1.757
 9330W        W82398  18.594   5.880  12.495
 9331W        W82399  40.736  32.624  10.591
 9332W        W82400  19.168   6.609  12.161
 9333W        W82401   7.234  12.156   1.172
 9334W        W82402   2.493  41.470   2.311
 9335W        W82403  27.458  35.400   0.794
 9336W        W82404  33.578  38.052   4.335
 9337W        W82405  20.122  42.542  13.988
 9338W        W82406  42.492  33.730   1.353
 9339W        W82407  34.459  42.509  13.957
 9340W        W82408  37.357  31.149  10.744
 9341W        W82409  14.064   3.894   1.245
 9342W        W82410  22.172  21.731   4.047
 9343W        W82411  22.545  12.095  14.016
 9344W        W82412  13.980   1.167   0.119
 9345W        W82413  11.172  40.997  11.059
 9346W        W82414  40.633   7.227   4.677
 9347W        W82415  26.616  35.903  13.612
 9348W        W82416  30.091  33.743  14.297
 9349W        W82417  18.519  29.679  14.859
 9350W        W82418  34.009  41.240  13.869
 9351W        W82419  29.931   0.768   4.619
 9352W        W82420  39.811  39.945  11.918
 9353W        W82421  25.731  34.357  13.861
 9354W        W82422   0.988  41.337   1.097
 9355W        W82423   3.917  44.527  11.144
 9356W        W82424  31.324  27.616   3.375
 9357W        W82425  14.191  33.166  14.886
 9358W        W82426  19.287  34.954   3.311
 9359W        W82427  44.240  41.818  13.884
 9360W        W82428   8.142  18.883   4.123
 9361W        W82429  15.639   4.339  13.080
 9362W        W82430  36.650   1.327  14.864
 9363W        W82431   4.433  16.188  14.325
 9364W        W82432  40.388  17.065  11.853
 9365W        W82433   8.269  17.202  12.801
 9366W        W82434   0.217  27.142   3.162
 9367W        W82435  15.861  44.756  13.544
 9368W        W82436  25.941  14.426  13.046
 9369W        W82437  22.229  39.419   0.294
 9370W        W82438  39.402  16.525  10.393
 9371W        W82439  30.440   6.594  12.513
 9372W        W82440  41.076   7.445   4.781
 9373W        W82441  40.920  15.408  12.180
 9374W        W82442  30.679  40.896  12.336
 9375W        W82443  12.588  14.257   0.368
 9376W        W82444   9.250   6.975  13.891
 9377W        W82445  23.197  11.865   2.170
 9378W        W82446   2.341  32.609  13.751
 9379W        W82447   0.711  12.349  10.678
 9380W        W82448  18.037  30.714   1.702
 9381W        W82449  19.514  18.111  12.468
 9382W        W82450   2.693  15.374   3.980
 9383W        W82451  35.723  30.560  12.654
 9384W        W82452  44.654  17.780  14.338
 9385W        W82453  20.639  34.698   4.573
 9386W        W82454  40.021  28.918   1.117
 9387W        W82455   1.980  22.633  13.016
 9388W        W82456  27.397   2.332  11.355
 9389W        W82457   7.232   7.204  11.547
 9390W        W82458  41.934   5.337  13.493
 9391W        W82459  40.463  30.332  10.921
 9392W        W82460   1.517   0.986  13.779
 9393W        W82461  15.368  19.692  13.575
 9394W        W82462  15.804   5.798   4.267
 9395W        W82463   1.244  37.879   3.510
 9396W        W82464  33.946  38.887  11.248
 9397W        W82465  39.487   6.226  14.929
 9398W        W82466  23.926  24.548  14.026
 9399W        W82467   9.386  37.845  14.313
 9400W        W82468  43.281  13.397   1.147
 9401W        W82469  24.610  27.587   3.663
 9402W        W82470  34.676  38.823  13.361
 9403W        W82471  41.113  33.970   4.669
 9404W        W82472  26.633  31.918  12.464
 9405W        W82473  31.492  19.046  14.827
 9406W        W82474   9.283  24.237   0.903
 9407W        W82475   0.746  10.603   0.481
 9408W        W82476   0.080  19.073   1.700
 9409W        W82477  44.200   4.047   3.655
 9410W        W82478   0.419  30.362   1.076
 9411W        W82479   9.734  22.718  13.088
 9412W        W82480  37.492  32.609   9.777
 9413W        W82481  36.996  34.981   3.751
 9414W        W82482  17.079   9.474  13.053
 9415W        W82483  29.067  22.845  11.119
 9416W        W82484  39.528  12.179  11.031
 9417W        W82485  12.049  23.518   2.324
 9418W        W82486  28.332  29.209  13.480
 9419W        W82487  15.259  15.593   0.800
 9420W        W82488  22.198  11.667  10.721
 9421W        W82489  36.480   7.305   1.445
 9422W        W82490  21.305  27.602  14.358
 9423W        W82491  21.237   3.851  14.345
 9424W        W82492  24.108  43.764  10.633
 9425W        W82493  40.520  35.985   4.226
 9426W        W82494  18.183  32.874  14.128
 9427W        W82495  26.247   1.282   2.707
 9428W        W82496   2.394   6.442   0.481
 9429W        W82497  38.097  12.620  11.481
 9430W        W82498  36.284  31.538   5.507
 9431W        W82499  42.264  39.117   2.721
 9432W        W82500  35.282   7.280  11.012
 9433W        W82501   2.924  29.482  12.200
 9434W        W82502  39.404  17.786   1.396
 9435W        W82503  44.193  42.240  13.005
 9436W        W82504  42.824  38.519  11.423
 9437W        W82505  20.446  28.314  11.534
 9438W        W82506   8.640  39.413   1.183
 9439W        W82507  22.993  37.091  14.773
 9440W        W82508  36.122   5.798   0.790
 9441W        W82509  43.499  32.073  14.027
 9442W        W82510  32.974  38.955  14.114
 9443W        W82511   6.682  43.855  11.484
 9444W        W82512  13.510  32.015   4.193
 9445W        W82513   3.720  19.675   2.727
 9446W        W82514   6.671  38.041   0.024
 9447W        W82515   9.583  26.981   0.888
 9448W        W82516  16.509  31.793  12.935
 9449W        W82517  39.822   1.732   1.329
 9450W        W82518  40.044  22.522   0.292
 9451W        W82519  14.774   1.422   1.784
 9452W        W82520  36.173  30.870   4.311
 9453W        W82521  20.809  37.433  13.982
 9454W        W82522  38.015  22.170  14.509
 9455W        W82523  14.681   7.421   3.398
 9456W        W82524   0.381  24.062   3.261
 9457W        W82525  21.661  23.557  10.962
 9458W        W82526  36.409  20.091   0.548
 9459W        W82527  29.687  38.308   1.046
 9460W        W82528  39.440  26.924  13.547
 9461W        W82529  24.680   8.839  12.432
 9462W        W82530  23.723  13.213  11.156
 9463W        W82531   0.042  30.036   0.131
 9464W        W82532  38.025  15.408   0.701
 9465W        W82533  22.009  27.226   4.744
 9466W        W82534  11.096  13.689   3.713
 9467W        W82535  15.140  41.255  13.999
 9468W        W82536  29.581  43.238  13.494
 9469W        W82537   9.288  30.552  14.893
 9470W        W82538  26.551  31.859  11.154
 9471W        W82539  36.597  32.178  12.442
 9472W        W82540  14.369  17.753   3.595
 9473W        W82541  16.692  11.833   2.092
 9474W        W82542  12.705  34.099   4.979
 9475W        W82543  24.167  35.056  10.263
 9476W        W82544  13.881  29.623  12.586
 9477W        W82545   0.834  39.414   3.627
 9478W        W82546  13.313   1.797   4.981
 9479W        W82547   6.121  21.507   4.520
 9480W        W82548  43.066  19.809  12.076
 9481W        W82549  23.493  10.330   2.426
 9482W        W82550  21.195  38.415  13.083
 9483W        W82551   6.752   6.290  13.839
 9484W        W82552  27.590  25.421  12.525
 9485W        W82553  15.638  22.076   0.307
 9486W        W82554  19.692  24.055   5.246
 9487W        W82555  31.098  36.288   0.764
 9488W        W82556  23.424  38.840  13.039
 9489W        W82557  10.844  15.640  10.671
 9490W        W82558  21.608   5.497  14.023
 9491W        W82559  19.177   7.216   1.666
 9492W        W82560   9.242  16.771   2.003
 9493W        W82561  16.148  16.312  11.592
 9494W        W82562  25.548   6.787  12.223
 9495W        W82563  19.488  37.992  11.436
 9496W        W82564  24.459  25.106   4.468
 9497W        W82565  34.150  33.354  14.376
 9498W        W82566  37.510  10.827  13.916
 9499W        W82567  24.970  25.648   0.030
 9500W        W82568  16.584  26.554   3.766
 9501W        W82569   3.996  39.318   1.230
 9502W        W82570  11.881  24.726  11.798
 9503W        W82571   2.427  12.857  14.108
 9504W        W82572  14.389   8.548  12.566
 9505W        W82573  32.453  15.290  11.724
 9506W        W82574  12.368  11.348   0.506
 9507W        W82575  13.690  38.506  14.292
 9508W        W82576  17.315  24.657   3.246
 9509W        W82577  15.153  23.477   4.106
 9510W        W82578   2.234  38.920   1.573
 9511W        W82579   8.933  32.410   0.049
 9512W        W82580   2.958  38.634   0.211
 9513W        W82581   1.795  38.664  11.376
 9514W        W82582  33.040   2.377   0.941
 9515W        W82583   5.163  32.870  13.782
 9516W        W82584  34.504   5.784   4.393
 9517W        W82585  25.904  17.152  13.363
 9518W        W82586  40.034  29.443   1.264
 9519W        W82587  21.133   9.264  11.916
 9520W        W82588   8.114  18.097  13.036
 9521W        W82589  42.962  13.533  13.995
 9522W        W82590  19.771  12.653  10.880
 9523W        W82591   0.326  24.365   2.816
 9524W        W82592  17.152  21.512  10.663
 9525W        W82593  10.843   3.729  11.824
 9526W        W82594  43.239   7.711  11.279
 9527W        W82595  41.333  11.449  14.993
 9528W        W82596  41.424  42.482   2.775
 9529W        W82597  35.954  35.093   4.519
 9530W        W82598   6.300  29.485   3.638
 9531W        W82599  26.342  18.615   3.513
 9532W        W82600  15.104  16.550  13.044
 9533W        W82601   4.278  36.355   1.872
 9534W        W82602  35.637  37.691  13.467
 9535W        W82603  12.636   2.726   0.711
 9536W        W82604  44.559  31.617   0.054
 9537W        W82605  23.115  35.257   3.185
 9538W        W82606  40.952  38.626  12.877
 9539W        W82607  29.361  36.893  14.026
 9540W        W82608  22.305   9.577   3.578
 9541W        W82609  42.937   3.798  11.133
 9542W        W82610  26.832  21.614   0.491
 9543W        W82611  23.469   5.192  13.978
 9544W        W82612  37.770   7.707  10.706
 9545W        W82613   8.173  36.487   3.184
 9546W        W82614  39.610  10.645  11.119
 9547W        W82615  34.141   3.297   2.795
 9548W        W82616  21.269   6.240   1.914
 9549W        W82617  22.952  33.660  14.438
 9550W        W82618   8.428  28.297  14.829
 9551W        W82619  43.376   1.846   0.274
 9552W        W82620  23.040   5.469  10.581
 9553W        W82621  25.081  35.414  14.858
 9554W        W82622  20.621  16.692   1.724
 9555W        W82623  30.011  15.615   1.681
 9556W        W82624   6.263  37.491  10.257
 9557W        W82625   4.755  30.007   3.371
 9558W        W82626   9.579   9.376  12.291
 9559W        W82627  22.184   9.793   4.289
 9560W        W82628  34.612  44.297   2.783
 9561W        W82629  13.543  21.616  12.091
 9562W        W82630  33.472   7.976   3.988
 9563W        W82631  18.075  14.295  11.960
 9564W        W82632  15.815   7.288  10.290
 9565W        W82633  24.102  15.129   0.609
 9566W        W82634  26.710  35.146  11.177
 9567W        W82635  38.328  43.659   4.208
 9568W        W82636  35.576   6.391  14.265
 9569W        W82637  22.792  43.787   4.189
 9570W        W82638  12.864  39.480   3.152
 9571W        W82639  31.818  37.109   3.883
 9572W        W82640  28.340  27.010   4.549
 9573W        W82641  22.025  27.661  11.655
 9574W        W82642  13.598  44.904  12.089
 9575W        W82643  25.800  26.313  11.012
 9576W        W82644   8.172  42.344   1.939
 9577W        W82645  24.597  18.197   3.258
 9578W        W82646   8.921  20.998  11.275
 9579W        W82647  38.820  19.507  11.634
 9580W        W82648   4.433   5.574  12.286
 9581W        W82649  23.690  35.353   1.028
 9582W        W82650  27.566  41.882   1.403
 9583W        W82651  21.663   1.046  10.719
 9584W        W82652  11.587  37.539   5.051
 9585W        W82653  15.400  35.545  12.085
 9586W        W82654   1.796  13.714  10.640
 9587W        W82655   4.780   5.796   3.714
 9588W        W82656  14.773  12.093  13.950
 9589W        W82657  31.687  13.264  14.459
 9590W        W82658  44.842   0.532   1.755
 9591W        W82659  10.430  44.535   4.166
 9592W        W82660  31.929  31.171   2.824
 9593W        W82661  43.357  18.709   0.729
 9594W        W82662  23.494  43.037  10.642
 9595W        W82663   2.904  39.355   2.213
 9596W        W82664  33.369   1.357  14.853
 9597W        W82665  17.254  15.086  12.148
 9598W        W82666  18.996   4.613  12.482
 9599W        W82667  40.086   4.475   0.260
 9600W        W82668  41.735  38.000   4.148
 9601W        W82669  19.110  25.649   4.780
 9602W        W82670  13.141   7.115  12.379
 9603W        W82671  15.840  40.333   4.113
 9604W        W82672  35.000   9.778   1.482
 9605W        W82673  32.820   8.326  14.387
 9606W        W82674  36.056  14.375   0.288
 9607W        W82675   2.215  29.516  11.450
 9608W        W82676  12.503   2.294   4.176
 9609W        W82677   6.768   7.667   0.372
 9610W        W82678  14.802  29.684  11.146
 9611W        W82679  39.823  16.559   0.122
 9612W        W82680  19.186   4.788   3.689
 9613W        W82681  13.701  41.529   1.691
 9614W        W82682  29.573  35.015  11.615
 9615W        W82683   0.499  11.223  13.439
 9616W        W82684   7.667  18.489  12.249
 9617W        W82685  34.052  18.514   1.707
 9618W        W82686  17.692  24.736  13.765
 9619W        W82687  20.752  23.529   2.659
 9620W        W82688  29.899  37.123  10.670
 9621W        W82689  22.500  40.154   1.793
 9622W        W82690   5.052  23.602   2.550
 9623W        W82691  16.105  37.974  13.331
 9624W        W82692  26.183  38.337   1.814
 9625W        W82693  39.964  35.053  12.030
 9626W        W82694  15.182  35.451   4.393
 9627W        W82695  29.180  39.836   3.111
 9628W        W82696  24.667  38.417   1.866
 9629W        W82697  33.201  30.993   0.867
 9630W        W82698  30.128  35.120   4.579
 9631W        W82699  13.293  21.793   2.227
 9632W        W82700  41.292  13.176   1.340
 9633W        W82701  18.656  22.705   2.208
 9634W        W82702  21.191   9.684   4.188
 9635W        W82703  24.220  33.425   4.639
 9636W        W82704  14.978  17.143  11.370
 9637W        W82705  23.603  42.298   3.620
 9638W        W82706  15.200   7.392   4.665
 9639W        W82707  18.825  35.049   2.405
 9640W        W82708   9.708  34.846  13.660
 9641W        W82709   8.662  36.172   2.779
 9642W        W82710  19.773  22.981  11.111
 9643W        W82711  35.269   5.639  11.999
 9644W        W82712   0.371  23.654  11.207
 9645W        W82713  21.538  11.651  11.330
 9646W        W82714  17.624  23.105   0.792
 9647W        W82715   8.405  34.376   1.136
 9648W        W82716  20.686  33.928   2.840
 9649W        W82717  32.929   8.911  13.043
 9650W        W82718  18.032  19.700   4.926
 9651W        W82719  20.916  41.219  10.591
 9652W        W82720  19.444   6.022  10.941
 9653W        W82721  22.763   4.105  10.537
 9654W        W82722  34.598  24.581   1.787
 9655W        W82723   2.049  42.566   1.951
 9656W        W82724  31.152  38.015   4.046
 9657W        W82725  22.926  32.418   1.232
 9658W        W82726  16.153  36.402   1.208
 9659W        W82727  13.778  23.164   0.667
 9660W        W82728  28.070  20.297  12.029
 9661W        W82729  24.012  24.538  11.239
 9662W        W82730  34.509  35.629  14.876
 9663W        W82731   8.841  12.583  12.509
 9664W        W82732   5.854  21.371  13.082
 9665W        W82733  38.838  25.059   4.149
 9666W        W82734   3.726  10.791   4.559
 9667W        W82735   7.760  43.302   1.647
 9668W        W82736  26.780   9.700   4.106
 9669W        W82737  17.068  18.659  11.829
 9670W        W82738  19.188  28.646   0.322
 9671W        W82739  25.685   5.743   1.305
 9672W        W82740  19.776   0.962   2.217
 9673W        W82741   0.307  38.905  13.090
 9674W        W82742  23.571  36.578  12.780
 9675W        W82743   6.273  20.136  13.021
 9676W        W82744  27.130   0.409  13.115
 9677W        W82745  14.501  39.532   3.379
 9678W        W82746  30.322   1.303  11.538
 9679W        W82747  14.138   7.729  14.854
 9680W        W82748  19.547  30.739  10.382
 9681W        W82749  33.394   7.818  12.421
 9682W        W82750   8.502  34.437  10.656
 9683W        W82751  15.051  14.706  14.090
 9684W        W82752   4.306  28.440  12.648
 9685W        W82753   1.715  42.230   3.351
 9686W        W82754  35.409  36.958   2.583
 9687W        W82755  28.061  17.485  12.176
 9688W        W82756  35.005  43.049  14.458
 9689W        W82757  10.715   9.179   0.777
 9690W        W82758   5.226  35.976   1.227
 9691W        W82759   7.296  37.888  14.384
 9692W        W82760  30.136   2.298  14.770
 9693W        W82761  26.860  14.180  11.178
 9694W        W82762  21.217  37.910   1.685
 9695W        W82763  18.103  11.358   4.372
 9696W        W82764  31.964  40.441  12.557
 9697W        W82765  30.424  34.709   4.529
 9698W        W82766   0.148  29.785  13.379
 9699W        W82767  11.881  30.845  10.781
 9700W        W82768  32.603   1.000   4.315
 9701W        W82769  38.533  41.826  10.965
 9702W        W82770  16.444  22.821  12.559
 9703W        W82771  38.997  42.699   1.248
 9704W        W82772  42.831  44.706  14.860
 9705W        W82773  15.551  39.023   4.580
 9706W        W82774  16.072  42.053  10.712
 9707W        W82775   5.310  29.632   2.224
 9708W        W82776  14.198  26.497   0.219
 9709W        W82777  25.100   3.774  11.227
 9710W        W82778  33.673  25.415   0.666
 9711W        W82779  39.011  31.855   4.128
 9712W        W82780  42.622  41.386  11.233
 9713W        W82781  32.206   2.840  12.873
 9714W        W82782  36.038  16.561   2.269
 9715W        W82783   2.392  21.567   4.708
 9716W        W82784   1.007  29.928   2.934
 9717W        W82785   3.910  33.300   2.333
 9718W        W82786  43.286  18.194   4.627
 9719W        W82787  20.571  14.112  11.141
 9720W        W82788   9.493  26.868  13.302
 9721W        W82789  12.447  22.801   4.024
 9722W        W82790  28.704  32.407  13.230
 9723W        W82791  33.915  24.679   4.928
 9724W        W82792  15.515  39.768  11.503
 9725W        W82793   9.261   1.064   3.519
 9726W        W82794   2.227  26.676  10.649
 9727W        W82795  31.374  25.991  13.509
 9728W        W82796  36.464  37.626   1.651
 9729W        W82797  29.178  34.565   0.444
 9730W        W82798   2.341  31.940  12.501
 9731W        W82799  43.385   5.246  12.573
 9732W        W82800   8.644   4.781   2.254
 9733W        W82801   0.410  24.510  10.667
 9734W        W82802  21.593  20.623   3.215
 9735W        W82803  31.424  39.199  11.058
 9736W        W82804   0.502  36.194   3.797
 9737W        W82805  41.317  12.318   4.193
 9738W        W82806   2.434  43.706  14.026
 9739W        W82807  43.978  29.903   1.358
 9740W        W82808  29.450  23.740  12.688
 9741W        W82809  15.178   2.274   3.689
 9742W        W82810   5.845  34.424   3.715
 9743W        W82811   9.853   2.841   4.122
 9744W        W82812   4.414  31.551   4.588
 9745W        W82813  37.139  40.702   1.509
 9746W        W82814  11.693  27.898  10.079
 9747W        W82815  18.112  13.852   2.218
 9748W        W82816  26.922  43.364   3.366
 9749W        W82817  42.753  24.274  10.921
 9750W        W82818  24.406   2.534  10.841
 9751W        W82819  31.948  36.300   2.287
 9752W        W82820   0.961   6.739  12.892
 9753W        W82821  39.023  35.181   2.905
 9754W        W82822  30.307  38.317  14.412
 9755W        W82823  23.492  17.982   2.734
 9756W        W82824  13.322   8.145   3.280
 9757W        W82825  44.706  38.844   1.908
 9758W        W82826   8.474  30.611  13.035
 9759W        W82827   0.946   3.628  13.609
 9760W        W82828   5.350  39.014   2.937
 9761W        W82829  41.023  40.931  11.234
 9762W        W82830  18.631  25.010   1.530
 9763W        W82831  36.877  39.460   3.246
 9764W        W82832   6.755   9.788  13.815
 9765W        W82833  22.250  43.086   4.076
 9766W        W82834   3.914  43.313   2.963
 9767W        W82835  23.533  25.726  14.391
 9768W        W82836  34.159   9.394  11.487
 9769W        W82837   8.766  12.208   0.380
 9770W        W82838  34.311  21.706  11.965
 9771W        W82839  12.626  31.400   1.660
 9772W        W82840  34.692  26.583  12.058
 9773W        W82841  33.658   1.800  12.930
 9774W        W82842  26.764   8.789   4.242
 9775W        W82843  38.458  11.311   2.467
 9776W        W82844   6.382   2.196   1.833
 9777W        W82845  14.219  44.945   3.058
 9778W        W82846  34.354  27.026  12.761
 9779W        W82847   3.844   8.678   2.829
 9780W        W82848  24.121  11.260   1.335
 9781W        W82849  15.727   6.637  11.077
 9782W        W82850  19.592  22.116  10.724
 9783W        W82851  31.846  11.814   4.594
 9784W        W82852  35.395  29.479   3.987
 9785W        W82853  16.837  26.294  12.486
 9786W        W82854   1.352  18.893  12.911
 9787W        W82855  15.425  33.125   4.131
 9788W        W82856   4.765   0.850  13.435
 9789W        W82857   2.855   2.527   1.774
 9790W        W82858  27.244   0.506  12.269
 9791W        W82859  21.942  28.639  14.701
 9792W        W82860  29.482  38.582   4.307
 9793W        W82861  19.674   6.651  10.920
 9794W        W82862  41.249  15.133   3.410
 9795W        W82863  11.187  41.896   3.656
 9796W        W82864  19.114  19.846   1.799
 9797W        W82865  29.961   0.999   4.122
 9798W        W82866  41.720  12.977  12.940
 9799W        W82867  24.538  35.007   1.222
 9800W        W82868   4.178  11.789  12.477
 9801W        W82869  30.544  33.667  10.815
 9802W        W82870  30.621  16.806   2.701
 9803W        W82871  16.181  27.209  12.622
 9804W        W82872   7.808  24.277  14.485
 9805W        W82873  41.259  35.464   3.282
 9806W        W82874   6.982  19.090  10.971
 9807W        W82875  19.651   4.474   1.899
 9808W        W82876  15.736   3.396   5.233
 9809W        W82877  34.974  41.402  10.308
 9810W        W82878  20.166  18.363  14.578
 9811W        W82879  35.319  19.115   0.835
 9812W        W82880   7.390  30.184   4.119
 9813W        W82881  23.638  39.882   1.937
 9814W        W82882   0.710  10.143  12.363
 9815W        W82883  29.688  14.614  13.577
 9816W        W82884  22.442  17.264  12.040
 9817W        W82885  37.209  34.118   5.094
 9818W        W82886  36.459   9.332  14.716
 9819W        W82887   4.217  44.018   1.288
 9820W        W82888   3.286  30.009  14.551
 9821W        W82889  22.571  37.882   0.957
 9822W        W82890  41.582  16.531  11.456
 9823W        W82891   1.247  44.443  12.438
 9824W        W82892  28.105   4.680  12.059
 9825W        W82893  43.814  21.003  14.954
 9826W        W82894  24.408  26.953   0.215
 9827W        W82895   4.257  36.571   3.909
 9828W        W82896  29.198  30.246   2.235
 9829W        W82897  40.777  42.327  10.743
 9830W        W82898  31.316   0.842  12.344
 9831W        W82899   4.974  37.610  14.494
 9832W        W82900   5.355  25.546  11.301
 9833W        W82901  23.356  41.473  11.605
 9834W        W82902  42.562   3.664  10.804
 9835W        W82903   2.958  13.529  12.495
 9836W        W82904  20.150   9.079  13.919
 9837W        W82905  11.384   2.295  11.980
 9838W        W82906  16.716  20.791   1.632
 9839W        W82907  29.866  32.255  14.802
 9840W        W82908  38.371   8.649   0.826
 9841W        W82909  35.890   0.484   1.006
 9842W        W82910  23.075  28.388  13.302
 9843W        W82911  12.829   2.319   1.013
 9844W        W82912   8.604  28.221  11.103
 9845W        W82913  16.639  19.167   2.412
 9846W        W82914  40.777   6.850   0.168
 9847W        W82915  44.135   1.314  13.522
 9848W        W82916  24.655  32.256   3.285
 9849W        W82917   2.025  11.147   1.166
 9850W        W82918  43.498  18.668   2.132
 9851W        W82919   3.835  18.316  10.623
 9852W        W82920   1.190  44.264  14.325
 9853W        W82921   4.651  17.559  12.536
 9854W        W82922   2.903  35.511   4.266
 9855W        W82923  28.060  34.643  13.524
 9856W        W82924  25.479  29.891   2.711
 9857W        W82925  33.551  30.425   0.602
 9858W        W82926   2.694  20.968   1.796
 9859W        W82927  19.337  23.261   1.776
 9860W        W82928  23.131  24.436  11.687
 9861W        W82929  30.695   9.710   0.466
 9862W        W82930   0.733  38.948  14.774
 9863W        W82931  23.747  37.573  13.368
 9864W        W82932   3.528  22.508  14.550
 9865W        W82933  35.411  32.619  12.325
 9866W        W82934  21.353  42.349  12.962
 9867W        W82935   4.345  27.944  11.738
 9868W        W82936  34.910   6.708   3.568
 9869W        W82937  17.113  25.605  10.698
 9870W        W82938  28.737  20.120   0.341
 9871W        W82939  39.029  32.578  14.468
 9872W        W82940  20.469   4.207  11.371
 9873W        W82941  20.211  24.497  12.114
 9874W        W82942  27.673  28.000   3.337
 9875W        W82943  37.933   6.722  13.272
 9876W        W82944  41.916   6.194  11.568
 9877W        W82945  19.173  25.413   3.796
 9878W        W82946  19.991  33.584  13.370
 9879W        W82947  42.463  22.318   1.524
 9880W        W82948  22.642  23.570  14.582
 9881W        W82949  12.676  40.578  10.915
 9882W        W82950  34.997  42.837  12.425
 9883W        W82951   1.519  44.488  11.055
 9884W        W82952   4.953  21.589  11.865
 9885W        W82953  39.073  40.310  14.948
 9886W        W82954  18.993  29.997  11.454
 9887W        W82955  24.679  11.278   0.916
 9888W        W82956  43.085  12.835   0.219
 9889W        W82957  42.059  28.846  13.082
 9890W        W82958  41.082  24.314  13.033
 9891W        W82959  22.459  11.250  14.078
 9892W        W82960  23.349  10.367   4.057
 9893W        W82961  10.777  36.958   4.279
 9894W        W82962   6.320  42.074   1.879
 9895W        W82963  14.747  24.724   4.070
 9896W        W82964  28.068   4.847   3.489
 9897W        W82965   7.220  27.086  12.968
 9898W        W82966  22.061   3.545  12.651
 9899W        W82967  39.795  19.758   2.297
 9900W        W82968  36.558   0.022   3.942
 9901W        W82969  42.268  33.859  11.512
 9902W        W82970  17.076  35.125   2.954
 9903W        W82971   6.339  34.050  14.831
 9904W        W82972  38.893  10.390  12.022
 9905W        W82973  18.815   1.394  12.001
 9906W        W82974   1.913   6.896   3.666
 9907W        W82975   4.452  14.805   3.726
 9908W        W82976  31.703   5.942  11.600
 9909W        W82977  26.013  44.053   1.417
 9910W        W82978  10.302   2.815   3.869
 9911W        W82979  11.078   0.734  14.360
 9912W        W82980  41.830  44.796   1.205
 9913W        W82981  17.549  15.661  10.633
 9914W        W82982   6.733  13.652   2.161
 9915W        W82983   2.718  14.098  12.927
 9916W        W82984  23.138  43.412   3.632
 9917W        W82985   7.185  36.299   4.864
 9918W        W82986   7.164   9.282   0.944
 9919W        W82987  23.088   5.682  14.014
 9920W        W82988  35.348  33.512  12.412
 9921W        W82989  19.627  34.877  11.115
 9922W        W82990  18.130  13.107   1.017
 9923W        W82991  12.818  44.980   2.939
 9924W        W82992   4.920   5.188  14.889
 9925W        W82993  38.893  14.589  12.969
 9926W        W82994   3.015  42.232   2.045
 9927W        W82995  28.002  13.358  14.823
 9928W        W82996   5.709  44.234   3.210
 9929W        W82997  41.052  44.299  14.299
 9930W        W82998  31.710   5.265   4.686
 9931W        W82999  32.180   8.189   1.680
 9932W        W83000  12.657  22.217  10.599
 9933W        W83001  20.826  38.277  11.244
 9934W        W83002  27.581  19.503   4.243
 9935W        W83003   4.297  44.325  13.920
 9936W        W83004  21.029  15.511  12.717
 9937W        W83005   3.445  19.785   4.198
 9938W        W83006   0.589  17.651   1.617
 9939W        W83007  37.564  40.737   1.219
 9940W        W83008  44.408   3.108  10.592
 9941W        W83009   3.784  27.226  12.570
 9942W        W83010  17.430   3.151  11.874
 9943W        W83011  13.324  18.485  13.508
 9944W        W83012  33.501   6.819   0.845
 9945W        W83013   7.140  39.868   3.497
 9946W        W83014   6.071  28.573  14.427
 9947W        W83015  43.853   7.342   3.574
 9948W        W83016  12.583  12.343  11.599
 9949W        W83017  10.136  31.042  13.845
 9950W        W83018  19.098  28.594   1.253
 9951W        W83019  11.094  17.017  11.921
 9952W        W83020   8.433  21.566   2.656
 9953W        W83021  18.081   0.219  13.946
 9954W        W83022  17.502  15.716  13.042
 9955W        W83023  34.071  22.525  14.973
 9956W        W83024   4.996  11.856   1.948
 9957W        W83025  38.069  25.262  12.954
 9958W        W83026  41.550   6.257   5.071
 9959W        W83027  30.904  20.521  12.132
 9960W        W83028  41.809   1.394  11.621
 9961W        W83029   4.235  14.405   1.222
 9962W        W83030  17.262  10.779   3.169
 9963W        W83031  23.201  34.318  11.493
 9964W        W83032   9.321  40.445  12.930
 9965W        W83033  39.452  28.096   1.402
 9966W        W83034  20.906  35.880  12.911
 9967W        W83035  13.622   4.157  12.970
 9968W        W83036  41.361   9.362   1.486
 9969W        W83037  24.014  19.576  14.217
 9970W        W83038  30.415  10.880   1.787
 9971W        W83039  36.579   5.828  13.050
 9972W        W83040  22.535   6.933   3.358
 9973W        W83041  17.594  30.133   2.777
 9974W        W83042   4.669  37.037  10.615
 9975W        W83043  29.913  16.054  12.528
 9976W        W83044  31.187   2.090  13.380
 9977W        W83045   9.263  10.167  13.916
 9978W        W83046  23.771  40.981   0.935
 9979W        W83047  26.928  18.769  12.019
 9980W        W83048  23.503   4.861  13.415
 9981W        W83049  18.920   9.021   3.736
 9982W        W83050  29.059  42.597  10.443
 9983W        W83051  30.916  20.951   1.838
 9984W        W83052  16.657  44.439   0.764
 9985W        W83053  16.301   0.416  14.351
 9986W        W83054  43.897   4.507  14.386
 9987W        W83055   3.434   8.416   3.218
 9988W        W83056  30.531  13.105  14.563
 9989W        W83057   2.276   9.262   0.248
 9990W        W83058  25.542   2.746   2.379
 9991W        W83059  20.076  18.289   1.419
 9992W        W83060  26.869  42.355   2.337
 9993W        W83061  38.903  29.456  10.769
 9994W        W83062   2.761  11.443   2.197
 9995W        W83063  28.853  29.201  13.354
 9996W        W83064  39.556  36.965  12.836
 9997W        W83065  10.253  28.640  13.813
 9998W        W83066   6.461  24.149   0.018
 9999W        W83067   4.439   6.167   3.641
10000W        W83068   9.275   1.476   4.508
10001W        W83069   9.456   6.665   2.027
10002W        W83070  23.086   4.938  10.595
10003W        W83071  28.147  40.276   2.203
10004W        W83072  26.513  41.558   3.700
10005W        W83073  21.656  33.604  10.648
10006W        W83074  16.828  17.015   3.734
10007W        W83075  43.542  44.850  14.400
10008W        W83076  33.410   6.935  10.197
10009W        W83077  27.620  17.174   4.611
10010W        W83078  17.827   8.878  14.488
10011W        W83079  13.604  34.565   2.359
10012W        W83080   5.506  39.473   4.787
10013W        W83081   3.039  29.503  10.841
10014W        W83082  34.934  22.114  13.239
10015W        W83083  42.275   2.646   1.265
10016W        W83084  36.356  39.983  14.746
10017W        W83085  11.234   6.804  12.966
10018W        W83086  13.711  29.635   4.121
10019W        W83087   1.561  20.106   1.813
10020W        W83088   7.394  32.657  14.297
10021W        W83089  36.197  24.802  11.547
10022W        W83090  26.439  39.359   0.239
10023W        W83091  36.654  14.681  13.862
10024W        W83092  41.457   3.472   0.392
10025W        W83093  31.505  43.330   4.865
10026W        W83094   1.561  30.902  11.092
10027W        W83095   1.853  12.354   4.665
10028W        W83096  21.596  38.652  11.528
10029W        W83097   7.305  26.668  10.203
10030W        W83098  10.676  11.248   4.612
10031W        W83099  20.046  36.041   3.666
10032W        W83100  10.246  16.613   5.840
10033W        W83101  19.671  19.200   4.316
10034W        W83102  32.675  35.048  10.692
10035W        W83103  18.051  30.368   3.412
10036W        W83104  35.320  28.366   0.191
10037W        W83105   7.727  32.444   0.922
10038W        W83106  35.955   8.673   3.765
10039W        W83107  38.363  10.581   0.309
10040W        W83108  39.411  34.471   2.401
10041W        W83109  34.923  10.947  14.853
10042W        W83110  25.600  13.571  10.474
10043W        W83111   2.223  24.633  12.555
10044W        W83112   7.183  40.519   5.151
10045W        W83113  26.699   3.934   4.551
10046W        W83114  41.753  37.381  11.496
10047W        W83115  33.056  36.904  10.348
10048W        W83116  42.236   1.927   2.202
10049W        W83117  43.849  37.818  14.919
10050W        W83118  21.219  41.847  14.946
10051W        W83119  12.303  28.799  14.021
10052W        W83120  39.017  27.672   1.877
10053W        W83121   3.214  41.964  10.766
10054W        W83122  34.577  18.153   4.289
10055W        W83123   2.083  30.745  14.346
10056W        W83124  20.308   4.209  12.404
10057W        W83125  14.204  11.172   2.798
10058W        W83126  17.824  13.146   0.194
10059W        W83127  11.616  11.202  14.069
10060W        W83128  11.859  35.455  11.925
10061W        W83129   7.707  35.044  10.731
10062W        W83130  12.793  21.058  14.841
10063W        W83131  31.897  39.340   0.215
10064W        W83132  31.459  23.542   4.698
10065W        W83133   6.390   6.985  12.804
10066W        W83134  33.092  20.328   0.295
10067W        W83135  13.250   6.225   0.413
10068W        W83136   9.646  21.974   3.214
10069W        W83137  31.038  23.827   4.536
10070W        W83138  35.025  16.927   4.933
10071W        W83139  15.031  44.590   3.196
10072W        W83140   2.832  39.988   3.340
10073W        W83141  13.634  30.447   4.614
10074W        W83142  20.532  30.271  14.582
10075W        W83143  35.899  29.562   1.329
10076W        W83144  28.172  31.500  13.497
10077W        W83145  16.188  40.578  13.369
10078W        W83146  22.725  16.168  13.876
10079W        W83147   4.943  30.062  13.851
10080W        W83148  33.777   5.202   4.151
10081W        W83149  19.986  21.763   3.715
10082W        W83150  19.921  19.348   2.855
10083W        W83151  19.287   9.670   1.701
10084W        W83152  26.670  26.205  12.794
10085W        W83153  23.347  11.877  11.683
10086W        W83154   9.894   9.832  10.448
10087W        W83155  20.223   4.965   1.261
10088W        W83156  33.704  23.276   2.307
10089W        W83157   5.777  12.645   1.369
10090W        W83158  20.629  11.054   3.393
10091W        W83159  31.183  10.623  11.106
10092W        W83160  20.055  29.563   5.029
10093W        W83161  17.268   6.681   2.891
10094W        W83162   9.784  31.932   2.176
10095W        W83163   0.972   4.779   2.748
10096W        W83164  43.497  31.180   1.255
10097W        W83165  12.656  41.907  11.870
10098W        W83166   6.805  38.940   4.759
10099W        W83167  27.419  34.820  14.272
10100W        W83168   5.339   4.286   2.856
10101W        W83169  29.972   6.383  12.853
10102W        W83170   2.894  17.531   1.362
10103W        W83171  39.210  26.762  11.110
10104W        W83172   2.511   4.831   1.970
10105W        W83173  36.410  11.308   4.439
10106W        W83174  39.282  43.503  11.974
10107W        W83175  24.940  41.360  13.531
10108W        W83176   6.648  28.460  14.389
10109W        W83177  34.823  12.642  13.921
10110W        W83178  42.633  31.328  13.070
10111W        W83179  29.017   2.962  11.611
10112W        W83180  34.644   1.951   2.964
10113W        W83181  33.118  24.690  12.642
10114W        W83182  32.939  13.712  13.384
10115W        W83183  12.326  30.023   0.468
10116W        W83184  32.445  44.492  11.201
10117W        W83185   6.360  43.871  11.072
10118W        W83186  24.343  17.056  11.297
10119W        W83187  24.966  15.233  12.451
10120W        W83188  38.191   0.414  10.204
10121W        W83189   9.089  23.717  12.029
10122W        W83190  30.478   6.254  12.912
10123W        W83191  37.291  12.290   1.767
10124W        W83192   5.694  13.897   0.157
10125W        W83193  38.964  20.649  11.121
10126W        W83194  41.535  24.511   0.314
10127W        W83195  15.670   4.453  13.612
10128W        W83196  21.581  35.327   2.689
10129W        W83197  13.163  12.655   1.526
10130W        W83198  32.127  36.981  12.456
10131W        W83199  27.399  12.160  13.745
10132W        W83200  19.733   0.951   0.361
10133W        W83201  33.707  24.456   0.491
10134W        W83202  43.770   9.100  12.527
10135W        W83203  19.582   3.484  14.436
10136W        W83204  24.206  41.854  11.653
10137W        W83205   8.734  15.510  12.812
10138W        W83206  27.427  23.713  11.349
10139W        W83207  15.209  27.722  14.095
10140W        W83208  35.827  39.234  11.894
10141W        W83209  19.149  20.093  13.401
10142W        W83210  42.363  37.617   0.870
10143W        W83211  18.660   0.389  13.901
10144W        W83212  16.231  38.910   3.797
10145W        W83213   9.538  40.112   5.423
10146W        W83214  12.136  13.240  13.809
10147W        W83215  44.278  43.924   0.714
10148W        W83216  35.292  10.862   2.619
10149W        W83217  26.349  11.959  14.048
10150W        W83218   8.846   0.281  13.588
10151W        W83219   8.056   0.969   1.100
10152W        W83220  27.077  40.232  11.222
10153W        W83221  32.865  19.706  12.034
10154W        W83222   4.498   1.209   2.621
10155W        W83223  13.848  28.695  12.605
10156W        W83224   6.926  34.839  11.179
10157W        W83225  11.404  26.486  14.384
10158W        W83226  28.156  10.334   1.448
10159W        W83227  42.128  16.575  12.071
10160W        W83228  18.592  31.109  14.372
10161W        W83229  10.409  41.823   0.412
10162W        W83230  28.687  29.085  13.919
10163W        W83231  27.501  37.832   3.437
10164W        W83232   6.209  24.450  12.407
10165W        W83233  33.446  39.488  11.448
10166W        W83234  34.813  20.153   1.344
10167W        W83235  20.879  30.566   1.917
10168W        W83236  33.947  15.784   1.285
10169W        W83237  20.697  13.270   4.229
10170W        W83238  43.789  25.744  11.950
10171W        W83239  18.608  22.293   3.408
10172W        W83240  24.012   6.410   4.157
10173W        W83241  35.288  32.627   1.580
10174W        W83242  12.658  25.129   3.683
10175W        W83243  20.835   1.886   3.849
10176W        W83244  26.969   0.032  11.558
10177W        W83245  43.778  38.907  14.289
10178W        W83246  21.107   2.711  14.648
10179W        W83247  38.730  37.423   2.305
10180W        W83248  14.383  19.756  14.904
10181W        W83249  28.559  36.080   1.335
10182W        W83250  20.435  16.575   0.767
10183W        W83251  41.248  13.767  10.419
10184W        W83252  44.931  22.041   3.940
10185W        W83253  28.669  41.390  11.071
10186W        W83254   0.502  28.532   3.776
10187W        W83255  21.634  30.646   4.320
10188W        W83256  28.677  30.843   3.668
10189W        W83257  39.766  26.432  12.848
10190W        W83258  26.282  10.247  14.355
10191W        W83259   1.041   0.274   2.425
10192W        W83260  43.400  42.082  10.389
10193W        W83261  40.367  28.654  13.922
10194W        W83262  18.990   9.085  12.038
10195W        W83263   2.976  26.959   2.277
10196W        W83264  25.724  22.588   0.480
10197W        W83265   3.483  30.611  10.716
10198W        W83266   6.805  18.000  13.393
10199W        W83267  25.686   6.810  14.792
10200W        W83268  33.972   6.129  14.763
10201W        W83269  14.096   8.206   1.865
10202W        W83270  17.994  43.930  13.928
10203W        W83271  13.847  11.903   0.685
10204W        W83272  24.578  32.766   3.313
10205W        W83273  14.803   8.191   3.692
10206W        W83274   7.457  13.781  14.773
10207W        W83275  19.199  34.751   0.983
10208W        W83276   9.162  11.188   1.455
10209W        W83277   4.085  15.680   1.114
10210W        W83278   9.486  24.490   1.327
10211W        W83279   6.863  44.368  14.512
10212W        W83280   2.427  44.157  14.840
10213W        W83281   9.742  14.106  13.517
10214W        W83282  22.053   1.232   0.345
10215W        W83283  20.699  26.937   2.783
10216W        W83284  42.754  34.850  10.736
10217W        W83285  34.579  19.376   1.959
10218W        W83286   6.228  13.746   0.953
10219W        W83287  13.157  16.355  12.322
10220W        W83288  31.468  30.019   3.124
10221W        W83289  40.735  32.949  11.013
10222W        W83290  16.318  42.486  11.544
10223W        W83291  42.496  22.797   1.333
10224W        W83292  23.705  15.182   0.961
10225W        W83293  16.814  19.049  14.885
10226W        W83294   7.840  17.802   3.649
10227W        W83295  20.559  36.369   4.025
10228W        W83296  17.802   2.249   0.506
10229W        W83297  37.752  27.508   1.787
10230W        W83298  12.567  16.436   3.253
10231W        W83299  19.299  34.835  14.451
10232W        W83300   5.699  41.049   0.293
10233W        W83301  14.760  28.615  13.046
10234W        W83302   0.244   9.907   3.218
10235W        W83303   2.624   9.091   3.615
10236W        W83304   5.360  25.667  10.804
10237W        W83305  18.265  10.921   4.608
10238W        W83306  17.600  28.029  13.422
10239W        W83307   8.386   9.424   2.254
10240W        W83308  36.462  44.006  14.492
10241W        W83309  27.748  36.049  11.594
10242W        W83310  42.718  40.014  13.000
10243W        W83311  39.037  41.324  13.038
10244W        W83312  43.867   2.734  14.333
10245W        W83313  41.168  36.953   3.288
10246W        W83314  24.528  19.853  11.998
10247W        W83315  20.257  17.976  14.894
10248W        W83316  37.340   0.750  11.383
10249W        W83317  32.114  28.980   4.551
10250W        W83318   6.732  26.063   0.510
10251W        W83319  24.583  42.277   2.913
10252W        W83320  25.763  31.879  11.189
10253W        W83321   6.786   9.596  11.930
10254W        W83322  10.205   8.244  11.666
10255W        W83323  36.664  42.826  10.669
10256W        W83324   3.372  40.653   3.207
10257W        W83325  14.722  12.913  14.373
10258W        W83326   4.057   3.545  11.581
10259W        W83327  35.899  11.081  13.881
10260W        W83328   5.905  20.961  14.784
10261W        W83329   4.274  43.128   1.368
10262W        W83330  34.094  16.564  10.300
10263W        W83331  43.543  23.936   2.528
10264W        W83332  38.319   8.437   1.303
10265W        W83333   6.192  39.064  14.711
10266W        W83334   9.145   1.931   2.794
10267W        W83335  43.738   5.701  12.981
10268W        W83336  22.404   9.075   3.773
10269W        W83337  31.907  23.813   1.302
10270W        W83338   4.645  26.460  14.356
10271W        W83339  44.068  16.227   2.780
10272W        W83340   3.893  12.635   1.330
10273W        W83341   7.876  27.666   0.897
10274W        W83342  14.074  18.715  13.005
10275W        W83343   4.981  37.097  11.991
10276W        W83344   2.215  21.139  14.017
10277W        W83345   0.153  32.039   1.296
10278W        W83346   0.510  26.322   2.617
10279W        W83347  23.460  37.360  14.764
10280W        W83348   1.260  20.927   1.796
10281W        W83349  24.560  36.564  11.282
10282W        W83350  16.609  16.555  11.482
10283W        W83351   6.836  32.622  13.829
10284W        W83352  42.832  20.506  12.567
10285W        W83353  21.819  14.308  10.692
10286W        W83354  14.287  38.907  12.667
10287W        W83355  23.677  19.644   0.989
10288W        W83356   5.302   5.169   2.213
10289W        W83357   0.857  23.359  13.942
10290W        W83358  10.886   2.553   0.613
10291W        W83359  26.911  22.940   2.370
10292W        W83360  27.007  34.521   4.680
10293W        W83361  17.638  18.618  12.064
10294W        W83362  36.970  12.193   3.219
10295W        W83363   0.249  13.231  13.160
10296W        W83364  15.406   1.230   2.680
10297W        W83365  36.955   1.478   2.231
10298W        W83366  31.990  17.707   1.634
10299W        W83367   8.360  44.094  12.125
10300W        W83368   4.390  16.775  13.614
10301W        W83369  37.107   8.763  13.861
10302W        W83370  32.685  30.955   3.098
10303W        W83371  27.337  41.365   2.582
10304W        W83372  18.490  23.386   0.667
10305W        W83373  23.727  18.098   1.899
10306W        W83374  16.234  34.446  11.609
10307W        W83375  36.989  23.437  13.022
10308W        W83376   2.488  20.983   3.700
10309W        W83377  43.854   7.178  12.783
10310W        W83378  39.497  42.921   1.258
10311W        W83379  19.500   7.002   3.701
10312W        W83380  41.454   3.385  13.472
10313W        W83381   0.349  24.294  14.906
10314W        W83382  16.498  24.148   4.478
10315W        W83383  11.296  12.363  12.928
10316W        W83384  26.581   5.687   0.652
10317W        W83385  36.363   7.777  10.549
10318W        W83386  43.346  24.693  12.034
10319W        W83387   7.956  25.107  10.801
10320W        W83388  12.670   9.422  14.207
10321W        W83389  28.001   2.511  12.585
10322W        W83390  34.815   3.755  11.106
10323W        W83391   7.393  19.118  14.908
10324W        W83392   4.639  43.959  14.453
10325W        W83393  34.405   1.758   0.947
10326W        W83394  40.823   0.245   1.179
10327W        W83395  28.108  30.882   1.369
10328W        W83396  27.032  11.732   3.785
10329W        W83397   0.891  41.771  14.715
10330W        W83398   9.722  29.178  13.042
10331W        W83399  20.067   3.914   4.153
10332W        W83400  38.600  17.805   0.403
10333W        W83401   7.911  13.220  12.370
10334W        W83402  39.260   0.837  14.846
10335W        W83403  27.831  26.401  11.569
10336W        W83404  17.542  22.412   0.452
10337W        W83405  39.915   4.720  11.596
10338W        W83406  24.026  35.994   1.471
10339W        W83407  42.117  31.499  14.769
10340W        W83408   5.780  27.450  10.511
10341W        W83409  41.957  33.898   3.554
10342W        W83410  26.595   7.637   2.949
10343W        W83411  21.534  43.519  12.334
10344W        W83412  37.234  21.347   5.098
10345W        W83413   0.541  31.094   2.400
10346W        W83414  13.078  30.943   2.863
10347W        W83415  37.510  37.933   1.134
10348W        W83416  27.639  42.243  11.565
10349W        W83417   8.609  10.621   4.111
10350W        W83418  21.133  31.638  11.911
10351W        W83419  14.315  25.235   2.695
10352W        W83420  13.641  16.640  14.308
10353W        W83421  31.602  26.917   9.998
10354W        W83422  23.559  13.100  13.915
10355W        W83423  12.882  26.718  11.437
10356W        W83424  12.384  42.358  10.756
10357W        W83425  23.508  31.575   3.628
10358W        W83426  30.036  10.312  14.286
10359W        W83427  29.576   8.132   1.847
10360W        W83428  24.618  30.744  12.475
10361W        W83429  35.883  32.870   4.110
10362W        W83430  40.680  40.023  11.068
10363W        W83431  30.551   3.353  12.977
10364W        W83432  12.091  31.005  12.159
10365W        W83433  24.014   9.861  12.931
10366W        W83434  30.525  36.331   3.844
10367W        W83435   2.783  11.575   0.542
10368W        W83436  24.183  24.978   1.817
10369W        W83437  29.655   0.224   4.029
10370W        W83438  29.476  25.013   0.455
10371W        W83439  33.964  33.963  12.648
10372W        W83440  32.357  42.461   0.936
10373W        W83441  35.574  13.714  10.979
10374W        W83442  25.127  43.885  10.753
10375W        W83443  41.338  42.921   3.665
10376W        W83444  14.113  15.713   4.165
10377W        W83445   0.120  20.611  14.446
10378W        W83446  16.611  40.081   3.235
10379W        W83447  10.183  18.989   2.843
10380W        W83448  36.993  18.630   1.154
10381W        W83449  18.906  20.378   4.076
10382W        W83450  35.907  23.171   3.747
10383W        W83451   5.839  33.882   3.765
10384W        W83452   3.755  31.894  11.611
10385W        W83453  42.465  18.587  14.434
10386W        W83454  40.523  18.364   3.752
10387W        W83455  37.806  35.644  10.121
10388W        W83456  18.820  27.990  13.970
10389W        W83457   1.284   8.671   0.706
10390W        W83458   4.344   6.377  14.489
10391W        W83459  43.415   1.861  13.362
10392W        W83460  16.918  14.626   2.274
10393W        W83461   6.484   2.408  13.051
10394W        W83462  44.596  21.976  12.191
10395W        W83463  35.447  13.580   4.311
10396W        W83464  10.698  18.050  13.697
10397W        W83465  41.861  28.078   4.068
10398W        W83466  32.120  12.595   3.415
10399W        W83467  40.879  24.153   3.275
10400W        W83468  28.207  24.288   3.304
10401W        W83469  30.051  27.961  12.068
10402W        W83470   0.822  39.067  12.934
10403W        W83471  44.293  19.293  14.855
10404W        W83472   8.211   4.455   0.829
10405W        W83473  34.723   3.519   5.060
10406W        W83474  14.679   0.984  13.036
10407W        W83475  12.631  20.522  13.026
10408W        W83476  30.114  16.271   0.843
10409W        W83477   8.703  34.903   1.709
10410W        W83478  13.118  21.658   4.654
10411W        W83479  27.639  28.534   1.673
10412W        W83480  22.050  18.925   5.422
10413W        W83481  16.609   6.675   2.180
10414W        W83482   2.502   7.070  10.123
10415W        W83483   6.335  14.107  13.093
10416W        W83484  10.744   4.171  14.781
10417W        W83485  37.805  22.583  13.585
10418W        W83486  17.695   3.788  13.144
10419W        W83487  29.069  39.144   0.702
10420W        W83488  28.645  30.621   1.249
10421W        W83489   2.650  41.792   2.805
10422W        W83490  29.602  18.356  13.338
10423W        W83491  26.210  38.121   3.168
10424W        W83492  29.730  40.459  13.060
10425W        W83493  28.288  28.068   5.042
10426W        W83494   0.246  19.934  11.265
10427W        W83495   2.959  40.742  14.839
10428W        W83496   8.196  33.583   4.774
10429W        W83497  38.109  12.345   1.341
10430W        W83498  41.730  25.032  11.675
10431W        W83499  41.983   7.493  11.937
10432W        W83500   6.294  36.843   2.551
10433W        W83501  40.803  35.130  14.917
10434W        W83502  15.619   9.417   0.827
10435W        W83503  37.017  28.137   2.751
10436W        W83504  27.030   5.838   4.518
10437W        W83505  11.099  42.359   0.296
10438W        W83506  42.353  35.662   2.197
10439W        W83507   7.859   3.770   2.423
10440W        W83508  42.419  15.195  13.857
10441W        W83509   7.714  38.670  11.124
10442W        W83510  24.740   0.370   2.208
10443W        W83511   0.673  22.749   1.409
10444W        W83512  10.135   1.835   2.718
10445W        W83513  22.809  12.271   1.425
10446W        W83514  16.834  16.694  12.523
10447W        W83515  33.652  30.421  12.101
10448W        W83516  16.649  33.439   3.137
10449W        W83517  22.189  23.631   2.445
10450W        W83518  27.676  25.131  12.018
10451W        W83519  24.230   2.100  11.508
10452W        W83520  44.374   2.950   2.676
10453W        W83521  42.331   1.661   2.628
10454W        W83522  18.350  40.320   2.179
10455W        W83523   1.892  25.990  11.815
10456W        W83524  19.207  34.860   4.639
10457W        W83525  35.874  34.937  11.000
10458W        W83526  41.786   1.223   4.227
10459W        W83527   8.721  44.182   3.595
10460W        W83528  34.157  29.104  14.817
10461W        W83529  41.897  35.943  11.026
10462W        W83530  39.109  25.032   5.109
10463W        W83531  29.989  24.605  12.928
10464W        W83532  14.339  22.577   3.608
10465W        W83533  40.031  28.690  12.095
10466W        W83534   2.925  21.026  12.303
10467W        W83535  42.932  19.985   4.576
10468W        W83536   3.707  44.769  14.883
10469W        W83537  26.682  21.640   2.782
10470W        W83538  26.613  35.568  10.849
10471W        W83539  43.502   8.067   0.062
10472W        W83540  38.073   4.470  11.488
10473W        W83541  32.179   5.287   1.283
10474W        W83542  19.152   7.460  11.106
10475W        W83543  41.521   9.525   3.113
10476W        W83544   5.970  26.651   1.730
10477W        W83545  40.965  37.105  13.110
10478W        W83546  10.319   3.574   4.174
10479W        W83547  15.132   6.270  13.769
10480W        W83548  11.621  42.055   2.871
10481W        W83549  26.978  33.608  13.937
10482W        W83550  38.805   7.204  13.984
10483W        W83551  26.014  34.662   4.505
10484W        W83552  35.653  21.758   3.309
10485W        W83553  34.449  18.567  12.519
10486W        W83554  35.702   5.029   2.730
10487W        W83555  34.043  43.298  13.878
10488W        W83556   8.101  25.481   4.176
10489W        W83557  18.132  43.263  13.395
10490W        W83558  30.578  43.052   3.335
10491W        W83559  18.992   2.943   2.866
10492W        W83560  36.843  34.049   3.177
10493W        W83561   4.173   2.797  12.054
10494W        W83562  33.175  40.604   3.245
10495W        W83563  39.083  20.678   0.799
10496W        W83564  37.455  44.722   4.055
10497W        W83565  33.394  21.723   2.394
10498W        W83566  33.085  21.400  11.131
10499W        W83567  19.121  28.375   3.134
10500W        W83568  40.809  20.739  14.407
10501W        W83569  25.166  43.245   4.125
10502W        W83570  17.506  16.134  14.596
10503W        W83571   8.442  43.796  10.307
10504W        W83572  30.472  32.538  12.959
10505W        W83573  12.696   7.226  12.605
10506W        W83574   8.808  41.844   3.741
10507W        W83575  28.040  29.425  12.499
10508W        W83576  23.479  22.473  10.769
10509W        W83577  24.925   9.691   3.701
10510W        W83578  36.649  24.230   1.409
10511W        W83579  33.861  29.586  13.920
10512W        W83580  42.799   7.364  13.533
10513W        W83581  18.478  14.633   0.820
10514W        W83582  28.489   0.860  12.926
10515W        W83583   9.269  25.123   2.734
10516W        W83584   2.409   6.681   2.761
10517W        W83585   5.992  27.106   4.147
10518W        W83586  16.273  21.266   5.058
10519W        W83587   5.924  20.789  12.423
10520W        W83588   2.513  40.768  11.094
10521W        W83589  43.516  17.523  13.780
10522W        W83590  40.583  37.839   0.918
10523W        W83591  20.640  11.385   1.552
10524W        W83592  31.633  12.274   4.610
10525W        W83593  28.243  38.555  14.334
10526W        W83594  31.148  27.606  12.558
10527W        W83595   3.342  13.893   4.157
10528W        W83596  41.232   9.477   2.708
10529W        W83597  25.694  22.562  12.012
10530W        W83598  11.843   7.784   2.822
10531W        W83599  17.649  10.140   3.240
10532W        W83600  25.719  27.243  11.161
10533W        W83601  28.005  26.748  11.250
10534W        W83602   8.788  15.835   2.836
10535W        W83603  35.392  24.175   1.896
10536W        W83604  32.776   0.753   3.809
10537W        W83605  34.748  25.469   3.204
10538W        W83606  40.432  31.871   3.211
10539W        W83607  29.765  42.512  14.787
10540W        W83608  28.408  33.405  11.083
10541W        W83609   4.370  23.835   9.950
10542W        W83610   5.203  33.684   3.294
10543W        W83611  15.307  19.234   3.207
10544W        W83612  34.791  27.160   1.709
10545W        W83613   8.209   8.694   4.594
10546W        W83614  10.666  33.151  11.600
10547W        W83615  33.020  28.962   3.464
10548W        W83616  41.327  42.979  11.485
10549W        W83617  16.108  33.479  10.693
10550W        W83618  14.673  25.452   4.928
10551W        W83619  23.530  19.016   2.850
10552W        W83620  11.099   7.124   4.877
10553W        W83621  38.287  44.859  14.731
10554W        W83622  16.580   5.043  10.385
10555W        W83623  24.241  27.267   2.258
10556W        W83624  17.633  27.182   1.870
10557W        W83625   7.869  33.987  13.438
10558W        W83626  27.233  38.049   4.677
10559W        W83627   2.220   1.222  12.857
10560W        W83628  18.154   5.747   2.245
10561W        W83629  21.599  21.489  14.982
10562W        W83630  37.796  34.154   4.414
10563W        W83631  24.525  34.346  11.603
10564W        W83632  39.541  19.523  11.874
10565W        W83633   8.593  23.222  10.807
10566W        W83634  39.053  30.568   3.780
10567W        W83635  13.114  16.238   3.987
10568W        W83636  24.632  33.379   1.332
10569W        W83637  24.576   7.110   0.264
10570W        W83638  28.234  42.236  14.878
10571W        W83639  18.110  30.297  10.914
10572W        W83640  22.585  26.452   4.685
10573W        W83641  29.363   3.339  11.658
10574W        W83642  11.374  38.572  14.423
10575W        W83643  41.062  20.635   2.749
10576W        W83644   6.108  32.591  14.874
10577W        W83645  18.909   4.740  11.060
10578W        W83646  21.513  44.684  10.920
10579W        W83647  30.618  23.775   3.370
10580W        W83648  40.499  35.172  12.075
10581W        W83649  26.999  21.507  11.603
10582W        W83650  44.226   8.434  10.673
10583W        W83651  36.906   0.418   3.860
10584W        W83652  19.118  16.182  14.375
10585W        W83653   3.277   3.303   4.122
10586W        W83654  40.260  38.083   4.310
10587W        W83655   3.811  33.060  13.433
10588W        W83656  22.796  11.881   9.967
10589W        W83657  41.428  27.681   1.022
10590W        W83658   2.803  23.392   4.837
10591W        W83659  25.721  20.609  12.096
10592W        W83660  24.036  14.404  13.995
10593W        W83661  22.644  15.099   0.180
10594W        W83662  31.386   0.422  11.567
10595W        W83663  15.144  37.332   4.676
10596W        W83664   0.114  11.394   1.306
10597W        W83665  30.511  17.108  12.934
10598W        W83666  34.997  20.520   4.572
10599W        W83667  19.134  33.937  14.976
10600W        W83668  21.004  30.680  10.990
10601W        W83669  41.331  34.343   1.924
10602W        W83670  39.782  20.564  14.784
10603W        W83671  15.882  12.730  14.957
10604W        W83672  30.290  19.339   0.371
10605W        W83673   1.835  11.803  10.813
10606W        W83674  24.729   5.709   2.746
10607W        W83675  15.452   8.947   1.730
10608W        W83676   3.538  38.668  10.239
10609W        W83677  13.582  25.681   0.409
10610W        W83678   7.666  27.672  12.306
10611W        W83679  24.250   6.728   1.662
10612W        W83680   6.941  29.533   1.421
10613W        W83681   3.697  26.055  14.364
10614W        W83682   8.380   1.050   1.537
10615W        W83683  18.596  28.532   1.407
10616W        W83684  42.806  25.660   1.286
10617W        W83685  38.712  34.377  13.355
10618W        W83686   2.169  16.318   3.852
10619W        W83687  41.291   4.195  13.043
10620W        W83688  24.599   8.145   3.371
10621W        W83689  26.044  22.287   1.666
10622W        W83690  34.870  39.123   2.269
10623W        W83691  16.964  24.126  12.072
10624W        W83692  23.674  16.703   0.132
10625W        W83693  21.943  27.955  10.152
10626W        W83694  38.080  33.562   3.623
10627W        W83695  18.695  26.730  11.319
10628W        W83696  26.914  26.770   3.185
10629W        W83697  24.774  33.035  13.474
10630W        W83698  20.999  10.122  12.821
10631W        W83699  13.206  27.204   2.690
10632W        W83700  11.184  13.161  14.534
10633W        W83701   0.733  12.415   0.378
10634W        W83702  27.977   8.833  13.300
10635W        W83703  16.607   7.586   2.783
10636W        W83704  34.390  28.146  13.481
10637W        W83705  39.425  43.504  14.933
10638W        W83706  37.871  44.575  10.689
10639W        W83707   5.195  10.913   0.275
10640W        W83708  33.062  21.194   1.276
10641W        W83709  34.943  33.076  13.189
10642W        W83710  34.468  12.597  14.296
10643W        W83711  29.392  12.107  14.977
10644W        W83712  18.628  41.255  14.603
10645W        W83713  32.018  25.960   1.914
10646W        W83714  11.424   5.242   1.515
10647W        W83715  10.472  41.543  12.648
10648W        W83716  41.184  33.652  14.825
10649W        W83717  36.870  18.610   4.593
10650W        W83718   9.366   4.438   3.430
10651W        W83719  10.447  16.331  13.966
10652W        W83720  26.131  19.986   3.895
10653W        W83721  42.935  31.936  12.036
10654W        W83722  18.215  15.424  10.932
10655W        W83723  37.687  17.763   4.214
10656W        W83724  12.518   3.588  13.797
10657W        W83725  44.545  15.037   2.805
10658W        W83726  15.613  39.005   1.358
10659W        W83727  41.754   4.347   0.173
10660W        W83728  27.929   6.380   4.518
10661W        W83729  17.261  40.288  11.846
10662W        W83730  24.617   8.728   1.218
10663W        W83731  38.102  10.681  12.814
10664W        W83732  15.085  30.579  10.816
10665W        W83733  26.739  31.020  12.586
10666W        W83734  17.641  40.316   2.719
10667W        W83735  29.974  31.194   2.476
10668W        W83736   2.791  11.147  12.343
10669W        W83737  25.235   2.451  12.396
10670W        W83738  18.819  31.414  11.652
10671W        W83739  18.696  41.819  13.987
10672W        W83740   4.741   8.928   1.360
10673W        W83741  24.948  16.625   3.889
10674W        W83742  15.746  43.799  13.831
10675W        W83743  25.991  28.398  10.672
10676W        W83744  25.082  36.069  13.711
10677W        W83745  28.353  27.952   1.302
10678W        W83746   8.830  37.162  10.835
10679W        W83747  41.046  35.864  12.599
10680W        W83748  43.736  35.519   2.364
10681W        W83749  26.199  19.287  12.373
10682W        W83750  33.031  32.921  11.569
10683W        W83751  25.089   3.018  13.330
10684W        W83752  27.215  43.488  13.109
10685W        W83753  18.087   7.306  10.691
10686W        W83754   8.153  36.468  12.333
10687W        W83755  43.168  34.058  11.615
10688W        W83756   2.971  44.059  14.033
10689W        W83757  26.357  37.526  10.510
10690W        W83758  29.793  18.276   4.967
10691W        W83759  19.131  10.407  12.467
10692W        W83760  41.074  38.599   4.220
10693W        W83761  18.978  39.045  14.803
10694W        W83762  10.428  26.043   0.862
10695W        W83763  27.486  12.387   0.935
10696W        W83764  25.443  16.826  11.798
10697W        W83765  19.776  19.124  10.996
10698W        W83766  24.284  12.828   0.082
10699W        W83767  11.762  27.181   3.264
10700W        W83768   3.690  15.727   0.756
10701W        W83769   2.943  12.151   4.609
10702W        W83770  31.082   3.709  13.076
10703W        W83771  12.143  14.146  13.964
10704W        W83772   1.931  26.997   2.273
10705W        W83773   5.644   8.927   1.472
10706W        W83774  44.011  27.425  14.885
10707W        W83775  17.669  37.704  13.078
10708W        W83776  32.436  29.255  14.339
10709W        W83777  26.546  29.630  13.843
10710W        W83778  12.758  35.828  13.050
10711W        W83779  13.768  23.032   4.600
10712W        W83780  25.072  10.820   5.113
10713W        W83781  14.573   5.039   3.362
10714W        W83782   8.401  10.738   3.606
10715W        W83783   7.759  19.674  12.283
10716W        W83784  37.588   2.018   4.174
10717W        W83785  14.129  34.491   0.537
10718W        W83786  15.675   0.016  11.471
10719W        W83787  34.442  21.438  12.897
10720W        W83788  27.434  24.587   3.250
10721W        W83789  41.393   3.886  12.620
10722W        W83790  33.272  34.548   4.216
10723W        W83791  32.938  15.039   2.742
10724W        W83792  16.204  29.501   2.156
10725W        W83793  19.287  37.505   4.467
10726W        W83794  20.180  35.369  11.161
10727W        W83795   4.601  13.673  12.034
10728W        W83796  14.306   4.444  14.783
10729W        W83797  25.117   4.389   0.236
10730W        W83798  19.484  40.267  10.604
10731W        W83799  24.363  21.679   3.310
10732W        W83800  44.046  24.098  11.594
10733W        W83801  24.719  37.940  12.592
10734W        W83802  19.166  31.631   3.189
10735W        W83803  33.658   4.063  13.846
10736W        W83804  21.802  19.585  11.130
10737W        W83805  41.041  12.196   3.112
10738W        W83806  14.791  15.540   1.694
10739W        W83807  35.927  11.350  11.871
10740W        W83808  33.637  39.553   0.194
10741W        W83809  12.783  37.115   3.467
10742W        W83810   7.853   9.779  11.456
10743W        W83811  21.252  23.927  14.885
10744W        W83812  39.016   0.716   0.989
10745W        W83813  42.495  20.944  11.120
10746W        W83814  14.354  31.270   0.684
10747W        W83815  23.556  12.600   1.773
10748W        W83816   9.606  20.086  14.673
10749W        W83817  42.002  44.706   1.697
10750W        W83818  27.846  27.203   4.608
10751W        W83819  16.399  37.206  13.132
10752W        W83820  36.910   4.367   3.032
10753W        W83821  20.824  21.505  14.486
10754W        W83822  14.142   0.988   4.539
10755W        W83823  19.521  16.063   3.280
10756W        W83824   0.846  36.095  13.878
10757W        W83825  33.041   3.680   4.123
10758W        W83826  36.500  43.925  12.568
10759W        W83827   6.947   1.033  12.881
10760W        W83828  24.149  43.056  11.163
10761W        W83829  33.152  34.611  12.078
10762W        W83830  20.800  26.710  14.490
10763W        W83831   5.880  44.038  14.125
10764W        W83832  13.619  23.707   3.321
10765W        W83833  33.437  29.739   4.066
10766W        W83834  43.022  19.063  11.627
10767W        W83835  44.969   2.396  12.030
10768W        W83836  31.332  24.888  12.647
10769W        W83837  41.591  11.125  11.929
10770W        W83838  41.765   6.108  11.103
10771W        W83839   0.214  41.330   1.526
10772W        W83840  16.109  30.679  13.967
10773W        W83841   1.783   8.946  13.874
10774W        W83842  41.640  24.446  12.968
10775W        W83843  27.868  17.508  14.879
10776W        W83844  25.790   3.575   2.768
10777W        W83845  27.103  37.527   4.740
10778W        W83846  27.941   7.877  12.862
10779W        W83847  40.258  24.438  13.022
10780W        W83848  13.816   0.881   1.047
10781W        W83849   9.808  30.062   4.315
10782W        W83850   9.784  13.275   4.031
10783W        W83851  19.931  12.949  11.286
10784W        W83852  19.665  14.581   2.493
10785W        W83853  25.930  10.744   0.805
10786W        W83854   4.638  26.577   4.165
10787W        W83855  43.836  40.927  10.781
10788W        W83856  21.523  19.764   1.356
10789W        W83857  19.741   6.309  12.957
10790W        W83858  15.459  11.056   3.381
10791W        W83859  14.724  34.174   1.401
10792W        W83860   1.499  23.574  10.657
10793W        W83861  22.285  20.696  13.063
10794W        W83862   2.524   2.386   0.009
10795W        W83863   1.005  34.350  12.419
10796W        W83864   9.242  27.643   2.898
10797W        W83865  24.541   8.905  14.894
10798W        W83866  20.759   6.888   0.426
10799W        W83867  39.862   2.663  12.491
10800W        W83868  31.635  29.984  13.944
10801W        W83869  33.016  11.843   3.705
10802W        W83870  10.902  41.001   2.608
10803W        W83871   7.281  36.410   0.160
10804W        W83872  11.902  40.327   3.096
10805W        W83873  33.581  40.791   5.108
10806W        W83874  24.365  19.565   0.209
10807W        W83875   5.861   1.309   4.645
10808W        W83876  41.393  30.066   1.336
10809W        W83877  11.279  39.081   3.709
10810W        W83878   5.794  32.675  10.682
10811W        W83879  29.745  20.821   4.206
10812W        W83880  19.125  30.211   1.226
10813W        W83881  34.886   1.069   2.753
10814W        W83882   3.829  11.150  10.943
10815W        W83883  17.221  30.721   0.451
10816W        W83884   7.311   6.321  13.246
10817W        W83885  10.794   8.768  14.554
10818W        W83886  43.272  14.715  10.593
10819W        W83887  16.763  31.115   4.259
10820W        W83888  42.892   6.101  12.788
10821W        W83889  20.497  43.469  12.045
10822W        W83890  18.190  12.750   0.226
10823W        W83891  25.642   9.968   1.394
10824W        W83892  34.657  15.296   3.007
10825W        W83893  23.961  17.738  14.363
10826W        W83894  30.666  28.710   4.261
10827W        W83895  13.380  28.214  10.602
10828W        W83896  21.574  23.720  11.994
10829W        W83897  26.274   7.951  13.401
10830W        W83898  35.119   5.281  12.355
10831W        W83899  33.826   8.624   5.308
10832W        W83900  42.982   1.305   4.967
10833W        W83901  18.705   4.873   2.372
10834W        W83902  17.783  38.899  14.521
10835W        W83903  21.478   1.031   5.473
10836W        W83904  16.261   9.396  12.020
10837W        W83905  38.964  26.034  11.541
10838W        W83906  28.111   0.543  11.008
10839W        W83907  30.190  18.692   4.065
10840W        W83908  36.853  32.427   3.814
10841W        W83909   9.232  11.152   0.933
10842W        W83910  10.436  44.910   4.522
10843W        W83911  24.810   4.960   4.963
10844W        W83912   3.954   5.267   0.923
10845W        W83913  16.637  42.500  12.491
10846W        W83914  12.262   8.881  12.757
10847W        W83915  29.607  15.978  13.958
10848W        W83916  30.065  35.926  11.134
10849W        W83917   5.145  22.621  11.924
10850W        W83918  29.405  41.978   2.819
10851W        W83919  17.903  28.891   2.149
10852W        W83920  21.085  18.320  11.146
10853W        W83921  20.212  29.880   4.635
10854W        W83922  18.623   8.391   0.291
10855W        W83923  35.930  40.466   4.842
10856W        W83924  30.174   8.228  10.408
10857W        W83925  28.345  24.114   2.047
10858W        W83926   1.760  20.641  14.230
10859W        W83927   9.785  40.170   0.494
10860W        W83928   0.337  29.975  12.147
10861W        W83929  34.484  33.493  12.118
10862W        W83930  16.819  30.781  12.901
10863W        W83931  34.250   0.987  11.415
10864W        W83932  20.847  16.638  11.219
10865W        W83933  32.635  15.111  10.854
10866W        W83934  12.902  37.324   4.349
10867W        W83935   4.213  44.789   0.851
10868W        W83936   7.401  37.060   3.240
10869W        W83937  16.181  40.909   3.254
10870W        W83938  18.536  20.281  10.915
10871W        W83939  42.980  40.418   0.533
10872W        W83940   9.199   3.657   1.819
10873W        W83941  17.232  21.587   3.348
10874W        W83942   0.791   0.840  12.362
10875W        W83943  32.900  43.388   0.184
10876W        W83944  36.204  32.983   3.632
10877W        W83945   4.245   1.938  14.762
10878W        W83946  25.709  21.537  14.920
10879W        W83947   2.842  39.702  12.069
10880W        W83948  12.320  23.532   3.809
10881W        W83949  14.647  20.405   4.438
10882W        W83950   3.482  19.944  10.512
10883W        W83951  19.741   9.790  10.688
10884W        W83952  37.385  12.037   3.740
10885W        W83953  44.914  21.173   3.067
10886W        W83954  10.765  38.121  11.521
10887W        W83955  15.842   8.226   1.453
10888W        W83956  29.837  19.973  10.972
10889W        W83957  38.239   4.992  12.104
10890W        W83958  30.540   4.992   4.160
10891W        W83959  39.813  38.987  13.061
10892W        W83960   8.207  15.333   0.589
10893W        W83961  17.034  30.053  11.795
10894W        W83962  11.558  24.784  11.387
10895W        W83963  44.736  29.525   3.595
10896W        W83964  23.498  44.516   2.221
10897W        W83965   2.528  14.744  13.540
10898W        W83966  11.847  39.288  12.467
10899W        W83967   6.884   2.252   0.032
10900W        W83968  44.511  43.904  14.428
10901W        W83969   7.840  14.200   2.428
10902W        W83970   6.765  41.324  14.257
10903W        W83971  14.579  32.504  14.469
10904W        W83972   0.961  21.303  11.090
10905W        W83973  15.128   1.950  11.889
10906W        W83974  42.552  42.829  12.991
10907W        W83975  33.732  37.578   2.264
10908W        W83976   6.220  11.405   4.114
10909W        W83977  11.665  15.618  14.436
10910W        W83978  31.117  31.938  10.720
10911W        W83979  21.576  11.828   3.714
10912W        W83980  26.732   9.712  12.796
10913W        W83981   2.780  35.051   3.991
10914W        W83982  25.542   4.229   0.483
10915W        W83983  13.346  28.727  10.456
10916W        W83984  36.508  19.734  11.648
10917W        W83985  23.729  29.225  12.354
10918W        W83986  17.028  41.210  11.014
10919W        W83987  18.803  25.514   1.687
10920W        W83988   1.952   9.219   1.808
10921W        W83989  19.593  39.588  13.366
10922W        W83990  30.892  23.430  11.765
10923W        W83991  10.782   2.940   0.279
10924W        W83992  18.452  37.500  13.477
10925W        W83993   1.690  10.761  13.917
10926W        W83994  10.481  15.820  14.044
10927W        W83995  39.992  23.755   1.300
10928W        W83996  21.973   2.997   2.442
10929W        W83997  22.066  37.406   4.087
10930W        W83998  29.305  37.862  13.383
10931W        W83999  30.578  26.252   3.715
10932W        W84000  41.009  26.679   4.268
10933W        W84001  21.914  14.445  11.779
10934W        W84002  17.824  28.991   1.371
10935W        W84003   7.107   7.421   1.309
10936W        W84004  30.157  20.809   2.381
10937W        W84005  21.299  13.787   2.670
10938W        W84006   1.543  31.079  12.400
10939W        W84007   5.161  20.796   1.716
10940W        W84008   9.684  39.022   2.370
10941W        W84009   9.864  10.748   4.640
10942W        W84010  30.013   5.371  12.636
10943W        W84011  36.968  19.414   4.152
10944W        W84012   3.961   2.421   3.619
10945W        W84013   3.745  43.748   1.264
10946W        W84014  25.210  22.484   0.853
10947W        W84015  30.051  32.864   3.531
10948W        W84016  28.851  37.823   2.437
10949W        W84017  17.561   4.225  12.894
10950W        W84018  13.057  12.878  12.961
10951W        W84019  40.895  26.236  13.736
10952W        W84020   6.253  20.507  14.995
10953W        W84021  23.849  21.268   4.524
10954W        W84022   2.671  19.690  14.522
10955W        W84023  30.326  29.553  14.904
10956W        W84024  32.169  16.600   1.348
10957W        W84025  24.168  38.572   4.668
10958W        W84026   9.663  23.598   2.739
10959W        W84027   8.914  30.237   1.379
10960W        W84028  30.042  39.997   0.464
10961W        W84029  19.920  23.614  13.025
10962W        W84030  41.343  16.707   0.056
10963W        W84031  29.164  18.421   2.915
10964W        W84032   8.264   5.805   0.334
10965W        W84033   4.480  13.793  13.259
10966W        W84034   8.118  13.272  11.547
10967W        W84035  21.981  16.828   2.817
10968W        W84036  40.212  21.109   2.701
10969W        W84037  29.960  18.775   1.502
10970W        W84038   0.249  22.688   0.144
10971W        W84039  33.972  13.379  13.520
10972W        W84040   5.186  38.353   3.654
10973W        W84041   4.715  26.964  14.505
10974W        W84042   1.491  19.489   0.244
10975W        W84043  32.530  33.853  10.936
10976W        W84044   3.411  39.069   0.854
10977W        W84045  27.535  41.738  11.631
10978W        W84046  30.510  24.052   3.802
10979W        W84047  38.847  15.190  11.273
10980W        W84048  42.601   3.866  12.986
10981W        W84049   8.245  33.531  10.724
10982W        W84050  27.198  30.980   0.987
10983W        W84051  18.243  23.467  14.293
10984W        W84052   0.554  41.580  12.443
10985W        W84053  37.616   9.981  14.816
10986W        W84054  16.995  31.338  11.595
10987W        W84055  25.103   2.156   3.678
10988W        W84056  26.158  15.295  13.113
10989W        W84057  26.206  17.270  11.509
10990W        W84058  23.933  38.833   1.889
10991W        W84059   1.241  14.189  11.164
10992W        W84060   8.165  37.476   2.150
10993W        W84061  14.658  35.940  11.058
10994W        W84062  15.474   8.843  10.343
10995W        W84063  26.963  11.399  11.099
10996W        W84064  29.841   2.437  12.865
10997W        W84065  36.907  10.898  10.687
10998W        W84066   9.537   1.248   2.296
10999W        W84067  29.711   7.966  11.043
11000W        W84068  19.316  44.582  14.939
11001W        W84069  32.513  23.083  14.436
11002W        W84070   7.855  14.157   1.915
11003W        W84071  42.914  20.535   4.701
11004W        W84072  13.142  40.497   1.766
11005W        W84073  28.225   1.238  12.631
11006W        W84074   9.172   7.838   2.189
11007W        W84075  18.143   1.045  11.794
11008W        W84076  30.245  15.198   0.877
11009W        W84077  18.597  43.556   4.089
11010W        W84078  41.919   7.172  13.445
11011W        W84079  12.399  34.080   0.476
11012W        W84080  19.617  10.667   4.455
11013W        W84081   5.776   3.957  13.349
11014W        W84082  10.618  28.168   3.690
11015W        W84083  34.130   7.841  13.333
11016W        W84084  30.995  27.390   1.726
11017W        W84085   8.864  26.120  14.684
11018W        W84086  30.608  27.492  11.618
11019W        W84087  37.466   5.681   2.473
11020W        W84088  40.319  24.788   0.002
11021W        W84089  40.416  16.159   1.782
11022W        W84090  20.450   6.226   0.148
11023W        W84091  13.533   0.014   1.318
11024W        W84092  12.337  38.872  10.522
11025W        W84093  42.259   6.916   0.814
11026W        W84094  37.613  38.921  14.884
11027W        W84095  38.971  23.302  13.996
11028W        W84096  26.591  35.829  14.521
11029W        W84097  29.028  11.026   4.699
11030W        W84098   9.456  25.038   4.278
11031W        W84099  42.081   6.259  13.921
11032W        W84100  26.074  13.419  12.964
11033W        W84101  43.717  18.050  14.483
11034W        W84102  22.798  20.208   2.756
11035W        W84103  22.157  43.757   1.347
11036W        W84104   0.067  40.995   3.218
11037W        W84105  15.781  26.116   4.061
11038W        W84106  42.348  31.903   1.681
11039W        W84107  42.233  30.963  12.987
11040W        W84108  40.556  22.410   0.301
11041W        W84109  44.292  28.404  13.009
11042W        W84110   9.817  12.227  11.448
11043W        W84111  17.165  15.302   0.418
11044W        W84112  39.021  13.770  11.971
11045W        W84113   7.139  25.961   1.457
11046W        W84114  43.029  35.451   3.437
11047W        W84115  39.811  26.282  12.251
11048W        W84116  41.013  18.736   0.034
11049W        W84117  11.374  26.950  12.568
11050W        W84118   8.791  21.511   1.715
11051W        W84119  43.316  10.915   4.026
11052W        W84120  43.918  11.452  12.045
11053W        W84121  16.467  30.191  13.447
11054W        W84122  31.685  40.422  13.086
11055W        W84123  26.605  36.406  13.506
11056W        W84124   1.940  32.418   4.681
11057W        W84125  34.160  15.362   3.111
11058W        W84126  32.409  42.348  12.842
11059W        W84127  36.481  38.424   2.632
11060W        W84128  40.282  26.591   2.395
11061W        W84129  39.000   5.758  14.443
11062W        W84130   5.964  25.042  12.100
11063W        W84131  42.932  31.492  14.021
11064W        W84132  29.324  33.991   1.208
11065W        W84133   3.428  25.595   4.220
11066W        W84134  29.868  31.654   0.655
11067W        W84135  43.388  40.801  11.581
11068W        W84136  12.035  32.073  11.336
11069W        W84137  42.042  29.961   4.089
11070W        W84138  29.433  40.798   1.880
11071W        W84139  20.293  17.031  14.873
11072W        W84140  33.059   2.704   4.051
11073W        W84141  28.523  34.854  12.089
11074W        W84142  29.130  38.396  10.424
11075W        W84143   0.950  31.936   2.538
11076W        W84144   2.426  35.946   1.648
11077W        W84145  36.819  27.902   1.421
11078W        W84146  24.151  13.850  10.775
11079W        W84147  34.809   5.886  13.306
11080W        W84148  14.249  30.472  10.168
11081W        W84149  20.155  19.349   1.452
11082W        W84150  38.043  11.846   1.323
11083W        W84151  35.833  29.963   1.690
11084W        W84152  22.244  11.259   5.011
11085W        W84153  44.831  39.420   1.009
11086W        W84154   4.144  16.841   1.188
11087W        W84155  32.107  40.404   0.340
11088W        W84156   0.870  39.644  13.006
11089W        W84157  11.173  11.190  12.033
11090W        W84158  29.972  17.237   1.400
11091W        W84159  37.695   9.384  12.610
11092W        W84160  43.946  25.081  12.609
11093W        W84161  37.062  29.208   1.018
11094W        W84162   6.316  19.533  10.543
11095W        W84163   7.511   4.906  11.375
11096W        W84164  38.992  26.768   1.253
11097W        W84165  37.254  37.467   1.044
11098W        W84166  44.339   2.933   1.685
11099W        W84167  35.653  14.282  11.180
11100W        W84168  43.524  33.027   2.739
11101W        W84169  11.306  29.743  11.153
11102W        W84170  17.804  25.633  13.319
11103W        W84171  11.286  20.094  13.860
11104W        W84172  27.986  44.314   1.263
11105W        W84173   1.752  37.501   5.211
11106W        W84174   0.678  34.888  10.950
11107W        W84175  40.417  36.292   4.635
11108W        W84176   8.274  20.348  11.280
11109W        W84177  16.714  31.145   2.345
11110W        W84178  27.125  43.945  12.126
11111W        W84179  32.050  25.046  13.040
11112W        W84180  23.917  36.659  14.673
11113W        W84181  29.076  40.050  13.851
11114W        W84182  27.187   0.723   3.301
11115W        W84183  34.099  22.207   3.645
11116W        W84184  31.599  16.714   2.884
11117W        W84185  20.021  30.922  12.138
11118W        W84186  16.110  11.625   2.262
11119W        W84187  35.346  44.431  11.811
11120W        W84188  13.275  44.201   4.976
11121W        W84189  10.753   7.006  12.952
11122W        W84190  23.714  20.575   0.498
11123W        W84191  40.810  25.608  12.688
11124W        W84192   3.657  21.158   4.058
11125W        W84193  24.578  37.882   4.805
11126W        W84194   0.353   7.756  11.971
11127W        W84195  42.796  31.601  12.424
11128W        W84196  12.337  40.815  13.807
11129W        W84197  40.343  36.028   0.154
11130W        W84198  26.520  19.799   4.264
11131W        W84199  43.767  28.179  11.112
11132W        W84200   1.360  12.921  12.759
11133W        W84201   4.221  20.746  14.929
11134W        W84202  15.131  14.605   2.052
11135W        W84203  41.576   3.959   1.772
11136W        W84204  11.867  34.401  13.300
11137W        W84205   3.171   3.498  13.569
11138W        W84206   0.976  36.063   5.170
11139W        W84207   4.491  21.633  11.597
11140W        W84208   7.106  19.532   1.964
11141W        W84209  43.585   2.441   2.509
11142W        W84210  25.691  26.852  12.015
11143W        W84211  43.331  15.388  13.757
11144W        W84212  38.029  12.302   4.640
11145W        W84213  33.549  18.302   4.524
11146W        W84214   3.180  34.876  11.861
11147W        W84215  23.151   9.665  10.742
11148W        W84216  43.329  29.909  13.538
11149W        W84217   6.261  13.339   0.168
11150W        W84218  33.661  23.816  13.375
11151W        W84219  27.948   0.891   2.507
11152W        W84220  32.368   6.576   4.247
11153W        W84221  15.751   0.845  14.010
11154W        W84222  44.416   6.597  12.030
11155W        W84223  19.269   4.918  13.376
11156W        W84224  33.512  39.380  12.839
11157W        W84225  15.297  16.757   4.467
11158W        W84226  44.288   4.635   1.436
11159W        W84227  29.338   2.672  12.526
11160W        W84228  42.678  44.318   1.904
11161W        W84229  25.898  10.621  10.842
11162W        W84230  14.369  17.093   2.844
11163W        W84231   7.322  30.081  14.269
11164W        W84232   8.254   6.685   1.394
11165W        W84233  34.847  34.574   2.196
11166W        W84234  11.131  33.120   3.370
11167W        W84235  43.386  29.973   3.163
11168W        W84236  37.080   9.722   2.760
11169W        W84237  44.268   9.122  12.906
11170W        W84238  34.836  25.194  13.915
11171W        W84239   6.729  16.548  14.011
11172W        W84240  21.793  36.008   4.059
11173W        W84241   7.262  39.863  10.217
11174W        W84242  33.135  10.243  12.618
11175W        W84243  30.609  20.463   2.355
11176W        W84244  30.375  13.167  11.438
11177W        W84245  43.321  15.715  14.389
11178W        W84246  40.103  44.258  14.378
11179W        W84247  30.585  27.749   2.751
11180W        W84248  21.564   5.981   0.250
11181W        W84249  23.641  33.814  11.949
11182W        W84250  13.207  32.564   0.378
11183W        W84251   5.636  22.728  14.910
11184W        W84252  27.227  12.593   9.944
11185W        W84253  11.466  16.320  14.023
11186W        W84254  23.235  32.127   0.379
11187W        W84255  35.833  27.795  13.344
11188W        W84256  18.047  42.896   1.344
11189W        W84257  13.156  39.000   1.333
11190W        W84258   3.742  43.730   1.776
11191W        W84259  21.501  11.578   2.606
11192W        W84260  36.399   5.796   2.393
11193W        W84261  30.805  22.124   2.188
11194W        W84262  43.516   5.474   3.881
11195W        W84263  14.651   4.222   2.704
11196W        W84264   9.887  11.341   3.294
11197W        W84265  10.088  41.466  13.457
11198W        W84266  23.937  27.057   2.679
11199W        W84267  25.064  22.811  14.846
11200W        W84268  39.348   5.810   4.524
11201W        W84269  11.727  36.859   1.407
11202W        W84270   8.144  42.420   3.305
11203W        W84271  44.604   9.699  11.164
11204W        W84272  39.888  15.411  11.183
11205W        W84273  21.288  29.417   4.216
11206W        W84274  24.189  36.799  13.473
11207W        W84275  35.103  16.557  13.909
11208W        W84276  17.905  34.032   1.802
11209W        W84277   0.180   3.213   0.818
11210W        W84278  41.846  15.195   1.393
11211W        W84279  40.036  38.153   1.639
11212W        W84280  13.118  39.878  13.404
11213W        W84281  31.142  35.358   2.981
11214W        W84282  34.506  43.215  12.058
11215W        W84283  38.980   7.841   2.313
11216W        W84284  25.176  15.080  11.063
11217W        W84285   2.018   9.672  13.192
11218W        W84286  36.054  41.791   0.674
11219W        W84287   9.352  20.287   1.906
11220W        W84288  22.960  16.174   3.533
11221W        W84289   0.961   2.350  11.962
11222W        W84290  24.002  25.616  12.050
11223W        W84291   9.227  32.831  11.121
11224W        W84292   2.952  30.658  12.436
11225W        W84293  37.539  40.250   4.240
11226W        W84294  17.619   8.872  11.917
11227W        W84295  29.957  37.350  11.143
11228W        W84296  19.744  18.674   4.213
11229W        W84297  16.516  41.305   2.502
11230W        W84298  16.763  34.832   3.310
11231W        W84299   2.298  17.308  11.691
11232W        W84300  37.551  26.929   4.208
11233W        W84301  19.604   6.792  13.657
11234W        W84302  39.816  18.207  12.032
11235W        W84303  15.479  22.609   2.295
11236W        W84304  32.410  19.065  12.519
11237W        W84305  12.982  23.152  13.088
11238W        W84306  36.142   5.854   1.314
11239W        W84307   8.534  25.307  12.167
11240W        W84308  15.314  25.961   4.245
11241W        W84309  35.298  32.985   0.046
11242W        W84310  40.958  27.671   2.715
11243W        W84311   2.764  38.966   1.449
11244W        W84312  31.464  38.365  10.741
11245W        W84313  27.138   0.879  14.402
11246W        W84314   8.741   6.637   3.633
11247W        W84315  23.415  12.717  13.274
11248W        W84316   1.750   0.536   0.381
11249W        W84317  15.707  28.317   3.666
11250W        W84318  19.729  35.552   3.155
11251W        W84319   2.470  23.461  14.379
11252W        W84320  42.815  38.830   1.839
11253W        W84321   8.384  22.231  14.936
11254W        W84322  21.337  26.975  14.036
11255W        W84323  44.216  24.636  12.567
11256W        W84324  23.005  11.352   2.893
11257W        W84325  33.108  27.791   4.110
11258W        W84326  23.972  14.112  13.527
11259W        W84327   3.650   1.751   0.992
11260W        W84328  44.818  15.380   3.441
11261W        W84329   8.853  27.903  11.588
11262W        W84330  35.084   6.190   3.661
11263W        W84331  41.072  29.167  13.895
11264W        W84332  42.364  35.667  11.968
11265W        W84333   5.465   7.715   2.891
11266W        W84334  10.646  16.589  11.115
11267W        W84335  26.770   9.858  12.307
11268W        W84336  26.136   9.357   2.192
11269W        W84337  14.813  39.313   1.973
11270W        W84338  28.281  39.031   4.679
11271W        W84339  22.276  25.986  14.985
11272W        W84340  30.902  44.516  13.378
11273W        W84341   1.298  43.979  11.795
11274W        W84342  31.191  15.712  12.508
11275W        W84343  18.560  21.678  10.748
11276W        W84344  18.234  11.587  13.445
11277W        W84345  31.862  26.863  12.209
11278W        W84346  23.686  15.063   1.810
11279W        W84347   7.698  31.909  13.511
11280W        W84348  38.997  29.379  12.858
11281W        W84349  35.598  43.919  13.114
11282W        W84350  39.220  41.789   3.636
11283W        W84351  32.893  32.056  11.996
11284W        W84352  17.235  14.072   1.390
11285W        W84353  32.142  17.202   4.420
11286W        W84354   3.613  29.598  13.375
11287W        W84355  18.661  13.705  14.503
11288W        W84356  35.587  22.992   0.490
11289W        W84357  41.578   3.426  14.450
11290W        W84358   6.280  13.176  13.398
11291W        W84359  17.373  12.446  13.408
11292W        W84360  27.979  41.101   1.713
11293W        W84361  33.866   3.923   0.514
11294W        W84362   2.852  24.300  12.435
11295W        W84363  36.418  24.020   4.039
11296W        W84364  40.724   1.333  13.808
11297W        W84365  20.185  24.447  11.241
11298W        W84366  31.643  22.481   2.840
11299W        W84367  32.141  33.044  14.475
11300W        W84368  33.849  26.280  12.233
11301W        W84369  24.463  13.645   0.371
11302W        W84370  24.089  21.706   1.519
11303W        W84371  11.218  24.613  14.008
11304W        W84372   2.058   0.301  12.820
11305W        W84373  14.598  18.349   2.160
11306W        W84374  20.645  42.064   4.179
11307W        W84375   7.361   5.626  13.940
11308W        W84376  21.692  16.563  10.704
11309W        W84377  35.965  38.235  11.296
11310W        W84378  11.713   0.684  11.919
11311W        W84379   1.142  30.364  11.962
11312W        W84380  21.240  19.784   4.906
11313W        W84381  31.970  28.793  11.172
11314W        W84382   3.442  14.683   4.790
11315W        W84383  41.012  10.771   2.897
11316W        W84384   2.732  16.561   1.404
11317W        W84385  36.883  14.574  12.449
11318W        W84386  35.951   1.689  14.379
11319W        W84387  35.429   2.110   3.493
11320W        W84388  14.233   1.938   0.106
11321W        W84389  43.045  12.125  11.003
11322W        W84390  11.256  41.418   0.471
11323W        W84391   5.257  21.253   2.823
11324W        W84392  33.539  39.271   3.280
11325W        W84393  18.125  25.004  13.931
11326W        W84394   8.819  43.289   3.380
11327W        W84395  15.589   7.268   2.879
11328W        W84396  40.724  14.389  11.198
11329W        W84397  12.608  42.715  12.483
11330W        W84398  31.876   3.719  12.657
11331W        W84399  26.552  19.283   0.451
11332W        W84400  26.199  15.774   2.385
11333W        W84401  33.597   5.420  11.631
11334W        W84402  30.179  34.919   2.154
11335W        W84403  35.961  16.396  14.363
11336W        W84404  27.589  32.324  14.011
11337W        W84405  39.582  26.257   2.931
11338W        W84406  11.638   8.427   2.226
11339W        W84407  22.022  22.954  11.518
11340W        W84408  36.864  33.130   1.343
11341W        W84409   1.887  12.701   0.430
11342W        W84410  19.680  11.353   1.139
11343W        W84411  19.108  44.103  12.851
11344W        W84412  20.713  14.351   4.372
11345W        W84413   0.699  17.045   0.877
11346W        W84414  40.360  14.739  11.883
11347W        W84415  31.673  27.534  12.667
11348W        W84416  44.334  23.930  12.032
11349W        W84417  21.450  18.682  11.133
11350W        W84418  19.781   3.656  11.104
11351W        W84419   8.339  28.638  12.856
11352W        W84420  27.998  26.708  10.750
11353W        W84421  18.812  43.531  11.617
11354W        W84422  12.998  25.937  14.898
11355W        W84423  15.537  29.652   1.330
11356W        W84424  32.325  11.720   0.881
11357W        W84425  35.808  18.839   4.065
11358W        W84426  32.100   3.513   3.538
11359W        W84427  44.176  27.491   2.760
11360W        W84428  41.996  17.187   2.267
11361W        W84429  19.597  41.836   0.983
11362W        W84430  27.610  26.281  12.868
11363W        W84431  17.782  36.625  13.855
11364W        W84432   3.869  35.431   2.293
11365W        W84433  25.088  28.942   0.182
11366W        W84434  16.501   5.673   3.243
11367W        W84435   0.994  37.175   1.871
11368W        W84436  44.227  44.944  10.279
11369W        W84437   5.163  39.242   1.542
11370W        W84438   3.748   0.022   1.194
11371W        W84439  30.552  29.791  12.994
11372W        W84440  25.007  13.184   4.123
11373W        W84441   8.410   6.705   3.219
11374W        W84442   2.649   3.960   3.973
11375W        W84443  11.808  13.651  12.608
11376W        W84444  30.398  43.391   0.743
11377W        W84445  32.458  15.742  12.980
11378W        W84446  21.213   3.283   4.630
11379W        W84447  44.894   9.222   1.820
11380W        W84448  34.965  21.232  12.577
11381W        W84449   5.641   3.904   1.190
11382W        W84450  39.818  40.767  12.146
11383W        W84451  27.029  11.654   4.315
11384W        W84452   3.247   8.565  13.649
11385W        W84453  30.218   1.885   2.287
11386W        W84454  38.634   0.615  11.759
11387W        W84455  32.046  25.449   2.686
11388W        W84456  16.887  13.033   0.365
11389W        W84457   2.216  43.298   0.923
11390W        W84458   9.383   3.409   4.577
11391W        W84459   7.752   9.384  11.152
11392W        W84460  11.633  18.580  12.023
11393W        W84461  29.048   0.259  11.851
11394W        W84462   9.168  31.957   2.088
11395W        W84463  11.331  18.090  12.364
11396W        W84464   1.009   0.763  11.908
11397W        W84465  34.611   7.958   1.518
11398W        W84466  40.042  20.208  10.434
11399W        W84467  16.487  32.408   0.434
11400W        W84468  37.522  41.062   5.105
11401W        W84469  41.852  10.687  11.348
11402W        W84470   9.258  40.895  10.759
11403W        W84471   1.356   0.030  14.867
11404W        W84472  19.294  33.899   3.989
11405W        W84473   6.200  22.081  14.328
11406W        W84474  28.160  12.614  11.602
11407W        W84475  15.285   2.956  11.938
11408W        W84476   6.732  20.243  14.939
11409W        W84477  22.061   7.525  11.694
11410W        W84478  29.116  37.586  13.796
11411W        W84479  11.351  19.547  14.475
11412W        W84480  28.406   1.268   0.552
11413W        W84481  11.877  18.674  13.411
11414W        W84482  11.517   5.014   4.016
11415W        W84483  43.737   9.647   3.104
11416W        W84484   5.446  20.675   1.206
11417W        W84485  36.828  38.003   3.142
11418W        W84486  25.627  24.015  12.528
11419W        W84487   5.035  21.488  13.266
11420W        W84488  38.362  11.176  12.983
11421W        W84489  10.745   0.837  13.416
11422W        W84490  27.341  21.031   2.787
11423W        W84491   9.580  16.647  11.071
11424W        W84492  30.218  41.894  11.580
11425W        W84493   3.882  34.948   4.157
11426W        W84494  34.564  19.761  11.966
11427W        W84495  34.669   9.421  11.483
11428W        W84496  28.481  41.088   0.298
11429W        W84497  18.587   4.585   0.890
11430W        W84498  31.561  31.816  12.410
11431W        W84499  12.383  17.747  12.929
11432W        W84500  10.790   9.686   4.941
11433W        W84501  10.074  23.154   0.575
11434W        W84502  21.563  42.812   0.318
11435W        W84503  44.866  16.827   0.475
11436W        W84504  14.921   2.950   4.564
11437W        W84505  20.004  23.009   2.358
11438W        W84506  21.813  20.969   2.482
11439W        W84507  24.427  31.459  12.437
11440W        W84508   9.681   6.881  14.850
11441W        W84509  27.569   2.319   0.436
11442W        W84510   5.958  40.388  14.510
11443W        W84511  17.255  33.685   2.242
11444W        W84512   3.343  27.725  10.816
11445W        W84513  28.723  20.038   3.757
11446W        W84514   4.680  17.046   1.722
11447W        W84515  20.658  19.799   3.247
11448W        W84516   6.763  43.203   0.712
11449W        W84517   8.306  32.361   2.215
11450W        W84518   4.330  20.564  12.783
11451W        W84519   0.493  43.566  12.003
11452W        W84520   2.967  33.545  14.800
11453W        W84521  15.866  31.202   1.417
11454W        W84522  43.506   0.364  13.825
11455W        W84523  25.148  37.250   4.193
11456W        W84524   5.908  16.601  11.277
11457W        W84525   3.726   9.517  14.681
11458W        W84526  14.069  31.522   1.024
11459W        W84527  35.451   1.364   2.225
11460W        W84528   4.401   7.760   4.531
11461W        W84529   5.713  29.980  11.845
11462W        W84530  29.055  14.340   1.252
11463W        W84531   9.374   8.221   0.847
11464W        W84532   0.724  43.498   0.879
11465W        W84533   3.733  20.722  11.969
11466W        W84534  20.704  29.595   0.969
11467W        W84535  11.182  40.860   3.066
11468W        W84536   0.456  38.359  13.797
11469W        W84537  15.141  19.928  10.394
11470W        W84538  22.639  19.933   0.481
11471W        W84539  32.078   3.186   1.620
11472W        W84540  31.453  37.600   2.044
11473W        W84541  21.947  31.942   3.574
11474W        W84542   5.438  24.577   4.310
11475W        W84543   3.815   1.712  13.450
11476W        W84544   3.562  41.843   0.059
11477W        W84545  21.602  13.873   0.723
11478W        W84546  22.131   0.207  12.485
11479W        W84547  29.619   1.020   2.826
11480W        W84548   8.600  36.153  13.526
11481W        W84549   7.419  38.550   3.149
11482W        W84550  22.723  38.449   2.253
11483W        W84551   0.918   9.171  11.900
11484W        W84552  18.927  30.390  14.456
11485W        W84553   4.834  30.684  12.426
11486W        W84554   7.981  42.416  13.812
11487W        W84555  37.418  19.310   5.041
11488W        W84556  42.325   0.693  10.462
11489W        W84557  26.618   6.739   4.210
11490W        W84558  39.600  19.179   4.475
11491W        W84559  34.644  10.203   0.784
11492W        W84560  41.265  11.872  11.514
11493W        W84561  18.010  22.505   2.275
11494W        W84562   0.222   1.488   3.480
11495W        W84563  19.676  18.364   5.069
11496W        W84564  36.096   0.050   4.164
11497W        W84565   4.778   5.802  14.089
11498W        W84566  21.134  21.239  14.852
11499W        W84567  39.557  17.825  10.648
11500W        W84568  24.656  25.247  10.986
11501W        W84569  36.281  31.974   2.306
11502W        W84570   0.694  17.011  11.969
11503W        W84571  22.132  36.124   1.345
11504W        W84572  36.285  37.939  11.565
11505W        W84573  12.756  36.043   3.415
11506W        W84574  23.540  37.963  11.027
11507W        W84575  10.901  25.201   3.304
11508W        W84576  27.728  21.661  12.821
11509W        W84577  40.222  36.962  13.288
11510W        W84578  29.672  23.450   3.239
11511W        W84579   0.376  43.495  14.700
11512W        W84580  39.791  29.475  13.884
11513W        W84581  38.377  36.037  14.527
11514W        W84582  33.844  27.026  12.966
11515W        W84583  40.214  10.152  11.644
11516W        W84584   4.537   0.281   3.150
11517W        W84585  29.346  24.462   4.077
11518W        W84586  22.527  12.334   9.911
11519W        W84587  28.377   0.810   3.413
11520W        W84588  16.573  25.822  12.419
11521W        W84589  41.329  19.629   4.450
11522W        W84590   2.401   4.742  14.622
11523W        W84591   2.958  10.154   4.618
11524W        W84592  41.308  35.605  13.957
11525W        W84593  33.420   3.849   1.822
11526W        W84594  31.528  14.497   1.678
11527W        W84595  20.710  14.588  11.173
11528W        W84596   4.825  37.726   2.552
11529W        W84597  34.630  31.826   0.333
11530W        W84598  24.481  22.146  11.626
11531W        W84599  20.255  39.988   1.808
11532W        W84600  21.734   3.563  14.825
11533W        W84601  35.104  11.687  13.625
11534W        W84602  17.255   3.899   3.250
11535W        W84603   2.888  34.627   3.676
11536W        W84604   6.792  36.923   0.446
11537W        W84605  17.623  29.131   0.933
11538W        W84606  33.522  33.560  10.990
11539W        W84607   5.806  27.221   1.335
11540W        W84608  21.565   9.064   4.817
11541W        W84609  36.204  38.835  14.515
11542W        W84610  22.435   3.490  13.016
11543W        W84611  35.176  11.698   4.591
11544W        W84612  10.679  30.989  10.629
11545W        W84613  13.036   0.317   2.171
11546W        W84614  21.626   9.670  11.180
11547W        W84615  39.513   6.887   1.849
11548W        W84616  32.462  36.894   4.697
11549W        W84617   3.752  30.477  12.044
11550W        W84618   5.751  13.197  10.405
11551W        W84619   0.674  12.197  11.537
11552W        W84620  19.764  35.056  12.019
11553W        W84621  23.207  40.276  11.076
11554W        W84622  42.646  18.836   5.037
11555W        W84623  34.402  32.685   1.721
11556W        W84624   1.261  28.418  12.649
11557W        W84625  25.953  43.883   0.532
11558W        W84626  35.994  21.773   1.687
11559W        W84627  25.650  39.917  11.164
11560W        W84628  22.611   2.470  12.977
11561W        W84629  14.691  42.401   4.159
11562W        W84630  20.990   6.284   5.104
11563W        W84631   4.797  29.634  14.862
11564W        W84632  19.601  24.770   0.763
11565W        W84633  29.089  14.355  12.394
11566W        W84634   9.845   3.019  11.335
11567W        W84635  40.413  40.659  10.737
11568W        W84636   1.422  28.466  14.935
11569W        W84637   9.864   3.199   2.691
11570W        W84638  13.939  15.234   1.719
11571W        W84639  40.725  12.743   0.787
11572W        W84640  14.788  37.957  11.948
11573W        W84641  23.524  17.539  13.406
11574W        W84642  37.924  25.535  12.539
11575W        W84643   5.733  39.895   1.785
11576W        W84644  10.589  34.508   5.060
11577W        W84645   1.969  41.410   4.583
11578W        W84646  27.653  21.745   4.861
11579W        W84647  10.613   3.401   0.470
11580W        W84648  30.608  25.711   3.742
11581W        W84649  23.196  38.980  14.450
11582W        W84650  41.397  40.406  13.266
11583W        W84651  27.223   1.646   3.768
11584W        W84652  29.014  32.897  12.019
11585W        W84653  37.010  39.376  10.661
11586W        W84654  23.762  40.110  11.127
11587W        W84655  34.499   6.965   1.198
11588W        W84656  23.928  30.637  10.221
11589W        W84657   1.553  39.977   1.331
11590W        W84658  18.554  36.798   3.289
11591W        W84659   9.806   6.669  11.171
11592W        W84660  40.448  33.855   0.838
11593W        W84661  39.871  36.860   4.129
11594W        W84662  14.756  26.467  11.016
11595W        W84663  21.483  44.176  11.095
11596W        W84664  18.001   8.390   1.682
11597W        W84665  23.711  27.582  11.597
11598W        W84666   7.264  34.900   4.199
11599W        W84667   7.815  40.512  13.878
11600W        W84668   7.948  41.562   1.454
11601W        W84669  16.272  38.006   2.340
11602W        W84670  24.468  13.871   0.863
11603W        W84671  20.070  28.215   1.278
11604W        W84672  43.375   1.329  11.636
11605W        W84673  21.776  18.942   3.703
11606W        W84674  27.141  13.735  11.749
11607W        W84675  17.353   4.734  14.725
11608W        W84676  44.960   2.403   0.700
11609W        W84677  32.358   9.303  14.264
11610W        W84678   5.264  34.241   2.554
11611W        W84679  30.604  29.367   1.338
11612W        W84680  44.516   0.925   1.909
11613W        W84681  25.636  24.666   0.331
11614W        W84682  20.540  22.250  13.955
11615W        W84683  19.659  17.397  13.450
11616W        W84684  42.542  32.098  11.071
11617W        W84685  29.954  34.167  10.666
11618W        W84686  13.718   9.301  14.230
11619W        W84687  37.139  35.559  12.579
11620W        W84688  42.753   4.857   0.707
11621W        W84689  31.181  38.055   2.730
11622W        W84690  31.596  13.806  10.792
11623W        W84691   3.890  35.602   1.338
11624W        W84692  23.735  24.007   3.733
11625W        W84693  26.711  14.631   1.495
11626W        W84694  21.106  31.615  11.389
11627W        W84695  17.386  29.015   2.159
11628W        W84696  42.870  32.117  14.377
11629W        W84697  27.994  21.799   0.639
11630W        W84698  42.291  21.910   1.792
11631W        W84699  35.914  31.020  12.494
11632W        W84700   2.208  18.902   5.236
11633W        W84701   6.714  33.411  14.987
11634W        W84702  32.985  22.780   4.538
11635W        W84703  26.527   5.386  13.591
11636W        W84704   2.274  21.504   0.506
11637W        W84705  33.562  17.285   4.599
11638W        W84706  28.399   2.404  14.337
11639W        W84707  40.345  24.598   0.939
11640W        W84708  37.950  43.979  14.442
11641W        W84709   5.153  12.822  10.435
11642W        W84710  44.879   7.585  11.433
11643W        W84711  21.073  14.135  11.246
11644W        W84712  35.522  15.201  12.952
11645W        W84713   1.591  24.640  11.255
11646W        W84714   6.481   0.734   1.842
11647W        W84715  40.539  14.172  10.756
11648W        W84716  36.385  22.485   3.051
11649W        W84717   9.678  10.256   3.375
11650W        W84718  12.639   4.439   4.765
11651W        W84719  44.347   4.884  13.098
11652W        W84720  21.449  30.968   0.425
11653W        W84721   5.434  26.911   2.706
11654W        W84722  40.395  26.167  11.563
11655W        W84723  31.346  34.619   0.874
11656W        W84724  28.377   2.662   2.211
11657W        W84725   0.395  10.870   2.260
11658W        W84726  37.459  36.952  11.500
11659W        W84727  23.442  38.535   0.277
11660W        W84728  36.342  30.986  10.703
11661W        W84729   6.296   6.117   2.314
11662W        W84730   5.907   7.143  12.295
11663W        W84731  20.469  12.313  11.636
11664W        W84732  30.182  26.416  14.873
11665W        W84733  42.511  29.572   4.594
11666W        W84734  12.463  12.708  11.258
11667W        W84735  13.420  25.633  11.941
11668W        W84736  15.080  33.077   0.145
11669W        W84737  28.063  18.836  14.515
11670W        W84738  16.806   1.328  10.393
11671W        W84739   3.962  21.698  14.965
11672W        W84740   1.070  23.457   1.025
11673W        W84741  14.118  32.802  11.983
11674W        W84742  42.841  33.337   2.304
11675W        W84743  40.290   1.531  13.999
11676W        W84744   5.344  41.489   2.831
11677W        W84745  41.995  19.797   2.130
11678W        W84746  24.043  17.697  11.669
11679W        W84747   9.340  10.167  12.897
11680W        W84748  43.430  44.995  14.877
11681W        W84749  27.438  30.060   4.720
11682W        W84750   2.330  16.102   3.389
11683W        W84751  15.942  14.405   3.226
11684W        W84752  25.599  43.812  13.290
11685W        W84753  27.631  20.550   1.939
11686W        W84754  10.335  34.889  12.491
11687W        W84755  36.996  29.078  14.819
11688W        W84756  44.828   6.694   3.104
11689W        W84757  30.685   4.432  12.243
11690W        W84758  27.443   6.929  14.941
11691W        W84759   5.050   8.758  11.219
11692W        W84760  42.627  34.882  13.801
11693W        W84761  17.315  22.971  12.521
11694W        W84762   4.281  17.623   3.869
11695W        W84763  35.021   4.879   3.266
11696W        W84764  30.882   6.399   1.879
11697W        W84765  44.499  43.979  11.888
11698W        W84766  13.435  32.093   5.251
11699W        W84767  43.593   6.337   2.860
11700W        W84768  10.235  31.173  12.455
11701W        W84769  31.651   8.917   3.683
11702W        W84770  38.167  40.429  10.512
11703W        W84771  21.755  26.111   0.002
11704W        W84772   8.798  26.558  14.964
11705W        W84773  28.456  20.450   1.924
11706W        W84774  13.391  13.232  12.839
11707W        W84775  38.043  16.834   0.730
11708W        W84776  14.856  27.719   2.875
11709W        W84777   5.482   9.423  13.587
11710W        W84778  38.445  42.533  13.018
11711W        W84779  26.177  38.201   0.044
11712W        W84780  19.022  36.793  14.896
11713W        W84781  21.497  18.542   1.755
11714W        W84782  19.799   5.748  11.197
11715W        W84783  27.190  12.047   0.648
11716W        W84784  34.355  22.715  11.554
11717W        W84785  19.712  20.237   3.884
11718W        W84786   9.126  26.407   1.323
11719W        W84787  14.051  24.988  12.893
11720W        W84788  22.518   6.368  12.989
11721W        W84789  38.939  12.566   2.190
11722W        W84790   3.385  14.188   0.865
11723W        W84791  37.898  30.464  13.759
11724W        W84792   5.282   2.231  10.736
11725W        W84793   1.095  32.917   0.977
11726W        W84794  23.036   6.904   0.961
11727W        W84795  25.487  29.343   0.043
11728W        W84796  32.881   3.336   1.327
11729W        W84797  28.179   1.627  14.869
11730W        W84798  10.019  32.889  10.823
11731W        W84799  15.911  32.481  13.955
11732W        W84800  10.565  20.711  14.249
11733W        W84801  27.808   1.975   1.846
11734W        W84802  42.723  27.610   0.333
11735W        W84803  13.762  40.675   3.187
11736W        W84804  29.946   1.933   1.302
11737W        W84805   0.025  11.835  13.824
11738W        W84806  29.385  37.100   0.546
11739W        W84807  21.868  14.096   5.088
11740W        W84808   9.658  30.692  10.567
11741W        W84809  15.334  23.510  12.468
11742W        W84810  21.222  11.246   1.470
11743W        W84811   1.230  28.530   0.464
11744W        W84812  31.873  32.516  11.418
11745W        W84813  20.214  41.446  11.314
11746W        W84814  39.034  43.359  11.564
11747W        W84815  18.338   1.438   0.151
11748W        W84816  18.192  42.506   2.261
11749W        W84817  18.210  13.284  13.977
11750W        W84818  11.128   6.342   0.329
11751W        W84819   2.370  41.060   1.939
11752W        W84820  36.086  30.549  12.285
11753W        W84821  25.600  13.605   4.773
11754W        W84822  32.746  38.485  12.489
11755W        W84823  12.704  33.859   1.829
11756W        W84824  33.548  39.789  13.190
11757W        W84825  42.789  36.374   3.271
11758W        W84826  41.924  22.439   3.257
11759W        W84827  25.496  27.360   2.696
11760W        W84828  16.722  11.606  12.391
11761W        W84829  26.531  12.740   4.068
11762W        W84830  13.167   0.786  11.846
11763W        W84831  14.220  29.456   0.356
11764W        W84832  27.206  20.348  14.224
11765W        W84833  17.066  12.853  13.501
11766W        W84834  32.903  34.331  11.110
11767W        W84835  30.554   4.636  11.689
11768W        W84836  31.894  39.879   1.965
11769W        W84837   8.958  13.257   3.415
11770W        W84838  16.721   6.006   4.752
11771W        W84839   0.436  40.320  13.971
11772W        W84840  41.299  38.453   1.866
11773W        W84841   7.972  25.612   1.354
11774W        W84842  35.552  11.915  13.843
11775W        W84843  22.718  16.324  12.549
11776W        W84844   8.460  32.221   3.292
11777W        W84845  26.548  25.443  11.158
11778W        W84846  37.972  36.143  10.850
11779W        W84847  10.425  33.165   1.940
11780W        W84848  20.855  36.407   2.681
11781W        W84849  21.727  23.375   0.482
11782W        W84850  24.610  28.830   4.975
11783W        W84851  17.005  18.567  14.646
11784W        W84852  17.848  20.219   3.218
11785W        W84853   4.115  35.515   3.751
11786W        W84854  28.508  10.171   5.047
11787W        W84855   9.243  42.816   2.467
11788W        W84856  34.399  40.290   1.804
11789W        W84857   3.403  17.065  12.925
11790W        W84858   0.323   1.690   4.356
11791W        W84859  24.538  28.129  11.575
11792W        W84860  25.088  10.284  11.278
11793W        W84861  35.720  38.559  13.787
11794W        W84862  33.781  11.452   3.957
11795W        W84863   9.850  25.084   0.185
11796W        W84864  37.868   3.973  12.555
11797W        W84865  18.712  22.212   4.414
11798W        W84866  30.469  30.973  12.613
11799W        W84867  38.531   3.177   4.042
11800W        W84868  13.591   3.301  12.972
11801W        W84869  36.865  34.585   2.365
11802W        W84870  26.522  42.090   4.592
11803W        W84871  28.553  26.174   0.850
11804W        W84872  33.837  10.654  14.282
11805W        W84873  38.438  22.112   1.678
11806W        W84874   1.222   8.774  12.377
11807W        W84875  38.955  43.970   1.842
11808W        W84876  36.404  22.116   3.418
11809W        W84877  26.255  18.339   1.877
11810W        W84878   1.669  22.045   4.790
11811W        W84879  32.073  40.941  10.633
11812W        W84880   5.345  33.215   3.188
11813W        W84881  30.746   4.347   0.399
11814W        W84882  23.494  44.914  13.980
11815W        W84883   7.271  38.941   3.917
11816W        W84884  17.313   7.437  11.191
11817W        W84885  43.573  31.952  11.214
11818W        W84886  36.613   9.855  11.278
11819W        W84887  20.739  42.452   3.431
11820W        W84888  42.950  14.344  10.418
11821W        W84889   4.884  37.032   4.895
11822W        W84890  13.340   0.025  13.022
11823W        W84891  29.793  26.639  11.540
11824W        W84892  31.551  26.457  13.739
11825W        W84893   7.513  32.134  12.947
11826W        W84894   7.301  21.540   1.942
11827W        W84895  11.928  29.741  12.241
11828W        W84896  36.838   6.277   1.174
11829W        W84897   1.040   8.834   1.444
11830W        W84898  24.242  22.054  11.195
11831W        W84899  43.030  19.701  14.383
11832W        W84900  19.758   2.961  13.348
11833W        W84901  26.727  27.399  11.036
11834W        W84902  36.695  19.192  13.761
11835W        W84903  17.735   0.878  14.000
11836W        W84904  37.676  16.492  10.048
11837W        W84905   7.370  17.704   1.875
11838W        W84906  35.197   4.450  11.096
11839W        W84907  41.243  33.326   1.685
11840W        W84908  39.899   5.446  14.713
11841W        W84909  33.909  30.060   3.218
11842W        W84910  15.729  37.572  13.848
11843W        W84911   1.308  27.406   1.176
11844W        W84912  23.796   5.879   1.773
11845W        W84913  40.450   4.584  10.906
11846W        W84914  22.323   0.747   4.757
11847W        W84915  33.497  38.519   0.296
11848W        W84916  22.162  23.433  14.869
11849W        W84917  20.644   9.828  13.365
11850W        W84918  17.579  34.677   4.445
11851W        W84919  38.465  19.660   2.897
11852W        W84920   7.882  44.758   0.712
11853W        W84921  30.009  36.827  11.107
11854W        W84922  27.603  31.601  10.537
11855W        W84923   0.517  24.962   1.841
11856W        W84924  14.294  32.972   2.491
11857W        W84925  10.795   5.459   4.224
11858W        W84926  29.950  25.021  13.842
11859W        W84927   2.134  24.566   2.808
11860W        W84928   0.834  31.385   3.710
11861W        W84929  11.567  18.584   4.417
11862W        W84930  17.690  17.780   2.146
11863W        W84931  28.490  25.502  12.131
11864W        W84932  34.073   5.342   4.559
11865W        W84933   7.246  41.746   4.585
11866W        W84934   8.253  36.080   2.146
11867W        W84935  38.151  19.148  11.970
11868W        W84936  15.254  34.159   2.741
11869W        W84937  24.979  40.279  13.789
11870W        W84938  27.989  16.265   1.219
11871W        W84939   7.886   6.717   2.303
11872W        W84940  42.139  33.326  14.931
11873W        W84941  24.901   3.232   2.863
11874W        W84942  31.329   5.576  13.839
11875W        W84943   5.445  44.358  11.594
11876W        W84944  20.815  15.695  13.309
11877W        W84945  38.857  32.037  13.231
11878W        W84946  41.080   7.003   4.485
11879W        W84947  10.400  10.664  14.315
11880W        W84948  36.328   9.048  14.309
11881W        W84949   2.281   1.756  12.853
11882W        W84950   3.616   2.790  10.603
11883W        W84951  42.893  33.578   2.808
11884W        W84952   6.200  15.205  11.888
11885W        W84953  44.477  36.542   4.698
11886W        W84954  40.448  16.088  12.185
11887W        W84955   3.803  24.183   1.325
11888W        W84956  10.971   0.813   3.774
11889W        W84957  19.944  43.688  10.779
11890W        W84958  37.916  33.833  12.899
11891W        W84959   7.879  37.062  14.047
11892W        W84960  35.741  21.432   1.385
11893W        W84961  43.576  22.170   0.666
11894W        W84962  44.151  39.841   0.724
11895W        W84963  38.626  12.286   2.650
11896W        W84964  30.256  16.088   1.775
11897W        W84965  39.757  16.204   5.828
11898W        W84966   8.633  21.201   3.079
11899W        W84967  22.490  15.142  13.709
11900W        W84968   0.434  39.370  12.882
11901W        W84969  10.275   4.940   3.758
11902W        W84970   8.939   1.785  11.207
11903W        W84971  35.796   9.868   2.343
11904W        W84972  20.782  36.999  13.483
11905W        W84973  21.121  35.708   0.400
11906W        W84974  18.118  18.242   3.411
11907W        W84975  19.689  12.207   4.318
11908W        W84976  37.959  23.683  14.391
11909W        W84977  15.197  21.013   1.674
11910W        W84978  36.941  32.400  10.433
11911W        W84979  37.473  30.910   1.167
11912W        W84980  37.569  21.072   1.986
11913W        W84981  42.358  12.140  12.056
11914W        W84982   5.594   1.812  10.702
11915W        W84983  35.583  23.998   0.407
11916W        W84984  25.461  35.868  12.770
11917W        W84985  15.606   3.087   1.981
11918W        W84986  21.119  42.766  13.180
11919W        W84987  15.367   7.284  14.760
11920W        W84988  10.250   1.700   1.317
11921W        W84989  26.047   1.780  13.677
11922W        W84990  36.872  43.250   3.700
11923W        W84991  14.350  12.348  10.918
11924W        W84992  18.271  32.413  12.897
11925W        W84993  31.449   1.917   1.688
11926W        W84994  20.596  42.702  13.291
11927W        W84995   0.985  30.380   3.195
11928W        W84996  13.701  34.694  14.460
11929W        W84997  25.026  34.019  12.964
11930W        W84998   5.771  11.843   3.141
11931W        W84999   2.926  27.769   0.372
11932W        W85000  36.447  41.935   4.830
11933W        W85001  32.183  26.498  11.993
11934W        W85002   5.164  30.000   4.341
11935W        W85003  25.125  37.492  13.051
11936W        W85004   8.711  31.539   0.457
11937W        W85005  43.284  29.054  13.536
11938W        W85006  13.814  31.473  10.405
11939W        W85007  38.532   6.327   2.897
11940W        W85008  39.228  33.707  13.805
11941W        W85009  27.529  25.754  12.925
11942W        W85010  41.955   7.355   4.633
11943W        W85011  13.367  31.087  13.972
11944W        W85012   0.360  24.169  11.096
11945W        W85013  41.749  28.537  12.837
11946W        W85014  44.016  39.879   3.892
11947W        W85015  10.644  24.643  14.273
11948W        W85016  35.463  31.061   2.678
11949W        W85017  36.909   4.707   4.654
11950W        W85018  37.862  44.560  12.485
11951W        W85019  26.244  29.885   3.289
11952W        W85020   8.400  15.734   4.181
11953W        W85021  23.431  20.584  12.427
11954W        W85022  37.501  26.474  12.646
11955W        W85023  14.120  39.734  12.187
11956W        W85024  41.487  19.569  14.765
11957W        W85025  40.432   0.416  11.175
11958W        W85026  38.773  39.853  11.835
11959W        W85027   4.896  34.831  10.289
11960W        W85028  42.979  18.222   2.833
11961W        W85029  18.670   9.034   3.274
11962W        W85030  15.123  22.172   0.294
11963W        W85031   8.305  16.509   1.646
11964W        W85032  20.703  15.749   3.464
11965W        W85033  23.293  31.712  13.975
11966W        W85034  34.537   9.231  10.562
11967W        W85035  17.564  39.394  12.889
11968W        W85036  13.019  33.710   4.197
11969W        W85037  28.569  36.485   4.325
11970W        W85038  28.955  16.235   1.227
11971W        W85039  13.168  15.069   1.978
11972W        W85040  13.196   6.820  12.812
11973W        W85041  22.319   1.899  14.464
11974W        W85042  12.234   6.950  10.684
11975W        W85043  28.713  38.716   4.824
11976W        W85044  12.034  43.159   3.107
11977W        W85045   8.819  34.277  13.386
11978W        W85046  11.616  32.347   2.259
11979W        W85047  37.426  28.474   0.965
11980W        W85048  27.415  37.214   3.753
11981W        W85049  24.748  32.031   3.728
11982W        W85050  32.982  27.020   1.757
11983W        W85051   3.471   8.839  11.959
11984W        W85052  12.238   9.730  11.206
11985W        W85053   4.920  29.188   5.362
11986W        W85054  26.110  15.670  13.584
11987W        W85055  39.467  28.446   1.771
11988W        W85056  18.140  28.798  10.541
11989W        W85057  28.529   4.391  12.098
11990W        W85058  19.568  28.360   2.853
11991W        W85059  15.578  40.831   0.250
11992W        W85060  24.596  16.315  11.995
11993W        W85061  44.698  29.564  11.248
11994W        W85062  12.165  37.543   2.823
11995W        W85063  36.244  35.973  14.571
11996W        W85064  14.672  20.484   3.279
11997W        W85065   9.862  27.963  12.461
11998W        W85066  11.571  12.251  10.318
11999W        W85067   3.397   4.659  12.385
12000W        W85068  42.880  44.472   4.689
12001W        W85069  26.473   3.722   4.115
12002W        W85070  26.271   9.824  12.416
12003W        W85071  42.940  40.061   1.400
12004W        W85072  23.497  35.512   4.680
12005W        W85073  37.550  14.216  14.838
12006W        W85074  38.322  35.842  11.191
12007W        W85075  34.227  16.908  14.641
12008W        W85076  36.224  40.966  12.185
12009W        W85077  29.077  32.267  11.471
12010W        W85078   5.378  33.103  11.959
12011W        W85079   1.088   9.673  13.408
12012W        W85080  12.819   0.751   0.336
12013W        W85081  12.814  18.086  11.316
12014W        W85082  35.015  43.458   1.707
12015W        W85083   3.463  16.775   3.322
12016W        W85084  42.787  39.449  11.667
12017W        W85085   2.853  16.135   3.343
12018W        W85086  26.766  25.939  14.792
12019W        W85087  27.389  27.880  14.615
12020W        W85088  42.837   4.178   3.750
12021W        W85089   5.662  19.565   4.944
12022W        W85090   9.747  26.048  11.115
12023W        W85091   8.898  18.891  13.865
12024W        W85092  13.802  12.841   0.830
12025W        W85093  39.895  33.918   3.560
12026W        W85094   2.344  12.572  10.793
12027W        W85095   3.670  40.030  14.372
12028W        W85096  36.365  33.690  11.662
12029W        W85097  32.406  28.082   0.671
12030W        W85098   7.152  13.719   2.946
12031W        W85099  14.070  30.633  11.107
12032W        W85100   5.261  42.512   2.692
12033W        W85101  10.264  19.916  10.997
12034W        W85102   7.843  15.813  11.819
12035W        W85103  24.507  22.525   1.393
12036W        W85104  30.464   9.134  12.279
12037W        W85105  10.320  39.440   4.386
12038W        W85106  37.356  31.923   3.686
12039W        W85107  17.103   2.834   3.102
12040W        W85108  30.029   7.310  10.774
12041W        W85109  30.577  28.756   0.430
12042W        W85110   4.989   5.208   2.909
12043W        W85111  22.706  24.546  14.750
12044W        W85112   0.351  36.010   4.300
12045W        W85113  18.458  30.180  14.761
12046W        W85114  35.195  25.257   2.919
12047W        W85115  14.634  42.472  11.388
12048W        W85116  21.825  41.262   3.254
12049W        W85117  41.801  28.307  11.158
12050W        W85118  43.684  12.145  11.499
12051W        W85119   8.178  20.319  14.463
12052W        W85120  13.219  36.889   0.674
12053W        W85121  29.820   0.459  10.705
12054W        W85122  24.863  13.149   4.627
12055W        W85123  40.511  31.376  13.553
12056W        W85124   9.673  40.042   3.351
12057W        W85125  42.678  25.652   4.130
12058W        W85126   1.844  42.112   1.848
12059W        W85127  14.843  26.493   2.896
12060W        W85128   3.997  13.261  12.586
12061W        W85129  30.890  26.000  13.274
12062W        W85130  37.011  30.731   3.327
12063W        W85131  27.807  41.335  13.457
12064W        W85132   1.880  17.650   2.899
12065W        W85133  34.442  14.731   4.506
12066W        W85134  15.774  37.395  11.975
12067W        W85135  43.370  12.941   1.393
12068W        W85136   7.746   6.274  13.858
12069W        W85137  39.292  24.509   0.806
12070W        W85138   1.299  36.375  14.057
12071W        W85139   0.498  35.412   2.532
12072W        W85140  16.019  40.432  12.525
12073W        W85141  34.557   1.230  11.082
12074W        W85142  13.690  44.402  12.638
12075W        W85143   8.677   6.020  10.895
12076W        W85144  20.351  15.887  11.096
12077W        W85145  44.221  36.630   2.761
12078W        W85146  41.956  30.106   1.331
12079W        W85147  18.122   4.691  12.131
12080W        W85148  24.106  15.959   3.455
12081W        W85149  25.054  40.823  14.470
12082W        W85150   7.873  31.912  14.525
12083W        W85151  21.091  25.059   4.066
12084W        W85152   4.210  20.994   0.941
12085W        W85153  43.998  41.539   3.750
12086W        W85154  15.933  19.050   0.905
12087W        W85155  18.982  44.973  14.928
12088W        W85156  24.516   2.358  14.473
12089W        W85157   4.033  28.647  14.865
12090W        W85158  27.677  31.461  13.384
12091W        W85159  12.850  22.923  14.747
12092W        W85160  28.567  28.349   3.399
12093W        W85161  26.213  40.596   1.902
12094W        W85162  43.938  13.147  11.557
12095W        W85163  38.948  16.256   0.912
12096W        W85164  19.248   2.476   3.704
12097W        W85165  27.128  26.419  13.948
12098W        W85166  20.053  19.546   1.900
12099W        W85167  28.120  28.031   4.554
12100W        W85168  43.427   8.846   2.074
12101W        W85169  36.871  34.411  10.173
12102W        W85170   8.299  10.176  13.783
12103W        W85171   6.408  22.293  11.213
12104W        W85172  43.968  28.366   4.605
12105W        W85173   6.006   4.482  12.934
12106W        W85174  34.922   4.160  11.439
12107W        W85175  29.537  29.687   0.823
12108W        W85176  11.156  25.502  11.519
12109W        W85177  40.398   0.782   4.059
12110W        W85178   1.725  30.151   1.826
12111W        W85179   8.179  19.313  13.363
12112W        W85180  34.885   3.900   0.751
12113W        W85181   4.775  40.394   3.635
12114W        W85182  43.155  30.792   1.920
12115W        W85183  19.272   7.583  11.913
12116W        W85184  28.994   4.170  11.995
12117W        W85185  35.432   0.283   4.779
12118W        W85186  15.377  31.811   2.770
12119W        W85187  13.362  14.754   4.442
12120W        W85188  34.612  33.376   2.399
12121W        W85189   6.664  24.731   1.735
12122W        W85190  31.487  19.778   1.491
12123W        W85191  37.367  16.154  14.006
12124W        W85192  35.171  28.117  12.923
12125W        W85193  11.648  28.754   0.362
12126W        W85194  25.394   7.441   9.783
12127W        W85195  15.191  32.162   1.204
12128W        W85196  20.478  32.921   0.356
12129W        W85197  10.480  43.027   4.279
12130W        W85198  18.973  24.093  10.441
12131W        W85199  31.137  18.063  11.530
12132W        W85200  43.765  26.433   2.441
12133W        W85201  21.109  10.232  14.372
12134W        W85202   8.166  40.394  13.507
12135W        W85203  39.602  13.178  10.670
12136W        W85204  15.805  24.497   2.730
12137W        W85205  13.053  42.809  11.086
12138W        W85206  13.761  26.949   4.870
12139W        W85207  26.625  18.330   2.670
12140W        W85208  26.128   0.308  14.808
12141W        W85209  38.013  11.957  14.955
12142W        W85210  42.967  23.759  11.970
12143W        W85211   0.204  15.093   1.914
12144W        W85212  14.396  17.639  13.976
12145W        W85213   6.278  15.785  11.548
12146W        W85214   9.230   8.645  11.570
12147W        W85215   4.331  32.945  11.870
12148W        W85216  24.788  27.164  13.946
12149W        W85217  22.127  32.076  13.399
12150W        W85218   0.878  42.267  13.047
12151W        W85219  23.665  40.604  11.902
12152W        W85220  43.687  33.211  11.410
12153W        W85221  29.562  37.339  13.856
12154W        W85222  16.253   7.026   2.004
12155W        W85223   3.982  20.444  14.504
12156W        W85224   0.822  36.369  14.326
12157W        W85225  36.439   8.348  14.966
12158W        W85226  24.112  14.826   4.932
12159W        W85227  41.045  41.801  12.469
12160W        W85228  41.509  26.028   2.163
12161W        W85229  13.256  25.610   1.372
12162W        W85230  41.881  39.107   0.347
12163W        W85231  35.878   8.348  14.342
12164W        W85232   4.686   8.218   4.581
12165W        W85233  42.961  44.468  13.874
12166W        W85234  15.543  42.248  11.588
12167W        W85235   3.861  22.529   2.879
12168W        W85236   8.069  33.534  14.534
12169W        W85237  23.780  44.885  11.937
12170W        W85238   1.477  23.243   0.735
12171W        W85239  32.673  18.266  12.827
12172W        W85240  26.929  37.420  12.087
12173W        W85241  29.888  39.431   4.111
12174W        W85242  21.778  23.781  11.428
12175W        W85243  41.408  28.225  13.129
12176W        W85244  25.287  32.960  13.360
12177W        W85245  20.302  10.831  14.104
12178W        W85246  43.361   6.661   4.750
12179W        W85247  23.736  43.417  11.172
12180W        W85248  20.099  43.744  11.576
12181W        W85249  32.520  42.858  10.656
12182W        W85250  13.933  36.734   3.199
12183W        W85251   3.283  17.877   1.425
12184W        W85252  16.269   5.489   1.936
12185W        W85253  23.531  37.815   1.885
12186W        W85254   3.085   8.077  10.963
12187W        W85255   6.826  28.082   2.397
12188W        W85256  41.365  29.185   0.235
12189W        W85257  16.119   4.394  13.371
12190W        W85258  43.224  16.713   4.699
12191W        W85259  16.784   4.341  10.991
12192W        W85260  31.006  14.691   2.820
12193W        W85261  16.222   1.359  12.598
12194W        W85262  28.689  14.646  12.072
12195W        W85263  44.024  26.081   4.274
12196W        W85264  26.129  26.981   1.357
12197W        W85265  35.481  42.317   3.107
12198W        W85266  11.374  36.002   4.762
12199W        W85267   6.813  41.475   5.140
12200W        W85268  41.805  24.919  13.082
12201W        W85269  34.921  31.082  10.516
12202W        W85270  38.859  27.074  11.432
12203W        W85271   9.835  20.663  14.725
12204W        W85272  43.270  21.739  12.002
12205W        W85273   0.197  36.327   2.770
12206W        W85274  30.252  17.455  12.636
12207W        W85275   4.397   5.166  10.079
12208W        W85276  24.762  26.507  13.290
12209W        W85277  19.084   4.785   2.731
12210W        W85278  33.996  15.542   2.663
12211W        W85279  32.537  33.821   1.742
12212W        W85280  37.445  30.172  11.678
12213W        W85281  13.816  33.056  12.619
12214W        W85282   4.378   4.284   4.512
12215W        W85283  11.711  39.849  10.356
12216W        W85284  17.991  27.060  14.308
12217W        W85285   4.585  22.010  10.606
12218W        W85286  43.535  24.151  14.523
12219W        W85287  22.276   0.769  11.932
12220W        W85288  14.769  35.052  12.434
12221W        W85289  22.348  29.068  13.570
12222W        W85290  16.602  21.879   0.887
12223W        W85291  42.622   8.115  12.962
12224W        W85292  41.763  28.011  10.744
12225W        W85293   2.906  41.361   2.652
12226W        W85294  37.443   3.974  14.336
12227W        W85295  17.747  23.019   2.263
12228W        W85296  41.087  11.626  14.546
12229W        W85297  34.915  16.709  14.370
12230W        W85298  42.813  12.239   3.616
12231W        W85299  21.597  19.446  12.919
12232W        W85300   3.641  43.506  14.961
12233W        W85301  13.287  25.212  14.008
12234W        W85302   1.508  23.270  11.071
12235W        W85303   1.254  33.471  12.105
12236W        W85304  27.244   7.047   2.690
12237W        W85305  10.228  29.883   4.570
12238W        W85306  10.641  27.294  11.417
12239W        W85307  43.428  32.215   0.556
12240W        W85308  35.892  38.311  13.354
12241W        W85309  37.991  28.656   4.141
12242W        W85310  25.574  29.961  12.491
12243W        W85311  36.014  19.151   3.708
12244W        W85312  21.012   9.753  14.597
12245W        W85313   7.111  33.614  14.731
12246W        W85314  11.771  13.117  10.354
12247W        W85315  37.729  12.178  13.617
12248W        W85316   7.060  19.256   4.122
12249W        W85317   3.981  14.299  10.723
12250W        W85318   4.831  30.185   4.692
12251W        W85319  24.042   9.359  13.033
12252W        W85320  10.758  13.130   2.676
12253W        W85321  42.209  33.936   1.774
12254W        W85322  25.231  22.288  11.358
12255W        W85323  21.291  37.399  11.521
12256W        W85324  34.036  30.027   4.287
12257W        W85325  22.721   6.629  13.407
12258W        W85326   2.312   6.874  14.273
12259W        W85327  38.079  32.566  14.738
12260W        W85328   0.023  24.697  11.885
12261W        W85329  12.547   4.137  11.869
12262W        W85330  41.467  17.643  12.638
12263W        W85331   8.107   9.353  11.552
12264W        W85332  24.061  31.155   4.608
12265W        W85333   6.128  31.164   2.227
12266W        W85334  22.667   1.544   1.737
12267W        W85335  13.244  35.924   3.244
12268W        W85336  32.610   5.750   3.368
12269W        W85337   6.754  11.819   1.796
12270W        W85338  24.945   6.452   4.187
12271W        W85339  29.173  17.476   0.608
12272W        W85340  37.263  16.730   3.520
12273W        W85341  23.655  24.551  14.884
12274W        W85342  18.729   3.727   1.716
12275W        W85343  11.580  20.751   4.405
12276W        W85344  40.821  13.255   3.583
12277W        W85345   8.603  40.591  13.303
12278W        W85346  19.167  22.534   1.431
12279W        W85347  36.473  12.786   4.222
12280W        W85348   5.608  15.811   1.849
12281W        W85349  10.221  33.146   2.410
12282W        W85350  23.801   1.283   1.776
12283W        W85351   0.964  17.635  10.705
12284W        W85352  12.015  33.481  14.888
12285W        W85353  15.331  35.476  14.543
12286W        W85354  38.764  12.754   4.414
12287W        W85355  32.852  14.481   1.299
12288W        W85356  42.807  29.936  11.181
12289W        W85357  29.553  10.476  14.185
12290W        W85358  32.657  30.442   0.700
12291W        W85359  26.681  32.105   3.728
12292W        W85360  29.979  34.099   3.703
12293W        W85361  36.381  27.388   2.705
12294W        W85362  29.992  39.107  14.471
12295W        W85363  42.022  12.199  12.450
12296W        W85364  34.611  30.063  12.982
12297W        W85365  14.896  30.912  14.369
12298W        W85366  25.012  37.747  10.545
12299W        W85367  33.079   0.701  10.736
12300W        W85368  20.286  28.352  14.209
12301W        W85369   0.345  36.649  12.708
12302W        W85370  41.739  15.488   2.720
12303W        W85371  29.191   7.036   2.146
12304W        W85372  27.160  10.726   5.015
12305W        W85373  36.412   0.905   1.855
12306W        W85374   5.867  21.052  10.633
12307W        W85375  21.484   0.224  13.550
12308W        W85376  11.327  19.670   5.627
12309W        W85377  41.779  10.251   4.121
12310W        W85378  32.819  34.937   0.836
12311W        W85379   7.936  29.195  11.920
12312W        W85380  40.412  39.901   0.767
12313W        W85381   9.673  21.554   2.112
12314W        W85382  44.521   5.909  14.433
12315W        W85383  36.058  16.129  11.912
12316W        W85384   1.008  33.592  10.766
12317W        W85385  34.554  36.416  12.875
12318W        W85386  24.992  34.560  11.602
12319W        W85387  34.014  22.666   0.492
12320W        W85388   0.462  21.091  13.793
12321W        W85389   0.805  38.254   3.250
12322W        W85390  13.369  34.198  11.099
12323W        W85391  29.956  34.844  12.537
12324W        W85392  13.830  34.012  11.090
12325W        W85393  25.282  36.401  14.040
12326W        W85394   1.218  14.750  14.569
12327W        W85395   3.311  29.374   1.846
12328W        W85396  44.717  21.017   4.071
12329W        W85397  28.436  12.867   3.765
12330W        W85398  41.470  34.417  11.309
12331W        W85399  15.916   0.338   1.376
12332W        W85400  18.182  10.574   2.797
12333W        W85401  13.349  33.186  14.251
12334W        W85402   9.314   5.307   3.370
12335W        W85403  40.503  38.872  14.371
12336W        W85404  41.619  11.851  10.957
12337W        W85405  13.026  10.744   2.276
12338W        W85406  36.882  23.265  14.264
12339W        W85407  42.781   6.352   1.657
12340W        W85408  19.557  31.563   4.636
12341W        W85409  27.752  41.105   2.395
12342W        W85410  32.368  19.185   3.604
12343W        W85411  19.296  30.727   4.061
12344W        W85412   1.999  25.701   2.317
12345W        W85413  24.607   8.125   2.833
12346W        W85414  31.475  11.529   1.281
12347W        W85415   4.356  13.316  14.058
12348W        W85416  33.887  44.747  10.645
12349W        W85417   3.260   5.249   1.745
12350W        W85418   2.194   3.434  14.235
12351W        W85419  29.132   3.244  11.207
12352W        W85420  11.724   6.169  10.636
12353W        W85421  12.878  31.053  10.683
12354W        W85422  38.985  11.873   2.759
12355W        W85423   9.663  31.190  10.961
12356W        W85424   9.651  21.202   1.713
12357W        W85425  28.857  31.836   0.889
12358W        W85426  19.735  24.072  12.893
12359W        W85427  36.938  19.309  10.756
12360W        W85428  19.146   3.503  10.656
12361W        W85429  16.808  18.467   0.647
12362W        W85430  37.059  44.933   0.956
12363W        W85431  27.654  40.905  10.405
12364W        W85432  37.818  13.598  13.042
12365W        W85433  18.718  17.575   3.275
12366W        W85434   5.334   3.794   3.124
12367W        W85435   2.282  36.612   0.914
12368W        W85436  12.466   8.889  11.414
12369W        W85437  42.101  32.507   4.718
12370W        W85438  28.057   3.279  11.759
12371W        W85439  15.245   7.606   1.573
12372W        W85440  25.472  21.741  10.696
12373W        W85441  34.068  16.029  12.518
12374W        W85442  16.665  19.768   1.782
12375W        W85443  28.981   4.789   4.949
12376W        W85444  21.738  34.130  10.682
12377W        W85445  28.125  31.173   2.845
12378W        W85446   0.891  19.785   0.444
12379W        W85447   9.728  17.264  14.445
12380W        W85448  16.807  15.291   4.218
12381W        W85449  34.032  40.814  12.961
12382W        W85450  31.327  12.751  14.329
12383W        W85451  32.149  24.520   1.556
12384W        W85452  17.319  39.927  12.961
12385W        W85453  24.758  25.423   0.866
12386W        W85454  38.543  24.125   1.034
12387W        W85455  14.057   9.304   0.304
12388W        W85456  20.814  15.766   3.960
12389W        W85457   3.402  38.659   4.866
12390W        W85458  16.891  14.125   3.266
12391W        W85459  35.443  11.287   1.841
12392W        W85460   2.511  18.622  13.823
12393W        W85461  39.050  23.221   2.374
12394W        W85462  40.845  15.238   3.076
12395W        W85463  43.539  37.037  12.561
12396W        W85464  12.261  11.387   2.351
12397W        W85465   8.378  37.608  12.092
12398W        W85466   6.100  22.682  11.936
12399W        W85467   3.637  21.625   1.967
12400W        W85468   5.823   6.672   1.439
12401W        W85469  32.099  32.494  12.310
12402W        W85470  39.092  40.389   0.804
12403W        W85471  14.394  27.688   0.865
12404W        W85472   9.874  34.177   4.619
12405W        W85473   1.733  20.184   0.885
12406W        W85474  11.858  20.793  13.960
12407W        W85475  11.543   3.790  14.980
12408W        W85476  35.078  31.033   4.858
12409W        W85477  18.633  36.392   2.950
12410W        W85478  19.565  28.196   4.069
12411W        W85479  34.774  25.903   0.993
12412W        W85480  20.533   8.704  11.626
12413W        W85481   6.077  23.471   4.636
12414W        W85482  13.178  17.948  11.989
12415W        W85483   8.604  21.588  13.844
12416W        W85484  16.825   9.931   2.314
12417W        W85485   3.643   4.654  12.837
12418W        W85486  44.306  18.177  10.730
12419W        W85487  33.063  37.969  11.990
12420W        W85488   1.479  44.909   3.575
12421W        W85489  15.130  36.083  14.228
12422W        W85490   2.439  16.972  14.316
12423W        W85491   3.017   9.223   1.998
12424W        W85492  20.726   2.452   3.639
12425W        W85493  30.421  23.024   2.292
12426W        W85494  25.478   0.047   0.764
12427W        W85495   2.181  11.910   3.680
12428W        W85496  10.044   0.230   4.678
12429W        W85497   8.618  39.528   9.869
12430W        W85498  29.518   6.219   3.326
12431W        W85499   6.324  17.846  10.981
12432W        W85500  12.917  18.107  14.274
12433W        W85501  14.163   4.463   2.693
12434W        W85502  13.434   7.003   2.353
12435W        W85503  32.950  21.759  13.006
12436W        W85504  24.727  42.271  11.102
12437W        W85505  11.144  35.585  10.563
12438W        W85506  32.581  17.790  14.795
12439W        W85507  14.168  40.011  12.599
12440W        W85508  13.763  27.374  13.330
12441W        W85509  30.048  29.495  12.192
12442W        W85510  44.758  30.467   3.646
12443W        W85511   4.504  39.596  10.737
12444W        W85512   8.968   4.614   0.425
12445W        W85513   0.841   5.002  10.716
12446W        W85514  29.469  18.075  13.793
12447W        W85515  37.741  40.835   2.168
12448W        W85516  14.308  26.874  13.852
12449W        W85517   7.470  25.982  14.739
12450W        W85518   6.834  27.846  14.807
12451W        W85519  41.047  35.707   2.851
12452W        W85520  14.261  40.712  13.862
12453W        W85521  43.823  41.010   4.487
12454W        W85522  12.257   7.184  14.554
12455W        W85523  14.222  35.437  13.970
12456W        W85524  44.098  27.990   0.486
12457W        W85525  26.289   6.760  11.144
12458W        W85526  29.292  18.443   1.016
12459W        W85527  44.261  18.093  12.496
12460W        W85528  29.635  24.967  13.181
12461W        W85529   8.257  33.746  12.193
12462W        W85530  38.381  32.935   2.351
12463W        W85531  21.460  40.550   2.768
12464W        W85532   1.209  27.435  14.800
12465W        W85533  13.954   7.616   1.206
12466W        W85534  32.838   2.111  11.884
12467W        W85535  13.765  42.383  14.076
12468W        W85536   4.128   0.438   1.220
12469W        W85537  13.962  18.648   0.441
12470W        W85538   9.414  36.901  12.938
12471W        W85539  30.646   7.404  13.465
12472W        W85540  34.143  11.830   1.371
12473W        W85541   1.855  16.281  14.954
12474W        W85542  10.850  24.764  10.655
12475W        W85543  16.536   5.220   1.367
12476W        W85544  31.474  27.197   4.621
12477W        W85545  24.081  19.386   5.063
12478W        W85546  35.986  37.537   2.240
12479W        W85547   5.919  15.481   2.086
12480W        W85548  13.738  25.509  12.884
12481W        W85549  29.937  40.513  11.103
12482W        W85550  14.515  26.403  10.209
12483W        W85551   0.462   9.206  12.146
12484W        W85552  32.218  24.591  14.764
12485W        W85553  32.412   0.913   1.421
12486W        W85554  40.052   7.662  11.969
12487W        W85555  44.229  20.260   2.587
12488W        W85556  27.110  27.628  14.253
12489W        W85557  40.948  43.296   2.817
12490W        W85558  34.024  37.826   4.757
12491W        W85559  27.764  25.123  10.517
12492W        W85560   7.613   7.454   1.288
12493W        W85561  22.213  39.528   3.110
12494W        W85562  32.882  32.105  13.836
12495W        W85563  26.238  27.618   4.028
12496W        W85564  41.805  35.177   1.852
12497W        W85565  43.845   6.597  13.369
12498W        W85566  41.820  15.620   0.589
12499W        W85567  15.904  21.595   2.100
12500W        W85568  42.890   0.847   1.777
12501W        W85569  39.353  41.010   2.893
12502W        W85570  27.593  21.652   0.943
12503W        W85571  39.640  13.536  14.354
12504W        W85572  37.415  33.835   1.156
12505W        W85573  25.074  21.994  12.776
12506W        W85574  37.177   1.276   3.983
12507W        W85575   8.143  11.676   0.938
12508W        W85576   1.813  26.707   1.780
12509W        W85577  27.008   0.397   2.329
12510W        W85578  25.626  33.440   0.390
12511W        W85579  21.212  38.337  14.947
12512W        W85580  17.600   8.173   3.332
12513W        W85581  29.881  11.637  12.356
12514W        W85582  19.911  34.291   0.614
12515W        W85583  12.658   1.494  14.325
12516W        W85584  39.320  32.047  13.494
12517W        W85585  39.229   8.030   1.633
12518W        W85586  27.380  27.599   1.275
12519W        W85587  27.347   6.320  11.125
12520W        W85588  30.669  37.443  10.653
12521W        W85589  12.671  31.623   1.187
12522W        W85590  21.524  11.305   4.504
12523W        W85591   1.061   8.788   4.710
12524W        W85592  28.534  20.440   0.783
12525W        W85593  43.332   2.746   0.490
12526W        W85594  37.863   2.652  12.133
12527W        W85595   7.312   2.764  13.474
12528W        W85596   4.762   1.678   1.861
12529W        W85597  19.324  39.040  14.425
12530W        W85598  16.588  21.839  12.391
12531W        W85599   1.821  31.639   1.601
12532W        W85600  26.576  37.330   0.769
12533W        W85601  22.960   1.328  10.717
12534W        W85602  31.047  43.499  12.469
12535W        W85603   4.795   0.288  12.374
12536W        W85604   1.033  10.786  14.808
12537W        W85605  12.805   3.101  12.519
12538W        W85606  18.545   3.823   3.883
12539W        W85607  33.563   0.776   2.799
12540W        W85608  37.311  25.725  14.329
12541W        W85609  27.697  29.993   0.298
12542W        W85610  43.328   0.821  14.032
12543W        W85611  22.598  34.875   4.132
12544W        W85612  41.640  24.566   3.151
12545W        W85613  33.383  38.323  13.930
12546W        W85614   0.362  12.617  12.443
12547W        W85615  21.060  26.431   2.252
12548W        W85616   6.331   7.445  13.034
12549W        W85617  19.516  24.067   4.759
12550W        W85618  25.193  35.456  12.041
12551W        W85619  13.055   4.317   1.861
12552W        W85620   2.228  29.981  11.119
12553W        W85621  43.933   4.269  11.560
12554W        W85622  37.141   3.877  13.920
12555W        W85623  43.900  24.919   3.783
12556W        W85624  23.039  23.288  10.703
12557W        W85625  11.266  17.233   0.809
12558W        W85626  24.624  37.344   1.756
12559W        W85627  41.325  15.809  14.453
12560W        W85628   1.713  17.342   3.825
12561W        W85629  26.945  43.896   0.759
12562W        W85630   8.404   7.234   3.080
12563W        W85631   4.810  41.837   3.832
12564W        W85632   6.733   2.811  13.526
12565W        W85633  30.233  42.811   4.393
12566W        W85634  25.113  23.217   0.192
12567W        W85635   2.902  37.614   1.139
12568W        W85636  19.397  28.930  11.469
12569W        W85637  29.589   8.919  13.901
12570W        W85638  19.816  29.990   1.932
12571W        W85639   5.416   1.756  14.848
12572W        W85640  26.927   3.540   4.288
12573W        W85641  13.346  25.110   1.878
12574W        W85642  32.324  31.424  12.820
12575W        W85643  42.790   4.273  12.079
12576W        W85644  20.281  41.571   0.505
12577W        W85645  21.738  22.731   1.187
12578W        W85646  14.582  38.128  13.536
12579W        W85647  12.669  41.342  12.600
12580W        W85648  22.697  41.381  13.551
12581W        W85649  31.130  36.863  13.450
12582W        W85650  39.101  43.833  13.130
12583W        W85651   5.916  23.957   0.882
12584W        W85652   6.176  30.388  11.130
12585W        W85653  33.042  17.150   3.950
12586W        W85654  34.049  42.798  10.609
12587W        W85655  25.665  37.554   3.559
12588W        W85656  37.929  14.554  11.991
12589W        W85657  38.998  10.271   0.687
12590W        W85658  41.459  24.012  14.284
12591W        W85659   0.485  31.870  10.410
12592W        W85660   9.948  28.149  14.735
12593W        W85661  33.100  36.663  13.577
12594W        W85662   1.445  32.086  11.860
12595W        W85663   7.171  42.969  14.448
12596W        W85664  10.885  10.803   3.699
12597W        W85665  11.157  41.995  10.529
12598W        W85666  25.191  33.563   1.883
12599W        W85667  23.050  39.937   1.024
12600W        W85668  44.371  44.150  14.879
12601W        W85669  34.504  20.346   3.791
12602W        W85670  36.400  10.601   0.967
12603W        W85671  19.560  44.764   4.584
12604W        W85672   0.790   4.855   4.617
12605W        W85673  25.332  24.426  12.065
12606W        W85674  10.262  41.744   4.736
12607W        W85675  41.349  36.232  11.186
12608W        W85676  40.736  44.324  11.476
12609W        W85677  44.263  36.141   2.418
12610W        W85678  20.869   2.907  13.287
12611W        W85679  40.968   5.939   0.105
12612W        W85680  27.149  40.951  10.638
12613W        W85681  20.932  16.202   3.651
12614W        W85682  36.416  44.888  12.847
12615W        W85683   0.436  10.677  11.083
12616W        W85684  21.131   3.684  11.797
12617W        W85685  28.797   4.088  11.502
12618W        W85686  30.353   9.008   3.905
12619W        W85687   3.728  19.205   3.356
12620W        W85688   7.629   4.999   3.979
12621W        W85689  18.258  21.822  11.774
12622W        W85690  28.018  37.135  13.798
12623W        W85691  37.062   6.742   4.625
12624W        W85692   1.885   1.206  11.488
12625W        W85693  40.480  43.993  12.641
12626W        W85694  25.577  14.492   3.256
12627W        W85695  38.377  44.858   4.140
12628W        W85696  27.906   6.657  14.488
12629W        W85697   2.460  14.630  14.946
12630W        W85698   4.162  22.639  10.645
12631W        W85699  31.628  42.364  12.392
12632W        W85700  34.036  43.115   2.822
12633W        W85701  23.562  30.613  10.586
12634W        W85702  17.248  37.032  11.188
12635W        W85703  23.683   3.047  13.962
12636W        W85704  17.704  23.523  14.402
12637W        W85705   5.381  40.307   2.250
12638W        W85706   3.476   4.807  11.070
12639W        W85707  20.062  38.126   2.498
12640W        W85708  28.210   5.939  10.986
12641W        W85709  44.438   6.275  10.954
12642W        W85710  35.362  39.880   0.960
12643W        W85711  15.379  41.770  13.939
12644W        W85712  31.953  24.553  12.999
12645W        W85713  13.885   4.421   4.095
12646W        W85714  14.556  20.699   0.886
12647W        W85715  43.377  33.149   4.607
12648W        W85716  34.063  26.025  13.473
12649W        W85717  20.608  37.067   0.685
12650W        W85718  31.044  28.125  14.274
12651W        W85719  20.714  15.482   1.420
12652W        W85720  40.385  18.350   4.597
12653W        W85721   7.773  32.402  13.841
12654W        W85722  42.758  20.793  12.093
12655W        W85723  34.049   8.907  13.795
12656W        W85724  36.544  39.784   0.210
12657W        W85725   8.263  42.597  10.217
12658W        W85726  28.746  15.109   2.352
12659W        W85727  16.326  28.653  12.305
12660W        W85728   2.289   3.809   4.985
12661W        W85729  14.859  36.668  12.435
12662W        W85730  23.461   3.294  11.339
12663W        W85731   3.254   9.581  11.069
12664W        W85732   0.549  24.798  11.086
12665W        W85733  22.151  12.407  13.836
12666W        W85734  19.247  20.663  11.869
12667W        W85735  40.941  41.576   2.309
12668W        W85736  31.485  19.432   4.987
12669W        W85737  15.538   4.213   3.563
12670W        W85738  33.878   1.492  14.891
12671W        W85739  36.329  21.768  11.564
12672W        W85740  41.175   2.889  10.383
12673W        W85741  38.348   0.937  10.102
12674W        W85742  31.852  31.207   4.760
12675W        W85743  32.934  10.845   0.984
12676W        W85744   6.640  35.075   3.705
12677W        W85745  41.176  14.284   1.745
12678W        W85746  33.888  20.817   2.174
12679W        W85747  22.735  44.465   0.019
12680W        W85748   0.234  36.964  11.006
12681W        W85749  26.452  37.969  11.419
12682W        W85750   2.664  22.352  13.958
12683W        W85751   7.913  24.887   3.170
12684W        W85752  16.211  11.845   0.016
12685W        W85753  12.488   6.110  13.043
12686W        W85754  36.896  34.784  11.228
12687W        W85755  27.671  13.315  14.409
12688W        W85756  13.363  24.035  11.256
12689W        W85757  44.345   3.923   5.132
12690W        W85758   4.500  32.605   0.921
12691W        W85759   8.346  17.692  14.945
12692W        W85760  30.882  40.033  10.941
12693W        W85761   7.898  30.612   2.294
12694W        W85762  24.242  26.726   2.348
12695W        W85763  19.043  30.485  10.664
12696W        W85764  32.876  23.356   1.292
12697W        W85765  22.700  39.535   0.731
12698W        W85766   8.094  37.586   0.238
12699W        W85767   1.527  20.018   0.337
12700W        W85768  17.164  36.356   4.321
12701W        W85769  13.080  25.163  13.104
12702W        W85770  38.961  44.879   4.963
12703W        W85771  31.829  14.031  12.959
12704W        W85772   1.823  21.655   0.241
12705W        W85773  41.896  14.837  11.215
12706W        W85774  41.737   0.878   0.011
12707W        W85775  36.410  32.868   1.251
12708W        W85776  18.033  44.459   1.614
12709W        W85777  24.514   9.707   0.765
12710W        W85778  33.515   6.445  14.066
12711W        W85779  12.236   7.794   0.362
12712W        W85780  24.268   4.739  13.912
12713W        W85781  32.536  29.534   1.907
12714W        W85782  17.098  28.759  13.020
12715W        W85783   2.555  25.662   1.449
12716W        W85784  32.185   4.391   2.267
12717W        W85785   6.382  29.116  10.717
12718W        W85786  13.724  21.651  14.629
12719W        W85787  27.511  16.074   1.310
12720W        W85788   0.876  37.474   1.439
12721W        W85789  42.018  38.177  10.693
12722W        W85790  20.136  14.284  10.341
12723W        W85791  13.850   1.454   2.749
12724W        W85792  42.989  42.891  10.071
12725W        W85793  32.925  25.976   1.684
12726W        W85794  11.570  24.078  12.497
12727W        W85795  34.966   6.352  10.796
12728W        W85796  29.182  40.418   0.426
12729W        W85797   4.714  15.766  14.365
12730W        W85798  10.298  33.052  11.223
12731W        W85799  32.718  29.024  14.678
12732W        W85800  33.703  36.128  14.020
12733W        W85801   2.011  13.672  14.532
12734W        W85802   0.966  27.597  13.861
12735W        W85803   3.755  43.203  14.566
12736W        W85804  38.860  31.523   1.458
12737W        W85805   3.838  26.644  11.310
12738W        W85806  15.337   7.837  10.623
12739W        W85807  29.233  25.224   2.825
12740W        W85808  40.347  40.773  14.414
12741W        W85809  35.836   2.340  11.195
12742W        W85810  44.034  32.123  13.828
12743W        W85811  35.871  40.032   1.176
12744W        W85812   7.432  35.584   2.868
12745W        W85813  25.665  15.727  13.355
12746W        W85814  32.459  26.382   1.337
12747W        W85815   3.963  16.690  14.792
12748W        W85816  41.102  43.780  14.364
12749W        W85817  17.806  23.697  12.017
12750W        W85818  17.743  27.419  13.524
12751W        W85819  13.319  26.489   1.170
12752W        W85820  16.682  12.899  14.236
12753W        W85821  22.658  12.150  11.460
12754W        W85822  25.051  41.873   0.217
12755W        W85823  39.289  18.821  12.736
12756W        W85824  24.469  23.602   1.948
12757W        W85825   5.475  32.516  11.073
12758W        W85826   8.685  16.587   0.393
12759W        W85827  23.122  39.381  11.395
12760W        W85828  32.595  21.794  14.966
12761W        W85829  15.799  15.046  10.759
12762W        W85830  24.210  33.391   0.454
12763W        W85831  32.375  15.269  13.069
12764W        W85832   7.961  44.649   3.375
12765W        W85833  29.575  39.700  13.340
12766W        W85834  16.371   1.628  11.151
12767W        W85835  42.841   9.203   1.299
12768W        W85836   1.538  13.439   2.892
12769W        W85837  15.525  22.426   1.249
12770W        W85838  15.885  15.722  12.087
12771W        W85839  38.365  37.639   1.070
12772W        W85840  30.284  19.584  14.877
12773W        W85841  37.478  19.840   0.786
12774W        W85842  14.761   9.322   5.249
12775W        W85843   5.146  27.093  10.994
12776W        W85844  40.058   7.957   5.127
12777W        W85845  42.994   5.037  14.397
12778W        W85846  34.681  12.366   3.325
12779W        W85847  19.598  10.578  12.639
12780W        W85848  23.212  31.546   3.193
12781W        W85849  27.947  14.257   4.599
12782W        W85850  36.042  26.012  12.954
12783W        W85851  18.112  36.778   0.853
12784W        W85852  44.546  43.391   3.791
12785W        W85853  33.663  22.531  13.288
12786W        W85854  15.543  23.642  11.580
12787W        W85855  37.536  20.102  14.378
12788W        W85856  31.647  25.442  11.117
12789W        W85857  43.349  20.429   2.295
12790W        W85858  36.448  18.961   0.257
12791W        W85859  10.592  18.054  11.622
12792W        W85860  29.266   0.252   3.174
12793W        W85861  22.354  44.480  13.686
12794W        W85862  15.699  35.649  13.289
12795W        W85863  42.727   0.695  11.040
12796W        W85864  16.572  13.160   0.753
12797W        W85865  35.646  13.234  13.897
12798W        W85866   5.918  29.612   4.541
12799W        W85867  40.985   7.849   5.056
12800W        W85868  38.498   4.257  11.642
12801W        W85869  11.637   7.683   1.308
12802W        W85870  14.220  42.322  14.340
12803W        W85871  20.172  33.072   2.368
12804W        W85872  37.867  11.802   3.799
12805W        W85873  37.909   2.479   2.475
12806W        W85874  42.464  42.208  11.731
12807W        W85875  16.331  11.428  13.341
12808W        W85876  43.758  31.151   3.655
12809W        W85877   7.150   7.618  12.524
12810W        W85878  26.031  43.368  14.217
12811W        W85879  14.659  22.395   3.966
12812W        W85880   4.917  24.932  11.914
12813W        W85881  29.270  26.519  11.645
12814W        W85882  14.324  38.820  13.455
12815W        W85883  25.747  26.886  14.776
12816W        W85884  22.614  10.180  12.576
12817W        W85885  32.872  39.841  12.582
12818W        W85886  34.067   3.936   5.008
12819W        W85887   3.388  27.106   4.570
12820W        W85888  10.148  18.491   1.185
12821W        W85889  30.433   7.846  11.498
12822W        W85890  43.082  10.899   1.651
12823W        W85891  23.546   7.866  13.329
12824W        W85892   3.716  22.549   2.330
12825W        W85893  31.006  14.445  13.482
12826W        W85894   9.307  38.952   3.379
12827W        W85895  13.853  14.796   0.958
12828W        W85896  25.131  14.418  14.184
12829W        W85897  21.351  19.792  11.080
12830W        W85898  14.679   6.642   2.258
12831W        W85899  26.414   1.674  12.024
12832W        W85900  30.690   1.348   1.994
12833W        W85901   3.499  19.038   2.918
12834W        W85902  18.368   8.068  13.505
12835W        W85903  26.660   7.584   2.304
12836W        W85904  34.859  13.559   2.768
12837W        W85905  39.592  44.525   0.467
12838W        W85906  15.651  27.999  14.919
12839W        W85907   4.243  12.279  14.809
12840W        W85908  18.607  40.828  14.309
12841W        W85909  39.648  41.499   2.381
12842W        W85910  10.854  32.025  11.607
12843W        W85911  19.802  22.705  11.555
12844W        W85912  25.544  27.471   1.720
12845W        W85913  21.793  44.334   3.731
12846W        W85914  22.485  36.693  11.614
12847W        W85915  40.794  10.292  14.483
12848W        W85916  23.113  43.789  12.506
12849W        W85917   2.876  25.642   0.522
12850W        W85918  10.350   9.114   3.754
12851W        W85919  25.621  14.139  13.924
12852W        W85920  32.060  30.373   1.300
12853W        W85921  13.722  29.590  14.066
12854W        W85922   8.386  25.058   4.061
12855W        W85923  13.644  19.174   3.428
12856W        W85924  14.992  23.652   3.561
12857W        W85925  41.867  23.009  11.599
12858W        W85926   1.987  12.321  14.379
12859W        W85927   9.349  16.568  14.110
12860W        W85928  26.071  43.344  13.702
12861W        W85929   2.840   4.951  10.537
12862W        W85930  10.744  16.286   4.637
12863W        W85931  36.505   2.624  13.939
12864W        W85932  20.153   9.308   4.011
12865W        W85933   9.631  35.635  13.972
12866W        W85934  22.545  10.416   0.368
12867W        W85935  36.467   5.519  10.586
12868W        W85936  37.984  19.260  13.483
12869W        W85937  26.487  44.906  11.515
12870W        W85938   1.439   7.280   0.170
12871W        W85939   7.885  18.808  14.748
12872W        W85940   9.558  39.608   2.341
12873W        W85941  19.926  41.248   3.751
12874W        W85942  20.703  41.125   1.083
12875W        W85943  10.869  34.889   2.773
12876W        W85944  20.628  35.727   0.958
12877W        W85945  39.541  34.335   4.314
12878W        W85946   7.316  36.374   4.331
12879W        W85947  16.804  34.857  13.563
12880W        W85948   2.172  43.160  14.954
12881W        W85949  14.490  16.352   3.923
12882W        W85950  17.525  40.008   2.319
12883W        W85951  35.539  28.008   4.346
12884W        W85952  41.246  39.253   2.838
12885W        W85953  29.452  29.911   1.914
12886W        W85954  36.344  36.821  12.999
12887W        W85955  22.689  13.717   1.336
12888W        W85956  23.575  19.771  13.980
12889W        W85957   0.983  31.794   3.445
12890W        W85958  34.476  20.549   0.366
12891W        W85959  14.740   1.768   2.200
12892W        W85960  20.099   6.656  13.547
12893W        W85961  36.220  28.336   3.660
12894W        W85962  37.451  30.495   1.475
12895W        W85963  21.734   6.339  10.135
12896W        W85964  33.536  10.784   0.270
12897W        W85965   1.262  24.575   0.845
12898W        W85966  33.592  23.476   3.756
12899W        W85967  23.285  29.569   0.401
12900W        W85968   5.717  21.288  11.485
12901W        W85969  20.205   9.723   3.687
12902W        W85970  38.756   6.487  13.268
12903W        W85971   9.603  33.880  14.977
12904W        W85972   1.942   7.991  14.723
12905W        W85973  42.015   3.163   4.815
12906W        W85974  38.625  39.132  13.756
12907W        W85975   4.310  22.247  10.969
12908W        W85976  44.914  41.882  10.601
12909W        W85977  14.315   4.213   3.143
12910W        W85978  19.303  31.146   0.823
12911W        W85979   0.338  40.604   0.348
12912W        W85980  26.904  25.254  11.484
12913W        W85981  25.930  20.788   0.983
12914W        W85982  34.960  16.512  11.947
12915W        W85983  17.152  27.787   0.997
12916W        W85984  42.261  11.784  13.404
12917W        W85985  14.281  21.314  10.256
12918W        W85986  12.232  37.353   3.317
12919W        W85987  19.779  27.729   2.283
12920W        W85988  17.248  23.256  14.477
12921W        W85989  42.908   2.436   0.935
12922W        W85990  44.125   8.777  13.424
12923W        W85991   4.491  34.056   0.864
12924W        W85992  39.799  20.079  14.048
12925W        W85993   4.981  28.564   3.373
12926W        W85994  43.301  24.245   1.116
12927W        W85995  17.515  41.938  14.431
12928W        W85996  27.228  25.722  13.740
12929W        W85997  31.083  36.081   3.200
12930W        W85998  40.374  21.759  11.579
12931W        W85999  44.478  24.469  11.051
12932W        W86000  27.478  20.684  13.869
12933W        W86001  35.122  33.743   2.807
12934W        W86002  11.856  21.527   4.168
12935W        W86003  24.797  32.212  11.647
12936W        W86004  42.337  12.002   1.333
12937W        W86005  13.331  44.799  12.550
12938W        W86006   2.867  21.460   1.665
12939W        W86007  21.621  35.028   1.280
12940W        W86008  27.020  25.476  14.757
12941W        W86009  18.050   7.101   2.702
12942W        W86010   8.728   6.861   0.057
12943W        W86011  24.959  36.491  13.045
12944W        W86012   7.177  33.790  11.538
12945W        W86013  33.240  34.888   1.140
12946W        W86014  15.320  41.898  14.843
12947W        W86015  30.965  10.103  13.564
12948W        W86016   6.979  10.257  13.785
12949W        W86017   8.807  31.683   2.361
12950W        W86018   8.795  19.233   4.863
12951W        W86019  24.916  10.244   2.802
12952W        W86020  31.524  29.449  12.475
12953W        W86021  40.537  17.213  13.055
12954W        W86022   4.819   4.510   4.633
12955W        W86023   4.309  42.368  12.988
12956W        W86024  24.749   5.302  11.545
12957W        W86025   9.692  35.491  14.864
12958W        W86026  43.236  43.378   3.257
12959W        W86027  15.265   6.036   4.847
12960W        W86028  11.285  25.831   4.903
12961W        W86029  41.089  23.586  11.876
12962W        W86030  23.547  19.287  12.369
12963W        W86031   5.390  14.882  12.047
12964W        W86032   9.184  30.627   0.778
12965W        W86033  10.757  12.298  11.843
12966W        W86034   2.366  18.507  14.685
12967W        W86035   2.345  13.172  14.919
12968W        W86036  31.422  36.960   4.928
12969W        W86037  28.148  14.774   2.697
12970W        W86038  27.563  20.629   4.832
12971W        W86039  18.349   6.427   0.900
12972W        W86040  38.803   7.032   3.757
12973W        W86041   0.951  13.843   2.798
12974W        W86042  40.447  37.436  10.995
12975W        W86043  26.883   2.317  11.546
12976W        W86044  11.897   3.309   1.755
12977W        W86045  10.269  22.817   5.090
12978W        W86046   5.182   8.935   0.753
12979W        W86047  11.185  12.523   0.860
12980W        W86048  39.236  35.653   4.132
12981W        W86049  39.857  35.899   0.009
12982W        W86050  22.059  13.671  12.071
12983W        W86051  39.260  36.280   3.084
12984W        W86052  32.041  15.186   0.008
12985W        W86053   8.108  11.901  11.438
12986W        W86054  10.786  33.547  12.448
12987W        W86055  38.427  16.606   1.472
12988W        W86056   9.923  11.933   4.604
12989W        W86057  41.314   0.003   2.271
12990W        W86058  26.278  14.332   9.994
12991W        W86059  20.035  25.582   0.438
12992W        W86060  21.352  40.530   3.611
12993W        W86061   3.117   2.514  14.430
12994W        W86062  38.028  29.001   4.630
12995W        W86063  32.825   6.248   3.463
12996W        W86064  18.735  31.843   4.541
12997W        W86065  10.907  16.643  10.661
12998W        W86066   0.271  30.955  10.841
12999W        W86067  33.701  38.652   3.210
13000W        W86068   9.913  19.697  13.417
13001W        W86069  43.891  44.429  11.541
13002W        W86070  15.496  20.991   4.319
13003W        W86071  38.461  13.179   4.162
13004W        W86072   9.495   4.646  11.131
13005W        W86073  14.772  43.695  11.965
13006W        W86074  17.285  14.199  14.780
13007W        W86075   4.149   6.969   3.920
13008W        W86076  36.889  28.574  12.662
13009W        W86077  28.400  24.167   2.737
13010W        W86078  32.090  27.672  11.576
13011W        W86079  19.750  35.419  13.044
13012W        W86080  16.206  42.183   2.707
13013W        W86081  33.533   1.171   4.652
13014W        W86082  20.931   1.120  10.251
13015W        W86083   2.249  16.532   3.098
13016W        W86084  13.653  26.577   2.305
13017W        W86085  11.601  13.634  11.126
13018W        W86086   5.800   5.729  11.580
13019W        W86087  42.126   2.860   3.660
13020W        W86088  21.482  11.775  13.298
13021W        W86089  19.363   5.449  13.359
13022W        W86090  23.446  22.010  14.886
13023W        W86091  29.306  27.722  12.932
13024W        W86092   7.483  44.806   4.729
13025W        W86093   5.621  32.638  11.922
13026W        W86094   8.743  25.266  13.687
13027W        W86095  17.649  16.096   0.892
13028W        W86096   7.886  40.227  14.321
13029W        W86097  34.429  33.026   2.765
13030W        W86098  43.601  37.034   2.405
13031W        W86099   2.261  10.204  14.872
13032W        W86100  27.697  13.372   2.903
13033W        W86101  29.245  32.010   4.106
13034W        W86102  30.626   3.119  12.019
13035W        W86103  28.106  21.548   4.682
13036W        W86104  39.361   2.543  12.684
13037W        W86105  22.920  12.702   4.871
13038W        W86106  40.592  41.237  13.166
13039W        W86107  33.879  41.008  13.415
13040W        W86108  24.542  31.928   2.704
13041W        W86109  32.667  37.553   1.241
13042W        W86110  36.481  21.034   0.990
13043W        W86111   1.013   3.736  14.681
13044W        W86112  29.977  16.373   3.691
13045W        W86113  36.683  26.670  12.868
13046W        W86114   4.115  21.763  10.638
13047W        W86115  34.011   0.806   2.267
13048W        W86116   0.992   7.891  13.183
13049W        W86117  16.773  11.319  10.513
13050W        W86118  33.844  30.499   3.655
13051W        W86119   8.610  25.085  13.155
13052W        W86120  16.520  28.618   2.671
13053W        W86121  24.711  42.811  12.144
13054W        W86122   9.485   5.317   2.660
13055W        W86123  41.075  34.403   3.784
13056W        W86124  19.510  12.610   4.592
13057W        W86125  30.749  18.625  11.578
13058W        W86126  31.151  43.580   2.795
13059W        W86127  10.950  23.849   1.247
13060W        W86128  29.641   2.453  14.857
13061W        W86129  30.975  22.124  13.044
13062W        W86130  29.044  35.938  14.528
13063W        W86131  44.816  29.745  14.775
13064W        W86132  18.479  11.815   4.976
13065W        W86133   0.740  14.587  14.641
13066W        W86134  21.257  22.517  11.187
13067W        W86135  34.017  32.087  13.761
13068W        W86136   5.907  35.320   0.079
13069W        W86137  19.256   2.166  12.000
13070W        W86138   2.425  29.700   4.607
13071W        W86139  16.924  34.104   2.088
13072W        W86140   2.665   8.331  13.378
13073W        W86141  26.697  30.461  12.045
13074W        W86142  14.334   8.244   0.690
13075W        W86143  32.861  13.538   1.305
13076W        W86144  12.011   4.876   4.133
13077W        W86145  16.173   8.196  10.540
13078W        W86146   8.485   2.061   1.352
13079W        W86147  24.890   9.628   1.718
13080W        W86148  21.215   8.296   3.535
13081W        W86149   1.927   3.943  13.409
13082W        W86150  34.902  27.562  14.006
13083W        W86151   2.545  16.971  11.114
13084W        W86152  24.550  27.530   4.161
13085W        W86153  43.561  28.414   0.841
13086W        W86154  37.346  11.852   0.204
13087W        W86155  39.944  39.164  12.140
13088W        W86156   3.991  35.612  12.635
13089W        W86157  38.607  12.198  11.180
13090W        W86158  24.340  44.053  11.037
13091W        W86159  31.365  39.763  14.443
13092W        W86160  20.768   2.841   1.790
13093W        W86161   1.718  43.469   1.933
13094W        W86162  38.596   8.583  13.824
13095W        W86163  19.545  22.207  11.977
13096W        W86164  19.751  11.370   3.697
13097W        W86165  39.555  39.560  12.115
13098W        W86166  44.110   5.865  12.677
13099W        W86167  31.519  25.666  12.038
13100W        W86168   0.942  13.642  14.986
13101W        W86169  39.059  36.523   0.394
13102W        W86170  13.233  44.761  11.234
13103W        W86171  34.787   3.419   1.041
13104W        W86172  25.966  14.824  13.874
13105W        W86173  38.930   4.390  10.708
13106W        W86174  12.354   0.564   4.909
13107W        W86175   2.027  35.600   0.937
13108W        W86176   4.269  43.087  13.483
13109W        W86177  20.170  17.232  13.458
13110W        W86178  20.584  14.875  11.589
13111W        W86179  26.381  32.908   4.300
13112W        W86180  37.497  21.791  12.960
13113W        W86181  21.253   3.227   2.766
13114W        W86182  19.302  44.056  11.447
13115W        W86183  28.956  13.799  13.779
13116W        W86184   8.129  34.617  11.988
13117W        W86185  36.390  43.537  14.812
13118W        W86186  12.778   9.133   1.385
13119W        W86187   0.218   6.698  10.653
13120W        W86188   7.788   0.655  12.574
13121W        W86189  40.856   2.858   0.429
13122W        W86190  42.807   7.615  13.076
13123W        W86191  38.851  17.385   3.891
13124W        W86192  44.523  33.876   2.514
13125W        W86193  36.771  28.321   2.321
13126W        W86194  34.096  19.831  13.146
13127W        W86195  31.624   1.321  13.062
13128W        W86196  35.618  27.010  12.602
13129W        W86197  33.457  38.587  14.372
13130W        W86198  40.018  34.983  14.564
13131W        W86199  17.237   3.657  14.860
13132W        W86200  37.068  35.757  11.100
13133W        W86201  26.598   2.100   1.283
13134W        W86202  39.806  26.907   0.476
13135W        W86203  15.577   8.789   3.906
13136W        W86204  11.682  25.933   1.800
13137W        W86205  22.541  43.759   1.687
13138W        W86206  41.217   8.284  13.310
13139W        W86207   2.929  26.978  11.159
13140W        W86208  11.140  28.189   3.638
13141W        W86209  19.421   4.358  10.429
13142W        W86210  42.600  19.659   4.933
13143W        W86211  11.765  18.734  10.933
13144W        W86212  44.588  11.819   4.701
13145W        W86213   8.627  25.836  12.198
13146W        W86214  17.607  38.469  12.355
13147W        W86215   4.236  14.600  13.942
13148W        W86216  21.986  43.617   5.459
13149W        W86217  31.253  42.935   2.720
13150W        W86218   2.385  25.150  12.538
13151W        W86219  33.126  29.679   2.664
13152W        W86220  43.909   2.389  10.568
13153W        W86221  13.829   6.740   4.213
13154W        W86222  33.512  23.234   1.824
13155W        W86223   7.972  31.527   0.756
13156W        W86224   3.890  17.276  13.005
13157W        W86225  10.681  36.755   0.060
13158W        W86226  17.384  34.103  10.286
13159W        W86227  41.716  33.975  13.104
13160W        W86228  27.599  27.465   3.269
13161W        W86229  19.204  19.088   4.534
13162W        W86230  18.803  21.347   9.821
13163W        W86231  16.075  14.239  13.380
13164W        W86232  23.957  28.825  12.038
13165W        W86233  22.789  42.549   5.165
13166W        W86234   3.207  34.529  14.504
13167W        W86235   9.340  21.553  12.477
13168W        W86236   7.433  35.483  13.930
13169W        W86237  27.889  24.413  11.165
13170W        W86238  28.910  31.002   1.536
13171W        W86239  41.842  12.342   2.660
13172W        W86240   4.725  43.416   1.706
13173W        W86241  28.611  24.278  14.412
13174W        W86242   5.809  19.377   1.835
13175W        W86243   3.653  32.362   2.475
13176W        W86244  36.637   9.662  12.770
13177W        W86245  22.214  17.674  13.838
13178W        W86246  40.603  14.613   1.143
13179W        W86247  17.378  16.231   1.321
13180W        W86248  10.369  11.749   1.235
13181W        W86249  10.614  32.144   1.418
13182W        W86250  35.051   5.923   3.198
13183W        W86251  27.437  32.709  11.916
13184W        W86252  19.636  26.797   0.388
13185W        W86253  15.590  22.672   3.275
13186W        W86254  26.397  12.770   1.756
13187W        W86255  43.177  33.668  12.033
13188W        W86256  22.095  25.636  14.346
13189W        W86257  39.715  37.047  13.317
13190W        W86258   2.848  12.791  11.467
13191W        W86259  23.596  30.036   4.191
13192W        W86260  42.907  11.911   1.782
13193W        W86261  33.394   7.881  10.490
13194W        W86262   7.788  33.783   0.847
13195W        W86263  25.423  23.651  12.144
13196W        W86264  22.681  19.609   4.108
13197W        W86265  41.816  22.679   4.294
13198W        W86266  12.214   3.820  11.611
13199W        W86267  16.759   5.389   1.931
13200W        W86268  21.729  27.965  13.751
13201W        W86269  10.622  16.286   1.220
13202W        W86270  25.708   6.156   4.501
13203W        W86271  42.494  42.767   2.667
13204W        W86272  22.856  11.745   0.200
13205W        W86273  33.943   8.647   4.469
13206W        W86274  40.455  33.509  13.021
13207W        W86275   6.852  40.042   3.112
13208W        W86276   3.800  17.842  13.862
13209W        W86277  21.619  37.606   1.364
13210W        W86278  37.330  19.789   4.087
13211W        W86279  23.154   3.884  13.918
13212W        W86280  18.538   4.381   0.383
13213W        W86281   6.262  31.244  12.097
13214W        W86282  24.892  38.916  12.925
13215W        W86283  11.639  10.196   1.880
13216W        W86284  16.567  32.155   4.319
13217W        W86285  16.114   0.716  12.662
13218W        W86286  20.472  36.840   1.690
13219W        W86287  37.369  28.521  14.344
13220W        W86288  36.362  11.256  13.143
13221W        W86289  22.614  25.704   1.248
13222W        W86290  23.501   7.626  13.802
13223W        W86291  12.589  35.370  14.362
13224W        W86292  32.555   0.277   1.676
13225W        W86293   8.559  34.661  11.115
13226W        W86294   4.194   3.813  11.165
13227W        W86295   5.199  30.400   0.446
13228W        W86296   2.745  31.952  13.781
13229W        W86297  38.382   3.932  14.395
13230W        W86298  11.811  27.521   0.882
13231W        W86299  22.743  33.400   3.382
13232W        W86300  44.651   5.469   4.986
13233W        W86301  17.689  12.576  13.000
13234W        W86302  27.473  42.899  14.314
13235W        W86303  14.567  39.457  11.087
13236W        W86304   3.382  36.388   3.385
13237W        W86305  26.634  38.126  14.792
13238W        W86306   5.521  29.044   2.825
13239W        W86307  33.084  44.686  14.219
13240W        W86308   1.038  44.473   1.850
13241W        W86309  43.553  37.450  13.971
13242W        W86310   0.756  35.233   1.849
13243W        W86311  18.709  11.403  13.336
13244W        W86312  15.209  37.861  14.882
13245W        W86313   2.450  23.173  11.135
13246W        W86314  28.217  39.769   4.242
13247W        W86315  13.034  42.955   4.657
13248W        W86316  37.030   1.984   2.342
13249W        W86317   1.765  44.092  13.372
13250W        W86318  39.916   8.991   3.183
13251W        W86319  25.557  10.096  14.873
13252W        W86320  24.784  40.506  11.986
13253W        W86321  39.376  15.553   2.551
13254W        W86322  24.535  20.656   2.582
13255W        W86323  33.824  11.258  12.430
13256W        W86324   6.060  42.857  11.061
13257W        W86325  16.321   6.498  12.938
13258W        W86326  12.816   8.186   0.937
13259W        W86327  34.562  21.682  14.756
13260W        W86328  43.274  20.230   0.945
13261W        W86329  43.491   8.201  11.979
13262W        W86330  33.673  39.984   2.284
13263W        W86331  34.644  27.423   3.440
13264W        W86332   4.516   4.852  11.036
13265W        W86333   1.442  11.890  12.922
13266W        W86334  41.944  23.079   1.961
13267W        W86335  34.135  22.733  11.087
13268W        W86336  19.303   7.453   4.098
13269W        W86337  11.843  30.916   1.295
13270W        W86338  22.212  30.657  13.868
13271W        W86339  43.683  20.299   3.772
13272W        W86340  16.348  38.417   4.549
13273W        W86341  32.237  43.914  14.428
13274W        W86342  22.961   8.310   0.960
13275W        W86343   8.818  38.471   3.310
13276W        W86344  26.004  14.959  11.913
13277W        W86345   9.757  12.425  14.837
13278W        W86346  31.457  37.551   2.552
13279W        W86347   2.364  14.158   0.701
13280W        W86348  44.369  38.584   1.654
13281W        W86349  42.275  24.174   4.716
13282W        W86350  14.539  29.923   3.268
13283W        W86351   6.659  11.842   3.208
13284W        W86352  11.008   8.915  14.094
13285W        W86353  39.841   2.258  12.159
13286W        W86354  19.953  44.427   3.143
13287W        W86355  18.416   5.264   1.242
13288W        W86356   3.278   3.763  12.031
13289W        W86357  38.667   3.063  11.243
13290W        W86358  28.554  16.259   0.922
13291W        W86359   6.959  17.973   0.898
13292W        W86360  26.594   3.312   3.133
13293W        W86361  26.191  16.673  13.974
13294W        W86362   2.388  10.382  11.989
13295W        W86363  35.144  33.226   2.607
13296W        W86364  33.657  13.533  12.621
13297W        W86365   4.896  30.811   2.472
13298W        W86366  30.932  25.886  14.342
13299W        W86367  20.531   9.736  14.778
13300W        W86368  26.540  17.806  13.009
13301W        W86369  35.245  38.803  14.222
13302W        W86370   1.435  36.246  10.695
13303W        W86371  33.946  23.457  13.614
13304W        W86372   1.850  40.080  14.469
13305W        W86373  17.483  13.112   3.317
13306W        W86374   9.561  44.300   2.410
13307W        W86375  37.005  38.690  11.685
13308W        W86376   1.299  13.110  11.055
13309W        W86377  17.670  15.242   1.237
13310W        W86378  36.314  38.952  10.912
13311W        W86379  14.885   8.271  14.974
13312W        W86380   4.788  43.024   0.486
13313W        W86381   1.415  31.328   0.813
13314W        W86382  38.485   6.852   4.809
13315W        W86383   0.039  41.087   4.884
13316W        W86384  26.780  17.606   2.222
13317W        W86385  13.322  39.771  13.894
13318W        W86386  20.640  27.516   2.383
13319W        W86387  19.318  41.625  12.736
13320W        W86388  37.844  41.384   2.942
13321W        W86389  21.259  41.325  13.318
13322W        W86390  12.779   9.635   2.894
13323W        W86391  16.372  16.972  14.529
13324W        W86392  37.309  18.498   2.766
13325W        W86393  10.484   3.203  12.433
13326W        W86394  28.099  41.738  14.863
13327W        W86395  42.619   8.083   3.220
13328W        W86396  43.015  25.423   2.723
13329W        W86397  32.141   5.226   3.363
13330W        W86398   3.641   4.165  14.419
13331W        W86399  26.145  40.667  13.441
13332W        W86400  19.893  34.374  13.830
13333W        W86401  11.435   5.372  11.113
13334W        W86402  25.942  28.263   4.818
13335W        W86403  14.314  31.827  14.321
13336W        W86404  27.174  29.186  14.845
13337W        W86405  27.214   4.877  12.014
13338W        W86406   7.189   3.666   1.412
13339W        W86407  18.572   9.948   1.367
13340W        W86408  36.181  41.311   1.356
13341W        W86409  18.987  38.899   2.211
13342W        W86410  31.301  34.645   2.456
13343W        W86411  15.709  39.851   4.273
13344W        W86412  25.830  41.821   1.053
13345W        W86413   7.941  41.383  12.813
13346W        W86414  24.329  42.728   2.751
13347W        W86415  31.011   8.262   3.809
13348W        W86416   7.204   0.027  10.688
13349W        W86417  14.811   3.957  13.344
13350W        W86418  37.290   3.666   0.470
13351W        W86419  38.494   7.267   1.262
13352W        W86420  33.524   8.464   0.933
13353W        W86421  43.427  41.305  11.575
13354W        W86422  12.231  27.495  12.543
13355W        W86423   7.830  27.667  14.811
13356W        W86424  25.516  13.419  14.618
13357W        W86425  21.139   6.154  10.658
13358W        W86426  17.524  16.195  13.340
13359W        W86427  22.146   7.302  10.761
13360W        W86428   2.855  38.348  10.671
13361W        W86429   8.914  37.338   4.649
13362W        W86430  26.217   1.357   1.665
13363W        W86431   2.802   8.446  10.626
13364W        W86432  42.889  19.524   3.205
13365W        W86433  11.904   0.491  12.959
13366W        W86434  20.060  16.801  12.334
13367W        W86435  36.369   4.111  14.947
13368W        W86436   4.201  16.572   2.920
13369W        W86437  42.299  20.665  14.361
13370W        W86438   1.454  14.047   3.507
13371W        W86439  41.872  22.266   2.394
13372W        W86440  35.869  25.408  13.406
13373W        W86441  42.805   8.699  14.363
13374W        W86442   3.972  22.155   1.284
13375W        W86443   4.172  29.716  13.017
13376W        W86444  11.625  42.122  11.622
13377W        W86445  16.128  40.008  14.404
13378W        W86446  12.876  32.046   3.784
13379W        W86447  20.260  19.644  12.643
13380W        W86448  17.052  16.137   2.609
13381W        W86449  22.811  20.971   2.480
13382W        W86450  16.863  23.674   2.808
13383W        W86451  17.978  25.229   1.764
13384W        W86452  32.045   1.997   0.762
13385W        W86453  33.626  40.506   2.280
13386W        W86454  19.416  16.768  11.377
13387W        W86455  19.713   8.594  13.390
13388W        W86456  39.367   7.304  11.566
13389W        W86457  16.249   9.889   3.660
13390W        W86458  12.774  31.959  13.510
13391W        W86459   8.637  28.582  13.518
13392W        W86460  27.527  27.523  12.013
13393W        W86461  20.690   9.070   4.605
13394W        W86462  14.325   2.322   3.129
13395W        W86463   9.356  20.783   0.761
13396W        W86464  31.844  22.844  12.095
13397W        W86465   1.404  38.156   2.734
13398W        W86466  18.004  43.768   3.735
13399W        W86467  42.555  27.488  10.683
13400W        W86468  24.908  14.250   1.695
13401W        W86469  39.889  29.975  11.589
13402W        W86470  13.373   0.976  14.401
13403W        W86471  27.228  17.560  12.028
13404W        W86472  16.902   4.866   3.165
13405W        W86473  25.255  33.158  12.427
13406W        W86474   7.758  12.899  14.246
13407W        W86475  30.187  37.940   2.919
13408W        W86476  34.499  12.711   1.241
13409W        W86477  36.599  30.639  12.390
13410W        W86478  34.664   9.749  13.493
13411W        W86479  10.048  32.535  12.043
13412W        W86480   4.805  13.732   3.150
13413W        W86481  31.911  24.453   0.171
13414W        W86482  28.527  27.895   3.167
13415W        W86483  10.141   4.485  14.911
13416W        W86484  43.171  26.545   4.164
13417W        W86485   4.308  17.484   1.801
13418W        W86486   5.112   4.352  12.076
13419W        W86487   7.396  23.958   1.822
13420W        W86488  30.854   6.138   4.669
13421W        W86489   6.965   4.497  12.058
13422W        W86490  44.347  23.962  13.387
13423W        W86491  15.301   7.984  14.421
13424W        W86492  38.554  36.835  10.680
13425W        W86493  41.049  30.348  11.071
13426W        W86494  38.382  10.129  13.888
13427W        W86495  32.181  20.600   3.270
13428W        W86496  43.690  34.838  12.540
13429W        W86497  11.599  19.665  11.379
13430W        W86498  41.441  35.964   1.761
13431W        W86499   6.809  36.425  10.752
13432W        W86500  30.670  13.051   2.364
13433W        W86501  32.103  35.523   2.818
13434W        W86502  43.880  29.377  13.842
13435W        W86503  36.405  44.425   0.804
13436W        W86504  12.272  40.739   3.084
13437W        W86505  14.846  12.331   1.202
13438W        W86506  13.786  12.248  12.975
13439W        W86507  11.837  28.690  10.636
13440W        W86508   1.238  29.546   1.631
13441W        W86509   8.556  23.983   4.487
13442W        W86510  21.062   7.204  14.446
13443W        W86511  17.775  30.001   2.284
13444W        W86512   4.970   1.182   1.959
13445W        W86513  25.723  32.098  12.528
13446W        W86514  10.133  40.573  13.481
13447W        W86515  12.773  35.089  14.760
13448W        W86516  31.190   9.652  11.026
13449W        W86517  41.549  33.068  13.868
13450W        W86518  34.264  14.112   1.873
13451W        W86519   2.406  31.105  12.040
13452W        W86520  13.900  20.979  13.969
13453W        W86521  40.901  23.021   4.713
13454W        W86522  22.085  38.422  12.091
13455W        W86523  23.692   3.875  13.858
13456W        W86524  20.325  27.926   0.662
13457W        W86525  33.476  38.908   1.991
13458W        W86526  39.911  40.944   2.850
13459W        W86527   3.361  18.081  13.924
13460W        W86528  20.103  15.088  10.729
13461W        W86529  29.033  43.253   0.655
13462W        W86530   9.196  40.964   3.270
13463W        W86531   0.460  22.516  13.073
13464W        W86532  17.072   1.781   4.942
13465W        W86533   5.933  35.626  14.132
13466W        W86534  30.716  36.047  11.398
13467W        W86535  31.913   5.249   0.720
13468W        W86536  38.145   5.696   1.320
13469W        W86537   9.880   0.500   2.812
13470W        W86538  17.598  20.359  10.793
13471W        W86539  33.283  26.365   0.791
13472W        W86540  34.552  44.575   1.226
13473W        W86541   6.380  18.029  14.642
13474W        W86542  29.142  31.411  14.964
13475W        W86543  35.807  38.348  12.028
13476W        W86544  30.071  25.095   3.044
13477W        W86545  21.741  10.692   2.618
13478W        W86546  19.620  24.470  14.063
13479W        W86547   0.969  27.181   1.859
13480W        W86548  44.910   4.898   0.755
13481W        W86549  31.201  27.064   1.328
13482W        W86550   1.410  35.961  11.432
13483W        W86551   8.752   1.418   4.561
13484W        W86552  36.887  22.104   2.659
13485W        W86553  28.491  21.536   1.374
13486W        W86554   8.754  16.068  13.012
13487W        W86555  34.586  29.140   2.779
13488W        W86556  28.203   8.279  10.377
13489W        W86557   3.960  10.826   4.071
13490W        W86558  10.898  43.356  14.261
13491W        W86559   8.717  25.760  13.945
13492W        W86560   6.591  37.861   5.184
13493W        W86561  24.185  21.235   0.260
13494W        W86562  12.505   7.814  12.069
13495W        W86563  14.592  12.698  13.049
13496W        W86564  23.747  10.702   3.100
13497W        W86565   4.195  18.794  11.066
13498W        W86566   2.013  15.110   5.069
13499W        W86567  36.889  25.912  12.381
13500W        W86568   0.988  29.501   4.578
13501W        W86569  11.275  32.091  14.802
13502W        W86570   9.566   3.177   0.067
13503W        W86571  22.284  11.965   2.443
13504W        W86572  36.986   1.176   0.258
13505W        W86573  19.064  33.400  11.829
13506W        W86574  25.542   2.436   1.265
13507W        W86575   4.388  29.447  12.644
13508W        W86576  20.797  26.401   2.760
13509W        W86577   3.703   5.340   3.984
13510W        W86578   1.648  15.095  10.981
13511W        W86579  10.253  11.134  12.007
13512W        W86580  37.838   3.966   4.496
13513W        W86581   3.950   0.807   0.830
13514W        W86582  20.900  29.931   4.049
13515W        W86583   2.902  21.735  13.430
13516W        W86584  43.044  25.529   3.225
13517W        W86585  11.202   1.228   4.570
13518W        W86586  34.337  31.063  12.111
13519W        W86587  28.624  43.331   1.772
13520W        W86588   0.424  10.307  13.313
13521W        W86589   5.234  22.007  12.587
13522W        W86590  40.472  11.688   4.617
13523W        W86591  42.584  14.154   2.839
13524W        W86592  16.736  30.263  12.956
13525W        W86593  28.942   5.792   0.778
13526W        W86594   4.373  35.542   2.321
13527W        W86595  25.640  43.697  14.312
13528W        W86596  13.370  28.036  12.029
13529W        W86597  31.911  31.689  12.001
13530W        W86598  12.271   8.701   3.794
13531W        W86599  40.109  31.992  10.915
13532W        W86600  10.418   6.901  13.328
13533W        W86601  38.543  15.560   1.935
13534W        W86602  38.758  40.038  14.467
13535W        W86603  39.746  21.842   2.002
13536W        W86604  15.096  13.479  12.103
13537W        W86605  13.589  13.300   4.627
13538W        W86606  10.835  37.437   1.347
13539W        W86607  27.421  43.807   0.292
13540W        W86608  20.056   3.382  13.288
13541W        W86609  22.151  10.528   3.689
13542W        W86610   1.320  11.595  10.999
13543W        W86611   2.919  26.609   1.880
13544W        W86612   3.573  30.218   1.468
13545W        W86613   7.856   3.785   3.848
13546W        W86614  14.642  38.910  13.039
13547W        W86615   9.821  37.204  10.064
13548W        W86616  42.271  36.552  13.452
13549W        W86617  20.162  28.965   2.387
13550W        W86618   1.037  32.736  10.635
13551W        W86619  33.162  33.656   0.332
13552W        W86620  34.537  29.388   0.759
13553W        W86621   6.837  22.783  14.128
13554W        W86622  20.088  13.410   3.199
13555W        W86623  37.844   1.219  12.009
13556W        W86624  24.408   2.741  11.424
13557W        W86625  26.554   6.444  10.655
13558W        W86626   3.662  40.893  14.385
13559W        W86627  34.763   1.357   0.657
13560W        W86628  39.434  42.025  11.408
13561W        W86629  41.437   3.916  13.552
13562W        W86630  10.293   7.961   4.553
13563W        W86631  20.589  25.102   1.679
13564W        W86632   7.359  28.625  11.545
13565W        W86633  24.020  44.264   0.939
13566W        W86634  21.012  39.058  11.963
13567W        W86635  16.150  21.623  14.494
13568W        W86636   6.721  23.018   0.447
13569W        W86637   8.655  14.458  12.051
13570W        W86638   1.822  44.818  14.897
13571W        W86639  37.815   0.321   4.512
13572W        W86640  34.106   3.324  12.942
13573W        W86641  19.546   0.108   4.203
13574W        W86642  18.811   3.955  14.388
13575W        W86643  44.330   9.811  10.726
13576W        W86644  25.651  35.514  10.741
13577W        W86645  37.479   4.916  13.365
13578W        W86646   2.765  31.971   2.268
13579W        W86647  32.669   5.113  10.681
13580W        W86648   4.033  23.978  14.303
13581W        W86649  27.726  14.268  12.979
13582W        W86650  38.949  31.430  14.995
13583W        W86651   2.812  23.147   3.750
13584W        W86652  35.877   1.967   0.642
13585W        W86653   8.281   5.926  12.437
13586W        W86654  20.004  21.189  14.475
13587W        W86655  26.680  37.418  13.493
13588W        W86656  14.372  21.673   1.287
13589W        W86657   2.904  25.489   4.376
13590W        W86658  38.942  39.157  14.579
13591W        W86659  23.211  23.288  11.193
13592W        W86660  33.460  17.204  10.412
13593W        W86661  33.061  36.438  13.121
13594W        W86662  41.128  14.596   0.340
13595W        W86663   6.653  30.839  12.982
13596W        W86664   4.404  37.919   3.693
13597W        W86665  32.496  15.738   0.536
13598W        W86666   3.914  13.933   4.889
13599W        W86667  23.986   5.697   1.148
13600W        W86668  34.441  21.231  11.190
13601W        W86669  29.495  35.972  13.625
13602W        W86670  40.763  24.689  12.897
13603W        W86671  39.392   6.822  10.622
13604W        W86672   1.406  42.902  13.989
13605W        W86673  11.825  18.600   1.446
13606W        W86674  40.990  23.140  14.903
13607W        W86675  17.757  29.942  11.160
13608W        W86676  14.588   9.370   1.863
13609W        W86677  18.624  28.181   3.181
13610W        W86678  40.010   8.808  14.962
13611W        W86679  41.537  18.556   0.042
13612W        W86680   8.951  30.145  12.459
13613W        W86681   7.096   3.699   3.594
13614W        W86682  24.493  34.068  14.221
13615W        W86683  34.139  33.059   3.700
13616W        W86684  10.829  28.358   4.120
13617W        W86685  32.369  27.996   1.218
13618W        W86686  37.794   3.349   3.886
13619W        W86687  21.031  13.908  12.589
13620W        W86688  32.566  20.107  14.507
13621W        W86689  41.915  25.014   4.943
13622W        W86690  33.502   9.178   2.232
13623W        W86691  16.774  42.470  12.998
13624W        W86692  20.782  17.289   3.381
13625W        W86693  20.954  39.786   3.074
13626W        W86694  15.586  33.419  10.668
13627W        W86695  27.208  17.341  11.172
13628W        W86696  14.067   7.788   4.206
13629W        W86697  37.657  11.568  12.445
13630W        W86698  13.132  17.585  14.360
13631W        W86699  26.507   4.078  10.078
13632W        W86700  15.643  35.021   3.450
13633W        W86701  19.121  10.274  10.742
13634W        W86702  42.512  21.305  13.734
13635W        W86703  15.195  31.001  13.426
13636W        W86704  22.632  22.287   3.659
13637W        W86705  13.720  35.966  11.055
13638W        W86706  17.100  20.346   9.865
13639W        W86707  40.906  19.001   0.691
13640W        W86708  21.677  39.525  13.269
13641W        W86709  44.680  39.882   0.778
13642W        W86710   5.753  41.865   2.744
13643W        W86711  39.289   5.097  12.182
13644W        W86712  23.959  35.073  11.755
13645W        W86713  21.826  43.765  14.316
13646W        W86714   7.834  38.070   5.061
13647W        W86715  40.640  26.065   1.686
13648W        W86716  27.213  16.421   2.824
13649W        W86717  13.026  29.512   0.713
13650W        W86718   1.225  34.614  12.037
13651W        W86719   5.490  10.759   2.383
13652W        W86720  21.464  26.094  13.073
13653W        W86721   4.444  30.424  11.664
13654W        W86722  13.699  31.042  10.648
13655W        W86723  40.818  43.521   0.732
13656W        W86724   0.804  19.645   3.406
13657W        W86725  17.923   5.859   1.751
13658W        W86726  26.051  36.460   4.551
13659W        W86727  27.143  41.435  11.548
13660W        W86728   5.531  38.263   3.190
13661W        W86729  19.299  13.722  13.122
13662W        W86730  33.165   0.250  11.028
13663W        W86731  18.627  31.128  12.067
13664W        W86732   3.898  39.818  14.885
13665W        W86733  16.590  38.514  10.692
13666W        W86734   0.024  11.911  12.995
13667W        W86735  14.434  42.138  12.592
13668W        W86736  37.419  28.663  11.961
13669W        W86737   3.412  17.375  11.555
13670W        W86738  29.501  21.157  13.535
13671W        W86739   9.945  42.039   0.338
13672W        W86740  23.262  20.080   2.062
13673W        W86741  39.926  15.320   5.404
13674W        W86742  39.566  30.639   2.190
13675W        W86743  18.255  26.917   0.213
13676W        W86744  40.472   6.675   2.468
13677W        W86745  19.878  16.334   4.540
13678W        W86746  22.649  11.995   1.031
13679W        W86747  19.837  44.485  12.558
13680W        W86748  12.731  43.961  10.571
13681W        W86749  11.829  20.530  13.464
13682W        W86750  18.654  20.754   3.316
13683W        W86751  19.933  15.119   3.676
13684W        W86752  23.595  23.495   4.130
13685W        W86753  12.372  36.699   0.465
13686W        W86754  42.998  12.688   3.798
13687W        W86755   1.973  23.048   1.283
13688W        W86756  31.363  12.276  13.049
13689W        W86757  39.020   0.256  11.647
13690W        W86758  21.652  31.104  14.868
13691W        W86759  19.702  32.054   4.609
13692W        W86760  27.292   1.895   1.807
13693W        W86761  15.709  21.246   3.406
13694W        W86762  30.523  39.419  12.622
13695W        W86763  24.194   0.873   0.960
13696W        W86764  37.695  25.989  11.921
13697W        W86765  44.757  44.300   2.242
13698W        W86766  12.143  32.479  12.119
13699W        W86767   5.011   2.170  11.189
13700W        W86768  21.221  15.171   3.591
13701W        W86769  31.327  35.917  12.589
13702W        W86770  14.282  39.908  11.188
13703W        W86771  16.327  23.752   0.420
13704W        W86772   6.237  40.487  11.543
13705W        W86773  12.028   7.273   0.059
13706W        W86774  43.543   5.983   0.601
13707W        W86775  41.541  18.333   3.730
13708W        W86776  33.581   1.529  10.905
13709W        W86777  18.547  11.531   2.160
13710W        W86778  23.413   4.215   2.620
13711W        W86779  32.904  28.539  12.191
13712W        W86780  16.574  33.696  13.016
13713W        W86781   9.789  16.619   1.356
13714W        W86782  37.481   6.688  13.989
13715W        W86783  12.930  39.968   3.776
13716W        W86784  44.306  20.216  10.456
13717W        W86785  18.111  10.124  13.037
13718W        W86786   8.899  37.561  12.370
13719W        W86787  38.034  11.605   2.433
13720W        W86788  12.104  24.495  14.393
13721W        W86789   1.697  33.364   3.802
13722W        W86790  36.020  21.990  11.112
13723W        W86791  16.694   5.932  10.371
13724W        W86792  32.615  26.652  13.490
13725W        W86793   5.778  25.103   3.806
13726W        W86794  20.984  29.168  12.719
13727W        W86795  16.824   1.734   3.624
13728W        W86796  36.409  16.831  14.336
13729W        W86797  25.046   3.492   2.444
13730W        W86798  17.605   7.264   1.710
13731W        W86799  36.808  19.691  13.151
13732W        W86800  31.421  17.865  13.414
13733W        W86801  19.881  30.017   4.257
13734W        W86802  20.330  39.381   3.766
13735W        W86803  40.847  18.997  10.693
13736W        W86804  17.259  39.392   4.690
13737W        W86805   6.176  13.730   4.501
13738W        W86806   8.942  15.052  12.990
13739W        W86807  25.810  14.703   1.374
13740W        W86808  44.951  10.743  11.913
13741W        W86809  42.791  25.139  13.322
13742W        W86810  19.085  12.743  11.641
13743W        W86811   3.652  28.152  14.395
13744W        W86812  22.620   5.756  13.789
13745W        W86813  15.358  12.281  12.904
13746W        W86814  19.276  13.246   4.767
13747W        W86815   2.399  30.432  12.416
13748W        W86816  31.191   0.108   1.242
13749W        W86817   5.249  41.828  12.078
13750W        W86818  34.847  19.284  11.512
13751W        W86819   5.455  42.287  11.972
13752W        W86820   4.019  19.108   4.443
13753W        W86821  17.583   9.625   3.290
13754W        W86822  12.622   8.696  13.514
13755W        W86823  38.568  36.583  11.558
13756W        W86824  24.165   6.299  13.913
13757W        W86825   4.812  14.031  14.535
13758W        W86826  19.527  23.551   3.751
13759W        W86827  17.044  23.358  14.932
13760W        W86828  23.228   8.236  13.503
13761W        W86829   9.753  13.208  13.005
13762W        W86830   0.554  18.655   3.828
13763W        W86831  33.346  26.453  14.492
13764W        W86832  25.989  29.641   1.464
13765W        W86833  44.403  42.357  11.708
13766W        W86834   0.239   3.023   1.345
13767W        W86835  36.534  14.429   0.556
13768W        W86836  17.646  15.710   2.319
13769W        W86837  14.575  40.601  10.716
13770W        W86838   7.289  14.528   0.798
13771W        W86839  25.935  30.103  11.183
13772W        W86840  13.141  15.236   2.849
13773W        W86841   3.277  28.517  14.321
13774W        W86842  42.977   7.182  13.978
13775W        W86843   4.668   0.029   3.692
13776W        W86844   8.514  17.796   1.970
13777W        W86845   5.463  34.183   1.221
13778W        W86846  34.801  11.265  13.519
13779W        W86847  30.668  38.105  13.420
13780W        W86848  27.138  19.868   2.408
13781W        W86849  21.570  27.277   2.359
13782W        W86850   3.430  39.592   4.827
13783W        W86851  41.298  22.118   3.875
13784W        W86852   6.372  33.981  12.136
13785W        W86853  29.878   7.501  13.099
13786W        W86854  16.969  17.257   9.871
13787W        W86855  31.144   5.774   1.004
13788W        W86856  17.860  23.027   1.300
13789W        W86857  13.652   5.231   3.848
13790W        W86858  29.160  40.041   1.207
13791W        W86859  10.904  28.052  13.623
13792W        W86860  31.319  32.519  11.194
13793W        W86861  28.643  21.116  14.772
13794W        W86862   6.868  38.065   4.721
13795W        W86863  11.794   5.297   0.021
13796W        W86864  17.748   5.465  12.460
13797W        W86865  36.929  12.077   4.695
13798W        W86866   3.976  42.873   3.678
13799W        W86867  27.398  31.507  11.351
13800W        W86868   9.290  34.598  14.836
13801W        W86869   8.235   8.835   3.614
13802W        W86870  35.492  10.378  10.857
13803W        W86871  41.567  13.367   1.753
13804W        W86872  40.757  23.645   3.742
13805W        W86873  43.709   6.949  13.752
13806W        W86874   1.346   9.165   0.530
13807W        W86875  39.761  18.755  12.899
13808W        W86876  40.863  13.157   4.076
13809W        W86877  35.893  16.893  14.401
13810W        W86878  14.528  11.943  13.518
13811W        W86879   2.242  28.609   0.352
13812W        W86880   6.339   0.099  14.852
13813W        W86881  42.609  26.459   5.301
13814W        W86882  20.097  36.075  10.120
13815W        W86883  23.660  32.699  10.537
13816W        W86884  25.049  11.307  13.196
13817W        W86885  23.034  42.853  12.851
13818W        W86886  23.636  11.119   1.161
13819W        W86887  10.940  31.128  12.918
13820W        W86888  36.059  39.253  12.842
13821W        W86889  28.949  24.410  14.049
13822W        W86890  19.595  36.489  14.377
13823W        W86891  32.904  20.705   3.829
13824W        W86892  27.052  14.567   1.899
13825W        W86893   2.975  14.269   2.255
13826W        W86894  10.436   9.394   1.180
13827W        W86895  20.515  30.399   4.575
13828W        W86896  28.152  27.054   3.622
13829W        W86897  37.012  41.679  13.326
13830W        W86898  12.377  29.368  11.092
13831W        W86899   8.278  35.603   3.857
13832W        W86900  24.721  31.739   3.295
13833W        W86901  43.071  14.747   2.353
13834W        W86902  42.071   6.568  10.285
13835W        W86903  16.206  37.659  12.951
13836W        W86904   4.916  44.807  11.151
13837W        W86905  41.480  17.672  14.543
13838W        W86906  28.914  42.028   4.090
13839W        W86907  14.383  27.423   3.397
13840W        W86908  37.644  42.404   0.427
13841W        W86909  27.895  22.770  13.484
13842W        W86910  40.516  24.037  13.986
13843W        W86911  31.382  13.872   3.708
13844W        W86912  15.708  21.186   2.888
13845W        W86913   0.885  16.189  14.563
13846W        W86914  16.745  15.170   3.302
13847W        W86915  22.078  16.194   2.143
13848W        W86916  43.686   8.685  10.886
13849W        W86917  39.001  15.024  12.062
13850W        W86918  21.619  32.348  14.389
13851W        W86919  28.540  33.128  10.669
13852W        W86920  38.559  26.625  13.936
13853W        W86921   8.737   7.661   2.955
13854W        W86922  25.612  26.443   0.837
13855W        W86923   7.258  34.701  13.560
13856W        W86924  13.676  39.472  12.806
13857W        W86925  13.056  42.117   1.828
13858W        W86926  38.100  26.563   4.246
13859W        W86927  35.101  17.579  12.972
13860W        W86928   0.880  12.063   2.300
13861W        W86929  23.621  13.138  11.950
13862W        W86930  22.812  43.195   4.411
13863W        W86931   7.188  23.677  11.548
13864W        W86932   1.098  17.795  11.570
13865W        W86933  22.085  29.677   4.740
13866W        W86934  18.161   1.275   4.239
13867W        W86935   4.879  44.093  14.010
13868W        W86936  27.964  22.685  14.995
13869W        W86937  12.671  43.442   1.800
13870W        W86938  26.966   8.270  14.746
13871W        W86939  23.692  35.941  10.359
13872W        W86940  29.091  35.259  12.278
13873W        W86941   4.402  33.638  11.179
13874W        W86942   1.981  15.684   1.634
13875W        W86943  43.447  39.993  10.693
13876W        W86944  25.943   1.315   0.152
13877W        W86945  38.607  12.132   1.282
13878W        W86946  19.231  24.548  14.932
13879W        W86947   8.128  39.381   1.049
13880W        W86948   1.717  32.934  14.133
13881W        W86949   9.344  43.400   3.311
13882W        W86950  23.365  34.769   2.472
13883W        W86951   2.673  36.084   3.611
13884W        W86952  10.301   1.565  10.272
13885W        W86953   8.460  39.610   0.711
13886W        W86954   9.760   5.444  14.270
13887W        W86955   2.333  42.208   2.919
13888W        W86956  29.935  18.707   4.744
13889W        W86957  28.665  36.938   1.932
13890W        W86958  27.430  12.877  14.214
13891W        W86959  38.594  24.542  14.938
13892W        W86960  18.055  36.065   1.774
13893W        W86961  11.803  43.308   0.391
13894W        W86962  42.072  35.273  11.018
13895W        W86963  19.949  25.076   9.945
13896W        W86964  27.266   3.481   0.303
13897W        W86965   9.281  15.073   5.036
13898W        W86966  13.100  20.809  14.495
13899W        W86967   1.222  16.632  12.445
13900W        W86968  26.508  11.717   1.415
13901W        W86969  27.649   4.973   2.255
13902W        W86970  10.268  40.225   4.976
13903W        W86971  38.408  27.667  11.159
13904W        W86972  24.554  23.542   0.546
13905W        W86973  18.612  13.216   1.265
13906W        W86974  25.521  42.722   0.262
13907W        W86975   1.220  23.469  11.520
13908W        W86976   1.113   9.390  13.967
13909W        W86977  32.036  17.722   3.724
13910W        W86978  29.415  41.978  12.220
13911W        W86979  40.574  39.443  11.932
13912W        W86980  33.475  34.344  13.379
13913W        W86981  20.989  25.612  14.021
13914W        W86982   0.418  28.018   3.640
13915W        W86983  24.305   9.541   3.829
13916W        W86984  31.210  19.405   1.699
13917W        W86985   1.405  35.577  12.704
13918W        W86986  36.557   5.404  13.572
13919W        W86987  20.239  18.611  13.601
13920W        W86988  14.893   4.515   0.312
13921W        W86989  31.087  38.778   1.279
13922W        W86990   6.908  31.298   1.388
13923W        W86991  40.563  39.689  10.701
13924W        W86992  19.082  17.254  14.391
13925W        W86993   1.441  19.063   0.520
13926W        W86994  18.608  11.948  13.430
13927W        W86995  28.702  11.143   3.580
13928W        W86996   5.719  12.130  11.150
13929W        W86997  14.835  12.174   4.151
13930W        W86998  35.406  28.595  13.027
13931W        W86999  36.658  34.179  14.002
13932W        W87000  23.592  35.345  12.002
13933W        W87001  15.268  11.658   3.355
13934W        W87002  36.508  22.602  14.034
13935W        W87003  34.020   1.230   2.582
13936W        W87004   8.709  36.933   4.399
13937W        W87005   8.972  12.104  12.390
13938W        W87006   1.835  37.428   4.692
13939W        W87007   4.849  44.336  12.611
13940W        W87008  31.710   0.268   4.815
13941W        W87009   9.118  33.379   0.306
13942W        W87010  38.639  33.484  12.943
13943W        W87011  25.579  17.246  12.101
13944W        W87012  37.942  43.626  10.995
13945W        W87013  19.767   1.006  13.512
13946W        W87014  26.089   8.822  12.160
13947W        W87015  37.978  15.578   3.180
13948W        W87016  25.165  24.376  13.318
13949W        W87017  42.592  38.321   0.449
13950W        W87018  13.715  28.013  13.059
13951W        W87019  15.285  21.506   2.724
13952W        W87020   0.193   2.892  14.524
13953W        W87021  21.648  43.275  11.049
13954W        W87022  11.359   9.824  10.633
13955W        W87023  18.418   5.947   1.820
13956W        W87024  34.092   4.784  13.220
13957W        W87025  28.516  12.787   0.910
13958W        W87026  13.378  14.846  14.671
13959W        W87027  33.422   1.421  11.828
13960W        W87028  18.098   7.214  12.506
13961W        W87029   9.662   6.359  10.635
13962W        W87030  14.369  28.052  10.519
13963W        W87031   5.471  35.880  10.520
13964W        W87032   1.268  28.948   3.253
13965W        W87033  40.391  30.217   3.664
13966W        W87034  30.646  40.909  14.346
13967W        W87035  38.621   2.483   2.201
13968W        W87036   2.273  44.336  13.401
13969W        W87037  15.509  36.953  12.114
13970W        W87038  23.256   9.243   2.680
13971W        W87039  16.626  15.119  14.449
13972W        W87040   7.737  27.197   0.013
13973W        W87041  34.522  38.071   0.334
13974W        W87042  28.130   2.434  10.674
13975W        W87043  33.475   5.599  14.195
13976W        W87044  25.210   7.954   0.721
13977W        W87045  42.013  10.855  10.585
13978W        W87046  29.261  30.061  10.801
13979W        W87047   6.865  44.259   4.087
13980W        W87048   1.796  34.126   3.262
13981W        W87049  19.027  42.346  11.095
13982W        W87050  27.119  37.126  13.316
13983W        W87051  35.348  30.539  12.993
13984W        W87052  19.296  14.267  10.662
13985W        W87053  42.352  41.444  14.857
13986W        W87054  15.155   6.710  11.106
13987W        W87055  36.076   2.481  11.623
13988W        W87056  32.149  13.477   0.386
13989W        W87057  29.667  44.466  13.748
13990W        W87058  16.195   5.796  10.614
13991W        W87059  43.286  13.217  12.934
13992W        W87060  16.611   0.183   1.870
13993W        W87061   6.540   5.376   1.188
13994W        W87062   9.824  28.073   2.384
13995W        W87063  41.559   7.739  10.611
13996W        W87064  18.016   9.395  10.633
13997W        W87065  40.414  33.377   3.284
13998W        W87066  35.879  27.397  11.990
13999W        W87067  33.019  41.017  13.679
14000W        W87068  22.934  28.375  10.690
14001W        W87069  22.036  34.705  14.184
14002W        W87070   0.444  30.024  11.614
14003W        W87071  12.577  24.931   2.618
14004W        W87072  13.075  10.161   3.739
14005W        W87073  10.397   9.698   3.866
14006W        W87074  26.136  22.849   0.791
14007W        W87075  15.214  28.718  12.851
14008W        W87076  11.956  34.027   1.360
14009W        W87077  25.194   7.422  13.003
14010W        W87078  30.243  42.411  14.637
14011W        W87079   7.842  35.400  14.309
14012W        W87080  23.596  32.866   2.376
14013W        W87081  12.305  18.264   5.107
14014W        W87082  12.796   1.644  12.149
14015W        W87083  27.898   5.886   0.552
14016W        W87084  12.441   0.557  10.990
14017W        W87085  14.527  33.582   2.190
14018W        W87086  43.455  24.894  12.501
14019W        W87087  29.460  40.873   0.337
14020W        W87088  14.346   3.221  12.475
14021W        W87089  36.003  34.640   3.321
14022W        W87090  20.168  29.420   2.113
14023W        W87091  12.240  26.933  14.238
14024W        W87092  32.450   3.091  12.474
14025W        W87093   5.738   3.946   3.597
14026W        W87094  13.850  31.530   0.201
14027W        W87095  28.123   2.453   3.005
14028W        W87096  12.798  39.942  11.550
14029W        W87097  44.871  28.479  12.943
14030W        W87098  16.229  37.344   0.944
14031W        W87099   9.269  30.066  11.533
14032W        W87100  35.585   5.310   0.322
14033W        W87101  36.663  14.559   3.695
14034W        W87102  36.342  42.020  14.895
14035W        W87103  17.684  37.017   4.540
14036W        W87104  23.206  15.718   5.149
14037W        W87105  39.552  16.049   9.533
14038W        W87106  24.637  17.333  14.747
14039W        W87107  42.487  11.719   0.929
14040W        W87108  32.440  22.437  13.903
14041W        W87109  13.898  39.378   2.335
14042W        W87110  35.057  21.544  14.737
14043W        W87111  18.333  16.377   2.257
14044W        W87112  21.739  37.859   4.600
14045W        W87113  14.067  19.943   3.953
14046W        W87114   1.437  31.765   4.322
14047W        W87115  25.840  16.191  12.776
14048W        W87116  42.476  33.955  14.384
14049W        W87117   2.042  44.514  11.107
14050W        W87118  43.761  24.446   2.414
14051W        W87119  17.959  39.947   0.950
14052W        W87120  32.672  25.536   1.578
14053W        W87121  30.598  44.112   3.203
14054W        W87122  39.014  28.179   1.702
14055W        W87123  36.982  38.744   2.735
14056W        W87124  41.122  12.708   1.150
14057W        W87125  19.916  28.297   3.685
14058W        W87126   1.387  31.650  11.608
14059W        W87127  37.433   4.200   0.280
14060W        W87128  43.411  39.770  12.438
14061W        W87129   1.790  41.376   3.579
14062W        W87130  23.302  17.566   4.692
14063W        W87131  44.587   2.791   2.117
14064W        W87132   0.820  19.039   4.701
14065W        W87133  39.487  18.326  12.829
14066W        W87134   0.561  22.667  12.158
14067W        W87135  13.665  39.854  12.449
14068W        W87136  26.190  27.159  14.415
14069W        W87137  27.888  20.005  14.901
14070W        W87138   3.715   0.465  14.054
14071W        W87139  34.555   8.780  12.989
14072W        W87140  28.874   6.725  13.968
14073W        W87141  39.055  14.523  12.099
14074W        W87142  30.921  13.105   1.381
14075W        W87143  22.793  24.989   2.371
14076W        W87144  16.717  14.890  10.695
14077W        W87145  16.274  23.526  13.602
14078W        W87146  14.581  42.252   1.348
14079W        W87147  29.404   7.833   3.974
14080W        W87148  26.084  18.062   0.528
14081W        W87149  37.152  30.978  13.932
14082W        W87150  42.179  24.842   5.347
14083W        W87151  18.019  26.927  12.074
14084W        W87152  13.710   8.763  13.143
14085W        W87153  16.437   9.563   3.997
14086W        W87154  40.928   0.022   3.230
14087W        W87155   9.262  39.269  14.119
14088W        W87156   5.813   4.266  14.042
14089W        W87157  37.540  10.650  11.938
14090W        W87158  33.481  35.869  14.413
14091W        W87159  37.937  29.429  13.745
14092W        W87160   7.170   0.334   0.419
14093W        W87161  28.720  19.459   1.624
14094W        W87162  35.472  12.625   2.773
14095W        W87163  32.820  32.446  14.965
14096W        W87164  11.725  28.708   4.273
14097W        W87165   9.683  20.671   4.129
14098W        W87166   1.430  11.905  12.033
14099W        W87167  42.405   8.249  11.397
14100W        W87168   5.948  43.303  10.690
14101W        W87169  39.724  36.089  14.553
14102W        W87170  34.856  35.969  13.920
14103W        W87171  12.690  23.821   4.099
14104W        W87172  31.130   1.378   4.183
14105W        W87173  38.038  22.247   0.450
14106W        W87174  14.919  16.318  11.034
14107W        W87175   6.449  14.314   0.319
14108W        W87176   4.252  35.190  12.525
14109W        W87177   1.354  21.863   0.878
14110W        W87178  42.508   0.843   1.342
14111W        W87179  23.989  36.000  11.708
14112W        W87180   9.643   7.882   2.903
14113W        W87181  20.319  35.440   1.294
14114W        W87182  43.242  25.147   0.287
14115W        W87183  35.963  24.145  11.859
14116W        W87184   9.843  31.342  13.376
14117W        W87185   8.335  35.817   4.319
14118W        W87186   2.756   3.633  13.306
14119W        W87187  41.480  16.226  13.016
14120W        W87188  16.939   6.334  10.138
14121W        W87189  10.079  30.720   4.984
14122W        W87190  42.729  16.219  12.552
14123W        W87191   2.164   0.787  11.591
14124W        W87192  10.130  10.630   0.008
14125W        W87193   6.245  39.844   3.752
14126W        W87194  30.969  10.278   3.738
14127W        W87195  16.270  39.436   0.732
14128W        W87196   7.227  33.850   0.701
14129W        W87197  26.518  19.742  13.915
14130W        W87198   5.751  43.785  11.869
14131W        W87199   4.460  40.816  12.432
14132W        W87200  39.485  30.231   2.834
14133W        W87201  17.327  10.159   4.972
14134W        W87202  27.114   9.986  13.834
14135W        W87203   2.927  43.556  14.021
14136W        W87204  26.181  14.649  14.313
14137W        W87205  20.243  17.500   0.064
14138W        W87206  36.091  21.041  14.001
14139W        W87207  43.853  31.537   1.954
14140W        W87208  30.220  13.268   3.348
14141W        W87209  19.612  37.486  12.149
14142W        W87210  35.453   0.484   1.304
14143W        W87211  28.372   1.904  13.447
14144W        W87212  14.807  18.040   4.549
14145W        W87213  27.655   6.318   0.795
14146W        W87214  25.156  20.458   4.175
14147W        W87215   4.416   1.889   1.291
14148W        W87216   4.484  24.150   1.705
14149W        W87217  20.724   3.052  13.825
14150W        W87218  29.609  42.730  13.905
14151W        W87219  12.134  31.005   4.827
14152W        W87220  32.170  18.173  14.458
14153W        W87221  33.364  21.525  13.647
14154W        W87222  31.176  14.169  10.707
14155W        W87223   1.064  30.490  12.834
14156W        W87224  10.454  44.860   3.629
14157W        W87225  12.653  24.404  14.806
14158W        W87226  28.975  38.277   4.769
14159W        W87227   6.005  29.505   4.043
14160W        W87228   1.409  25.760  14.835
14161W        W87229  36.918  27.844  12.149
14162W        W87230   4.675   7.922   1.385
14163W        W87231  14.119  40.815   0.281
14164W        W87232  36.683  31.657   3.311
14165W        W87233  29.977  44.693   3.742
14166W        W87234  40.203   4.450  13.467
14167W        W87235  17.280  43.494  12.113
14168W        W87236  32.868   2.257  13.971
14169W        W87237  38.726   6.234   5.495
14170W        W87238  14.872   3.284  14.355
14171W        W87239   8.852  23.659  10.703
14172W        W87240  11.160   8.213   2.313
14173W        W87241  24.626  22.136  12.547
14174W        W87242   3.518  32.168   1.997
14175W        W87243   1.905   2.275   1.638
14176W        W87244   4.302  41.306   1.050
14177W        W87245   2.825   2.821  11.611
14178W        W87246  36.844  28.645  13.178
14179W        W87247  37.413  22.659  12.455
14180W        W87248   2.336   2.927  14.980
14181W        W87249  21.703  31.592   4.446
14182W        W87250  40.784  33.384   0.754
14183W        W87251   8.725  38.463  12.317
14184W        W87252  41.557  36.458   2.836
14185W        W87253   5.541  13.380  11.708
14186W        W87254  27.288   8.927   0.108
14187W        W87255  10.470   4.926  12.460
14188W        W87256   1.837  19.580  14.776
14189W        W87257  20.714  28.762  11.775
14190W        W87258   7.801   7.832   1.937
14191W        W87259  36.612   5.934  14.874
14192W        W87260  37.354   5.723  10.736
14193W        W87261  16.567  37.610   4.066
14194W        W87262  26.278  31.036   0.234
14195W        W87263  20.289  26.547   2.734
14196W        W87264  34.224  37.437  13.912
14197W        W87265  26.506   2.688   3.276
14198W        W87266   7.644   3.958  12.344
14199W        W87267   2.376  37.343   4.010
14200W        W87268  20.067   1.996   2.318
14201W        W87269  21.947   3.225  13.085
14202W        W87270  16.256   5.714   4.549
14203W        W87271  27.529  34.281   4.116
14204W        W87272  37.074  43.782   2.477
14205W        W87273  28.147  28.935   1.762
14206W        W87274  25.172  25.268  11.031
14207W        W87275  37.426  42.028   2.467
14208W        W87276  26.446   6.276   5.120
14209W        W87277  26.225  34.572  13.100
14210W        W87278  31.942  43.288  14.979
14211W        W87279  34.533  10.711   3.218
14212W        W87280   5.040  17.847   1.988
14213W        W87281  18.104  31.027  12.062
14214W        W87282   7.166  32.882   2.563
14215W        W87283  44.767   3.667   2.270
14216W        W87284  44.361   3.623  10.668
14217W        W87285  25.255  38.437   5.036
14218W        W87286  35.866  15.018  10.709
14219W        W87287  30.565  22.536  11.444
14220W        W87288  20.565  22.462  10.747
14221W        W87289  32.655  21.702   3.695
14222W        W87290  28.707   3.152  12.422
14223W        W87291  13.283  13.035   2.369
14224W        W87292  10.676  11.826   0.021
14225W        W87293  23.215  10.850   0.672
14226W        W87294  22.253  28.206  14.455
14227W        W87295  11.720   5.350  12.966
14228W        W87296  25.684  39.141   1.482
14229W        W87297  42.639  23.955   0.798
14230W        W87298  10.371  41.904  13.495
14231W        W87299  22.979  25.203   1.913
14232W        W87300  24.750   1.762  13.389
14233W        W87301  35.409  42.731  11.560
14234W        W87302  11.213  37.233  11.960
14235W        W87303  43.938  10.000  14.227
14236W        W87304  39.821   8.268   2.671
14237W        W87305  33.995   3.436   2.282
14238W        W87306  41.930  24.757   2.168
14239W        W87307  26.675  34.641  10.964
14240W        W87308  14.769  25.590   2.780
14241W        W87309  31.857  24.538   3.645
14242W        W87310  39.252   4.237  11.908
14243W        W87311  13.679  13.084  14.038
14244W        W87312  12.572   2.283  11.593
14245W        W87313  41.952  26.592  13.473
14246W        W87314  44.503   1.357   1.305
14247W        W87315   2.161  33.828   1.438
14248W        W87316   6.336  42.992   3.093
14249W        W87317  12.735   9.809   2.408
14250W        W87318  18.923  35.371  13.357
14251W        W87319  41.030  36.978  12.162
14252W        W87320  13.522  20.516  11.482
14253W        W87321  32.976  38.481  12.031
14254W        W87322  37.606   7.409   0.406
14255W        W87323  42.810  23.426  14.972
14256W        W87324  33.573  31.329   0.755
14257W        W87325  39.663  14.101  11.611
14258W        W87326  27.399  28.963  10.659
14259W        W87327  18.180  43.267   4.203
14260W        W87328  18.004   0.774   4.234
14261W        W87329  30.605   3.853   1.498
14262W        W87330  32.126  44.876  13.581
14263W        W87331  13.816  27.146   0.380
14264W        W87332  44.704  17.328   4.750
14265W        W87333  24.994  14.462   4.552
14266W        W87334  17.215  14.162   2.393
14267W        W87335  33.365   8.210  13.378
14268W        W87336   5.627   1.344   3.270
14269W        W87337  13.608  35.345  13.132
14270W        W87338  30.917   5.477   3.497
14271W        W87339  24.999   7.933  14.243
14272W        W87340  10.115  16.598  12.547
14273W        W87341   7.183  21.854  14.926
14274W        W87342  41.218  42.497   0.580
14275W        W87343  27.222  15.105   0.786
14276W        W87344  12.189  21.501   3.743
14277W        W87345   9.387  11.400   2.766
14278W        W87346  17.262  33.025  10.435
14279W        W87347  31.710  28.940  12.482
14280W        W87348  27.447  15.749  13.531
14281W        W87349  20.642  21.864   1.756
14282W        W87350  12.307  30.375   1.426
14283W        W87351  37.460  18.035  10.689
14284W        W87352  23.318   2.869   1.099
14285W        W87353  31.480   2.190  11.919
14286W        W87354  21.563  10.959  11.832
14287W        W87355  44.245  35.339   1.044
14288W        W87356  40.266   0.957  12.518
14289W        W87357  37.052  30.133  11.178
14290W        W87358   0.813   3.716  12.681
14291W        W87359  27.557   4.241   3.086
14292W        W87360   6.285  35.861  13.272
14293W        W87361  13.287  36.379  13.457
14294W        W87362  23.099  36.110   1.009
14295W        W87363  25.017  37.280  13.887
14296W        W87364  29.140   2.421   0.785
14297W        W87365   0.390  24.127  13.542
14298W        W87366  20.671   5.314  14.047
14299W        W87367  43.512  33.925  11.228
14300W        W87368  10.295   2.784  11.071
14301W        W87369  25.491   0.237  10.681
14302W        W87370  18.770  43.229  12.095
14303W        W87371  35.963   8.335  12.681
14304W        W87372  40.178  29.597  14.872
14305W        W87373   0.052  30.948   3.702
14306W        W87374  35.576  42.272   2.553
14307W        W87375  29.722  23.622   0.848
14308W        W87376  19.821  34.628   1.729
14309W        W87377  30.235  28.933   4.453
14310W        W87378  12.778   5.129   3.301
14311W        W87379  34.750  14.234   1.907
14312W        W87380   5.730  12.615  12.061
14313W        W87381  39.699  29.248   0.319
14314W        W87382  24.093  42.731   0.025
14315W        W87383  26.152  38.341  10.096
14316W        W87384  13.546  17.703   4.082
14317W        W87385  25.394  23.186  14.268
14318W        W87386  27.568  37.600   1.129
14319W        W87387  16.834  42.999  13.068
14320W        W87388  26.001  12.087   1.810
14321W        W87389  41.938   2.638   2.711
14322W        W87390   6.909  34.810   1.741
14323W        W87391  13.297   7.227   2.895
14324W        W87392   1.717  10.332   0.772
14325W        W87393  34.382  12.734   2.774
14326W        W87394  22.319   2.532   0.371
14327W        W87395   2.355  36.930   0.019
14328W        W87396  16.195  28.726  14.866
14329W        W87397  22.070  31.205  12.836
14330W        W87398  16.941  15.705   4.505
14331W        W87399   7.975  41.394   4.580
14332W        W87400  44.313   7.183  13.033
14333W        W87401   0.317  38.463  14.283
14334W        W87402  24.504  22.573   4.430
14335W        W87403  17.844  28.967  11.464
14336W        W87404  10.658  36.665   0.881
14337W        W87405  16.927  30.482   3.608
14338W        W87406  15.552  21.524  10.939
14339W        W87407  11.578  10.840  12.016
14340W        W87408  25.677  30.493   4.538
14341W        W87409  12.095   7.749  11.140
14342W        W87410  29.123   0.743  12.006
14343W        W87411  28.217  16.308  10.563
14344W        W87412   8.917  19.241   2.466
14345W        W87413  15.687  43.267  12.649
14346W        W87414  38.374  35.000  12.381
14347W        W87415   7.930  33.890   2.811
14348W        W87416  17.254   8.251   0.257
14349W        W87417   9.130  20.563   0.311
14350W        W87418  15.571   0.060   1.895
14351W        W87419  16.531  18.108   2.232
14352W        W87420   5.692  27.897  13.008
14353W        W87421  14.830   6.158   2.399
14354W        W87422  31.150  20.899   4.144
14355W        W87423   4.023  11.734   4.108
14356W        W87424  36.933   7.407   4.237
14357W        W87425  17.674  22.088  14.407
14358W        W87426  20.658  27.953   2.624
14359W        W87427  44.100  15.891  10.848
14360W        W87428   9.378  33.818   0.474
14361W        W87429  37.687  33.212   1.670
14362W        W87430  16.738   3.714  13.348
14363W        W87431  26.054   4.689   1.619
14364W        W87432  41.397   7.002   0.824
14365W        W87433  17.079  11.855  10.450
14366W        W87434   2.857  39.422  13.013
14367W        W87435  31.488   5.452  12.985
14368W        W87436  34.576  43.542   2.051
14369W        W87437   3.397  17.081  14.266
14370W        W87438  13.846  42.935   3.156
14371W        W87439  31.973  30.454  11.419
14372W        W87440  25.632  25.973   3.344
14373W        W87441  16.222  18.116  11.277
14374W        W87442  16.097  22.728  11.264
14375W        W87443  26.198  12.805  13.937
14376W        W87444  35.830   8.881  10.705
14377W        W87445  23.093   6.420   4.320
14378W        W87446  37.182   8.724   0.361
14379W        W87447  14.866   5.629  11.566
14380W        W87448  44.378  38.658  11.098
14381W        W87449  21.793   8.364   4.235
14382W        W87450  37.313   3.703  10.957
14383W        W87451  35.068  27.479  11.677
14384W        W87452  14.160   1.226   1.252
14385W        W87453  25.056   5.699  11.942
14386W        W87454  17.517   2.744   2.801
14387W        W87455  40.328  34.627  10.786
14388W        W87456   5.919  41.411   2.340
14389W        W87457   7.860  34.617   4.647
14390W        W87458  21.657  21.008  14.815
14391W        W87459   7.159   1.907   3.927
14392W        W87460   5.311  22.068  11.185
14393W        W87461  24.998  42.590  13.769
14394W        W87462  38.859  18.522   0.889
14395W        W87463  14.259  20.467  13.284
14396W        W87464   5.790  17.432  14.382
14397W        W87465  43.477  12.813   4.510
14398W        W87466   9.347   2.816   0.441
14399W        W87467  43.512  29.474   3.315
14400W        W87468   5.997  31.307  13.446
14401W        W87469  15.695  30.490   0.878
14402W        W87470  18.672  18.985   0.349
14403W        W87471  43.278  40.726   1.966
14404W        W87472  43.882  23.597  10.981
14405W        W87473   3.826  28.156   4.490
14406W        W87474  19.065  32.297   0.405
14407W        W87475  31.952  20.669   4.546
14408W        W87476  13.336   9.147  14.565
14409W        W87477  12.771  39.031  12.367
14410W        W87478  24.254  10.423   3.582
14411W        W87479   1.270  14.124  12.027
14412W        W87480  25.042   1.964  11.075
14413W        W87481  38.896   9.353  10.608
14414W        W87482   5.904  28.357  13.124
14415W        W87483  30.009  21.952  13.359
14416W        W87484   5.928  13.337  11.351
14417W        W87485  16.637  24.967   1.446
14418W        W87486  39.768   9.258  14.987
14419W        W87487  34.657   0.399   4.998
14420W        W87488  40.842  36.329  11.412
14421W        W87489  27.196  25.640   2.740
14422W        W87490  23.495   3.229   3.074
14423W        W87491  21.232  32.547  11.109
14424W        W87492  28.165  28.021   3.536
14425W        W87493  36.127  16.741  10.715
14426W        W87494   0.422   0.967  13.281
14427W        W87495  38.957  19.688   1.667
14428W        W87496  23.708  28.982   3.638
14429W        W87497   9.184   4.696  13.076
14430W        W87498   0.346  43.937  14.970
14431W        W87499  18.368  24.921  14.408
14432W        W87500  19.046  25.484   1.231
14433W        W87501   6.834  13.108  12.117
14434W        W87502  33.993   0.369  11.941
14435W        W87503  39.875  36.938   1.328
14436W        W87504  30.289  33.613  12.097
14437W        W87505  36.472  12.648   2.707
14438W        W87506  43.346  28.097   4.684
14439W        W87507   3.484  31.629  10.864
14440W        W87508  26.734   7.559   1.811
14441W        W87509  40.198  22.577   1.663
14442W        W87510  35.910  23.155  14.342
14443W        W87511  19.486  35.330   1.599
14444W        W87512  26.028  15.271   4.220
14445W        W87513  14.027   0.027  14.828
14446W        W87514   9.353  43.629   2.847
14447W        W87515  13.516  36.910   1.497
14448W        W87516  19.694  25.131   4.378
14449W        W87517  33.109   4.220  13.967
14450W        W87518  12.261  19.088   4.848
14451W        W87519  21.896  37.937   2.579
14452W        W87520  26.742  21.573   2.251
14453W        W87521  41.481  15.170   4.399
14454W        W87522   3.321  13.091  13.415
14455W        W87523   7.990  20.305  13.012
14456W        W87524  42.382  41.091   1.821
14457W        W87525  14.350  22.716  12.545
14458W        W87526  29.536  38.871   1.873
14459W        W87527  24.613  42.266   4.713
14460W        W87528  22.591   7.907   4.034
14461W        W87529  18.703  29.176   4.115
14462W        W87530   5.871   0.807  14.546
14463W        W87531  44.858   9.099  12.932
14464W        W87532  26.563  12.695   0.048
14465W        W87533  31.072  31.943   2.235
14466W        W87534  28.897   2.790  13.644
14467W        W87535   7.171  37.799  12.790
14468W        W87536  18.063  34.355   2.808
14469W        W87537   9.205  34.369  13.048
14470W        W87538  38.016   2.058  12.956
14471W        W87539  35.996   1.851  11.005
14472W        W87540   7.762  33.877  12.930
14473W        W87541  27.064  28.088   1.213
14474W        W87542  14.741  18.309  11.117
14475W        W87543  16.112  25.450   1.779
14476W        W87544  31.578  37.487  12.026
14477W        W87545  29.983  33.430  13.902
14478W        W87546   6.395  37.607  14.890
14479W        W87547  14.835   2.968   0.931
14480W        W87548  31.317  26.667  12.732
14481W        W87549   3.723  38.078   4.059
14482W        W87550   7.481  40.770   1.022
14483W        W87551  18.179  32.854  12.640
14484W        W87552  21.726  27.945   0.700
14485W        W87553  39.019  21.089  14.110
14486W        W87554  43.050   3.756  11.996
14487W        W87555  11.579  21.564  11.538
14488W        W87556   1.522   1.660   3.709
14489W        W87557  16.380  20.723  13.801
14490W        W87558  26.900  12.221   5.599
14491W        W87559  31.913   9.495   1.097
14492W        W87560  43.011  25.417   1.793
14493W        W87561  28.546  28.148  12.398
14494W        W87562  27.080   9.212  14.738
14495W        W87563   6.741  34.165  14.028
14496W        W87564  12.350  14.861   1.497
14497W        W87565  12.634  11.579  10.936
14498W        W87566   8.073  17.677  13.366
14499W        W87567  37.817  44.854   1.400
14500W        W87568  17.369  15.144  12.976
14501W        W87569  18.750  20.241   0.743
14502W        W87570  44.849  43.466   2.030
14503W        W87571  41.470  40.796   3.544
14504W        W87572  35.621  26.795   0.932
14505W        W87573  41.265   3.397  10.275
14506W        W87574  10.852  42.000   2.154
14507W        W87575  14.175  20.905   4.325
14508W        W87576  32.133  43.361   1.001
14509W        W87577  10.404  34.010   2.878
14510W        W87578   2.329  35.059  12.285
14511W        W87579  14.744  23.952   2.678
14512W        W87580  28.581  18.283  11.192
14513W        W87581  43.336  34.163  14.012
14514W        W87582   4.284  29.636   1.639
14515W        W87583  21.965  35.541   4.585
14516W        W87584  27.345  20.288   0.847
14517W        W87585  21.362  44.393  13.169
14518W        W87586  19.275  11.799  12.075
14519W        W87587  26.440  17.881   4.784
14520W        W87588  17.929  20.227  11.601
14521W        W87589   1.998  22.120  13.502
14522W        W87590   5.291  37.902   1.820
14523W        W87591  24.975  13.896  14.047
14524W        W87592   3.940  20.018  10.774
14525W        W87593  31.124   5.169   3.108
14526W        W87594  25.139   0.311   4.183
14527W        W87595   6.644   3.738  13.781
14528W        W87596  25.799   0.450  12.087
14529W        W87597  17.437  28.358  13.058
14530W        W87598  32.848   7.463   1.006
14531W        W87599  40.051  25.004   0.891
14532W        W87600  44.840  39.502  13.879
14533W        W87601  21.616  28.787   2.205
14534W        W87602  26.255  37.119  14.321
14535W        W87603  15.028  38.411   4.094
14536W        W87604  42.530  26.319  11.119
14537W        W87605  33.195  14.811   3.773
14538W        W87606  41.014  35.849   4.016
14539W        W87607  14.357  24.982   0.175
14540W        W87608  17.504  14.829  11.059
14541W        W87609   1.493  22.051   0.401
14542W        W87610   1.295  40.920   4.258
14543W        W87611  27.909  14.760  13.083
14544W        W87612  13.742   5.852  10.633
14545W        W87613  23.554  35.251   0.511
14546W        W87614  35.577  26.999   2.277
14547W        W87615   9.922  35.450   1.773
14548W        W87616  29.843  41.801   4.230
14549W        W87617  41.484  22.164   0.729
14550W        W87618  16.352   3.413   2.830
14551W        W87619  39.620   4.657  14.866
14552W        W87620  25.191  39.649   0.821
14553W        W87621  31.251  23.527  14.506
14554W        W87622  32.404  38.604  11.541
14555W        W87623  12.809  32.988  12.489
14556W        W87624  28.861  38.747  13.364
14557W        W87625  21.282  43.797   4.599
14558W        W87626  38.140  40.923  11.084
14559W        W87627  33.295   8.484   4.097
14560W        W87628  30.558   5.923  11.194
14561W        W87629   8.936  24.701  13.027
14562W        W87630   8.882  18.757   4.677
14563W        W87631  24.010  36.441  11.449
14564W        W87632  44.505   7.278   1.761
14565W        W87633  24.961   8.758   1.808
14566W        W87634  26.233  43.768  13.958
14567W        W87635  23.176  17.809   3.963
14568W        W87636   7.881  38.957  13.768
14569W        W87637  29.908   1.233   3.644
14570W        W87638  24.971  39.272   0.479
14571W        W87639  34.625  35.612   3.241
14572W        W87640  21.065  20.180  11.973
14573W        W87641  24.410  35.929   2.094
14574W        W87642  24.640   4.812   4.431
14575W        W87643   4.404  41.362   1.997
14576W        W87644   3.959  19.239   2.887
14577W        W87645   1.797   2.415   2.630
14578W        W87646  22.263  17.845  10.799
14579W        W87647  29.956  42.741  10.943
14580W        W87648  38.420  27.405  12.514
14581W        W87649   5.747  19.074  13.764
14582W        W87650  30.453  35.924  14.242
14583W        W87651  44.017  34.421   1.722
14584W        W87652  24.196  19.534   3.255
14585W        W87653  24.683  25.421   1.897
14586W        W87654  27.913  34.587   0.860
14587W        W87655  33.484  42.971   2.217
14588W        W87656   3.956  43.527  13.604
14589W        W87657  28.192   1.144   1.648
14590W        W87658  10.366   9.808  10.686
14591W        W87659  30.049  28.180  14.500
14592W        W87660  23.605  26.550   3.808
14593W        W87661  16.626  39.877  13.908
14594W        W87662  13.116  42.855  13.536
14595W        W87663   0.570  39.982  11.531
14596W        W87664  29.987  24.975   3.582
14597W        W87665  25.143  19.841   1.852
14598W        W87666  32.963  44.939   0.590
14599W        W87667  38.530  16.302   0.210
14600W        W87668   4.659   7.240   0.720
14601W        W87669   7.005   0.045   0.011
14602W        W87670  26.433  23.541  11.218
14603W        W87671  44.852  10.126  14.442
14604W        W87672   2.886  28.685   3.838
14605W        W87673  24.623   2.719  13.325
14606W        W87674  32.028  43.045  10.690
14607W        W87675  14.545  15.988   1.777
14608W        W87676  32.038  13.850   4.119
14609W        W87677   3.760  34.374   4.753
14610W        W87678  14.143   5.277  12.233
14611W        W87679   6.122  19.832   1.683
14612W        W87680   6.841  16.026  12.753
14613W        W87681  21.055  15.633   4.518
14614W        W87682  25.398  27.946   1.629
14615W        W87683   8.263   3.378   0.279
14616W        W87684  24.872  15.168  13.449
14617W        W87685   8.029   7.041  14.747
14618W        W87686  21.822  13.658  14.825
14619W        W87687  39.331  35.471  11.053
14620W        W87688  23.710  18.154  12.019
14621W        W87689  15.850  18.260   1.812
14622W        W87690   6.834  19.998   4.058
14623W        W87691  35.559  27.452  11.574
14624W        W87692  26.545  21.908  14.490
14625W        W87693  40.348   8.091   0.752
14626W        W87694  25.844  34.120  14.339
14627W        W87695  12.705  16.318   5.831
14628W        W87696  31.137  43.818  14.754
14629W        W87697   4.270   1.030  13.444
14630W        W87698   6.302  21.302   4.013
14631W        W87699  14.241  15.780   3.241
14632W        W87700  33.397  15.309   2.834
14633W        W87701  32.197  26.554  12.503
14634W        W87702  35.629  32.969  14.055
14635W        W87703  22.543   5.174   2.174
14636W        W87704   6.747  20.481   1.350
14637W        W87705   8.749  10.523   5.093
14638W        W87706  39.082   5.259  13.497
14639W        W87707  22.392   8.165  14.069
14640W        W87708  12.265  42.783  14.894
14641W        W87709  37.045   2.310   3.755
14642W        W87710  10.331  36.859  13.969
14643W        W87711   6.504   2.636   4.148
14644W        W87712  36.363  34.450  12.565
14645W        W87713   6.131  28.050  12.755
14646W        W87714  18.073   1.472  14.406
14647W        W87715  38.554  24.081   0.530
14648W        W87716  13.818  12.291   2.225
14649W        W87717  40.417  36.197  11.855
14650W        W87718  25.452  32.987   3.142
14651W        W87719  39.593   1.511  14.388
14652W        W87720  21.552   2.220  11.631
14653W        W87721  27.163  22.148  14.871
14654W        W87722  12.878  36.672  13.300
14655W        W87723  27.037   2.849   2.396
14656W        W87724  11.208   1.743  12.512
14657W        W87725  43.997  22.389   3.738
14658W        W87726  36.167  12.102  11.672
14659W        W87727  40.051  28.643   4.437
14660W        W87728   1.345  38.760  11.138
14661W        W87729   1.483  22.463  14.649
14662W        W87730  39.266  43.473   3.835
14663W        W87731  10.260  36.343  14.042
14664W        W87732  16.547   6.112  14.279
14665W        W87733   0.443  38.433  13.275
14666W        W87734   1.710  33.349  11.123
14667W        W87735  28.977  22.922   3.281
14668W        W87736  14.618  25.625  12.905
14669W        W87737   7.216   0.489  10.909
14670W        W87738  30.918  19.714   1.324
14671W        W87739  29.979  40.883  12.871
14672W        W87740  43.903  22.256  11.614
14673W        W87741  24.690  26.025  13.036
14674W        W87742   7.313  10.764   0.704
14675W        W87743   6.186   4.691  14.516
14676W        W87744  14.770  15.286   0.375
14677W        W87745  30.483   3.631  11.971
14678W        W87746  33.895  20.776  14.229
14679W        W87747  39.351  29.155  13.549
14680W        W87748  34.201  12.309   1.553
14681W        W87749  39.630   3.418  11.083
14682W        W87750  28.945   9.323  12.640
14683W        W87751  19.550  40.900  14.555
14684W        W87752  29.636  28.424   0.398
14685W        W87753   9.953   7.787  11.180
14686W        W87754   2.157  36.927  11.444
14687W        W87755  38.949  32.197   3.728
14688W        W87756  32.397  31.641   2.176
14689W        W87757  29.325   2.744  14.506
14690W        W87758  33.388  42.533  14.826
14691W        W87759  18.535  18.650  10.091
14692W        W87760  26.760  20.731  12.872
14693W        W87761  42.094  29.574  10.940
14694W        W87762  28.129  18.489  13.539
14695W        W87763   7.146  22.165  10.732
14696W        W87764  11.219  11.612  11.086
14697W        W87765  38.899  37.676   3.117
14698W        W87766  42.272   2.675  12.480
14699W        W87767  21.133  13.642   0.837
14700W        W87768  27.532  17.547   0.318
14701W        W87769  32.113   8.595  12.085
14702W        W87770  17.276  14.299  13.245
14703W        W87771  11.179   9.429  13.049
14704W        W87772  39.763  30.405  13.796
14705W        W87773  16.320   2.644  12.150
14706W        W87774   8.213  15.099   1.708
14707W        W87775  30.059  17.277   0.343
14708W        W87776  30.973  35.426   1.618
14709W        W87777  17.795   2.281   2.989
14710W        W87778  33.865  30.016   0.744
14711W        W87779  34.641  38.703   4.526
14712W        W87780  41.012  29.554  14.473
14713W        W87781  25.101  18.191  13.667
14714W        W87782  22.773  24.448   1.182
14715W        W87783  10.410  32.099   0.430
14716W        W87784  23.694  42.455  14.830
14717W        W87785  40.114   3.110   0.886
14718W        W87786   3.049  44.596  14.120
14719W        W87787  24.478  36.854  13.035
14720W        W87788  31.404  17.223   4.244
14721W        W87789  26.998   5.181  13.464
14722W        W87790  14.636  39.132   0.697
14723W        W87791  13.285  40.403   3.194
14724W        W87792  25.268  17.887  14.045
14725W        W87793   0.702  16.738  14.528
14726W        W87794  22.963  43.746   0.719
14727W        W87795  25.238  24.509  14.424
14728W        W87796  16.705  44.725   2.785
14729W        W87797  40.370  39.090  12.462
14730W        W87798  20.990  32.423  13.865
14731W        W87799   8.144  34.368  11.037
14732W        W87800  38.267  22.869   3.314
14733W        W87801   7.694  18.649  14.260
14734W        W87802  19.755  38.571   1.748
14735W        W87803  28.719  30.052   2.163
14736W        W87804  44.006  44.326  13.883
14737W        W87805  28.104  38.539   4.677
14738W        W87806  14.177  11.167   3.680
14739W        W87807   2.755  21.899   1.925
14740W        W87808  15.651  44.395  14.485
14741W        W87809  25.015  28.133   1.346
14742W        W87810   9.448  15.729  11.943
14743W        W87811  30.026  38.794   0.471
14744W        W87812  22.970  20.682   2.918
14745W        W87813  14.927   4.455   1.828
14746W        W87814   5.867  31.257   3.709
14747W        W87815   7.590  26.684   3.148
14748W        W87816  35.445  10.008   0.347
14749W        W87817  12.233  10.840   1.704
14750W        W87818  22.571  37.838   1.472
14751W        W87819   3.864  44.763  10.495
14752W        W87820  24.455   4.232  10.964
14753W        W87821  38.494  19.069  13.310
14754W        W87822  10.086  17.810  10.603
14755W        W87823  14.625  33.419  12.986
14756W        W87824  22.946  23.266  11.645
14757W        W87825   6.132  33.508  12.138
14758W        W87826  25.123  36.989   3.733
14759W        W87827  39.794   3.869   3.303
14760W        W87828  19.821  38.165  13.616
14761W        W87829  37.862  31.093  12.461
14762W        W87830  24.709   5.208   2.868
14763W        W87831   4.365  40.924   4.672
14764W        W87832  36.801   1.186  11.089
14765W        W87833  19.828  19.548  12.382
14766W        W87834  40.003  22.613   3.273
14767W        W87835  24.924  23.097   3.652
14768W        W87836  27.453   0.448  14.269
14769W        W87837   9.711  24.590   0.268
14770W        W87838  40.046  19.486  12.488
14771W        W87839  20.443   3.449  13.995
14772W        W87840  37.102  37.321  11.593
14773W        W87841  24.646  21.294  12.075
14774W        W87842  10.851  26.991   0.288
14775W        W87843  29.663  16.986   1.815
14776W        W87844   5.137  12.328   4.361
14777W        W87845   6.928  27.376   3.575
14778W        W87846  18.007  29.818  10.716
14779W        W87847  18.511  26.992   2.257
14780W        W87848   6.952  16.272  13.188
14781W        W87849  27.036  44.081  14.445
14782W        W87850   2.769  14.685   4.111
14783W        W87851  11.905  19.625  13.345
14784W        W87852  42.439  38.835  11.542
14785W        W87853   5.425  36.473  11.659
14786W        W87854  20.465  13.776   3.321
14787W        W87855  15.938  31.814   2.739
14788W        W87856  29.231   7.691   4.475
14789W        W87857  10.469   0.499   1.877
14790W        W87858  24.423  33.021  10.634
14791W        W87859  18.118   9.565  11.599
14792W        W87860  24.556  31.544   0.411
14793W        W87861  34.460  25.715  13.421
14794W        W87862  37.465  38.991   2.670
14795W        W87863  17.194  33.012   9.880
14796W        W87864  28.374  37.970  10.714
14797W        W87865   3.806   9.107  11.011
14798W        W87866   3.223  19.465   2.863
14799W        W87867   2.852  12.033  14.637
14800W        W87868  35.399  32.815  11.629
14801W        W87869  30.927  42.047  14.050
14802W        W87870  44.617   3.478  14.372
14803W        W87871   0.941  24.620  12.937
14804W        W87872  18.163  38.588   1.191
14805W        W87873   9.181  42.347  13.016
14806W        W87874   9.971  21.538  13.513
14807W        W87875  37.498   6.968   1.346
14808W        W87876  41.826   8.429   0.891
14809W        W87877  33.877  16.721   3.146
14810W        W87878  20.790   3.093   1.341
14811W        W87879   4.963   0.476   0.958
14812W        W87880  34.515   2.801  13.550
14813W        W87881  27.648  16.146   4.411
14814W        W87882  39.791  36.600  13.568
14815W        W87883   0.007  12.595   2.381
14816W        W87884   7.937   2.698   3.392
14817W        W87885   7.846  12.203  14.966
14818W        W87886  42.038  24.521  13.330
14819W        W87887  11.306  20.540   2.303
14820W        W87888   3.759   2.368   1.237
14821W        W87889  33.977  24.442  12.616
14822W        W87890  11.766  16.633   2.845
14823W        W87891   2.030  17.764   3.573
14824W        W87892  36.969  12.345  10.571
14825W        W87893   5.839  17.802   3.808
14826W        W87894  17.683   8.661  11.455
14827W        W87895  18.244   7.388   1.866
14828W        W87896  42.562  10.789   0.825
14829W        W87897  32.174  15.858  11.183
14830W        W87898   1.014  30.898   0.411
14831W        W87899  21.563  44.068  14.865
14832W        W87900  35.617  32.592   2.014
14833W        W87901  24.532  10.057  12.846
14834W        W87902  24.318  37.795   0.812
14835W        W87903  12.710  16.127   4.291
14836W        W87904   6.456   9.983   3.113
14837W        W87905  23.701  12.812  10.442
14838W        W87906  42.492  14.712   4.842
14839W        W87907   9.861  12.158  13.891
14840W        W87908  13.839  41.847   1.300
14841W        W87909  29.758  14.757  14.501
14842W        W87910  42.843  44.499   0.446
14843W        W87911  21.370  23.380   2.692
14844W        W87912   2.743   1.763   1.320
14845W        W87913  32.832   8.771  10.473
14846W        W87914   5.354  44.009  14.891
14847W        W87915   3.200  18.738  11.189
14848W        W87916  41.099   0.211   4.592
14849W        W87917  38.960  24.130   1.888
14850W        W87918  36.130  21.617   3.165
14851W        W87919  33.497  15.043   2.407
14852W        W87920   5.711  36.848  14.026
14853W        W87921  24.414  11.271  11.085
14854W        W87922  19.132   6.810   0.879
14855W        W87923  42.045   7.640   1.762
14856W        W87924  40.779  36.859   4.227
14857W        W87925  24.853  18.030   2.850
14858W        W87926  39.996  19.579  11.606
14859W        W87927  13.140  37.551  10.786
14860W        W87928  31.530  40.848  13.850
14861W        W87929  28.731   4.408  14.409
14862W        W87930  26.420  39.965   2.820
14863W        W87931  11.654  43.247  14.254
14864W        W87932  24.667  15.150   1.387
14865W        W87933   5.639  26.527  10.655
14866W        W87934  11.956  44.228   2.243
14867W        W87935  34.485  17.321   1.007
14868W        W87936   8.197  11.258  13.103
14869W        W87937   0.256  34.111  10.687
14870W        W87938  36.398  15.915   0.943
14871W        W87939  26.620  24.250   0.669
14872W        W87940  43.836  15.301  12.529
14873W        W87941  22.648  27.618   0.391
14874W        W87942  30.886   0.961  12.584
14875W        W87943   4.978  32.334   0.983
14876W        W87944  25.102  13.435   0.206
14877W        W87945  18.094  10.177  12.530
14878W        W87946  39.959  32.498  11.040
14879W        W87947   9.536   9.734   3.131
14880W        W87948  26.122   0.845   2.413
14881W        W87949  12.169  35.069   4.131
14882W        W87950  41.946   1.223   3.727
14883W        W87951  14.596  11.713   4.106
14884W        W87952  26.094   6.852   4.414
14885W        W87953  22.149  30.444  11.468
14886W        W87954  19.146  22.716   0.916
14887W        W87955  35.619  42.153   4.638
14888W        W87956  37.489  22.736  11.473
14889W        W87957  27.073  28.246   0.711
14890W        W87958   4.656  25.649  13.700
14891W        W87959  37.030  11.365  10.447
14892W        W87960   8.090  39.064  14.788
14893W        W87961   3.887  23.883   4.274
14894W        W87962   2.074   9.701   0.404
14895W        W87963  42.986  29.076   0.808
14896W        W87964   8.731  25.103  12.664
14897W        W87965  14.113  18.373   0.854
14898W        W87966  40.673  12.432   1.200
14899W        W87967  42.772  23.140   3.704
14900W        W87968  27.919  22.831  11.872
14901W        W87969  23.185  38.896  13.520
14902W        W87970  34.493  16.004   2.357
14903W        W87971  40.141  29.989   4.103
14904W        W87972   0.384  14.667   4.382
14905W        W87973  38.692  34.063  11.051
14906W        W87974  41.442  19.312   2.890
14907W        W87975  23.028  16.088   2.456
14908W        W87976  44.959   9.038   2.707
14909W        W87977   9.750  31.802  14.282
14910W        W87978  24.464  43.231  13.440
14911W        W87979   3.713  39.578  12.591
14912W        W87980  29.741  27.206   4.342
14913W        W87981  21.064  37.522  13.520
14914W        W87982  38.133   1.713   2.757
14915W        W87983   7.612  21.255  11.472
14916W        W87984   8.516   5.021   2.726
14917W        W87985  29.106  17.771  11.680
14918W        W87986  26.667  18.187  11.456
14919W        W87987   4.340  21.050  12.573
14920W        W87988  40.812   8.200  10.150
14921W        W87989  28.894  18.579  12.032
14922W        W87990  28.892   9.739   1.057
14923W        W87991  41.343  41.291  14.871
14924W        W87992  32.839   4.405   4.567
14925W        W87993   8.373  22.201   4.699
14926W        W87994  40.236  19.848   3.873
14927W        W87995   4.890  36.059   3.049
14928W        W87996  26.226  19.372   1.689
14929W        W87997  34.876   1.958   0.305
14930W        W87998  23.259  12.388  12.520
14931W        W87999  37.152  39.598  11.692
14932W        W88000  22.462  27.719  14.910
14933W        W88001   2.290  14.128   4.648
14934W        W88002  14.180  25.272   1.668
14935W        W88003  24.681  30.450   2.728
14936W        W88004  41.996  14.289   1.353
14937W        W88005  28.508  23.148  11.737
14938W        W88006  19.226  25.064   2.315
14939W        W88007  25.153  44.821   1.882
14940W        W88008  36.727  38.898  11.256
14941W        W88009  17.680  27.977  13.938
14942W        W88010   3.987  29.462   3.215
14943W        W88011   9.716  29.682  11.949
14944W        W88012  18.089   9.171   1.756
14945W        W88013   5.412  14.396  10.788
14946W        W88014   4.158  19.346   1.262
14947W        W88015   4.493  32.120   1.767
14948W        W88016  21.609  24.219  11.671
14949W        W88017  13.385  40.891   2.917
14950W        W88018  39.557  16.067   0.829
14951W        W88019  30.724   7.143   3.735
14952W        W88020  38.903  12.344   0.897
14953W        W88021  16.142  21.111  14.420
14954W        W88022  16.156  28.107   3.821
14955W        W88023   5.521  32.103   0.804
14956W        W88024  36.105   7.919   3.211
14957W        W88025  43.037  31.671  12.899
14958W        W88026  42.476  32.594  10.921
14959W        W88027   5.712  29.908  12.867
14960W        W88028  31.424  10.886  14.052
14961W        W88029   6.219  13.609   1.442
14962W        W88030   6.838  41.383   3.371
14963W        W88031  18.947  20.517  10.643
14964W        W88032  40.384  16.546  12.488
14965W        W88033  21.090  44.794  14.535
14966W        W88034  28.133   7.841   3.340
14967W        W88035  39.832  11.060  13.072
14968W        W88036   1.713  18.539   2.369
14969W        W88037  43.853   5.232  10.538
14970W        W88038   4.417  37.067   4.672
14971W        W88039  12.707  30.701   3.351
14972W        W88040   5.882  11.819  13.491
14973W        W88041  34.269  14.214  10.397
14974W        W88042  27.104  19.214   4.631
14975W        W88043   3.681  38.599   4.088
14976W        W88044  27.688  42.038  14.775
14977W        W88045   6.422   6.953   2.718
14978W        W88046  24.916  24.487   0.993
14979W        W88047  41.392  30.209   1.866
14980W        W88048  24.267  41.015  11.468
14981W        W88049  12.862   5.478   2.910
14982W        W88050  37.893  33.143   4.600
14983W        W88051   3.493   8.631  14.398
14984W        W88052  16.851  26.699  11.718
14985W        W88053  25.537  12.318   4.303
14986W        W88054  31.600  25.555  14.420
14987W        W88055  38.844  39.012  13.265
14988W        W88056  22.688  29.196  11.120
14989W        W88057  44.375  28.383  10.697
14990W        W88058  27.729  25.003   0.918
14991W        W88059   0.203  31.896  14.767
14992W        W88060   7.161  26.141  14.346
14993W        W88061  12.029  15.228   0.243
14994W        W88062  19.538  37.559  11.159
14995W        W88063   6.717  42.021  13.870
14996W        W88064   3.364  11.253  13.153
14997W        W88065  34.646  11.387   0.535
14998W        W88066  24.431  38.274   0.453
14999W        W88067  38.945   9.764   1.001
15000W        W88068  18.132  28.081  13.451
15001W        W88069  20.026  11.243  13.933
15002W        W88070  26.242  39.608  14.836
15003W        W88071  19.572   2.273   3.300
15004W        W88072  32.863  43.279  12.114
15005W        W88073  27.747  12.169  12.477
15006W        W88074  35.375  18.617   4.242
15007W        W88075  38.148  25.973   1.215
15008W        W88076   4.841   5.985   1.373
15009W        W88077  38.512   9.608  12.978
15010W        W88078  19.306  14.504  11.120
15011W        W88079  37.278  27.178   3.404
15012W        W88080  19.822   3.678   3.155
15013W        W88081  12.662  36.868  12.318
15014W        W88082  25.021  10.076   4.678
15015W        W88083  44.279  40.886  11.446
15016W        W88084  36.818   9.985   2.405
15017W        W88085  29.549  13.075  14.924
15018W        W88086  36.058  33.851   3.679
15019W        W88087  23.205  42.929   3.196
15020W        W88088  35.502  21.790   4.358
15021W        W88089  43.727   3.651   3.815
15022W        W88090   3.849  10.550  12.953
15023W        W88091  35.258  32.062   2.204
15024W        W88092  40.631  10.149   4.515
15025W        W88093   9.401   4.291   1.229
15026W        W88094  10.658  16.637   5.524
15027W        W88095  10.040   9.425   1.569
15028W        W88096  34.650  14.111  14.668
15029W        W88097   7.976  39.806  12.470
15030W        W88098  34.966  15.718   3.555
15031W        W88099  18.623  37.474   4.989
15032W        W88100  28.133  10.911  11.103
15033W        W88101  44.862   7.746  12.159
15034W        W88102  42.323   8.675  11.685
15035W        W88103   7.750  39.335  12.520
15036W        W88104   4.928  19.504   1.424
15037W        W88105  32.578  18.102   4.181
15038W        W88106  33.409  31.955  12.117
15039W        W88107  23.071  22.537   3.767
15040W        W88108  22.238   2.722  12.147
15041W        W88109  35.207   3.409  11.235
15042W        W88110  41.485  43.404   3.632
15043W        W88111   0.392  18.610   2.907
15044W        W88112  29.660  36.837   2.066
15045W        W88113  20.038  14.142  11.705
15046W        W88114   0.211  29.246  11.005
15047W        W88115   3.924  40.025   4.179
15048W        W88116  38.943  25.609  12.505
15049W        W88117   9.832  36.618   3.993
15050W        W88118  16.226  22.126  12.634
15051W        W88119   9.985  40.727   1.442
15052W        W88120  15.225  20.649  13.718
15053W        W88121  28.226  16.066  11.353
15054W        W88122  32.575  42.971   1.899
15055W        W88123  41.750  32.618   1.709
15056W        W88124  11.867  24.971   0.256
15057W        W88125  16.698  17.103  12.820
15058W        W88126  29.598  22.018  12.443
15059W        W88127   1.868  43.348   4.165
15060W        W88128  10.946  20.167  11.842
15061W        W88129  11.081   6.893   3.103
15062W        W88130  32.624   2.243  14.489
15063W        W88131  33.895  42.407  12.003
15064W        W88132  31.627  40.433   3.699
15065W        W88133  42.264  20.195  11.514
15066W        W88134  17.125   9.806  12.637
15067W        W88135  29.490  35.655  12.790
15068W        W88136  24.955  34.922  14.995
15069W        W88137  16.609  31.187  14.507
15070W        W88138  14.872   7.625  12.919
15071W        W88139   7.199  29.131  12.449
15072W        W88140  42.536  16.544   2.987
15073W        W88141  28.447  12.115  12.058
15074W        W88142  16.151  37.406  11.550
15075W        W88143   4.455  20.657   4.389
15076W        W88144  37.967  13.272   3.943
15077W        W88145  22.758  15.978  12.923
15078W        W88146  39.794   7.104   0.391
15079W        W88147  20.748  22.819   0.732
15080W        W88148  32.152   3.282   3.997
15081W        W88149  36.789  40.913  13.042
15082W        W88150  27.627  12.665  13.776
15083W        W88151  11.537   8.731  13.345
15084W        W88152  44.569  34.390  12.544
15085W        W88153  29.703   6.492  11.113
15086W        W88154  32.606  40.381   1.523
15087W        W88155  18.118  43.130  10.879
15088W        W88156  25.648  16.183  14.629
15089W        W88157   5.314  13.510  13.103
15090W        W88158  37.872   9.422   4.003
15091W        W88159  36.355   0.408  10.959
15092W        W88160   2.762  36.615  11.868
15093W        W88161  23.016  22.922  13.942
15094W        W88162  12.116  28.041   4.739
15095W        W88163   4.141  29.142   0.015
15096W        W88164   2.928   4.720   3.716
15097W        W88165  30.400  19.445   2.181
15098W        W88166  23.492   7.081   1.255
15099W        W88167  32.404  43.810  13.915
15100W        W88168  36.134   7.866   4.069
15101W        W88169  38.986  30.309  12.469
15102W        W88170  21.135  12.033  14.908
15103W        W88171  23.531  17.998   1.322
15104W        W88172  32.558  10.754   4.358
15105W        W88173  36.668  18.682   3.746
15106W        W88174  29.527  29.082   0.493
15107W        W88175  13.093  11.441  10.675
15108W        W88176   9.706  30.922   1.276
15109W        W88177  35.424  21.607  12.886
15110W        W88178  44.989   9.068  14.345
15111W        W88179  26.472  21.517  12.527
15112W        W88180  32.321   6.661   0.074
15113W        W88181  33.398  28.553  14.403
15114W        W88182   2.403  44.874  12.016
15115W        W88183   2.999  43.493   2.190
15116W        W88184  19.771  33.397  14.663
15117W        W88185  33.173  32.982   0.795
15118W        W88186  33.489  42.435   2.136
15119W        W88187  25.663   4.826   2.355
15120W        W88188   7.158  38.099  14.866
15121W        W88189  19.232   4.235   4.862
15122W        W88190   5.669  31.003   4.658
15123W        W88191   7.779   5.871  11.131
15124W        W88192  18.272   2.462   4.648
15125W        W88193  25.638   2.464  13.962
15126W        W88194   5.823  12.874   3.170
15127W        W88195  29.899  17.825   3.684
15128W        W88196   6.155  27.855   4.529
15129W        W88197   0.678   1.383   1.131
15130W        W88198  29.267  42.370  14.800
15131W        W88199  16.856  20.136   4.078
15132W        W88200   6.425  22.225   1.209
15133W        W88201   7.733  16.322  12.528
15134W        W88202  35.458  23.267   3.222
15135W        W88203  24.799  21.091   2.626
15136W        W88204  33.533  32.580   3.187
15137W        W88205  43.384   9.425  12.441
15138W        W88206  42.748  31.301  13.576
15139W        W88207  22.537  30.962  12.947
15140W        W88208  44.402  15.377   3.163
15141W        W88209  39.285   3.720  11.349
15142W        W88210   5.894  41.829  12.802
15143W        W88211  22.334   6.653   1.175
15144W        W88212  40.034  32.576   2.166
15145W        W88213  38.830   9.315   2.881
15146W        W88214  18.143  29.004   0.883
15147W        W88215  15.114  24.867   2.356
15148W        W88216  36.869  11.259  12.930
15149W        W88217  12.292   6.612   0.811
15150W        W88218  42.998  39.434  14.304
15151W        W88219  21.694   2.347  12.972
15152W        W88220  33.823  32.565  13.035
15153W        W88221  27.862  31.000   4.844
15154W        W88222   5.939  18.541  10.669
15155W        W88223  16.219  15.292   2.467
15156W        W88224  16.257  29.611  13.843
15157W        W88225  30.556  23.484   4.389
15158W        W88226  25.649  37.152   0.558
15159W        W88227   4.717  25.473   3.000
15160W        W88228   7.964   6.846   4.854
15161W        W88229  23.204  41.799   3.244
15162W        W88230   6.398  10.092  12.427
15163W        W88231  19.608  21.322  13.534
15164W        W88232  39.133   4.767   3.194
15165W        W88233   7.188  27.306   4.811
15166W        W88234   6.192  43.225  12.614
15167W        W88235  19.045  24.481  11.656
15168W        W88236   1.374   5.232  11.016
15169W        W88237  19.577   4.286   0.820
15170W        W88238  18.473  18.659  11.590
15171W        W88239  40.271  39.556   2.751
15172W        W88240  44.766  43.460  10.743
15173W        W88241  14.274  17.575   3.100
15174W        W88242   3.130  31.005   4.416
15175W        W88243  40.936  25.089  13.364
15176W        W88244  26.443   4.144   0.958
15177W        W88245  20.965  38.595   3.236
15178W        W88246   8.567  39.804   3.703
15179W        W88247  25.247  25.064   4.993
15180W        W88248  28.016  39.144  13.742
15181W        W88249  15.101  21.024  13.393
15182W        W88250  13.446  40.553  11.384
15183W        W88251  40.534   4.974   5.046
15184W        W88252  36.639  24.720   0.929
15185W        W88253   4.791  25.591  13.192
15186W        W88254   9.209  17.378   3.149
15187W        W88255   1.426  18.044   2.393
15188W        W88256  37.616  27.243   3.779
15189W        W88257  27.457  10.157   4.547
15190W        W88258  19.288  43.911   1.970
15191W        W88259  15.516  24.694  11.874
15192W        W88260  39.292  22.033  10.533
15193W        W88261   0.666   2.644   2.130
15194W        W88262  11.608  26.550   4.493
15195W        W88263  38.111  15.563  13.386
15196W        W88264  22.580   0.570   2.711
15197W        W88265  15.596  32.971   1.842
15198W        W88266   7.770  14.232   4.642
15199W        W88267  20.818   0.850   2.199
15200W        W88268  39.442  32.611  11.337
15201W        W88269   0.387   8.031   1.282
15202W        W88270  16.799  34.577  13.120
15203W        W88271   7.655  37.056  13.571
15204W        W88272  31.124  31.193  13.000
15205W        W88273  33.217  42.241   3.371
15206W        W88274   5.025   1.049   2.913
15207W        W88275   1.426  37.525  14.237
15208W        W88276   7.805  27.075   3.624
15209W        W88277  24.546  29.480  12.988
15210W        W88278   4.463  36.204   4.217
15211W        W88279  31.282   1.445  11.903
15212W        W88280  34.595  30.670  10.607
15213W        W88281   0.637  22.242  12.493
15214W        W88282  12.574  36.113  13.856
15215W        W88283  40.545  19.899   4.690
15216W        W88284  14.667  35.157   2.295
15217W        W88285  37.046  15.381   1.498
15218W        W88286  43.929  10.418  11.999
15219W        W88287  21.441  43.063  11.474
15220W        W88288   0.447  32.976  11.398
15221W        W88289  38.573  20.537   3.857
15222W        W88290  12.594   6.120  10.987
15223W        W88291  44.740  43.828   4.674
15224W        W88292   6.313  30.150  10.642
15225W        W88293  37.996  27.142  11.498
15226W        W88294   8.205  26.160   2.785
15227W        W88295   9.844  23.650   1.284
15228W        W88296  38.579  29.924  13.995
15229W        W88297   5.955   5.791   0.431
15230W        W88298  18.059   3.432   1.182
15231W        W88299  13.653  30.445  12.461
15232W        W88300  11.793  37.830  13.540
15233W        W88301  38.950   0.355   1.735
15234W        W88302  44.876  20.206   2.679
15235W        W88303  18.001  12.300   0.490
15236W        W88304  11.166  18.319   1.781
15237W        W88305   7.399  33.428   3.616
15238W        W88306  16.110  40.064   1.766
15239W        W88307  37.802  37.558   4.603
15240W        W88308  23.923  22.859  11.652
15241W        W88309  16.660   5.614  14.276
15242W        W88310  25.522  28.746   1.982
15243W        W88311   6.383  33.418   4.036
15244W        W88312  11.303   8.937   3.679
15245W        W88313   0.938  32.215   3.730
15246W        W88314  15.761  38.081  14.825
15247W        W88315  11.258  30.617  12.465
15248W        W88316  14.531  40.131   2.239
15249W        W88317   8.713   3.342  10.235
15250W        W88318  26.613  23.779   1.503
15251W        W88319  13.061  29.289   0.266
15252W        W88320  27.007  10.675   3.224
15253W        W88321   0.858   4.777  12.023
15254W        W88322   1.131   9.882  12.067
15255W        W88323  20.192   5.826  12.924
15256W        W88324  41.006  39.141  13.514
15257W        W88325   0.783  18.156  14.917
15258W        W88326  40.064  11.290   0.280
15259W        W88327  25.025  26.891  13.543
15260W        W88328  13.140   3.906  13.517
15261W        W88329  29.476  22.756  12.926
15262W        W88330  20.561   8.433   0.335
15263W        W88331  21.145  19.020   2.297
15264W        W88332  33.769  13.182   1.367
15265W        W88333  29.195  33.375  12.166
15266W        W88334  19.043  43.290  14.350
15267W        W88335  12.171  29.388  14.305
15268W        W88336  11.374  11.284   3.252
15269W        W88337  40.395  33.156   3.766
15270W        W88338  43.066   5.533  14.490
15271W        W88339  44.000   6.229  10.661
15272W        W88340  18.725  21.118  11.939
15273W        W88341  35.882   0.258  12.600
15274W        W88342  17.124  23.314   1.961
15275W        W88343  22.100  26.485  14.957
15276W        W88344   9.585  32.892   2.263
15277W        W88345  21.107  33.213  14.875
15278W        W88346  37.963  25.124   2.869
15279W        W88347  14.319  25.197   0.655
15280W        W88348  27.113   0.828   4.595
15281W        W88349  25.419   6.748  13.643
15282W        W88350  22.160   5.956   1.890
15283W        W88351  30.051  24.246  13.338
15284W        W88352   6.963  38.554   4.443
15285W        W88353  39.049   7.664   0.304
15286W        W88354  11.810  23.514  11.932
15287W        W88355  22.792  36.407   3.244
15288W        W88356   2.206   4.501  11.150
15289W        W88357   0.771  44.975   1.821
15290W        W88358  15.603  40.272  13.481
15291W        W88359   3.207  36.401  12.844
15292W        W88360   6.871  40.086   1.414
15293W        W88361   3.468  19.442   5.030
15294W        W88362  11.829  36.334   1.346
15295W        W88363  27.819  24.933  11.153
15296W        W88364   1.432  25.424   0.787
15297W        W88365  15.940  12.432   1.760
15298W        W88366  29.565  42.034   3.302
15299W        W88367  36.150  21.225   2.362
15300W        W88368   1.048  41.779  13.114
15301W        W88369  15.738  34.586  11.554
15302W        W88370  44.311  34.157   2.909
15303W        W88371  20.010  19.690  13.594
15304W        W88372  26.808  12.408   3.779
15305W        W88373  23.163  31.573   1.641
15306W        W88374  23.061  29.648   2.139
15307W        W88375  14.268  36.211  14.926
15308W        W88376   8.887  29.038   1.040
15309W        W88377  42.332  41.749  10.980
15310W        W88378  34.034  32.980   0.235
15311W        W88379  40.936   6.402  11.609
15312W        W88380  12.267   1.768  10.400
15313W        W88381  28.001  40.216   0.068
15314W        W88382  41.490   8.516   0.477
15315W        W88383  40.062  21.309  12.004
15316W        W88384  12.412  16.703  11.089
15317W        W88385  44.341  31.692   1.342
15318W        W88386  28.073  44.356   4.573
15319W        W88387  29.602  31.522  11.618
15320W        W88388  33.053  23.075  14.448
15321W        W88389   0.296  42.633   2.494
15322W        W88390  35.143  40.456   1.337
15323W        W88391   5.417  17.279  11.388
15324W        W88392  23.488  40.354   1.732
15325W        W88393  43.171  36.125   0.495
15326W        W88394  14.243  12.562   2.338
15327W        W88395  19.195  39.599  11.550
15328W        W88396  42.975  36.162  13.380
15329W        W88397  11.784   9.714   4.659
15330W        W88398  18.790  31.166  10.526
15331W        W88399  35.939  35.560   3.667
15332W        W88400   5.974   7.795  13.904
15333W        W88401  30.039   8.891  12.016
15334W        W88402   4.174  28.974   3.339
15335W        W88403  34.655  23.725  13.385
15336W        W88404  25.375  40.751   2.754
15337W        W88405  43.532  36.903   4.717
15338W        W88406  25.286   9.355   2.768
15339W        W88407   9.568   2.847  14.442
15340W        W88408  37.643  19.021   1.315
15341W        W88409  29.902   7.514   0.029
15342W        W88410  16.083  14.162  11.547
15343W        W88411  20.718  23.520   2.119
15344W        W88412  20.100  35.677  12.599
15345W        W88413  39.139  23.852  12.004
15346W        W88414  44.424  32.484   4.932
15347W        W88415  34.867   2.845   3.189
15348W        W88416  32.969   3.967   3.600
15349W        W88417  27.595   0.233   0.744
15350W        W88418  27.113   3.936   1.895
15351W        W88419  29.516  14.990  14.067
15352W        W88420  27.921  23.642  14.713
15353W        W88421  30.646  12.463   3.187
15354W        W88422  38.858  20.104  13.868
15355W        W88423   9.273  15.319   3.880
15356W        W88424  29.700  26.693   2.842
15357W        W88425  33.590   6.205   4.932
15358W        W88426  20.663   0.105   0.149
15359W        W88427  40.005   9.292  10.566
15360W        W88428  38.533  17.777  13.389
15361W        W88429  27.960  27.577   3.670
15362W        W88430  17.784  10.912  12.097
15363W        W88431  38.975   0.843   0.486
15364W        W88432   8.927  26.652  14.460
15365W        W88433  30.431  20.644  14.037
15366W        W88434  10.681   5.711  11.443
15367W        W88435  35.800  17.487  12.044
15368W        W88436  28.990  23.187  10.728
15369W        W88437  31.930   7.663   4.129
15370W        W88438  12.082  17.501   5.080
15371W        W88439  37.353  19.778  14.010
15372W        W88440  40.877  44.778   1.383
15373W        W88441  34.839  16.462  11.036
15374W        W88442  22.245  28.755   0.422
15375W        W88443   3.215  37.251  14.775
15376W        W88444  40.016  28.550   3.411
15377W        W88445  34.568   5.320   3.602
15378W        W88446  43.503  34.463  11.665
15379W        W88447  37.089  16.875  11.132
15380W        W88448  37.355  35.592  12.076
15381W        W88449  19.175  35.850  14.416
15382W        W88450  36.835  13.648   4.167
15383W        W88451  42.338   7.703   1.328
15384W        W88452  27.518  30.034   3.814
15385W        W88453  23.600  16.706  14.613
15386W        W88454  28.255  13.128  13.785
15387W        W88455  41.601  29.571  10.834
15388W        W88456  40.105   3.495   4.158
15389W        W88457  22.591  10.283   3.687
15390W        W88458  40.120  26.495  14.754
15391W        W88459  37.111  39.800   3.732
15392W        W88460  30.175  23.529   3.137
15393W        W88461  32.542   0.794   4.812
15394W        W88462  29.070  29.536   4.718
15395W        W88463   3.462  34.497   2.957
15396W        W88464  34.366  18.630   2.663
15397W        W88465  27.460  16.019   3.896
15398W        W88466   9.346  41.307   2.755
15399W        W88467  11.840   1.270   2.677
15400W        W88468   4.640   2.454   1.200
15401W        W88469  36.486   5.008  12.006
15402W        W88470  13.366  14.317  12.595
15403W        W88471  35.018   1.017  14.810
15404W        W88472  20.643   1.242  11.380
15405W        W88473  26.956   5.570  11.556
15406W        W88474  32.724   5.766  14.850
15407W        W88475  12.229  37.606  14.877
15408W        W88476   0.789   6.309   1.183
15409W        W88477   4.875   9.811  14.874
15410W        W88478  38.085  20.898   1.356
15411W        W88479  14.318  44.987  12.297
15412W        W88480  35.990   3.510  11.540
15413W        W88481  37.157  29.986   2.873
15414W        W88482  40.814   6.211  14.025
15415W        W88483   7.772  22.963  11.915
15416W        W88484  38.326  33.609  12.521
15417W        W88485  39.909   2.343   3.350
15418W        W88486  13.071  39.355   0.931
15419W        W88487  17.074  25.236   1.309
15420W        W88488  35.600  38.407   2.174
15421W        W88489  22.657  39.452  11.736
15422W        W88490  16.089  34.172  14.595
15423W        W88491  31.364   0.052   2.616
15424W        W88492  30.463  42.109   3.105
15425W        W88493   5.282   6.918  10.917
15426W        W88494  19.998  25.500   4.240
15427W        W88495   5.268  26.981  13.253
15428W        W88496  29.423   2.794  13.562
15429W        W88497  17.181  26.756  13.831
15430W        W88498  38.436  18.216  11.514
15431W        W88499   1.705  18.029   4.458
15432W        W88500  17.241  32.686   4.591
15433W        W88501  41.408  17.359   1.002
15434W        W88502  15.143  17.011   2.262
15435W        W88503   9.239  26.946  14.134
15436W        W88504  36.915  20.590  11.973
15437W        W88505  33.235  18.048   4.889
15438W        W88506  19.035  25.592   0.330
15439W        W88507  24.936  29.984  13.865
15440W        W88508  25.719  10.136   3.763
15441W        W88509  38.527  20.097  12.498
15442W        W88510  25.648  10.854  11.219
15443W        W88511  20.627   6.729  10.637
15444W        W88512  16.075   7.492  11.536
15445W        W88513  44.983  36.801   2.858
15446W        W88514   2.502  33.982  14.612
15447W        W88515  23.190  25.195   0.221
15448W        W88516  15.694  23.521   4.139
15449W        W88517  32.776   4.846  11.859
15450W        W88518   6.247   5.164   3.695
15451W        W88519  20.085   9.819   0.034
15452W        W88520  36.418  21.201  13.572
15453W        W88521  38.962  43.565  11.085
15454W        W88522   1.774   8.824   2.813
15455W        W88523  14.147  18.252  13.267
15456W        W88524  12.574   0.998   4.642
15457W        W88525  44.200  26.648  12.899
15458W        W88526  12.636  39.271  13.918
15459W        W88527  35.503  30.697   2.289
15460W        W88528  36.443  14.357   3.246
15461W        W88529  43.039  22.577   3.761
15462W        W88530  39.083   0.789  11.979
15463W        W88531  10.660   6.349   4.769
15464W        W88532  12.276  10.984  14.684
15465W        W88533  13.832  26.466  10.785
15466W        W88534  32.455  21.231   4.295
15467W        W88535  17.298   2.429  13.041
15468W        W88536   0.667  27.432  12.899
15469W        W88537  39.015  11.170  12.652
15470W        W88538  32.376   9.821  12.440
15471W        W88539  36.220   2.717   1.277
15472W        W88540   4.723  20.524  11.888
15473W        W88541  27.123  28.092   2.418
15474W        W88542  30.119  43.334   4.234
15475W        W88543  31.018   5.161  11.931
15476W        W88544  37.529  22.188   0.356
15477W        W88545  42.883  26.669  14.364
15478W        W88546  37.595  34.886   2.708
15479W        W88547   4.636  34.265   4.181
15480W        W88548   1.831  23.678  11.096
15481W        W88549  29.718  19.853   0.693
15482W        W88550  19.361   8.632   1.820
15483W        W88551  23.123  39.127   2.867
15484W        W88552  26.678  10.751   1.643
15485W        W88553  35.520   4.969   1.288
15486W        W88554  29.128  18.024   2.590
15487W        W88555  34.663  20.343  13.926
15488W        W88556  37.751  11.817  11.984
15489W        W88557  44.806  27.603   2.448
15490W        W88558  22.812   8.931   4.084
15491W        W88559  22.656   8.656   2.828
15492W        W88560  42.604  27.682   0.862
15493W        W88561  39.933  24.981   2.893
15494W        W88562  30.391  39.460  13.558
15495W        W88563  35.555   3.953  12.087
15496W        W88564  24.421  19.813   4.086
15497W        W88565   1.706  33.403   0.239
15498W        W88566  40.599  32.105   1.847
15499W        W88567  39.083  42.450  12.087
15500W        W88568   5.273  11.443   0.244
15501W        W88569  35.684  34.639   3.719
15502W        W88570   0.181   7.224  13.330
15503W        W88571  23.005  20.275  12.436
15504W        W88572  36.798  22.529   3.399
15505W        W88573  23.284  18.238   5.246
15506W        W88574  20.236   7.412  11.898
15507W        W88575  17.763  11.645   2.807
15508W        W88576  10.741  33.466   1.271
15509W        W88577  13.508  24.455  11.021
15510W        W88578   2.310  20.487   1.871
15511W        W88579  28.481  29.701  12.513
15512W        W88580  39.784  34.794  13.032
15513W        W88581   1.375  23.834  14.659
15514W        W88582   0.641   4.889  12.950
15515W        W88583  32.913   8.722  11.596
15516W        W88584  39.516  23.489  14.461
15517W        W88585  41.235  37.970   3.179
15518W        W88586  41.959  40.013   2.209
15519W        W88587  10.247  31.381   1.847
15520W        W88588   8.929  13.583  11.129
15521W        W88589  26.490  43.530   4.700
15522W        W88590  37.538  26.492  11.919
15523W        W88591  44.231  44.417   1.279
15524W        W88592  10.094  13.869   3.803
15525W        W88593  13.796  25.774  13.333
15526W        W88594  35.162  22.655   2.219
15527W        W88595  27.678  42.767  11.499
15528W        W88596   7.949  11.897   3.204
15529W        W88597  13.152   5.203   3.686
15530W        W88598  13.244  35.878  13.343
15531W        W88599  43.412  42.491   2.386
15532W        W88600  39.599   3.995  12.399
15533W        W88601   6.029  33.838   9.848
15534W        W88602  42.248  25.054  11.659
15535W        W88603  36.835  35.899  13.731
15536W        W88604  32.480  27.153   4.283
15537W        W88605   1.502  40.390  11.907
15538W        W88606  14.745  38.010  12.487
15539W        W88607  33.258  29.113  12.368
15540W        W88608  15.670   4.783   3.554
15541W        W88609  35.008  27.563   3.823
15542W        W88610  32.920  39.741   0.956
15543W        W88611  16.374  29.945   4.172
15544W        W88612  17.164  31.829  10.366
15545W        W88613   1.396  13.247   2.407
15546W        W88614  28.852  22.573   4.147
15547W        W88615   8.529  43.526  10.755
15548W        W88616  22.588  44.509  12.668
15549W        W88617   0.443  13.639  14.930
15550W        W88618  15.867  38.070   4.313
15551W        W88619  20.453  19.359   0.759
15552W        W88620   7.386  33.478   4.137
15553W        W88621  36.483  21.455   2.807
15554W        W88622  29.754  27.439  12.851
15555W        W88623  25.654  39.839  13.925
15556W        W88624  16.748   4.248   0.316
15557W        W88625  24.656   8.248  13.998
15558W        W88626  14.555  12.603   4.174
15559W        W88627  39.516  37.581   3.620
15560W        W88628  27.165  44.336   3.383
15561W        W88629  11.804  32.890   1.565
15562W        W88630  25.414   1.896   2.766
15563W        W88631  17.268  13.199  11.927
15564W        W88632   6.976  21.333   4.463
15565W        W88633  42.371  36.995   2.742
15566W        W88634  16.771   2.279  10.631
15567W        W88635   1.431  13.999  13.923
15568W        W88636  22.548  21.612  13.049
15569W        W88637  44.464  17.680   1.218
15570W        W88638  41.958  28.718  10.891
15571W        W88639  28.940  36.914   2.946
15572W        W88640  21.816  37.557   0.465
15573W        W88641  28.499  11.681   2.011
15574W        W88642   8.124  31.153  13.864
15575W        W88643   6.002   3.603   3.866
15576W        W88644  21.253  11.740   0.793
15577W        W88645  21.544   5.900  10.904
15578W        W88646  32.585  39.924  14.155
15579W        W88647  30.538  18.499   0.238
15580W        W88648  29.860  44.082   2.662
15581W        W88649  39.440  28.546   2.281
15582W        W88650  22.496  32.232   2.781
15583W        W88651  31.614  13.828   0.495
15584W        W88652  41.106  28.587  13.423
15585W        W88653   9.126  16.904  11.064
15586W        W88654  35.079  28.969   2.590
15587W        W88655  35.391   0.325   2.412
15588W        W88656  41.847   5.237  10.659
15589W        W88657   9.598  29.465  13.963
15590W        W88658  34.867  39.866  11.648
15591W        W88659   8.620  44.250   2.348
15592W        W88660  40.270  15.860  10.517
15593W        W88661  26.540   3.381  12.109
15594W        W88662  26.592   0.938   0.164
15595W        W88663  37.106   2.597   2.698
15596W        W88664  19.563  19.739  14.839
15597W        W88665  15.797  24.560  14.381
15598W        W88666  30.576  36.965   0.359
15599W        W88667  31.528  23.532  10.401
15600W        W88668  14.366  24.749  13.280
15601W        W88669  33.942  18.010  13.239
15602W        W88670   9.854  20.000   4.899
15603W        W88671  22.329  31.723   1.282
15604W        W88672  24.221  10.629   4.104
15605W        W88673   0.414  19.855   3.748
15606W        W88674  37.920  24.651   0.519
15607W        W88675  22.373  44.224   1.478
15608W        W88676  36.638  27.412  12.265
15609W        W88677  23.930   7.623  14.098
15610W        W88678  37.783  40.822  12.963
15611W        W88679   5.528  27.306   0.832
15612W        W88680  31.667  34.978  14.797
15613W        W88681  28.964  42.503   4.315
15614W        W88682   7.878  30.206   9.877
15615W        W88683  22.490  27.456  10.813
15616W        W88684  21.568  29.593   4.704
15617W        W88685   5.976  27.482  12.877
15618W        W88686  14.104  37.765   4.808
15619W        W88687   9.329  22.241   1.928
15620W        W88688   8.164  34.975  14.377
15621W        W88689  25.991  32.258  11.948
15622W        W88690  24.689   0.540   4.164
15623W        W88691   5.945  23.038  14.274
15624W        W88692  30.593  18.137   0.924
15625W        W88693   4.731  29.848  12.936
15626W        W88694  10.727  43.774   2.626
15627W        W88695  30.321  42.943  14.620
15628W        W88696  36.392  33.921   9.569
15629W        W88697   2.516  33.843   3.107
15630W        W88698   3.509  33.446  13.262
15631W        W88699   1.848   8.446  13.809
15632W        W88700  44.697   6.695  12.452
15633W        W88701  31.409   4.856   1.383
15634W        W88702   1.973  20.340  13.576
15635W        W88703  40.506  41.397  10.189
15636W        W88704   3.375   0.265  11.069
15637W        W88705   6.269   0.784   1.363
15638W        W88706  16.620  13.807   3.549
15639W        W88707  38.074  30.013  13.992
15640W        W88708  19.146  34.829  13.378
15641W        W88709  42.658  16.618  11.964
15642W        W88710  35.045  33.520  14.467
15643W        W88711  25.017  38.330  14.121
15644W        W88712   5.472  25.143   2.180
15645W        W88713  20.497   7.954  13.055
15646W        W88714  14.996  36.987  12.061
15647W        W88715  20.472  42.762  12.549
15648W        W88716  30.572  31.566   3.925
15649W        W88717  31.053  41.896  14.989
15650W        W88718  18.721   1.782  13.396
15651W        W88719  20.228  11.911  10.443
15652W        W88720  10.968  11.718   0.431
15653W        W88721  27.484   2.040   3.148
15654W        W88722  21.246   9.658   3.643
15655W        W88723  29.596   7.144  10.536
15656W        W88724  44.652  19.649  12.393
15657W        W88725  41.059  12.312   0.826
15658W        W88726   2.388  39.302  13.495
15659W        W88727  42.620  33.791  12.857
15660W        W88728  13.807  11.747  12.753
15661W        W88729  31.454  25.052   2.408
15662W        W88730   8.651  23.486   2.463
15663W        W88731  35.533  44.356  13.379
15664W        W88732  15.194   4.099  14.270
15665W        W88733   9.328   8.718   0.727
15666W        W88734  38.988  33.589  14.748
15667W        W88735  36.984   8.663  11.865
15668W        W88736  42.453  31.691   2.170
15669W        W88737  26.843   4.195  13.358
15670W        W88738  19.808   9.863   2.284
15671W        W88739  12.439  42.952   1.823
15672W        W88740  10.282  20.034   3.646
15673W        W88741   3.407   8.678   1.411
15674W        W88742  44.506   9.740  14.377
15675W        W88743  28.442  43.482  10.646
15676W        W88744  15.341  17.383   0.420
15677W        W88745  17.584  27.939   3.417
15678W        W88746  38.169   8.948   4.692
15679W        W88747  16.172   3.452  14.460
15680W        W88748  10.725   6.124  11.090
15681W        W88749  28.514   5.830   4.701
15682W        W88750  43.028  37.623  11.474
15683W        W88751   1.344  26.888   4.603
15684W        W88752  12.082  33.970  14.193
15685W        W88753  11.373   9.198  13.479
15686W        W88754   3.768   9.003  14.783
15687W        W88755  38.219  31.393   4.484
15688W        W88756  15.928   5.765  13.236
15689W        W88757  39.829  15.739  14.212
15690W        W88758  16.253  18.576  11.001
15691W        W88759  17.207  33.769  14.825
15692W        W88760  15.889  29.061   4.107
15693W        W88761  11.737  40.486   2.296
15694W        W88762  41.345  10.186  12.923
15695W        W88763  23.623  38.980   2.292
15696W        W88764   9.644  36.422  12.907
15697W        W88765  19.976   2.902  10.650
15698W        W88766   7.279  34.618  12.457
15699W        W88767  17.353  15.668   1.875
15700W        W88768   1.027  15.278   1.226
15701W        W88769  14.383  20.102  12.438
15702W        W88770   9.767   2.743  12.280
15703W        W88771  42.967  19.732  13.016
15704W        W88772  34.330  41.434  14.555
15705W        W88773  37.261   8.239  11.950
15706W        W88774   0.257  11.169  12.550
15707W        W88775  42.105  15.729  11.426
15708W        W88776  21.497  22.751  10.331
15709W        W88777  35.883  19.133   0.814
15710W        W88778  25.418  33.094  10.721
15711W        W88779  36.807  13.577  13.324
15712W        W88780  11.609  29.752  12.642
15713W        W88781   8.741  32.545   1.321
15714W        W88782   3.800  16.323  11.814
15715W        W88783  28.755  35.161  13.859
15716W        W88784   6.229  23.059   0.648
15717W        W88785   4.444  21.940   2.230
15718W        W88786   2.232  40.724   2.908
15719W        W88787  28.912  19.690  12.493
15720W        W88788  25.261  18.072  13.189
15721W        W88789  39.854  14.903  11.896
15722W        W88790  40.408  13.127   4.338
15723W        W88791  18.960  39.858  11.053
15724W        W88792   0.357   8.327  10.582
15725W        W88793  23.224  13.167   2.799
15726W        W88794  35.545   7.685  12.459
15727W        W88795   6.372  22.726   5.103
15728W        W88796  20.914  38.750  14.848
15729W        W88797  22.358   2.810  13.480
15730W        W88798   7.911   0.779  10.747
15731W        W88799   4.752  28.923  14.485
15732W        W88800  31.962  29.825   5.121
15733W        W88801  19.592  38.918   2.355
15734W        W88802  43.580   6.628   0.463
15735W        W88803  10.313  22.689   4.213
15736W        W88804  42.751   8.588   3.314
15737W        W88805  20.217  30.841   4.547
15738W        W88806   2.180  14.068  12.886
15739W        W88807   2.986  30.663   1.639
15740W        W88808  44.476  19.311   2.732
15741W        W88809   9.242   3.813   2.717
15742W        W88810  19.753  11.126   4.216
15743W        W88811  29.923   9.648  11.496
15744W        W88812  13.545   5.897   1.208
15745W        W88813  31.456  25.722  13.014
15746W        W88814  17.530  11.387   0.310
15747W        W88815  26.176  25.052   0.030
15748W        W88816  17.683  35.614   1.733
15749W        W88817  40.415  28.094  13.391
15750W        W88818  20.583   1.449   3.717
15751W        W88819  24.123  18.215   1.053
15752W        W88820  39.763  42.765   1.781
15753W        W88821  20.929  19.345  14.947
15754W        W88822  20.600  43.591   3.603
15755W        W88823  38.885  38.826  12.695
15756W        W88824  25.654  44.415  12.086
15757W        W88825  27.499  26.653  10.642
15758W        W88826   0.629  35.961  11.873
15759W        W88827  44.228   8.709  11.113
15760W        W88828  38.853  35.664  11.134
15761W        W88829  40.734  23.028  13.498
15762W        W88830   7.810   2.764  11.670
15763W        W88831   4.782  37.915  10.709
15764W        W88832  38.055  27.104  10.619
15765W        W88833  39.184  15.665   5.144
15766W        W88834  32.274  17.005  14.818
15767W        W88835  22.153  44.720   2.288
15768W        W88836  30.026   7.774   1.421
15769W        W88837   4.999  21.999   1.246
15770W        W88838  39.793  14.793  13.229
15771W        W88839  34.773  19.906  11.454
15772W        W88840  36.370   7.812   2.323
15773W        W88841   2.304  13.732  10.699
15774W        W88842   8.907  18.308  14.052
15775W        W88843  11.117  25.059  14.783
15776W        W88844  25.438  15.136  12.668
15777W        W88845  18.670  37.557  13.943
15778W        W88846   0.928  33.905  13.372
15779W        W88847  10.529   2.349  11.400
15780W        W88848  40.464  38.937  11.988
15781W        W88849  32.667  16.579   1.953
15782W        W88850   8.387   2.410  11.705
15783W        W88851  32.567  23.540   0.868
15784W        W88852   9.711  13.573   3.601
15785W        W88853   8.813  25.958   1.818
15786W        W88854  33.517   8.884   2.653
15787W        W88855   0.636   5.164  11.656
15788W        W88856   6.620   1.734   1.863
15789W        W88857  40.545   2.842  12.052
15790W        W88858  12.154  20.745  12.952
15791W        W88859   8.383  37.978   0.940
15792W        W88860  15.220   8.011  13.379
15793W        W88861   6.810  17.324  12.873
15794W        W88862  31.045  27.547   2.595
15795W        W88863  33.345  22.557  12.345
15796W        W88864  20.930  34.580   1.410
15797W        W88865  30.774  32.922   2.789
15798W        W88866  10.980  10.385  12.646
15799W        W88867  38.405  37.869   3.175
15800W        W88868   0.855  18.348   4.099
15801W        W88869  44.690  30.141   4.087
15802W        W88870  22.501  31.954   2.310
15803W        W88871   9.357  35.160   2.912
15804W        W88872  41.943   0.038   0.282
15805W        W88873  22.500  15.539  12.755
15806W        W88874  43.350  26.947  14.389
15807W        W88875  14.333  39.323   1.613
15808W        W88876  20.175  17.196  10.296
15809W        W88877   2.619  17.620  10.525
15810W        W88878   2.437  26.072  13.940
15811W        W88879  40.347  41.746   2.360
15812W        W88880  23.676   6.090  13.994
15813W        W88881  29.012  16.146  11.568
15814W        W88882   7.590  37.264   3.974
15815W        W88883   2.787  32.177  10.314
15816W        W88884  32.065  32.152   2.721
15817W        W88885  29.064  29.502   1.001
15818W        W88886  19.039   7.712   0.904
15819W        W88887  12.097  41.293   0.960
15820W        W88888  17.549  24.601   2.222
15821W        W88889  29.996  19.296   1.731
15822W        W88890   1.778  33.649  13.463
15823W        W88891  34.620   9.285  12.410
15824W        W88892  34.057  44.989   2.721
15825W        W88893  12.171  41.269  14.909
15826W        W88894  12.735  37.766   2.675
15827W        W88895  14.197  28.507   2.253
15828W        W88896  16.049   2.458   0.025
15829W        W88897   5.569  37.517  14.514
15830W        W88898  40.720  10.213   1.145
15831W        W88899  36.530  10.362   3.885
15832W        W88900  17.756  10.005  13.377
15833W        W88901  32.157  24.088  14.862
15834W        W88902  41.345  43.920  11.120
15835W        W88903  24.382   7.894   1.791
15836W        W88904  21.525   5.847  11.451
15837W        W88905   4.706  14.366   4.468
15838W        W88906  35.924  13.666   4.533
15839W        W88907   3.376  29.756   5.010
15840W        W88908  40.175  19.069   4.519
15841W        W88909   4.387  30.852   2.298
15842W        W88910   7.550   0.883   1.229
15843W        W88911   8.972  30.462  12.881
15844W        W88912   7.244  27.286  14.830
15845W        W88913  41.468  22.500  11.955
15846W        W88914  36.780  21.099  12.576
15847W        W88915  43.747   9.903   2.642
15848W        W88916  36.327  31.261   1.637
15849W        W88917  39.402  31.327  14.420
15850W        W88918  11.655  40.072  11.255
15851W        W88919   0.755   0.912   0.898
15852W        W88920  35.958  11.618  12.991
15853W        W88921  35.032  29.377   2.928
15854W        W88922  15.705  34.856  13.888
15855W        W88923  30.181   0.854  12.822
15856W        W88924  18.617  33.944  14.810
15857W        W88925  38.449  13.174   2.606
15858W        W88926  15.626   4.219  14.546
15859W        W88927   7.227  11.194  10.620
15860W        W88928  30.315   0.287  10.658
15861W        W88929  18.321  36.568  12.100
15862W        W88930   0.432  44.918  14.837
15863W        W88931  27.541  32.876   3.879
15864W        W88932  37.005  15.704   4.611
15865W        W88933  35.487  26.628  13.328
15866W        W88934  15.290  24.639   1.489
15867W        W88935   6.114  23.113   4.234
15868W        W88936  33.993  20.323   0.421
15869W        W88937   9.158  42.763  14.451
15870W        W88938  14.467  18.970  11.686
15871W        W88939   4.432   6.765   4.943
15872W        W88940  43.958  43.931   1.167
15873W        W88941   5.629   4.154   0.453
15874W        W88942  19.960  10.918  14.484
15875W        W88943   2.228  15.438   1.228
15876W        W88944  36.373  38.670   1.722
15877W        W88945   8.449  13.857  12.007
15878W        W88946  19.566   1.801  14.012
15879W        W88947  26.566  22.170  14.000
15880W        W88948  11.420  20.341   4.079
15881W        W88949  34.548  32.073  13.069
15882W        W88950  21.214  36.298  12.043
15883W        W88951  20.808   5.873   2.008
15884W        W88952   8.665  36.618   1.081
15885W        W88953   3.012  29.643   3.453
15886W        W88954  13.111  17.305  14.923
15887W        W88955  26.043  38.439  14.116
15888W        W88956  20.483  14.274  12.612
15889W        W88957   6.396  24.235  13.569
15890W        W88958  23.188  44.408   0.355
15891W        W88959  13.916  44.661   1.352
15892W        W88960  38.742  42.969   1.894
15893W        W88961  32.848   6.661   3.040
15894W        W88962  18.508  19.100  13.638
15895W        W88963  43.265  17.598   4.171
15896W        W88964  12.073  16.788   0.743
15897W        W88965   5.307  10.483   1.980
15898W        W88966  41.560   9.822   1.368
15899W        W88967   2.212  27.611  12.988
15900W        W88968   9.605  31.041   3.197
15901W        W88969  40.051   1.530  10.263
15902W        W88970  44.439   5.128   0.802
15903W        W88971  28.123  25.133   4.586
15904W        W88972  32.814  18.702  14.468
15905W        W88973  38.118   5.891  11.128
15906W        W88974   3.776  16.649  14.286
15907W        W88975  29.598  11.176   1.323
15908W        W88976  39.432  37.623  12.393
15909W        W88977  43.052  33.033  11.012
15910W        W88978  21.162   5.672  12.035
15911W        W88979  15.595   3.757  14.768
15912W        W88980  39.803  28.338  11.162
15913W        W88981   0.836  14.907   1.562
15914W        W88982  41.465  37.280  12.064
15915W        W88983  43.261  10.454  12.414
15916W        W88984  44.503  10.740   2.426
15917W        W88985  44.953  23.300  12.028
15918W        W88986  36.936  21.039   1.264
15919W        W88987  37.424   4.708  10.528
15920W        W88988  44.735  17.521   0.824
15921W        W88989   4.513   6.625  12.869
15922W        W88990  41.032  33.052  10.597
15923W        W88991  24.446   9.198   4.229
15924W        W88992  24.719  26.499  12.787
15925W        W88993  13.333   1.555   1.574
15926W        W88994  40.040  31.463  11.583
15927W        W88995  13.582  32.563   0.749
15928W        W88996  19.147   3.112  12.987
15929W        W88997  33.613   4.144  12.040
15930W        W88998  33.974  14.585  12.011
15931W        W88999  26.077  23.650  11.601
15932W        W89000  14.955  23.052  13.330
15933W        W89001  12.805  30.440  12.458
15934W        W89002  44.425  11.631  12.032
15935W        W89003  43.877  40.532   2.748
15936W        W89004  18.639  15.131   1.009
15937W        W89005  33.530  27.537  12.364
15938W        W89006  33.522  32.383   3.666
15939W        W89007  43.447  43.898   1.946
15940W        W89008  35.059  14.463   9.964
15941W        W89009  10.383  24.047  13.735
15942W        W89010  22.675  33.583  13.032
15943W        W89011  36.872  21.086  12.063
15944W        W89012  26.103  27.976  11.621
15945W        W89013  41.494  15.586   1.410
15946W        W89014   4.990  21.457  14.645
15947W        W89015  26.644  21.497   0.949
15948W        W89016  22.077  27.828   3.784
15949W        W89017  37.477   7.677   4.612
15950W        W89018  42.433   4.889   4.649
15951W        W89019  11.358  43.231  11.606
15952W        W89020  30.939  22.475   1.824
15953W        W89021   8.499  27.467   0.431
15954W        W89022  26.091  14.411   5.048
15955W        W89023  44.489  15.755  14.274
15956W        W89024  39.307   8.265   2.488
15957W        W89025   1.751   0.301   3.300
15958W        W89026  10.813  38.564  14.418
15959W        W89027  20.684   3.805  11.106
15960W        W89028  36.947   3.951   1.320
15961W        W89029   6.063  42.855   5.141
15962W        W89030  33.428  29.991  13.259
15963W        W89031  18.724  43.584   0.220
15964W        W89032  28.035  19.163   3.191
15965W        W89033   4.012  29.275   0.511
15966W        W89034  30.584   6.399  13.554
15967W        W89035  18.258  33.677  13.613
15968W        W89036   1.938  44.844   1.377
15969W        W89037  34.216  23.378  14.283
15970W        W89038   9.490   5.012  12.128
15971W        W89039  25.543   7.921   0.282
15972W        W89040  43.868  38.878   2.117
15973W        W89041  42.979  22.787  11.143
15974W        W89042  17.500  24.187   3.142
15975W        W89043  22.258   2.346   1.913
15976W        W89044  42.144  40.410  13.933
15977W        W89045  44.400  12.691  13.011
15978W        W89046  37.520   6.882  11.168
15979W        W89047  22.423  23.898  13.401
15980W        W89048   4.942  26.033  13.427
15981W        W89049  23.299  37.317  13.540
15982W        W89050   6.603  19.023   1.397
15983W        W89051   6.767  32.396   0.982
15984W        W89052   1.041  17.820   3.367
15985W        W89053  23.134   7.053   1.750
15986W        W89054  27.213   6.968   1.362
15987W        W89055  43.883  34.016   1.359
15988W        W89056  27.659  39.296   0.059
15989W        W89057  38.847  30.841  12.354
15990W        W89058  30.921  27.495   3.081
15991W        W89059  15.004  20.864  12.879
15992W        W89060  31.423  31.951  13.941
15993W        W89061   4.694  22.653   4.637
15994W        W89062   4.831  16.338   3.109
15995W        W89063  28.191  18.297  10.851
15996W        W89064  33.281  27.207  11.098
15997W        W89065  38.832   1.526   2.225
15998W        W89066  39.428  22.249  13.999
15999W        W89067  10.633  27.151   1.380
16000W        W89068  28.527  30.286   1.638
16001W        W89069  40.483  17.483   5.007
16002W        W89070  35.973   1.006  11.375
16003W        W89071  21.701   5.748  12.965
16004W        W89072  42.775  37.128  10.372
16005W        W89073  11.229   1.763  11.622
16006W        W89074   8.751  15.104   1.716
16007W        W89075  21.718  21.758   2.809
16008W        W89076  23.515   2.451   2.380
16009W        W89077  11.854   4.417   4.902
16010W        W89078  35.065  10.374  10.569
16011W        W89079   8.671  28.133  14.365
16012W        W89080  37.108  32.334  12.420
16013W        W89081  36.713  39.824  11.967
16014W        W89082   4.367  15.110  10.572
16015W        W89083  10.449  21.671   2.734
16016W        W89084  40.016  36.346  11.571
16017W        W89085  15.723  34.430  10.704
16018W        W89086  36.623   4.972  11.187
16019W        W89087  19.100  12.485   3.194
16020W        W89088  40.091  22.007   4.558
16021W        W89089  35.564   5.880  14.853
16022W        W89090   7.694  30.439  14.392
16023W        W89091   9.036   5.204  12.443
16024W        W89092   3.930   4.218   2.634
16025W        W89093  36.418  26.134   3.178
16026W        W89094  13.613   7.720   3.417
16027W        W89095  24.163  40.102  13.898
16028W        W89096   5.298  10.162   4.142
16029W        W89097  25.763   1.363  13.858
16030W        W89098   6.251   0.407   4.324
16031W        W89099  42.010  31.621  10.522
16032W        W89100   8.716  18.610  12.080
16033W        W89101   9.782  12.482  11.028
16034W        W89102   9.162  26.134   4.503
16035W        W89103   5.609  18.666   2.313
16036W        W89104   1.302  18.518   1.313
16037W        W89105  33.085  31.352  13.042
16038W        W89106  37.840  25.948   0.792
16039W        W89107  16.011   5.210  11.947
16040W        W89108   5.480  15.329   2.794
16041W        W89109  43.692  37.374   0.702
16042W        W89110  34.565   3.440   3.719
16043W        W89111  29.645  40.039   2.641
16044W        W89112   6.418  38.867   4.095
16045W        W89113  42.993   9.658  14.314
16046W        W89114   4.800  21.965   0.081
16047W        W89115  32.828  44.578   0.940
16048W        W89116  27.442  39.942  11.504
16049W        W89117   4.782   8.774  14.891
16050W        W89118  17.146  20.633  14.978
16051W        W89119  30.091  41.583   3.809
16052W        W89120  29.003  28.512  13.442
16053W        W89121  33.489  43.860  14.754
16054W        W89122   4.730  19.089  11.522
16055W        W89123  41.778  12.289  10.706
16056W        W89124  10.971  28.967   1.369
16057W        W89125  19.186   6.914  11.129
16058W        W89126  14.667  13.784  12.117
16059W        W89127   8.941   7.252  12.220
16060W        W89128  10.713   0.552   2.360
16061W        W89129  42.892  42.884   0.776
16062W        W89130  44.888   4.666   3.185
16063W        W89131  22.993  34.077  11.036
16064W        W89132   2.822  15.071  13.890
16065W        W89133   8.792  24.775  13.525
16066W        W89134   3.904  10.307   3.775
16067W        W89135  21.506  19.021   2.785
16068W        W89136  31.088  21.421   4.203
16069W        W89137  18.729  41.301  10.216
16070W        W89138  27.016  23.715   1.195
16071W        W89139  14.565  42.561   2.667
16072W        W89140  16.730  34.125   2.571
16073W        W89141  32.919  25.337  11.625
16074W        W89142  20.662  17.138  13.343
16075W        W89143  38.429  34.104   2.156
16076W        W89144  40.932  22.755   2.349
16077W        W89145  29.661  30.401   3.730
16078W        W89146  20.107  17.885   0.398
16079W        W89147  20.731  42.238   1.920
16080W        W89148  29.190  13.243  10.732
16081W        W89149  42.030   3.274   3.376
16082W        W89150  26.696  36.082  11.580
16083W        W89151  41.416  27.048   2.170
16084W        W89152  31.679  16.168  14.894
16085W        W89153   1.888  39.629   0.444
16086W        W89154  17.433  12.124  12.858
16087W        W89155  28.216   1.640   1.846
16088W        W89156  43.747  38.441  11.584
16089W        W89157   2.084   1.334  11.950
16090W        W89158   0.523  37.389   0.489
16091W        W89159  38.756  43.810  11.480
16092W        W89160  41.347  18.567   3.308
16093W        W89161   3.486  42.543  13.447
16094W        W89162   7.176  27.916   1.278
16095W        W89163  40.506  10.374  13.478
16096W        W89164  13.940  33.565  12.402
16097W        W89165  15.502   6.801  13.783
16098W        W89166  10.870  31.379   1.369
16099W        W89167  26.023  25.224  13.393
16100W        W89168  24.436  22.155  14.806
16101W        W89169  21.178   8.965   0.009
16102W        W89170   0.917  26.038  12.120
16103W        W89171  31.017  13.349   3.395
16104W        W89172  20.627  27.616   5.088
16105W        W89173   2.190  32.954   2.858
16106W        W89174   0.241   8.876   0.956
16107W        W89175  13.493  26.420   1.807
16108W        W89176  23.931  34.027  11.183
16109W        W89177  28.846  44.227  11.035
16110W        W89178  37.365  31.440  11.315
16111W        W89179  22.698  31.396   1.427
16112W        W89180   9.376  41.080  13.782
16113W        W89181  30.014   7.300   1.608
16114W        W89182  21.705  27.524  10.334
16115W        W89183  13.355  37.425  13.940
16116W        W89184  34.994  25.525   1.332
16117W        W89185   8.377  20.010   1.812
16118W        W89186  38.514   8.257  14.235
16119W        W89187  35.545  23.499   0.484
16120W        W89188   4.141  34.076  11.224
16121W        W89189  25.128   3.478   3.239
16122W        W89190  28.518   3.933  10.602
16123W        W89191  31.549  42.199   3.799
16124W        W89192  38.513  27.023   0.503
16125W        W89193  23.631  31.077  10.385
16126W        W89194  36.308  18.808  11.898
16127W        W89195  39.854  35.155   0.890
16128W        W89196  31.099  39.471   3.778
16129W        W89197  22.706  26.310  13.908
16130W        W89198  37.756  42.921   0.752
16131W        W89199   6.913  24.164   0.912
16132W        W89200  25.450  29.903  11.160
16133W        W89201  13.653  40.751   0.525
16134W        W89202   0.719  23.592  13.442
16135W        W89203  27.066  20.664   0.179
16136W        W89204   5.000   3.467   2.337
16137W        W89205   3.891  15.900   3.329
16138W        W89206  17.477  43.855  13.920
16139W        W89207  10.241   0.766  13.474
16140W        W89208  18.603  20.948  13.227
16141W        W89209   2.876  28.171   3.742
16142W        W89210  18.352   0.707  14.807
16143W        W89211  12.404  28.040  13.333
16144W        W89212  15.338  32.588  14.933
16145W        W89213  27.439   2.496   2.323
16146W        W89214  42.396  32.726   1.284
16147W        W89215  29.366  19.217  11.647
16148W        W89216  13.125  16.306   2.619
16149W        W89217  34.705  38.877   3.761
16150W        W89218  42.810  24.100   2.216
16151W        W89219  20.792  31.706   3.662
16152W        W89220   4.140  34.197   3.870
16153W        W89221  29.976  16.845   0.002
16154W        W89222  29.543  37.044   0.052
16155W        W89223  33.974  27.589  14.790
16156W        W89224  38.018   1.488  11.611
16157W        W89225   8.874  30.490  11.017
16158W        W89226  31.860  39.401  13.441
16159W        W89227   5.166  40.483   4.624
16160W        W89228  10.752   0.074   3.252
16161W        W89229  32.041  34.642   1.364
16162W        W89230  16.790  17.205   0.353
16163W        W89231  12.194   1.990  10.878
16164W        W89232  23.073  21.658   1.483
16165W        W89233  29.439  26.812   4.171
16166W        W89234  42.019   9.586   1.437
16167W        W89235   2.347   2.236  12.519
16168W        W89236  30.090  32.586  14.402
16169W        W89237  17.204  43.052   5.109
16170W        W89238  14.824  22.625  14.474
16171W        W89239  44.697  10.216  12.604
16172W        W89240   0.011  31.953   4.529
16173W        W89241   5.695  30.417   2.794
16174W        W89242  28.648  44.800  14.515
16175W        W89243  33.853  33.138  10.987
16176W        W89244  35.463  21.808   1.155
16177W        W89245  24.491  24.570  14.061
16178W        W89246   5.597  10.849   1.778
16179W        W89247  18.183  13.321   2.913
16180W        W89248   6.318  43.357   0.927
16181W        W89249  38.972   1.804  13.112
16182W        W89250  38.882   1.200   0.870
16183W        W89251   6.688  40.811   4.610
16184W        W89252  27.322   6.021  13.451
16185W        W89253  35.498   3.775  13.931
16186W        W89254   9.676   3.520  11.121
16187W        W89255  28.139  17.761   4.141
16188W        W89256  18.116  23.020  10.622
16189W        W89257  26.692  34.486   4.229
16190W        W89258   3.017  25.664   3.867
16191W        W89259   3.446  26.725   2.337
16192W        W89260  19.058   4.404  13.534
16193W        W89261  41.769   7.807  11.594
16194W        W89262  38.326  26.616   3.808
16195W        W89263   3.276  35.618  11.403
16196W        W89264  29.324  11.740   4.064
16197W        W89265  34.380  39.361   1.911
16198W        W89266  18.134  38.955   3.988
16199W        W89267  10.372  17.918   4.632
16200W        W89268   7.932  31.932   0.419
16201W        W89269   7.886  25.919   1.806
16202W        W89270  42.040  11.140   0.390
16203W        W89271  25.568  27.648   0.287
16204W        W89272  38.080   7.946  12.133
16205W        W89273  40.476  14.631  10.389
16206W        W89274   1.883  26.852  14.258
16207W        W89275   7.221   1.081  11.726
16208W        W89276  38.070  29.187  11.591
16209W        W89277  17.318  28.512  11.624
16210W        W89278  21.477  11.136  11.317
16211W        W89279   9.415  39.494   3.272
16212W        W89280  28.969  37.364   3.255
16213W        W89281  13.607  16.630   0.382
16214W        W89282  30.037  25.392  14.803
16215W        W89283  20.794  14.660  14.286
16216W        W89284  16.759  41.273   0.382
16217W        W89285  25.176  10.583  12.535
16218W        W89286  17.862   1.990  12.909
16219W        W89287  23.497  17.800   2.247
16220W        W89288  16.501   3.349   0.436
16221W        W89289  27.630  31.167  12.810
16222W        W89290   5.557  40.883  11.745
16223W        W89291  32.062   3.238   3.101
16224W        W89292  41.849  43.044   3.294
16225W        W89293  16.111  20.989  13.450
16226W        W89294  44.822   9.141  10.368
16227W        W89295  35.162  16.186   3.174
16228W        W89296  44.276  38.046  14.703
16229W        W89297   5.017  35.424  14.461
16230W        W89298  35.104   6.883   0.084
16231W        W89299  11.136   4.938   0.708
16232W        W89300  37.371  11.767   2.744
16233W        W89301  23.137  13.183  13.298
16234W        W89302  10.708  37.897   4.819
16235W        W89303  39.633   2.784   0.070
16236W        W89304   6.212  19.036   1.855
16237W        W89305  29.641   3.873  13.336
16238W        W89306  28.304   9.418   3.406
16239W        W89307  24.948  28.632   2.260
16240W        W89308  11.865  41.361   1.832
16241W        W89309  28.919  44.762   4.606
16242W        W89310  34.494  39.428  10.745
16243W        W89311  43.125  29.497   1.093
16244W        W89312  27.661   0.994   4.290
16245W        W89313  29.411  25.714   2.350
16246W        W89314  43.436  27.474   1.276
16247W        W89315  15.500  25.153   1.452
16248W        W89316  16.979   3.706   3.641
16249W        W89317  10.296   9.712  11.627
16250W        W89318  30.717  28.492  10.680
16251W        W89319  32.056  16.728  11.972
16252W        W89320  22.245   6.790   3.770
16253W        W89321   7.229  19.631  12.937
16254W        W89322  29.614  36.893  13.565
16255W        W89323  22.630  17.178   5.035
16256W        W89324  43.173  37.142   3.660
16257W        W89325  30.915  32.465  11.575
16258W        W89326   2.039  43.814   2.182
16259W        W89327  30.631  13.519  11.129
16260W        W89328  39.684  30.606  11.189
16261W        W89329  15.342   6.220  12.896
16262W        W89330  21.256   7.545  11.996
16263W        W89331  15.646  18.612  11.681
16264W        W89332  18.367   7.925  12.496
16265W        W89333  18.460  31.413  14.985
16266W        W89334   4.415  28.101   0.877
16267W        W89335  28.201   1.044  13.577
16268W        W89336  39.379  28.332   4.715
16269W        W89337  28.752   6.902  11.197
16270W        W89338  20.858   1.193   1.474
16271W        W89339  30.584  15.707   3.436
16272W        W89340   5.954  41.695   3.231
16273W        W89341  26.847  30.610   1.099
16274W        W89342   4.350  38.802   0.514
16275W        W89343  22.627  15.765   4.705
16276W        W89344  22.577   8.427  11.900
16277W        W89345  43.910  25.084  13.519
16278W        W89346  11.073   3.996  13.860
16279W        W89347  10.587  13.628   3.812
16280W        W89348  31.433  24.719   2.802
16281W        W89349  11.532   7.663  12.942
16282W        W89350   0.700  17.244   2.776
16283W        W89351  40.936  44.058  12.903
16284W        W89352  20.240  35.685  13.472
16285W        W89353  16.819   2.464   3.290
16286W        W89354  14.801   6.145  11.548
16287W        W89355  39.167  20.988   2.742
16288W        W89356  16.096  14.711  12.902
16289W        W89357  20.638  41.756  11.623
16290W        W89358  25.947  17.378   1.667
16291W        W89359  44.440  25.209   3.796
16292W        W89360   5.460  38.477  13.479
16293W        W89361  11.230  25.625   0.810
16294W        W89362  22.004   5.234   4.587
16295W        W89363  10.625  34.618  13.466
16296W        W89364  44.444  24.956  14.505
16297W        W89365  19.672  15.572   2.400
16298W        W89366  39.539   6.207  13.459
16299W        W89367  19.301   1.773   4.339
16300W        W89368  21.694  37.619  14.950
16301W        W89369  39.426  18.165  11.446
16302W        W89370  22.850   1.866  14.468
16303W        W89371  35.291  12.846  13.840
16304W        W89372  23.197  12.753   3.148
16305W        W89373   8.772  38.491  13.346
16306W        W89374  34.468  13.470   0.237
16307W        W89375  36.841  42.822  11.621
16308W        W89376   4.276  40.468   4.910
16309W        W89377   2.891  36.899  14.962
16310W        W89378  18.878   8.406  13.618
16311W        W89379  39.466  24.863   2.701
16312W        W89380  44.464  19.751  14.586
16313W        W89381   0.985  11.957  10.847
16314W        W89382   5.413  14.544  13.035
16315W        W89383  37.531   5.668   0.829
16316W        W89384  13.584  21.946   2.645
16317W        W89385   8.008  44.249  13.433
16318W        W89386  23.683  11.208  12.900
16319W        W89387  12.767  18.480   1.318
16320W        W89388  42.604  26.927  13.960
16321W        W89389  36.650   8.947   4.267
16322W        W89390  40.925   8.480  14.222
16323W        W89391  10.160  42.942  13.578
16324W        W89392   7.372  23.040   4.412
16325W        W89393   3.847  15.204  13.427
16326W        W89394  39.645  26.730   2.700
16327W        W89395   0.731  26.653  14.957
16328W        W89396  20.696  13.881   0.787
16329W        W89397  44.868   6.448   3.577
16330W        W89398  32.699  23.633   3.215
16331W        W89399  13.948  31.527  11.933
16332W        W89400  12.997  16.213  11.510
16333W        W89401  32.668   6.838   0.478
16334W        W89402  14.348  20.698  11.811
16335W        W89403  28.230   3.029   0.416
16336W        W89404   5.375  12.465   0.444
16337W        W89405  16.934  25.128   2.601
16338W        W89406  15.702  23.394  14.324
16339W        W89407  32.472  22.035  12.388
16340W        W89408  26.162   0.817   1.901
16341W        W89409  24.100   8.832  13.265
16342W        W89410  32.392  29.098   0.660
16343W        W89411  12.224   0.478  14.184
16344W        W89412  20.658  37.415   4.134
16345W        W89413  16.054  25.959   1.844
16346W        W89414  38.821  10.596   1.374
16347W        W89415   2.902  21.549  14.341
16348W        W89416  22.192  17.773  12.931
16349W        W89417  13.253  37.392   3.488
16350W        W89418   8.273  18.427  11.460
16351W        W89419  29.791  28.134  10.349
16352W        W89420   5.126  20.615  13.377
16353W        W89421  38.911  38.871  10.664
16354W        W89422  11.371  30.431  11.991
16355W        W89423  12.636  35.671  11.702
16356W        W89424  44.246  32.697  11.998
16357W        W89425  23.541  31.159   2.365
16358W        W89426  17.793  33.054  14.565
16359W        W89427  25.065  35.294   4.363
16360W        W89428   3.883  31.689   3.759
16361W        W89429  37.573  17.974  12.968
16362W        W89430  17.660  40.932   0.401
16363W        W89431  24.532   8.850   4.612
16364W        W89432   6.731  12.309   1.282
16365W        W89433  38.655   1.235  14.279
16366W        W89434  18.322  21.959   1.058
16367W        W89435   9.749   8.864  13.753
16368W        W89436  35.446  14.776  11.882
16369W        W89437   6.379   8.236   1.397
16370W        W89438  21.352   8.370  12.797
16371W        W89439  26.095   6.503   3.687
16372W        W89440  12.594  27.969  11.644
16373W        W89441  13.298  28.438   4.225
16374W        W89442  29.410  44.854   4.397
16375W        W89443  18.104  12.253   1.020
16376W        W89444  28.956   5.130   2.383
16377W        W89445  31.344  33.072  11.077
16378W        W89446   8.148  24.782  10.446
16379W        W89447  33.900  12.282   3.698
16380W        W89448  11.589  29.705  11.558
16381W        W89449  32.043  10.982  12.823
16382W        W89450  15.664  15.748  11.158
16383W        W89451  31.618  31.097  13.065
16384W        W89452  17.925   2.412  14.480
16385W        W89453  22.538  42.424   3.803
16386W        W89454  41.400  28.389   4.047
16387W        W89455   6.492  10.827   1.384
16388W        W89456  43.294  16.866   0.795
16389W        W89457  29.037  43.240   3.146
16390W        W89458   7.203  16.057   4.584
16391W        W89459  44.569  34.922   0.439
16392W        W89460  38.013  29.089  10.739
16393W        W89461  15.409   4.947   3.145
16394W        W89462   7.352   8.454   4.873
16395W        W89463  38.020  13.465  13.986
16396W        W89464  24.014   4.300  14.892
16397W        W89465  27.221  26.729  14.795
16398W        W89466  19.067  43.792  13.396
16399W        W89467  33.472  37.417  11.913
16400W        W89468  26.029  11.006  14.940
16401W        W89469  24.060  16.053   5.302
16402W        W89470  28.390  32.988  12.540
16403W        W89471  17.002  25.128  11.995
16404W        W89472  24.211   0.683   2.893
16405W        W89473  27.323  15.828   1.733
16406W        W89474  35.586  29.483   4.924
16407W        W89475  34.031   5.834   3.072
16408W        W89476  10.264  27.629  12.389
16409W        W89477   8.957   9.726  11.716
16410W        W89478   3.179  20.918  14.028
16411W        W89479  29.407   4.353  12.295
16412W        W89480   7.112  37.912   0.374
16413W        W89481  38.324  29.164  12.047
16414W        W89482  35.081  28.143   2.861
16415W        W89483  35.950  20.800  11.523
16416W        W89484   5.924  23.505   2.845
16417W        W89485   4.756  26.770  13.518
16418W        W89486   7.809  40.435  14.784
16419W        W89487  24.127  29.180  14.270
16420W        W89488   5.418  21.776  12.064
16421W        W89489  33.606  35.150  14.763
16422W        W89490  23.306   7.473  13.072
16423W        W89491  12.712  30.292   2.305
16424W        W89492  24.217   5.353   2.840
16425W        W89493  38.931  26.964   2.342
16426W        W89494  18.244  30.166  11.995
16427W        W89495   4.675  18.159  14.300
16428W        W89496  24.071  10.761  11.012
16429W        W89497  43.118   2.789  11.931
16430W        W89498  42.892   7.845  10.945
16431W        W89499   9.739  27.024  12.884
16432W        W89500  18.463   2.689   0.687
16433W        W89501  13.046   3.772  11.056
16434W        W89502   9.992  38.606   4.060
16435W        W89503   1.990  14.734   1.830
16436W        W89504  15.087  22.084   4.300
16437W        W89505  28.976  32.543   0.395
16438W        W89506  14.420  24.571   3.694
16439W        W89507   5.711  42.720  14.417
16440W        W89508  16.391  24.600   3.656
16441W        W89509  40.329  38.476   1.899
16442W        W89510  12.132  25.440  13.331
16443W        W89511   8.759  17.605   0.282
16444W        W89512  14.705   6.209   4.311
16445W        W89513   1.430  19.939  12.094
16446W        W89514  23.994   3.243  14.968
16447W        W89515  40.858   0.253   2.246
16448W        W89516  18.586   1.197  11.581
16449W        W89517  24.709  15.548   3.761
16450W        W89518  41.775   0.763   3.594
16451W        W89519   7.240   4.689  10.995
16452W        W89520  18.985  28.459  14.045
16453W        W89521  26.626   7.689  11.166
16454W        W89522  10.996   2.045   0.749
16455W        W89523   6.923   1.157   4.274
16456W        W89524   6.201  33.524  14.832
16457W        W89525   0.059  43.335   3.639
16458W        W89526  39.734  34.036   2.241
16459W        W89527  27.195  11.211   1.239
16460W        W89528  41.239  18.646  10.650
16461W        W89529  42.862  11.644   3.019
16462W        W89530  20.097   8.919  13.421
16463W        W89531  39.893  33.842   2.695
16464W        W89532  18.367  13.390   2.012
16465W        W89533  29.017  22.042  13.486
16466W        W89534  23.017  37.373   4.511
16467W        W89535  16.654   6.919   1.714
16468W        W89536  15.266  24.068   1.663
16469W        W89537   5.656  34.968   0.345
16470W        W89538  44.830  36.692  13.051
16471W        W89539   0.888   4.234  12.766
16472W        W89540  26.104   0.803   0.015
16473W        W89541  44.784   2.457   3.701
16474W        W89542  15.544  33.886  11.430
16475W        W89543  29.355  15.887   4.685
16476W        W89544   8.060  37.408   3.690
16477W        W89545   9.618  38.018  13.786
16478W        W89546  17.369  28.938   0.507
16479W        W89547  30.040  37.601   4.482
16480W        W89548  40.618  22.715  14.821
16481W        W89549  15.781  31.111   2.271
16482W        W89550  11.682  38.290   4.117
16483W        W89551  11.500  34.945  10.720
16484W        W89552   6.743  40.023   3.830
16485W        W89553  21.301  14.522   3.189
16486W        W89554  21.327  23.034   1.835
16487W        W89555  20.489  30.654  10.980
16488W        W89556  33.854  28.286  14.234
16489W        W89557   9.005  13.075  11.204
16490W        W89558  36.380  17.724   4.376
16491W        W89559  42.104  12.878   1.435
16492W        W89560   9.175  21.601  10.697
16493W        W89561   9.615  18.163  12.855
16494W        W89562  39.977  23.119  11.969
16495W        W89563  24.406   9.743   2.658
16496W        W89564  12.143  43.056  12.389
16497W        W89565  42.585   3.296   1.795
16498W        W89566  37.995  33.393  10.034
16499W        W89567  44.782  21.681   2.703
16500W        W89568  14.319   9.596  12.442
16501W        W89569   9.312  24.612  14.861
16502W        W89570   6.989  41.526   2.896
16503W        W89571  13.792  13.601   5.003
16504W        W89572  17.641  27.777   0.796
16505W        W89573   6.778  18.942  12.249
16506W        W89574  19.627  38.792  11.337
16507W        W89575  38.847  28.531   0.744
16508W        W89576  17.405  14.358  10.241
16509W        W89577  19.158  40.302  11.886
16510W        W89578  22.495  39.429   3.640
16511W        W89579  32.669   1.305   4.729
16512W        W89580  42.990  37.865   0.065
16513W        W89581  37.535   2.214   1.378
16514W        W89582  26.107  39.912  12.753
16515W        W89583  29.335  41.780   4.245
16516W        W89584  22.331  32.967   0.933
16517W        W89585  25.361  42.966   1.453
16518W        W89586   9.734  35.025  10.663
16519W        W89587  40.144  11.740  14.335
16520W        W89588  21.195  43.372  13.970
16521W        W89589  31.786   6.571  14.877
16522W        W89590  11.387  41.088  10.594
16523W        W89591  33.451  40.574  10.951
16524W        W89592  15.237  23.057  12.684
16525W        W89593  44.763  38.269  11.330
16526W        W89594  19.997   3.781  10.582
16527W        W89595   2.350  20.955  14.983
16528W        W89596  35.337  36.475   3.926
16529W        W89597  24.439  31.099   2.135
16530W        W89598   1.924  14.392  13.342
16531W        W89599  20.567  28.879  12.893
16532W        W89600   7.653  11.592  11.405
16533W        W89601  14.705  26.336   4.045
16534W        W89602  12.776   8.638   3.807
16535W        W89603  30.590  22.787  13.504
16536W        W89604  14.278  10.229  14.952
16537W        W89605  14.316  18.291   3.680
16538W        W89606  10.653  29.449  12.458
16539W        W89607  27.570   4.818   1.714
16540W        W89608  24.698  21.108   1.697
16541W        W89609  31.414  42.251  14.006
16542W        W89610  18.200   5.372   0.786
16543W        W89611  18.885   7.259   2.502
16544W        W89612  32.435  30.836  10.752
16545W        W89613  32.468  31.301   0.229
16546W        W89614  42.760  29.547   0.764
16547W        W89615   0.230  41.493   0.557
16548W        W89616  10.944  29.597   1.824
16549W        W89617  29.489   1.193   4.179
16550W        W89618   1.330  21.250   3.207
16551W        W89619  11.690  15.268   3.554
16552W        W89620  22.246  35.142  11.044
16553W        W89621  28.755  40.126   3.751
16554W        W89622  28.562  14.238  12.366
16555W        W89623  33.570  28.822   2.745
16556W        W89624  11.259  34.963   3.655
16557W        W89625  19.456   2.989  10.449
16558W        W89626   8.858  42.040   1.512
16559W        W89627  16.077  39.885  13.903
16560W        W89628  42.556  16.535   1.998
16561W        W89629   0.745  13.552   4.047
16562W        W89630  11.907  23.009   0.358
16563W        W89631  22.763   3.277   5.204
16564W        W89632   1.534  39.053  12.472
16565W        W89633  29.876  19.289   2.251
16566W        W89634  12.298   3.313   0.006
16567W        W89635  42.538  17.040   3.186
16568W        W89636  12.747  44.199   0.933
16569W        W89637  19.177  38.771  12.100
16570W        W89638  32.844  40.748   0.699
16571W        W89639   5.397  38.964   2.433
16572W        W89640  21.555  35.335  14.529
16573W        W89641  26.622  15.165   1.547
16574W        W89642  15.785  34.576   1.802
16575W        W89643  36.626  26.619   3.267
16576W        W89644  13.300  42.649   9.947
16577W        W89645  40.409  21.373   5.054
16578W        W89646   2.013  29.649  12.589
16579W        W89647  39.422   0.566   0.463
16580W        W89648  33.631  16.870   1.695
16581W        W89649  32.407  36.523  12.971
16582W        W89650  40.518   8.373  12.821
16583W        W89651  30.650   0.255  14.122
16584W        W89652  28.596  10.552   1.266
16585W        W89653  17.561  39.673   0.726
16586W        W89654  31.599  23.700   2.936
16587W        W89655   2.436  32.598  12.323
16588W        W89656  15.192  27.437   0.525
16589W        W89657  28.084  44.099  13.816
16590W        W89658  44.808  13.140  13.443
16591W        W89659  14.781  33.402   0.493
16592W        W89660  28.950  16.783   0.072
16593W        W89661  42.053  33.842  14.926
16594W        W89662  21.602  17.029  13.722
16595W        W89663  41.784  14.168  12.488
16596W        W89664   2.409  31.601  14.880
16597W        W89665  26.579  24.073  13.340
16598W        W89666  17.242  29.659  14.988
16599W        W89667  15.232  30.115  14.493
16600W        W89668  37.312   1.254  11.154
16601W        W89669  33.691   8.310   1.735
16602W        W89670   2.679  33.240  11.109
16603W        W89671  16.578  20.800  14.303
16604W        W89672  10.311  44.499  13.132
16605W        W89673   2.223  42.330   2.405
16606W        W89674  34.120  22.989  14.603
16607W        W89675  28.645   0.958  13.812
16608W        W89676  36.298  34.159  11.383
16609W        W89677  37.645  38.402   3.321
16610W        W89678   6.425  15.489   2.847
16611W        W89679  32.387  34.531  12.466
16612W        W89680  33.920  14.788  14.997
16613W        W89681   0.214  12.293   1.700
16614W        W89682  41.448  42.860   4.175
16615W        W89683  16.580  17.250   4.194
16616W        W89684   9.907  22.754  13.881
16617W        W89685  14.850   6.302   0.468
16618W        W89686  16.152   4.241  12.863
16619W        W89687  33.730  44.787  11.221
16620W        W89688  34.319  29.906   1.723
16621W        W89689  29.515  20.956  14.833
16622W        W89690  39.097  38.309   1.351
16623W        W89691   1.861  28.258   0.823
16624W        W89692  44.037  37.441  11.555
16625W        W89693   3.833  41.375   3.687
16626W        W89694  38.899  27.591  10.623
16627W        W89695  17.116  16.678   1.240
16628W        W89696  31.187   2.826   1.425
16629W        W89697  25.082  20.168   1.428
16630W        W89698  17.822   2.964  13.656
16631W        W89699   1.184   1.665  11.241
16632W        W89700  43.344  26.637  11.058
16633W        W89701  29.663  38.586   1.467
16634W        W89702  38.555  42.984  13.880
16635W        W89703  41.568  22.748  13.314
16636W        W89704  30.922  35.878  13.413
16637W        W89705   7.827  15.559  13.569
16638W        W89706   4.682   2.285   0.409
16639W        W89707  27.719  41.828  12.535
16640W        W89708  16.580  32.634  12.506
16641W        W89709  27.896  37.303   2.557
16642W        W89710  38.096   2.422  13.308
16643W        W89711  39.377   0.505  13.891
16644W        W89712  30.528   0.682   0.870
16645W        W89713   0.159  41.067  11.657
16646W        W89714   8.874  18.608   0.787
16647W        W89715  18.195   1.257  10.764
16648W        W89716  18.244  14.648   1.779
16649W        W89717  28.160  18.132  13.989
16650W        W89718  16.554  27.478  14.363
16651W        W89719  40.323  39.074  13.911
16652W        W89720  32.869  29.498  14.811
16653W        W89721  19.612  27.629  14.650
16654W        W89722  17.478  22.520  11.059
16655W        W89723   8.819  37.395  11.852
16656W        W89724  30.760  29.979  12.528
16657W        W89725   4.829  11.356  14.925
16658W        W89726  43.813  20.071   1.819
16659W        W89727  11.931   7.249   1.203
16660W        W89728   5.478  13.147   1.730
16661W        W89729  23.504  25.132  10.527
16662W        W89730  24.489   9.538  12.876
16663W        W89731  27.640  27.473  14.373
16664W        W89732  39.020  24.131   0.302
16665W        W89733  34.526  36.015  13.517
16666W        W89734  37.381   3.337   3.205
16667W        W89735  40.490   7.389   5.553
16668W        W89736  10.078  17.872   9.852
16669W        W89737   0.757  25.171  14.960
16670W        W89738   6.892  28.037   4.123
16671W        W89739  29.906  24.621   3.201
16672W        W89740  44.286  38.977  11.996
16673W        W89741  32.482  22.249   3.395
16674W        W89742  37.121  24.672   3.566
16675W        W89743  44.789  22.059   4.934
16676W        W89744  32.955  40.898  12.673
16677W        W89745  35.550  28.381   3.186
16678W        W89746  16.593  38.071   3.286
16679W        W89747  33.660  34.675  12.126
16680W        W89748  35.904  25.738  14.265
16681W        W89749  31.889   5.164  14.842
16682W        W89750  29.041  21.724   4.694
16683W        W89751  15.232  42.929   0.471
16684W        W89752  25.699  32.932   0.452
16685W        W89753  30.895   8.793  12.331
16686W        W89754  39.462  12.684  10.860
16687W        W89755   1.684  21.498   2.249
16688W        W89756   1.929  35.160  14.260
16689W        W89757  28.490  28.552   2.929
16690W        W89758  20.335  15.046   3.993
16691W        W89759   8.178  11.869  12.476
16692W        W89760  36.078   2.293  13.366
16693W        W89761   6.200  34.718  14.265
16694W        W89762  17.143  22.793   1.850
16695W        W89763   0.882  15.252  11.605
16696W        W89764   6.263  29.838   0.905
16697W        W89765  21.761  28.989  13.461
16698W        W89766  33.067  22.173  13.814
16699W        W89767  15.237  24.483   3.223
16700W        W89768   5.917  10.096  11.275
16701W        W89769   9.106   9.883   0.265
16702W        W89770  30.183   9.937  12.011
16703W        W89771  15.976  35.992  13.003
16704W        W89772  41.812  19.814  11.577
16705W        W89773  14.154  37.001  12.858
16706W        W89774  42.378  44.345  10.668
16707W        W89775  14.861  26.156   1.886
16708W        W89776  22.521  42.876   1.719
16709W        W89777   0.778  20.821  13.021
16710W        W89778  37.506  11.430   5.021
16711W        W89779  34.036  19.836   1.420
16712W        W89780  34.906  31.052   3.345
16713W        W89781  21.262   8.287   4.068
16714W        W89782  18.094  22.868   1.900
16715W        W89783  21.273   1.643   4.328
16716W        W89784  17.571  20.956   4.546
16717W        W89785  41.740   0.297   1.327
16718W        W89786  37.916  43.460  14.525
16719W        W89787   5.018   6.304  14.094
16720W        W89788   4.639  25.147  12.898
16721W        W89789  38.818  18.832   0.452
16722W        W89790  39.505  15.886  11.850
16723W        W89791  36.114   2.066  11.978
16724W        W89792   4.453  16.070  12.516
16725W        W89793   5.130  42.472   4.834
16726W        W89794  34.594  25.656  13.911
16727W        W89795   5.830  34.508  10.692
16728W        W89796  33.430  10.116   1.394
16729W        W89797  34.570   0.471  14.056
16730W        W89798  24.452  39.757   3.756
16731W        W89799  39.361   4.865  13.274
16732W        W89800   7.176  34.875   2.210
16733W        W89801  33.561  26.046   1.340
16734W        W89802  37.008  37.528   5.050
16735W        W89803   5.930   0.425   1.753
16736W        W89804  33.554  16.246  14.303
16737W        W89805   2.559  34.158   2.712
16738W        W89806  11.631   7.237   4.074
16739W        W89807  10.874  28.642   2.101
16740W        W89808  43.222  40.044  12.907
16741W        W89809  28.152   4.510   0.373
16742W        W89810  30.267  12.596   4.159
16743W        W89811  29.067  30.606   0.398
16744W        W89812   0.992   7.262   0.818
16745W        W89813  16.195  33.491   3.399
16746W        W89814  13.268  10.353  12.887
16747W        W89815   2.173  27.969   4.090
16748W        W89816   3.859  30.496   4.549
16749W        W89817  12.882   0.218   0.445
16750W        W89818  17.420  40.579  12.268
16751W        W89819  14.720   3.778   3.997
16752W        W89820  24.578  17.341  13.848
16753W        W89821  16.507  21.038   2.029
16754W        W89822  42.386  44.488  12.197
16755W        W89823  30.545   8.163  14.896
16756W        W89824  17.811  23.540  12.990
16757W        W89825  16.890  26.565  10.760
16758W        W89826   8.146   1.452  11.361
16759W        W89827  24.805  41.723  12.833
16760W        W89828  22.670  29.949  13.927
16761W        W89829  20.302  21.078   1.960
16762W        W89830  40.430  38.747   0.346
16763W        W89831  17.637   0.427  13.151
16764W        W89832  13.652   8.473   0.010
16765W        W89833  35.876  28.466   1.423
16766W        W89834  21.461  41.354  11.942
16767W        W89835   6.177   2.686   3.535
16768W        W89836  29.261  44.399   4.150
16769W        W89837  38.213  38.090   1.264
16770W        W89838  35.378   5.781   2.169
16771W        W89839  39.749  43.346  14.268
16772W        W89840   7.917  26.587   2.755
16773W        W89841  24.706  34.079  13.354
16774W        W89842  44.776  41.504   3.012
16775W        W89843  31.908   3.884  14.493
16776W        W89844  30.701   8.809   0.036
16777W        W89845  42.748  25.673  12.029
16778W        W89846  20.032  17.523  14.130
16779W        W89847  19.530  38.913   3.461
16780W        W89848   4.749  12.180   3.294
16781W        W89849   1.825   0.204   3.798
16782W        W89850  20.784  34.061   4.561
16783W        W89851  42.028  13.290   2.714
16784W        W89852  13.561   4.189   1.902
16785W        W89853  19.767  27.015  10.677
16786W        W89854   7.860  21.275  12.768
16787W        W89855  33.824   0.673  11.507
16788W        W89856  15.099  19.379  10.464
16789W        W89857   9.607   3.869   4.560
16790W        W89858  41.029  24.151  12.154
16791W        W89859  38.442  10.163   3.556
16792W        W89860  37.434  32.081   4.502
16793W        W89861  37.718   3.087   4.805
16794W        W89862   2.371  13.692  14.926
16795W        W89863  15.767   3.786  12.345
16796W        W89864  33.944  38.620  14.552
16797W        W89865   3.743  18.486  11.111
16798W        W89866   8.748  44.289  13.075
16799W        W89867  16.169  28.740   0.763
16800W        W89868  13.529  20.823  11.092
16801W        W89869   4.446  24.677  10.612
16802W        W89870   4.715  41.048  12.808
16803W        W89871  37.433  41.938   4.738
16804W        W89872  21.914  10.634  14.305
16805W        W89873  27.123  33.543   0.324
16806W        W89874  18.290   9.799   2.279
16807W        W89875  32.502  12.382   1.750
16808W        W89876  21.133   1.944  13.101
16809W        W89877  25.096  17.311   5.049
16810W        W89878  13.674  30.637  14.000
16811W        W89879  28.962  26.425  14.284
16812W        W89880  23.681   2.965  13.457
16813W        W89881  23.372  43.927   3.345
16814W        W89882  10.816  19.454  14.931
16815W        W89883  39.562  11.836  11.412
16816W        W89884  17.889  21.627  13.740
16817W        W89885  15.849  30.062   5.058
16818W        W89886  21.286  13.597  14.798
16819W        W89887  16.185  17.341  11.579
16820W        W89888  32.554  25.531  13.700
16821W        W89889  24.570  20.491   3.727
16822W        W89890  17.326  33.067   0.464
16823W        W89891  30.038  28.736   2.078
16824W        W89892  40.534  34.179  14.956
16825W        W89893  40.857  14.912  11.158
16826W        W89894  16.200  32.417   3.073
16827W        W89895  15.862  23.145  12.893
16828W        W89896  16.782   4.645  13.363
16829W        W89897   2.944  29.078  12.497
16830W        W89898  39.619  42.789   0.595
16831W        W89899  29.867  35.396  11.177
16832W        W89900  19.206  41.755   2.879
16833W        W89901  41.558  16.295   2.731
16834W        W89902  38.478  22.107  12.773
16835W        W89903  20.990  44.793   2.799
16836W        W89904  21.442  13.784   4.876
16837W        W89905  28.068  19.226   4.256
16838W        W89906  31.593  32.872  13.425
16839W        W89907  28.673  14.154   2.308
16840W        W89908  32.025  44.311   2.236
16841W        W89909  43.225   4.226  12.764
16842W        W89910  19.549  25.440  12.027
16843W        W89911  42.184  37.899   2.344
16844W        W89912   8.105  22.019  12.570
16845W        W89913  42.931   7.364  10.760
16846W        W89914   2.729  41.423   4.005
16847W        W89915  23.518  18.620  12.015
16848W        W89916  35.075  13.259   1.742
16849W        W89917  24.013   6.487  12.365
16850W        W89918  19.900  22.496   0.250
16851W        W89919  27.834   5.919  13.522
16852W        W89920  21.130  14.345   0.253
16853W        W89921   8.700   2.417  14.654
16854W        W89922  43.238  43.059   3.665
16855W        W89923  31.003   1.780  14.938
16856W        W89924  23.066  36.746   2.302
16857W        W89925  44.354   1.059   3.821
16858W        W89926  43.560   4.277   4.894
16859W        W89927  33.377  38.850   0.817
16860W        W89928  27.028  16.582  10.479
16861W        W89929  27.206  18.630   3.331
16862W        W89930  29.465   3.902  12.056
16863W        W89931  30.837   0.316  11.521
16864W        W89932  21.100  12.114   4.381
16865W        W89933  33.876  20.508   4.444
16866W        W89934  20.871   9.447   1.427
16867W        W89935  42.439  15.520  12.367
16868W        W89936  26.225  43.781   1.901
16869W        W89937  31.443   8.376   0.313
16870W        W89938   3.753   5.411   1.691
16871W        W89939  41.975  34.201  13.501
16872W        W89940   0.766   1.510   4.153
16873W        W89941  42.384   5.311  11.490
16874W        W89942  17.125   3.275  11.494
16875W        W89943  34.188  30.956   2.398
16876W        W89944  10.589  17.239  13.875
16877W        W89945  22.617  20.061  10.137
16878W        W89946  40.950  19.488  10.739
16879W        W89947  33.627  39.430   1.287
16880W        W89948  35.009  42.815   1.878
16881W        W89949  42.676   8.612  13.874
16882W        W89950   4.115  29.482  13.474
16883W        W89951   0.207  12.753   2.849
16884W        W89952   8.168  20.619   3.575
16885W        W89953  13.824  21.291   4.168
16886W        W89954   1.457  12.427  11.943
16887W        W89955  25.623  14.763  13.294
16888W        W89956  25.920  25.218  14.346
16889W        W89957  42.121  12.650  12.891
16890W        W89958   1.369  44.915  11.915
16891W        W89959  15.757  11.273  10.626
16892W        W89960  26.728   2.287  14.832
16893W        W89961   9.772  25.481   0.965
16894W        W89962  28.641  15.620  14.263
16895W        W89963   3.221  34.612   0.456
16896W        W89964  41.528  20.024   2.143
16897W        W89965  39.803  21.602   0.177
16898W        W89966  31.400  24.315   0.222
16899W        W89967   8.248   6.730  11.889
16900W        W89968  43.992  10.676   3.294
16901W        W89969  23.083   8.307  11.971
16902W        W89970   9.699  41.237   3.645
16903W        W89971  42.894  35.223   2.706
16904W        W89972  29.391  33.860  11.469
16905W        W89973  26.386   4.767   3.271
16906W        W89974  24.533  13.583   4.546
16907W        W89975  28.127   4.833   3.989
16908W        W89976  11.587   8.232   2.698
16909W        W89977  32.496   9.522  12.023
16910W        W89978  39.958  11.207  10.337
16911W        W89979  13.532  11.329  12.920
16912W        W89980  25.506   2.290  11.904
16913W        W89981  20.510  37.813  11.527
16914W        W89982  19.635  22.696  10.688
16915W        W89983  21.295  23.351  11.686
16916W        W89984  20.049  24.747   3.698
16917W        W89985   8.305  21.725   1.758
16918W        W89986  44.613  15.861  10.980
16919W        W89987  35.988  19.521   4.083
16920W        W89988  37.300   5.040   4.607
16921W        W89989  17.052  37.972   2.653
16922W        W89990   7.761   6.083  13.369
16923W        W89991  34.487   5.360  11.655
16924W        W89992  44.664  43.331  13.513
16925W        W89993  10.598   1.908   2.939
16926W        W89994   4.632  12.102   4.313
16927W        W89995  26.385  41.514  13.837
16928W        W89996  23.775  34.564  10.711
16929W        W89997  42.478  30.137  12.540
16930W        W89998  31.476  30.882   1.348
16931W        W89999  28.629   1.834  13.936
16932W        W90000  36.776  15.653   2.605
16933W        W90001  41.021  39.543   0.233
16934W        W90002   7.575  25.154   9.951
16935W        W90003   0.487  14.646   1.924
16936W        W90004  18.601  22.151  11.579
16937W        W90005  35.046   5.950  14.940
16938W        W90006   1.445  10.899   2.666
16939W        W90007  17.522  24.965   0.604
16940W        W90008  32.151  18.771  11.125
16941W        W90009  12.201  35.087   3.131
16942W        W90010  24.233   4.505  11.343
16943W        W90011  30.873  10.922   4.221
16944W        W90012  25.142  11.565   3.838
16945W        W90013  22.032   6.986   0.915
16946W        W90014  23.096  36.618   0.073
16947W        W90015  40.610  43.006   2.367
16948W        W90016  44.021  13.520   3.384
16949W        W90017  33.016   5.984  11.592
16950W        W90018  14.079  19.346   2.747
16951W        W90019  35.207  18.806   1.239
16952W        W90020  30.172   1.484  13.562
16953W        W90021  20.667  38.563   0.307
16954W        W90022  22.155  24.791   3.198
16955W        W90023  44.829   6.793  14.825
16956W        W90024  13.280  12.938  11.081
16957W        W90025  34.070  12.162  14.289
16958W        W90026  21.573  39.775   1.778
16959W        W90027  43.238  39.374   1.841
16960W        W90028  33.407  10.323   4.997
16961W        W90029  28.954  26.136   1.751
16962W        W90030  33.070  15.162   3.221
16963W        W90031  35.890  17.560   4.483
16964W        W90032  44.770  42.904   3.782
16965W        W90033  32.234  10.784   3.914
16966W        W90034  28.170   3.166   1.793
16967W        W90035  38.001   4.934  12.556
16968W        W90036  32.543   8.784  14.325
16969W        W90037  40.084   1.806  14.985
16970W        W90038  22.094  43.235  14.553
16971W        W90039  11.404  40.728  11.436
16972W        W90040  22.669   4.811   0.692
16973W        W90041  40.508   7.139   2.757
16974W        W90042  31.442  30.497  11.447
16975W        W90043  15.782  35.652  13.794
16976W        W90044   5.694  43.970  11.384
16977W        W90045   9.171  31.705   3.305
16978W        W90046   8.649  42.436   3.234
16979W        W90047   1.794  28.078  14.867
16980W        W90048  15.687  43.958   0.799
16981W        W90049   6.319  35.799  12.344
16982W        W90050  27.933  35.133   0.896
16983W        W90051  42.010  38.462   1.159
16984W        W90052   2.089  25.647   4.826
16985W        W90053  34.558  28.984  13.841
16986W        W90054   8.202  18.640  11.929
16987W        W90055  38.990  15.760   4.628
16988W        W90056   1.041   0.841   3.755
16989W        W90057  27.966  28.911  12.442
16990W        W90058  23.184  31.977   3.503
16991W        W90059   1.169  15.705  12.344
16992W        W90060  35.098  35.409  10.447
16993W        W90061  26.501  21.240  11.567
16994W        W90062  29.225  14.103  14.101
16995W        W90063  17.105  36.597  13.279
16996W        W90064  17.054   1.799   2.808
16997W        W90065  12.444  37.353  12.441
16998W        W90066  16.854  14.267  14.023
16999W        W90067  26.514  15.343   2.220
17000W        W90068   3.376   9.133   1.636
17001W        W90069   4.574  21.512  10.672
17002W        W90070  43.782  21.690   2.595
17003W        W90071  25.455  35.187   0.807
17004W        W90072  37.492  23.531  13.243
17005W        W90073   0.206   2.302  12.497
17006W        W90074   8.725  36.118   0.950
17007W        W90075  41.729  10.309   1.295
17008W        W90076   6.460  15.278   0.285
17009W        W90077  28.228   7.134  14.390
17010W        W90078  44.048  37.950  12.584
17011W        W90079  17.317  36.099   0.331
17012W        W90080  42.253  20.043   0.900
17013W        W90081  12.108  43.752   2.355
17014W        W90082  26.678  31.588   2.451
17015W        W90083  17.567  10.074  12.506
17016W        W90084  10.193  29.279   4.517
17017W        W90085  42.019  37.867   2.852
17018W        W90086  26.415  17.032  14.290
17019W        W90087  41.123  41.468  12.087
17020W        W90088  37.320  19.523   3.641
17021W        W90089  18.750  36.085   0.695
17022W        W90090  21.809  36.827  14.523
17023W        W90091   5.708  10.788   4.657
17024W        W90092  34.061  30.070  13.817
17025W        W90093  12.062  26.166  14.770
17026W        W90094  19.070   4.377  14.559
17027W        W90095   7.338   7.228   3.574
17028W        W90096  23.515  19.259   1.324
17029W        W90097  28.895  22.691  14.876
17030W        W90098  21.983  44.004  13.613
17031W        W90099  19.738  27.307   4.192
17032W        W90100  35.059  43.119  10.615
17033W        W90101   7.265   2.353   3.253
17034W        W90102  29.422  34.915  14.373
17035W        W90103   9.573   3.288   4.072
17036W        W90104  38.323  12.075   1.717
17037W        W90105  29.698  31.499  12.550
17038W        W90106  30.485  31.885   4.802
17039W        W90107   2.851   1.267  13.459
17040W        W90108  39.513  24.782  11.530
17041W        W90109  11.273   6.811  11.619
17042W        W90110  24.715  42.466   1.432
17043W        W90111   4.828  42.884   3.648
17044W        W90112   0.392  36.972   4.105
17045W        W90113  31.828  42.917   3.552
17046W        W90114  10.309  44.388  11.501
17047W        W90115  18.772  22.108   4.903
17048W        W90116   4.700  32.544  12.650
17049W        W90117  18.891  17.229   2.342
17050W        W90118  40.755  15.566  13.056
17051W        W90119  12.596  38.810   1.849
17052W        W90120  17.631  25.161  14.052
17053W        W90121  23.185  34.286   3.395
17054W        W90122  42.617  25.707  14.293
17055W        W90123  41.275  25.402  10.995
17056W        W90124  29.376  33.369   3.804
17057W        W90125   9.840   3.247  13.461
17058W        W90126   4.525  24.588  12.836
17059W        W90127  37.515  39.538   2.729
17060W        W90128  25.937  39.552   1.161
17061W        W90129  21.516  11.848   0.328
17062W        W90130  31.434  17.039   1.666
17063W        W90131   5.839   3.313   4.850
17064W        W90132  19.676   8.786   0.982
17065W        W90133  38.429  35.636   1.958
17066W        W90134   9.495  17.584   1.978
17067W        W90135  12.095   5.321   0.419
17068W        W90136  19.936  36.012   1.827
17069W        W90137  24.167  24.758   1.320
17070W        W90138  30.652   1.968   0.256
17071W        W90139  21.146  27.944  11.108
17072W        W90140  28.467  43.886  10.959
17073W        W90141  30.935  36.071  12.914
17074W        W90142  38.979  44.537  11.120
17075W        W90143   6.951  31.565  12.628
17076W        W90144  10.251  12.815  11.568
17077W        W90145  28.052   6.843   2.982
17078W        W90146  12.809   3.904   4.756
17079W        W90147  35.573   4.830  11.072
17080W        W90148  26.101  27.772   0.057
17081W        W90149  34.575  28.329   0.721
17082W        W90150  36.609  18.840  13.323
17083W        W90151   2.692  41.918  12.977
17084W        W90152  43.490  12.861  10.668
17085W        W90153  29.016   8.139  13.904
17086W        W90154  40.197   5.652  13.933
17087W        W90155  24.500  27.434   0.846
17088W        W90156  42.395  36.860   4.044
17089W        W90157   8.635  40.287  11.250
17090W        W90158  31.791  43.760   0.919
17091W        W90159   8.819  33.396  11.587
17092W        W90160  13.370  37.922  14.496
17093W        W90161  19.274  28.636   1.744
17094W        W90162   5.451   5.946   2.608
17095W        W90163   2.972  35.133   1.649
17096W        W90164  20.356  23.611   0.181
17097W        W90165  42.850  39.140  12.086
17098W        W90166  40.438   6.130  10.534
17099W        W90167  32.433   0.965  12.882
17100W        W90168  41.787  40.855  12.026
17101W        W90169  29.082  28.399   0.985
17102W        W90170   0.396  42.374  12.156
17103W        W90171  41.071  14.618   2.105
17104W        W90172  27.504  35.082   1.198
17105W        W90173  16.424  35.377  13.640
17106W        W90174  12.040  10.714  12.243
17107W        W90175   9.909  16.810   5.481
17108W        W90176  20.527  33.682   0.729
17109W        W90177  34.467  12.084  10.589
17110W        W90178  38.262  22.763  14.552
17111W        W90179   2.854  21.407  11.966
17112W        W90180  20.650  11.396   4.750
17113W        W90181  29.126  41.308   4.166
17114W        W90182   4.724  32.338  10.064
17115W        W90183  40.096   0.357  14.904
17116W        W90184   0.876  36.290   0.781
17117W        W90185  13.730   6.099   3.518
17118W        W90186   1.000  17.460  12.843
17119W        W90187  20.277  31.805  12.464
17120W        W90188  28.418  14.356  11.106
17121W        W90189   2.279   5.325  13.256
17122W        W90190  42.345  31.772   3.513
17123W        W90191   2.323  17.598  12.153
17124W        W90192   2.314  13.394  11.110
17125W        W90193  26.285  15.048   2.858
17126W        W90194   8.646   9.322  10.539
17127W        W90195  42.981  36.895   3.243
17128W        W90196  31.421  20.614  10.743
17129W        W90197  42.510  11.193  12.239
17130W        W90198  21.680   0.763   5.063
17131W        W90199  19.066  34.497   3.184
17132W        W90200  22.974  42.872   1.357
17133W        W90201  25.282   9.879  11.029
17134W        W90202  22.053  40.198   0.943
17135W        W90203  33.071  17.484  13.969
17136W        W90204  39.857  31.552   0.017
17137W        W90205  42.415  15.780   0.887
17138W        W90206  32.990  14.586   1.783
17139W        W90207  23.553   0.439  10.641
17140W        W90208  17.751  31.009  13.881
17141W        W90209  15.666  38.716  13.417
17142W        W90210  25.711  35.941   0.949
17143W        W90211  27.392   6.840  12.521
17144W        W90212   2.804  27.341  14.299
17145W        W90213  34.324  13.858  10.770
17146W        W90214   0.580  29.698  14.290
17147W        W90215   7.888  29.155  12.831
17148W        W90216  13.710   2.668   4.128
17149W        W90217  10.669  10.656   4.153
17150W        W90218  29.108  28.355  11.035
17151W        W90219  19.162  28.881   2.208
17152W        W90220  31.943  26.425   1.329
17153W        W90221  35.351  32.117  14.046
17154W        W90222  23.089  31.571   3.892
17155W        W90223  37.511  12.452   0.435
17156W        W90224  34.908  28.560  12.895
17157W        W90225   7.392   1.331  13.918
17158W        W90226   5.222  20.249   4.057
17159W        W90227  41.051   5.604  11.348
17160W        W90228   1.036   2.926   4.278
17161W        W90229   1.724   9.181  12.318
17162W        W90230   7.830  37.288   0.545
17163W        W90231  34.622   8.466   1.652
17164W        W90232   0.844  38.144  12.958
17165W        W90233  23.568  10.226  12.053
17166W        W90234  18.345  42.674  10.711
17167W        W90235   9.280  29.112   3.366
17168W        W90236  43.263   2.404  12.679
17169W        W90237  27.421  30.920  11.976
17170W        W90238   2.976  21.117   1.298
17171W        W90239  26.679  15.131  11.832
17172W        W90240  16.274  35.382  11.495
17173W        W90241  24.921   0.526   0.340
17174W        W90242  41.956  15.374  13.315
17175W        W90243  37.159   0.193  11.959
17176W        W90244   6.360  18.366  10.960
17177W        W90245  10.669   1.315   0.721
17178W        W90246  17.102  14.716  12.999
17179W        W90247   2.462  33.963   1.867
17180W        W90248  19.164  42.022   2.225
17181W        W90249  39.566  42.152  14.272
17182W        W90250   9.744  23.003  12.140
17183W        W90251  18.412  19.466  11.157
17184W        W90252   9.094  21.666  11.551
17185W        W90253  35.550   0.873  11.093
17186W        W90254  16.582  43.490  11.570
17187W        W90255  24.106  39.059   4.560
17188W        W90256   3.449  27.650  14.466
17189W        W90257  35.760  17.134  10.705
17190W        W90258  27.214   0.290   1.850
17191W        W90259  10.242  36.362   0.953
17192W        W90260  24.209  32.033   3.100
17193W        W90261  25.135  16.767   2.347
17194W        W90262  11.286  40.993  13.844
17195W        W90263  11.645  36.999  13.612
17196W        W90264  34.976  37.617   5.000
17197W        W90265  38.780   3.506   3.695
17198W        W90266  13.830  19.534  11.428
17199W        W90267  14.248  13.061   2.258
17200W        W90268  32.067  26.490   1.823
17201W        W90269  17.013   6.625   4.206
17202W        W90270  31.892  41.352   2.205
17203W        W90271   0.971  35.302  10.728
17204W        W90272   9.554   5.870  10.833
17205W        W90273  19.519   0.283  12.872
17206W        W90274  25.287  42.004   1.419
17207W        W90275   1.885  36.309  10.987
17208W        W90276   6.733  20.704   0.882
17209W        W90277  32.466  20.620   2.522
17210W        W90278  13.549  18.794  12.961
17211W        W90279  28.206  36.138   4.107
17212W        W90280  38.290   0.053  12.949
17213W        W90281  27.210  27.437   4.102
17214W        W90282   2.271  36.355  12.647
17215W        W90283   8.854  37.953   0.525
17216W        W90284  35.885  31.040   4.718
17217W        W90285  24.582  24.225  10.709
17218W        W90286  23.440  35.180   2.785
17219W        W90287   2.368  18.100   1.964
17220W        W90288  14.654  15.811  12.639
17221W        W90289  17.875  15.124  13.023
17222W        W90290  38.970  42.808   3.177
17223W        W90291  41.748  26.622   1.930
17224W        W90292  26.156  29.083  12.068
17225W        W90293   1.252  19.323   3.538
17226W        W90294   9.856  37.829   0.199
17227W        W90295  38.965  24.494  12.505
17228W        W90296  17.468  28.068   1.435
17229W        W90297  15.891  40.872   3.706
17230W        W90298  15.881  38.830   0.891
17231W        W90299  29.949  16.646   4.156
17232W        W90300   0.670  10.799  12.495
17233W        W90301  36.735  43.433   4.701
17234W        W90302   7.804  16.627  13.937
17235W        W90303  30.159  12.712  13.372
17236W        W90304   0.957  44.273   3.166
17237W        W90305  43.814  12.149   4.432
17238W        W90306  22.580  23.737  11.690
17239W        W90307  28.449  11.574   1.001
17240W        W90308  25.070  41.733   5.118
17241W        W90309  16.807  31.133  10.748
17242W        W90310  13.822  22.986  13.860
17243W        W90311  31.003  43.309  14.026
17244W        W90312  36.475  19.547  10.800
17245W        W90313  36.630  15.500  12.444
17246W        W90314  40.567   8.416  11.011
17247W        W90315  29.521  43.437   4.132
17248W        W90316   4.135  10.327   2.342
17249W        W90317  15.321   1.498   0.654
17250W        W90318  18.245  25.091  11.610
17251W        W90319  16.267  43.170   2.822
17252W        W90320  35.420   1.844   0.896
17253W        W90321  14.085  10.822  11.654
17254W        W90322   3.953  14.049   3.632
17255W        W90323  32.982   4.462   3.689
17256W        W90324   3.645   3.406  13.843
17257W        W90325  10.397  14.849   3.845
17258W        W90326  14.259  22.973  11.965
17259W        W90327  31.821  31.272   1.466
17260W        W90328  11.422  29.397  13.475
17261W        W90329  24.515  43.700   1.403
17262W        W90330  19.385  24.695   3.269
17263W        W90331  30.075  24.771  13.402
17264W        W90332  22.928   8.832  13.890
17265W        W90333  41.038  42.342   1.914
17266W        W90334  17.789  34.349  11.143
17267W        W90335  20.835  25.133   0.394
17268W        W90336  20.345  26.417  12.612
17269W        W90337  35.123  33.407  10.216
17270W        W90338  16.116  29.089   3.528
17271W        W90339  30.584  24.029  10.516
17272W        W90340   7.901  30.377   5.242
17273W        W90341   3.787  34.289   2.386
17274W        W90342  39.313   2.091  12.380
17275W        W90343  10.513   2.354  10.859
17276W        W90344  29.964  26.608  13.039
17277W        W90345  36.448  25.931  14.598
17278W        W90346  37.425  13.887  11.069
17279W        W90347  41.992  34.025   4.550
17280W        W90348   4.993  24.645   4.061
17281W        W90349  10.323   7.968   1.788
17282W        W90350   2.749  19.379  12.201
17283W        W90351  43.769  13.176   0.919
17284W        W90352   1.243  19.018  12.000
17285W        W90353  29.354   0.934  11.581
17286W        W90354   3.842  30.003  14.311
17287W        W90355  12.625  37.784   1.762
17288W        W90356  31.552  30.372   1.413
17289W        W90357  37.343  29.536   1.273
17290W        W90358  14.558  35.334   0.649
17291W        W90359  41.791  15.999   1.427
17292W        W90360  16.515  14.327   1.934
17293W        W90361  44.502  15.862   4.276
17294W        W90362  44.797  41.814   0.687
17295W        W90363   0.910  31.560   1.587
17296W        W90364   4.280   2.841  14.784
17297W        W90365   4.839  17.149   0.700
17298W        W90366  34.939  32.393  14.412
17299W        W90367   6.364  21.322   1.347
17300W        W90368  26.993  26.998   4.291
17301W        W90369  15.083  38.813   0.613
17302W        W90370  14.281  15.799   4.654
17303W        W90371  42.695   4.754   2.661
17304W        W90372  34.623  37.015   4.317
17305W        W90373  44.399   6.423   3.280
17306W        W90374   4.027  43.453   0.363
17307W        W90375  33.502  35.680   0.748
17308W        W90376  33.429  12.611   4.753
17309W        W90377  10.590  18.312   2.442
17310W        W90378  29.983   7.646   4.202
17311W        W90379  19.480  35.956  13.849
17312W        W90380  36.902  30.548  11.952
17313W        W90381  36.398   3.892   3.567
17314W        W90382  26.442   4.807   0.889
17315W        W90383  38.827  38.499   0.960
17316W        W90384   2.330  21.347   3.305
17317W        W90385  23.407  38.814   1.852
17318W        W90386  16.652   9.676  12.817
17319W        W90387  39.338  44.442   2.358
17320W        W90388  44.991  15.073   3.080
17321W        W90389   1.040  38.378   4.038
17322W        W90390  18.829  43.470   2.664
17323W        W90391  13.877  21.228  13.492
17324W        W90392  40.812  28.631  12.028
17325W        W90393   8.795   5.986   0.337
17326W        W90394  37.806  30.035   0.407
17327W        W90395   4.901  25.694  14.374
17328W        W90396  42.335  41.915  13.541
17329W        W90397  24.010  27.524  14.872
17330W        W90398  21.418  20.040   1.780
17331W        W90399   3.393  44.311  12.863
17332W        W90400  36.934   9.365  12.199
17333W        W90401   6.220  37.416  12.053
17334W        W90402  28.230   8.590  11.495
17335W        W90403  15.295  38.887   4.124
17336W        W90404  24.207  14.692   3.853
17337W        W90405   8.790  20.988   0.846
17338W        W90406  42.340  11.797  12.894
17339W        W90407  15.396   1.515  12.000
17340W        W90408  15.622  35.033   1.991
17341W        W90409  40.871  37.755  13.725
17342W        W90410  18.140  30.633  13.733
17343W        W90411  38.030  43.740   2.859
17344W        W90412  12.865  16.150   0.736
17345W        W90413   7.934  24.052  12.442
17346W        W90414  36.709  37.852   2.486
17347W        W90415  15.319  23.753  14.384
17348W        W90416  27.701  12.167  13.319
17349W        W90417  34.057  28.714   2.949
17350W        W90418  43.429  14.831   0.183
17351W        W90419   9.694  17.222   2.424
17352W        W90420  13.147  24.619   2.329
17353W        W90421   2.144   9.256   4.351
17354W        W90422   5.178  28.049  12.589
17355W        W90423  36.997  29.581   4.721
17356W        W90424  19.822  25.304  11.153
17357W        W90425   4.760  34.106  13.945
17358W        W90426  25.526   2.095  10.892
17359W        W90427  38.132  21.273  10.281
17360W        W90428  40.528  14.728  12.381
17361W        W90429  18.346   3.425   0.325
17362W        W90430  21.033  16.174  13.409
17363W        W90431   1.850  20.021  13.167
17364W        W90432  28.376  30.178  12.428
17365W        W90433   5.413  21.089   0.811
17366W        W90434  28.420  18.337  12.043
17367W        W90435  38.664  20.132   0.284
17368W        W90436  40.393   0.295  13.320
17369W        W90437   1.214  22.523   2.660
17370W        W90438  40.031  22.234  12.877
17371W        W90439  31.184  14.247  12.409
17372W        W90440  43.000  44.303   0.930
17373W        W90441  14.744  10.132  13.067
17374W        W90442  28.877   9.859  14.605
17375W        W90443  17.993   4.757   4.337
17376W        W90444  20.030  41.919  13.691
17377W        W90445   6.170  34.974   0.396
17378W        W90446  17.327  32.120   0.900
17379W        W90447  15.218   4.483  12.536
17380W        W90448  42.168  35.016  14.014
17381W        W90449  44.443   9.002   1.185
17382W        W90450  24.252  35.252  12.817
17383W        W90451   5.573   3.369   0.990
17384W        W90452  29.051  24.437   0.103
17385W        W90453  44.606  33.868  14.722
17386W        W90454  13.177  13.827  11.058
17387W        W90455  12.254  30.585   2.279
17388W        W90456  42.504   8.136  13.926
17389W        W90457  27.842  33.130   1.859
17390W        W90458  14.108  20.159  14.754
17391W        W90459  14.067  10.027   1.012
17392W        W90460  37.396   4.295  12.203
17393W        W90461  33.961   8.949   2.181
17394W        W90462  32.899  17.576   2.815
17395W        W90463  40.404  30.356   3.154
17396W        W90464  41.966  12.388   1.366
17397W        W90465   1.916   2.382   0.624
17398W        W90466  31.043  12.654   0.316
17399W        W90467   6.056   2.866  10.657
17400W        W90468  31.599  35.524  14.267
17401W        W90469  10.570  19.782   2.347
17402W        W90470  23.101  21.002  14.279
17403W        W90471  18.354  25.101   4.576
17404W        W90472  11.953  27.701  13.041
17405W        W90473  38.413  21.594   1.743
17406W        W90474  24.539  19.237  14.852
17407W        W90475   2.475   5.310   3.205
17408W        W90476  21.474  13.109  13.416
17409W        W90477  32.954   3.488  11.856
17410W        W90478  13.147  21.612  14.681
17411W        W90479  25.591  29.247   1.834
17412W        W90480  14.815  29.047  14.888
17413W        W90481  24.209   1.773  10.542
17414W        W90482  31.816   4.837  12.123
17415W        W90483  23.211  40.402   1.285
17416W        W90484   0.996  21.574  10.631
17417W        W90485  39.962  23.599  12.244
17418W        W90486  13.262  32.207  13.558
17419W        W90487  27.885  19.978  10.697
17420W        W90488  20.580   1.627  12.173
17421W        W90489  40.056  12.420   3.169
17422W        W90490  17.146  34.073  11.569
17423W        W90491  21.096  41.403  11.055
17424W        W90492   8.897  10.422  11.148
17425W        W90493  40.542  23.956   0.219
17426W        W90494  33.721  24.517   3.434
17427W        W90495  24.669  10.375  14.594
17428W        W90496  35.280   1.188   3.074
17429W        W90497  27.825  24.019   4.958
17430W        W90498  37.729   7.901   1.759
17431W        W90499   0.403  27.162   2.654
17432W        W90500  22.576   4.882   0.200
17433W        W90501   4.281   5.458   1.721
17434W        W90502  14.843  31.697   2.719
17435W        W90503   8.936  28.085  13.310
17436W        W90504   9.645  42.011   0.871
17437W        W90505  13.807   9.891   4.920
17438W        W90506  41.730  33.042   3.062
17439W        W90507  20.086  31.855   1.965
17440W        W90508  15.371   6.188   3.551
17441W        W90509  13.111   5.866   3.243
17442W        W90510  40.956   2.491   2.658
17443W        W90511  31.490  29.598   0.879
17444W        W90512   1.951  25.061  11.879
17445W        W90513  12.842  39.571  14.576
17446W        W90514  16.094  21.754   3.617
17447W        W90515  13.871  14.040  14.958
17448W        W90516  38.052  31.716  12.994
17449W        W90517   4.915  11.383   0.797
17450W        W90518  13.727  26.163   0.480
17451W        W90519  29.562   8.874   0.900
17452W        W90520  40.554  18.703  12.462
17453W        W90521   4.008   7.492  13.934
17454W        W90522  37.617  17.795  14.322
17455W        W90523  14.863  24.497   2.745
17456W        W90524   7.022  10.806  13.369
17457W        W90525  11.771   2.823   4.079
17458W        W90526  34.677   2.950  14.481
17459W        W90527  20.195  44.234   1.210
17460W        W90528   4.176  35.798   0.425
17461W        W90529   6.993  38.097   0.850
17462W        W90530   1.353  10.860  12.021
17463W        W90531   1.977  23.703  12.338
17464W        W90532  30.667  44.487   2.705
17465W        W90533  39.065  43.304   3.284
17466W        W90534  11.585  31.874   4.194
17467W        W90535  28.037   0.324   1.378
17468W        W90536  41.550  18.669  11.077
17469W        W90537  22.251  31.962  11.564
17470W        W90538  38.307  24.555   0.889
17471W        W90539  31.016   0.957   0.770
17472W        W90540  31.208  40.666   4.238
17473W        W90541   8.832  30.415  13.396
17474W        W90542  34.862  23.705   2.114
17475W        W90543  28.063   9.820  12.887
17476W        W90544  43.694  25.966  14.100
17477W        W90545  29.405  20.604   1.811
17478W        W90546  15.727  28.818   3.692
17479W        W90547  43.437  12.985  11.660
17480W        W90548  22.440   3.536   1.914
17481W        W90549  18.343  13.334  11.858
17482W        W90550   4.066  34.916   3.171
17483W        W90551  31.099  30.069  14.389
17484W        W90552  12.319  18.261   2.645
17485W        W90553  14.784  10.807   0.250
17486W        W90554  44.487  13.611  11.997
17487W        W90555  39.794  42.245   1.786
17488W        W90556  16.679  21.952   2.368
17489W        W90557   9.392  23.705   1.763
17490W        W90558  38.455  24.952   1.727
17491W        W90559  27.788  14.109   1.579
17492W        W90560  37.172  20.007  13.351
17493W        W90561  18.220  43.863   0.441
17494W        W90562   5.907   6.791   2.704
17495W        W90563   2.266  16.062   1.873
17496W        W90564   1.336  10.666  14.379
17497W        W90565   0.469   7.343   0.796
17498W        W90566   0.381   2.356  13.824
17499W        W90567  19.521  17.137   0.779
17500W        W90568  38.463  28.650  12.037
17501W        W90569  34.927   2.773   1.698
17502W        W90570  29.497  38.778   0.930
17503W        W90571  44.259  12.932   1.738
17504W        W90572  11.130  30.061  12.277
17505W        W90573   2.814  21.917  12.046
17506W        W90574  24.785  30.929   0.394
17507W        W90575   5.835  12.403   0.908
17508W        W90576  26.580  38.411   0.293
17509W        W90577   7.199  44.863   1.295
17510W        W90578  41.107   5.734  14.034
17511W        W90579   2.775  29.318   0.705
17512W        W90580   8.522  15.899  12.561
17513W        W90581   7.436  23.951  11.161
17514W        W90582  33.535  41.945   1.877
17515W        W90583  29.592  22.508   3.876
17516W        W90584   6.416  13.162  14.204
17517W        W90585  33.545  12.805  12.123
17518W        W90586  34.118   9.767  12.141
17519W        W90587  28.698  38.450  14.107
17520W        W90588  29.521  40.309  13.983
17521W        W90589  36.004  23.047  12.035
17522W        W90590  39.421   6.713   4.482
17523W        W90591  15.358  41.234  13.221
17524W        W90592  23.590  40.980  14.420
17525W        W90593   9.793   8.712   4.524
17526W        W90594  11.731  19.969   3.188
17527W        W90595  26.626   2.748  11.395
17528W        W90596  18.792  19.653   2.427
17529W        W90597  24.116  32.518   3.393
17530W        W90598   2.763  27.432   0.730
17531W        W90599  16.779   1.385  12.417
17532W        W90600  14.553  30.476   4.439
17533W        W90601  44.879  38.332   1.888
17534W        W90602  37.813  12.716  12.077
17535W        W90603  23.873  32.690   0.318
17536W        W90604   7.803  10.758   0.348
17537W        W90605  22.221  23.620   0.435
17538W        W90606  38.607  17.100   1.485
17539W        W90607  19.169  21.679   2.275
17540W        W90608  15.808  41.837   3.672
17541W        W90609   1.443  24.085   4.156
17542W        W90610  12.855  25.954   4.932
17543W        W90611  10.933  16.071  14.897
17544W        W90612  40.345  15.868   0.435
17545W        W90613   4.004   5.701  11.990
17546W        W90614  17.258  26.632  11.422
17547W        W90615  42.757   7.721   4.191
17548W        W90616  10.702  13.184  13.280
17549W        W90617   9.344  18.288   4.179
17550W        W90618  40.848  29.574   1.711
17551W        W90619   4.167  35.850   1.953
17552W        W90620  17.672  40.974   3.362
17553W        W90621  34.261   5.714   0.297
17554W        W90622  23.408  40.473   5.107
17555W        W90623  29.524  21.751  14.212
17556W        W90624   1.943  18.037  12.484
17557W        W90625  22.563  16.442  10.702
17558W        W90626  15.807   8.761  11.082
17559W        W90627  42.498   6.187  11.993
17560W        W90628  44.402  18.093  14.025
17561W        W90629  23.172  41.030   0.815
17562W        W90630  24.721  22.129   4.584
17563W        W90631  29.435  13.027   3.789
17564W        W90632  14.657   2.977   1.749
17565W        W90633  17.087   5.768   2.139
17566W        W90634   5.831  25.593   4.591
17567W        W90635  19.436  24.068  13.765
17568W        W90636  40.850  11.187   3.760
17569W        W90637   9.276  34.306   4.571
17570W        W90638  23.277  16.037  11.762
17571W        W90639  34.218   2.715   1.317
17572W        W90640  15.383   4.287  12.106
17573W        W90641  35.614  26.498  13.816
17574W        W90642   2.464  11.837  12.126
17575W        W90643  29.386  40.101   3.626
17576W        W90644  18.377  26.570   1.753
17577W        W90645  37.462  32.061   0.198
17578W        W90646  16.730  43.974  12.328
17579W        W90647   8.860  34.566   3.774
17580W        W90648  13.860  22.136   4.727
17581W        W90649  43.524  19.918  13.763
17582W        W90650   0.476  42.778  10.532
17583W        W90651  15.633   6.577  13.328
17584W        W90652  24.528   5.009  10.606
17585W        W90653  22.887  44.748   0.961
17586W        W90654   3.883  24.371   2.370
17587W        W90655  38.604  23.534  13.489
17588W        W90656  18.717   9.332   2.844
17589W        W90657  23.458   4.778   0.927
17590W        W90658  19.738   2.316  13.017
17591W        W90659   4.832  30.160  12.435
17592W        W90660  22.562  28.106   1.727
17593W        W90661  16.722   3.343  11.163
17594W        W90662  28.064  15.327  10.594
17595W        W90663  18.742  37.111   3.645
17596W        W90664  25.049  32.613  13.651
17597W        W90665   6.150  34.949  10.643
17598W        W90666  41.343   0.710   5.376
17599W        W90667  32.465  31.126  11.594
17600W        W90668  31.928  40.231   2.776
17601W        W90669  39.406  38.786   2.405
17602W        W90670  35.919  43.494  11.814
17603W        W90671  13.572  24.597   0.218
17604W        W90672   3.836  30.915  13.875
17605W        W90673  14.743  19.887   4.480
17606W        W90674  18.775  39.952  13.493
17607W        W90675  28.296  19.746  14.743
17608W        W90676  37.442  11.274   1.043
17609W        W90677  38.256  41.539   2.682
17610W        W90678  15.712  43.024   1.741
17611W        W90679  36.812  17.439   4.132
17612W        W90680  17.764  18.224   1.883
17613W        W90681  10.819   4.170   3.814
17614W        W90682  13.588  23.520  11.458
17615W        W90683  25.073  28.111   2.229
17616W        W90684   4.381   4.761   2.191
17617W        W90685   7.415  25.061   0.947
17618W        W90686   3.526  30.744   4.225
17619W        W90687  31.577  10.878   4.635
17620W        W90688  10.684  13.871  13.896
17621W        W90689   7.360  44.021  12.117
17622W        W90690  12.828  22.544   3.741
17623W        W90691  32.427  16.249  11.462
17624W        W90692  11.112  27.997   0.328
17625W        W90693  24.560  44.046  13.809
17626W        W90694  44.855  32.515  13.278
17627W        W90695  36.191   4.802  14.236
17628W        W90696  31.431  29.919  10.702
17629W        W90697  11.143  31.120   2.632
17630W        W90698  30.828  14.332  13.014
17631W        W90699  14.799  39.458   4.636
17632W        W90700  27.433  12.307   0.121
17633W        W90701  34.356  31.986  14.928
17634W        W90702  38.564   4.002   1.684
17635W        W90703  28.618  27.435  12.066
17636W        W90704  18.317  12.250   3.752
17637W        W90705   4.426  38.030  11.094
17638W        W90706  32.934  16.116  13.600
17639W        W90707  32.813  22.252  12.794
17640W        W90708  38.943   1.928   3.610
17641W        W90709  31.983   2.414   5.011
17642W        W90710  36.451  34.088   5.182
17643W        W90711  33.377  40.303   5.015
17644W        W90712  40.474  26.203   3.737
17645W        W90713   9.130  43.137  10.168
17646W        W90714  32.533   2.924   3.217
17647W        W90715  40.825  31.483   3.202
17648W        W90716   1.847  17.111  12.636
17649W        W90717  38.596   9.421  12.480
17650W        W90718  15.322  40.276  12.975
17651W        W90719  43.917  30.523   4.144
17652W        W90720  27.869  42.134   1.800
17653W        W90721   9.258   3.777   0.267
17654W        W90722  17.640  36.589  10.547
17655W        W90723  42.785  17.771   4.155
17656W        W90724   0.776   2.417   2.936
17657W        W90725  10.197   0.922  12.036
17658W        W90726   5.899   7.141  12.800
17659W        W90727  16.292  29.077   1.484
17660W        W90728  24.605  44.942  14.787
17661W        W90729  31.924  44.707   3.120
17662W        W90730  43.233  31.361  12.494
17663W        W90731   9.742  12.719  11.537
17664W        W90732  26.386   0.726  12.873
17665W        W90733   1.894  18.696  13.004
17666W        W90734  43.793  30.080  13.419
17667W        W90735   3.996   2.385  14.819
17668W        W90736  17.872  24.410  11.100
17669W        W90737  42.015  29.400   4.553
17670W        W90738  26.019  31.982  14.575
17671W        W90739  23.119  18.539  12.918
17672W        W90740  12.602   1.382  13.822
17673W        W90741  42.867  38.014  11.179
17674W        W90742  36.379  26.414  13.815
17675W        W90743  17.220  27.618   0.008
17676W        W90744  15.158  40.268   1.788
17677W        W90745   5.647  13.692  13.803
17678W        W90746  30.946  13.778   1.909
17679W        W90747  10.219   2.878  13.038
17680W        W90748   7.988  26.694  12.874
17681W        W90749   7.341  23.710   0.257
17682W        W90750  26.010  18.352  13.516
17683W        W90751  15.854  16.530  12.547
17684W        W90752  26.537  35.526   0.938
17685W        W90753  40.449   7.856  14.508
17686W        W90754  35.594  24.385   4.058
17687W        W90755  37.093  10.913  13.626
17688W        W90756  10.523  41.350   3.366
17689W        W90757  32.287  39.478   2.582
17690W        W90758  24.211  16.643   5.040
17691W        W90759  17.847  39.495  13.857
17692W        W90760  42.898   3.088  14.284
17693W        W90761   2.009   1.004   4.230
17694W        W90762  44.227  18.530   3.691
17695W        W90763  35.510  22.113  13.008
17696W        W90764  14.856   2.469  11.149
17697W        W90765  22.948  34.529  13.346
17698W        W90766  16.090   5.794   2.326
17699W        W90767  15.601   2.371  14.719
17700W        W90768  18.354   7.142  12.020
17701W        W90769   5.561  20.932  13.826
17702W        W90770  15.102  41.328   2.674
17703W        W90771  23.472  40.405  10.665
17704W        W90772   2.191  24.178  10.499
17705W        W90773   6.242  34.702   2.376
17706W        W90774   5.428  16.791  11.197
17707W        W90775  15.971   2.372  11.052
17708W        W90776  41.620   2.911   3.687
17709W        W90777  22.540  32.423   4.057
17710W        W90778   1.368  18.281  10.661
17711W        W90779  21.801  13.105   4.309
17712W        W90780   5.166  24.160   2.748
17713W        W90781  15.863  23.232  13.834
17714W        W90782  27.679  15.668   4.198
17715W        W90783  33.861  25.185  13.969
17716W        W90784   8.352  29.139   0.241
17717W        W90785  36.790  42.439   2.174
17718W        W90786   7.314  31.166  10.638
17719W        W90787  26.434  20.082  14.906
17720W        W90788  32.671  28.020  12.049
17721W        W90789  42.758  42.706   4.214
17722W        W90790  38.488  32.015  11.640
17723W        W90791  40.581  44.850   1.987
17724W        W90792  40.417  39.877   4.285
17725W        W90793   2.426   1.030  13.279
17726W        W90794  43.283  15.229   3.234
17727W        W90795  20.904  20.043   1.830
17728W        W90796   5.390  29.608  14.542
17729W        W90797   7.206   4.684   3.798
17730W        W90798  21.158  16.768  13.093
17731W        W90799   1.487  37.344  12.916
17732W        W90800   7.404   1.457   0.510
17733W        W90801  18.822  29.510  14.458
17734W        W90802   4.169  44.889  13.490
17735W        W90803  27.065  22.549  10.259
17736W        W90804   5.421   8.728   2.122
17737W        W90805  38.583  24.972   0.914
17738W        W90806  33.968  15.075  12.176
17739W        W90807  27.126   9.005  12.038
17740W        W90808   4.752  20.757  11.013
17741W        W90809  41.582  35.220  11.157
17742W        W90810  35.692  35.817   0.377
17743W        W90811  32.802  23.867   1.326
17744W        W90812  40.336  29.795  11.448
17745W        W90813  42.826   1.571   2.811
17746W        W90814  39.638   1.789  12.071
17747W        W90815  35.418  32.617   0.823
17748W        W90816   7.838  11.713   5.024
17749W        W90817  15.657  39.224  13.483
17750W        W90818  44.361  40.391   4.487
17751W        W90819  39.029  35.728   0.802
17752W        W90820  17.044  34.645   2.691
17753W        W90821   0.279  18.062   3.341
17754W        W90822   8.431  28.042   2.865
17755W        W90823  28.873  31.910   5.039
17756W        W90824  24.583  35.290  14.851
17757W        W90825  28.971   9.106  11.432
17758W        W90826  22.770  33.683   1.282
17759W        W90827  33.882  22.452  11.492
17760W        W90828  37.447  31.534   0.040
17761W        W90829  26.862  43.075   1.841
17762W        W90830  31.636  36.978   0.249
17763W        W90831  22.239  44.673   4.095
17764W        W90832   8.979   6.802  11.029
17765W        W90833  12.470  18.208   3.134
17766W        W90834   5.668  19.846   2.767
17767W        W90835  16.148   6.759  13.352
17768W        W90836  40.455  44.821  13.494
17769W        W90837  41.043  27.229  10.690
17770W        W90838  17.531  37.679   1.326
17771W        W90839  34.586  22.048  12.473
17772W        W90840  27.340  26.475   3.098
17773W        W90841  21.595   6.204   1.137
17774W        W90842  23.834  23.609   1.212
17775W        W90843  14.633  20.322   2.514
17776W        W90844  20.649  37.582  12.157
17777W        W90845  28.492  30.464  14.586
17778W        W90846  28.964   5.846   2.670
17779W        W90847   9.303  33.263  10.343
17780W        W90848  37.739  32.038  10.615
17781W        W90849  10.746   4.224   1.712
17782W        W90850  12.029   8.776   3.364
17783W        W90851  21.529  18.468   3.664
17784W        W90852  17.811  20.139  12.092
17785W        W90853  34.930  24.078   3.913
17786W        W90854  24.445   2.445   2.763
17787W        W90855  35.903   9.340  12.039
17788W        W90856  14.759  31.127  11.693
17789W        W90857  17.920  16.064   3.772
17790W        W90858  23.152  28.737  12.932
17791W        W90859  30.558  44.010  10.644
17792W        W90860  41.932   3.760  13.465
17793W        W90861  44.816  19.158  12.519
17794W        W90862  16.984   2.855  13.038
17795W        W90863  21.157  14.169   1.290
17796W        W90864   4.087  39.447  11.662
17797W        W90865  37.204  32.556  14.854
17798W        W90866  10.746   9.172   3.179
17799W        W90867  14.378   7.330   1.856
17800W        W90868   0.224   6.216   1.886
17801W        W90869  26.129   3.730   0.954
17802W        W90870   1.126  35.958  11.881
17803W        W90871  36.084  24.092  13.551
17804W        W90872  20.724  27.736   0.390
17805W        W90873  12.616  16.524  12.421
17806W        W90874  15.784  19.291  13.879
17807W        W90875   2.018   4.825  13.915
17808W        W90876  13.064  39.038  12.798
17809W        W90877   9.626  32.529  11.167
17810W        W90878  25.632   6.282   3.610
17811W        W90879  13.725  18.127  13.600
17812W        W90880   8.528  32.764   0.905
17813W        W90881   1.561  29.371   3.237
17814W        W90882   6.814  43.281  11.988
17815W        W90883  40.864  12.687  13.481
17816W        W90884  22.709  17.676   3.755
17817W        W90885  43.465  17.134   4.112
17818W        W90886   3.969  11.959  13.225
17819W        W90887  13.079  18.623  13.040
17820W        W90888  24.060   7.182   1.888
17821W        W90889  10.412  17.547   0.907
17822W        W90890  28.551  16.991  11.592
17823W        W90891   7.530  42.373  14.096
17824W        W90892  29.460   4.836   4.709
17825W        W90893  28.200  31.584   4.145
17826W        W90894  40.404  18.504  14.448
17827W        W90895  22.466  12.760  10.220
17828W        W90896   1.866   2.372  12.819
17829W        W90897  31.476  10.092   1.726
17830W        W90898  38.432  14.734  11.234
17831W        W90899  34.108  42.186  11.583
17832W        W90900  30.674  38.144   4.195
17833W        W90901  30.054   9.855  13.951
17834W        W90902  14.561  23.007   2.679
17835W        W90903  19.262  11.658   3.765
17836W        W90904   9.880  34.527  11.903
17837W        W90905  38.715  28.994   0.328
17838W        W90906  16.362   8.928  13.468
17839W        W90907   9.740  21.716   1.626
17840W        W90908  24.052  24.581   4.234
17841W        W90909  22.439  17.799  13.394
17842W        W90910  21.212  28.926   0.124
17843W        W90911   9.088  12.768  14.229
17844W        W90912   2.015  39.075  11.577
17845W        W90913   7.292  28.581   0.441
17846W        W90914  18.829  43.927   3.287
17847W        W90915   0.375  16.995  12.599
17848W        W90916  12.408  44.959  12.876
17849W        W90917   8.588  40.564   1.918
17850W        W90918  24.001   1.152   0.502
17851W        W90919  31.669  40.856  12.402
17852W        W90920  15.369  22.458   1.769
17853W        W90921  25.465  37.416   4.574
17854W        W90922  25.709   3.290   4.056
17855W        W90923  41.631  44.115  10.364
17856W        W90924  10.366   4.394   2.361
17857W        W90925  23.508  38.005   0.315
17858W        W90926  37.166  21.607  11.885
17859W        W90927  40.466  42.534   9.802
17860W        W90928  14.636  11.539   0.732
17861W        W90929  27.180  26.229  14.897
17862W        W90930  17.241  11.296   1.527
17863W        W90931  22.851  16.678   3.767
17864W        W90932  24.659  17.106  14.284
17865W        W90933  22.681  17.840  12.573
17866W        W90934  14.751  43.486  12.452
17867W        W90935  24.126  33.345   3.674
17868W        W90936  33.602  38.387   0.783
17869W        W90937  16.289  42.266   2.212
17870W        W90938  26.236  14.644   1.680
17871W        W90939   7.881  13.579  11.940
17872W        W90940  38.571  28.094  13.002
17873W        W90941  24.128  15.117  11.655
17874W        W90942  16.093  29.101  11.530
17875W        W90943  12.229  21.228  14.780
17876W        W90944  27.255   0.067  14.562
17877W        W90945  23.192  26.639   2.919
17878W        W90946  32.435   2.534  11.939
17879W        W90947   5.781  29.082   4.218
17880W        W90948  21.015  37.803   3.653
17881W        W90949  12.504  13.480  13.476
17882W        W90950  36.930  14.706  14.489
17883W        W90951   7.700   3.821  12.837
17884W        W90952  26.009  31.022   1.245
17885W        W90953  39.439  16.644   1.798
17886W        W90954   9.637  29.650   4.016
17887W        W90955   0.836   2.584  10.941
17888W        W90956  30.511  23.868   0.381
17889W        W90957  16.852  30.086   4.197
17890W        W90958  17.312  16.559   1.728
17891W        W90959  19.574   7.549   2.331
17892W        W90960   2.353  20.966   0.498
17893W        W90961   8.741  14.129  11.663
17894W        W90962  22.122  37.323  11.184
17895W        W90963  24.179   0.182  10.444
17896W        W90964   7.406  13.934   4.927
17897W        W90965  22.256  28.100  11.974
17898W        W90966  38.385   3.253  11.620
17899W        W90967  14.625  13.549  11.654
17900W        W90968  41.368  36.128  13.993
17901W        W90969   5.949  36.288   1.737
17902W        W90970  12.455  21.001   2.790
17903W        W90971  14.830  43.214   0.277
17904W        W90972  11.374   1.943  14.878
17905W        W90973  32.359  11.422  13.695
17906W        W90974  25.597  41.581   1.453
17907W        W90975   8.123  26.104   1.377
17908W        W90976   5.220  32.484  12.567
17909W        W90977  22.859  26.362   4.228
17910W        W90978   5.910  42.738   3.304
17911W        W90979  17.449  24.248  13.012
17912W        W90980  25.562  33.785   2.138
17913W        W90981  19.005  23.606   3.618
17914W        W90982  37.989   3.470  12.558
17915W        W90983  13.360  21.005  11.574
17916W        W90984  11.754  25.705  12.110
17917W        W90985   3.306  38.746  12.674
17918W        W90986   6.621  28.138   4.564
17919W        W90987  32.056  32.890   2.424
17920W        W90988  28.160  36.632   2.425
17921W        W90989  23.429   4.721   1.843
17922W        W90990  39.457   6.926  14.324
17923W        W90991   4.711  16.243   0.892
17924W        W90992  10.792   4.720  13.825
17925W        W90993  27.420  11.329   1.693
17926W        W90994  36.450  24.740  12.019
17927W        W90995  27.563  35.729   4.832
17928W        W90996  38.945  37.478   1.854
17929W        W90997  42.572  40.109  13.800
17930W        W90998  43.203  28.705   2.915
17931W        W90999  43.925   5.759   2.926
17932W        W91000  28.046  27.440   1.801
17933W        W91001  16.146  44.259   0.776
17934W        W91002  22.710  40.281   3.282
17935W        W91003  39.505  21.563   4.045
17936W        W91004  41.926   7.893   4.676
17937W        W91005  10.109  18.395   9.791
17938W        W91006  34.735  12.188   0.740
17939W        W91007  33.556  34.027   1.648
17940W        W91008  20.480  13.760  12.632
17941W        W91009  18.764  30.640  12.019
17942W        W91010  18.499  40.428  13.617
17943W        W91011  21.971  41.022  11.079
17944W        W91012   4.010  37.617  14.395
17945W        W91013  41.361   4.276   3.120
17946W        W91014   8.321  40.372  14.559
17947W        W91015  37.331  13.924   4.296
17948W        W91016  42.549  25.202  12.037
17949W        W91017  30.898  16.555   4.108
17950W        W91018  22.021  10.872  14.762
17951W        W91019   9.882  34.022   2.841
17952W        W91020  30.160  20.851  11.865
17953W        W91021  37.271   4.822   0.991
17954W        W91022  42.898  42.969   1.291
17955W        W91023   5.932  24.869   0.805
17956W        W91024  17.824  12.239   2.135
17957W        W91025  38.348   9.377  12.006
17958W        W91026  24.283  17.763  13.819
17959W        W91027  30.419  35.249   0.939
17960W        W91028  43.978   3.653   3.379
17961W        W91029  28.228  16.597  13.986
17962W        W91030  29.450  36.987  12.629
17963W        W91031  12.862  30.917  13.385
17964W        W91032  41.229  14.720  13.280
17965W        W91033   8.277  11.154   0.940
17966W        W91034  11.667  30.640   3.771
17967W        W91035  31.910  35.056  11.002
17968W        W91036  41.260  14.301   4.086
17969W        W91037  41.943  22.153   0.500
17970W        W91038  35.366  41.299   0.899
17971W        W91039  14.278  17.101  12.941
17972W        W91040  44.986   9.031   3.220
17973W        W91041  17.142   2.370   3.706
17974W        W91042  36.579  41.517   5.096
17975W        W91043  35.793  34.581  10.662
17976W        W91044  32.462  21.727   1.844
17977W        W91045   7.337  40.258   3.215
17978W        W91046   6.513  35.948  12.800
17979W        W91047   8.118   4.215   4.197
17980W        W91048  36.838   6.424  14.762
17981W        W91049  26.142  10.735   4.165
17982W        W91050  33.043  27.623  13.575
17983W        W91051  31.907   8.800  10.601
17984W        W91052  44.123   1.967  11.455
17985W        W91053  32.535  14.610   2.405
17986W        W91054  30.426   5.680   2.171
17987W        W91055  31.988  26.170   3.210
17988W        W91056  42.010  40.075  11.574
17989W        W91057  30.267  21.556  12.976
17990W        W91058  15.789  27.646   3.217
17991W        W91059  19.585  30.086   2.898
17992W        W91060  23.986  42.989   3.660
17993W        W91061   9.259   2.429   4.418
17994W        W91062   0.270  44.502  12.388
17995W        W91063   7.198   5.747   0.010
17996W        W91064  19.608  24.625   0.275
17997W        W91065  35.472  22.594   1.482
17998W        W91066  19.690  18.443  13.291
17999W        W91067  22.009  12.376  12.477
18000W        W91068  21.941  30.314   2.135
18001W        W91069   3.141   2.747  13.971
18002W        W91070  40.847  42.216   4.129
18003W        W91071   8.864  27.755   2.259
18004W        W91072  10.157  35.424  10.859
18005W        W91073  44.055  17.620  12.941
18006W        W91074  29.031  17.848   0.232
18007W        W91075  26.497  19.757  13.013
18008W        W91076  15.288  11.546   0.327
18009W        W91077  34.382   2.162   0.122
18010W        W91078  29.007  35.880   2.631
18011W        W91079  35.364  26.973   3.334
18012W        W91080  44.915  30.631  13.383
18013W        W91081  43.158  32.826   0.713
18014W        W91082   4.745   2.051   0.903
18015W        W91083  22.205  38.150   1.715
18016W        W91084  37.082  44.736  12.183
18017W        W91085  30.496  40.345  14.877
18018W        W91086  36.458   1.951  14.246
18019W        W91087  23.698  27.217   2.238
18020W        W91088  16.045   3.943   0.663
18021W        W91089   0.925  16.859   3.286
18022W        W91090  21.465  32.016   4.621
18023W        W91091  42.066  23.986   1.808
18024W        W91092   6.292  10.301  10.967
18025W        W91093  37.860  36.023  11.359
18026W        W91094  23.143   5.145  14.501
18027W        W91095  19.679  27.585   3.312
18028W        W91096  43.013  27.421  10.206
18029W        W91097   6.678  16.807   2.737
18030W        W91098  27.622  16.138   3.428
18031W        W91099   3.559  36.881  14.934
18032W        W91100  21.758  42.299  14.329
18033W        W91101  32.146  17.509  14.751
18034W        W91102  41.258   2.455  11.188
18035W        W91103  43.027   5.187  13.646
18036W        W91104  44.213  34.614   3.400
18037W        W91105   1.191  35.947  14.317
18038W        W91106  22.545  41.501  10.457
18039W        W91107  18.076  44.240  10.219
18040W        W91108  14.801  28.668   2.970
18041W        W91109   7.838   0.215   4.067
18042W        W91110  10.312  20.471  14.630
18043W        W91111  41.827  38.386  14.802
18044W        W91112  34.984  12.071  12.068
18045W        W91113  26.072  31.897   3.349
18046W        W91114  20.952  18.467  10.272
18047W        W91115  40.503  37.446   5.095
18048W        W91116  43.032  24.019  10.579
18049W        W91117  26.112   2.235  13.920
18050W        W91118   1.395  28.696   2.815
18051W        W91119  41.741  22.074   3.565
18052W        W91120  27.739  30.103   4.291
18053W        W91121  38.498  41.786  11.892
18054W        W91122  28.686  27.129  10.351
18055W        W91123  31.152   8.783   3.664
18056W        W91124  22.020  30.671   4.753
18057W        W91125   5.375  19.022   0.784
18058W        W91126  16.354   5.987  13.007
18059W        W91127  42.313  17.071  11.825
18060W        W91128  20.564  26.470   1.319
18061W        W91129  23.299  27.603  13.829
18062W        W91130  17.824   8.645  13.551
18063W        W91131  18.029  13.411   2.444
18064W        W91132  21.264  14.702  11.916
18065W        W91133   3.708  17.009   1.436
18066W        W91134   9.814  15.924   2.862
18067W        W91135   1.528  36.273   3.723
18068W        W91136  26.392  10.905   3.724
18069W        W91137  37.333  29.927  12.678
18070W        W91138  37.442   2.542  11.850
18071W        W91139   9.892  35.581   2.813
18072W        W91140  15.221  11.391   1.906
18073W        W91141  10.799  43.589  13.794
18074W        W91142  19.292  30.042  10.483
18075W        W91143   3.821  34.099  13.846
18076W        W91144  41.831  26.622   4.123
18077W        W91145   2.759   1.212  14.473
18078W        W91146  32.548  41.469  12.747
18079W        W91147   9.119  30.495   1.782
18080W        W91148  17.888  20.166   2.364
18081W        W91149  35.981   8.453   0.344
18082W        W91150   5.302  12.366   1.322
18083W        W91151  20.319  13.394  13.125
18084W        W91152  16.021  20.094  13.370
18085W        W91153  15.607  19.837  13.086
18086W        W91154  31.654  20.605  11.216
18087W        W91155  16.979  19.784  14.430
18088W        W91156  37.318  20.910  14.948
18089W        W91157  25.119  21.194   1.393
18090W        W91158   2.671  19.885   2.469
18091W        W91159  15.816   8.017   0.069
18092W        W91160  21.085  42.956   2.423
18093W        W91161  33.813  26.144  13.938
18094W        W91162  23.447  23.257   1.020
18095W        W91163  11.274  34.668   1.873
18096W        W91164   1.084   0.233   3.613
18097W        W91165  38.552  34.426  11.530
18098W        W91166  25.827  22.491   3.509
18099W        W91167   3.957  24.265   1.820
18100W        W91168  40.836  11.538   1.404
18101W        W91169  40.420  43.744  10.756
18102W        W91170   9.434  41.977   0.386
18103W        W91171   4.883  15.375   4.964
18104W        W91172  19.738  30.398  13.994
18105W        W91173   9.594  36.999   0.712
18106W        W91174  24.993  33.012  14.802
18107W        W91175  33.292  10.520  13.495
18108W        W91176  30.462  42.735  12.926
18109W        W91177   4.843   0.235   1.793
18110W        W91178  17.035  24.746   2.228
18111W        W91179  21.659  38.653   0.011
18112W        W91180  35.221  28.032   3.747
18113W        W91181  39.965   6.499  11.661
18114W        W91182  43.004  14.711  13.310
18115W        W91183  34.596  31.651  11.544
18116W        W91184   6.959  37.296  11.717
18117W        W91185   1.353  21.065  13.724
18118W        W91186   3.858  13.865   0.933
18119W        W91187  13.504  39.581   4.271
18120W        W91188   7.398  42.467   3.819
18121W        W91189  32.917  25.640   2.266
18122W        W91190  44.776  41.379  12.896
18123W        W91191  41.344  35.932  10.767
18124W        W91192  20.589  22.744  14.859
18125W        W91193  22.955  28.132  11.135
18126W        W91194  25.819  44.922  12.088
18127W        W91195   3.935  13.542   3.396
18128W        W91196  24.981   8.391  12.807
18129W        W91197  21.763   9.760  12.528
18130W        W91198  28.329   0.755   1.290
18131W        W91199  27.006  17.172   0.891
18132W        W91200  18.696  33.573  12.876
18133W        W91201  16.571  29.350   3.573
18134W        W91202   4.306  40.585  10.721
18135W        W91203  23.224  29.943  11.576
18136W        W91204  26.105  21.303   3.256
18137W        W91205  14.880  28.002  10.379
18138W        W91206   6.843   3.265  13.866
18139W        W91207  34.162   4.184   0.189
18140W        W91208  44.358  30.925   0.841
18141W        W91209  41.269  35.343   1.252
18142W        W91210  39.334  32.754  12.812
18143W        W91211  32.436   3.941   1.778
18144W        W91212  34.849   4.608  13.264
18145W        W91213  20.324  26.159  11.235
18146W        W91214  28.971  28.090  10.602
18147W        W91215  30.918  32.435   0.735
18148W        W91216  12.790  12.887  10.935
18149W        W91217  24.242   1.328   3.602
18150W        W91218   6.631  11.609  13.845
18151W        W91219  19.514   4.187  13.794
18152W        W91220  17.770   1.900  14.254
18153W        W91221  18.207  41.594   4.985
18154W        W91222  31.689  31.335   0.399
18155W        W91223   6.801  26.681  13.548
18156W        W91224  40.638   4.978  14.849
18157W        W91225   6.232  35.708   4.525
18158W        W91226  19.088   8.598   0.327
18159W        W91227  12.667  21.853  13.785
18160W        W91228  11.707  34.816  13.896
18161W        W91229  32.509  41.502  11.443
18162W        W91230   4.631  17.601   2.919
18163W        W91231   4.317  34.431   4.541
18164W        W91232  21.820   6.854   2.337
18165W        W91233  26.224   3.466  14.173
18166W        W91234  32.620   3.669   0.885
18167W        W91235  15.119  21.542  12.555
18168W        W91236   2.758   5.242   2.773
18169W        W91237  41.872  41.283   4.386
18170W        W91238   2.968  39.842   2.385
18171W        W91239  25.565  22.914   3.312
18172W        W91240   9.847  25.752  11.520
18173W        W91241  19.652   4.411   4.552
18174W        W91242  18.526  41.332  12.136
18175W        W91243  36.277  37.048   2.916
18176W        W91244  15.439  35.436   0.622
18177W        W91245   8.708  31.548  12.593
18178W        W91246  25.010  20.111  14.041
18179W        W91247  32.615  34.146  12.834
18180W        W91248  21.995  40.942  14.458
18181W        W91249  24.738  22.375  14.449
18182W        W91250   0.474  25.095  14.532
18183W        W91251  26.118   2.830  10.702
18184W        W91252  44.969   9.488   2.999
18185W        W91253  36.059  30.619  10.508
18186W        W91254  10.706  42.052   3.708
18187W        W91255  35.000  44.964  12.448
18188W        W91256  17.812  41.788  12.573
18189W        W91257  22.227  13.289   4.517
18190W        W91258  24.170   0.326   0.967
18191W        W91259  41.962   5.930  12.011
18192W        W91260  30.265  18.919  11.517
18193W        W91261  36.348  17.600  14.807
18194W        W91262   8.687  17.204  13.078
18195W        W91263   4.290  38.958  14.882
18196W        W91264  13.760  12.008   0.025
18197W        W91265  27.689  14.096   4.159
18198W        W91266   8.255  25.171   1.438
18199W        W91267  12.695  30.992   3.782
18200W        W91268  42.225  18.099   2.336
18201W        W91269   9.153  38.951   3.883
18202W        W91270   4.626  13.263  11.699
18203W        W91271  32.597  44.054  11.435
18204W        W91272  34.439  40.290  10.694
18205W        W91273  31.584   0.725  12.759
18206W        W91274  16.042  43.139  14.871
18207W        W91275   6.229  41.892  11.080
18208W        W91276   1.618  13.566   0.526
18209W        W91277   7.166  14.334  12.536
18210W        W91278  31.427  39.907   2.191
18211W        W91279  23.038   4.365  11.922
18212W        W91280   7.273  34.104  12.401
18213W        W91281  27.486  30.009  11.998
18214W        W91282  40.655  37.404   1.400
18215W        W91283  24.444  11.923  14.770
18216W        W91284  35.795  13.212   4.224
18217W        W91285  12.567  21.976  13.282
18218W        W91286  17.225  44.425  12.052
18219W        W91287  25.988   2.844   1.696
18220W        W91288  31.884   7.407  13.858
18221W        W91289  41.848  38.973  12.201
18222W        W91290  42.543  14.983  12.409
18223W        W91291  15.814  14.137   3.696
18224W        W91292   2.481  29.559   5.100
18225W        W91293  11.752  37.569   3.228
18226W        W91294  28.889  40.964   2.775
18227W        W91295  13.144  29.698  11.361
18228W        W91296  43.359  33.247   1.420
18229W        W91297   8.748  41.325   1.140
18230W        W91298  10.464  33.674  14.899
18231W        W91299  17.595  39.557  11.059
18232W        W91300   3.980  39.800   2.323
18233W        W91301   3.778  29.856   2.304
18234W        W91302  32.646  41.376   2.618
18235W        W91303   8.106  19.798  13.131
18236W        W91304   4.030   2.735   4.286
18237W        W91305  14.152   2.122  10.850
18238W        W91306  37.688  26.016   0.279
18239W        W91307  11.924  16.704   1.239
18240W        W91308  22.377   3.457  13.988
18241W        W91309  18.139  31.963   4.585
18242W        W91310   7.191  15.598   4.827
18243W        W91311  43.375  15.211   4.499
18244W        W91312  11.759  38.931   2.774
18245W        W91313  20.035  43.494   0.453
18246W        W91314  12.921  43.884  14.310
18247W        W91315   3.743  42.512   0.807
18248W        W91316  10.206   1.250   4.581
18249W        W91317  34.916  16.951  11.120
18250W        W91318  34.734  37.539   1.661
18251W        W91319  14.743   5.433   1.053
18252W        W91320  14.792  34.153  11.935
18253W        W91321  15.897  26.471  13.113
18254W        W91322  31.526  42.518  14.442
18255W        W91323  42.427  22.460   3.225
18256W        W91324  30.902  22.318   9.963
18257W        W91325   6.535  41.918  10.664
18258W        W91326  11.430  21.233   4.157
18259W        W91327  16.643  31.879   4.786
18260W        W91328  24.677   4.256  12.886
18261W        W91329  41.476  17.778   2.884
18262W        W91330  40.848  37.941  14.206
18263W        W91331  40.912  24.074  11.656
18264W        W91332  44.968  31.392  14.820
18265W        W91333  27.476  32.154  13.470
18266W        W91334  24.228  12.656   3.234
18267W        W91335  24.048  30.568  12.509
18268W        W91336  30.549  26.504  13.856
18269W        W91337  43.897  39.055   0.284
18270W        W91338  35.650  11.753   4.817
18271W        W91339   4.301  43.398   4.214
18272W        W91340   1.278  25.938   2.375
18273W        W91341   7.071  19.192  11.895
18274W        W91342   5.314  17.258  14.538
18275W        W91343  29.553  36.738  11.340
18276W        W91344  32.408  32.892   4.034
18277W        W91345  27.839  44.819   4.669
18278W        W91346  32.543  22.090   4.911
18279W        W91347  41.792  23.526   1.743
18280W        W91348  44.550  20.109   4.152
18281W        W91349  29.066  23.472  14.471
18282W        W91350  35.122   5.361  10.523
18283W        W91351   5.844  14.367   1.429
18284W        W91352  19.011   9.837   4.199
18285W        W91353  29.373  41.908  14.036
18286W        W91354  32.489  29.900  11.072
18287W        W91355  27.721  24.015   3.368
18288W        W91356  11.648  32.370   4.352
18289W        W91357   0.890   0.346  11.631
18290W        W91358   1.546  18.030  13.446
18291W        W91359  33.876  36.289  11.125
18292W        W91360   2.743   6.793  11.867
18293W        W91361  37.738  37.857  12.401
18294W        W91362  11.843  33.035   0.598
18295W        W91363   4.142  20.988   1.900
18296W        W91364  13.601  22.813   2.219
18297W        W91365  22.136   4.399   2.192
18298W        W91366  36.486  29.117  14.832
18299W        W91367   3.014  34.007  14.527
18300W        W91368  17.906  15.930   0.450
18301W        W91369  13.401  24.151   4.989
18302W        W91370  23.641  12.747  10.963
18303W        W91371  39.378  40.160   2.859
18304W        W91372  16.761  21.624   4.623
18305W        W91373  30.169  21.968  11.122
18306W        W91374  20.533  17.569  11.992
18307W        W91375  24.732  26.916  12.096
18308W        W91376  23.613  41.338  12.346
18309W        W91377  26.672  11.512   3.303
18310W        W91378  16.262  19.871   0.002
18311W        W91379  24.614  43.910  14.697
18312W        W91380  26.496   1.968  11.632
18313W        W91381   0.783  31.857   5.163
18314W        W91382  25.316  27.141  13.984
18315W        W91383  36.830  24.620  13.573
18316W        W91384  25.045   8.236   4.682
18317W        W91385   9.993  23.939  14.597
18318W        W91386  24.040  25.943   4.917
18319W        W91387  33.844  13.673   1.379
18320W        W91388  44.986  36.488  10.991
18321W        W91389  39.379  34.038  12.811
18322W        W91390  37.518   5.946   4.189
18323W        W91391  35.857   5.212  14.161
18324W        W91392  37.537  13.172  12.986
18325W        W91393  39.935  28.416  12.526
18326W        W91394  26.685  26.395  11.006
18327W        W91395  22.833  11.735  13.373
18328W        W91396  44.307  38.343  12.376
18329W        W91397  15.328  42.304  10.691
18330W        W91398   8.383  16.369  14.637
18331W        W91399  36.880  13.045  13.414
18332W        W91400  24.011  36.404   4.696
18333W        W91401   7.818  34.570  12.507
18334W        W91402  20.087  39.862   2.334
18335W        W91403  40.954  40.944  12.584
18336W        W91404  44.758  19.507  14.943
18337W        W91405  14.702  16.823  12.864
18338W        W91406  38.362  12.751   2.895
18339W        W91407  38.101  42.322   3.426
18340W        W91408  33.931  11.638  14.307
18341W        W91409  10.329  17.790   1.910
18342W        W91410   0.351  32.086   3.289
18343W        W91411   2.154  12.828  14.543
18344W        W91412  38.353  36.869  11.938
18345W        W91413   3.826  18.644   4.708
18346W        W91414  31.960  10.527   4.869
18347W        W91415  30.935  10.863   0.028
18348W        W91416  24.991   9.204  11.530
18349W        W91417  36.833  35.636   1.268
18350W        W91418  44.355  11.083   2.766
18351W        W91419  19.240   8.126   1.130
18352W        W91420  34.457  26.651   4.917
18353W        W91421  18.082  10.587   1.891
18354W        W91422   6.402  12.551   0.937
18355W        W91423  20.514  41.350   3.625
18356W        W91424  14.574  14.837   2.124
18357W        W91425  20.642   2.701  14.396
18358W        W91426  16.349   0.056   4.972
18359W        W91427  23.670  33.370   2.380
18360W        W91428  42.736   1.732   2.289
18361W        W91429   8.780  35.342  13.885
18362W        W91430  25.192  16.850  10.937
18363W        W91431  39.094  31.865  12.407
18364W        W91432  25.141  41.625   1.742
18365W        W91433   5.900  23.508  12.896
18366W        W91434  18.196   2.453  12.018
18367W        W91435  37.111  22.500   1.890
18368W        W91436  35.018  35.030  12.785
18369W        W91437  37.692  41.441  12.376
18370W        W91438  41.755   3.919  14.851
18371W        W91439   0.426   8.947  14.643
18372W        W91440  40.955  22.244   2.338
18373W        W91441  34.361   8.645   2.266
18374W        W91442   4.357  30.753   0.391
18375W        W91443  30.522  26.011   1.924
18376W        W91444  22.382  38.646   1.641
18377W        W91445  34.068  39.461  14.896
18378W        W91446  44.845  41.514  13.850
18379W        W91447  21.380   6.026  13.251
18380W        W91448  36.427  23.174   3.674
18381W        W91449  33.532   0.251  11.377
18382W        W91450  15.614  11.742  12.079
18383W        W91451  42.559   0.445   2.616
18384W        W91452  20.708  44.261   1.406
18385W        W91453  31.108  14.912   4.166
18386W        W91454  23.451   5.747  10.414
18387W        W91455  33.652   6.852  10.682
18388W        W91456   7.241  17.159  14.847
18389W        W91457  38.293  11.879   0.683
18390W        W91458   4.341  22.135  11.482
18391W        W91459  30.069  43.084   0.998
18392W        W91460  16.814  32.137   0.968
18393W        W91461  30.625  43.497  11.314
18394W        W91462   1.484  38.959  10.669
18395W        W91463  37.014  10.268   0.394
18396W        W91464   5.249  13.870   2.888
18397W        W91465  26.507   6.304   3.936
18398W        W91466  43.480   5.923  10.145
18399W        W91467  42.961  35.822  14.673
18400W        W91468  27.219   4.805   2.899
18401W        W91469  16.934  26.399   0.880
18402W        W91470  37.604   9.190   3.445
18403W        W91471  43.752   3.269  14.313
18404W        W91472  15.710  35.094  11.499
18405W        W91473  40.757  25.547   0.759
18406W        W91474  10.131  10.266  10.646
18407W        W91475  16.513  35.123   3.665
18408W        W91476  12.883   3.245   4.235
18409W        W91477  16.110   9.585   0.835
18410W        W91478  37.719  33.830  14.216
18411W        W91479  41.944  31.843   3.198
18412W        W91480  24.595   2.227   2.275
18413W        W91481  11.615  20.440   0.907
18414W        W91482  25.004  23.633  11.500
18415W        W91483  11.784  34.769   3.804
18416W        W91484  32.915  44.696  12.883
18417W        W91485   7.806  18.310  11.708
18418W        W91486  18.840  43.118   3.854
18419W        W91487  44.928   8.667   4.566
18420W        W91488   4.531  16.998  11.537
18421W        W91489  10.313  15.111  13.513
18422W        W91490  15.244  18.836  12.477
18423W        W91491  29.540  15.719   2.206
18424W        W91492  15.575  44.841  10.510
18425W        W91493   7.808   2.868   1.212
18426W        W91494  13.689  27.835  13.551
18427W        W91495  38.641  14.046   3.926
18428W        W91496   2.248   7.127  12.797
18429W        W91497   1.376  34.542   0.300
18430W        W91498   9.810  25.286   2.895
18431W        W91499   2.139  39.372   4.563
18432W        W91500   4.532  15.287   2.699
18433W        W91501  36.006  27.977   1.196
18434W        W91502  19.037  34.180  13.079
18435W        W91503  34.862  30.010   1.748
18436W        W91504   2.851  18.092  10.548
18437W        W91505  20.006  12.046  11.663
18438W        W91506  40.472  18.660  11.951
18439W        W91507  18.672  28.554   0.330
18440W        W91508   9.064  43.488   0.530
18441W        W91509   2.872  17.638   4.546
18442W        W91510  27.581  15.580  11.367
18443W        W91511  28.059  18.796   0.412
18444W        W91512  12.089  24.641   3.045
18445W        W91513   4.371   5.699  13.751
18446W        W91514   8.477  38.890  14.473
18447W        W91515  29.914  22.662   3.158
18448W        W91516   6.213  44.191  13.779
18449W        W91517   1.782  16.226  11.752
18450W        W91518  19.646  30.066  14.404
18451W        W91519  31.115  23.726  12.999
18452W        W91520   5.051   6.368   3.128
18453W        W91521  42.378  25.219   4.805
18454W        W91522  23.815  31.972  11.634
18455W        W91523  27.650   2.822   1.130
18456W        W91524  33.804  31.382   3.660
18457W        W91525   9.266   9.646  13.977
18458W        W91526  36.885  40.928   2.348
18459W        W91527  43.209  43.810   2.908
18460W        W91528  15.360  22.721  14.438
18461W        W91529  28.228   3.033   3.876
18462W        W91530   6.287  27.752  11.233
18463W        W91531  15.646  33.561  12.995
18464W        W91532  26.876  10.703  11.519
18465W        W91533  40.692  28.242   0.650
18466W        W91534  43.322  34.135   0.314
18467W        W91535  14.697  10.677   1.178
18468W        W91536  41.824  15.846  11.024
18469W        W91537   7.839  33.005   3.195
18470W        W91538  32.711   7.610  13.837
18471W        W91539  44.004  41.304   3.294
18472W        W91540  35.357   3.111   1.776
18473W        W91541  33.599  20.157   3.003
18474W        W91542  39.380  21.257  13.749
18475W        W91543  29.876   9.808   0.978
18476W        W91544  24.776  32.971  12.490
18477W        W91545  37.091  44.529   4.373
18478W        W91546  27.877   0.400  10.203
18479W        W91547  43.336  17.186  12.988
18480W        W91548   7.879  39.821   2.824
18481W        W91549  33.448  15.999   0.401
18482W        W91550  23.662  36.799   0.895
18483W        W91551  17.280  43.963  12.305
18484W        W91552  26.115  15.183   0.811
18485W        W91553   8.753   3.770  12.835
18486W        W91554  21.638  26.661  12.314
18487W        W91555  20.716  37.438   5.066
18488W        W91556  19.456  26.674  12.491
18489W        W91557   8.089   1.850   2.636
18490W        W91558  25.067  10.056   3.312
18491W        W91559  24.827   2.498   0.329
18492W        W91560  37.652  39.292   4.299
18493W        W91561   6.232  41.921  11.978
18494W        W91562  42.701  28.192   0.902
18495W        W91563  38.584   8.991   2.557
18496W        W91564  26.074  32.059  14.057
18497W        W91565  35.375  44.474   4.642
18498W        W91566   0.772  10.297  10.871
18499W        W91567  25.905   3.786   4.121
18500W        W91568  34.131  28.083  14.939
18501W        W91569  15.943  18.865   4.432
18502W        W91570  33.464  34.943   1.845
18503W        W91571  14.136  13.896   3.281
18504W        W91572  42.726  22.231   2.558
18505W        W91573  37.280  36.464  13.513
18506W        W91574  34.167  27.029   0.258
18507W        W91575  25.635  16.799  13.079
18508W        W91576  27.665  26.182   4.379
18509W        W91577  27.245  35.180   4.239
18510W        W91578  27.720  30.913   1.742
18511W        W91579   0.379  32.659  12.609
18512W        W91580  18.099  44.860  13.357
18513W        W91581  10.300   2.014   1.739
18514W        W91582  25.933   9.808  14.571
18515W        W91583  34.938  40.966  10.619
18516W        W91584  35.543  18.292   2.392
18517W        W91585  42.473  24.314   5.172
18518W        W91586  29.980  37.531  12.891
18519W        W91587  34.506  12.707  10.474
18520W        W91588  41.333  10.609  12.653
18521W        W91589  20.814  37.021  12.538
18522W        W91590  33.190   7.318   1.824
18523W        W91591   6.551  20.622  13.756
18524W        W91592  42.929  36.480  12.972
18525W        W91593  26.463  20.736  11.539
18526W        W91594  29.152   7.424  10.573
18527W        W91595   5.697   5.472  13.388
18528W        W91596   6.146  24.749   1.728
18529W        W91597   0.276  16.744  12.082
18530W        W91598  23.545  37.351   4.387
18531W        W91599  18.644   0.998   3.544
18532W        W91600  18.916  24.014  11.875
18533W        W91601  36.876  26.454   0.445
18534W        W91602  23.571  36.615   2.435
18535W        W91603  13.220  34.456  14.673
18536W        W91604  29.514   7.789   3.450
18537W        W91605  44.000  43.447   1.445
18538W        W91606  37.298  12.781  14.860
18539W        W91607  33.406  11.549  12.529
18540W        W91608  40.332  32.315  10.588
18541W        W91609  42.846  37.501   2.258
18542W        W91610  19.582  37.573  14.395
18543W        W91611  33.494   3.739  11.738
18544W        W91612   2.360  22.891   4.966
18545W        W91613  37.938   7.846   0.429
18546W        W91614  29.429  38.787  12.411
18547W        W91615  36.902  28.561  14.087
18548W        W91616  33.030   5.938   0.829
18549W        W91617  28.322  44.384  14.409
18550W        W91618  24.312  27.494  11.655
18551W        W91619   6.259   7.462   5.152
18552W        W91620   7.729  26.689  14.873
18553W        W91621  29.016  15.314  12.555
18554W        W91622  16.100  29.608   3.612
18555W        W91623   6.182  18.730   4.166
18556W        W91624  25.221  18.273  14.430
18557W        W91625  16.236  17.107  13.044
18558W        W91626  35.971  36.548  13.778
18559W        W91627  33.120  18.551  14.896
18560W        W91628  41.091  26.130   2.439
18561W        W91629  24.686  34.315   4.196
18562W        W91630  25.186  26.128   0.902
18563W        W91631  32.607   5.681   2.356
18564W        W91632  15.204  33.934  12.129
18565W        W91633  25.133  43.393  10.591
18566W        W91634  34.359  43.461   2.568
18567W        W91635  13.339  15.767   1.352
18568W        W91636  10.879  22.493   4.313
18569W        W91637  18.540  31.195   2.868
18570W        W91638  22.167  32.346  10.789
18571W        W91639  15.728  30.215   1.394
18572W        W91640  19.827   2.807  13.865
18573W        W91641   7.375   0.501  14.805
18574W        W91642  30.578  24.738   4.689
18575W        W91643   7.781  29.406  10.550
18576W        W91644  12.041  22.665   2.354
18577W        W91645  44.575  16.566   3.705
18578W        W91646  25.841  17.792  14.719
18579W        W91647  37.449  11.776   1.134
18580W        W91648  37.388   6.940   2.668
18581W        W91649  21.084  11.075   3.698
18582W        W91650  34.680  24.500   3.734
18583W        W91651  12.683  29.846   4.644
18584W        W91652  22.300   5.317   3.163
18585W        W91653  20.222   8.848  14.800
18586W        W91654  10.934   9.767  13.413
18587W        W91655  16.815   0.864  14.036
18588W        W91656  44.538  34.372   1.910
18589W        W91657  36.455  25.262   1.989
18590W        W91658  13.194  33.828  11.899
18591W        W91659  27.550  31.556   2.802
18592W        W91660   6.224  24.169  14.069
18593W        W91661   3.574  31.742  14.042
18594W        W91662  20.020   3.179   3.350
18595W        W91663  17.666  15.116  10.631
18596W        W91664  37.431  21.298   4.587
18597W        W91665  33.798  36.521   2.222
18598W        W91666  13.261  17.828   1.149
18599W        W91667  24.570  30.711  11.488
18600W        W91668  17.061  34.652   3.680
18601W        W91669  25.188  28.383   1.792
18602W        W91670   0.525  13.274  11.641
18603W        W91671  33.406  17.346  13.571
18604W        W91672  19.536  25.559   0.356
18605W        W91673  24.139   8.184   2.590
18606W        W91674   7.705  43.326  13.609
18607W        W91675   1.438  35.510   4.418
18608W        W91676  31.950  31.868   2.312
18609W        W91677  40.887   0.958   2.681
18610W        W91678   8.135   9.436   1.793
18611W        W91679  33.143  22.460   0.821
18612W        W91680   3.275  34.835  13.364
18613W        W91681  19.830  13.303   4.030
18614W        W91682  44.810  28.020  10.594
18615W        W91683  28.442  21.971  10.406
18616W        W91684  32.156  18.140   1.005
18617W        W91685  20.236   8.446   4.158
18618W        W91686  25.207  12.133  14.307
18619W        W91687  34.942  29.901   2.267
18620W        W91688  35.363  10.822   2.124
18621W        W91689  23.789  21.483   0.733
18622W        W91690  26.273  30.137   0.253
18623W        W91691  18.634  26.183  14.089
18624W        W91692  13.585  14.722  13.882
18625W        W91693  16.002  25.026  14.457
18626W        W91694  40.028  27.576   3.615
18627W        W91695  29.140  31.238   0.714
18628W        W91696  20.038  30.277   3.100
18629W        W91697  38.572  16.131  12.008
18630W        W91698  38.217  32.514  13.833
18631W        W91699  34.946  23.631   4.236
18632W        W91700  37.916  41.270   0.813
18633W        W91701   1.103  13.361   0.392
18634W        W91702  37.953  27.620   4.345
18635W        W91703  39.359  24.530   4.030
18636W        W91704  38.724  38.052  11.278
18637W        W91705  23.547  30.755  12.435
18638W        W91706  28.857  34.939   3.236
18639W        W91707   3.363  39.116   4.579
18640W        W91708  41.439  14.216   1.321
18641W        W91709  16.131  12.726  13.834
18642W        W91710  28.535  13.121  12.807
18643W        W91711  16.258  27.046   0.862
18644W        W91712  36.754  25.111   1.269
18645W        W91713  11.678  38.032  12.048
18646W        W91714  10.133  28.971  13.350
18647W        W91715   7.673   7.438  13.886
18648W        W91716   2.352  33.654   0.987
18649W        W91717  36.398  17.414   1.155
18650W        W91718  15.736  18.153   4.579
18651W        W91719   6.800   7.807   2.478
18652W        W91720   8.936  42.533  11.375
18653W        W91721   5.800  24.169   2.359
18654W        W91722   8.620   4.232  11.603
18655W        W91723  30.644  26.480   2.721
18656W        W91724  26.422  41.478  14.821
18657W        W91725   5.938  24.766   3.031
18658W        W91726  29.471  19.156   3.821
18659W        W91727  16.286  29.066   4.436
18660W        W91728  12.769  31.495   4.929
18661W        W91729  38.046   3.538   4.680
18662W        W91730  34.852  41.027   4.435
18663W        W91731   7.811  41.479  10.850
18664W        W91732   3.441  41.951  11.234
18665W        W91733  12.153  16.829  14.203
18666W        W91734   3.098   0.117   4.100
18667W        W91735  44.255  22.661   1.213
18668W        W91736  17.464  40.138  14.895
18669W        W91737  43.343  26.248   3.757
18670W        W91738  41.033   2.439   4.155
18671W        W91739  24.403  31.094  13.113
18672W        W91740  15.243  24.973   1.873
18673W        W91741  10.173  15.567   1.729
18674W        W91742   7.201  28.886  13.341
18675W        W91743   6.406  35.073  14.939
18676W        W91744  41.333  15.654   4.339
18677W        W91745  37.409  14.275   3.241
18678W        W91746   3.567  24.179   0.751
18679W        W91747  41.526  39.871  12.113
18680W        W91748  35.912  41.530  10.737
18681W        W91749  13.077  10.720  13.427
18682W        W91750  22.695  13.242   0.311
18683W        W91751  38.527   3.386   4.510
18684W        W91752  16.132  33.106   4.692
18685W        W91753  23.523   4.485  11.789
18686W        W91754  35.889  23.138  13.317
18687W        W91755  21.686  23.455  12.552
18688W        W91756  42.460  10.784   4.153
18689W        W91757  35.874  35.253   5.011
18690W        W91758   7.179  30.643   2.952
18691W        W91759  35.608  23.586   3.649
18692W        W91760  12.819  17.934   4.600
18693W        W91761  33.309  26.462  13.019
18694W        W91762  20.561  23.330  13.215
18695W        W91763  42.373  30.413  13.098
18696W        W91764  39.906   6.430   4.596
18697W        W91765   5.702  22.597   3.658
18698W        W91766   7.336  16.835  13.742
18699W        W91767  21.710  22.454   3.617
18700W        W91768   6.905  15.228   2.805
18701W        W91769  27.206  17.246   2.310
18702W        W91770   8.847  17.817  14.234
18703W        W91771   9.470  43.069  14.751
18704W        W91772  40.249  13.704  13.296
18705W        W91773  26.890   6.263  12.106
18706W        W91774   6.295   9.803  11.930
18707W        W91775  22.635  36.164  11.659
18708W        W91776  32.109   7.344   0.347
18709W        W91777   3.021  27.571  10.448
18710W        W91778  37.995   2.154   2.990
18711W        W91779  44.300  35.774  14.243
18712W        W91780  27.694  10.688   0.221
18713W        W91781  30.142  31.438   3.650
18714W        W91782   1.602   9.688  13.505
18715W        W91783   6.393  14.211   4.712
18716W        W91784  20.028  41.487   1.940
18717W        W91785  36.033  29.862  11.135
18718W        W91786  38.507  35.957  12.440
18719W        W91787   5.578  35.612   2.276
18720W        W91788  15.219  25.539   0.612
18721W        W91789  36.889  34.041  10.680
18722W        W91790  38.477   4.397  13.430
18723W        W91791   2.972   3.694  11.629
18724W        W91792  22.948  21.892  13.216
18725W        W91793  26.719  27.967  14.422
18726W        W91794  36.848  33.373   0.861
18727W        W91795   0.445  23.653   0.433
18728W        W91796  10.372  44.076  11.046
18729W        W91797  18.318  19.180   4.189
18730W        W91798  30.479  17.572  14.233
18731W        W91799  40.379   9.148  12.288
18732W        W91800   9.327  30.767  10.953
18733W        W91801  15.881   8.963   2.054
18734W        W91802  38.980   6.663   4.098
18735W        W91803  20.729  12.089  12.953
18736W        W91804  18.092  38.836  11.515
18737W        W91805   4.732  30.127  14.761
18738W        W91806  28.699   7.094   2.306
18739W        W91807   4.897  29.176  13.585
18740W        W91808  26.936   4.435   0.315
18741W        W91809  42.591  22.705  13.384
18742W        W91810  16.275  28.136  12.468
18743W        W91811   9.820  36.264   0.366
18744W        W91812  27.649   6.669   2.694
18745W        W91813   8.209   6.189   3.313
18746W        W91814   7.422  20.237   1.367
18747W        W91815   7.876  32.401  14.351
18748W        W91816  44.532  26.575  14.320
18749W        W91817   7.916   0.295  14.902
18750W        W91818  33.124  15.838   3.717
18751W        W91819  28.358   7.097  12.880
18752W        W91820  44.681  24.566   4.568
18753W        W91821  40.849  18.756   1.921
18754W        W91822   2.920   2.051   4.175
18755W        W91823   9.074   4.709  10.857
18756W        W91824  37.898  17.663   3.413
18757W        W91825   9.333  30.228  11.000
18758W        W91826  40.083   3.643  10.910
18759W        W91827  16.561   2.322  14.708
18760W        W91828  16.592  13.834  11.160
18761W        W91829  27.015  21.574  12.506
18762W        W91830  31.223   7.287  14.414
18763W        W91831   5.688  10.494  14.232
18764W        W91832  26.219  24.102   1.303
18765W        W91833  12.612  11.836   0.491
18766W        W91834  37.117  32.434  11.877
18767W        W91835  44.881   2.796   4.664
18768W        W91836  28.554   8.164  11.510
18769W        W91837  12.822  29.559  13.566
18770W        W91838  28.041  15.221   2.951
18771W        W91839  43.104  18.232  13.904
18772W        W91840  17.081  16.264  12.384
18773W        W91841  11.080  25.923   2.288
18774W        W91842  41.932  34.952   2.312
18775W        W91843  26.491   4.761   4.102
18776W        W91844  15.106  29.384   1.389
18777W        W91845  35.907  41.410  14.779
18778W        W91846  26.003   1.241   4.165
18779W        W91847   3.189  38.304  11.650
18780W        W91848  34.980   1.650  11.472
18781W        W91849  33.377  38.342  13.397
18782W        W91850  23.083  16.207   5.414
18783W        W91851  13.341  29.800  11.887
18784W        W91852  18.857  25.798  12.395
18785W        W91853  12.643  40.678   1.265
18786W        W91854   2.330  32.346   3.439
18787W        W91855  12.513   4.900  12.546
18788W        W91856  37.029  41.979   2.167
18789W        W91857  14.085  26.517  14.253
18790W        W91858   6.466  22.742   4.221
18791W        W91859  17.159   3.241  14.563
18792W        W91860   2.159  20.596   3.710
18793W        W91861  16.755   8.315   2.313
18794W        W91862  29.225   4.506  14.533
18795W        W91863  39.005  41.289   3.204
18796W        W91864  21.482  17.346   4.587
18797W        W91865   6.023  26.241  14.200
18798W        W91866   8.572  25.600  11.356
18799W        W91867  12.231  29.070  13.041
18800W        W91868  17.751   5.927   2.667
18801W        W91869  29.590   0.851   3.787
18802W        W91870  30.862  13.809  11.857
18803W        W91871  34.314  35.806   1.406
18804W        W91872  41.525   3.797  10.988
18805W        W91873   6.495  42.331  14.269
18806W        W91874  35.525  35.430   3.150
18807W        W91875  40.888   8.331  10.640
18808W        W91876  25.092  14.914  13.984
18809W        W91877  21.402  31.633   1.254
18810W        W91878  13.469   4.541  11.622
18811W        W91879  43.408  41.029   3.251
18812W        W91880  35.635  17.132   4.159
18813W        W91881  20.638  29.978  11.292
18814W        W91882   5.630   9.710  11.869
18815W        W91883  20.242   9.234  14.422
18816W        W91884  13.985   7.911   3.721
18817W        W91885  31.090   7.180   0.345
18818W        W91886  22.133  15.182  10.706
18819W        W91887  37.569  11.784  14.750
18820W        W91888  23.016  14.100  13.549
18821W        W91889  43.930  42.495  11.519
18822W        W91890   6.663  32.914  12.485
18823W        W91891  13.885   5.537  11.027
18824W        W91892  29.534   7.672  11.407
18825W        W91893  31.131  19.109  10.655
18826W        W91894   8.806  28.931   0.389
18827W        W91895  34.948  12.374  14.436
18828W        W91896  30.111  41.828  13.301
18829W        W91897  20.153   1.955  10.936
18830W        W91898  34.626  10.189  10.776
18831W        W91899  18.778  18.484   0.282
18832W        W91900  38.127  33.172   1.403
18833W        W91901   6.172  14.752   0.288
18834W        W91902  12.111  14.636   3.367
18835W        W91903  11.266  29.252   2.177
18836W        W91904  31.098  16.598  12.823
18837W        W91905  22.325  11.047   0.851
18838W        W91906  11.321  23.658  11.870
18839W        W91907  34.593  33.342   4.162
18840W        W91908  41.423  14.743  12.788
18841W        W91909  38.924  26.812   1.790
18842W        W91910  20.028  22.537   3.196
18843W        W91911  35.633  32.859  11.178
18844W        W91912  28.114  20.446  10.791
18845W        W91913   8.827  33.462   5.112
18846W        W91914  19.758  29.664   2.337
18847W        W91915  14.490   0.253  14.787
18848W        W91916  43.458  44.032   1.036
18849W        W91917   7.389  37.071  14.835
18850W        W91918   1.835   6.250  13.569
18851W        W91919   2.989  30.037   2.753
18852W        W91920  31.537  14.670   0.684
18853W        W91921  39.816  11.065  14.854
18854W        W91922   4.889  28.491  10.651
18855W        W91923  25.553  13.966  11.418
18856W        W91924  25.400  25.150   0.392
18857W        W91925  36.276  28.302  12.554
18858W        W91926  40.176  22.009   0.349
18859W        W91927   8.181  21.076   3.359
18860W        W91928  23.619  39.256   5.075
18861W        W91929  39.754  30.845   2.945
18862W        W91930  21.728   8.214  12.423
18863W        W91931  25.156  15.232   1.727
18864W        W91932  34.037  44.298  12.377
18865W        W91933  43.764  23.405   3.747
18866W        W91934  17.734  25.090  12.563
18867W        W91935  34.870   3.425   0.542
18868W        W91936   1.354  22.052  10.628
18869W        W91937   7.293  41.404  10.995
18870W        W91938  33.591  20.915   3.704
18871W        W91939   2.887  36.926  14.418
18872W        W91940  25.769  26.115   4.162
18873W        W91941  17.936  12.203  14.980
18874W        W91942   2.981   6.183   1.982
18875W        W91943   4.510  38.893   4.986
18876W        W91944  12.498  25.617  14.046
18877W        W91945  28.224  37.040  11.643
18878W        W91946  27.005  17.462   2.769
18879W        W91947  41.762  36.033   2.225
18880W        W91948  41.384  16.620   4.239
18881W        W91949  32.483  32.654   0.777
18882W        W91950  11.299  31.687   1.295
18883W        W91951  11.523   8.382   1.360
18884W        W91952  15.636  22.671  13.034
18885W        W91953  37.453  29.394  14.308
18886W        W91954  12.768   3.532   1.909
18887W        W91955  28.419  37.027   0.898
18888W        W91956  20.445  12.031  13.404
18889W        W91957   4.674   8.890   4.143
18890W        W91958  35.855  35.370  13.889
18891W        W91959  11.266  25.515   4.080
18892W        W91960  28.793  14.093  12.805
18893W        W91961   7.662   7.175  14.331
18894W        W91962   4.068   3.059  13.796
18895W        W91963   1.353  43.504   3.300
18896W        W91964   1.320  15.673  12.837
18897W        W91965  20.344  43.221  13.424
18898W        W91966   2.103  42.807   0.328
18899W        W91967  41.747  30.842   4.127
18900W        W91968   8.821  34.777  14.861
18901W        W91969  38.802  38.476  11.016
18902W        W91970   0.232  25.243  14.984
18903W        W91971   0.618  21.513   4.208
18904W        W91972   0.820   0.007   0.979
18905W        W91973   4.313  18.141   0.040
18906W        W91974  10.833  28.665  11.826
18907W        W91975  11.669   0.234   3.921
18908W        W91976   6.410  33.047   0.795
18909W        W91977  44.321  36.089   4.983
18910W        W91978  17.021  12.228  14.943
18911W        W91979  44.450  34.607   0.048
18912W        W91980  27.735  20.231  11.610
18913W        W91981  30.053  20.262  11.728
18914W        W91982  25.648   7.249  12.005
18915W        W91983  25.990  13.094   1.817
18916W        W91984  35.890   4.331  11.978
18917W        W91985  33.821  41.792   1.354
18918W        W91986  18.469   1.484   4.620
18919W        W91987  37.563   0.713   2.373
18920W        W91988  27.978  32.505  11.941
18921W        W91989  32.088   3.401   2.087
18922W        W91990   2.444  15.053   0.251
18923W        W91991  29.951  16.803  14.012
18924W        W91992   3.272  22.266   4.066
18925W        W91993  10.271   2.974   0.040
18926W        W91994   9.085  24.206  13.435
18927W        W91995  30.249  39.344   1.204
18928W        W91996  22.218  27.614  13.008
18929W        W91997  41.019  13.887  12.928
18930W        W91998   4.194  30.163  11.275
18931W        W91999  29.163   5.457   3.152
18932W        W92000  42.784  16.741   4.380
18933W        W92001   3.268   1.900  10.340
18934W        W92002  25.593  41.828   1.933
18935W        W92003  26.980  35.217   1.042
18936W        W92004  33.269  29.042   1.965
18937W        W92005  28.328   7.630   0.913
18938W        W92006   9.864  26.544  13.056
18939W        W92007  34.139  10.380   4.116
18940W        W92008  14.108   6.823  10.790
18941W        W92009  12.593  32.910  14.005
18942W        W92010  22.480  39.876   0.368
18943W        W92011  10.439   5.832  10.483
18944W        W92012  38.641  26.561   4.342
18945W        W92013  12.689  30.242  11.931
18946W        W92014   5.300   9.361   0.476
18947W        W92015   5.436  24.154  14.904
18948W        W92016  24.315  35.011   3.697
18949W        W92017   8.578   1.469  10.615
18950W        W92018  33.357  39.352   1.767
18951W        W92019  26.406  25.253   1.848
18952W        W92020  33.310   7.848   1.765
18953W        W92021  42.920  21.266   0.939
18954W        W92022  18.013  27.203  10.734
18955W        W92023   8.169  19.721  14.884
18956W        W92024  27.191  43.083   2.743
18957W        W92025  29.668  15.417  11.596
18958W        W92026  26.256  44.699  11.094
18959W        W92027   7.304  10.704   1.650
18960W        W92028  32.849  33.078  13.906
18961W        W92029  18.628  42.543  14.396
18962W        W92030  26.501  16.057   1.647
18963W        W92031  21.491  28.957   3.192
18964W        W92032  19.097  34.366   0.240
18965W        W92033   4.247  20.312  13.441
18966W        W92034  27.941  34.024  11.968
18967W        W92035  31.932  35.276   1.055
18968W        W92036  31.356  15.776  14.816
18969W        W92037   3.600  35.880  11.106
18970W        W92038  35.722   4.918   4.080
18971W        W92039   5.471  32.831   0.311
18972W        W92040  34.598  38.286  11.018
18973W        W92041  37.429   9.437   1.276
18974W        W92042  21.363  25.221   0.398
18975W        W92043  35.279  37.026  11.344
18976W        W92044   3.468  22.283  10.342
18977W        W92045  28.710  20.941  14.310
18978W        W92046  37.314  24.484   4.326
18979W        W92047  29.003  24.681   2.055
18980W        W92048   9.413  11.102   4.105
18981W        W92049  18.706  18.303   3.669
18982W        W92050  12.372  16.792   1.667
18983W        W92051  30.111  16.803  10.669
18984W        W92052  11.409  28.659  12.969
18985W        W92053  21.032  11.068   4.618
18986W        W92054   8.478  42.379   2.374
18987W        W92055  33.508   2.684  10.172
18988W        W92056  40.378  18.030  13.423
18989W        W92057  27.722  13.828  14.368
18990W        W92058  31.824  36.628   4.084
18991W        W92059  15.054  11.440   4.697
18992W        W92060  42.833  28.106   4.469
18993W        W92061  44.519   3.396   4.264
18994W        W92062  37.349  35.055   1.728
18995W        W92063  38.885  42.281   3.249
18996W        W92064  42.219   2.315  11.488
18997W        W92065  44.404   9.716   2.347
18998W        W92066  22.167  38.475  13.900
18999W        W92067  16.472  17.548  13.977
19000W        W92068  19.465  15.776   3.714
19001W        W92069  26.989  37.357   1.904
19002W        W92070  16.367  16.481  12.572
19003W        W92071  44.298  18.611   1.715
19004W        W92072   8.995  40.821  13.533
19005W        W92073   0.832   1.740  10.608
19006W        W92074  21.438  41.232   5.003
19007W        W92075   6.772  30.080   0.867
19008W        W92076  30.417  34.924   5.023
19009W        W92077   2.328   4.157  11.494
19010W        W92078  13.792   2.471   1.355
19011W        W92079   5.875   9.192  10.971
19012W        W92080  40.923  44.978   5.033
19013W        W92081  28.406  12.280  13.011
19014W        W92082  25.661   2.183   2.388
19015W        W92083  28.052   1.236  11.399
19016W        W92084  34.495   8.936   1.849
19017W        W92085   6.519  15.026   4.247
19018W        W92086   3.424  14.112   3.680
19019W        W92087   2.541  34.359  11.920
19020W        W92088  16.620  32.973  12.126
19021W        W92089  28.688  18.298   2.772
19022W        W92090  38.835  41.366  11.914
19023W        W92091   6.893  39.810   0.432
19024W        W92092  39.274   6.123  11.127
19025W        W92093   4.380  38.505  11.907
19026W        W92094  21.144  41.675  11.495
19027W        W92095  19.537  30.611  14.414
19028W        W92096   8.705  17.716   0.806
19029W        W92097  37.220  37.825   2.330
19030W        W92098  15.263  14.591  11.507
19031W        W92099  38.519  35.292   4.600
19032W        W92100  41.772  12.657  12.519
19033W        W92101  44.327  36.237  14.490
19034W        W92102  34.085  39.114  12.120
19035W        W92103  21.527  28.794  14.405
19036W        W92104  32.782   8.556  13.898
19037W        W92105  32.761  35.160   1.282
19038W        W92106  36.999  19.027   0.791
19039W        W92107  20.504  14.348  11.619
19040W        W92108  41.337   1.432   2.241
19041W        W92109  42.506  28.993  11.495
19042W        W92110   2.994   1.814  13.095
19043W        W92111   9.662   7.705   2.185
19044W        W92112  30.652  36.950   3.273
19045W        W92113   3.787  22.633  13.310
19046W        W92114  38.269   6.336   1.508
19047W        W92115  26.508  27.150  12.358
19048W        W92116  27.603  11.867   0.919
19049W        W92117  23.671   1.941   0.216
19050W        W92118  28.453  10.094  11.080
19051W        W92119  12.790  39.582   2.279
19052W        W92120  33.052  37.349  10.654
19053W        W92121  26.708  30.072   1.631
19054W        W92122   3.540  39.213   0.350
19055W        W92123  24.645  37.942  12.086
19056W        W92124   9.284  21.764   3.609
19057W        W92125  17.803  31.435  12.494
19058W        W92126   3.930   6.249  12.028
19059W        W92127  29.605  19.641   3.648
19060W        W92128  12.250  16.245  11.908
19061W        W92129  22.618  27.237   1.363
19062W        W92130   4.736  44.816   0.495
19063W        W92131  44.943  10.920   1.422
19064W        W92132  22.209  41.398  14.360
19065W        W92133  16.434  16.568   3.066
19066W        W92134  40.458   0.224   3.252
19067W        W92135  13.322   2.461   3.186
19068W        W92136  20.084  22.620   0.733
19069W        W92137  35.161   6.350   0.958
19070W        W92138  24.062  16.815  13.291
19071W        W92139   0.721  41.996   4.597
19072W        W92140  10.329  42.012   1.361
19073W        W92141  23.401  23.010   4.100
19074W        W92142  44.012  35.592  12.476
19075W        W92143  38.333  44.368  14.855
19076W        W92144   9.654  25.454  14.916
19077W        W92145  38.314   6.487   9.728
19078W        W92146  27.545  38.675  12.863
19079W        W92147  12.694  21.572  10.684
19080W        W92148  11.108  33.652   4.207
19081W        W92149  13.774  39.996  14.003
19082W        W92150  24.787  28.040   1.802
19083W        W92151   1.928  10.174   0.304
19084W        W92152   5.772   2.519   2.127
19085W        W92153  21.277  17.132   0.095
19086W        W92154  11.249  12.914   1.852
19087W        W92155  27.713   9.333  10.968
19088W        W92156  22.746  32.485   3.175
19089W        W92157  34.028  27.620   4.066
19090W        W92158  27.567  20.290  12.563
19091W        W92159  34.381  16.320   2.761
19092W        W92160   1.263  44.345   2.325
19093W        W92161  14.998  36.049   3.522
19094W        W92162  11.699  25.748   3.289
19095W        W92163  12.588  27.130  14.812
19096W        W92164  21.138  12.799   2.961
19097W        W92165  41.006  25.657   2.641
19098W        W92166  24.647   4.887   2.439
19099W        W92167  32.151   5.015   3.852
19100W        W92168  16.728  11.573  11.523
19101W        W92169  32.032  19.801  13.827
19102W        W92170  30.069  44.879  14.163
19103W        W92171  37.065  37.494   0.535
19104W        W92172  35.307  28.878   0.250
19105W        W92173   2.223  23.227  12.591
19106W        W92174  38.010  28.929   2.696
19107W        W92175  40.638  25.754  13.672
19108W        W92176  22.115  41.477  11.268
19109W        W92177  38.782  35.956  11.587
19110W        W92178  36.979  39.483   0.400
19111W        W92179  26.606   6.257  11.664
19112W        W92180  41.942  29.818   3.181
19113W        W92181  42.475   9.118  10.993
19114W        W92182  18.198  12.413  13.125
19115W        W92183   2.340  10.812   2.389
19116W        W92184  32.032  17.688   2.134
19117W        W92185   5.793  11.851   2.628
19118W        W92186  19.827  40.751   3.720
19119W        W92187  24.044  29.561  12.882
19120W        W92188  41.817   7.911  12.862
19121W        W92189  32.421   5.486   1.689
19122W        W92190  14.044  15.080  13.066
19123W        W92191  30.512  42.087  14.340
19124W        W92192  26.358  17.786  14.765
19125W        W92193   8.643  42.058   5.129
19126W        W92194  33.854  14.663   0.514
19127W        W92195  14.798   5.778   1.815
19128W        W92196  20.435  42.512  12.056
19129W        W92197  15.153  17.044  13.105
19130W        W92198  18.550   2.189   1.880
19131W        W92199  13.629  14.788  12.890
19132W        W92200  27.254   1.477  12.416
19133W        W92201  22.139  14.311   1.679
19134W        W92202  13.277  26.129  11.561
19135W        W92203  36.793  17.780  11.182
19136W        W92204  18.767  41.439  13.576
19137W        W92205  19.716  24.259  13.379
19138W        W92206   9.987  38.885  12.187
19139W        W92207  18.652  36.960   2.823
19140W        W92208  11.420  31.494  10.939
19141W        W92209  12.178  13.056   0.831
19142W        W92210  22.614  41.261   0.271
19143W        W92211  17.765  44.483   1.136
19144W        W92212  26.544   3.176   4.226
19145W        W92213  21.017  33.869   0.578
19146W        W92214  11.286   5.178   3.024
19147W        W92215  19.648   7.507   3.709
19148W        W92216  17.082  38.691   4.129
19149W        W92217  33.357  33.512   2.749
19150W        W92218  13.051  10.562   1.347
19151W        W92219   1.755  37.843  14.858
19152W        W92220  21.197  44.813  10.542
19153W        W92221   4.454   2.652   0.726
19154W        W92222  16.176  12.403   0.926
19155W        W92223   1.001  24.976  14.480
19156W        W92224  44.849  13.848   3.934
19157W        W92225  27.579   3.867  14.287
19158W        W92226  33.914  34.358   0.048
19159W        W92227   1.844  10.303  13.576
19160W        W92228  10.941  21.748   2.616
19161W        W92229   7.898  24.787  14.580
19162W        W92230  14.625   0.387  12.508
19163W        W92231  36.438   6.945  10.643
19164W        W92232  12.199  40.926  10.554
19165W        W92233  41.131  21.199   4.753
19166W        W92234  22.150  30.117   0.234
19167W        W92235   2.204  29.033  14.861
19168W        W92236  43.668  36.048   0.385
19169W        W92237  11.398  21.010  14.071
19170W        W92238  27.202  25.543   1.738
19171W        W92239   8.730   5.197  14.432
19172W        W92240  10.149   5.954  12.666
19173W        W92241  22.935  24.894  14.026
19174W        W92242   8.896  32.377  10.595
19175W        W92243  33.381  25.443  14.294
19176W        W92244   0.836  13.297   1.847
19177W        W92245   2.869  22.039   2.857
19178W        W92246  37.921  39.519   1.979
19179W        W92247   8.305  24.992  13.826
19180W        W92248  31.453  37.764  11.144
19181W        W92249   7.168  42.766  13.878
19182W        W92250  10.706  16.309  11.903
19183W        W92251  16.142   0.471   4.645
19184W        W92252  41.518  37.972  13.547
19185W        W92253  15.187  27.953  11.220
19186W        W92254  25.222  32.319  11.366
19187W        W92255  18.671  24.319  10.820
19188W        W92256  15.882   5.910  13.739
19189W        W92257   4.995   7.816  12.073
19190W        W92258  41.926  17.921   3.643
19191W        W92259  29.561   0.751   0.776
19192W        W92260  42.870  36.214  11.102
19193W        W92261  28.064  27.613   4.912
19194W        W92262  33.632  24.428  10.620
19195W        W92263  22.206  19.675   4.286
19196W        W92264  32.730  10.559   3.904
19197W        W92265  17.798  39.717  14.893
19198W        W92266  43.931  26.419  14.031
19199W        W92267  43.403   8.256   0.893
19200W        W92268  10.654   0.008  13.788
19201W        W92269  11.127  38.870  11.812
19202W        W92270  44.291   5.169   1.353
19203W        W92271  44.655  26.710   0.316
19204W        W92272  37.087  29.092   2.792
19205W        W92273  18.623  41.095   0.750
19206W        W92274  31.863  26.534   4.572
19207W        W92275   9.886   9.429  12.716
19208W        W92276  41.121  25.570  13.560
19209W        W92277  40.364   5.107  10.753
19210W        W92278  41.986   8.161   2.845
19211W        W92279   3.862   4.707   1.023
19212W        W92280  17.181  21.551  12.901
19213W        W92281   3.225  20.815  13.050
19214W        W92282   0.514  40.918  13.083
19215W        W92283  38.792  44.770  11.587
19216W        W92284  34.055  29.535   2.945
19217W        W92285  22.745  28.421  14.364
19218W        W92286   3.801  12.919   4.578
19219W        W92287  29.612   5.222   3.225
19220W        W92288  31.909   2.923   4.854
19221W        W92289  19.256   2.191   0.279
19222W        W92290  34.427   4.429  10.584
19223W        W92291  27.504  39.210   3.689
19224W        W92292  13.750  29.648   0.287
19225W        W92293  22.219  23.213  11.933
19226W        W92294  20.589  30.963  12.214
19227W        W92295  17.611  44.977  13.435
19228W        W92296  30.436  23.545   2.153
19229W        W92297  39.299  44.156   4.572
19230W        W92298   3.438  30.505  13.776
19231W        W92299  23.638  15.706   0.896
19232W        W92300  21.759  38.377   2.844
19233W        W92301  31.865  40.146  14.963
19234W        W92302  28.663  38.406  10.698
19235W        W92303  10.095  20.758  13.944
19236W        W92304  32.525  37.536  12.887
19237W        W92305  35.094   5.186   1.459
19238W        W92306  43.264  43.497  14.506
19239W        W92307  38.982  35.795   3.650
19240W        W92308  13.692   5.974  12.089
19241W        W92309  17.807   2.446  13.145
19242W        W92310   3.498  37.433  10.223
19243W        W92311   7.850  38.540  12.900
19244W        W92312  17.256  21.097   1.403
19245W        W92313  33.860   4.407  12.413
19246W        W92314   1.805  44.960   2.362
19247W        W92315  35.089   8.805  13.866
19248W        W92316  25.457  43.589  12.441
19249W        W92317   9.587  28.340  13.413
19250W        W92318   4.847  28.475   1.331
19251W        W92319  23.142  23.158   3.015
19252W        W92320   1.495   6.335   2.328
19253W        W92321  38.431  23.247   0.873
19254W        W92322  32.071  39.397   2.110
19255W        W92323  18.423  25.592   2.614
19256W        W92324  20.747  25.500  10.734
19257W        W92325  33.520  11.135   1.205
19258W        W92326  16.087   2.540  14.022
19259W        W92327  37.121   6.977  12.382
19260W        W92328  21.564   5.360   0.515
19261W        W92329  38.341  38.038   2.299
19262W        W92330  34.265  24.963  11.155
19263W        W92331  19.569  35.202   4.103
19264W        W92332  24.799  36.170  12.045
19265W        W92333  23.683   5.183  14.476
19266W        W92334   6.800   1.636   4.198
19267W        W92335  34.942   4.278  14.930
19268W        W92336  44.748  31.513  12.360
19269W        W92337  43.233  16.662  14.337
19270W        W92338  33.846  25.097   4.624
19271W        W92339   8.731   2.431  13.515
19272W        W92340  11.555  44.772  14.467
19273W        W92341  32.281  19.304  13.713
19274W        W92342  18.388   2.978   1.548
19275W        W92343  10.483  16.967   3.666
19276W        W92344   6.425  15.675  12.015
19277W        W92345  20.910  20.049   3.638
19278W        W92346  43.945   1.366   3.350
19279W        W92347  40.757  18.827   3.918
19280W        W92348  10.318   6.454  11.147
19281W        W92349  10.248   1.558   4.998
19282W        W92350   1.841   9.626   4.096
19283W        W92351  18.007   2.962   4.892
19284W        W92352  18.449   2.365  12.535
19285W        W92353  26.528   9.361  10.150
19286W        W92354  34.290  19.056   0.660
19287W        W92355  12.181  15.249  11.013
19288W        W92356  23.514  16.257  12.248
19289W        W92357  27.345  43.941  12.892
19290W        W92358  13.118  10.679   0.325
19291W        W92359   9.463  38.864  12.058
19292W        W92360  18.706  21.206   0.223
19293W        W92361   8.166  34.991  11.639
19294W        W92362   3.726  21.911   4.629
19295W        W92363  15.335  25.370  13.946
19296W        W92364  37.416  38.012  12.054
19297W        W92365  28.987  10.815  11.483
19298W        W92366   1.986   4.794   1.883
19299W        W92367   9.181  32.597   3.694
19300W        W92368  14.003   3.974  13.845
19301W        W92369  26.186  30.446  12.021
19302W        W92370  39.592  42.857   2.738
19303W        W92371  28.895  15.543  13.013
19304W        W92372  14.818  14.966  13.409
19305W        W92373   8.664  34.969  11.543
19306W        W92374  14.618  38.279  11.509
19307W        W92375  33.320   9.345   1.775
19308W        W92376  38.536  10.957  11.161
19309W        W92377   0.537  37.947  12.578
19310W        W92378  40.267   5.120  12.865
19311W        W92379  10.758  10.428  13.489
19312W        W92380   8.020  25.225  12.075
19313W        W92381   7.357  26.679  11.518
19314W        W92382  16.457  12.735  10.626
19315W        W92383  25.161   5.759   0.306
19316W        W92384   3.945  41.103  11.043
19317W        W92385  42.282   9.321  14.860
19318W        W92386   3.050   6.400   3.801
19319W        W92387   3.960  33.598   4.993
19320W        W92388  27.418   1.359   0.256
19321W        W92389  37.514  28.995  10.731
19322W        W92390  42.869  24.108  13.452
19323W        W92391   5.787   0.252   4.642
19324W        W92392  42.553   3.357   2.307
19325W        W92393   3.450  26.525   1.844
19326W        W92394  43.830  10.099   1.725
19327W        W92395  40.730  12.273  14.939
19328W        W92396   3.874   1.660   4.965
19329W        W92397  14.513  12.655   5.074
19330W        W92398  25.969  36.073   1.383
19331W        W92399  35.001  37.363   2.554
19332W        W92400  44.426  25.361  11.886
19333W        W92401   0.340  35.999  13.468
19334W        W92402  43.355  33.367  14.572
19335W        W92403  10.679   7.882   0.587
19336W        W92404  33.819  34.005   4.199
19337W        W92405  41.531  14.240  12.955
19338W        W92406   7.220  35.812  11.976
19339W        W92407  17.941  26.493   0.471
19340W        W92408  21.794   8.517  13.061
19341W        W92409  37.878   8.874   0.957
19342W        W92410   5.380   5.792  11.261
19343W        W92411  23.263  25.604  10.525
19344W        W92412  12.351  28.509  10.750
19345W        W92413   4.237  40.847   1.298
19346W        W92414  39.953  14.613   4.342
19347W        W92415  29.118  22.748   3.757
19348W        W92416  37.056  36.533  11.699
19349W        W92417  26.564  39.481   2.247
19350W        W92418  34.504   4.936  13.472
19351W        W92419  42.610   8.122   0.456
19352W        W92420   8.471  17.463  11.533
19353W        W92421   4.546  22.212   0.454
19354W        W92422  21.751  22.159   1.828
19355W        W92423  33.527  33.097   4.424
19356W        W92424  29.343  23.617  13.942
19357W        W92425   3.809  15.605   3.738
19358W        W92426  31.027  25.652   3.297
19359W        W92427  24.207   5.755  12.051
19360W        W92428   5.623  27.132   3.141
19361W        W92429  16.370  23.656   4.569
19362W        W92430  31.686  40.148  11.931
19363W        W92431  36.229  30.685  12.757
19364W        W92432   6.196  27.477  14.983
19365W        W92433  33.194   6.680  11.999
19366W        W92434  37.493  21.978  10.981
19367W        W92435  39.844  16.030   0.400
19368W        W92436  38.512   0.439   1.441
19369W        W92437  37.984  30.553   3.836
19370W        W92438  29.989  43.618  12.909
19371W        W92439  22.485  33.866   4.200
19372W        W92440  18.726   4.903   4.644
19373W        W92441  42.765   2.746   1.755
19374W        W92442  11.831  41.251  10.378
19375W        W92443   1.918  36.933  14.658
19376W        W92444   6.801   5.297   3.274
19377W        W92445   9.892  26.664  10.641
19378W        W92446  19.375  30.075   1.681
19379W        W92447   9.699  24.804   2.681
19380W        W92448   3.020   9.731   1.235
19381W        W92449  31.882  38.845   0.016
19382W        W92450  38.005  34.101  14.835
19383W        W92451  37.911  33.874   0.883
19384W        W92452   5.256   2.317   4.293
19385W        W92453  34.356  13.695  13.316
19386W        W92454  27.027   0.923   3.746
19387W        W92455  21.671  17.124  14.205
19388W        W92456  25.473  25.665   2.517
19389W        W92457  15.542   0.272   2.849
19390W        W92458  26.825   9.706   3.204
19391W        W92459   2.743  11.617   4.598
19392W        W92460  29.428  16.195  12.402
19393W        W92461  12.847  29.112   3.885
19394W        W92462  20.277  31.642  13.428
19395W        W92463   3.885  17.232  14.971
19396W        W92464  33.552  24.671  11.071
19397W        W92465  42.263  40.102   2.620
19398W        W92466   6.296  43.237   4.706
19399W        W92467  12.283  41.471  14.430
19400W        W92468   9.942  17.333   5.348
19401W        W92469  34.016  20.812  13.490
19402W        W92470   3.037  15.744   2.357
19403W        W92471   1.893  36.424   1.687
19404W        W92472  40.610   6.232   1.841
19405W        W92473  39.836   6.771   3.125
19406W        W92474  22.112  25.139   3.606
19407W        W92475  27.167  33.593   1.704
19408W        W92476  35.928  40.501  10.703
19409W        W92477  26.793   3.092  11.744
19410W        W92478  39.739  44.492  13.794
19411W        W92479   9.229  30.553  11.394
19412W        W92480  16.072  12.868   2.425
19413W        W92481   8.076  40.035   3.742
19414W        W92482  23.639  16.433   9.661
19415W        W92483  39.525  14.698  12.222
19416W        W92484   1.271  24.229   4.626
19417W        W92485  44.295   9.696  13.882
19418W        W92486   9.278   7.616   4.587
19419W        W92487  22.730  18.241  14.323
19420W        W92488   7.181  29.647  12.436
19421W        W92489   3.047  39.255  10.839
19422W        W92490  43.658  13.266  11.154
19423W        W92491  38.457  43.026  10.716
19424W        W92492  23.430  37.882  14.794
19425W        W92493  16.030  32.447  14.459
19426W        W92494  36.119  33.055   0.399
19427W        W92495   5.912  12.877   2.668
19428W        W92496  25.947  19.673  12.982
19429W        W92497   6.732  21.403  13.508
19430W        W92498  11.693   4.530   3.898
19431W        W92499  16.770  11.628   0.174
19432W        W92500  18.261  12.926   4.555
19433W        W92501   5.443  23.350   2.894
19434W        W92502  35.809  31.136  14.917
19435W        W92503  13.513  22.050  11.744
19436W        W92504   5.534  30.929   2.876
19437W        W92505  32.950  32.795  10.738
19438W        W92506  17.193  24.600  14.873
19439W        W92507   4.746  13.136   2.251
19440W        W92508  14.297   4.329  12.389
19441W        W92509   5.411  25.037  10.577
19442W        W92510   4.646  12.833   4.630
19443W        W92511  44.655   3.202   0.893
19444W        W92512   4.362   0.727  11.137
19445W        W92513  15.227   4.894  14.966
19446W        W92514  29.350  33.898   4.460
19447W        W92515  17.811   5.249  11.000
19448W        W92516  12.731  16.648   2.786
19449W        W92517  29.466  27.605   4.043
19450W        W92518  13.722   7.056  14.523
19451W        W92519  41.535  39.418   4.034
19452W        W92520  34.206   8.190   4.641
19453W        W92521  42.473  33.232   1.162
19454W        W92522  43.646  25.100  14.910
19455W        W92523  30.928  23.585   0.338
19456W        W92524  37.041   9.240   0.366
19457W        W92525   9.876  42.774  14.994
19458W        W92526   6.837  34.624  14.948
19459W        W92527  33.462  16.678  12.110
19460W        W92528   1.395  24.821   4.867
19461W        W92529  20.129  11.658   2.486
19462W        W92530  28.983   1.380  10.974
19463W        W92531  38.514   1.017   0.294
19464W        W92532  33.605  12.571  11.669
19465W        W92533  34.880   1.349   3.673
19466W        W92534   2.660  18.690   4.632
19467W        W92535   6.233  39.826  13.801
19468W        W92536   5.017  15.332  14.278
19469W        W92537   8.880   2.898  13.708
19470W        W92538   8.763  15.255   2.377
19471W        W92539  11.169  21.716   4.775
19472W        W92540   1.368  11.291   4.111
19473W        W92541  33.308  40.599   0.903
19474W        W92542  33.813  42.818   0.437
19475W        W92543  39.624  39.914   3.750
19476W        W92544  21.650  41.956  13.929
19477W        W92545  22.602   1.703  14.052
19478W        W92546   9.254  43.016   1.987
19479W        W92547  10.347  12.840   4.802
19480W        W92548  26.236  35.980   1.836
19481W        W92549  18.463  41.457   4.539
19482W        W92550  42.838  14.610   2.796
19483W        W92551  13.242  44.267  13.427
19484W        W92552  33.118  34.899   2.218
19485W        W92553   0.366  28.039   2.676
19486W        W92554   5.799  37.789   1.719
19487W        W92555  29.827  15.640  12.869
19488W        W92556  17.285  16.650  11.219
19489W        W92557  25.662  38.312   1.836
19490W        W92558   1.579  32.029   4.745
19491W        W92559  32.265  26.603   5.154
19492W        W92560  22.015  31.469  11.438
19493W        W92561  20.496  32.587  14.846
19494W        W92562  41.918   8.942  14.874
19495W        W92563  13.198   3.284   1.640
19496W        W92564  44.341  44.706  14.000
19497W        W92565  13.925  44.155   1.224
19498W        W92566  43.282  16.252  14.799
19499W        W92567  40.510   2.812   0.052
19500W        W92568  43.827  11.103  10.595
19501W        W92569  40.080   1.775   0.870
19502W        W92570  14.627  15.327   1.235
19503W        W92571   0.785  43.164  14.755
19504W        W92572  30.708  10.113  11.876
19505W        W92573  33.970  33.804  14.956
19506W        W92574  40.914  11.681   3.872
19507W        W92575  34.022  14.301  11.542
19508W        W92576   9.448   3.717  11.536
19509W        W92577  38.051  16.293   1.867
19510W        W92578  41.912  13.227   0.688
19511W        W92579  43.688  27.513  13.152
19512W        W92580   1.320  20.740   2.482
19513W        W92581  44.042  14.695  10.996
19514W        W92582  14.168  30.867  10.657
19515W        W92583  23.816  19.611   4.675
19516W        W92584  21.721  24.182   3.681
19517W        W92585  41.479  29.854   3.996
19518W        W92586  41.811  28.554   4.818
19519W        W92587   0.993  37.637   0.491
19520W        W92588  38.940  29.581  14.249
19521W        W92589   7.339   7.417   4.066
19522W        W92590  15.290   8.370   2.867
19523W        W92591  37.743  11.170  12.098
19524W        W92592  39.515  20.771   3.169
19525W        W92593  35.042  44.670  10.813
19526W        W92594   5.346   5.285  14.520
19527W        W92595  19.066   6.239   1.474
19528W        W92596  11.968  16.466   2.379
19529W        W92597  37.435  40.041   2.826
19530W        W92598   2.825  22.624  11.498
19531W        W92599  33.907  39.767   2.735
19532W        W92600  42.023  33.041   4.529
19533W        W92601  25.622   8.706   2.218
19534W        W92602  17.410   0.385  11.783
19535W        W92603   5.286  12.918   3.274
19536W        W92604  38.842  39.972  12.619
19537W        W92605   2.607  14.915  12.989
19538W        W92606  10.671  28.292   0.287
19539W        W92607   9.180  15.604  14.889
19540W        W92608   7.891  23.374  14.358
19541W        W92609  30.570  36.542  10.610
19542W        W92610   4.458   6.466   4.055
19543W        W92611   1.282  24.460   2.604
19544W        W92612  42.151  22.778   2.912
19545W        W92613  41.880  44.858   3.724
19546W        W92614   9.834  40.962   5.038
19547W        W92615  32.372   0.316  11.545
19548W        W92616  11.339  27.748   1.843
19549W        W92617  17.203  28.240   3.213
19550W        W92618   3.461   2.304  10.616
19551W        W92619  39.860   8.228   4.718
19552W        W92620  14.730  14.578   0.816
19553W        W92621  26.037  21.157  10.873
19554W        W92622  17.506  37.056  14.728
19555W        W92623  10.047  40.278  13.889
19556W        W92624  25.019   7.024  13.487
19557W        W92625  21.716  43.945   4.072
19558W        W92626  30.847  34.455   2.328
19559W        W92627  37.775  35.361   3.789
19560W        W92628  21.888  31.141   2.659
19561W        W92629  34.087  38.460  11.605
19562W        W92630  35.546  18.789   2.582
19563W        W92631  37.920  43.281  12.905
19564W        W92632  31.153  26.460   3.521
19565W        W92633   2.003  27.357  11.504
19566W        W92634   0.855  22.131  11.615
19567W        W92635  15.017  25.259  14.451
19568W        W92636   9.842  25.536  11.048
19569W        W92637  14.753  33.846   1.804
19570W        W92638  11.621  42.402   0.285
19571W        W92639  37.368  33.461   2.775
19572W        W92640  43.439  40.283   0.304
19573W        W92641  23.567   2.950  11.759
19574W        W92642   5.893  42.053   1.235
19575W        W92643  10.841  27.693   2.472
19576W        W92644  36.851  17.709   4.579
19577W        W92645  39.043   8.401  11.583
19578W        W92646   2.542  15.780   2.213
19579W        W92647   8.848  25.163  10.519
19580W        W92648  39.336  32.081   3.172
19581W        W92649  17.542  16.837  11.664
19582W        W92650  40.731  13.371   2.214
19583W        W92651  20.690   1.909  12.613
19584W        W92652   2.910  21.117  12.807
19585W        W92653  23.036   4.473   4.339
19586W        W92654   8.207  43.832   1.028
19587W        W92655  15.212  37.916  12.255
19588W        W92656  44.745  44.020   2.715
19589W        W92657  28.420   9.751   0.838
19590W        W92658   3.847  10.976  14.232
19591W        W92659   3.375   2.465  12.162
19592W        W92660  10.529   0.679  14.353
19593W        W92661  24.296  15.707   4.027
19594W        W92662   7.784   3.886   0.228
19595W        W92663  40.224  40.767   0.184
19596W        W92664  23.736   7.405   0.696
19597W        W92665   3.691  36.992   2.676
19598W        W92666   7.295  14.080  10.556
19599W        W92667   6.354  43.817   4.768
19600W        W92668  19.637   3.418   0.976
19601W        W92669  20.635  14.570  13.000
19602W        W92670  11.546  31.162  14.834
19603W        W92671  28.398   6.662  14.829
19604W        W92672  28.411  38.594  10.275
19605W        W92673  30.361   7.333  13.022
19606W        W92674  31.691   8.311   1.880
19607W        W92675  31.455   7.449  11.565
19608W        W92676  39.712  39.554   0.831
19609W        W92677   6.687   3.430   2.181
19610W        W92678  27.666  25.040   5.058
19611W        W92679  26.147  13.588   4.085
19612W        W92680  14.021  39.050   4.565
19613W        W92681  23.159  23.994   3.849
19614W        W92682  43.827  30.917   4.626
19615W        W92683  19.500  20.560  13.838
19616W        W92684  41.928  25.415  13.123
19617W        W92685  25.515  29.550   2.276
19618W        W92686  32.799   1.802   3.681
19619W        W92687  24.687  16.442   5.051
19620W        W92688  21.657  35.736  10.748
19621W        W92689   7.404   2.726   2.266
19622W        W92690  20.102   8.406  12.066
19623W        W92691   8.206  43.517   3.845
19624W        W92692  23.449  34.553  13.465
19625W        W92693  29.248  33.806  13.629
19626W        W92694  23.639  17.110   0.430
19627W        W92695   1.571  23.247   3.386
19628W        W92696  17.679  14.571  10.637
19629W        W92697   3.473   7.756   1.787
19630W        W92698  30.205  30.502  14.492
19631W        W92699  25.407   0.172  14.368
19632W        W92700  34.866  42.360  12.549
19633W        W92701  35.065  34.495   1.713
19634W        W92702  18.676  35.613  11.072
19635W        W92703   4.265   6.165  12.839
19636W        W92704  22.124  12.737   1.791
19637W        W92705  13.406  11.207  13.440
19638W        W92706  19.342  35.705  12.916
19639W        W92707  37.190  23.894   0.981
19640W        W92708  35.058  44.884   1.290
19641W        W92709   2.275  44.468   4.383
19642W        W92710  12.701  42.348   1.198
19643W        W92711  11.776  38.624  11.202
19644W        W92712  27.085  24.979  12.472
19645W        W92713  35.891  34.741   4.917
19646W        W92714  34.608  41.983   1.875
19647W        W92715  32.348  30.551  13.048
19648W        W92716  37.887  35.852  14.594
19649W        W92717  20.633  20.004   1.388
19650W        W92718  24.221  22.586  11.094
19651W        W92719  30.909  31.874   3.263
19652W        W92720  44.012  21.167  14.017
19653W        W92721  17.211  25.543  13.396
19654W        W92722  16.725  36.068  14.840
19655W        W92723  37.070  13.370   1.412
19656W        W92724   5.138  36.808  12.413
19657W        W92725  29.684  30.463   2.311
19658W        W92726  37.315  35.572   3.048
19659W        W92727   4.688  39.050   2.366
19660W        W92728  34.032  25.029  14.482
19661W        W92729  15.198   5.257   1.233
19662W        W92730  13.886  16.256  13.348
19663W        W92731  40.907   0.701   4.582
19664W        W92732  24.074  36.993   3.761
19665W        W92733  25.630   7.786   4.931
19666W        W92734   8.364  25.536   4.646
19667W        W92735   6.382  12.202  14.553
19668W        W92736  16.710  35.606  11.664
19669W        W92737  35.861   5.350   1.464
19670W        W92738  35.989  23.673  14.319
19671W        W92739  43.387   7.837  10.789
19672W        W92740  10.544  19.008   4.247
19673W        W92741  30.145  14.377  11.099
19674W        W92742   2.748   5.679   1.403
19675W        W92743   7.323  33.966   2.182
19676W        W92744  15.121  23.105  10.771
19677W        W92745   6.720  39.213   2.734
19678W        W92746  43.385  17.572  11.445
19679W        W92747  13.573  20.201  14.775
19680W        W92748  13.666   7.787   2.917
19681W        W92749   0.955  14.563  12.039
19682W        W92750  14.086   5.306   2.279
19683W        W92751  33.907  41.524  13.439
19684W        W92752  21.823  11.485   0.079
19685W        W92753  43.321  13.865   1.422
19686W        W92754  14.053   0.425  10.207
19687W        W92755  10.450  11.905   4.598
19688W        W92756  26.519   7.668  12.992
19689W        W92757  22.466   1.257   3.533
19690W        W92758  32.540  22.602   4.745
19691W        W92759   8.248  25.043  12.515
19692W        W92760  32.763  20.801  14.571
19693W        W92761  28.692  16.100   4.736
19694W        W92762  25.582  32.118  14.292
19695W        W92763  13.868   1.570   1.492
19696W        W92764  21.152  30.475  13.334
19697W        W92765  40.411  29.483   4.235
19698W        W92766   7.823  20.201  11.461
19699W        W92767  23.144  28.057  14.050
19700W        W92768  13.643  28.980   1.722
19701W        W92769  37.592   5.762  13.117
19702W        W92770  38.352  17.092  12.667
19703W        W92771  13.264   7.665  13.409
19704W        W92772  30.347   0.776   1.327
19705W        W92773  10.835  10.904   1.674
19706W        W92774  43.195  44.905  11.139
19707W        W92775  42.969  18.104  12.002
19708W        W92776   0.565  21.632   1.422
19709W        W92777  26.504   5.289   3.196
19710W        W92778  22.745  29.610  11.474
19711W        W92779  17.327   4.654  11.953
19712W        W92780  34.902  24.224  11.990
19713W        W92781  32.518  37.280  13.357
19714W        W92782  16.670  31.379   3.749
19715W        W92783  27.702   5.130   1.303
19716W        W92784  27.186  18.194   4.425
19717W        W92785  11.998   1.752   2.881
19718W        W92786  19.127  38.533   4.218
19719W        W92787  11.875  15.317  12.583
19720W        W92788   1.262   7.562  11.145
19721W        W92789  18.856  13.222  12.381
19722W        W92790  20.329  19.112  13.371
19723W        W92791  27.546  21.215   2.334
19724W        W92792  37.527  10.184  13.502
19725W        W92793  23.219  30.428   0.035
19726W        W92794  10.942  24.502   3.935
19727W        W92795  41.288  23.828   4.628
19728W        W92796  26.193  30.347   2.420
19729W        W92797  32.452  31.662  14.804
19730W        W92798  34.147  22.568  13.548
19731W        W92799  43.498  44.392  12.008
19732W        W92800  30.083  44.290   3.441
19733W        W92801   9.656  21.227   0.680
19734W        W92802  30.924  39.163  11.487
19735W        W92803  36.523  42.006   2.383
19736W        W92804  31.757  30.410   0.402
19737W        W92805  19.802  19.656   3.281
19738W        W92806  26.645  33.445  12.510
19739W        W92807  27.257  25.666   4.056
19740W        W92808  15.687   8.269   3.178
19741W        W92809   7.330  38.590  11.556
19742W        W92810   8.779  34.495   0.759
19743W        W92811   5.847  41.368  11.035
19744W        W92812   0.982  24.789  13.853
19745W        W92813  10.579  43.489  12.960
19746W        W92814  28.418  27.469   3.931
19747W        W92815  20.997  15.060   1.505
19748W        W92816  20.038  11.723   9.978
19749W        W92817  11.172  31.227  12.465
19750W        W92818  42.867  19.120   0.083
19751W        W92819  36.718  22.424  10.710
19752W        W92820  30.463  23.015   1.290
19753W        W92821   7.398  32.700  14.841
19754W        W92822  44.479  16.533  12.446
19755W        W92823  13.807  16.908  10.857
19756W        W92824  18.188  11.123   0.941
19757W        W92825   2.334   5.927   3.760
19758W        W92826   4.883  42.924  12.793
19759W        W92827   3.331  10.064   0.382
19760W        W92828  18.276   6.554  13.630
19761W        W92829  13.240  32.131  12.595
19762W        W92830  11.013  14.554   4.879
19763W        W92831   8.809  39.054  14.107
19764W        W92832  24.383   6.001  10.850
19765W        W92833  17.603  11.896   1.791
19766W        W92834  41.869   8.780  13.017
19767W        W92835  20.578  24.675  10.997
19768W        W92836   9.189  10.622   0.976
19769W        W92837  37.406  29.512  10.751
19770W        W92838   6.234   8.576   2.298
19771W        W92839  18.646  26.509   3.982
19772W        W92840  30.038  40.245   3.289
19773W        W92841  29.882  33.302   3.751
19774W        W92842   1.988  21.016   3.017
19775W        W92843  19.559  23.975  14.245
19776W        W92844  20.596  16.805   4.714
19777W        W92845  27.823  42.771  13.959
19778W        W92846  44.857  37.866   2.860
19779W        W92847  38.787   4.368  14.846
19780W        W92848  22.671  14.522  11.132
19781W        W92849   1.317  39.479  12.300
19782W        W92850  15.168  40.337  14.911
19783W        W92851  31.950  38.513  13.603
19784W        W92852  41.795   7.702   1.297
19785W        W92853  14.021  12.094  12.430
19786W        W92854   3.414   2.245   4.905
19787W        W92855   9.267  38.518   3.055
19788W        W92856  12.205   5.208  13.088
19789W        W92857  28.740  29.618  14.474
19790W        W92858  43.425   3.637   2.826
19791W        W92859  34.365  27.147   2.033
19792W        W92860  20.999  30.934   3.653
19793W        W92861  33.015  18.572   2.849
19794W        W92862  34.166   1.263  14.006
19795W        W92863   5.283   5.338  12.565
19796W        W92864  13.151  38.066  10.759
19797W        W92865  35.587  40.993  14.907
19798W        W92866  23.467  22.282   3.135
19799W        W92867  32.706   9.992  13.880
19800W        W92868  28.139  19.095   4.781
19801W        W92869  18.577  32.499  11.096
19802W        W92870  31.017   6.741  11.002
19803W        W92871  10.748  35.967   3.322
19804W        W92872  32.466  19.180   2.216
19805W        W92873  29.962  31.008   3.887
19806W        W92874  16.206  30.317   3.102
19807W        W92875  11.787  21.021  14.998
19808W        W92876  32.872  38.045  10.557
19809W        W92877   6.484  31.947  11.475
19810W        W92878  41.717  39.919  11.177
19811W        W92879  23.454  16.368   2.263
19812W        W92880  13.401  13.018  13.331
19813W        W92881   4.847  31.117   3.745
19814W        W92882   7.679  40.513  11.158
19815W        W92883  32.353  23.731   4.130
19816W        W92884  30.977  35.083  11.315
19817W        W92885  33.793  36.426  14.469
19818W        W92886  25.148  27.491   1.408
19819W        W92887  23.302  41.728  14.828
19820W        W92888   2.812   5.036  14.426
19821W        W92889  32.396  28.738   4.182
19822W        W92890  30.596  16.573  12.654
19823W        W92891   2.769  42.464  10.972
19824W        W92892  13.293  29.334  11.664
19825W        W92893   2.283  23.720   3.272
19826W        W92894  27.690   7.921  12.416
19827W        W92895   9.379  24.925  12.919
19828W        W92896   1.774  30.894   4.477
19829W        W92897  28.474  12.619  12.141
19830W        W92898   5.840   9.155   3.813
19831W        W92899  40.348  31.708   1.666
19832W        W92900  10.269   7.401  11.176
19833W        W92901   6.375   5.999  12.496
19834W        W92902   6.638  33.321  14.489
19835W        W92903  26.998   1.333  12.866
19836W        W92904  33.328  22.559  12.863
19837W        W92905   6.220  23.151  12.647
19838W        W92906  14.115  30.759   3.743
19839W        W92907  42.049  34.024   1.286
19840W        W92908  21.209  10.316   0.978
19841W        W92909  29.077   0.042   3.616
19842W        W92910  36.998  43.805  12.629
19843W        W92911  32.452  36.065   2.149
19844W        W92912  43.961   0.784   0.399
19845W        W92913  34.955  31.889  14.408
19846W        W92914  39.502   9.182  12.495
19847W        W92915  21.135  13.178  12.023
19848W        W92916  20.194  16.790   1.348
19849W        W92917   6.650  38.760  10.652
19850W        W92918  33.603   3.818   4.783
19851W        W92919  36.559  17.249   2.729
19852W        W92920  33.950   3.440   0.716
19853W        W92921  20.579  29.757   0.480
19854W        W92922  16.021  42.848  14.413
19855W        W92923  20.669  16.379  11.608
19856W        W92924  14.288  15.570   1.527
19857W        W92925   8.766  21.273  11.684
19858W        W92926  27.423  27.644  12.916
19859W        W92927  13.716   1.670  10.662
19860W        W92928  43.306  25.853  13.238
19861W        W92929  43.780  12.676  13.504
19862W        W92930  24.586  13.289   3.823
19863W        W92931  37.401   4.516   4.655
19864W        W92932  27.269   9.332   1.721
19865W        W92933  31.583  13.198  13.485
19866W        W92934  43.519  15.131  10.868
19867W        W92935  23.413  24.744   4.164
19868W        W92936  20.672   2.983  11.947
19869W        W92937  25.901  29.568   2.607
19870W        W92938  25.211  32.608  10.956
19871W        W92939   0.874  18.784   1.432
19872W        W92940  39.121  19.285  12.881
19873W        W92941  28.205  38.770   4.213
19874W        W92942   7.645   0.532   0.286
19875W        W92943  26.121   9.822  14.091
19876W        W92944  42.613   3.810   1.726
19877W        W92945  42.090   1.272   4.700
19878W        W92946  29.878  15.789  14.928
19879W        W92947  19.798  28.570   1.781
19880W        W92948  23.119  19.545  13.825
19881W        W92949  19.284   0.039  13.278
19882W        W92950   3.223  43.747  11.700
19883W        W92951  33.550   3.299   3.588
19884W        W92952  23.440  18.130  14.896
19885W        W92953  11.444  34.372  14.076
19886W        W92954  25.490   6.404   0.894
19887W        W92955  40.484  10.110  11.180
19888W        W92956  22.523  12.656  13.013
19889W        W92957   7.705   7.573   3.279
19890W        W92958  24.426  40.356   4.972
19891W        W92959  14.855  41.793   2.236
19892W        W92960  15.486  34.086   2.270
19893W        W92961   6.493  16.738   1.744
19894W        W92962  10.140  26.945   4.274
19895W        W92963   2.038  40.306   2.277
19896W        W92964   5.821  26.711  13.989
19897W        W92965  28.482  32.454   3.603
19898W        W92966  33.635  27.211  10.690
19899W        W92967  26.489  12.226   2.961
19900W        W92968   1.006  28.529  14.475
19901W        W92969  10.778  22.758   0.740
19902W        W92970  35.467  33.325   1.299
19903W        W92971  33.004  35.585   0.538
19904W        W92972   8.123  25.340  11.244
19905W        W92973  25.463   8.498   3.009
19906W        W92974  14.584  40.859   0.542
19907W        W92975  16.836  29.525  14.670
19908W        W92976  39.295  13.239  14.108
19909W        W92977  28.596  11.765  13.237
19910W        W92978   2.492  27.062  14.798
19911W        W92979  38.342  39.347   3.557
19912W        W92980   9.203  22.134   0.392
19913W        W92981  10.694  28.404   4.643
19914W        W92982  35.619  11.708   2.643
19915W        W92983  39.251  15.151   3.759
19916W        W92984  33.212  27.649   1.398
19917W        W92985  18.651  40.880  12.389
19918W        W92986  39.515  41.570  13.060
19919W        W92987  31.002  31.493  11.083
19920W        W92988  10.061   3.789   1.422
19921W        W92989  21.273   3.789  13.827
19922W        W92990  29.626  28.140  12.966
19923W        W92991  21.008  44.831   3.680
19924W        W92992  16.858  12.739   2.661
19925W        W92993  36.820   4.113  14.630
19926W        W92994  42.215  17.016   3.639
19927W        W92995  42.044  43.163   1.387
19928W        W92996  11.727   5.689   0.375
19929W        W92997  26.008  10.365   2.862
19930W        W92998  33.336  19.273   3.267
19931W        W92999  32.157   2.213  12.415
19932W        W93000  42.486  41.420  14.229
19933W        W93001   1.983  21.048   3.532
19934W        W93002  21.509  31.473  12.922
19935W        W93003   0.985   6.684  14.276
19936W        W93004  22.680  39.349  13.034
19937W        W93005  38.818  30.637  12.858
19938W        W93006  13.726  42.830  13.771
19939W        W93007  28.503   0.318   0.401
19940W        W93008  41.721  28.267  14.877
19941W        W93009  12.778   4.954   2.158
19942W        W93010   5.824   9.603   4.787
19943W        W93011  31.539  35.971   2.246
19944W        W93012  20.578   7.248   4.250
19945W        W93013   7.393  42.350  10.770
19946W        W93014  34.565  16.344  13.533
19947W        W93015  24.424   1.921   0.909
19948W        W93016   5.816  20.532   4.816
19949W        W93017  18.638  18.259   0.973
19950W        W93018  30.480   9.283   2.451
19951W        W93019   1.260  42.483   0.731
19952W        W93020   8.271  15.404   0.069
19953W        W93021  27.629  24.502   4.722
19954W        W93022   0.758  32.335   4.213
19955W        W93023   0.207  17.212   4.551
19956W        W93024   6.735  42.420   1.199
19957W        W93025  16.316  27.888   0.544
19958W        W93026  37.480  12.878   0.829
19959W        W93027   9.209  23.781   2.885
19960W        W93028   1.659  17.815  14.996
19961W        W93029   8.883  15.223  13.476
19962W        W93030  24.956   9.752   2.636
19963W        W93031  35.527  36.116  13.501
19964W        W93032  36.374  16.254  10.691
19965W        W93033  37.461   2.879  14.854
19966W        W93034  15.539  37.405   2.277
19967W        W93035  36.578  21.611  13.839
19968W        W93036   6.683  26.980  12.453
19969W        W93037  34.098  17.092   1.781
19970W        W93038   4.435   7.505   0.250
19971W        W93039  24.602  30.006   0.048
19972W        W93040  21.620  43.264   5.584
19973W        W93041   7.570   9.299  14.486
19974W        W93042  42.262  18.820   2.863
19975W        W93043   3.233  10.587   4.547
19976W        W93044  30.076   1.451  14.521
19977W        W93045   4.450   0.773   2.903
19978W        W93046  31.635  42.438  10.507
19979W        W93047  18.497  24.136  12.135
19980W        W93048  26.861  20.099   0.797
19981W        W93049  38.496  12.278  13.110
19982W        W93050  19.126  33.953   1.025
19983W        W93051   6.644  17.153   4.550
19984W        W93052  30.274  11.604  12.015
19985W        W93053   2.983  40.432  11.566
19986W        W93054   7.638  29.147  13.279
19987W        W93055  15.645  39.916  14.573
19988W        W93056  10.393  23.158  12.413
19989W        W93057  44.741   3.440  13.453
19990W        W93058  27.151  37.482  14.741
19991W        W93059   4.072   1.304   4.089
19992W        W93060  16.745   0.923  11.603
19993W        W93061  12.581  33.480  13.928
19994W        W93062  39.929  24.129   0.311
19995W        W93063  22.483   4.381   0.896
19996W        W93064  39.457   6.408   0.778
19997W        W93065  26.908   1.964  11.917
19998W        W93066   6.095  18.087   3.155
19999W        W93067  19.777  41.318  14.783
20000W        W93068   9.215   8.301  13.632
20001W        W93069   3.066  13.311   3.656
20002W        W93070  41.495  35.570   4.629
20003W        W93071  13.171  23.412  13.487
20004W        W93072  17.063  11.642  14.252
20005W        W93073   5.507   7.242   3.517
20006W        W93074  21.311  30.270  11.414
20007W        W93075   4.898  23.264   3.722
20008W        W93076  10.928   7.696  11.700
20009W        W93077  13.844  25.367  12.033
20010W        W93078  34.277   1.511  11.995
20011W        W93079  40.994  21.730   2.179
20012W        W93080  25.742  43.290   1.231
20013W        W93081   0.613  11.204  11.411
20014W        W93082  10.562  21.575  10.593
20015W        W93083  37.749  30.013   3.705
20016W        W93084  22.554  24.461   3.251
20017W        W93085  31.976  22.027   4.124
20018W        W93086  39.330  43.461   1.326
20019W        W93087   2.988  17.420   2.378
20020W        W93088  26.163  35.637  10.620
20021W        W93089  25.995  41.444  11.668
20022W        W93090  20.009  28.080   1.896
20023W        W93091  41.899   7.411  12.876
20024W        W93092  10.513  44.190   3.331
20025W        W93093  34.652  34.353  12.100
20026W        W93094  44.755   5.888   1.276
20027W        W93095  27.070  18.799   1.891
20028W        W93096  11.102  40.399   1.367
20029W        W93097   5.204  39.141   3.409
20030W        W93098  28.487  12.974  11.744
20031W        W93099  41.650  41.056   2.242
20032W        W93100  10.308  20.941  11.672
20033W        W93101  33.488  11.149  14.849
20034W        W93102   6.920   1.786  11.232
20035W        W93103   7.701  27.670   3.033
20036W        W93104  33.754   2.881   1.487
20037W        W93105  16.077   7.537  12.492
20038W        W93106  26.934  23.637  14.935
20039W        W93107  32.146  14.080  10.786
20040W        W93108   9.858  18.606   4.901
20041W        W93109  43.040  28.768  12.366
20042W        W93110  15.813  39.629   3.075
20043W        W93111  44.759  35.141  14.955
20044W        W93112  13.214  35.596   0.010
20045W        W93113  37.269  14.001  12.423
20046W        W93114  36.347  20.563  10.813
20047W        W93115   5.355   1.233  14.806
20048W        W93116  11.209  19.208   0.811
20049W        W93117   4.829  44.295  11.152
20050W        W93118  43.210   7.390   0.640
20051W        W93119  29.711  13.904   0.348
20052W        W93120  39.588   6.829  13.818
20053W        W93121  30.985  15.492  13.508
20054W        W93122  41.594  25.864   5.127
20055W        W93123  38.276  32.494   5.031
20056W        W93124  31.385  14.737  13.322
20057W        W93125  24.559  11.280  13.431
20058W        W93126  17.541   5.525   1.265
20059W        W93127  12.790   7.769   4.431
20060W        W93128  35.455  19.816  12.065
20061W        W93129  23.013   3.258   3.255
20062W        W93130   8.714  42.495   4.366
20063W        W93131  38.885  29.068   4.763
20064W        W93132  31.113  42.348  12.453
20065W        W93133  36.136  32.183   5.024
20066W        W93134  30.026  33.871  12.480
20067W        W93135  27.748  38.606  12.389
20068W        W93136  40.030  30.986  10.471
20069W        W93137   1.306  26.825   0.551
20070W        W93138  29.550  28.663   4.521
20071W        W93139  14.625  20.066  11.058
20072W        W93140  17.080  15.222   1.894
20073W        W93141   4.280  33.834  13.955
20074W        W93142  28.109   3.185  13.111
20075W        W93143   5.395  36.996   4.187
20076W        W93144  38.458  13.778   2.171
20077W        W93145  25.483  34.635   2.313
20078W        W93146  40.426  11.281  14.514
20079W        W93147  30.918  36.671  12.174
20080W        W93148  27.164   4.946   2.397
20081W        W93149  21.522  39.964  12.020
20082W        W93150  14.475  38.599   3.264
20083W        W93151  18.467  34.828  12.570
20084W        W93152   0.459  14.399   0.665
20085W        W93153  37.952  14.459  12.968
20086W        W93154  36.284  16.536  11.184
20087W        W93155  34.865   6.812  14.030
20088W        W93156  14.254  35.443   2.997
20089W        W93157  22.979  31.127  14.304
20090W        W93158  28.924   5.234   1.886
20091W        W93159  34.628  25.983  14.355
20092W        W93160   9.432  44.233  14.504
20093W        W93161  10.199   6.259  10.671
20094W        W93162  42.286  13.135   1.039
20095W        W93163  36.375   4.762   2.262
20096W        W93164  29.617  24.486  13.292
20097W        W93165  28.470   9.325   2.931
20098W        W93166   5.628  31.627  14.873
20099W        W93167  44.724  32.485  11.843
20100W        W93168  12.807  35.451   1.669
20101W        W93169   9.192  39.981   3.229
20102W        W93170   7.849  15.100  11.075
20103W        W93171  31.866  13.788  14.485
20104W        W93172  37.750  18.771  11.945
20105W        W93173   1.474  42.495  13.679
20106W        W93174  18.644  27.333   4.509
20107W        W93175  35.966  44.964   3.201
20108W        W93176  16.517  41.617  14.991
20109W        W93177  30.561  41.844  14.814
20110W        W93178  10.262  21.154   2.758
20111W        W93179  20.440  33.521   1.860
20112W        W93180  11.342  36.256  11.982
20113W        W93181  42.981   6.312  13.771
20114W        W93182  18.844  36.366  11.972
20115W        W93183  16.356   6.251  13.825
20116W        W93184  14.621  22.340   0.322
20117W        W93185  12.740  14.081   4.420
20118W        W93186   3.727  42.287  13.891
20119W        W93187  42.926  43.439   1.521
20120W        W93188  28.224   3.457   2.726
20121W        W93189   0.995  28.501   3.087
20122W        W93190  13.473  20.183   3.288
20123W        W93191   4.273  20.857  14.376
20124W        W93192  35.638  36.411   4.364
20125W        W93193  24.981   5.954   4.267
20126W        W93194  36.882  39.801  12.639
20127W        W93195  36.222  24.442   1.814
20128W        W93196  23.659  29.431  14.272
20129W        W93197  32.890  29.205   0.508
20130W        W93198  24.822   9.902  14.851
20131W        W93199   8.931  39.372  12.907
20132W        W93200  33.200  35.088  10.789
20133W        W93201  16.872   5.173   3.928
20134W        W93202   1.437  33.863   1.938
20135W        W93203  34.388   7.088   0.673
20136W        W93204   5.849  18.057  12.174
20137W        W93205  42.058  25.149  10.428
20138W        W93206  42.586   9.783  13.306
20139W        W93207  33.871  22.107  14.729
20140W        W93208  20.846  21.244   0.476
20141W        W93209  24.796  18.329  14.804
20142W        W93210  17.915  18.150  11.145
20143W        W93211  24.931  43.000   3.630
20144W        W93212   2.303  22.031  11.866
20145W        W93213   5.432  20.491  12.986
20146W        W93214  16.808   1.845  13.048
20147W        W93215  39.865   8.221   3.747
20148W        W93216   0.950   7.274  12.477
20149W        W93217   5.797   3.169  13.894
20150W        W93218  35.667  27.988  12.874
20151W        W93219  42.928   0.284   1.803
20152W        W93220  41.361  43.244  13.139
20153W        W93221   1.408  31.539   3.292
20154W        W93222  26.480  18.034   2.282
20155W        W93223  20.657   3.929   4.213
20156W        W93224  44.876   0.020   1.750
20157W        W93225   2.134   7.490   2.832
20158W        W93226  31.685  20.466  12.467
20159W        W93227  11.437   5.282  13.510
20160W        W93228   7.978  25.633  14.519
20161W        W93229  44.413  17.071  14.068
20162W        W93230  43.984  22.818  14.229
20163W        W93231  19.216  18.115  14.672
20164W        W93232  31.251   4.544   0.231
20165W        W93233  14.565  26.013   0.910
20166W        W93234   5.800  10.910  10.688
20167W        W93235  14.876  28.266   4.060
20168W        W93236   4.454  29.926  13.414
20169W        W93237  10.395  16.978   2.800
20170W        W93238   5.284  19.794   4.326
20171W        W93239  30.043  35.769   0.316
20172W        W93240  15.641  21.751   0.729
20173W        W93241  19.642  16.405   1.373
20174W        W93242  42.979  34.626  11.578
20175W        W93243  30.028  44.639  10.304
20176W        W93244  40.580  34.312  11.085
20177W        W93245  29.790  21.460   2.815
20178W        W93246  21.593  39.600   0.710
20179W        W93247  36.494  31.499   2.481
20180W        W93248  12.837   3.230   1.248
20181W        W93249  12.931  37.282   2.595
20182W        W93250   0.901  14.876   0.024
20183W        W93251  21.887  43.803   4.546
20184W        W93252   1.827  38.618   0.362
20185W        W93253  43.283  25.107  13.362
20186W        W93254  39.634  34.760   2.040
20187W        W93255  19.080  33.526   2.335
20188W        W93256   6.926   1.468   4.684
20189W        W93257  39.767  18.197   1.369
20190W        W93258  27.044   8.462  12.025
20191W        W93259  31.511   3.135  11.468
20192W        W93260  43.985  44.509  14.852
20193W        W93261  15.060  16.144  12.516
20194W        W93262  18.540  26.135  13.064
20195W        W93263   4.107  34.303  12.322
20196W        W93264  22.693   4.780  13.813
20197W        W93265  11.106  13.623  11.280
20198W        W93266  22.056   6.394  14.772
20199W        W93267   6.415  18.999   0.009
20200W        W93268  21.298  26.692   0.798
20201W        W93269  16.754  18.281   1.788
20202W        W93270   8.650  30.692   3.684
20203W        W93271   7.439  41.456   1.450
20204W        W93272   3.685  26.151  12.041
20205W        W93273  41.188  27.994  12.316
20206W        W93274  28.724  12.274   3.586
20207W        W93275  13.266  35.746   5.088
20208W        W93276  43.834   6.469  13.852
20209W        W93277   5.593  17.581  14.853
20210W        W93278  42.353  23.901   2.203
20211W        W93279  38.028  41.722  12.095
20212W        W93280   8.625  41.888   5.619
20213W        W93281  17.836  24.684   0.916
20214W        W93282  12.229  43.664   4.799
20215W        W93283  33.423  43.457   2.999
20216W        W93284  39.227  23.699   3.677
20217W        W93285  31.615  23.583  13.684
20218W        W93286  12.483  14.328  14.369
20219W        W93287   1.029   6.225  12.974
20220W        W93288  35.407  31.018  12.404
20221W        W93289  24.540  38.322  11.139
20222W        W93290   9.526  32.565   1.872
20223W        W93291  15.296  25.882   2.001
20224W        W93292  33.478   0.663  11.073
20225W        W93293  18.112  43.263  12.522
20226W        W93294  30.101   5.216   4.527
20227W        W93295  24.059  23.555   4.356
20228W        W93296  27.707  16.065   4.945
20229W        W93297  16.642  20.297   1.684
20230W        W93298   6.020  19.528   0.777
20231W        W93299  19.726   6.992   2.350
20232W        W93300  25.134  27.655   1.960
20233W        W93301   9.591  15.789  13.281
20234W        W93302   3.426  29.966  12.501
20235W        W93303  35.460  13.686  11.468
20236W        W93304  12.560   4.107  13.830
20237W        W93305  12.118  28.476  13.341
20238W        W93306  13.267  26.677   2.656
20239W        W93307  11.937  30.649   4.259
20240W        W93308   9.088  36.412  12.229
20241W        W93309  25.708  38.910   0.238
20242W        W93310  28.819  16.101  14.295
20243W        W93311  40.447  32.652  13.928
20244W        W93312  26.471  43.102  14.008
20245W        W93313  15.235  24.478  12.816
20246W        W93314  26.515  14.861   3.280
20247W        W93315   4.521  23.074  10.672
20248W        W93316  33.102  43.777   1.172
20249W        W93317   5.985  21.121   1.636
20250W        W93318   8.027  19.491   0.325
20251W        W93319   6.393   7.667   2.207
20252W        W93320  26.680  28.731  10.730
20253W        W93321  23.677  34.158   2.826
20254W        W93322  33.425  34.069   2.167
20255W        W93323  32.014  37.459  12.282
20256W        W93324   1.336   0.364  10.599
20257W        W93325  35.877  30.171   4.232
20258W        W93326  26.688   4.448   4.600
20259W        W93327  16.712   3.830  13.855
20260W        W93328  24.498  15.055   2.933
20261W        W93329  42.970   1.271   2.174
20262W        W93330  14.744  32.089  12.385
20263W        W93331  15.742  30.101   3.227
20264W        W93332  25.380   3.446   1.566
20265W        W93333  37.811  20.984  13.027
20266W        W93334  22.726   9.789   4.940
20267W        W93335  37.355  18.224  14.517
20268W        W93336  44.983   3.317  13.893
20269W        W93337  25.729  17.760   0.731
20270W        W93338  16.767  15.813  11.104
20271W        W93339  37.129   9.740  12.552
20272W        W93340  18.639  42.034   3.098
20273W        W93341  33.932  21.680   3.345
20274W        W93342  38.607   2.340  13.316
20275W        W93343  18.758  27.038  10.569
20276W        W93344  41.425  44.924  12.540
20277W        W93345  21.618   0.073   0.789
20278W        W93346  10.643  25.137   1.185
20279W        W93347  15.256   7.497  14.277
20280W        W93348  35.132  36.419   4.457
20281W        W93349  18.392  10.245   0.931
20282W        W93350  13.045  14.567  11.880
20283W        W93351  37.468  17.031   1.831
20284W        W93352  21.260  19.649  14.191
20285W        W93353  19.604  15.237   1.961
20286W        W93354  16.038  10.254   4.630
20287W        W93355  14.268  31.669   4.789
20288W        W93356   4.484  20.386  14.426
20289W        W93357  25.702  11.697   3.116
20290W        W93358  41.419  15.015  10.197
20291W        W93359  19.210  19.061   4.004
20292W        W93360  36.350   2.713  12.865
20293W        W93361  26.285  19.573  14.935
20294W        W93362   1.971  41.025  11.106
20295W        W93363  28.775   5.512   4.370
20296W        W93364  34.725  31.228   2.373
20297W        W93365  29.221  37.222   3.694
20298W        W93366  21.259  14.231  12.179
20299W        W93367  15.600  38.696   4.972
20300W        W93368  40.059   1.863  14.435
20301W        W93369  36.497  25.164  10.593
20302W        W93370  20.652  43.916  14.199
20303W        W93371  33.179  29.017  14.008
20304W        W93372  35.903  35.475   4.169
20305W        W93373   5.229   0.466   3.532
20306W        W93374  44.862   3.975   4.985
20307W        W93375  22.527   5.401   0.192
20308W        W93376  24.125  43.751  14.848
20309W        W93377  32.733  20.381   0.675
20310W        W93378  23.648   9.906  10.649
20311W        W93379  23.610  22.987  14.613
20312W        W93380   8.444  24.683  12.875
20313W        W93381  40.781  35.465   0.801
20314W        W93382   2.419   5.338   0.380
20315W        W93383  26.782  18.708  13.867
20316W        W93384  20.108  35.890   0.398
20317W        W93385  14.533   7.921   0.147
20318W        W93386  11.624   6.234  13.251
20319W        W93387  44.019   6.488   0.227
20320W        W93388  30.232  14.347  12.010
20321W        W93389  40.766  35.416   3.199
20322W        W93390  14.692   4.937  13.547
20323W        W93391   4.394  31.879   2.251
20324W        W93392  11.932  26.073   0.832
20325W        W93393  18.139  20.135  10.614
20326W        W93394  30.402  13.879  14.330
20327W        W93395  40.685  29.667   2.871
20328W        W93396   4.972  24.427  12.067
20329W        W93397  28.388  22.578  10.261
20330W        W93398  30.114  12.116  12.133
20331W        W93399  24.844   6.229  11.813
20332W        W93400  37.125  33.586   2.210
20333W        W93401  13.040  20.600   0.873
20334W        W93402  17.247  14.800   0.607
20335W        W93403   1.786  31.550   0.516
20336W        W93404  37.141  27.535   3.061
20337W        W93405  43.944   3.438  12.886
20338W        W93406   7.283   2.762   4.577
20339W        W93407  37.405  44.945  13.021
20340W        W93408  44.061  27.108   1.860
20341W        W93409   6.222  12.338  13.596
20342W        W93410  23.690  17.667  14.811
20343W        W93411   3.270  43.405   2.630
20344W        W93412   3.541  36.245  10.334
20345W        W93413  13.152  42.286   0.896
20346W        W93414  25.114   2.971  14.497
20347W        W93415   5.250  19.474   2.853
20348W        W93416  42.520   5.509  11.038
20349W        W93417  17.815  31.455   1.210
20350W        W93418  41.116   1.889   0.071
20351W        W93419  27.524   1.807  12.088
20352W        W93420  32.933  31.454  14.977
20353W        W93421   9.338  10.620   3.213
20354W        W93422  34.138  13.333   2.223
20355W        W93423   4.718   6.880   3.271
20356W        W93424  31.045  14.821   1.890
20357W        W93425  44.166   3.725  14.001
20358W        W93426  17.210  34.010   4.125
20359W        W93427  20.593  37.975   2.349
20360W        W93428   7.326   3.450  11.805
20361W        W93429   4.027   7.834  13.524
20362W        W93430   6.215  28.725   3.201
20363W        W93431   8.885  30.402   3.258
20364W        W93432  19.626  15.359   2.861
20365W        W93433  24.089   7.589   1.446
20366W        W93434  22.736   7.930  12.014
20367W        W93435  35.396  30.109   3.522
20368W        W93436  44.397  31.124  12.942
20369W        W93437  35.134  24.622   1.746
20370W        W93438  21.205  20.766  12.998
20371W        W93439   2.017  38.871   2.049
20372W        W93440   3.659   6.769  13.445
20373W        W93441  27.290   9.522   3.316
20374W        W93442   4.920  30.864  14.346
20375W        W93443   9.600  14.545  13.324
20376W        W93444  35.395  35.086  10.848
20377W        W93445  12.808  33.968  13.869
20378W        W93446  21.229   4.905   1.263
20379W        W93447  11.424   6.772   4.489
20380W        W93448  15.132   3.449  12.771
20381W        W93449  14.536  40.817   3.440
20382W        W93450  39.397  25.007   2.143
20383W        W93451  33.035  29.974  12.884
20384W        W93452  17.772   9.399  14.684
20385W        W93453   9.874  37.295  11.003
20386W        W93454   1.399  22.039   2.626
20387W        W93455  38.314  11.575   3.591
20388W        W93456  30.503   7.354  12.138
20389W        W93457   9.172  35.678  12.279
20390W        W93458  38.571   7.234   3.085
20391W        W93459  44.510  14.724  13.312
20392W        W93460  40.289  27.884   9.854
20393W        W93461  13.692  37.354  11.587
20394W        W93462  41.552  12.659   3.852
20395W        W93463   2.283  38.583  14.455
20396W        W93464  24.996  42.280   2.375
20397W        W93465  22.194  22.879  14.888
20398W        W93466   6.008   2.703   3.047
20399W        W93467  44.820  43.953  11.480
20400W        W93468  36.036   0.846   4.081
20401W        W93469  22.164  14.272   3.091
20402W        W93470  20.673  26.987   0.930
20403W        W93471   3.683   8.857   3.349
20404W        W93472  21.931   8.749   5.006
20405W        W93473  36.611  11.710  11.089
20406W        W93474  38.031  38.413   4.686
20407W        W93475  36.812  14.620  13.362
20408W        W93476  41.338  35.961   4.965
20409W        W93477   8.179   3.343  12.160
20410W        W93478   8.068  12.054  12.975
20411W        W93479   2.696  44.768  14.454
20412W        W93480  20.143  11.233   3.348
20413W        W93481   6.277  15.175  12.918
20414W        W93482  36.611  19.177   4.527
20415W        W93483  38.503  11.371  12.519
20416W        W93484  31.666  31.858   0.319
20417W        W93485  30.688  11.845   1.775
20418W        W93486   4.517  29.433   4.433
20419W        W93487  15.750   8.689  11.643
20420W        W93488  16.858  25.697   0.961
20421W        W93489  30.527  44.868  10.911
20422W        W93490  38.367   0.692  14.852
20423W        W93491  14.909  25.576   4.502
20424W        W93492  43.390  40.583  12.039
20425W        W93493  33.811  44.996   3.201
20426W        W93494  26.264   5.710   4.499
20427W        W93495  19.668  18.151   0.337
20428W        W93496   6.521  40.972   0.714
20429W        W93497  29.087  15.092   2.761
20430W        W93498  19.338   8.251  14.616
20431W        W93499  42.832  27.828   2.971
20432W        W93500  37.279  15.850   0.610
20433W        W93501   8.377  30.226  13.875
20434W        W93502  39.323   3.424   5.056
20435W        W93503  30.930   0.996  12.057
20436W        W93504   1.389  35.418  13.575
20437W        W93505  16.778  21.494   2.596
20438W        W93506  40.088  43.663  12.515
20439W        W93507  27.497   7.617   2.533
20440W        W93508   9.971  29.373   3.743
20441W        W93509  18.659  35.429  14.033
20442W        W93510  12.890  38.085  14.324
20443W        W93511   4.172  43.318  14.866
20444W        W93512  42.888  22.977   4.585
20445W        W93513  20.909  29.516  13.588
20446W        W93514  18.925  38.849   1.185
20447W        W93515  29.676   6.786  12.087
20448W        W93516  11.992  12.127  10.026
20449W        W93517   9.563  29.602   0.744
20450W        W93518  11.780  23.704   4.068
20451W        W93519   6.133  18.476  12.342
20452W        W93520  20.395  27.134  12.944
20453W        W93521   5.650  22.102   0.933
20454W        W93522  32.937  38.714   2.655
20455W        W93523  30.023  34.069   1.842
20456W        W93524  12.497  29.076  11.516
20457W        W93525  27.756  20.650  12.860
20458W        W93526   0.810  40.602   0.592
20459W        W93527  29.609  34.656  14.787
20460W        W93528  15.694  32.948  13.983
20461W        W93529  16.114  18.623   2.405
20462W        W93530  18.690   9.139   2.338
20463W        W93531  17.500   5.416  11.974
20464W        W93532  20.096  12.017   4.064
20465W        W93533  30.587  23.252   3.288
20466W        W93534  36.369  27.029   3.093
20467W        W93535  31.536  36.647   4.510
20468W        W93536   7.960  11.556  13.886
20469W        W93537  38.909  11.907  14.953
20470W        W93538  15.742   8.492  10.641
20471W        W93539  32.062  36.152   4.079
20472W        W93540  30.490  33.182   1.761
20473W        W93541  12.115  21.675   0.039
20474W        W93542  12.742   5.190  13.080
20475W        W93543  43.400  32.718   1.283
20476W        W93544  27.559  33.065   1.015
20477W        W93545  34.928   3.979  12.041
20478W        W93546   0.713  39.344   0.659
20479W        W93547  25.344  19.427   3.279
20480W        W93548  26.304  14.791   1.181
20481W        W93549   4.248  24.201  13.054
20482W        W93550  19.773  10.278   4.152
20483W        W93551  31.461   3.530  14.466
20484W        W93552  17.051   6.819  14.963
20485W        W93553   9.011  24.456  13.876
20486W        W93554  22.082  37.836  11.167
20487W        W93555  39.555   0.347  14.984
20488W        W93556  30.912   7.865  12.426
20489W        W93557  31.054   9.628   0.864
20490W        W93558   3.898  17.295   2.443
20491W        W93559  21.191  25.095  10.299
20492W        W93560  44.818  37.480   1.196
20493W        W93561  39.053   9.456  11.677
20494W        W93562   5.896  17.134  14.782
20495W        W93563  20.758  27.459  11.711
20496W        W93564   2.484  20.770   0.963
20497W        W93565   5.708   6.868  14.844
20498W        W93566  34.431  36.663  14.919
20499W        W93567  31.477  41.314  14.391
20500W        W93568  28.830  13.983   0.846
20501W        W93569  29.840  19.935  13.970
20502W        W93570  19.068  44.797   0.893
20503W        W93571  24.109  34.166  10.724
20504W        W93572  31.123   1.914  11.131
20505W        W93573   9.387  26.769   0.021
20506W        W93574   1.940  14.907  12.007
20507W        W93575   5.356  33.318  12.816
20508W        W93576  31.355  12.007   0.968
20509W        W93577  35.777  40.780  14.465
20510W        W93578   8.143  40.893  12.459
20511W        W93579  20.157  16.594   4.885
20512W        W93580  18.059  29.122  14.248
20513W        W93581  14.166   6.437   1.851
20514W        W93582  18.828  15.099  13.870
20515W        W93583   6.244   1.602  13.496
20516W        W93584  19.036  27.110  13.585
20517W        W93585  20.032   2.828   0.633
20518W        W93586  19.658  14.220   0.041
20519W        W93587  16.027  35.016   3.781
20520W        W93588  19.313  42.509   1.854
20521W        W93589  32.826  13.729   2.860
20522W        W93590   6.741  34.596   1.321
20523W        W93591  17.554  34.283   0.505
20524W        W93592  19.933  15.970   3.657
20525W        W93593  17.290  43.453  11.036
20526W        W93594   7.377  44.256  12.991
20527W        W93595   3.904  27.156  13.462
20528W        W93596  16.587   7.433   1.932
20529W        W93597  21.812  34.308   0.337
20530W        W93598  34.026  21.708  11.037
20531W        W93599  29.385  26.432   0.318
20532W        W93600  31.453   2.668   4.763
20533W        W93601  35.599  39.897  11.208
20534W        W93602   1.865  41.299  14.945
20535W        W93603  27.997   5.421  12.548
20536W        W93604  40.930  13.366   9.784
20537W        W93605   4.026  12.040   0.716
20538W        W93606  32.846  41.077  14.454
20539W        W93607  18.644  22.529  11.031
20540W        W93608  16.746  42.527   2.185
20541W        W93609  32.352  44.892   2.845
20542W        W93610   2.035  42.020   1.264
20543W        W93611  26.534   8.080   4.954
20544W        W93612   1.029   8.760   0.269
20545W        W93613  24.231  33.419  11.729
20546W        W93614   2.699   7.167   0.309
20547W        W93615  30.044  12.574   1.201
20548W        W93616   8.105  19.179   1.053
20549W        W93617  41.391  43.448   2.580
20550W        W93618   3.924  43.454  14.121
20551W        W93619  11.701   7.266  10.357
20552W        W93620  33.759  14.331  10.376
20553W        W93621  30.523  33.143  14.821
20554W        W93622  25.614  39.913   0.971
20555W        W93623   9.244  23.795   5.036
20556W        W93624  24.627  44.751   1.315
20557W        W93625   5.222   7.328   2.654
20558W        W93626  42.280  12.207  10.607
20559W        W93627   8.663  40.026   2.351
20560W        W93628   3.063  13.443   5.060
20561W        W93629  16.224  28.105   4.337
20562W        W93630  12.871  43.195   4.195
20563W        W93631   9.203  38.398  12.016
20564W        W93632  21.756  21.811  13.525
20565W        W93633  33.900  37.709  10.544
20566W        W93634  32.494  37.831  14.779
20567W        W93635  16.168  20.491   0.862
20568W        W93636   4.134  42.819  10.560
20569W        W93637  14.142   7.807  11.052
20570W        W93638  12.343  19.275  10.475
20571W        W93639   2.301  21.227  14.520
20572W        W93640  17.358  29.384  11.201
20573W        W93641  16.395  27.993   2.702
20574W        W93642  22.212   7.698  12.159
20575W        W93643  37.422  32.472  10.695
20576W        W93644  15.532  25.131   4.507
20577W        W93645  35.563  21.231  14.064
20578W        W93646   0.846   5.235   4.231
20579W        W93647  14.773  24.025  11.066
20580W        W93648  24.985   2.196  12.004
20581W        W93649  36.519   7.474   3.658
20582W        W93650  41.191  42.307   0.087
20583W        W93651  41.372  23.743  11.482
20584W        W93652  34.428  41.299   4.555
20585W        W93653  20.120  20.582   4.877
20586W        W93654   6.378  19.123   4.804
20587W        W93655  18.308  42.058  10.714
20588W        W93656  14.168  34.133  14.819
20589W        W93657  38.110   8.765   0.393
20590W        W93658  25.552  37.901  13.961
20591W        W93659   3.067  36.370   0.632
20592W        W93660  22.094   1.210  13.024
20593W        W93661   9.623  44.990  14.301
20594W        W93662  42.432  25.294   1.425
20595W        W93663  29.917  16.011   0.412
20596W        W93664  39.473  26.505   1.235
20597W        W93665  31.970  19.619   0.585
20598W        W93666   7.068   1.962   2.480
20599W        W93667   5.714   5.244   0.301
20600W        W93668   8.344   5.337   3.634
20601W        W93669  31.948  10.098   5.208
20602W        W93670  30.019  29.936   0.726
20603W        W93671  34.057  43.959  11.982
20604W        W93672   2.460   2.952   3.131
20605W        W93673  41.578  43.798   1.724
20606W        W93674  42.516  21.321   2.819
20607W        W93675   7.593  30.872   0.298
20608W        W93676  34.093   1.530  13.036
20609W        W93677  27.416   8.496  14.835
20610W        W93678  43.223  32.954   3.171
20611W        W93679   2.654  35.912  13.436
20612W        W93680  12.874  14.594  10.651
20613W        W93681  41.921  41.120  11.618
20614W        W93682  33.977   1.532   3.632
20615W        W93683  38.092   8.128   4.273
20616W        W93684  20.645   3.943   4.953
20617W        W93685  15.265  16.227   1.484
20618W        W93686  44.713  10.703  12.373
20619W        W93687  18.428  27.243  12.031
20620W        W93688  32.443   3.024  11.110
20621W        W93689   7.890  22.065   0.830
20622W        W93690  13.774  40.998   3.860
20623W        W93691  15.636  26.056   1.229
20624W        W93692  10.115  13.765  13.638
20625W        W93693  41.548   8.009   0.967
20626W        W93694   0.998  28.378  11.337
20627W        W93695   8.879  43.258  11.052
20628W        W93696  37.195  14.146  11.684
20629W        W93697   0.379  39.475  11.560
20630W        W93698  37.562   1.412  14.378
20631W        W93699  42.031  15.260   1.878
20632W        W93700  41.713  38.419   1.590
20633W        W93701   4.861  17.261   2.598
20634W        W93702  29.911  30.503  14.058
20635W        W93703   3.768   6.191  12.905
20636W        W93704   6.655  29.086   1.218
20637W        W93705  23.133  37.483  13.997
20638W        W93706  20.519  31.856   1.644
20639W        W93707  17.153  12.272  10.132
20640W        W93708   0.678  35.860  14.321
20641W        W93709  24.335  30.392  12.112
20642W        W93710  25.488  25.697   1.224
20643W        W93711   8.307  29.089   4.875
20644W        W93712  34.030   0.158  11.467
20645W        W93713  28.493  37.101   3.187
20646W        W93714  37.195  43.047  13.956
20647W        W93715   6.208   0.562   2.429
20648W        W93716  44.481   3.711   4.688
20649W        W93717   1.557  38.917   2.280
20650W        W93718  16.339  36.916  11.503
20651W        W93719   8.320   8.659  12.065
20652W        W93720  26.127  37.808  12.663
20653W        W93721  37.542   1.954   0.918
20654W        W93722  42.013  44.737  11.783
20655W        W93723  10.708  14.475   3.224
20656W        W93724  37.609  36.331   2.457
20657W        W93725  34.186  30.958   1.037
20658W        W93726  33.509  14.396   5.139
20659W        W93727  38.430  21.595   2.893
20660W        W93728  26.228  40.032   5.105
20661W        W93729   1.996  41.296   3.122
20662W        W93730   2.533  33.474  10.633
20663W        W93731   5.253  31.763  13.062
20664W        W93732   7.105   3.710  14.024
20665W        W93733  10.301  14.887  10.561
20666W        W93734  24.072  36.520  12.975
20667W        W93735  19.702   6.615  10.394
20668W        W93736  37.797   3.829  11.056
20669W        W93737  15.155  19.859  11.747
20670W        W93738  26.932  24.217  12.984
20671W        W93739  19.290  26.691  14.472
20672W        W93740  44.184   7.837   1.951
20673W        W93741  33.193  40.530  12.955
20674W        W93742  19.610  43.733  11.714
20675W        W93743  11.552   2.284  10.741
20676W        W93744  12.976  29.211   2.403
20677W        W93745  12.577  22.122   3.857
20678W        W93746  43.517  27.624   0.776
20679W        W93747   9.710  11.934   1.956
20680W        W93748  28.620  18.124   3.684
20681W        W93749  43.388  29.279   1.755
20682W        W93750  26.503  31.109   4.007
20683W        W93751   8.534  43.467  12.984
20684W        W93752  22.787  36.450  11.266
20685W        W93753  13.785  28.921  12.130
20686W        W93754  26.483   4.727  11.465
20687W        W93755  33.065   7.879   2.329
20688W        W93756  44.873  37.806  13.092
20689W        W93757  40.820  30.569   0.842
20690W        W93758   5.926  24.511   0.379
20691W        W93759  26.501   0.328   4.389
20692W        W93760  25.918  22.059   0.456
20693W        W93761   7.675   9.851  10.967
20694W        W93762  36.970  32.857  10.737
20695W        W93763   9.643  21.683  13.888
20696W        W93764  14.807  40.471  12.961
20697W        W93765  11.653  38.067  10.778
20698W        W93766  40.325  40.291  13.019
20699W        W93767  14.902  18.797  11.096
20700W        W93768  23.685  31.524  13.058
20701W        W93769  11.440  35.081  12.328
20702W        W93770  13.143   5.758   2.239
20703W        W93771  42.365  39.775  12.533
20704W        W93772  28.893  21.546  11.188
20705W        W93773  39.252  35.399   3.380
20706W        W93774   6.436  36.960   2.044
20707W        W93775   9.958  13.832   4.682
20708W        W93776  13.359  42.280   2.246
20709W        W93777  29.150  26.671  13.855
20710W        W93778   2.783  39.595   0.337
20711W        W93779  29.546   8.893   4.303
20712W        W93780   6.173  35.077  13.625
20713W        W93781  37.126   9.343   4.667
20714W        W93782  40.826  38.818   2.774
20715W        W93783   2.248  40.407  10.304
20716W        W93784  21.045  12.541  14.908
20717W        W93785  15.557  25.514  13.101
20718W        W93786  13.745  28.158   0.440
20719W        W93787  15.179  10.527   0.532
20720W        W93788  26.524  41.369   0.768
20721W        W93789  23.643  38.557   3.217
20722W        W93790   1.104  26.566   1.293
20723W        W93791  43.036   8.382   3.679
20724W        W93792   0.017  21.137   3.592
20725W        W93793  36.934  25.390   3.232
20726W        W93794  41.769   0.890   9.868
20727W        W93795  36.609  30.803   4.552
20728W        W93796   9.475   6.001   2.728
20729W        W93797   7.148  24.223  13.065
20730W        W93798  33.990  29.298  11.506
20731W        W93799  43.784  20.435   0.824
20732W        W93800  39.076   6.504  10.237
20733W        W93801   8.269   5.752  11.935
20734W        W93802  25.085  42.326  11.470
20735W        W93803   0.654  10.486   2.730
20736W        W93804  15.941   5.193   5.136
20737W        W93805  26.435   0.430   0.225
20738W        W93806  20.554  27.002  13.582
20739W        W93807   9.888   9.816   2.778
20740W        W93808  38.794   5.203  11.022
20741W        W93809  41.781   5.952  10.607
20742W        W93810  38.008  40.925  14.911
20743W        W93811  40.958  43.912  11.946
20744W        W93812   5.202  36.300   2.027
20745W        W93813   5.681  15.888  12.430
20746W        W93814  37.953  29.392   2.945
20747W        W93815   4.928   4.754   0.491
20748W        W93816  40.807  43.564   4.389
20749W        W93817  32.569  18.582  12.419
20750W        W93818  34.372  43.232   1.198
20751W        W93819   1.454  12.703  11.463
20752W        W93820  28.177  28.533  10.779
20753W        W93821   1.295  35.133  12.001
20754W        W93822  22.018   0.990  11.556
20755W        W93823  38.886   4.413   2.415
20756W        W93824   3.492  41.292   5.081
20757W        W93825   0.933  35.499   2.919
20758W        W93826  27.124  32.107  12.574
20759W        W93827  39.847  21.945   2.799
20760W        W93828  38.114   5.735  11.969
20761W        W93829  12.264   5.680   1.821
20762W        W93830  43.496   7.782  11.696
20763W        W93831  22.254  11.043  11.088
20764W        W93832  12.915  37.432   3.863
20765W        W93833   4.554   5.939   2.726
20766W        W93834  24.182  29.173  14.798
20767W        W93835  42.308  14.337   3.249
20768W        W93836  22.083  37.826   2.120
20769W        W93837  12.659   4.882  10.642
20770W        W93838   4.376  24.211   4.204
20771W        W93839  27.545   8.205   4.148
20772W        W93840  36.803  19.747  12.605
20773W        W93841  24.756   9.783   5.034
20774W        W93842  28.847  14.176  11.905
20775W        W93843  33.713  13.651   3.289
20776W        W93844  41.359   2.960   0.407
20777W        W93845  18.290  24.597  12.026
20778W        W93846  14.350  25.466  12.038
20779W        W93847  43.370  32.370  10.931
20780W        W93848  22.945  44.259  12.424
20781W        W93849  24.510  14.175  14.763
20782W        W93850  22.463  38.050  13.884
20783W        W93851  36.531  19.167  14.785
20784W        W93852  38.321  24.005  11.668
20785W        W93853  43.354   9.161  13.816
20786W        W93854  31.896  25.597   5.020
20787W        W93855  33.376   2.318   3.138
20788W        W93856  16.206  39.036  12.253
20789W        W93857  39.842  17.896   0.952
20790W        W93858  18.632  33.643  14.276
20791W        W93859  35.449  24.998  11.554
20792W        W93860  33.534  18.292   1.738
20793W        W93861  16.322  10.239  14.872
20794W        W93862  34.587  30.100   1.320
20795W        W93863  21.977  16.363  14.713
20796W        W93864  18.833  11.679   4.158
20797W        W93865  28.499  32.592   0.643
20798W        W93866   5.218   1.148  13.420
20799W        W93867   0.719  19.554  14.826
20800W        W93868  19.599  12.503  12.427
20801W        W93869  16.785   0.274   3.713
20802W        W93870  31.480  42.827   0.697
20803W        W93871  14.642   9.653   2.319
20804W        W93872   3.443  20.701   2.203
20805W        W93873  30.576  31.520   4.445
20806W        W93874  28.150  15.759   1.330
20807W        W93875   5.672   2.830   2.581
20808W        W93876  29.930  36.408  11.455
20809W        W93877  32.569  44.312  14.703
20810W        W93878   3.391  40.412   5.072
20811W        W93879   0.273  29.486  11.964
20812W        W93880   7.939  43.217  14.078
20813W        W93881  37.306  33.572   1.724
20814W        W93882  32.970  26.723   4.056
20815W        W93883  10.254  37.574   2.901
20816W        W93884   4.664  37.502  11.907
20817W        W93885  40.357  14.864   0.227
20818W        W93886  14.574  15.883   1.228
20819W        W93887  33.533  31.439   1.791
20820W        W93888  10.165  24.330   0.311
20821W        W93889  16.018  25.881   3.571
20822W        W93890   0.305  43.773   1.885
20823W        W93891  39.318  25.232  14.782
20824W        W93892  44.571  27.583  13.997
20825W        W93893   0.091   5.788   0.820
20826W        W93894  28.368  31.932   5.211
20827W        W93895  31.026  16.604  10.546
20828W        W93896   2.483   8.609   0.835
20829W        W93897  34.054  34.423  14.535
20830W        W93898  25.605  15.359   0.694
20831W        W93899  13.286  34.823   1.062
20832W        W93900   0.917  26.687   0.848
20833W        W93901  26.072  32.031   1.067
20834W        W93902   1.259  25.263  14.852
20835W        W93903  19.108  13.731   4.665
20836W        W93904  16.227  22.391   1.943
20837W        W93905  43.892  36.699  12.025
20838W        W93906  29.162   1.189   1.401
20839W        W93907  23.643  32.485   1.767
20840W        W93908   9.350  26.975   2.321
20841W        W93909  32.204  40.945   2.320
20842W        W93910   3.420  20.006   0.202
20843W        W93911  35.234  37.414  11.981
20844W        W93912  38.295  24.013   4.320
20845W        W93913  31.919   9.693  14.301
20846W        W93914  31.380  33.821   2.745
20847W        W93915  16.127  41.702   4.461
20848W        W93916   6.643  13.684   4.246
20849W        W93917  14.585  32.425   0.973
20850W        W93918  13.674   0.724   4.580
20851W        W93919   4.665  14.840   4.728
20852W        W93920  16.275  27.273   1.353
20853W        W93921  42.107  38.776   2.344
20854W        W93922  13.283   4.448  10.841
20855W        W93923  16.334  22.281  13.921
20856W        W93924  28.893  10.036   4.629
20857W        W93925  23.194  28.294   2.852
20858W        W93926  17.570  40.614  11.545
20859W        W93927   3.787   9.811   3.685
20860W        W93928  11.600   7.869   2.327
20861W        W93929  20.259  42.395   0.011
20862W        W93930  34.379  31.077   1.508
20863W        W93931  25.041  22.279   2.267
20864W        W93932  33.507  37.025  10.077
20865W        W93933   9.766  12.611   3.885
20866W        W93934  17.291  40.453   4.314
20867W        W93935  23.752  13.837   1.187
20868W        W93936  33.104  29.534   3.689
20869W        W93937  16.803  32.722  12.962
20870W        W93938  23.794   6.623   1.186
20871W        W93939  17.908  28.107  12.982
20872W        W93940  14.400   4.154  10.736
20873W        W93941   3.961  11.316  14.949
20874W        W93942  41.234  40.519  12.759
20875W        W93943   9.306  20.276  11.087
20876W        W93944  20.057  34.019  13.074
20877W        W93945   7.422  39.622  14.160
20878W        W93946  20.167  43.532   3.358
20879W        W93947  15.132  13.307  13.812
20880W        W93948   2.857  10.096   3.688
20881W        W93949  24.969  43.823  11.620
20882W        W93950   7.397  34.042   1.649
20883W        W93951  25.841  19.832  14.880
20884W        W93952  28.319  15.226  13.871
20885W        W93953  11.654  41.951  13.932
20886W        W93954  18.741  33.766   1.988
20887W        W93955  28.693   6.866  12.059
20888W        W93956  31.345   4.827   3.414
20889W        W93957   5.848  11.179   0.965
20890W        W93958  35.589  16.314   0.016
20891W        W93959  33.545  31.795   0.967
20892W        W93960   6.236  23.386  14.660
20893W        W93961   9.416  38.977   2.853
20894W        W93962  15.754  22.992   2.473
20895W        W93963   6.346  34.572  14.746
20896W        W93964  36.561  22.938  10.724
20897W        W93965  44.699   0.830  10.117
20898W        W93966  30.534  21.499  13.791
20899W        W93967  30.154   6.782   0.259
20900W        W93968  31.099  15.579  10.388
20901W        W93969  32.571  10.657  14.928
20902W        W93970  16.147  34.890  11.330
20903W        W93971  19.465  28.082   3.564
20904W        W93972  21.109  11.152  14.676
20905W        W93973  28.392  17.613  14.873
20906W        W93974   5.662  16.134  11.392
20907W        W93975  34.205   4.692  13.841
20908W        W93976  18.952   2.835   0.699
20909W        W93977  41.683  14.256   1.800
20910W        W93978  38.820  12.294   1.748
20911W        W93979  23.783  33.880   3.276
20912W        W93980  12.618  15.215  14.682
20913W        W93981  18.949  10.742  13.596
20914W        W93982   6.788  20.145  13.810
20915W        W93983  15.569   5.818   2.254
20916W        W93984   9.340  10.123  14.874
20917W        W93985   9.546  41.796   2.788
20918W        W93986   1.938  21.335  12.018
20919W        W93987  41.753  23.120   2.952
20920W        W93988  24.094  27.919  11.399
20921W        W93989  24.139  17.952   4.122
20922W        W93990  11.035  30.931   1.638
20923W        W93991  28.078   0.780  14.583
20924W        W93992  36.817  33.999   4.191
20925W        W93993   8.238  15.572   1.961
20926W        W93994   0.427  44.659   2.459
20927W        W93995  26.935  16.871  14.380
20928W        W93996  26.339  40.845   0.188
20929W        W93997  32.442  39.942   3.690
20930W        W93998  17.093  15.781   1.207
20931W        W93999  33.642  27.041   0.306
20932W        W94000  33.108  36.051   0.314
20933W        W94001  23.491  25.212  11.661
20934W        W94002  23.045  28.880  10.720
20935W        W94003  28.438  32.846   3.258
20936W        W94004  27.885  24.176   2.895
20937W        W94005  30.110  41.319   3.255
20938W        W94006  33.411  14.785   2.880
20939W        W94007   4.274   2.386   4.018
20940W        W94008  12.383  14.049  11.208
20941W        W94009   1.463   7.404  12.423
20942W        W94010  23.028  14.712   3.460
20943W        W94011  15.078  25.189  12.152
20944W        W94012  28.775  39.068   2.010
20945W        W94013  23.042  37.871  11.289
20946W        W94014  26.309  41.234   4.947
20947W        W94015  27.912  18.948  12.103
20948W        W94016  35.374  41.946  13.888
20949W        W94017  23.118  29.577   4.910
20950W        W94018  34.094   2.949   2.397
20951W        W94019  36.676  21.351  11.151
20952W        W94020  11.692  21.307   3.731
20953W        W94021  17.095   4.222   4.925
20954W        W94022  24.107  17.949   3.235
20955W        W94023   3.420   0.219   0.720
20956W        W94024  36.139  39.058  11.424
20957W        W94025   3.213  18.327  13.085
20958W        W94026   3.786  23.914   2.169
20959W        W94027  44.773  22.802   0.986
20960W        W94028  25.985  34.015   2.351
20961W        W94029  23.439   5.245   2.354
20962W        W94030  14.196  30.192   1.678
20963W        W94031  42.022  11.082  11.051
20964W        W94032   7.274  26.281   4.791
20965W        W94033   7.619  23.680   1.220
20966W        W94034  38.015  12.379   2.250
20967W        W94035   0.389  31.913  14.299
20968W        W94036  21.977  38.780   0.863
20969W        W94037  15.003   7.730   0.281
20970W        W94038  42.287  38.977   3.699
20971W        W94039  15.345  26.954  10.508
20972W        W94040  34.836  37.090  13.077
20973W        W94041  12.157  44.774  10.899
20974W        W94042  25.484  17.565  14.400
20975W        W94043  34.833  30.530  12.901
20976W        W94044  15.167  30.744  13.954
20977W        W94045  27.550  29.260  12.431
20978W        W94046   1.357   1.381  12.513
20979W        W94047   2.088  21.507   1.417
20980W        W94048  20.695  22.616  12.560
20981W        W94049  25.635  10.357  12.020
20982W        W94050  12.915  35.522   3.250
20983W        W94051  35.185   4.678  14.650
20984W        W94052  24.723   4.758  12.030
20985W        W94053  40.548  41.837  12.632
20986W        W94054  26.762   4.611  11.062
20987W        W94055  33.945  26.412   2.636
20988W        W94056   1.350  43.980   3.644
20989W        W94057  30.666   5.363   0.307
20990W        W94058  26.175   2.395  12.518
20991W        W94059  34.060  30.535   0.736
20992W        W94060  14.299  38.832   0.980
20993W        W94061   4.974  21.241   1.855
20994W        W94062  13.272  33.587  14.578
20995W        W94063  33.629  26.645  13.855
20996W        W94064   2.052   1.361   0.759
20997W        W94065  44.762  14.850  13.920
20998W        W94066   0.541  40.547  12.116
20999W        W94067  42.497  10.733  11.977
21000W        W94068   0.900   9.573   4.389
21001W        W94069  33.505   0.475   4.099
21002W        W94070  27.006  12.900   3.331
21003W        W94071   2.776  32.150  14.328
21004W        W94072  24.995   1.073   1.337
21005W        W94073  12.962   5.253  13.560
21006W        W94074   4.134  25.491  13.797
21007W        W94075  27.226  12.886  13.027
21008W        W94076   2.665   8.741  14.797
21009W        W94077  24.964  22.727  11.544
21010W        W94078  27.473  27.065  11.633
21011W        W94079  44.307   1.719  11.055
21012W        W94080  27.610  25.748   1.448
21013W        W94081  24.210  18.592   0.293
21014W        W94082  21.629  40.671  14.756
21015W        W94083  25.232  21.311   4.654
21016W        W94084  11.086  30.888  12.026
21017W        W94085  13.072  35.073   1.450
21018W        W94086  40.993   8.095  12.859
21019W        W94087  31.908  18.125  14.025
21020W        W94088  31.197  32.078  13.111
21021W        W94089   9.849  28.594  14.959
21022W        W94090  11.876  33.455  12.136
21023W        W94091  23.106  37.931  10.781
21024W        W94092  26.360  17.662   3.577
21025W        W94093  26.754  33.279   4.395
21026W        W94094  41.344   3.831  11.482
21027W        W94095  15.743   5.772   4.788
21028W        W94096  40.402  31.331  10.329
21029W        W94097  39.322   9.954   0.401
21030W        W94098  29.673   8.574   4.713
21031W        W94099  34.947  42.993  11.943
21032W        W94100  25.098  14.336  12.085
21033W        W94101  41.181   6.924  12.408
21034W        W94102  22.200  35.692   4.135
21035W        W94103  21.800  21.693  11.927
21036W        W94104   4.209  11.175   2.299
21037W        W94105  21.796   1.226   2.180
21038W        W94106  34.439  24.489  11.280
21039W        W94107  16.583   7.800   2.325
21040W        W94108  37.385   0.033   4.511
21041W        W94109  21.836  28.790  12.980
21042W        W94110  39.284  39.952  11.868
21043W        W94111  17.822  16.208   0.001
21044W        W94112  27.788  12.231  11.565
21045W        W94113   5.261  42.797  14.188
21046W        W94114  44.734  12.927   4.662
21047W        W94115  13.843   2.277  11.252
21048W        W94116   8.465  34.938  12.371
21049W        W94117  35.893  11.698  11.489
21050W        W94118  40.440  34.427   1.826
21051W        W94119  12.070  23.059  14.407
21052W        W94120  27.316  24.193   2.017
21053W        W94121  36.465  29.332   3.813
21054W        W94122  33.412   9.114  12.975
21055W        W94123  41.780   3.291  10.244
21056W        W94124  41.942  36.806  10.845
21057W        W94125  23.002  26.073   0.851
21058W        W94126  14.338   4.375  13.743
21059W        W94127  24.953   1.035   0.458
21060W        W94128  33.578  18.815   4.457
21061W        W94129  17.749  19.799   0.706
21062W        W94130  11.193  22.619   0.993
21063W        W94131  17.604  19.780  12.467
21064W        W94132  11.336  16.166   0.731
21065W        W94133  12.854  26.411  11.835
21066W        W94134  15.980  35.317  11.072
21067W        W94135   9.998  36.168  11.953
21068W        W94136  20.787   6.694   2.314
21069W        W94137  21.669  22.824   4.023
21070W        W94138  12.161  28.427   1.209
21071W        W94139  18.168  17.581   1.281
21072W        W94140  21.269  35.434  11.173
21073W        W94141  31.939  11.762  13.375
21074W        W94142  10.173  24.085   0.777
21075W        W94143  39.537  27.671   0.105
21076W        W94144  15.138  30.684   3.663
21077W        W94145   6.192  20.101  10.652
21078W        W94146  31.047  44.794  10.629
21079W        W94147  37.348   5.702   0.334
21080W        W94148  30.630  14.789  12.812
21081W        W94149  17.586   9.727   1.478
21082W        W94150   4.813  25.938   1.979
21083W        W94151  14.298  27.383  13.911
21084W        W94152  35.014  17.578  14.409
21085W        W94153  30.053  15.838   3.572
21086W        W94154  14.515  38.407   4.155
21087W        W94155  29.813  39.815  10.675
21088W        W94156   5.358  38.417  10.773
21089W        W94157  14.851  17.568   1.815
21090W        W94158  28.572  30.858  14.949
21091W        W94159  15.713   0.666   9.906
21092W        W94160  20.099  33.894   0.061
21093W        W94161  28.394   4.823  14.390
21094W        W94162   3.343  22.247  12.774
21095W        W94163  22.590  40.474   4.756
21096W        W94164   9.650  19.804   2.948
21097W        W94165  44.622   8.318   2.302
21098W        W94166   3.984  20.112   2.432
21099W        W94167  10.864   0.339  14.725
21100W        W94168  14.356  37.061   2.906
21101W        W94169  29.424  10.815   3.816
21102W        W94170  40.747  24.090  11.151
21103W        W94171  13.031  11.368  13.075
21104W        W94172  39.557  42.636  14.432
21105W        W94173  42.069   1.137  11.994
21106W        W94174  38.900  36.056   4.111
21107W        W94175  24.742  26.527  10.641
21108W        W94176  28.161   3.879  12.569
21109W        W94177  21.571  23.920  10.605
21110W        W94178  32.980   9.844  13.087
21111W        W94179  11.534  23.274  11.584
21112W        W94180  23.044  25.596   1.547
21113W        W94181  14.753  11.191   1.733
21114W        W94182  23.297   2.227   4.136
21115W        W94183  19.068  29.229   1.807
21116W        W94184  11.613  19.762   4.587
21117W        W94185  24.678  37.479  12.324
21118W        W94186  34.115   2.452  13.451
21119W        W94187   0.988  36.936  11.989
21120W        W94188  31.702   6.587   1.482
21121W        W94189  35.826  41.513  11.659
21122W        W94190  39.928  26.075   1.879
21123W        W94191  27.996  18.213  12.893
21124W        W94192   2.876  14.468  13.257
21125W        W94193  10.097  21.769  10.692
21126W        W94194  16.505  15.981   0.367
21127W        W94195  43.411  38.511   0.517
21128W        W94196  17.038  40.559  12.624
21129W        W94197  18.418   7.303  14.226
21130W        W94198   7.788   3.381   0.085
21131W        W94199  35.018   5.514  13.629
21132W        W94200  29.365  43.964   2.551
21133W        W94201  20.634  16.301  14.367
21134W        W94202  12.275  15.546  14.901
21135W        W94203  14.074  35.016   3.734
21136W        W94204  36.869  31.986  12.057
21137W        W94205  29.466  26.458   3.234
21138W        W94206  17.516  11.799  11.950
21139W        W94207  18.590  19.818   1.975
21140W        W94208  22.309  36.951   0.413
21141W        W94209  34.146  14.404   0.896
21142W        W94210  34.001  36.680  11.455
21143W        W94211  36.961  24.153  10.358
21144W        W94212  21.575  19.531   2.900
21145W        W94213  39.561  35.607   3.743
21146W        W94214  39.984  27.424  14.948
21147W        W94215  16.337   4.649  13.994
21148W        W94216  18.345  30.226  13.993
21149W        W94217  16.499  33.097   2.762
21150W        W94218  22.955  17.005  13.443
21151W        W94219   6.321   0.251  13.297
21152W        W94220  34.103  11.775   3.687
21153W        W94221  32.081  38.901  11.843
21154W        W94222   2.184   1.442  11.118
21155W        W94223  17.121  25.071  10.641
21156W        W94224  10.914  23.139   0.403
21157W        W94225  43.492  14.661  14.254
21158W        W94226  43.141  34.204   2.249
21159W        W94227  36.775  13.652   0.069
21160W        W94228  44.010  31.929   2.274
21161W        W94229   4.688   9.832  13.342
21162W        W94230   9.358   6.441  11.063
21163W        W94231   9.522  12.746  12.029
21164W        W94232  16.007  17.532   0.737
21165W        W94233   7.835  12.966   1.191
21166W        W94234  15.552  32.496  12.517
21167W        W94235  21.999  23.085   3.656
21168W        W94236  28.980  26.158   3.638
21169W        W94237   6.257  10.994   1.808
21170W        W94238   6.455  39.995   0.222
21171W        W94239   3.623   6.946  11.645
21172W        W94240  25.057  23.993  12.105
21173W        W94241   3.437  12.582   2.687
21174W        W94242  36.604  34.106   0.443
21175W        W94243  27.027  36.393   1.716
21176W        W94244   3.340  19.802  12.880
21177W        W94245  32.929  20.980   4.251
21178W        W94246   5.219  19.525   1.888
21179W        W94247  28.475  19.337  13.273
21180W        W94248  10.944  25.932   0.116
21181W        W94249  25.708   5.163  12.413
21182W        W94250   9.389  25.750   3.677
21183W        W94251  30.413   4.792  12.564
21184W        W94252   5.636  14.834   2.799
21185W        W94253   2.645  19.674   3.728
21186W        W94254  10.656   9.218   1.772
21187W        W94255  24.135  18.519   4.989
21188W        W94256  12.332  20.354   1.344
21189W        W94257  31.658   1.255   4.891
21190W        W94258  35.405  44.488   2.302
21191W        W94259  35.881   3.364  13.309
21192W        W94260  16.642  18.791  13.417
21193W        W94261  15.753   4.252  10.033
21194W        W94262  28.865  13.371   1.758
21195W        W94263  42.422  17.248   0.384
21196W        W94264  11.291   8.223   3.144
21197W        W94265  29.004  36.718   4.533
21198W        W94266  17.635  37.843   4.155
21199W        W94267   8.627  19.424   5.299
21200W        W94268  30.967  13.623   3.854
21201W        W94269  29.105  11.189   2.313
21202W        W94270   3.967  35.117  10.642
21203W        W94271   6.497  44.696  10.243
21204W        W94272  23.517  26.994   3.125
21205W        W94273  32.493   4.971   0.486
21206W        W94274   0.021  28.541  14.243
21207W        W94275  21.294  28.967   1.457
21208W        W94276  11.828  10.804   3.691
21209W        W94277   1.835   8.363   1.163
21210W        W94278  23.754  24.636   2.416
21211W        W94279   7.776  30.863   1.275
21212W        W94280  36.945  20.542  14.898
21213W        W94281  10.700   3.613  13.104
21214W        W94282   5.508  25.727  12.540
21215W        W94283   9.925  37.128  13.776
21216W        W94284  24.121  38.406  13.711
21217W        W94285   7.185  26.792   4.765
21218W        W94286  37.321  10.396  14.812
21219W        W94287   8.343   1.753   4.632
21220W        W94288  42.209  25.587  11.251
21221W        W94289  27.424  41.544  13.915
21222W        W94290  14.777  35.617  12.433
21223W        W94291  44.195  12.214  12.377
21224W        W94292  19.638  10.171   1.270
21225W        W94293   6.300  32.742  10.819
21226W        W94294  41.791  29.728  14.954
21227W        W94295  33.496  24.178   4.203
21228W        W94296  38.447  40.241   1.640
21229W        W94297  25.638  22.205   0.871
21230W        W94298  12.660  32.833  13.481
21231W        W94299  32.121  35.142  11.458
21232W        W94300  30.003   6.883  11.510
21233W        W94301  29.271  28.911  13.213
21234W        W94302  27.411  40.986   4.645
21235W        W94303  15.523  39.522  10.658
21236W        W94304  25.883  16.137  11.082
21237W        W94305   4.188  32.169   3.678
21238W        W94306   3.876   4.288  10.741
21239W        W94307  36.419   9.201   0.713
21240W        W94308  18.289  28.157  12.628
21241W        W94309  25.899  14.426  13.573
21242W        W94310  17.809  16.326   2.213
21243W        W94311  11.722  38.100   0.155
21244W        W94312  20.943  37.527   0.389
21245W        W94313  41.915  44.249   0.507
21246W        W94314  12.529  15.498  11.533
21247W        W94315  19.966  42.405   0.453
21248W        W94316   1.370  38.444  10.679
21249W        W94317  15.345   8.748  12.264
21250W        W94318  38.529  22.178  14.324
21251W        W94319  17.994  36.953  14.909
21252W        W94320   5.912   9.736  12.987
21253W        W94321  18.839   8.632  10.841
21254W        W94322   6.847  12.914  13.028
21255W        W94323   7.989   4.278   3.709
21256W        W94324  26.964  42.569   0.474
21257W        W94325  37.888  24.249   2.825
21258W        W94326   7.009  41.545  10.541
21259W        W94327  14.585  34.444  14.723
21260W        W94328   8.261  27.867   0.089
21261W        W94329   1.180   4.383  12.189
21262W        W94330  40.046   0.544   3.734
21263W        W94331  22.441  19.888  13.862
21264W        W94332  19.907  20.655   0.659
21265W        W94333  20.068  23.562  11.712
21266W        W94334  35.852  39.992   1.699
21267W        W94335  36.415  36.009  12.382
21268W        W94336  10.759   4.437   0.685
21269W        W94337  30.003  43.806  11.452
21270W        W94338   1.696  37.552  13.370
21271W        W94339  11.512   0.522   1.976
21272W        W94340  26.426   9.747   1.870
21273W        W94341  35.059  40.522   4.573
21274W        W94342   5.272  10.356  13.424
21275W        W94343  17.262  15.356  11.719
21276W        W94344   8.136  39.383   2.858
21277W        W94345  26.903  16.492  13.467
21278W        W94346  42.871  28.375   1.383
21279W        W94347  12.788  34.468   2.649
21280W        W94348  18.161  23.910   0.727
21281W        W94349  13.898  15.006   3.298
21282W        W94350  14.261   8.697  12.099
21283W        W94351  42.284  31.609   0.257
21284W        W94352  27.609  10.739  14.708
21285W        W94353  43.901  15.744  13.583
21286W        W94354  32.009   1.204   1.877
21287W        W94355  29.513   0.924  14.020
21288W        W94356  33.078  14.869  10.741
21289W        W94357  10.729  22.681   2.942
21290W        W94358  10.866   3.325   2.777
21291W        W94359   4.827  40.507   0.453
21292W        W94360  26.983   0.073  10.664
21293W        W94361  25.999   8.289  11.046
21294W        W94362   5.752   7.397  10.735
21295W        W94363  36.325  28.418   0.243
21296W        W94364  34.418   5.165   0.890
21297W        W94365  38.435  39.047  11.585
21298W        W94366  30.040  36.634  10.608
21299W        W94367   8.680  15.210   0.348
21300W        W94368  38.280  24.593  14.226
21301W        W94369  27.399  26.946   0.949
21302W        W94370  21.646  14.016  11.075
21303W        W94371  22.549  44.036  13.532
21304W        W94372  12.150  27.450   2.193
21305W        W94373   2.173  26.360   0.359
21306W        W94374  14.117   4.913   4.996
21307W        W94375  28.131  40.995   4.310
21308W        W94376   0.054  11.898   4.520
21309W        W94377  38.744  40.918   4.591
21310W        W94378   8.842  27.769  12.861
21311W        W94379  16.424  14.825   2.298
21312W        W94380  16.106   0.744   2.737
21313W        W94381  36.356  31.231   4.692
21314W        W94382  22.813  34.991  13.995
21315W        W94383   9.600  14.297   2.446
21316W        W94384  24.921  29.011  13.744
21317W        W94385  26.852  16.564   3.269
21318W        W94386  22.046  32.562   1.171
21319W        W94387   7.256  17.315   3.365
21320W        W94388  26.178   6.890   4.971
21321W        W94389   9.679  16.552   1.856
21322W        W94390  43.560  29.049  13.073
21323W        W94391   8.132  19.666   2.114
21324W        W94392  23.483  19.212  14.952
21325W        W94393  12.306  36.410  11.552
21326W        W94394  31.181  40.339   4.644
21327W        W94395  13.746  43.362   4.737
21328W        W94396  22.230   1.370   1.479
21329W        W94397  34.930  23.536   1.236
21330W        W94398  12.037  43.997  12.983
21331W        W94399   8.797   8.391   4.546
21332W        W94400   7.830  26.172  10.477
21333W        W94401  29.692  33.665   1.763
21334W        W94402  20.733  33.472  13.995
21335W        W94403   1.479  26.680  14.575
21336W        W94404  18.075  42.725  12.549
21337W        W94405  41.010  28.276   0.231
21338W        W94406  34.632  42.219  14.410
21339W        W94407  36.963  24.602  12.198
21340W        W94408  16.262  16.005   4.030
21341W        W94409  27.544  10.103   3.678
21342W        W94410  24.225   7.827   2.984
21343W        W94411  14.676  36.945   2.501
21344W        W94412  23.814  32.600  12.979
21345W        W94413  37.033   2.087   2.863
21346W        W94414  17.687  31.540   0.684
21347W        W94415  30.171  33.363  13.416
21348W        W94416  41.338  26.449   3.901
21349W        W94417  15.318  24.488   0.454
21350W        W94418  12.689   2.759   2.681
21351W        W94419  20.800  30.452  11.376
21352W        W94420   0.345  12.219   4.781
21353W        W94421  27.637  12.401   2.699
21354W        W94422   8.606  10.344   9.856
21355W        W94423  23.893   2.948  12.875
21356W        W94424   2.819  33.930  11.892
21357W        W94425  33.097  42.503   2.948
21358W        W94426  15.657   4.140   0.936
21359W        W94427  38.791  38.027  13.041
21360W        W94428  24.567  18.711   2.244
21361W        W94429  44.693  13.587  14.462
21362W        W94430   4.442  30.192   3.848
21363W        W94431   7.131  27.423   2.163
21364W        W94432  43.395  25.700   3.772
21365W        W94433  44.323   2.849   0.181
21366W        W94434  27.081  35.532   4.717
21367W        W94435  28.509  20.713   4.910
21368W        W94436  29.977  44.079   4.786
21369W        W94437   3.695   3.364   2.678
21370W        W94438  30.658  22.137   4.538
21371W        W94439  36.995  22.181  11.124
21372W        W94440   7.688  26.126  14.276
21373W        W94441  12.199  21.155  13.264
21374W        W94442  25.001  16.074  11.132
21375W        W94443  38.374  27.929  10.708
21376W        W94444  13.155   7.328  12.928
21377W        W94445  23.039  15.286   3.812
21378W        W94446  34.150  10.125  12.627
21379W        W94447  25.237   3.969  12.168
21380W        W94448   0.455  41.426   1.045
21381W        W94449  30.474  37.477   3.097
21382W        W94450  12.141  34.265  12.056
21383W        W94451  31.897  24.718  10.740
21384W        W94452  20.188  11.410  12.839
21385W        W94453  14.383   8.132   3.313
21386W        W94454  33.046  29.834   4.968
21387W        W94455  10.316  27.086   3.417
21388W        W94456   3.285  12.342   4.272
21389W        W94457  19.702   2.511  10.475
21390W        W94458  20.016  17.170   4.216
21391W        W94459  12.631   5.667   3.314
21392W        W94460  35.827  22.157  13.915
21393W        W94461  25.608  17.905   3.772
21394W        W94462  29.562   9.845  14.117
21395W        W94463  41.227   9.688  10.731
21396W        W94464  25.750  32.744   4.248
21397W        W94465   8.351  30.460  11.738
21398W        W94466  32.622  24.585  13.300
21399W        W94467  10.210  34.081   0.809
21400W        W94468  44.756  13.141  11.965
21401W        W94469  20.036  14.013  12.587
21402W        W94470  22.614  24.928   0.977
21403W        W94471  40.043  14.143   2.641
21404W        W94472  15.038  14.215  14.299
21405W        W94473   2.949   5.765  13.769
21406W        W94474   7.807   1.662  12.840
21407W        W94475  35.817  25.669   2.438
21408W        W94476   7.895   2.880  14.892
21409W        W94477  14.747  35.980  11.643
21410W        W94478  24.935  42.307   4.275
21411W        W94479   1.923  41.404  12.569
21412W        W94480  32.662  40.598   2.499
21413W        W94481  24.094   0.014  11.173
21414W        W94482  11.873   7.265   3.065
21415W        W94483   7.541  40.290  10.454
21416W        W94484  12.357  31.018  10.614
21417W        W94485   5.762   6.011  12.010
21418W        W94486  41.089  35.074  11.234
21419W        W94487  31.552  28.594   1.351
21420W        W94488  20.775  40.466  12.019
21421W        W94489  28.158  32.664  12.931
21422W        W94490  23.814  10.437   3.834
21423W        W94491  29.053  22.958  14.378
21424W        W94492   9.392  19.367   4.923
21425W        W94493  15.671  40.376   1.925
21426W        W94494  22.762  42.521   2.013
21427W        W94495   0.400   6.803   0.860
21428W        W94496  42.097  36.604   1.924
21429W        W94497  44.866  23.812   4.100
21430W        W94498  40.804  25.654   4.647
21431W        W94499  29.575   8.411   4.133
21432W        W94500  10.300  31.364   2.779
21433W        W94501  21.548  33.860  11.081
21434W        W94502  17.780  11.648  11.514
21435W        W94503  12.308   6.763   2.416
21436W        W94504  10.797  21.443  13.815
21437W        W94505  32.737  21.693  14.455
21438W        W94506  18.611  24.085   4.569
21439W        W94507  20.111  32.117  14.336
21440W        W94508  38.742  42.933  10.286
21441W        W94509  22.106  27.462   4.154
21442W        W94510   2.360  10.838  12.903
21443W        W94511   8.888  44.362   4.202
21444W        W94512   7.639  30.676   1.829
21445W        W94513   6.796  44.130   4.644
21446W        W94514  42.375  43.944  13.504
21447W        W94515  35.650  43.990   3.225
21448W        W94516  11.094  11.098  14.022
21449W        W94517  42.497  21.797  14.897
21450W        W94518  32.594   3.981  12.913
21451W        W94519  24.389   6.278   2.135
21452W        W94520  17.162  12.800   3.666
21453W        W94521   0.718  35.158  14.298
21454W        W94522   4.010  33.052   1.887
21455W        W94523  32.610   9.905   4.675
21456W        W94524  20.816  15.181  11.936
21457W        W94525  20.037   2.002   0.910
21458W        W94526   7.797  28.124   3.246
21459W        W94527   9.805  11.336  12.774
21460W        W94528  27.734   2.126  11.743
21461W        W94529  19.031  19.581   4.659
21462W        W94530  30.861  40.407  13.444
21463W        W94531  34.899  21.745   2.335
21464W        W94532   4.171   0.797   3.354
21465W        W94533  28.452   1.512   1.368
21466W        W94534  35.764   2.958   0.384
21467W        W94535   3.274  15.231  14.974
21468W        W94536  25.915  27.824   1.848
21469W        W94537  21.254  38.483   2.828
21470W        W94538   9.413  21.169  13.939
21471W        W94539  22.766  12.390  12.630
21472W        W94540  24.596  30.206  11.556
21473W        W94541  12.674  18.119  12.742
21474W        W94542  28.938  42.439  14.337
21475W        W94543   1.706  14.432  13.806
21476W        W94544   4.320  13.152   2.638
21477W        W94545  36.594  26.027   2.180
21478W        W94546  10.862  19.737  11.350
21479W        W94547   6.383  15.883  10.260
21480W        W94548  21.686   2.954   2.866
21481W        W94549  17.168  25.626   0.026
21482W        W94550  24.710  32.312   2.373
21483W        W94551   2.823  35.100  12.563
21484W        W94552  19.523  37.015  10.815
21485W        W94553  12.787  25.181  14.164
21486W        W94554   1.869  10.632   2.259
21487W        W94555  29.533   4.197  11.142
21488W        W94556  41.937  12.745   0.955
21489W        W94557  19.396   7.898  10.369
21490W        W94558  27.148   4.263  11.158
21491W        W94559  36.829   8.960  11.452
21492W        W94560  32.386   6.360  12.497
21493W        W94561  34.393  11.920   3.254
21494W        W94562  44.379  29.511  13.852
21495W        W94563  13.593  38.027  11.011
21496W        W94564  35.295  31.632  13.514
21497W        W94565  43.156  23.045  14.826
21498W        W94566  29.944   0.331   0.253
21499W        W94567  14.785  29.415  12.464
21500W        W94568  28.002  24.970   0.472
21501W        W94569  36.909  21.973  14.850
21502W        W94570   5.865   4.291   2.661
21503W        W94571   4.654  20.632   0.457
21504W        W94572  26.545  35.920  10.252
21505W        W94573  32.042  33.148   4.276
21506W        W94574  15.076   6.838  14.779
21507W        W94575  10.018   1.670   3.895
21508W        W94576  20.711  35.566   4.170
21509W        W94577  35.447  17.682   0.942
21510W        W94578  33.587  20.051   1.040
21511W        W94579  30.496   9.667   3.260
21512W        W94580  10.492  43.756   0.270
21513W        W94581   4.221  28.668  14.148
21514W        W94582  27.731  24.938   0.028
21515W        W94583  38.901   8.961  10.240
21516W        W94584  19.388   7.174  12.919
21517W        W94585  11.548  27.129   1.313
21518W        W94586   5.015  18.578  14.193
21519W        W94587  33.528  19.092  14.588
21520W        W94588  39.075  16.562  14.286
21521W        W94589  40.820  32.948  13.114
21522W        W94590  43.932  34.843  13.919
21523W        W94591  17.015   6.056  12.459
21524W        W94592   0.910   5.357   0.454
21525W        W94593   6.173   2.803  12.877
21526W        W94594  15.528  20.482  14.473
21527W        W94595  20.768  39.817  11.525
21528W        W94596  22.124  25.057  13.832
21529W        W94597   8.344  30.075   2.680
21530W        W94598  22.574  13.137   2.292
21531W        W94599  23.572  41.002   0.453
21532W        W94600  25.231  37.855  11.388
21533W        W94601   2.276   7.766   3.230
21534W        W94602  34.473   7.640  11.544
21535W        W94603   8.399   8.781   0.786
21536W        W94604   9.795   7.945   1.726
21537W        W94605  14.319  38.104  12.205
21538W        W94606  31.053  35.843   0.383
21539W        W94607  19.485   9.404   1.322
21540W        W94608  22.520  32.072  11.093
21541W        W94609  35.822  24.606  14.464
21542W        W94610  20.505  32.646  13.843
21543W        W94611  25.947  23.601  12.105
21544W        W94612   4.732  39.933  14.354
21545W        W94613  12.368   2.540  13.365
21546W        W94614  20.846  44.531  13.228
21547W        W94615   6.970  32.644   3.711
21548W        W94616  13.618   7.899   2.383
21549W        W94617  10.689  22.504   1.208
21550W        W94618  30.846  43.028  11.422
21551W        W94619  22.303  11.640   0.897
21552W        W94620  28.949  19.061   3.696
21553W        W94621  19.255  28.610   4.756
21554W        W94622  29.705  30.399  14.561
21555W        W94623   1.841  16.799  14.157
21556W        W94624  11.232  16.942   5.018
21557W        W94625   5.217   6.801   3.385
21558W        W94626   8.780   5.294   3.288
21559W        W94627  40.964  18.032  12.948
21560W        W94628  24.586  10.410  10.473
21561W        W94629  26.941  38.850   0.898
21562W        W94630  34.829  25.999  14.880
21563W        W94631   3.769  11.493  13.380
21564W        W94632  31.041   5.642   1.559
21565W        W94633   4.897  37.470   2.098
21566W        W94634   7.304  12.310   4.615
21567W        W94635  30.979  29.495   2.677
21568W        W94636  21.952  28.233  12.887
21569W        W94637  44.528  24.875   2.627
21570W        W94638   8.475   6.772  11.054
21571W        W94639   8.788  42.159  13.500
21572W        W94640  31.134  33.943   0.788
21573W        W94641   0.243  20.465   3.055
21574W        W94642  21.534  22.284  13.112
21575W        W94643   1.375  29.981  13.340
21576W        W94644  11.733  24.795  13.984
21577W        W94645   6.813  23.989  14.429
21578W        W94646  12.434  42.941   2.811
21579W        W94647  13.091   0.522   0.801
21580W        W94648  39.507  11.972   2.709
21581W        W94649  19.708  31.882   3.712
21582W        W94650  13.251  41.834   0.689
21583W        W94651  38.563  36.419  13.335
21584W        W94652  28.586   9.429   4.232
21585W        W94653   9.735   2.794  11.778
21586W        W94654  13.738  16.678  14.842
21587W        W94655  25.703  12.266  13.390
21588W        W94656  31.837   1.192  10.564
21589W        W94657  27.011  27.475   0.403
21590W        W94658   5.815  26.256  11.680
21591W        W94659  43.871  31.112  13.824
21592W        W94660  12.111  43.950  11.497
21593W        W94661  22.270  20.606   4.377
21594W        W94662  15.311  30.614  14.442
21595W        W94663  43.278   5.398   3.428
21596W        W94664  41.322  16.131   3.164
21597W        W94665  44.359   4.701   2.399
21598W        W94666  19.721  44.878  11.164
21599W        W94667  20.120  21.126  13.508
21600W        W94668  24.361   8.069  10.498
21601W        W94669  33.034  44.882   4.344
21602W        W94670   1.237  17.518  12.395
21603W        W94671   1.503  22.666  11.885
21604W        W94672   5.472  24.681   3.814
21605W        W94673   4.826  39.246  13.012
21606W        W94674   2.602  38.863   0.545
21607W        W94675  38.921   9.711  13.289
21608W        W94676  43.778   8.961   3.676
21609W        W94677   7.317  44.501   3.949
21610W        W94678  11.765  15.721  13.459
21611W        W94679  16.605   1.958   3.197
21612W        W94680  16.823  35.970   1.208
21613W        W94681   2.943  31.882   4.581
21614W        W94682  30.602  36.507   2.357
21615W        W94683  30.949  25.027  13.383
21616W        W94684   2.580  44.896  10.565
21617W        W94685   4.779  24.674   1.098
21618W        W94686  39.311  42.383   4.330
21619W        W94687  30.982  35.508   3.768
21620W        W94688  34.569  18.216  14.932
21621W        W94689  15.611  10.767   1.743
21622W        W94690  29.446  26.089  14.068
21623W        W94691  29.589   3.714   0.928
21624W        W94692  37.972  24.467   4.190
21625W        W94693  43.370  17.770  11.921
21626W        W94694   9.157  11.261   0.392
21627W        W94695  42.829  31.698   1.731
21628W        W94696  30.207  44.517   4.996
21629W        W94697  44.819  36.385  14.451
21630W        W94698  29.691  22.117  11.008
21631W        W94699  17.410  40.883   3.795
21632W        W94700  17.231   0.421   4.649
21633W        W94701  12.350  14.115   2.706
21634W        W94702  22.135  28.218   4.627
21635W        W94703  41.764   0.033  13.307
21636W        W94704  35.854   0.420   4.425
21637W        W94705   1.334  31.230  11.949
21638W        W94706  39.000  41.719  14.884
21639W        W94707  34.011  37.922  13.839
21640W        W94708  24.541  21.977   1.368
21641W        W94709   0.775  10.649   1.487
21642W        W94710   6.922  23.192   0.926
21643W        W94711  31.143   5.291   2.590
21644W        W94712  19.669   2.984   0.245
21645W        W94713  42.323  29.502  12.667
21646W        W94714  13.437  33.666  11.080
21647W        W94715  41.836  20.319   3.820
21648W        W94716  23.742  31.774   3.211
21649W        W94717   1.927  17.587   1.150
21650W        W94718  12.784  39.110  10.670
21651W        W94719   6.619  43.892  14.491
21652W        W94720   6.418  23.198   2.359
21653W        W94721  29.288   6.324  11.402
21654W        W94722  27.610  44.404  10.799
21655W        W94723   3.048  39.112   0.452
21656W        W94724  17.512  18.746  11.591
21657W        W94725  40.436  16.197  10.177
21658W        W94726  22.247  13.380   0.010
21659W        W94727  29.149  22.785  12.474
21660W        W94728  15.317   6.266   2.189
21661W        W94729  34.885  21.221  13.452
21662W        W94730  16.080  36.490   1.717
21663W        W94731  11.266  34.034  13.632
21664W        W94732   3.495  20.587  13.409
21665W        W94733  31.873  17.670  14.315
21666W        W94734  29.860  32.457  13.953
21667W        W94735   9.944  11.515   0.313
21668W        W94736   5.198  41.119   1.962
21669W        W94737  36.349  33.059   4.235
21670W        W94738  38.015  40.103  11.209
21671W        W94739  13.144  19.817   1.330
21672W        W94740   0.681  12.195   3.327
21673W        W94741  44.821  37.290  13.064
21674W        W94742   8.817  14.254   4.824
21675W        W94743  31.854  30.639  12.988
21676W        W94744  32.069  27.340   0.435
21677W        W94745   2.323   9.463  12.689
21678W        W94746  13.043  24.036  14.805
21679W        W94747  27.198  36.885  10.775
21680W        W94748  28.595  18.279  13.361
21681W        W94749  16.032  22.912  12.118
21682W        W94750  42.779  10.612   0.363
21683W        W94751   0.712  35.366  11.157
21684W        W94752  31.716  42.364   4.271
21685W        W94753   0.258  23.523  13.139
21686W        W94754  22.636  26.167  12.504
21687W        W94755   7.974  29.206  14.010
21688W        W94756  21.230  24.596  10.476
21689W        W94757  27.889  12.867   3.669
21690W        W94758  26.017  19.839  14.000
21691W        W94759  31.711  22.939   0.535
21692W        W94760  15.728  12.149   3.710
21693W        W94761  26.988  20.139  14.752
21694W        W94762  14.713  43.742   1.276
21695W        W94763  20.257  33.441  14.751
21696W        W94764  28.091  38.567   3.714
21697W        W94765  18.802  37.402  10.677
21698W        W94766   4.820  36.970   2.186
21699W        W94767  42.520  30.876  10.600
21700W        W94768  36.655  20.993   2.946
21701W        W94769   7.707  35.122   2.129
21702W        W94770  13.801  18.688  13.445
21703W        W94771  13.157   0.345  14.755
21704W        W94772  42.725   8.845  11.360
21705W        W94773  35.555  13.888   1.206
21706W        W94774  30.187   7.629  13.506
21707W        W94775   3.293   4.961   3.351
21708W        W94776   1.425  21.212   0.013
21709W        W94777  37.461  36.857   2.460
21710W        W94778  39.831  32.559   0.805
21711W        W94779   6.854  18.788   1.789
21712W        W94780  18.302  25.623   1.706
21713W        W94781  39.147   5.431   5.223
21714W        W94782  15.637  34.025  14.768
21715W        W94783  27.153   5.825  12.903
21716W        W94784  36.831  15.604   2.082
21717W        W94785  42.973   9.136   2.203
21718W        W94786  41.818  33.114  11.601
21719W        W94787  13.249  11.345   4.078
21720W        W94788  11.631  44.636  10.234
21721W        W94789  33.343  13.174   1.800
21722W        W94790  16.599   9.424   0.926
21723W        W94791   0.019  14.705  13.480
21724W        W94792   6.700  37.549   4.807
21725W        W94793  11.791  35.400   0.369
21726W        W94794  26.210  19.638  10.669
21727W        W94795  20.512  24.163  13.860
21728W        W94796  34.829  16.513   0.195
21729W        W94797   4.407  43.465   2.174
21730W        W94798   6.173  39.554  12.817
21731W        W94799  36.574  25.667  10.472
21732W        W94800  44.011  19.840  11.231
21733W        W94801  12.188  36.889  12.518
21734W        W94802  41.953   0.875  13.098
21735W        W94803  13.134   3.376   2.797
21736W        W94804  17.725  12.369  11.956
21737W        W94805   6.644  25.793  11.944
21738W        W94806  42.960   6.653   4.235
21739W        W94807  39.240  12.843  12.328
21740W        W94808  29.374  34.377  12.693
21741W        W94809  44.685  35.072  12.535
21742W        W94810  30.772  30.195   4.130
21743W        W94811   2.432   7.042  13.274
21744W        W94812   1.730  43.596   0.322
21745W        W94813   0.500  29.055   1.795
21746W        W94814  38.935  14.644  14.351
21747W        W94815  38.551  13.578   0.215
21748W        W94816  16.452  13.232  12.518
21749W        W94817  41.349   4.813   2.234
21750W        W94818  34.038  23.604   0.766
21751W        W94819   1.791  15.805  13.792
21752W        W94820  40.511  15.629  12.414
21753W        W94821  42.259   9.145   1.287
21754W        W94822  19.207   9.112  13.847
21755W        W94823  34.398  38.390  11.998
21756W        W94824  23.018  20.210  11.559
21757W        W94825  38.966  38.900  14.121
21758W        W94826  18.186  16.536   2.735
21759W        W94827   3.361  29.122  11.079
21760W        W94828  12.567  22.711   2.434
21761W        W94829  11.658  11.766  14.825
21762W        W94830  43.789  30.126  11.095
21763W        W94831  22.575  12.187   0.009
21764W        W94832  42.700  11.167  13.347
21765W        W94833   0.840  28.421  12.995
21766W        W94834  15.228  33.672   2.826
21767W        W94835  10.399  27.562   3.213
21768W        W94836  41.303  21.124   4.242
21769W        W94837  27.264  10.504  11.869
21770W        W94838  26.598  34.271   2.302
21771W        W94839  13.698   6.938   4.766
21772W        W94840   1.563  37.907   2.236
21773W        W94841  19.547  38.399   2.242
21774W        W94842  18.536  10.932  10.691
21775W        W94843   2.871  41.484  11.500
21776W        W94844   6.906   0.294   1.286
21777W        W94845  38.505  38.101  13.914
21778W        W94846  19.283  29.437   4.519
21779W        W94847  10.209  19.767   4.601
21780W        W94848   8.253  37.743  10.432
21781W        W94849   6.370  33.036  14.866
21782W        W94850   2.980  19.084   4.545
21783W        W94851   3.412  44.759   3.370
21784W        W94852  39.258  11.429  11.435
21785W        W94853  22.274  43.482  11.579
21786W        W94854  14.256  41.997   0.994
21787W        W94855  26.154  21.118  13.402
21788W        W94856  22.134  18.118   1.321
21789W        W94857  44.945  31.387  14.291
21790W        W94858   9.349  25.706   4.770
21791W        W94859  31.396   5.015  14.951
21792W        W94860  35.107  21.475   1.356
21793W        W94861  21.682  19.193   0.889
21794W        W94862  32.808   8.476   9.985
21795W        W94863  43.070   1.541   1.225
21796W        W94864   8.827   0.817   1.380
21797W        W94865  41.603  21.390   2.338
21798W        W94866  10.600  31.882   4.325
21799W        W94867  22.609  21.569  13.573
21800W        W94868   6.749  22.641   1.053
21801W        W94869  43.431  38.442  13.907
21802W        W94870  12.169  44.839   1.188
21803W        W94871  22.055  32.852   2.428
21804W        W94872  43.862  21.582  14.884
21805W        W94873  23.638  29.364  11.165
21806W        W94874  10.810  39.147  10.640
21807W        W94875  14.201  36.891  14.240
21808W        W94876  11.365   9.842  12.014
21809W        W94877   4.482  10.566   1.695
21810W        W94878  36.887  14.633   3.226
21811W        W94879  14.139  11.608  12.136
21812W        W94880  12.559  44.808   1.508
21813W        W94881   9.194  43.917   0.870
21814W        W94882  34.887  27.719  12.612
21815W        W94883  15.135  44.570   0.885
21816W        W94884  19.458  19.689  11.582
21817W        W94885  17.519   2.873   1.745
21818W        W94886   6.422   7.350   3.892
21819W        W94887  14.604   3.310   3.734
21820W        W94888  19.714  42.318  13.793
21821W        W94889  30.216   3.239   3.653
21822W        W94890  39.469  32.017  12.047
21823W        W94891  28.513   4.961   0.762
21824W        W94892  43.811  33.549  13.380
21825W        W94893  32.949  19.345   2.380
21826W        W94894  43.138   6.658  11.612
21827W        W94895  18.624  37.477   2.751
21828W        W94896  18.643  13.791  12.486
21829W        W94897  39.612  41.512   0.034
21830W        W94898  39.046  22.548  14.207
21831W        W94899  15.521  29.673  13.474
21832W        W94900  10.777  37.514  13.984
21833W        W94901  29.193  17.224   3.412
21834W        W94902  36.485  17.112  12.917
21835W        W94903  20.290  31.101  14.908
21836W        W94904  10.832  34.712  12.353
21837W        W94905   7.931  18.061  11.258
21838W        W94906  16.861  24.647  14.410
21839W        W94907  29.504  17.511  12.063
21840W        W94908  14.842   7.275   1.477
21841W        W94909  28.987  27.901   1.824
21842W        W94910  40.238  11.590  12.292
21843W        W94911  11.361  22.483  13.105
21844W        W94912  15.584  29.913  10.199
21845W        W94913  14.611  35.491   1.687
21846W        W94914  26.776  18.650  12.692
21847W        W94915   1.722  33.895  11.022
21848W        W94916  19.612   0.081  11.983
21849W        W94917   9.202  43.563  13.013
21850W        W94918  35.501  26.961   0.450
21851W        W94919  19.223  40.298   3.175
21852W        W94920  42.849  38.881   4.190
21853W        W94921  17.922  40.782   3.794
21854W        W94922  24.543  38.807  14.789
21855W        W94923  41.705  23.031   1.091
21856W        W94924  35.565  42.756   2.722
21857W        W94925  38.302   2.971  13.908
21858W        W94926  40.659  10.322   0.287
21859W        W94927  44.601  36.574   0.857
21860W        W94928  40.023  33.085   3.139
21861W        W94929  24.158  24.099   0.528
21862W        W94930  40.052  34.988  11.095
21863W        W94931  37.565  13.173  12.383
21864W        W94932  10.637  24.934  13.350
21865W        W94933  21.200  42.209  11.556
21866W        W94934  18.786  16.947   4.943
21867W        W94935  43.716   9.389   2.650
21868W        W94936  39.986  28.956  11.376
21869W        W94937  36.697  19.629   2.710
21870W        W94938   2.395   4.886  13.549
21871W        W94939  15.199   6.234   3.047
21872W        W94940  18.057   5.253   2.408
21873W        W94941   6.296  10.642   3.685
21874W        W94942  17.814  10.163   0.919
21875W        W94943  16.689  15.503  12.399
21876W        W94944   7.961  31.827  11.692
21877W        W94945  37.373  29.730   0.298
21878W        W94946   0.794   5.675   4.973
21879W        W94947  14.316   9.300   3.948
21880W        W94948  39.547  25.772   3.094
21881W        W94949  27.675  20.569   3.430
21882W        W94950  31.189  32.374   1.198
21883W        W94951   9.866  14.915   3.204
21884W        W94952   6.857   9.402   2.262
21885W        W94953   3.940  30.387  13.875
21886W        W94954  28.477  33.396   4.647
21887W        W94955  26.431  16.897   3.143
21888W        W94956  12.354  30.639  11.864
21889W        W94957  33.878  32.060   4.622
21890W        W94958   8.419  30.060  10.989
21891W        W94959  43.850  32.338   3.233
21892W        W94960  21.482   0.279   2.052
21893W        W94961  40.578  33.032  12.261
21894W        W94962  41.303  11.436   3.570
21895W        W94963  21.450  17.313  11.919
21896W        W94964  39.948  19.284  12.030
21897W        W94965  33.574  39.420   0.727
21898W        W94966  29.567  33.902  14.460
21899W        W94967  34.989  35.065  11.649
21900W        W94968   0.795  10.828  10.557
21901W        W94969  26.566  10.623  13.491
21902W        W94970  11.298  26.165   0.414
21903W        W94971  40.758  30.019  11.990
21904W        W94972  31.756  15.694  14.422
21905W        W94973  40.929  32.849  11.888
21906W        W94974  27.433  29.548   3.660
21907W        W94975   4.755  44.345   0.769
21908W        W94976   1.156  42.574  12.699
21909W        W94977   2.281  34.449  12.866
21910W        W94978  19.678  18.782   3.710
21911W        W94979  37.615   2.812   3.787
21912W        W94980   9.325   2.369  14.343
21913W        W94981   8.338  16.020   1.462
21914W        W94982  43.754   4.978  14.134
21915W        W94983  23.101   6.082   2.838
21916W        W94984  18.070   3.931   1.175
21917W        W94985  10.213  36.045   0.089
21918W        W94986  34.261  25.276   3.296
21919W        W94987  33.830   3.356  14.732
21920W        W94988  23.746  22.940   2.722
21921W        W94989  30.692  40.281  12.936
21922W        W94990   1.248  22.527  11.422
21923W        W94991  17.292  20.316  14.094
21924W        W94992  44.482   8.283   2.817
21925W        W94993  33.706  10.218   2.123
21926W        W94994  17.696  20.941   2.698
21927W        W94995   7.937  32.658  14.802
21928W        W94996  27.665  20.628  11.916
21929W        W94997  30.131  34.047  13.801
21930W        W94998  13.107  24.669  12.861
21931W        W94999   5.554   0.326   3.890
21932W        W95000  15.253  12.292  13.876
21933W        W95001   8.729  24.631   3.625
21934W        W95002  10.762  42.614  14.945
21935W        W95003  10.368  30.883   3.261
21936W        W95004   6.280  31.494   4.603
21937W        W95005  40.448  32.072   1.316
21938W        W95006  10.690   6.208   3.662
21939W        W95007  25.781  40.420  11.844
21940W        W95008  29.458  29.095   3.856
21941W        W95009  25.487   9.286  13.926
21942W        W95010   2.359   7.540  13.528
21943W        W95011  41.048  17.316  13.353
21944W        W95012  11.822  35.945  13.195
21945W        W95013  14.149  37.975   1.358
21946W        W95014  25.196  15.009  13.088
21947W        W95015  33.067  39.269   0.732
21948W        W95016   7.308   4.373   1.783
21949W        W95017  27.180  25.948  12.128
21950W        W95018  20.789   1.851   1.902
21951W        W95019  21.093   9.687   2.755
21952W        W95020   3.222  20.149  13.468
21953W        W95021   5.240  37.358   3.319
21954W        W95022   2.701  18.790  14.959
21955W        W95023  41.390  36.987   2.808
21956W        W95024  24.547  43.868   0.230
21957W        W95025  13.756  25.517   1.235
21958W        W95026  12.226  33.644   1.819
21959W        W95027  18.543  32.739   2.193
21960W        W95028  20.277  36.086   0.850
21961W        W95029  21.590  32.506   1.450
21962W        W95030  37.082   2.441   0.015
21963W        W95031   9.725  37.077  10.557
21964W        W95032   3.412  16.242  12.378
21965W        W95033  32.604   6.226   1.527
21966W        W95034  11.206  19.572  11.705
21967W        W95035  18.149  37.938   3.814
21968W        W95036  14.225   7.528   0.337
21969W        W95037  35.812   4.104   1.882
21970W        W95038  20.054  35.402   2.761
21971W        W95039  17.810  12.885   2.948
21972W        W95040   3.740  29.436  12.900
21973W        W95041  18.587  32.881   3.629
21974W        W95042  42.720  33.874  11.919
21975W        W95043  21.071  42.375   4.230
21976W        W95044  31.564  12.237   4.084
21977W        W95045  18.781  18.981  14.552
21978W        W95046  39.792  25.777  14.363
21979W        W95047   9.352  18.468  13.207
21980W        W95048  41.911  17.635   4.140
21981W        W95049  29.776   5.270  10.802
21982W        W95050   4.805  32.908  14.707
21983W        W95051   7.357   1.953   0.696
21984W        W95052  40.089  17.393   3.376
21985W        W95053   9.747  20.890   0.228
21986W        W95054  12.683  15.147  11.158
21987W        W95055  35.344  11.802  11.505
21988W        W95056   3.417  39.953   4.017
21989W        W95057  23.049  14.237   2.716
21990W        W95058  16.833   8.919   4.675
21991W        W95059  29.469  29.734   9.590
21992W        W95060  26.773  29.675   4.159
21993W        W95061   9.923   5.584   2.701
21994W        W95062  32.408  21.641   0.953
21995W        W95063   7.795  42.860  10.652
21996W        W95064  33.582  17.088   1.212
21997W        W95065  43.780   3.740  11.400
21998W        W95066   4.397  15.200   3.189
21999W        W95067  14.585  43.022   2.401
22000W        W95068  15.665  30.381  14.065
22001W        W95069  31.311  42.864   0.206
22002W        W95070  37.529  29.697  13.872
22003W        W95071  43.438  11.275   1.767
22004W        W95072  35.116  41.385   1.362
22005W        W95073   7.347  37.288  10.131
22006W        W95074  26.969  31.012  11.031
22007W        W95075  13.425  18.721  11.013
22008W        W95076   8.245  22.829   0.931
22009W        W95077  10.332  14.770  13.928
22010W        W95078  32.582  21.191  14.264
22011W        W95079  44.902  27.356   0.979
22012W        W95080  24.236  13.255   2.828
22013W        W95081  40.360  29.125  13.609
22014W        W95082  43.182  42.985   4.376
22015W        W95083   4.250   1.763   0.763
22016W        W95084  37.379  31.601   5.494
22017W        W95085  23.590   9.976   4.319
22018W        W95086   1.903  25.873   0.038
22019W        W95087  33.265  41.258   5.147
22020W        W95088  42.897   9.978   9.735
22021W        W95089   6.457  43.388  10.696
22022W        W95090  15.770  40.403   0.522
22023W        W95091  22.241   4.210  11.433
22024W        W95092  30.730  30.444   0.310
22025W        W95093  10.096  27.364  12.786
22026W        W95094  12.245  12.720   4.583
22027W        W95095  10.306  40.046  14.772
22028W        W95096  29.623  15.039   4.661
22029W        W95097  37.081   4.345  11.593
22030W        W95098   7.885  34.648  14.831
22031W        W95099   3.501  42.777   1.422
22032W        W95100   6.177  28.270   1.659
22033W        W95101  26.607  37.853   0.766
22034W        W95102  15.405  11.319   4.297
22035W        W95103  35.404  10.224  13.953
22036W        W95104  35.601   7.250   2.374
22037W        W95105  37.291   8.386  13.526
22038W        W95106   8.888  15.468   4.228
22039W        W95107  10.373  36.157  12.821
22040W        W95108  21.277  15.181   1.956
22041W        W95109  43.422  22.451  11.587
22042W        W95110  16.054   4.221  13.875
22043W        W95111  12.107  35.441  11.441
22044W        W95112  10.039  20.260  10.185
22045W        W95113   6.773  29.899  10.629
22046W        W95114  25.042  31.363   0.400
22047W        W95115  37.823  15.789  12.310
22048W        W95116   9.679  24.960   1.983
22049W        W95117  30.995   4.889  13.923
22050W        W95118  11.788  42.719   3.081
22051W        W95119   8.119  26.993   2.395
22052W        W95120  18.972  37.453  12.586
22053W        W95121   3.072  26.104   1.974
22054W        W95122  11.317  23.667   1.787
22055W        W95123  25.009  27.003  10.651
22056W        W95124  30.938  37.408   3.278
22057W        W95125  44.256   9.809   1.848
22058W        W95126  42.616  42.243  13.864
22059W        W95127  30.532  17.716   4.494
22060W        W95128  28.251   1.107  14.987
22061W        W95129   5.696  14.912  13.964
22062W        W95130  24.351  38.616  10.225
22063W        W95131   9.140  13.137  12.030
22064W        W95132   8.294  24.102  10.681
22065W        W95133  16.601   2.032  13.519
22066W        W95134  17.318  12.687  11.711
22067W        W95135  44.522  44.307  12.858
22068W        W95136  18.729  17.154   3.682
22069W        W95137  24.570   9.197   0.975
22070W        W95138   7.450  15.052  11.392
22071W        W95139  30.195   4.404   1.379
22072W        W95140  16.597  44.455  14.853
22073W        W95141  25.682  33.617  14.315
22074W        W95142  33.707   9.599   0.974
22075W        W95143  28.133  12.002   0.861
22076W        W95144   7.274  25.567  10.667
22077W        W95145   0.471  25.659   0.225
22078W        W95146  16.487  13.554   0.393
22079W        W95147  33.586  19.177  14.091
22080W        W95148  41.075  26.378  11.071
22081W        W95149  20.155  21.308   2.434
22082W        W95150   9.279  28.901  12.977
22083W        W95151  37.758  31.180  11.596
22084W        W95152  10.673   0.231  12.494
22085W        W95153  15.341   9.255  12.403
22086W        W95154  17.062   6.816   5.115
22087W        W95155  33.703  10.289  11.221
22088W        W95156  18.694  43.785  12.966
22089W        W95157   8.686  20.016   0.859
22090W        W95158  19.536   0.203  10.581
22091W        W95159   3.214  17.734   4.132
22092W        W95160  40.553  22.202   0.775
22093W        W95161  12.549  33.148   2.408
22094W        W95162   1.828  38.145  13.843
22095W        W95163  23.444  42.454  11.085
22096W        W95164  39.805  41.283   4.075
22097W        W95165   3.229   1.981  12.642
22098W        W95166  28.914  41.964   2.719
22099W        W95167   0.431   3.887   1.891
22100W        W95168  26.468  35.509  13.912
22101W        W95169  40.423  10.610   0.957
22102W        W95170  35.347   8.503  13.323
22103W        W95171  44.463  33.820   1.999
22104W        W95172  35.621  19.069   0.040
22105W        W95173   5.970  13.816  12.854
22106W        W95174  37.484  36.845   4.911
22107W        W95175   0.071   7.280   2.898
22108W        W95176   2.492   2.204   4.411
22109W        W95177  14.138  10.945  12.966
22110W        W95178  36.830  31.190   1.772
22111W        W95179   9.425  30.136   1.548
22112W        W95180  10.739  41.506   4.612
22113W        W95181   7.944  22.024  11.155
22114W        W95182   1.724   0.844   2.023
22115W        W95183  29.732   4.358  14.570
22116W        W95184  43.110  19.271   1.523
22117W        W95185  37.429  13.597  14.450
22118W        W95186  36.998   2.461   0.976
22119W        W95187  36.333  38.564  11.231
22120W        W95188  42.761  30.393  11.417
22121W        W95189  11.162  41.818   4.637
22122W        W95190  26.704  27.025   0.411
22123W        W95191  13.691  22.691  14.329
22124W        W95192  38.337   8.956   1.233
22125W        W95193  25.275  39.940  14.985
22126W        W95194  17.237  42.309   0.240
22127W        W95195  17.615  14.027  10.576
22128W        W95196  32.662   5.525  13.790
22129W        W95197   9.749   5.360  12.996
22130W        W95198  28.276   4.334  10.318
22131W        W95199   7.659   4.141  11.463
22132W        W95200  20.998  43.084  14.357
22133W        W95201  36.637  18.120  12.952
22134W        W95202  44.422  39.369   4.835
22135W        W95203  26.122  13.075   5.068
22136W        W95204  12.404   3.157   0.961
22137W        W95205  10.830   7.948   2.617
22138W        W95206  17.798  10.703   4.396
22139W        W95207  24.010  25.733   1.207
22140W        W95208  24.482  31.179  10.658
22141W        W95209  23.761  38.067  14.411
22142W        W95210  34.151  34.546  12.020
22143W        W95211  19.376  38.648   1.349
22144W        W95212  10.219   5.290  10.721
22145W        W95213  40.308  31.173  11.256
22146W        W95214   4.989   7.909  13.114
22147W        W95215  11.816  27.004  14.515
22148W        W95216  38.344   6.748   1.138
22149W        W95217  24.081   4.175  12.423
22150W        W95218  22.053  30.258   2.652
22151W        W95219  43.958   9.651   4.177
22152W        W95220  32.966  21.741   2.723
22153W        W95221   2.444  28.626  10.881
22154W        W95222  28.886  27.190  11.603
22155W        W95223  20.418  17.806  12.449
22156W        W95224  39.219  20.635  13.536
22157W        W95225  24.447   9.293   2.446
22158W        W95226   1.010  44.785   1.412
22159W        W95227   9.222   2.373   2.502
22160W        W95228  43.694  39.013   1.174
22161W        W95229   9.471   2.139  13.025
22162W        W95230  37.829  28.133   4.289
22163W        W95231  21.323  25.428  14.896
22164W        W95232  32.556   1.703  12.795
22165W        W95233  24.166   9.773  13.775
22166W        W95234  40.405  14.772  11.356
22167W        W95235  30.981   6.719   4.010
22168W        W95236  35.096   8.627   4.543
22169W        W95237   0.745  14.547   2.378
22170W        W95238  24.583  13.602   3.221
22171W        W95239  41.455  29.942   4.505
22172W        W95240  44.415  18.208  14.962
22173W        W95241   5.683  30.902  13.390
22174W        W95242  16.992  42.830  14.001
22175W        W95243   0.321   0.579  10.970
22176W        W95244   4.070  31.112   1.335
22177W        W95245  12.648  28.613   1.301
22178W        W95246  27.160  21.365   0.843
22179W        W95247  23.924  30.993   2.044
22180W        W95248  41.564  27.963  12.690
22181W        W95249  43.378  17.647   3.270
22182W        W95250  14.219   4.005   0.745
22183W        W95251  15.887  23.757   3.154
22184W        W95252  21.651  15.356   3.781
22185W        W95253  41.423  29.835  12.456
22186W        W95254  43.174  11.044   3.047
22187W        W95255  14.204  37.913   1.915
22188W        W95256  15.579   0.483  11.128
22189W        W95257  19.064  36.249   2.687
22190W        W95258  31.076  39.486   1.725
22191W        W95259  10.766  11.364   2.445
22192W        W95260   3.494  25.733   3.193
22193W        W95261   3.856  34.720   1.492
22194W        W95262  35.189  35.920  14.399
22195W        W95263  28.563  24.102   0.414
22196W        W95264  38.662   0.118  12.580
22197W        W95265  14.307   2.644  10.739
22198W        W95266  31.572   6.748  13.568
22199W        W95267  24.196  13.576   1.221
22200W        W95268  30.407  44.532  13.478
22201W        W95269  17.787  26.553  13.316
22202W        W95270  42.718   5.347   1.839
22203W        W95271   8.183  18.125   1.748
22204W        W95272  10.689  12.258  10.863
22205W        W95273  25.600  11.155   1.003
22206W        W95274  33.539  23.424   0.840
22207W        W95275   1.520  28.106   2.139
22208W        W95276   4.673  39.928  11.210
22209W        W95277  25.643  17.538  13.870
22210W        W95278  23.224  20.589   3.368
22211W        W95279  28.325  19.180   1.435
22212W        W95280  25.471  28.011   4.123
22213W        W95281  17.722  23.735  12.524
22214W        W95282   8.317  14.559  14.459
22215W        W95283  41.923  30.525   2.464
22216W        W95284  36.905  20.983  13.560
22217W        W95285  12.925  24.059   4.517
22218W        W95286   9.065  17.524  13.401
22219W        W95287   3.710  18.175   1.437
22220W        W95288  23.693   6.782   1.658
22221W        W95289  10.597  26.357   3.774
22222W        W95290  33.063  37.909  13.950
22223W        W95291  25.856  10.657   3.265
22224W        W95292  26.144  31.835  12.682
22225W        W95293   2.935  15.653   3.181
22226W        W95294  32.098  11.858   5.045
22227W        W95295  18.287  43.513  13.849
22228W        W95296  19.527   3.824  14.821
22229W        W95297  27.000  15.964  14.095
22230W        W95298  15.134  20.030  13.123
22231W        W95299  30.402  18.983   1.720
22232W        W95300  39.400  44.713   1.936
22233W        W95301  40.847  21.552  11.574
22234W        W95302  27.480   0.012  11.562
22235W        W95303  44.376  42.539   4.413
22236W        W95304  26.593  42.757   0.974
22237W        W95305  31.094  44.017  13.345
22238W        W95306  21.057  42.709   0.431
22239W        W95307  31.058  15.847  13.930
22240W        W95308  39.861  31.946   0.357
22241W        W95309   0.958  18.297  12.525
22242W        W95310  24.018   0.007  13.006
22243W        W95311  33.864  34.020  11.380
22244W        W95312  40.244  12.506   0.726
22245W        W95313  33.768  34.498   4.380
22246W        W95314  25.089   1.464  10.801
22247W        W95315  33.961  41.873   2.196
22248W        W95316  12.841   4.868   0.444
22249W        W95317  18.407  38.598  12.085
22250W        W95318  32.019   8.980  11.130
22251W        W95319  43.793  24.534   4.744
22252W        W95320  21.701   4.964   0.184
22253W        W95321  21.314  28.062   3.226
22254W        W95322   0.449  29.869  13.809
22255W        W95323  19.620  29.138   3.686
22256W        W95324  12.316   7.645  14.850
22257W        W95325   6.887  28.472  11.728
22258W        W95326  36.800  40.081   0.774
22259W        W95327  27.893  32.148  11.168
22260W        W95328   0.121  33.896  14.369
22261W        W95329  12.032  23.046  13.442
22262W        W95330  43.225  23.449  13.832
22263W        W95331   7.391  11.763   0.349
22264W        W95332  28.955  15.687   1.773
22265W        W95333  23.083  16.611   4.645
22266W        W95334   1.407  20.977  11.957
22267W        W95335  41.400  28.725  13.828
22268W        W95336  34.608  40.851   3.122
22269W        W95337  14.619  38.084  14.072
22270W        W95338  41.014  11.837  13.866
22271W        W95339  44.093  22.134   0.562
22272W        W95340  14.107  41.566   3.874
22273W        W95341  25.232  33.853   0.353
22274W        W95342  33.862  29.510  12.985
22275W        W95343  39.007   0.253   3.286
22276W        W95344  39.095  31.386  10.762
22277W        W95345  11.660  37.050   0.922
22278W        W95346  26.962  15.368  11.456
22279W        W95347  14.793  28.111  10.882
22280W        W95348   0.768  37.960   1.671
22281W        W95349   9.270   7.036  11.908
22282W        W95350  36.432  18.604   3.321
22283W        W95351   0.043  13.229   1.217
22284W        W95352   5.483  35.574   1.428
22285W        W95353  21.482  26.187   0.431
22286W        W95354  34.998  18.632   4.595
22287W        W95355  24.087  39.091  12.363
22288W        W95356   5.238  22.317  13.842
22289W        W95357  21.160  23.579  10.710
22290W        W95358  33.903  36.569  13.066
22291W        W95359   1.226  18.283  11.457
22292W        W95360  16.312  15.109   0.062
22293W        W95361   3.580   5.356  14.342
22294W        W95362  11.563  11.286   0.070
22295W        W95363   2.500  41.862  12.496
22296W        W95364  33.938  11.399  14.763
22297W        W95365  26.861  24.063   3.768
22298W        W95366  32.634  33.622  10.480
22299W        W95367  28.317  24.116  11.137
22300W        W95368  19.350  13.297  12.310
22301W        W95369  33.780  35.937   3.357
22302W        W95370  42.741  33.700   0.803
22303W        W95371  23.594  37.927  12.571
22304W        W95372   2.442  15.692  13.866
22305W        W95373   1.743  35.499   0.056
22306W        W95374   7.194   9.307  12.366
22307W        W95375   3.374  11.609   1.402
22308W        W95376  21.105  39.996   1.626
22309W        W95377  33.899  25.687   0.280
22310W        W95378   0.891  20.576   1.337
22311W        W95379  14.731  23.215  11.887
22312W        W95380  36.926  30.915  13.433
22313W        W95381  35.787  15.178   1.478
22314W        W95382  10.173  24.773  12.500
22315W        W95383   8.118  35.123   3.781
22316W        W95384  24.013  43.048  13.194
22317W        W95385  14.215  27.897  13.967
22318W        W95386  11.247   2.276  14.205
22319W        W95387  38.319  30.999   3.593
22320W        W95388  36.080   2.952  13.571
22321W        W95389  33.070   7.643   3.824
22322W        W95390  14.235   1.221   4.086
22323W        W95391  43.330   1.913   4.141
22324W        W95392  31.535  41.078   2.768
22325W        W95393  16.271  30.661  12.108
22326W        W95394  27.465  34.532  12.601
22327W        W95395  20.616   6.285   1.200
22328W        W95396   0.204  27.622  11.164
22329W        W95397  25.540  20.760   0.635
22330W        W95398  19.291  22.360   1.927
22331W        W95399   0.429  24.521  12.832
22332W        W95400  33.108  17.502  13.046
22333W        W95401  13.828  42.599  12.044
22334W        W95402  27.498  32.446   3.076
22335W        W95403  34.645  33.076   3.742
22336W        W95404  44.916  39.049   4.484
22337W        W95405   8.921  31.994   0.364
22338W        W95406  31.696  43.398   3.377
22339W        W95407  25.103  37.064   1.715
22340W        W95408   9.330  13.286   3.773
22341W        W95409   0.503  23.492  14.574
22342W        W95410  10.658  11.395   2.944
22343W        W95411  40.982  40.906   3.785
22344W        W95412  10.891  37.404  13.422
22345W        W95413  12.799  31.486   0.184
22346W        W95414  34.443  25.669   3.578
22347W        W95415  10.205  26.628  14.062
22348W        W95416  37.371  10.163   2.796
22349W        W95417  35.290   0.372   3.251
22350W        W95418  21.992  13.068  11.124
22351W        W95419  37.749   1.807   5.039
22352W        W95420  35.365  16.068  14.048
22353W        W95421  30.465   8.139   3.135
22354W        W95422  24.993   7.659   2.278
22355W        W95423   0.689  24.228   1.364
22356W        W95424   1.976   3.869   1.753
22357W        W95425  43.009   7.138   1.977
22358W        W95426  25.096  25.951  13.369
22359W        W95427  10.550  13.141  11.862
22360W        W95428  15.146   4.736   3.542
22361W        W95429  28.498  44.351  12.548
22362W        W95430   4.324  27.275   3.205
22363W        W95431  14.820  18.137   2.727
22364W        W95432  43.630  43.770   4.136
22365W        W95433  44.305  36.827   0.509
22366W        W95434  37.183  15.516   3.528
22367W        W95435  16.342   8.886  14.251
22368W        W95436   5.486   7.327   0.852
22369W        W95437  39.905  15.241  12.995
22370W        W95438  22.580  40.072   0.858
22371W        W95439  19.214  30.504  14.022
22372W        W95440  40.011  37.476  12.040
22373W        W95441  10.976  20.114   9.597
22374W        W95442   2.037  20.333  11.650
22375W        W95443  29.947  15.273   1.289
22376W        W95444  14.186  25.413  13.141
22377W        W95445  34.395  41.315   1.720
22378W        W95446  13.051  18.307  10.478
22379W        W95447   5.431   1.828  13.885
22380W        W95448   5.916  13.336   3.379
22381W        W95449  42.428   1.001  12.798
22382W        W95450   3.256  24.678   4.114
22383W        W95451   3.918  29.421   1.024
22384W        W95452  25.051  19.653  12.879
22385W        W95453  17.152  18.793   4.369
22386W        W95454  30.366  31.240   2.814
22387W        W95455  25.276  37.419   0.908
22388W        W95456  12.691  42.377  12.083
22389W        W95457  30.460   6.886   4.069
22390W        W95458  18.099   8.794  12.613
22391W        W95459   8.743  31.476   4.765
22392W        W95460  36.765  24.362   3.274
22393W        W95461  32.926  37.406   2.741
22394W        W95462  33.917   2.364   0.354
22395W        W95463  31.409  24.024  13.460
22396W        W95464  40.063   3.709  12.898
22397W        W95465  22.158   9.435  12.443
22398W        W95466  28.856  11.320   1.879
22399W        W95467  43.828  26.662   1.167
22400W        W95468  43.989  31.084   2.786
22401W        W95469  12.329  15.846   0.833
22402W        W95470  11.695   5.213  14.010
22403W        W95471  11.658   1.255   3.173
22404W        W95472  27.690  32.674  14.517
22405W        W95473  24.124  19.006   2.342
22406W        W95474   6.804   8.313  12.120
22407W        W95475  18.941  21.572  14.853
22408W        W95476   1.744  26.347   4.223
22409W        W95477  38.113  21.112   3.353
22410W        W95478   5.498  44.243  14.425
22411W        W95479  37.671  26.431  14.974
22412W        W95480  19.263  21.555  12.700
22413W        W95481  21.104  24.524   4.176
22414W        W95482  10.224  22.044   4.830
22415W        W95483  16.921   3.109   4.095
22416W        W95484   1.655  36.895  13.114
22417W        W95485  26.013  35.100  10.669
22418W        W95486  44.243  19.162   2.282
22419W        W95487  28.630  35.669  10.703
22420W        W95488  31.081  14.299  11.198
22421W        W95489  30.344  41.808   2.680
22422W        W95490  36.190  20.024   1.894
22423W        W95491  25.256  36.541  13.491
22424W        W95492  12.159  13.404  11.914
22425W        W95493  43.224  21.742  14.290
22426W        W95494  15.470   9.416  13.290
22427W        W95495  20.021  38.125   3.938
22428W        W95496   1.522   1.403   0.774
22429W        W95497  28.076   1.007   3.017
22430W        W95498  11.854  15.684   3.867
22431W        W95499  23.535  38.188  10.553
22432W        W95500   0.860  23.065   2.812
22433W        W95501  28.142  43.617  14.001
22434W        W95502  16.309   0.532   0.526
22435W        W95503  40.868  44.726   2.411
22436W        W95504  31.991  24.198  12.143
22437W        W95505  13.530  32.574   3.223
22438W        W95506   6.054  38.355   2.131
22439W        W95507  43.319  33.203   0.342
22440W        W95508   6.721   6.377   4.502
22441W        W95509   0.142  30.499   5.086
22442W        W95510   3.298  29.733  12.967
22443W        W95511  30.611   1.880  13.321
22444W        W95512   0.711   3.169  13.504
22445W        W95513  14.173  29.922  12.995
22446W        W95514  26.142  44.863   2.849
22447W        W95515  22.048  36.988  14.967
22448W        W95516  37.250  32.578   2.893
22449W        W95517  36.023  19.089  12.454
22450W        W95518  29.721  20.159   3.742
22451W        W95519  12.388  10.597   2.598
22452W        W95520   1.211  10.006   3.205
22453W        W95521  10.657  24.046   1.615
22454W        W95522  30.188  21.947  14.730
22455W        W95523  11.326  22.481  10.609
22456W        W95524  27.773  29.550  12.048
22457W        W95525  30.268  20.829   5.033
22458W        W95526  28.682  16.520  10.714
22459W        W95527  22.581  10.741   3.927
22460W        W95528  21.245  15.815  13.081
22461W        W95529   7.117   0.721   1.458
22462W        W95530  22.210  44.067   1.950
22463W        W95531  25.628  12.669   1.319
22464W        W95532  37.152  40.937  14.776
22465W        W95533  39.964  18.768  14.454
22466W        W95534  35.370  20.478   3.477
22467W        W95535  21.658  20.222  11.622
22468W        W95536  27.081  24.728   2.848
22469W        W95537  14.295  40.615   2.299
22470W        W95538  12.529   6.751   1.386
22471W        W95539  19.708  20.152  10.724
22472W        W95540  33.954  26.230   3.121
22473W        W95541  44.281  14.085   3.738
22474W        W95542  40.462  40.945  12.435
22475W        W95543   8.571   6.375  12.739
22476W        W95544  36.479  34.325  10.512
22477W        W95545   1.502   4.791   2.747
22478W        W95546  28.953  19.104  10.840
22479W        W95547  24.971  20.350   1.919
22480W        W95548  18.691  34.961   4.620
22481W        W95549  13.770  26.036  13.792
22482W        W95550  19.103  12.729   1.855
22483W        W95551  39.678  10.773  14.277
22484W        W95552  36.617   5.006  13.239
22485W        W95553  19.796  31.395  11.445
22486W        W95554  14.264   3.904  12.068
22487W        W95555  39.577  36.942  10.724
22488W        W95556  16.096  22.230   3.824
22489W        W95557  42.951  13.740   1.789
22490W        W95558  37.155  33.885   4.607
22491W        W95559  34.880  32.640   0.712
22492W        W95560  22.029  19.980  12.407
22493W        W95561  35.375  41.045  14.045
22494W        W95562  28.592   9.809   2.829
22495W        W95563  33.033   0.183  12.081
22496W        W95564  32.205  29.696  12.096
22497W        W95565   5.955   7.150   0.715
22498W        W95566  10.729  33.968  13.697
22499W        W95567   8.770  36.034   2.274
22500W        W95568   6.185   9.272  11.951
22501W        W95569  31.912   2.792  14.632
22502W        W95570  33.138  40.794  14.119
22503W        W95571  39.397  33.930  14.711
22504W        W95572  14.023  13.819  10.649
22505W        W95573   7.355  38.630  10.723
22506W        W95574  13.378  32.404   2.730
22507W        W95575   9.608   3.275  10.681
22508W        W95576  13.830   6.694   2.234
22509W        W95577  43.499   5.255  14.556
22510W        W95578  26.657  38.840  10.309
22511W        W95579  34.286   5.910  13.287
22512W        W95580  10.260  31.025   4.604
22513W        W95581  27.518  37.609  13.809
22514W        W95582  27.326   3.364  12.477
22515W        W95583   9.900  33.853   0.416
22516W        W95584   5.935  29.397  14.640
22517W        W95585  44.580  27.076  10.632
22518W        W95586  23.521   6.378   0.799
22519W        W95587  41.506  35.644  11.717
22520W        W95588  12.293  23.542  14.648
22521W        W95589   4.393  31.212  12.108
22522W        W95590   1.963   3.861  14.350
22523W        W95591  25.693  27.839   3.108
22524W        W95592   8.742  13.024  12.862
22525W        W95593  11.713  14.724  11.603
22526W        W95594  39.507  16.707   3.242
22527W        W95595  26.818  40.430  13.116
22528W        W95596  44.984  32.939   2.157
22529W        W95597  19.206  36.005   0.946
22530W        W95598  31.122   3.199  14.266
22531W        W95599  17.019  12.765   2.171
22532W        W95600  36.591  38.216   4.446
22533W        W95601   2.450  20.245   4.394
22534W        W95602  28.450   5.664  14.940
22535W        W95603  12.620   1.829  12.613
22536W        W95604  13.101   9.323  12.221
22537W        W95605   9.089   0.641  11.583
22538W        W95606  41.503  12.220  12.524
22539W        W95607  30.147   3.274   4.522
22540W        W95608  43.539  39.001   0.666
22541W        W95609   8.986   4.719  14.480
22542W        W95610  42.826   6.945   4.630
22543W        W95611  23.380  27.031   3.664
22544W        W95612  20.534  36.884  14.833
22545W        W95613  25.926  39.491  13.000
22546W        W95614   5.680  22.737   1.350
22547W        W95615  25.930  12.186  12.068
22548W        W95616   2.894  41.794   1.486
22549W        W95617  43.630   0.194   3.594
22550W        W95618   8.867  13.207   1.767
22551W        W95619  17.252  19.337  14.347
22552W        W95620  40.360  27.805   5.025
22553W        W95621  19.668  16.295   1.894
22554W        W95622  13.090  34.048  14.364
22555W        W95623  32.060  24.991   0.305
22556W        W95624  21.706  32.403   1.923
22557W        W95625  44.421  39.942   2.198
22558W        W95626  35.299  16.488   2.753
22559W        W95627  32.326  16.038   2.441
22560W        W95628  19.941  22.571   4.091
22561W        W95629   2.257  10.889   0.342
22562W        W95630  37.520   2.483   0.902
22563W        W95631  21.362  34.086  12.613
22564W        W95632  15.053   5.286   1.959
22565W        W95633  43.727  18.248  12.535
22566W        W95634  16.614  16.281   0.844
22567W        W95635  20.223  27.606   2.089
22568W        W95636   4.233  41.083  10.609
22569W        W95637   9.679  36.340  14.437
22570W        W95638  39.063   3.743   0.825
22571W        W95639  43.993  44.955  13.489
22572W        W95640  21.154   3.986   2.376
22573W        W95641  34.763  32.872   2.389
22574W        W95642  36.387  12.846   1.183
22575W        W95643  28.107  26.484  12.999
22576W        W95644  43.336  29.141  12.588
22577W        W95645  25.436   9.721   3.621
22578W        W95646  35.251   4.653   9.893
22579W        W95647  42.397  37.681  11.970
22580W        W95648  25.571  21.097  12.072
22581W        W95649   4.166  26.524  11.690
22582W        W95650  29.959  38.546  10.389
22583W        W95651  29.474  25.698   0.919
22584W        W95652  35.923   0.942  13.870
22585W        W95653  27.269  35.774   2.754
22586W        W95654  19.608  24.966  13.944
22587W        W95655  20.243  39.904  13.915
22588W        W95656   6.817   2.552  11.519
22589W        W95657  25.038  17.348  10.777
22590W        W95658  26.113  37.915   0.491
22591W        W95659   1.492  44.503  13.101
22592W        W95660   2.492  41.232   3.300
22593W        W95661  35.927  26.687  11.227
22594W        W95662  36.941  35.524   2.684
22595W        W95663  41.333  11.786   3.176
22596W        W95664  42.394   5.715  12.740
22597W        W95665   9.625   8.379   1.285
22598W        W95666  39.850  15.516   2.753
22599W        W95667  39.527   5.643  10.264
22600W        W95668   6.231  40.907   0.252
22601W        W95669  34.276  38.231  14.449
22602W        W95670  20.019  33.755   0.557
22603W        W95671  43.457   3.816   4.642
22604W        W95672  10.900  16.267   1.691
22605W        W95673  14.110   7.175  14.888
22606W        W95674  24.108  14.216   0.726
22607W        W95675  19.735  22.423  11.113
22608W        W95676  32.548  25.934   4.460
22609W        W95677  28.412  10.073  12.576
22610W        W95678  40.078  30.870  13.741
22611W        W95679  21.398  35.851  10.317
22612W        W95680  35.058   1.314  13.426
22613W        W95681  41.807   8.265  10.496
22614W        W95682  22.657  11.146   4.678
22615W        W95683  18.136   5.647   4.595
22616W        W95684   7.370  32.524   1.725
22617W        W95685  24.742  39.862  10.346
22618W        W95686  38.314  32.538   1.777
22619W        W95687  12.866  26.313  14.543
22620W        W95688  39.892  41.873  10.730
22621W        W95689  40.290  29.692   0.826
22622W        W95690  25.756   3.338  10.257
22623W        W95691  12.225  15.682  14.048
22624W        W95692  24.265  35.815   4.753
22625W        W95693  19.559  23.956   2.549
22626W        W95694  30.303  39.870  14.904
22627W        W95695   2.219  34.702   2.333
22628W        W95696  28.543   9.372  11.568
22629W        W95697  24.000  25.528  12.610
22630W        W95698  14.046  24.446  12.141
22631W        W95699  20.857  24.149  13.462
22632W        W95700  28.129  35.418   3.638
22633W        W95701  28.189  16.730   4.601
22634W        W95702  33.412   6.828   1.742
22635W        W95703  44.506   8.871  10.693
22636W        W95704  29.221  32.482   4.312
22637W        W95705  38.188  13.931  11.477
22638W        W95706  31.379  37.561   0.357
22639W        W95707  37.346  20.332   2.587
22640W        W95708  44.383  42.515   3.903
22641W        W95709   0.046  18.217   1.875
22642W        W95710  11.721  28.888  11.913
22643W        W95711   6.623   2.749  14.523
22644W        W95712  41.291  44.735   0.825
22645W        W95713  42.760  43.575   3.209
22646W        W95714  34.030  15.075   4.623
22647W        W95715  39.957  19.485   1.341
22648W        W95716  16.542  38.395  11.729
22649W        W95717   2.134  31.528  11.197
22650W        W95718  38.521  28.306  14.316
22651W        W95719   4.808  12.202  13.026
22652W        W95720   6.125   6.703  13.722
22653W        W95721  33.854  29.677  14.992
22654W        W95722  27.230  11.372  11.567
22655W        W95723  37.591  29.498   3.967
22656W        W95724  34.334  34.128  13.949
22657W        W95725  42.883  29.934   4.600
22658W        W95726  13.916  30.400   2.151
22659W        W95727   8.283  34.015  14.407
22660W        W95728  10.739   0.596   3.219
22661W        W95729   1.704  10.097   3.354
22662W        W95730  43.291   9.110   2.626
22663W        W95731  40.429  33.928  12.682
22664W        W95732  33.912  36.638  14.927
22665W        W95733  27.741  19.753   3.806
22666W        W95734  31.010  28.655   4.665
22667W        W95735  14.310  18.345   2.650
22668W        W95736  26.677   0.744   3.183
22669W        W95737  31.975  38.390   2.256
22670W        W95738  20.462  25.058  10.686
22671W        W95739  10.374  27.943   2.346
22672W        W95740   2.249  17.264   2.747
22673W        W95741  24.118   2.921  11.040
22674W        W95742  44.709   9.763  11.931
22675W        W95743  29.813  10.369  12.252
22676W        W95744  44.699   1.405  11.160
22677W        W95745   4.065  42.424   2.970
22678W        W95746  35.379  10.694  11.235
22679W        W95747  10.645   7.792   3.131
22680W        W95748  10.200   3.033   5.043
22681W        W95749  44.021  25.565   3.061
22682W        W95750   5.761  13.649   1.199
22683W        W95751   0.760  38.995  13.443
22684W        W95752  35.941  36.775  14.355
22685W        W95753  23.641   2.945   2.268
22686W        W95754  42.829  31.015   3.745
22687W        W95755  17.890  11.200  12.921
22688W        W95756   1.282  43.033  13.057
22689W        W95757  28.087  12.686  14.028
22690W        W95758  10.256   2.454   3.489
22691W        W95759  37.042  19.793   3.273
22692W        W95760   5.403  39.526  12.044
22693W        W95761   4.902  26.709   2.755
22694W        W95762  12.827  13.260  14.462
22695W        W95763  22.577   3.702   3.777
22696W        W95764   6.423  20.535   3.582
22697W        W95765  26.918  33.953  14.339
22698W        W95766  12.341  10.681   3.625
22699W        W95767   4.912  38.914  11.157
22700W        W95768  19.710  19.129  11.508
22701W        W95769  42.057  15.251  11.581
22702W        W95770  38.797   9.875  13.772
22703W        W95771  12.404  16.366   0.900
22704W        W95772   7.144  15.665  12.525
22705W        W95773  23.938  18.248  12.940
22706W        W95774  20.010  34.067  12.576
22707W        W95775  44.980  25.004   0.392
22708W        W95776   7.731  26.560  13.936
22709W        W95777  29.966  35.842  12.547
22710W        W95778  15.835  22.287   1.612
22711W        W95779  41.492  32.901   1.248
22712W        W95780  24.902  10.089   1.974
22713W        W95781  15.654  43.778   0.306
22714W        W95782  20.744  38.139   3.313
22715W        W95783   2.963  40.355   2.261
22716W        W95784  27.932  15.766  13.019
22717W        W95785  18.235  27.716  11.954
22718W        W95786  16.581  39.386  12.582
22719W        W95787   3.329  15.522  14.067
22720W        W95788  17.716  24.750  10.748
22721W        W95789   2.897  29.106  13.453
22722W        W95790  32.180   6.661  14.540
22723W        W95791  39.325  24.144  13.381
22724W        W95792  35.908  16.318  10.919
22725W        W95793  41.417  32.341  14.365
22726W        W95794  30.073  28.650  14.279
22727W        W95795   1.219   5.944   1.244
22728W        W95796  20.239  34.338   1.625
22729W        W95797   2.665  33.749  11.036
22730W        W95798  13.591   9.186   1.894
22731W        W95799  39.972   3.959  13.372
22732W        W95800   3.409  40.769   3.742
22733W        W95801  28.740   2.782  14.458
22734W        W95802  22.357  35.079   0.809
22735W        W95803  38.178  43.017  14.772
22736W        W95804  28.670  29.092  14.464
22737W        W95805  12.945  17.573   0.823
22738W        W95806   3.477  44.570   0.315
22739W        W95807  17.595  27.134  12.943
22740W        W95808  33.078  20.212   4.730
22741W        W95809   4.678  33.512  14.056
22742W        W95810  36.071  18.636   3.675
22743W        W95811  39.775  11.405  12.199
22744W        W95812  20.216  34.002  14.068
22745W        W95813  42.844  42.495   1.499
22746W        W95814  17.898  38.136  13.144
22747W        W95815  36.194  42.762   1.365
22748W        W95816   0.701   2.546   4.110
22749W        W95817  28.884  21.114  11.647
22750W        W95818  19.140  41.445   0.257
22751W        W95819  39.379  24.537   3.529
22752W        W95820  17.155  18.520   3.485
22753W        W95821  15.504  33.196   1.346
22754W        W95822  20.161   8.747   1.165
22755W        W95823   7.398  26.453  12.016
22756W        W95824   7.359  29.598  14.471
22757W        W95825  21.967  17.546   3.839
22758W        W95826  36.688  33.132   3.852
22759W        W95827  18.062  12.700   3.569
22760W        W95828  25.563  37.069   2.460
22761W        W95829  39.437  21.194  10.712
22762W        W95830  26.210   5.139  11.606
22763W        W95831  38.036   7.924  13.173
22764W        W95832  39.032   0.313  14.680
22765W        W95833  36.645   3.320   2.724
22766W        W95834   5.627  30.103   4.546
22767W        W95835  37.981  43.502   1.419
22768W        W95836  32.070  22.598   0.358
22769W        W95837  40.579  15.195  14.841
22770W        W95838  40.462   0.497   0.311
22771W        W95839  23.220  42.425  12.594
22772W        W95840  38.769  11.602  11.742
22773W        W95841  43.323  40.538  14.868
22774W        W95842  40.911  27.369  14.409
22775W        W95843  17.760  22.541   4.737
22776W        W95844   7.409  35.357   1.412
22777W        W95845  44.378   6.910   4.201
22778W        W95846  39.740  13.588  11.496
22779W        W95847  29.602  21.178   1.124
22780W        W95848   1.755  16.151   2.373
22781W        W95849  14.709  18.643   2.814
22782W        W95850  16.996  36.741   3.965
22783W        W95851  10.826  29.185   0.478
22784W        W95852  33.849  43.300   1.197
22785W        W95853  40.938   9.640  13.454
22786W        W95854  13.506  17.306  10.993
22787W        W95855  22.657   5.684  14.790
22788W        W95856   7.707  14.111  13.577
22789W        W95857   7.061  35.336  11.145
22790W        W95858  15.065  34.422   2.346
22791W        W95859  12.564  17.306  13.091
22792W        W95860  23.653  44.057   3.782
22793W        W95861  20.568  35.870  12.449
22794W        W95862  12.171   2.747   3.421
22795W        W95863  28.857  44.872  14.971
22796W        W95864  12.140  30.968   2.619
22797W        W95865   5.380  21.722   1.987
22798W        W95866  21.066  13.037  12.949
22799W        W95867  28.580  25.201   3.450
22800W        W95868  44.565  20.149   1.221
22801W        W95869  35.965  12.752   4.431
22802W        W95870  27.397  13.718   2.138
22803W        W95871  30.921   3.364  11.678
22804W        W95872  39.867  18.486   4.842
22805W        W95873   7.202  17.166  14.329
22806W        W95874  16.718  38.577   1.932
22807W        W95875   9.831  35.762  14.413
22808W        W95876  43.066  42.591   3.782
22809W        W95877  19.013  33.613   3.677
22810W        W95878  35.654  14.645   2.719
22811W        W95879  32.182  25.502  11.090
22812W        W95880  23.122  10.921  12.611
22813W        W95881  16.306   2.362   3.297
22814W        W95882  29.060  11.927   0.813
22815W        W95883  43.502  22.234   1.913
22816W        W95884  28.246  19.329  11.952
22817W        W95885   6.380  23.671  11.982
22818W        W95886  40.578  28.038  12.907
22819W        W95887  23.580   3.462  12.365
22820W        W95888  26.476   9.313   3.188
22821W        W95889  28.977  32.589   1.833
22822W        W95890  16.728  38.255   2.338
22823W        W95891   8.835  17.151   3.680
22824W        W95892   2.228   0.057   2.082
22825W        W95893  38.482  20.062   4.619
22826W        W95894  24.596  33.930   1.242
22827W        W95895  42.961  38.707   4.969
22828W        W95896  14.215  19.375  10.676
22829W        W95897  38.398  10.871   4.781
22830W        W95898  30.247  31.423  12.533
22831W        W95899  32.507  43.127   1.400
22832W        W95900  30.953  43.530   4.129
22833W        W95901  30.015  35.617  10.724
22834W        W95902  17.974  36.982   4.110
22835W        W95903  31.020   2.874   2.294
22836W        W95904  30.524  31.452   1.295
22837W        W95905  29.070  29.845  12.929
22838W        W95906   4.308  39.558   3.620
22839W        W95907  17.685  16.692   2.556
22840W        W95908   7.822   1.764   0.764
22841W        W95909  19.797  19.764  12.866
22842W        W95910  13.153  29.444   3.301
22843W        W95911  21.043  27.358   4.891
22844W        W95912  24.635  22.626   2.885
22845W        W95913  23.264  38.925  10.684
22846W        W95914  38.934  24.724   3.763
22847W        W95915  26.647   8.354   1.495
22848W        W95916  12.579  35.150   1.287
22849W        W95917  35.841  32.523   4.770
22850W        W95918  35.168  18.128  11.611
22851W        W95919  27.841   0.841   1.406
22852W        W95920  27.148  39.480   3.980
22853W        W95921  39.184   3.463  13.152
22854W        W95922  36.729  40.936   0.773
22855W        W95923  22.510  28.226  13.473
22856W        W95924  34.119   1.501  12.518
22857W        W95925   2.524   4.741   2.768
22858W        W95926  17.258  31.580  12.000
22859W        W95927  17.836   3.682   1.882
22860W        W95928  35.181  30.640  13.836
22861W        W95929  39.077   7.095   4.409
22862W        W95930  19.650  30.059  12.083
22863W        W95931  11.301  34.512  10.956
22864W        W95932  20.063  15.734  13.753
22865W        W95933  16.734  43.786   1.446
22866W        W95934  13.192  34.435   0.689
22867W        W95935  34.047  36.160  13.625
22868W        W95936  44.303  10.690  14.396
22869W        W95937   2.381   6.902   3.859
22870W        W95938  20.637  15.731   1.892
22871W        W95939  39.070  30.943  11.481
22872W        W95940   7.674  33.377  13.013
22873W        W95941  35.281  42.902   1.338
22874W        W95942  41.736  25.680   1.034
22875W        W95943  10.812  26.255   2.627
22876W        W95944  30.197  19.177   1.276
22877W        W95945  20.114  44.888  14.326
22878W        W95946  29.949   6.275  14.418
22879W        W95947  17.138   2.910  11.118
22880W        W95948  32.135  17.994  14.928
22881W        W95949   8.132  43.100  12.899
22882W        W95950  32.506   8.107  12.876
22883W        W95951  14.905   5.573  14.437
22884W        W95952  13.166   4.827   1.831
22885W        W95953  13.701  30.472  13.519
22886W        W95954  25.642  27.589  13.430
22887W        W95955  41.931  39.577  14.290
22888W        W95956  43.301   4.102   0.174
22889W        W95957   3.414   1.875   4.174
22890W        W95958  24.980  15.479   1.076
22891W        W95959  16.040  30.636   4.615
22892W        W95960  40.826   3.783   3.357
22893W        W95961  21.992  43.341  12.013
22894W        W95962  19.089  10.048  13.780
22895W        W95963   7.365  11.066   2.018
22896W        W95964   6.432  18.607  10.509
22897W        W95965  26.389   3.207   0.977
22898W        W95966   5.174  26.607  12.445
22899W        W95967   8.843   7.327   4.566
22900W        W95968  44.153   3.765   1.404
22901W        W95969  35.990   4.970   0.180
22902W        W95970  17.197  18.216  10.506
22903W        W95971  35.299  15.362   1.431
22904W        W95972  28.561  35.996  13.612
22905W        W95973  12.596  41.139  13.487
22906W        W95974  13.770  13.055  11.684
22907W        W95975  41.966  30.066  10.734
22908W        W95976   8.436   6.317  11.617
22909W        W95977  11.541  24.988   1.641
22910W        W95978  44.827  25.652  11.996
22911W        W95979  28.678  17.049   0.428
22912W        W95980  41.316  20.539  12.870
22913W        W95981  43.874  19.700  12.820
22914W        W95982  18.222  19.788  12.889
22915W        W95983  25.555  10.643  14.853
22916W        W95984  34.905  39.885  13.539
22917W        W95985  36.476  35.377   5.349
22918W        W95986   2.442  40.357  12.921
22919W        W95987  18.299  19.301  12.792
22920W        W95988  43.827  18.527  10.701
22921W        W95989   7.881   0.210   3.514
22922W        W95990  28.115  22.744   1.943
22923W        W95991   8.859   3.866  14.202
22924W        W95992  26.075  22.764   1.841
22925W        W95993  35.900  27.642   4.174
22926W        W95994   6.469   1.871  13.124
22927W        W95995  32.132  34.091  12.604
22928W        W95996   6.443  44.524   1.524
22929W        W95997  30.578  11.061   0.394
22930W        W95998  12.762   4.602   3.188
22931W        W95999  37.316   8.135   0.013
22932W        W96000  23.804  12.618  11.968
22933W        W96001  11.157  19.187   5.497
22934W        W96002  36.917   3.003  10.667
22935W        W96003  23.486  44.435  13.756
22936W        W96004  11.170  28.556  14.349
22937W        W96005  11.715  21.795  14.185
22938W        W96006  32.221  13.318  12.446
22939W        W96007  41.958  30.368   3.235
22940W        W96008  24.016  10.247   3.148
22941W        W96009  34.435  25.173   3.783
22942W        W96010  22.529   7.312  10.368
22943W        W96011  31.589  36.611  13.293
22944W        W96012  44.476  41.490   3.422
22945W        W96013   6.303   9.251   3.579
22946W        W96014  11.292  37.891   2.913
22947W        W96015  35.491  12.365   3.708
22948W        W96016   7.897  25.530   3.698
22949W        W96017  36.891  26.268   1.827
22950W        W96018  39.769  15.742  10.497
22951W        W96019  19.144  11.709   1.464
22952W        W96020   1.869  34.307   0.396
22953W        W96021  18.065  42.243   2.754
22954W        W96022  14.596  36.950   1.947
22955W        W96023  20.367  11.606   4.136
22956W        W96024  38.117  43.270   4.497
22957W        W96025  33.179  20.524  11.953
22958W        W96026  41.562  13.162  12.467
22959W        W96027  28.871   0.540   3.364
22960W        W96028  33.653  16.400  10.022
22961W        W96029  32.252  23.784  13.314
22962W        W96030  18.996   7.732  10.676
22963W        W96031  11.039   9.344   0.381
22964W        W96032  21.128  12.922  13.928
22965W        W96033  31.586  23.023  10.532
22966W        W96034  24.036  36.013   0.930
22967W        W96035  32.326  22.023  14.548
22968W        W96036  42.485   7.235  11.959
22969W        W96037  22.528  28.426   0.710
22970W        W96038  37.468   6.494  12.078
22971W        W96039  27.177  18.091  11.539
22972W        W96040  18.795  35.403  11.513
22973W        W96041  44.290  43.634  14.825
22974W        W96042  37.054  39.441   1.905
22975W        W96043  38.257  15.733   2.318
22976W        W96044  28.425  35.663   4.011
22977W        W96045   6.349  14.274   0.840
22978W        W96046   6.989   6.090  10.335
22979W        W96047   2.930  15.819  12.074
22980W        W96048  36.347  14.684  10.919
22981W        W96049  35.560  19.697  14.391
22982W        W96050  38.585  32.099   1.741
22983W        W96051  24.178  19.005   3.215
22984W        W96052  21.193  13.647   3.509
22985W        W96053  35.557  11.525  11.139
22986W        W96054   9.906  11.086   4.219
22987W        W96055  21.606   4.458  14.275
22988W        W96056   1.985  16.399  10.651
22989W        W96057   3.865   3.189  14.328
22990W        W96058   4.518  35.369   2.796
22991W        W96059  17.980  11.042  11.560
22992W        W96060  11.682  13.607  10.603
22993W        W96061  40.195   7.036   4.324
22994W        W96062  41.480  41.918   4.580
22995W        W96063  27.624  19.143   1.200
22996W        W96064  39.958  36.084  12.053
22997W        W96065   7.168  42.804  12.742
22998W        W96066  34.521  30.125  13.517
22999W        W96067   0.503  34.098  14.015
23000W        W96068  38.043  11.900  12.477
23001W        W96069  41.181  34.055  13.993
23002W        W96070  44.853  33.011  14.485
23003W        W96071  14.315   7.410   4.452
23004W        W96072  10.249  35.373   3.893
23005W        W96073   7.801  44.962   1.191
23006W        W96074  34.559  41.787  13.452
23007W        W96075  37.290   4.283  14.750
23008W        W96076  27.062  14.229  11.636
23009W        W96077  15.039  43.434   4.799
23010W        W96078  39.761   8.319  10.572
23011W        W96079  22.102  17.578   4.796
23012W        W96080  15.066  14.125  13.413
23013W        W96081  44.843  35.358   3.706
23014W        W96082  15.640  30.879   3.680
23015W        W96083  11.673  27.468  11.753
23016W        W96084   1.729  19.851  11.187
23017W        W96085  17.045   6.269  13.546
23018W        W96086  39.369   5.176  11.657
23019W        W96087  43.318  28.646  13.860
23020W        W96088   3.303   0.866   1.999
23021W        W96089  25.588  44.735  11.677
23022W        W96090  16.405   4.001   4.726
23023W        W96091  42.366   8.378   1.717
23024W        W96092  31.879   3.291  14.743
23025W        W96093   5.145  28.462  11.112
23026W        W96094  38.426  29.670   4.667
23027W        W96095  27.959  22.033   3.268
23028W        W96096  24.611   0.522   0.788
23029W        W96097  40.507  35.198   3.617
23030W        W96098   1.751  12.860   3.709
23031W        W96099  14.133   6.214   3.220
23032W        W96100  36.046  36.880   4.395
23033W        W96101  37.621  43.491   0.809
23034W        W96102  25.917  23.952  13.734
23035W        W96103  17.250  35.918  13.994
23036W        W96104   5.365  35.206  11.661
23037W        W96105  40.066  24.026  14.372
23038W        W96106  13.904  23.962  12.121
23039W        W96107   8.380  14.651  12.442
23040W        W96108  32.939  22.260   2.173
23041W        W96109  11.407   7.173   1.238
23042W        W96110  25.483  28.449   4.973
23043W        W96111   1.731  34.651   1.742
23044W        W96112  35.032  40.120  12.630
23045W        W96113  30.146  32.888   2.232
23046W        W96114  15.600  10.819   3.842
23047W        W96115   9.968   8.207   2.158
23048W        W96116  23.453  22.329   2.204
23049W        W96117  28.547  19.687   4.572
23050W        W96118  26.172  13.432  13.489
23051W        W96119  22.503  39.358  10.204
23052W        W96120   8.824  33.388  14.838
23053W        W96121  11.020  41.480  11.205
23054W        W96122  25.542  22.234   2.498
23055W        W96123  25.647  24.563  10.720
23056W        W96124  14.674  41.418  12.760
23057W        W96125   7.550  17.107  12.148
23058W        W96126  10.442  27.671   3.729
23059W        W96127   2.688  40.858  11.568
23060W        W96128  34.310  26.741   2.810
23061W        W96129  35.088  26.720   2.383
23062W        W96130  41.502  38.915  13.498
23063W        W96131  30.479  43.739  12.814
23064W        W96132  42.964   8.029  11.951
23065W        W96133  18.082   8.338   3.492
23066W        W96134  41.069  26.061  12.739
23067W        W96135  22.018   6.917   2.825
23068W        W96136  10.669  39.980   0.668
23069W        W96137  17.543  21.587  14.127
23070W        W96138   8.644  43.794   3.954
23071W        W96139  28.721  12.707  13.127
23072W        W96140  30.617  25.045   2.264
23073W        W96141  33.377  14.533  10.990
23074W        W96142  30.977   7.943  14.705
23075W        W96143  44.502  16.903   4.098
23076W        W96144  42.357  27.973   1.707
23077W        W96145  43.966   8.399  14.993
23078W        W96146  13.832   7.895  11.578
23079W        W96147  24.626  30.907  14.884
23080W        W96148  29.961  13.274   0.720
23081W        W96149  21.960   5.357   2.742
23082W        W96150  21.682   3.878   0.432
23083W        W96151  13.792   1.206  10.877
23084W        W96152  31.671  29.203  11.121
23085W        W96153  40.063  11.802  13.470
23086W        W96154  12.293  24.080  13.585
23087W        W96155   1.801   2.123  10.528
23088W        W96156  41.802  20.008   2.580
23089W        W96157  13.463  12.127   4.403
23090W        W96158  38.968  33.301  14.306
23091W        W96159   0.288   3.545   2.275
23092W        W96160  24.229   2.733  14.168
23093W        W96161  32.712  16.751   4.639
23094W        W96162  29.754  31.131  11.947
23095W        W96163  32.128  13.601  14.898
23096W        W96164   9.384  16.585  13.589
23097W        W96165  42.820  13.103  11.196
23098W        W96166  24.960  42.906  10.676
23099W        W96167  17.958  35.938  11.087
23100W        W96168  25.113  16.642   2.857
23101W        W96169   8.650  36.589   1.626
23102W        W96170  24.643  34.500   0.455
23103W        W96171  33.388  33.584   4.580
23104W        W96172  22.199   5.969   0.934
23105W        W96173  13.661  13.349   0.699
23106W        W96174  40.408  30.916  13.325
23107W        W96175  15.139  10.869   1.878
23108W        W96176  31.301   4.036   0.373
23109W        W96177  37.109  44.007  14.758
23110W        W96178  16.791   4.069  10.546
23111W        W96179  18.620  38.155  11.921
23112W        W96180  36.561  15.742  10.498
23113W        W96181   9.114  20.720  14.079
23114W        W96182  32.400   0.363   0.207
23115W        W96183  13.811   7.385  12.213
23116W        W96184  16.145  17.596  12.162
23117W        W96185  12.022  24.596  11.305
23118W        W96186  41.881  21.272  14.247
23119W        W96187  18.136  38.386   0.700
23120W        W96188  29.194  14.135   3.243
23121W        W96189  21.507  32.335   3.747
23122W        W96190   6.291  16.810  13.887
23123W        W96191  43.052  21.492   2.146
23124W        W96192  36.353  11.217  12.131
23125W        W96193  36.755  33.611   1.816
23126W        W96194  44.661  13.362   2.863
23127W        W96195   4.962  34.458   3.805
23128W        W96196   0.324  44.330  14.500
23129W        W96197  21.345   2.813  10.970
23130W        W96198  10.041  19.775   1.797
23131W        W96199   5.242  29.048   3.414
23132W        W96200  16.068  44.476  10.998
23133W        W96201  27.473  15.103  11.566
23134W        W96202   8.883  20.059  12.006
23135W        W96203  16.505  19.029   2.893
23136W        W96204  11.791  10.078   5.031
23137W        W96205  28.023   4.889  12.526
23138W        W96206  25.065  44.267  13.028
23139W        W96207  23.786   7.624  12.924
23140W        W96208  22.351  17.788   4.394
23141W        W96209  12.609  40.110  12.563
23142W        W96210  38.720  34.992   2.338
23143W        W96211   9.125  42.105   2.815
23144W        W96212  33.131  25.875   4.626
23145W        W96213   4.982  21.063   0.530
23146W        W96214  36.182  34.989   5.312
23147W        W96215  33.859  40.503  13.539
23148W        W96216  11.134  12.787   2.789
23149W        W96217  34.645  39.180   2.874
23150W        W96218  41.579  34.916   2.701
23151W        W96219  22.263  14.339  13.132
23152W        W96220  39.432   4.313   2.426
23153W        W96221   4.183  12.476   0.945
23154W        W96222  23.099  31.445  10.665
23155W        W96223  25.051  16.066  11.973
23156W        W96224   5.625   1.319  11.548
23157W        W96225  24.223  28.205  14.430
23158W        W96226  19.195  25.060   4.205
23159W        W96227  30.043  26.379   0.922
23160W        W96228  43.348  30.432  13.439
23161W        W96229   5.704  21.409  14.038
23162W        W96230  30.592  27.014  12.817
23163W        W96231  40.164  41.541  11.716
23164W        W96232  32.981  20.460   4.283
23165W        W96233  31.398  26.394   4.364
23166W        W96234  30.869   7.221  10.371
23167W        W96235  43.906  42.565   2.255
23168W        W96236   4.535  24.318   0.829
23169W        W96237  17.315  17.150   0.033
23170W        W96238  44.424  11.086  14.868
23171W        W96239  27.149  43.797   2.428
23172W        W96240   3.313  32.740   2.619
23173W        W96241   3.572  14.735  13.291
23174W        W96242  44.507  28.541   2.308
23175W        W96243  44.319  17.048  11.545
23176W        W96244  24.026  29.110   2.836
23177W        W96245  29.155  28.649   0.440
23178W        W96246  23.077   3.591  13.437
23179W        W96247  35.972  11.421   1.764
23180W        W96248   5.443  40.602  12.893
23181W        W96249  41.271   1.156   4.068
23182W        W96250  14.388  23.966   2.300
23183W        W96251  40.661  42.681   4.077
23184W        W96252   8.887   4.720  12.309
23185W        W96253  27.601   5.506  14.490
23186W        W96254  43.549  35.023   1.311
23187W        W96255  21.001  40.717  12.453
23188W        W96256  22.820  25.751  12.919
23189W        W96257  36.016  32.545  10.574
23190W        W96258   2.932  17.221   0.838
23191W        W96259   1.879  44.751   1.874
23192W        W96260  24.048  30.903   0.751
23193W        W96261   9.927  17.713  12.045
23194W        W96262  34.389  35.277  11.831
23195W        W96263  33.733  31.197  13.965
23196W        W96264  25.244   2.228  12.864
23197W        W96265  37.630  23.804   2.737
23198W        W96266   3.803  44.417   3.877
23199W        W96267  19.427  33.626  12.510
23200W        W96268  17.601  12.213   1.237
23201W        W96269  44.843  12.397  12.996
23202W        W96270  40.510  34.539  13.679
23203W        W96271   4.318  17.142   0.824
23204W        W96272  15.705  36.969  12.591
23205W        W96273  13.946   9.227   5.084
23206W        W96274  36.165  31.094   3.819
23207W        W96275  12.188   2.681   4.336
23208W        W96276  41.458  21.533  14.879
23209W        W96277  34.751  40.619  10.985
23210W        W96278  11.939  16.664  11.951
23211W        W96279   3.360   8.932  10.733
23212W        W96280  43.999  21.767  11.461
23213W        W96281  22.642  36.812   2.895
23214W        W96282  20.743  41.286  11.436
23215W        W96283  29.878   2.718  12.383
23216W        W96284  25.236   5.357  12.458
23217W        W96285  28.811   1.009   3.168
23218W        W96286  25.177  26.510  14.876
23219W        W96287  22.645   0.772   2.227
23220W        W96288  20.816  13.520  12.940
23221W        W96289  14.769  12.832   4.606
23222W        W96290  22.828  16.622   5.108
23223W        W96291   0.921  31.382   0.588
23224W        W96292  15.510  32.149  12.891
23225W        W96293  10.291  37.535   0.175
23226W        W96294  19.760  37.407  13.083
23227W        W96295   9.281   0.986  10.771
23228W        W96296  26.045   2.097  11.430
23229W        W96297  29.233  22.240   1.214
23230W        W96298   1.713   0.756  10.577
23231W        W96299  10.284   2.230   4.712
23232W        W96300  12.642  43.923   1.455
23233W        W96301  43.059  41.450   3.205
23234W        W96302   6.887  23.005   4.664
23235W        W96303  34.506   0.900   3.162
23236W        W96304  42.480   7.242  10.440
23237W        W96305   9.568  30.415   4.629
23238W        W96306  20.774   9.647  12.892
23239W        W96307   2.254  22.271   1.166
23240W        W96308  29.683  41.534   3.466
23241W        W96309  30.110   0.336   1.456
23242W        W96310  42.279  22.625  13.804
23243W        W96311  16.657  17.678  14.618
23244W        W96312  25.985  32.581   2.822
23245W        W96313   8.780  14.836  14.448
23246W        W96314  42.546  16.159   4.579
23247W        W96315  10.794  44.234  12.458
23248W        W96316  17.348   5.076  13.777
23249W        W96317  31.680  29.969   4.640
23250W        W96318  26.330  23.625   4.739
23251W        W96319  35.899  21.025   5.304
23252W        W96320  24.620  38.899   0.320
23253W        W96321  34.912   5.134  11.397
23254W        W96322  37.459   6.274   3.792
23255W        W96323  18.920  44.776  13.531
23256W        W96324  26.909  34.036   1.654
23257W        W96325  39.491  23.624   4.571
23258W        W96326  41.902  17.624   5.007
23259W        W96327  29.566   5.742  10.724
23260W        W96328  27.664  10.444   4.174
23261W        W96329  17.682  15.817   3.221
23262W        W96330   3.688  15.114   4.590
23263W        W96331  29.693  23.273   0.152
23264W        W96332  22.233   5.678  12.020
23265W        W96333   5.799  23.091   0.368
23266W        W96334   1.532  17.837   1.880
23267W        W96335   1.660  14.141   1.208
23268W        W96336  15.537  22.890  11.943
23269W        W96337  30.854  19.198   3.343
23270W        W96338  39.348  12.854  12.865
23271W        W96339  44.956  11.393   4.559
23272W        W96340  22.724  34.646  12.880
23273W        W96341  15.766  24.676  10.594
23274W        W96342  43.972   7.357  13.893
23275W        W96343  40.238  16.210   3.264
23276W        W96344  12.368  21.119  11.553
23277W        W96345  41.465   2.615  14.074
23278W        W96346  39.061  34.369  10.679
23279W        W96347  28.475  14.024  11.514
23280W        W96348  29.024   7.960  13.435
23281W        W96349  35.359   9.239  13.748
23282W        W96350  11.396  22.689  11.082
23283W        W96351  23.688  20.104   1.782
23284W        W96352   6.273  36.827   0.248
23285W        W96353  16.348  35.678   0.490
23286W        W96354   9.631  44.393   3.762
23287W        W96355  18.766  27.758  11.937
23288W        W96356   8.341  16.293  13.312
23289W        W96357  21.565  42.573  11.475
23290W        W96358  38.096   1.562  13.355
23291W        W96359  29.175  18.929   2.770
23292W        W96360  19.837  24.208  11.539
23293W        W96361  14.615  34.248   3.203
23294W        W96362   9.791  12.242  13.304
23295W        W96363   7.893  42.012   1.677
23296W        W96364  23.214   7.776   2.757
23297W        W96365  36.878   3.512  10.746
23298W        W96366  23.003  33.705   0.779
23299W        W96367  26.065  17.918  13.810
23300W        W96368   8.816  25.176  11.401
23301W        W96369  12.756  40.522   3.242
23302W        W96370  23.324  32.953   1.941
23303W        W96371  21.768  26.479   2.648
23304W        W96372  41.409  22.831  12.399
23305W        W96373  26.964  38.642  11.105
23306W        W96374   2.968  35.110   1.141
23307W        W96375  15.748  23.113   0.236
23308W        W96376  20.817  26.050  11.207
23309W        W96377  20.232   2.468  13.867
23310W        W96378  15.071  38.163   0.831
23311W        W96379  41.925  42.979  12.937
23312W        W96380  38.560  11.357  13.445
23313W        W96381  20.261  36.065  10.641
23314W        W96382  28.223  20.687   4.261
23315W        W96383  16.371  11.804  13.705
23316W        W96384  19.150  28.400   0.781
23317W        W96385   3.517  20.922   3.614
23318W        W96386   7.320  27.575  13.146
23319W        W96387   8.549  15.796  11.021
23320W        W96388  23.469   1.673  11.154
23321W        W96389   0.033  34.963  10.355
23322W        W96390  37.047  23.283  11.912
23323W        W96391  10.882  41.859  13.485
23324W        W96392   4.186  15.628  11.854
23325W        W96393  43.009  29.190   2.924
23326W        W96394  20.017  38.526   1.282
23327W        W96395  33.318  18.518   4.126
23328W        W96396   1.477  26.204   2.888
23329W        W96397  26.472  24.966  11.340
23330W        W96398  29.529  29.936   2.473
23331W        W96399  23.622  34.723  11.572
23332W        W96400  38.853  26.602  12.849
23333W        W96401   7.423  17.342  12.861
23334W        W96402  14.035  15.223  12.570
23335W        W96403  44.078  32.962   0.924
23336W        W96404   5.335   5.844   4.922
23337W        W96405  31.366   8.013   4.105
23338W        W96406  13.211  44.355   0.050
23339W        W96407  32.171  38.871   0.424
23340W        W96408  23.369  26.380  12.860
23341W        W96409  34.180  21.727   0.452
23342W        W96410  12.635  20.040  13.249
23343W        W96411  30.948  26.592   1.330
23344W        W96412   4.386  23.143   4.991
23345W        W96413  22.695  15.133  10.610
23346W        W96414  36.355  11.703  14.480
23347W        W96415   4.530  35.588   0.734
23348W        W96416  27.145  26.678  11.001
23349W        W96417   4.428   7.005   0.300
23350W        W96418  21.223   0.937  12.856
23351W        W96419  39.567   5.426  12.441
23352W        W96420  44.383  13.647  13.022
23353W        W96421  42.153  36.500  12.630
23354W        W96422  27.560   3.928   4.794
23355W        W96423  14.344  22.227  13.742
23356W        W96424  42.412   4.361  14.512
23357W        W96425  27.196  21.287  11.119
23358W        W96426  41.830   2.898   1.334
23359W        W96427  29.675   1.241  12.429
23360W        W96428  41.037  13.147  12.467
23361W        W96429   8.933  10.974   3.212
23362W        W96430   3.634  22.187   3.202
23363W        W96431  21.170  44.904   1.000
23364W        W96432  30.099  10.151  10.723
23365W        W96433  12.157   3.913  13.555
23366W        W96434   3.029   4.218   3.667
23367W        W96435   3.890  23.259  14.943
23368W        W96436  17.772  37.552   4.571
23369W        W96437  16.309  17.334   1.558
23370W        W96438   2.405  30.351   3.237
23371W        W96439   5.671   1.947   2.774
23372W        W96440  32.600  27.279  14.505
23373W        W96441  16.550  18.028  13.867
23374W        W96442  41.954  13.774   1.487
23375W        W96443  18.774  26.489   0.806
23376W        W96444  18.150  41.238   0.538
23377W        W96445  39.330   0.655  12.554
23378W        W96446  12.190   0.368   1.112
23379W        W96447  33.856  40.811   1.409
23380W        W96448  37.473  43.550  12.648
23381W        W96449   9.785  27.045   3.340
23382W        W96450  38.422  15.644   0.967
23383W        W96451  24.052  12.782  12.502
23384W        W96452  40.196   2.012  10.235
23385W        W96453  42.366   2.917   4.515
23386W        W96454  30.528  36.330  12.121
23387W        W96455  40.973  32.638  13.495
23388W        W96456  44.446  17.063  12.449
23389W        W96457  30.616  29.009  13.832
23390W        W96458   0.078  19.816  11.972
23391W        W96459  36.968  36.899   2.664
23392W        W96460  26.036  26.689   3.056
23393W        W96461   4.952  15.005   1.813
23394W        W96462   8.288  38.357  14.996
23395W        W96463  22.000  14.640   0.755
23396W        W96464   2.171  14.863   2.362
23397W        W96465  28.212  40.980  13.429
23398W        W96466  27.145  23.837   1.676
23399W        W96467  13.671  40.057   1.926
23400W        W96468   9.345  41.253  11.621
23401W        W96469  41.505  20.708   2.986
23402W        W96470  40.497  29.567  14.418
23403W        W96471  14.684  30.461   1.913
23404W        W96472  29.479  31.856   3.184
23405W        W96473  13.821  34.329  10.567
23406W        W96474  26.974  19.549   2.791
23407W        W96475  37.828  41.842   2.701
23408W        W96476   8.203   2.106   0.824
23409W        W96477  31.459  12.729   2.160
23410W        W96478  36.576   2.197   0.908
23411W        W96479   1.722  40.889  12.709
23412W        W96480  34.794  38.386  14.457
23413W        W96481  44.554  40.014  10.729
23414W        W96482  31.472  12.341   3.562
23415W        W96483  10.102  16.200   1.226
23416W        W96484  18.028  44.980   0.935
23417W        W96485  32.404  27.452  13.886
23418W        W96486  15.705   1.282   4.634
23419W        W96487  22.625  20.855  10.433
23420W        W96488  38.912   1.314  13.833
23421W        W96489   7.877  23.117   1.302
23422W        W96490   3.511  40.436  12.751
23423W        W96491  37.678  12.345   4.245
23424W        W96492  18.115  20.559   4.406
23425W        W96493  21.184   2.844  13.691
23426W        W96494  41.543  11.159  12.449
23427W        W96495  11.662   4.470  11.460
23428W        W96496  37.405  27.953   0.887
23429W        W96497  39.362   4.824  14.228
23430W        W96498  23.676  31.508  10.673
23431W        W96499  38.018  22.441   3.551
23432W        W96500  10.975  43.728   4.000
23433W        W96501  24.287  33.229  13.474
23434W        W96502  33.606  11.792   0.470
23435W        W96503  14.520   2.272  13.371
23436W        W96504  37.451  28.724   2.743
23437W        W96505  35.066   1.014  13.843
23438W        W96506  18.069  35.578   3.603
23439W        W96507  11.410  11.378   4.175
23440W        W96508  43.335  23.145   0.341
23441W        W96509  14.194  38.541  11.369
23442W        W96510  42.486  43.143  11.695
23443W        W96511  25.200   0.296   3.214
23444W        W96512  14.685  10.160  10.726
23445W        W96513   4.820  22.841  11.466
23446W        W96514   2.229  27.667   1.390
23447W        W96515  20.091  40.767   2.266
23448W        W96516  21.645  20.954   3.923
23449W        W96517  19.756  13.223  13.886
23450W        W96518   9.609   7.162   2.181
23451W        W96519  40.344  14.348   0.090
23452W        W96520  18.196  21.090  12.003
23453W        W96521  27.906  39.634   4.626
23454W        W96522  19.585  43.221   1.301
23455W        W96523  26.639  10.600   4.961
23456W        W96524  28.204  39.401  11.456
23457W        W96525  29.530   2.716   3.066
23458W        W96526  20.060  16.294  14.421
23459W        W96527  26.948  39.866  12.436
23460W        W96528  21.266   2.830  12.328
23461W        W96529  10.732  21.950  13.727
23462W        W96530  32.858  26.607  10.384
23463W        W96531   2.049  34.530  13.476
23464W        W96532  38.761  29.439   0.017
23465W        W96533  19.202  29.852  12.894
23466W        W96534  21.422  15.260  14.579
23467W        W96535  10.673  14.740  13.511
23468W        W96536   8.255  15.148  10.759
23469W        W96537  24.092  14.589  14.502
23470W        W96538  38.988  21.506   0.700
23471W        W96539   2.176   9.870  10.564
23472W        W96540   7.849  22.081  13.904
23473W        W96541  40.958  18.252   2.139
23474W        W96542  28.357  27.496  11.616
23475W        W96543  35.947  42.985   1.830
23476W        W96544  42.029  32.120   2.747
23477W        W96545  15.060   8.343   1.771
23478W        W96546  22.534  31.829  14.364
23479W        W96547  42.929  38.026   4.138
23480W        W96548  28.533  17.367   4.157
23481W        W96549  26.976  43.700  12.611
23482W        W96550  10.179  40.256   1.314
23483W        W96551  32.349  24.106   1.250
23484W        W96552  44.733   5.816  10.423
23485W        W96553  42.445  31.544  14.358
23486W        W96554  20.259  26.113  13.871
23487W        W96555  40.936  10.576   4.439
23488W        W96556  13.891   4.757  12.491
23489W        W96557  30.496  20.156   1.710
23490W        W96558  13.709   5.265  14.467
23491W        W96559  39.935  13.318   3.080
23492W        W96560  24.057  19.768   2.819
23493W        W96561  31.980  18.770   2.788
23494W        W96562  32.337  10.675  12.545
23495W        W96563   6.260   0.005   3.289
23496W        W96564  24.308  22.021   1.865
23497W        W96565  33.094  16.314  10.972
23498W        W96566  15.695  28.158  10.641
23499W        W96567  28.982  23.029  11.597
23500W        W96568   2.291  28.899   3.240
23501W        W96569  21.590  32.000  12.933
23502W        W96570  35.558  14.537   1.938
23503W        W96571  18.559  20.007  13.208
23504W        W96572  33.074  32.168   1.591
23505W        W96573  37.928  12.120  11.523
23506W        W96574   1.385   2.953  10.760
23507W        W96575  42.430  16.769   0.129
23508W        W96576  23.633  22.935  14.064
23509W        W96577   2.629  26.733   1.463
23510W        W96578  26.280  18.798  13.860
23511W        W96579  42.321  42.982  11.216
23512W        W96580  22.298  16.177   2.609
23513W        W96581  19.545  26.832   2.225
23514W        W96582   1.672  30.088   4.503
23515W        W96583  17.133  20.648  12.574
23516W        W96584  20.034  13.797   5.081
23517W        W96585  18.748   9.948  10.515
23518W        W96586  43.495  39.356   3.104
23519W        W96587  11.936   4.484   2.102
23520W        W96588  31.451   5.984  13.033
23521W        W96589  44.285   5.692   1.402
23522W        W96590   4.854  30.398  11.983
23523W        W96591  41.660   8.908   0.795
23524W        W96592  32.524   1.297   0.350
23525W        W96593  12.723   1.462  14.859
23526W        W96594  37.073  16.153  12.927
23527W        W96595   9.525  31.959   3.008
23528W        W96596  42.990  25.946  11.598
23529W        W96597  25.154  33.361  13.632
23530W        W96598  34.717  10.308  13.457
23531W        W96599  12.091  19.728  13.829
23532W        W96600  11.402  24.114   4.185
23533W        W96601  41.856   1.748  11.173
23534W        W96602  21.309  38.995  10.660
23535W        W96603  29.001  15.228  14.365
23536W        W96604   8.204  18.627  12.453
23537W        W96605  21.198  23.842   2.859
23538W        W96606  12.832  17.664   2.291
23539W        W96607  30.357  32.601  13.930
23540W        W96608  38.616  20.485   4.368
23541W        W96609  20.277   1.725   2.749
23542W        W96610  25.610  12.351  11.695
23543W        W96611   7.947  43.006  10.187
23544W        W96612  24.495  31.592  13.340
23545W        W96613  35.066  42.595   3.247
23546W        W96614  27.284  10.047  14.335
23547W        W96615  26.521   9.256   4.168
23548W        W96616  37.498  10.860  11.480
23549W        W96617   7.353   6.931   1.131
23550W        W96618  10.380  36.301  10.211
23551W        W96619  31.319  42.008   2.778
23552W        W96620  36.361  37.978   2.891
23553W        W96621  15.045  23.147   3.722
23554W        W96622   7.450  14.746   1.266
23555W        W96623  43.935  42.523   4.676
23556W        W96624  15.445  28.586   3.326
23557W        W96625  39.346  40.499   0.348
23558W        W96626  37.768  38.868   3.127
23559W        W96627   4.086   1.401  13.099
23560W        W96628  30.035  12.239  11.116
23561W        W96629  28.881  26.092   0.444
23562W        W96630  32.596  17.235  13.047
23563W        W96631  37.513  31.636  10.858
23564W        W96632   1.441  18.444  12.684
23565W        W96633  36.548  43.281   4.098
23566W        W96634  15.050  43.889   2.709
23567W        W96635  21.117   8.806   4.770
23568W        W96636  13.295  32.111   0.698
23569W        W96637   7.663  41.712   4.898
23570W        W96638  25.532  27.113   4.334
23571W        W96639  32.149   2.747   4.044
23572W        W96640  23.768   4.829  12.972
23573W        W96641   0.909  37.764  11.624
23574W        W96642  44.889  10.314   3.210
23575W        W96643   0.661  28.120  10.412
23576W        W96644  32.871  43.735   4.149
23577W        W96645  22.012  29.913  11.132
23578W        W96646  19.971  30.410  12.880
23579W        W96647   3.322  38.824   3.152
23580W        W96648   5.349   3.102   2.290
23581W        W96649  22.998  42.339  14.049
23582W        W96650  12.357  39.323   2.337
23583W        W96651  13.799  14.087  11.661
23584W        W96652  20.338   6.051  11.074
23585W        W96653  18.364  15.066  12.754
23586W        W96654   8.850   3.917  14.782
23587W        W96655  34.409   2.269   5.012
23588W        W96656  20.651  28.172  11.020
23589W        W96657  18.328  41.607  11.615
23590W        W96658   2.889  44.790   1.302
23591W        W96659  23.576  36.541   1.375
23592W        W96660  18.376  17.244   3.109
23593W        W96661   9.941  33.131  13.051
23594W        W96662  30.376   0.160   0.895
23595W        W96663   5.006  33.044   0.416
23596W        W96664  40.571  41.896   2.816
23597W        W96665  23.950  14.353   4.146
23598W        W96666  43.177   7.710  13.651
23599W        W96667   5.968  33.501   2.337
23600W        W96668   3.252  42.384   1.217
23601W        W96669   3.830  13.053   3.225
23602W        W96670  32.523  13.178   4.302
23603W        W96671   4.784  41.265  13.277
23604W        W96672  42.253   6.398   4.651
23605W        W96673  33.436  16.837  12.596
23606W        W96674  27.533  33.205  11.734
23607W        W96675   5.273  28.106  10.179
23608W        W96676  26.070  20.678   4.428
23609W        W96677  17.817  21.766   4.130
23610W        W96678  43.785  27.973   4.347
23611W        W96679  35.030  35.929  13.418
23612W        W96680  32.291   8.421   4.216
23613W        W96681  18.106  28.676   4.293
23614W        W96682  41.849  37.383   0.838
23615W        W96683  37.780  31.010   2.713
23616W        W96684   9.607  10.211   3.905
23617W        W96685  11.791   7.668   4.899
23618W        W96686   3.512  25.782  11.385
23619W        W96687   4.857   4.659   1.859
23620W        W96688  40.548  35.878  10.253
23621W        W96689  19.069  29.043  10.621
23622W        W96690  23.562  19.279  10.668
23623W        W96691   8.776  32.028  12.325
23624W        W96692  17.532  33.882   1.403
23625W        W96693  10.477  21.877  12.004
23626W        W96694   3.450   6.440  11.912
23627W        W96695  37.041  32.160   1.477
23628W        W96696   1.326  21.631  12.863
23629W        W96697  12.072  11.141  11.969
23630W        W96698  43.485   0.335   2.100
23631W        W96699  42.927  32.147   3.127
23632W        W96700  38.239   2.971  12.014
23633W        W96701  23.540  43.543  10.722
23634W        W96702   3.880  39.058   1.671
23635W        W96703  25.033   6.624   0.403
23636W        W96704   1.293   1.747  14.952
23637W        W96705   5.310  24.506   2.285
23638W        W96706  21.275   1.891  14.380
23639W        W96707   6.947  27.647  13.501
23640W        W96708   4.897   5.173  10.248
23641W        W96709  18.937  21.637   1.795
23642W        W96710  35.795   7.838  14.359
23643W        W96711  42.107   7.991  14.924
23644W        W96712  35.024  10.727   1.222
23645W        W96713  27.763  38.159   3.765
23646W        W96714   1.075  38.005   2.372
23647W        W96715  19.019   8.976   0.669
23648W        W96716  13.536  29.411   0.689
23649W        W96717  43.334  34.628   1.026
23650W        W96718  12.835  41.733   0.404
23651W        W96719  38.955  12.126   0.426
23652W        W96720  21.744   7.325   4.087
23653W        W96721  31.248  35.166  10.414
23654W        W96722  32.025  13.878   2.189
23655W        W96723   6.322  33.567   0.793
23656W        W96724  31.987  22.714  12.567
23657W        W96725  30.941  42.525   0.267
23658W        W96726   8.478   4.468   0.391
23659W        W96727  34.333  27.647  11.146
23660W        W96728   0.404  23.944   4.157
23661W        W96729  19.055   3.003   3.886
23662W        W96730  36.867  21.547  12.334
23663W        W96731  29.127   9.169   1.785
23664W        W96732   6.676  43.606   3.243
23665W        W96733  33.644   6.669  12.860
23666W        W96734  34.821  44.235  11.078
23667W        W96735  17.577  38.437   0.452
23668W        W96736  17.565  11.577   3.276
23669W        W96737   4.136  21.901  14.286
23670W        W96738   3.285  31.127   3.288
23671W        W96739  14.282   3.399  14.976
23672W        W96740  42.735  44.646  10.973
23673W        W96741  16.833  25.225   3.802
23674W        W96742  31.171  29.026  13.812
23675W        W96743  31.018  41.337   0.040
23676W        W96744  17.632  26.157  13.014
23677W        W96745  40.288  41.253   0.918
23678W        W96746  24.565  24.586   4.523
23679W        W96747  44.285  22.129  11.231
23680W        W96748   2.766  16.578   3.096
23681W        W96749  10.124  21.214   0.942
23682W        W96750   1.362   5.750   3.692
23683W        W96751   3.785  25.336   2.761
23684W        W96752  32.932   8.866   4.107
23685W        W96753  26.002  11.272  10.187
23686W        W96754  44.077   2.416  12.996
23687W        W96755  35.144   9.926   4.083
23688W        W96756  38.324  42.304  13.479
23689W        W96757   1.835   5.914   3.590
23690W        W96758  35.988  11.908   1.932
23691W        W96759  21.080   1.953   2.308
23692W        W96760  27.656  22.462   3.238
23693W        W96761   9.303  11.553  13.667
23694W        W96762  27.915  43.112  11.209
23695W        W96763  38.641  34.555  12.368
23696W        W96764  23.077  13.746  10.603
23697W        W96765  40.357  11.620  12.800
23698W        W96766  15.405  13.025   1.313
23699W        W96767  16.640  40.595  11.652
23700W        W96768  13.350  11.154   0.392
23701W        W96769   2.445  38.343   2.997
23702W        W96770   9.630  22.434   0.410
23703W        W96771  40.371  17.725   1.150
23704W        W96772  28.396  40.984   2.620
23705W        W96773  11.108  35.521   3.544
23706W        W96774   2.898  16.705   0.924
23707W        W96775  37.892  13.161   0.722
23708W        W96776  43.451  34.573   1.550
23709W        W96777  15.961   6.652  10.569
23710W        W96778  11.615  16.139   3.708
23711W        W96779  19.727  22.092   4.043
23712W        W96780   7.375  18.612  14.713
23713W        W96781  39.036  41.041  12.519
23714W        W96782   7.169  20.740   1.229
23715W        W96783  11.318  41.531   1.462
23716W        W96784  27.076   7.450   4.041
23717W        W96785  33.163  30.514  12.126
23718W        W96786   2.462   0.639  12.961
23719W        W96787   1.015  34.543   3.814
23720W        W96788   8.192   1.868   1.750
23721W        W96789  37.381  27.630  14.761
23722W        W96790   3.461  30.445   3.740
23723W        W96791  18.762  13.920  11.612
23724W        W96792  17.033  43.440  14.884
23725W        W96793  25.139   1.716  13.749
23726W        W96794  20.973  33.466   0.931
23727W        W96795  29.598   1.954  10.798
23728W        W96796  14.577  14.823  11.967
23729W        W96797   9.224   2.458   3.455
23730W        W96798  24.684  25.938   1.738
23731W        W96799   2.333  41.436  12.255
23732W        W96800   3.676  29.027   1.945
23733W        W96801  36.090   2.282   4.742
23734W        W96802  25.189  38.772  11.393
23735W        W96803   4.578  29.072  10.555
23736W        W96804  19.769  21.075   0.377
23737W        W96805  39.293  29.233   2.877
23738W        W96806  17.835   2.831  11.853
23739W        W96807   9.861  43.833   0.109
23740W        W96808  30.337  12.672  14.256
23741W        W96809   9.281  13.313  13.365
23742W        W96810  18.081  32.476   2.303
23743W        W96811  10.260  19.578  14.771
23744W        W96812  40.501   1.885   5.099
23745W        W96813  37.086   0.294  13.204
23746W        W96814  23.265  41.827  12.953
23747W        W96815  24.197  22.595   2.534
23748W        W96816  14.528  38.991   4.667
23749W        W96817  15.172   5.407  10.649
23750W        W96818  13.729  35.571  13.878
23751W        W96819   1.820  11.710  13.913
23752W        W96820  24.642  10.368   3.238
23753W        W96821   5.482  28.216   2.341
23754W        W96822  30.642  24.511   2.280
23755W        W96823  29.811  42.817   5.221
23756W        W96824   3.307  20.422   1.249
23757W        W96825  32.318  38.297  13.316
23758W        W96826  20.033  28.195  14.716
23759W        W96827  30.148  28.651  13.426
23760W        W96828   8.445  24.481  13.786
23761W        W96829  21.215  21.681  14.190
23762W        W96830  32.029  30.675   4.177
23763W        W96831  41.965  31.622   1.850
23764W        W96832  36.467   1.729  11.770
23765W        W96833  12.710  41.428  12.067
23766W        W96834  30.130   6.560   2.242
23767W        W96835   5.717   0.398  13.400
23768W        W96836  34.833  18.576  12.860
23769W        W96837  43.193  28.886   4.264
23770W        W96838  30.412  16.135  12.436
23771W        W96839  42.045  16.466   0.335
23772W        W96840  15.614  32.317  11.252
23773W        W96841  19.547   3.853  11.529
23774W        W96842  30.618  18.132  11.589
23775W        W96843  30.042  24.343   1.361
23776W        W96844  21.610   2.468   3.715
23777W        W96845  35.618   8.267  11.009
23778W        W96846   7.268  28.634   3.397
23779W        W96847  14.023  19.357   1.009
23780W        W96848  27.657   7.398  13.405
23781W        W96849  29.636  33.152   4.189
23782W        W96850  16.597  36.927   1.783
23783W        W96851  17.552  25.614   2.223
23784W        W96852  31.572   1.435   1.282
23785W        W96853  22.141   0.879   2.852
23786W        W96854  27.552  41.278  10.754
23787W        W96855  18.757  40.324  11.253
23788W        W96856  31.614  10.879   3.664
23789W        W96857  13.842   3.167  12.488
23790W        W96858  18.536  30.367   3.235
23791W        W96859  10.152   9.375   2.901
23792W        W96860  21.749   5.438   4.070
23793W        W96861  38.913  31.285   1.929
23794W        W96862  44.354  19.804   1.585
23795W        W96863  18.668  29.231   0.835
23796W        W96864  44.951  31.495   0.839
23797W        W96865  31.173   6.610   1.479
23798W        W96866  25.141  41.428   2.622
23799W        W96867   6.361  31.771  11.960
23800W        W96868  42.427  36.250  12.984
23801W        W96869  19.279  40.099  11.436
23802W        W96870  44.439  43.475   0.316
23803W        W96871  13.181  40.179  10.213
23804W        W96872   6.446  27.610  14.506
23805W        W96873   4.955  16.178  12.610
23806W        W96874  42.513  25.118   4.108
23807W        W96875  42.190  16.211  11.681
23808W        W96876  26.069  30.015   2.802
23809W        W96877   5.979  19.588  11.579
23810W        W96878  34.913  16.682  12.863
23811W        W96879  17.769   4.850  11.789
23812W        W96880  24.800  33.758   3.243
23813W        W96881   5.329   7.741  14.573
23814W        W96882  38.095  17.880  13.087
23815W        W96883  41.558  18.702   1.492
23816W        W96884  20.126  31.645  12.006
23817W        W96885  16.056  17.150   1.983
23818W        W96886  27.152  32.400  11.575
23819W        W96887  22.690  16.820  12.422
23820W        W96888  18.850  22.975  11.194
23821W        W96889  20.638  37.422   2.275
23822W        W96890  13.847  30.128  10.278
23823W        W96891  28.401  44.568  13.912
23824W        W96892  21.034  34.481  11.187
23825W        W96893  14.841  16.008   3.726
23826W        W96894  31.001  22.443  11.142
23827W        W96895  21.703  39.418   4.003
23828W        W96896   4.184  27.927   0.192
23829W        W96897  41.550  31.086  10.502
23830W        W96898  43.302  41.547  13.043
23831W        W96899  39.589  33.247  13.996
23832W        W96900   2.987  27.455   3.047
23833W        W96901  33.491  19.723   4.181
23834W        W96902  43.213  37.425  12.421
23835W        W96903   2.520  20.353  12.540
23836W        W96904  13.122  29.978   1.361
23837W        W96905   4.461  18.428   1.841
23838W        W96906  17.194  18.599   1.407
23839W        W96907  43.999  39.259   4.536
23840W        W96908  37.412  17.610  14.767
23841W        W96909  36.142  28.730   4.289
23842W        W96910  41.786  34.545   4.632
23843W        W96911  20.534  26.935  11.049
23844W        W96912  18.950  39.003   1.685
23845W        W96913  42.713  41.807  14.951
23846W        W96914  40.435  31.865   0.830
23847W        W96915  39.886  32.524   4.549
23848W        W96916   7.458   7.690  11.124
23849W        W96917   9.032   2.765  14.461
23850W        W96918  18.199  33.369   4.170
23851W        W96919  30.644  30.506   2.303
23852W        W96920  10.370  33.933  14.403
23853W        W96921  17.235  35.305  14.820
23854W        W96922  14.759  20.781   1.853
23855W        W96923  10.358   5.314  11.217
23856W        W96924  29.460  11.663   1.030
23857W        W96925  20.785  41.508  13.421
23858W        W96926  39.344  12.311   1.766
23859W        W96927  42.487   3.214  11.490
23860W        W96928  13.838  36.048   4.403
23861W        W96929  43.542  14.807   3.023
23862W        W96930  42.516  40.348   1.289
23863W        W96931  25.983  32.962   0.903
23864W        W96932  24.993  39.502  14.931
23865W        W96933  26.633  11.618   1.938
23866W        W96934  18.692   6.562  11.950
23867W        W96935   4.095  15.164   3.670
23868W        W96936   7.715  18.853   3.737
23869W        W96937  30.246  30.184  12.745
23870W        W96938  31.221  19.697   0.877
23871W        W96939  18.055  33.621  12.160
23872W        W96940  33.503  37.991   4.829
23873W        W96941  22.526  22.632  12.426
23874W        W96942  39.010   8.270   2.024
23875W        W96943  14.539   5.728  14.782
23876W        W96944  39.015  37.411   3.653
23877W        W96945   8.404  11.718   2.300
23878W        W96946   7.380  20.038  11.638
23879W        W96947   6.247  20.317  14.040
23880W        W96948  13.812  35.356  11.633
23881W        W96949  13.314  31.875   1.235
23882W        W96950  42.090  32.926  12.551
23883W        W96951  36.608  17.627  11.644
23884W        W96952  23.646  27.686  12.550
23885W        W96953  38.105  16.728  11.543
23886W        W96954   5.976  37.096   3.881
23887W        W96955  25.076   0.623  12.838
23888W        W96956   5.217  28.125   1.319
23889W        W96957  36.541   2.263  14.963
23890W        W96958  29.679  17.493   1.783
23891W        W96959   4.006  37.111   0.799
23892W        W96960  43.903   5.144   4.037
23893W        W96961   6.233  29.468   2.236
23894W        W96962   7.173  20.122  13.113
23895W        W96963   0.776  41.407  12.875
23896W        W96964  33.655   8.667  13.543
23897W        W96965  18.673  39.597  13.874
23898W        W96966  33.153  40.753   0.045
23899W        W96967   1.928  14.882   0.941
23900W        W96968  11.180   6.157  10.808
23901W        W96969  42.305   0.785   4.773
23902W        W96970  13.795  11.113  10.688
23903W        W96971   1.912  31.927  13.805
23904W        W96972  31.585  29.064   4.510
23905W        W96973  23.155   2.881  11.447
23906W        W96974  21.295  33.032   3.756
23907W        W96975  28.675  25.114  13.081
23908W        W96976  42.603  13.357   1.918
23909W        W96977   4.249  33.573  14.386
23910W        W96978  44.439  23.425  12.123
23911W        W96979  17.092   9.690  12.119
23912W        W96980   7.380   8.796  14.410
23913W        W96981  35.733  41.864   5.091
23914W        W96982  28.110  44.545   3.711
23915W        W96983  31.947  43.020  14.378
23916W        W96984  37.982  17.009  13.916
23917W        W96985  30.985   9.816   2.572
23918W        W96986  40.317  29.146  12.157
23919W        W96987  18.406  29.681   0.865
23920W        W96988  29.556  37.318   1.914
23921W        W96989  25.713   3.278  11.594
23922W        W96990  28.708  35.791   0.909
23923W        W96991  33.970  10.081   4.591
23924W        W96992   3.759  15.859  12.069
23925W        W96993  13.854  40.914  12.559
23926W        W96994  26.090  43.734   4.225
23927W        W96995  16.342  29.933  10.566
23928W        W96996  40.698  43.455  14.324
23929W        W96997  27.202  17.182   1.474
23930W        W96998  25.066  27.616  10.989
23931W        W96999  24.924  29.880   1.875
23932W        W97000  22.678   9.084  11.094
23933W        W97001  20.393   7.303  12.858
23934W        W97002  10.887  43.342  13.354
23935W        W97003  22.460  23.315   3.584
23936W        W97004  35.545  14.091  14.453
23937W        W97005   0.419  43.094  12.862
23938W        W97006  27.267  29.122  14.331
23939W        W97007  22.428   6.354   0.183
23940W        W97008   6.581  29.928   2.714
23941W        W97009  26.886  38.148  11.145
23942W        W97010   8.225  35.985   3.029
23943W        W97011  24.300  31.987   1.325
23944W        W97012   8.700  41.776  11.979
23945W        W97013   2.157  12.268  13.437
23946W        W97014  43.070  40.253   1.900
23947W        W97015  42.103  16.737   3.182
23948W        W97016  13.172  44.015   4.004
23949W        W97017  33.862  18.878   0.317
23950W        W97018  13.770  23.613  10.418
23951W        W97019   3.442  41.155   3.404
23952W        W97020  21.456  15.791   3.007
23953W        W97021  30.981   3.625  12.109
23954W        W97022  13.698  32.451  13.422
23955W        W97023  26.220  40.353   0.298
23956W        W97024   7.736  20.488  13.458
23957W        W97025  27.300  29.106   2.892
23958W        W97026  11.637  30.115  14.814
23959W        W97027  41.942  27.484   2.906
23960W        W97028   5.723  19.631  12.048
23961W        W97029  37.605  25.018  12.832
23962W        W97030   5.834  13.177   0.370
23963W        W97031  44.998  25.417  10.681
23964W        W97032  17.437  40.376   4.852
23965W        W97033  10.185  36.781  10.019
23966W        W97034  42.167  12.180   2.284
23967W        W97035  31.248  31.855   1.168
23968W        W97036  42.435   9.139   2.311
23969W        W97037  20.052  28.516   2.668
23970W        W97038  34.492  31.975  13.583
23971W        W97039  19.544  11.720  13.268
23972W        W97040   4.808  22.247  13.522
23973W        W97041  34.754  26.513  12.579
23974W        W97042   2.920   4.276   2.763
23975W        W97043  34.496   7.793   4.828
23976W        W97044  35.089   8.742  12.037
23977W        W97045   1.398   1.020   4.594
23978W        W97046  14.706   7.256  10.717
23979W        W97047  16.276  44.784   0.801
23980W        W97048   5.778  32.463   1.971
23981W        W97049  12.815   2.291  12.509
23982W        W97050  38.379  10.645   4.255
23983W        W97051   5.175  44.721  12.482
23984W        W97052  14.838  23.247  11.378
23985W        W97053   2.165   5.736   3.206
23986W        W97054   6.399  20.970   2.305
23987W        W97055   5.672  14.863   1.364
23988W        W97056  22.266  16.130   1.128
23989W        W97057  26.639  33.033   1.424
23990W        W97058  15.424  15.899  11.993
23991W        W97059   3.537  37.590   3.089
23992W        W97060  34.441  26.416  11.599
23993W        W97061  28.699   6.887   0.350
23994W        W97062  24.251  42.366   1.778
23995W        W97063   5.836  17.626  11.185
23996W        W97064  42.406  13.926   1.216
23997W        W97065  11.846   5.825   9.918
23998W        W97066   8.925  22.149   4.876
23999W        W97067  17.695  37.154  13.791
24000W        W97068   5.306   8.251  14.303
24001W        W97069  24.716  30.171   4.144
24002W        W97070   4.741  36.542   3.141
24003W        W97071   2.393   0.544  14.215
24004W        W97072  30.065  33.383   1.987
24005W        W97073  19.173  17.143  13.429
24006W        W97074  12.617  12.750   0.344
24007W        W97075  37.585   9.599   2.025
24008W        W97076  19.685  28.842  13.593
24009W        W97077   6.418   7.158   2.241
24010W        W97078  20.234  25.534  13.394
24011W        W97079  37.434  37.397   2.579
24012W        W97080  40.715  35.534   1.870
24013W        W97081  31.076   6.482  13.383
24014W        W97082  43.499  22.768  14.416
24015W        W97083  12.425  19.609  13.442
24016W        W97084  24.928  18.115   4.490
24017W        W97085  37.826  38.544  12.797
24018W        W97086  18.019  11.321   3.285
24019W        W97087  42.075  34.318  13.001
24020W        W97088  13.780  40.186   3.281
24021W        W97089  23.705  39.298  10.197
24022W        W97090  32.841  38.249   2.419
24023W        W97091  40.595   7.894  11.024
24024W        W97092  42.014   2.752  14.324
24025W        W97093  12.248  20.184  13.583
24026W        W97094  31.898  35.895  13.332
24027W        W97095  32.544  39.043   2.763
24028W        W97096   8.564  42.037   4.171
24029W        W97097  28.655   6.266   2.614
24030W        W97098  15.318  34.050   0.751
24031W        W97099   8.972  39.997  12.536
24032W        W97100  43.265  31.323   3.712
24033W        W97101  41.371   9.643   3.593
24034W        W97102  18.970  44.444  11.501
24035W        W97103   6.413   0.962  11.101
24036W        W97104  32.079  32.983   4.780
24037W        W97105   2.219  12.288   0.348
24038W        W97106  22.765  18.111   4.342
24039W        W97107  25.042  25.920   2.422
24040W        W97108   8.134  25.256  12.962
24041W        W97109   2.245  20.595   2.731
24042W        W97110   5.638  30.136  11.351
24043W        W97111  21.541  13.643   0.263
24044W        W97112  18.247   5.449   1.705
24045W        W97113  21.584  32.171  13.416
24046W        W97114   2.789   3.056   3.997
24047W        W97115   9.173  19.609  13.051
24048W        W97116  32.675  26.123  10.424
24049W        W97117   5.277   9.845  13.302
24050W        W97118  33.646  19.981   3.786
24051W        W97119  11.899  38.311  13.392
24052W        W97120  38.784   4.891   3.584
24053W        W97121   7.755  39.898  12.949
24054W        W97122  40.935  36.770   3.748
24055W        W97123   3.445  34.643   4.423
24056W        W97124  26.031  35.537   0.774
24057W        W97125  40.410   5.848  12.010
24058W        W97126   5.247  33.146   1.277
24059W        W97127  23.622  33.998   4.878
24060W        W97128   5.638  28.938   1.880
24061W        W97129  29.594  30.510   1.287
24062W        W97130  17.557  36.799  11.999
24063W        W97131  44.838   0.629  14.438
24064W        W97132  11.828  13.247   2.224
24065W        W97133  10.266  25.490  11.557
24066W        W97134   6.743  14.872  12.890
24067W        W97135  24.934  41.237  12.630
24068W        W97136  18.787   0.492   3.772
24069W        W97137  14.437  44.968   4.542
24070W        W97138   8.373  14.933   2.159
24071W        W97139  43.916  35.571   0.379
24072W        W97140   7.392   0.678   3.272
24073W        W97141  34.408  25.370  11.732
24074W        W97142  25.606  35.119  12.078
24075W        W97143  16.687   9.611  14.661
24076W        W97144  42.770  21.753   1.816
24077W        W97145  17.681  18.274  10.692
24078W        W97146  26.976  31.571  12.631
24079W        W97147  20.678   6.022  12.885
24080W        W97148   8.067  19.641   5.069
24081W        W97149   2.597  15.691  13.369
24082W        W97150  43.533  13.609   0.715
24083W        W97151  31.462  22.994  12.404
24084W        W97152  24.069  15.591   3.089
24085W        W97153  26.664  31.476   4.349
24086W        W97154  28.717  13.332  13.783
24087W        W97155  33.694   6.660  12.063
24088W        W97156  42.843   1.811   0.386
24089W        W97157   7.325  20.813   3.786
24090W        W97158  31.153   7.854  13.297
24091W        W97159  11.786  18.178  13.505
24092W        W97160  15.147  17.116  10.896
24093W        W97161   1.037  29.531   2.157
24094W        W97162  27.178  10.650   4.157
24095W        W97163   6.367  22.586  13.310
24096W        W97164   7.221  35.956  13.854
24097W        W97165  34.898  37.594  14.196
24098W        W97166   1.785  26.001   4.601
24099W        W97167   0.339  11.388   0.830
24100W        W97168  12.532  19.810  11.152
24101W        W97169  25.660  16.787   2.258
24102W        W97170   9.611   8.420  14.456
24103W        W97171  21.125  39.858   1.127
24104W        W97172  34.516  34.899  10.343
24105W        W97173  23.545  31.233  12.285
24106W        W97174  31.588  38.410  14.898
24107W        W97175   3.094  13.762   0.907
24108W        W97176  40.828   1.473  10.637
24109W        W97177  31.081  17.890  11.052
24110W        W97178  43.894  33.105  12.065
24111W        W97179  44.741  41.819   1.823
24112W        W97180  32.839  28.057   2.622
24113W        W97181  10.768  15.090  10.755
24114W        W97182  44.486  32.829  13.485
24115W        W97183  39.325  33.002   2.204
24116W        W97184  19.735  30.777  13.156
24117W        W97185  24.482   9.323  12.401
24118W        W97186  23.205  12.085  10.731
24119W        W97187  16.945  33.331  13.556
24120W        W97188  25.578   3.749   3.219
24121W        W97189  27.243  28.513  12.010
24122W        W97190  40.332  13.653  12.335
24123W        W97191  25.577   8.217  14.764
24124W        W97192   4.234   2.745   4.770
24125W        W97193   8.522   4.188   1.919
24126W        W97194  40.620  16.191  10.707
24127W        W97195  42.784   4.404   0.997
24128W        W97196  30.192  32.369   2.130
24129W        W97197  20.444  10.612   2.120
24130W        W97198  24.242   5.764  12.980
24131W        W97199  10.418  24.198  11.887
24132W        W97200   0.913   7.401  10.751
24133W        W97201  22.727  20.311   3.664
24134W        W97202   0.279  13.624  12.477
24135W        W97203   4.732   3.145  12.548
24136W        W97204   5.941  15.151   3.070
24137W        W97205  20.621  17.676  10.677
24138W        W97206  30.561  27.953   2.131
24139W        W97207   9.733   3.736  13.631
24140W        W97208  25.196  17.692  13.537
24141W        W97209  27.900  29.671  10.781
24142W        W97210  16.294  18.038   1.766
24143W        W97211  38.428  10.823   2.276
24144W        W97212  22.648  17.483   3.255
24145W        W97213   6.425  25.490   1.295
24146W        W97214  22.125  16.224   3.104
24147W        W97215  27.773  33.928  12.869
24148W        W97216   1.486  18.623  11.733
24149W        W97217  27.147  10.019  12.005
24150W        W97218  13.097   1.275   3.575
24151W        W97219  22.940  12.663  14.436
24152W        W97220  32.028  44.170  14.012
24153W        W97221   0.528  30.114   0.013
24154W        W97222  12.736  21.038   3.240
24155W        W97223   2.896   9.734  11.452
24156W        W97224  41.906  25.733   2.348
24157W        W97225  36.735   3.459  13.031
24158W        W97226  41.483  10.118  11.592
24159W        W97227   5.123  28.539   4.269
24160W        W97228  10.290  26.938   2.526
24161W        W97229   3.457  18.302   4.210
24162W        W97230  22.029   6.914  14.983
24163W        W97231  19.069  13.397   2.978
24164W        W97232   5.417   6.349   3.628
24165W        W97233  16.196  35.466   4.382
24166W        W97234   4.703  26.453   1.289
24167W        W97235  20.307   9.327  11.620
24168W        W97236  42.495  14.732   1.742
24169W        W97237  28.246  34.695   4.173
24170W        W97238  30.626  14.564  11.201
24171W        W97239  11.575  38.671  13.965
24172W        W97240  22.602  43.999   2.679
24173W        W97241  16.145  27.801  14.540
24174W        W97242  34.351  18.166   3.822
24175W        W97243   7.684  26.124   2.760
24176W        W97244  16.567  23.707  14.124
24177W        W97245   1.684  13.859  13.103
24178W        W97246   0.913  36.718   2.105
24179W        W97247   7.120  13.804   3.452
24180W        W97248  10.303  35.119   0.609
24181W        W97249  28.510  15.424  11.752
24182W        W97250  15.539  20.990   0.235
24183W        W97251   7.196  33.636   1.381
24184W        W97252  27.929  44.810  14.920
24185W        W97253   7.849  35.438   4.199
24186W        W97254  32.554   7.917  11.616
24187W        W97255  18.190  18.191  10.701
24188W        W97256  19.208   6.278   0.919
24189W        W97257  22.633  30.715  12.513
24190W        W97258   6.909   0.036  13.525
24191W        W97259  12.183  20.887  11.959
24192W        W97260  16.130   0.232  12.504
24193W        W97261  36.873  31.460  11.054
24194W        W97262   2.072  31.545   4.200
24195W        W97263   2.815   3.844   4.921
24196W        W97264   2.838  13.668  13.948
24197W        W97265  12.318  11.409  12.795
24198W        W97266  38.485  16.348   3.310
24199W        W97267  24.577  42.121   0.398
24200W        W97268  25.215  42.903  14.367
24201W        W97269  18.663  14.635   3.271
24202W        W97270   0.347  39.465   1.020
24203W        W97271  33.906   1.983  13.746
24204W        W97272  28.756  23.691   0.677
24205W        W97273  42.859  38.077   2.319
24206W        W97274  35.070  38.145   1.393
24207W        W97275  21.173  14.593   4.505
24208W        W97276  25.617   9.605  11.723
24209W        W97277  35.927  22.642   3.269
24210W        W97278  30.493  34.805   3.215
24211W        W97279  41.568   2.311  13.131
24212W        W97280  16.123  39.873   3.943
24213W        W97281  34.443  14.376   3.204
24214W        W97282  16.781   1.343  11.895
24215W        W97283  11.687  31.761  13.349
24216W        W97284  35.566  33.505   2.787
24217W        W97285  15.783  12.789  11.554
24218W        W97286  39.273   3.138  12.760
24219W        W97287  16.196   8.423   4.511
24220W        W97288  39.657  30.111   0.431
24221W        W97289  33.363  17.717  10.394
24222W        W97290   1.228  26.949  11.198
24223W        W97291   9.629  40.725   3.646
24224W        W97292  22.727  25.943   4.560
24225W        W97293  32.526  31.883   3.912
24226W        W97294  39.417  12.291   0.878
24227W        W97295  28.421  11.595  11.304
24228W        W97296  40.129   3.935   3.879
24229W        W97297   1.802   8.258  11.493
24230W        W97298  37.027  43.256   0.287
24231W        W97299  10.732  25.348   4.729
24232W        W97300  21.981  33.511  12.467
24233W        W97301  10.110  20.245   0.813
24234W        W97302   0.845  19.752   2.013
24235W        W97303  36.996  22.037   4.188
24236W        W97304  36.628  42.365   4.572
24237W        W97305  31.675  24.471  13.516
24238W        W97306  10.728  27.489   4.239
24239W        W97307   7.756  36.875   3.690
24240W        W97308  39.508  34.547  12.682
24241W        W97309   8.066   1.002  14.483
24242W        W97310  15.278   4.652  13.306
24243W        W97311   6.208  29.400  12.430
24244W        W97312  18.814  18.413  12.027
24245W        W97313  27.615  26.979  14.563
24246W        W97314  31.447  44.654   0.801
24247W        W97315   1.860  39.131  13.672
24248W        W97316  35.859   0.076  12.088
24249W        W97317   8.792  35.461  10.639
24250W        W97318  23.685  20.325   3.357
24251W        W97319  14.901  18.452  12.498
24252W        W97320   4.905  18.155   4.498
24253W        W97321  17.963  23.449   3.656
24254W        W97322  14.340  34.575   2.857
24255W        W97323  21.511  35.957  11.194
24256W        W97324  44.894   1.089  14.698
24257W        W97325  28.174   6.474   2.634
24258W        W97326  40.985  12.380  13.892
24259W        W97327  30.893  41.364  12.160
24260W        W97328   6.202  40.263  13.511
24261W        W97329   0.974  38.802  10.764
24262W        W97330  36.653  33.470   4.243
24263W        W97331  24.754  31.927  13.924
24264W        W97332  25.592   3.790  13.368
24265W        W97333  44.157  33.065  11.617
24266W        W97334  26.138  33.599   0.380
24267W        W97335  43.668   2.422   1.418
24268W        W97336  12.979   4.627   4.188
24269W        W97337   7.576  41.107   0.610
24270W        W97338  39.536  31.574   3.432
24271W        W97339   3.242   1.251  13.125
24272W        W97340   1.796  19.570  14.228
24273W        W97341  38.755  13.524  10.708
24274W        W97342  23.560  28.391   3.587
24275W        W97343  39.910   5.649   0.946
24276W        W97344  44.330   5.721  11.703
24277W        W97345  36.542  16.953  10.429
24278W        W97346   9.763  11.353  13.285
24279W        W97347  35.879  10.550  11.148
24280W        W97348  26.916  26.840   4.989
24281W        W97349  32.413  18.820   1.423
24282W        W97350  13.391  10.767   0.758
24283W        W97351  26.552  16.708  10.273
24284W        W97352  32.540  35.433  13.782
24285W        W97353   5.755  29.445   1.935
24286W        W97354  23.730  24.679  10.465
24287W        W97355  28.419  22.913  14.879
24288W        W97356  38.514  14.692  14.665
24289W        W97357   6.597  17.521  13.324
24290W        W97358  26.505  31.193   2.116
24291W        W97359  32.670  24.814  14.868
24292W        W97360  20.177  44.942  11.378
24293W        W97361  29.498   8.615  14.356
24294W        W97362  15.321   0.023   4.184
24295W        W97363  31.234  36.065  11.553
24296W        W97364  16.773  13.141  12.917
24297W        W97365  12.864  17.554   1.343
24298W        W97366  27.953  40.515  12.077
24299W        W97367  34.023   5.413  13.389
24300W        W97368   7.322  35.153   2.608
24301W        W97369  31.341  14.192   3.303
24302W        W97370  27.951   9.293  13.559
24303W        W97371   5.323   6.657  11.592
24304W        W97372  38.435  21.804   1.252
24305W        W97373  26.886  43.887  13.094
24306W        W97374  44.681   9.905   1.518
24307W        W97375  43.470   8.802   1.379
24308W        W97376  28.087  42.304   0.862
24309W        W97377   5.250  12.677  10.917
24310W        W97378   5.341  22.975  13.340
24311W        W97379  17.798   7.519  11.194
24312W        W97380  42.104  42.507   0.776
24313W        W97381   9.324   4.793  12.575
24314W        W97382  31.059   8.341  12.513
24315W        W97383  26.975  34.726   0.862
24316W        W97384  38.523  26.953  14.981
24317W        W97385  15.642  40.872   0.754
24318W        W97386  22.541  42.368  13.790
24319W        W97387   6.030   3.321   0.465
24320W        W97388  35.523  11.125  14.261
24321W        W97389  44.712  17.769  11.188
24322W        W97390  36.506   6.938   3.681
24323W        W97391  23.036  26.652  12.038
24324W        W97392  36.342  40.899   4.356
24325W        W97393  22.972   5.306  13.038
24326W        W97394  31.665  39.433  12.933
24327W        W97395  38.176  11.336   4.743
24328W        W97396  18.774  40.036   1.859
24329W        W97397   2.178  18.213  12.994
24330W        W97398  15.894  11.172  14.237
24331W        W97399  20.320  15.400  14.035
24332W        W97400  38.574   1.124   3.765
24333W        W97401  42.727  34.787  12.907
24334W        W97402   3.923  18.742   3.151
24335W        W97403  39.865  31.468   4.741
24336W        W97404  36.082  23.649  13.812
24337W        W97405  17.803  41.580  11.581
24338W        W97406  21.331  44.019  14.400
24339W        W97407  43.406  35.300  11.164
24340W        W97408  22.770  34.527  10.651
24341W        W97409   2.941  20.795   2.281
24342W        W97410  31.108  12.099   2.208
24343W        W97411   3.187  25.530  11.057
24344W        W97412  15.240  10.813  14.326
24345W        W97413  13.228  34.916   1.965
24346W        W97414   0.375   8.083   3.567
24347W        W97415   0.098   5.996   3.679
24348W        W97416  43.387  32.192  12.937
24349W        W97417  14.285  38.066  12.716
24350W        W97418   3.510  34.264   0.738
24351W        W97419  14.620   6.374   0.924
24352W        W97420   2.306  37.476   1.844
24353W        W97421  26.456  32.011  11.991
24354W        W97422  13.533   7.071   3.842
24355W        W97423  12.116  35.595  14.397
24356W        W97424  42.806  13.691   2.880
24357W        W97425   2.025  18.159  13.539
24358W        W97426  12.059  24.572   0.517
24359W        W97427   6.736  28.571   0.425
24360W        W97428  27.373  15.756   4.609
24361W        W97429  16.976  16.211   0.400
24362W        W97430  19.761  22.416   3.623
24363W        W97431  16.585  29.188  12.926
24364W        W97432  13.704  41.361  13.095
24365W        W97433  41.807  34.658  13.254
24366W        W97434  29.782   5.806  13.262
24367W        W97435   5.436  33.336   0.309
24368W        W97436  23.767  37.775   4.655
24369W        W97437  42.294  18.255  14.026
24370W        W97438  10.822  30.122   3.108
24371W        W97439  33.598  29.150  12.743
24372W        W97440  10.014  11.707   1.611
24373W        W97441  17.664  13.813   2.489
24374W        W97442   9.325  44.881  11.172
24375W        W97443  41.799   5.232   0.842
24376W        W97444  27.656  41.473   0.401
24377W        W97445  30.607   0.357  12.254
24378W        W97446  36.505  12.163  10.381
24379W        W97447  16.612  41.473  14.501
24380W        W97448  44.027  17.717   1.680
24381W        W97449  18.487  31.353   3.877
24382W        W97450  14.160  26.106  13.454
24383W        W97451  37.772  34.339  14.252
24384W        W97452   5.238  34.408   1.631
24385W        W97453   5.787   2.293  14.410
24386W        W97454  40.539  31.108   1.453
24387W        W97455   6.965  24.528   3.442
24388W        W97456  19.132  41.566   1.900
24389W        W97457  13.986   9.692   3.741
24390W        W97458  42.423  30.022   4.877
24391W        W97459  21.731  21.095   3.405
24392W        W97460  14.026   2.353   4.755
24393W        W97461   3.452  40.034   4.517
24394W        W97462  20.718   2.476  11.997
24395W        W97463   3.920  29.133   4.537
24396W        W97464   4.344  18.462   4.788
24397W        W97465  19.221  27.968   1.280
24398W        W97466   8.939  31.447   3.827
24399W        W97467  29.186  19.170   0.467
24400W        W97468  33.476  15.815   2.823
24401W        W97469  30.144  32.485   4.361
24402W        W97470  35.137   2.919  11.083
24403W        W97471  26.571   0.622  14.749
24404W        W97472  29.621   2.504   3.758
24405W        W97473   5.463  21.529   0.456
24406W        W97474  42.845   1.423  11.588
24407W        W97475  30.804  33.976   1.415
24408W        W97476  13.708  25.111   4.721
24409W        W97477  26.853   2.855  14.778
24410W        W97478  15.735  38.524   1.489
24411W        W97479   0.779  41.458  13.896
24412W        W97480  12.218  33.823   0.918
24413W        W97481   3.905   9.207   4.530
24414W        W97482  26.061  25.046  12.036
24415W        W97483  34.459  13.144  14.793
24416W        W97484   2.862  28.571   4.374
24417W        W97485  23.049  32.980   2.381
24418W        W97486  30.302  15.377  13.999
24419W        W97487  28.021  15.273   5.065
24420W        W97488  33.603  29.397   3.663
24421W        W97489  11.160  42.885  10.784
24422W        W97490  19.438  25.023  10.768
24423W        W97491  40.006  39.440   1.807
24424W        W97492   5.821  18.729   1.844
24425W        W97493   5.041  44.399  13.585
24426W        W97494   2.856  29.816  14.799
24427W        W97495   9.647   5.823  12.791
24428W        W97496  31.941   9.415  12.050
24429W        W97497  11.116   8.190  12.593
24430W        W97498  22.894  28.529   1.783
24431W        W97499   1.845  43.766  12.976
24432W        W97500  23.036  10.444  12.415
24433W        W97501  43.983  20.339   3.344
24434W        W97502  21.630  20.595   1.677
24435W        W97503  33.391  33.346  10.532
24436W        W97504   8.568  38.059  13.076
24437W        W97505   7.511  25.036  14.867
24438W        W97506  31.875   6.361   3.563
24439W        W97507  11.884  10.709   2.796
24440W        W97508   2.767  21.722   0.771
24441W        W97509  42.004  28.660   1.412
24442W        W97510  36.148  31.431   3.367
24443W        W97511  16.313  13.365   1.648
24444W        W97512  43.752  42.391   2.753
24445W        W97513  32.909  32.910   2.301
24446W        W97514   0.316   8.099  13.354
24447W        W97515  42.482  44.118   2.356
24448W        W97516  17.055  19.271  10.642
24449W        W97517  18.764   9.482   0.362
24450W        W97518  33.786  12.541   2.328
24451W        W97519  20.746  20.334  12.358
24452W        W97520  15.516  20.345  11.153
24453W        W97521  44.274  38.403  11.531
24454W        W97522  16.876   2.972  14.050
24455W        W97523  36.311  40.816  14.399
24456W        W97524  17.540  21.900   3.718
24457W        W97525  40.739  31.056   4.534
24458W        W97526  41.516   6.235  12.843
24459W        W97527   6.438   7.797   4.563
24460W        W97528  12.107  41.707  13.874
24461W        W97529   5.638   4.828  12.863
24462W        W97530  30.070  28.123   0.006
24463W        W97531  36.093  35.556  12.557
24464W        W97532  37.564   2.019   3.270
24465W        W97533   0.391   3.717   4.714
24466W        W97534  18.694  36.051   0.169
24467W        W97535  28.376  33.061   1.856
24468W        W97536  33.107  18.539   0.905
24469W        W97537  31.965  16.875  11.065
24470W        W97538  16.774   7.201  13.427
24471W        W97539  19.733  36.738  11.674
24472W        W97540  16.658   1.904   0.027
24473W        W97541  43.665   2.868  13.850
24474W        W97542  32.056  42.494  14.412
24475W        W97543  14.755  40.474   3.134
24476W        W97544  42.007  20.760  10.680
24477W        W97545  31.261  11.483  11.972
24478W        W97546  21.749  17.492  12.970
24479W        W97547  25.213  24.522  11.545
24480W        W97548  10.355  44.572   2.740
24481W        W97549  31.936  16.118  13.635
24482W        W97550   5.891  36.627   4.074
24483W        W97551  37.137  15.343  12.073
24484W        W97552   9.425  34.485  13.950
24485W        W97553  20.461  21.553   2.109
24486W        W97554  41.374  21.740  12.423
24487W        W97555  15.353  12.644   3.767
24488W        W97556  24.459  41.268   4.622
24489W        W97557  14.233  16.058  12.896
24490W        W97558  15.162  26.294  13.047
24491W        W97559  27.053  17.606   1.750
24492W        W97560  35.819  28.177  11.563
24493W        W97561  33.832  38.067  11.401
24494W        W97562  31.934  44.365   4.065
24495W        W97563  17.406  36.917  12.965
24496W        W97564   5.825   0.984   0.539
24497W        W97565  10.067  26.698  10.129
24498W        W97566   0.168  15.117  13.791
24499W        W97567  44.767  31.207   3.150
24500W        W97568   6.365   1.374   2.718
24501W        W97569  18.981  43.878   2.399
24502W        W97570  36.425  41.788  10.798
24503W        W97571  30.633  40.358  10.631
24504W        W97572  43.792  23.232  14.466
24505W        W97573   7.847  42.451  10.957
24506W        W97574  41.742  15.130   2.299
24507W        W97575  29.625  31.381   3.727
24508W        W97576  23.187   6.940   2.407
24509W        W97577  25.325   0.065  13.541
24510W        W97578  19.253  35.796  13.409
24511W        W97579   0.964  14.346   2.807
24512W        W97580   5.000  37.458  10.567
24513W        W97581  10.339  18.128   4.118
24514W        W97582   4.852  13.055   0.453
24515W        W97583  31.288  30.742  10.461
24516W        W97584  37.139  32.528   4.300
24517W        W97585  35.369  31.664   9.753
24518W        W97586  23.826  21.179   3.837
24519W        W97587   7.380  16.220  14.460
24520W        W97588  32.891   6.894   1.757
24521W        W97589  41.067  18.144  10.561
24522W        W97590   3.823   7.718   3.712
24523W        W97591   7.754  32.342   1.433
24524W        W97592   0.039  37.109   2.461
24525W        W97593  14.852  44.452  10.379
24526W        W97594  44.487  33.647   3.282
24527W        W97595  14.655  33.668   1.306
24528W        W97596   1.281  23.131   3.807
24529W        W97597  22.587  17.846   1.373
24530W        W97598  21.507   2.200   3.203
24531W        W97599  38.977  19.761   0.420
24532W        W97600   9.198  40.508   1.182
24533W        W97601  25.657  41.062   3.351
24534W        W97602  43.980   8.477  14.275
24535W        W97603  11.483  30.617  11.087
24536W        W97604  14.710  38.607  11.127
24537W        W97605  16.845  18.264  12.083
24538W        W97606  34.004  28.010  10.371
24539W        W97607  38.756  38.456   0.038
24540W        W97608  17.366  41.470  14.230
24541W        W97609  15.276  15.113  12.883
24542W        W97610  30.665   3.833  10.641
24543W        W97611  33.371  33.406   3.536
24544W        W97612  20.602   5.462   1.794
24545W        W97613  16.302  26.160  14.882
24546W        W97614  40.523  29.729   3.788
24547W        W97615  33.082  32.111   0.238
24548W        W97616  23.266  38.010  14.291
24549W        W97617  43.007  33.996  11.029
24550W        W97618  43.968  32.581   3.676
24551W        W97619  24.035   8.062   1.191
24552W        W97620   6.111  26.397   4.530
24553W        W97621  44.693  40.464   1.490
24554W        W97622  43.381  14.316   0.242
24555W        W97623   5.842   4.673   1.849
24556W        W97624  37.283  26.469  10.624
24557W        W97625  32.448  25.697  12.842
24558W        W97626  23.510  10.830  11.673
24559W        W97627  24.261  21.099  11.782
24560W        W97628  13.663  22.460  11.457
24561W        W97629  36.127   5.508  14.495
24562W        W97630  33.860  14.654   3.151
24563W        W97631  35.353   2.139   0.468
24564W        W97632  26.192  32.172   4.645
24565W        W97633  35.383  37.481  14.440
24566W        W97634  18.271  37.284  10.707
24567W        W97635  37.897  22.772   0.382
24568W        W97636  43.492   3.625  10.533
24569W        W97637  36.823  40.769  14.387
24570W        W97638  38.049  13.138  12.206
24571W        W97639  32.155   9.336   4.055
24572W        W97640  25.010   8.892   4.374
24573W        W97641  36.619  21.622   3.333
24574W        W97642  34.229  19.503   2.862
24575W        W97643  22.205  23.117   0.343
24576W        W97644  21.188   0.819   0.367
24577W        W97645   7.811  22.802   4.546
24578W        W97646  10.047   1.359  11.181
24579W        W97647  40.313  38.512  14.892
24580W        W97648  12.878  32.572  11.370
24581W        W97649  16.031   7.893  12.928
24582W        W97650  37.478  11.646   4.154
24583W        W97651   4.010  29.022  13.798
24584W        W97652   2.924  30.352  14.431
24585W        W97653  13.555  26.251   2.735
24586W        W97654   9.419  15.272  11.564
24587W        W97655  41.311  41.824   5.056
24588W        W97656  41.129   7.069   3.955
24589W        W97657  44.325  15.633   0.803
24590W        W97658  33.051  28.683   2.276
24591W        W97659  30.064   4.183  13.356
24592W        W97660  21.471  39.150  12.233
24593W        W97661  24.099  42.624  12.400
24594W        W97662  28.999  14.752  11.303
24595W        W97663  34.800   1.778   1.788
24596W        W97664  14.229  22.457  12.110
24597W        W97665  18.226  28.513   0.685
24598W        W97666  23.629  13.393  12.961
24599W        W97667   9.351  12.788   0.651
24600W        W97668   1.299  10.422  13.853
24601W        W97669   9.354  15.644   5.090
24602W        W97670  28.014  19.003   2.214
24603W        W97671  34.927  30.477   3.714
24604W        W97672  26.149   6.563  11.596
24605W        W97673  11.586   4.103   1.218
24606W        W97674   2.487   6.222   4.192
24607W        W97675   5.758  36.504  13.631
24608W        W97676  35.350   7.442   4.204
24609W        W97677  27.970  38.061  12.516
24610W        W97678   9.580   8.527  13.380
24611W        W97679   4.361   8.767   1.029
24612W        W97680   6.736  24.291  14.008
24613W        W97681  35.346  28.121  10.710
24614W        W97682  40.002   6.938  10.257
24615W        W97683  19.549   4.462  13.368
24616W        W97684   6.740   5.205  11.607
24617W        W97685  22.165  39.854  10.863
24618W        W97686  15.993   5.772   3.227
24619W        W97687   8.120  31.387  11.497
24620W        W97688  36.161  39.570  11.507
24621W        W97689  43.310  28.655  12.805
24622W        W97690  32.061   0.255   0.959
24623W        W97691  42.091  11.850   3.551
24624W        W97692  28.701  29.433  11.170
24625W        W97693   1.780  40.978  10.629
24626W        W97694  36.816  42.550   0.678
24627W        W97695   9.276  39.387   4.748
24628W        W97696  42.364  18.603   2.360
24629W        W97697  11.448  10.203  12.623
24630W        W97698  44.351  17.193  12.937
24631W        W97699  44.369   5.665   4.566
24632W        W97700  40.896   2.413   0.680
24633W        W97701  16.409   9.812   2.733
24634W        W97702   4.254  11.946  10.940
24635W        W97703  12.658   7.424  13.074
24636W        W97704  17.812   8.453   2.159
24637W        W97705  43.435  21.195  13.808
24638W        W97706  27.268  39.809   2.215
24639W        W97707  16.244  40.064  11.045
24640W        W97708  32.469   8.062  13.811
24641W        W97709  27.289   8.639   3.036
24642W        W97710  26.423   4.458   0.508
24643W        W97711  29.581   7.778  12.301
24644W        W97712  12.095  29.611   0.278
24645W        W97713  31.694  10.380  13.076
24646W        W97714  10.833  21.195  10.804
24647W        W97715  28.075  30.851  13.996
24648W        W97716  41.245  11.506   4.495
24649W        W97717  20.380  27.352   1.242
24650W        W97718  19.181  43.834   4.769
24651W        W97719  29.988  15.657   0.789
24652W        W97720  21.114  22.078   3.749
24653W        W97721  36.990  33.261  12.147
24654W        W97722  18.159  33.995  10.912
24655W        W97723   6.867  35.493  14.468
24656W        W97724  18.609  24.246   2.293
24657W        W97725  33.387  35.907  11.003
24658W        W97726  11.072  33.861   0.015
24659W        W97727  18.349   5.857  10.766
24660W        W97728  24.940  18.293   4.967
24661W        W97729  40.537  23.498   4.180
24662W        W97730  43.249   2.876   4.706
24663W        W97731  29.383  32.514   0.918
24664W        W97732  24.170  29.624   0.071
24665W        W97733  31.336  17.109  12.548
24666W        W97734  19.952   7.415  10.387
24667W        W97735   3.255  38.808   1.400
24668W        W97736  26.566  15.008  11.314
24669W        W97737  38.068   4.660  14.521
24670W        W97738  26.172  25.416  12.910
24671W        W97739  28.839   7.004   1.754
24672W        W97740  37.007   0.115   1.815
24673W        W97741   4.531  38.476  14.952
24674W        W97742  14.638  44.845   2.705
24675W        W97743   2.418   2.849   2.642
24676W        W97744  41.282  36.105   0.885
24677W        W97745  27.887  38.300  12.015
24678W        W97746  22.037  10.068  11.182
24679W        W97747  13.282  30.071  14.620
24680W        W97748   1.999  39.883   4.534
24681W        W97749  15.891  13.202   1.378
24682W        W97750  41.468   3.215  14.931
24683W        W97751  31.549  20.579   2.047
24684W        W97752  26.018   4.668  10.651
24685W        W97753  20.735  34.643  14.339
24686W        W97754  25.105  11.088   4.688
24687W        W97755  42.413  30.677   3.742
24688W        W97756  16.070  21.022   1.657
24689W        W97757  44.080  11.657   2.348
24690W        W97758  43.688  28.165   3.882
24691W        W97759   9.641  10.312  13.301
24692W        W97760   0.070  11.396   3.796
24693W        W97761  14.802  35.556   3.662
24694W        W97762  23.646  32.488  11.005
24695W        W97763  22.703   4.402   0.394
24696W        W97764  42.494  31.464   0.783
24697W        W97765  38.583  13.289  12.975
24698W        W97766  26.336  26.060  13.806
24699W        W97767  41.400  17.004  11.396
24700W        W97768  35.260  19.477  14.912
24701W        W97769  23.274   5.325  12.541
24702W        W97770   4.905  12.724  11.635
24703W        W97771   9.535  29.445   4.939
24704W        W97772  40.306  34.853  12.910
24705W        W97773  21.244  34.352   3.334
24706W        W97774  40.926  21.305  11.138
24707W        W97775  40.361  35.708  12.011
24708W        W97776  26.660  39.940  11.145
24709W        W97777  36.131  31.542  14.754
24710W        W97778  15.571  43.985   1.785
24711W        W97779  39.438  18.503  11.839
24712W        W97780  27.780  20.501  11.178
24713W        W97781   4.391  17.695   3.367
24714W        W97782  33.495  33.714   1.227
24715W        W97783  34.975  17.102  14.026
24716W        W97784  28.563  10.837  12.444
24717W        W97785  29.403   7.455   0.215
24718W        W97786  13.550  42.722  13.290
24719W        W97787  21.118  29.004  12.098
24720W        W97788  17.159  14.368   0.941
24721W        W97789  37.436   5.122   3.873
24722W        W97790  42.537   5.164  11.965
24723W        W97791  40.971  19.262   2.102
24724W        W97792  26.636  16.230   1.187
24725W        W97793   3.289  27.835  13.651
24726W        W97794  43.421  37.415   4.698
24727W        W97795  42.781  35.592   1.923
24728W        W97796  17.260   9.159  12.147
24729W        W97797  18.088  37.526   2.972
24730W        W97798  28.473  12.334   5.762
24731W        W97799  39.967  19.618  13.378
24732W        W97800  27.077  18.554   0.348
24733W        W97801  35.665  44.395  11.418
24734W        W97802  28.029  27.600  10.240
24735W        W97803   7.819  32.838   1.260
24736W        W97804  12.505  41.422   3.522
24737W        W97805  28.347  13.062  12.345
24738W        W97806   1.396  16.615  12.937
24739W        W97807  20.084  28.982  13.044
24740W        W97808   6.115  15.353   4.220
24741W        W97809  16.204   5.544  12.803
24742W        W97810  34.853   0.189  12.005
24743W        W97811  41.892  25.515   0.030
24744W        W97812   3.584  10.714  11.036
24745W        W97813   2.112  21.104  12.464
24746W        W97814  14.652  25.708  11.536
24747W        W97815  32.552  26.197   2.749
24748W        W97816  32.281   9.600   1.438
24749W        W97817  43.016  17.102  14.527
24750W        W97818  20.700  11.705  13.747
24751W        W97819  29.353   6.467  12.563
24752W        W97820  12.579  12.255   2.705
24753W        W97821   4.210  23.657  11.429
24754W        W97822  12.375  35.603   1.420
24755W        W97823  12.126  39.883   3.224
24756W        W97824  40.310  27.503   4.340
24757W        W97825  33.850  23.973   2.884
24758W        W97826  22.563  40.009   2.812
24759W        W97827   2.608  30.915   4.904
24760W        W97828  43.262   7.617   0.189
24761W        W97829   3.300  33.061  12.041
24762W        W97830   7.828  14.376  14.578
24763W        W97831  19.172  25.998   1.272
24764W        W97832  37.205   0.102  12.543
24765W        W97833  20.627  28.404  13.124
24766W        W97834  34.421  11.616  10.826
24767W        W97835  42.493  39.007  13.809
24768W        W97836  18.500  43.063  11.679
24769W        W97837  33.094  33.709   3.849
24770W        W97838  40.378  13.556   4.619
24771W        W97839  21.726  29.537   0.452
24772W        W97840  10.385  13.774  12.952
24773W        W97841  10.104   2.349  13.850
24774W        W97842  13.230   6.342   3.429
24775W        W97843  34.798   4.226   1.744
24776W        W97844   9.766  32.694  11.637
24777W        W97845  27.863  14.922   0.765
24778W        W97846  40.962  23.940   1.789
24779W        W97847  37.013  32.045   0.952
24780W        W97848  42.986  10.969   0.068
24781W        W97849  21.863  31.533   1.431
24782W        W97850   6.121   3.919  12.949
24783W        W97851  14.552  32.867   1.257
24784W        W97852  15.549   8.470   1.908
24785W        W97853  30.158  44.506   2.473
24786W        W97854  15.193  27.603  13.153
24787W        W97855   3.845  44.263   0.095
24788W        W97856  38.097  39.912   1.299
24789W        W97857   8.592   9.978   0.295
24790W        W97858  19.166  11.263   0.222
24791W        W97859  12.702  18.227  10.101
24792W        W97860  40.124  10.810  14.508
24793W        W97861  20.634  10.332  12.469
24794W        W97862  31.882  19.791  12.914
24795W        W97863  42.073  17.322  14.390
24796W        W97864  26.028  23.883  11.085
24797W        W97865  10.708   1.412   4.626
24798W        W97866  19.340   3.994  14.351
24799W        W97867  42.436  25.768  14.783
24800W        W97868   2.170  16.366   1.464
24801W        W97869  27.045  28.648  14.384
24802W        W97870   2.291  31.610  13.521
24803W        W97871   4.822  43.674   4.346
24804W        W97872  43.132   9.060   1.707
24805W        W97873   1.212  14.671  11.612
24806W        W97874  32.193  36.314  13.527
24807W        W97875  12.711  29.986   2.748
24808W        W97876  29.317   9.767  10.660
24809W        W97877  38.426  26.142   3.600
24810W        W97878   2.899  12.412   2.432
24811W        W97879   6.849  25.080  12.432
24812W        W97880   6.116  41.523   4.139
24813W        W97881  16.236  19.440   3.111
24814W        W97882  23.191  23.164   1.487
24815W        W97883   1.282   8.436  14.911
24816W        W97884  15.299  17.878   3.687
24817W        W97885  35.862  42.030  14.105
24818W        W97886  27.215  29.445  13.067
24819W        W97887   3.475  39.264   1.332
24820W        W97888  27.948  39.073   3.213
24821W        W97889  42.590  10.605  14.427
24822W        W97890  14.810   4.359   4.418
24823W        W97891  20.806   3.962  13.098
24824W        W97892  31.351  34.913  13.961
24825W        W97893  25.217  23.451   1.313
24826W        W97894  27.428  41.233   3.779
24827W        W97895  37.535  40.854  13.396
24828W        W97896  10.759  19.537  10.352
24829W        W97897  18.507  31.565  13.817
24830W        W97898  42.896  16.854   2.799
24831W        W97899  28.843  35.425  11.290
24832W        W97900  32.532  20.885  13.821
24833W        W97901  24.268  13.267  12.533
24834W        W97902   9.405  34.956   3.777
24835W        W97903   8.346  34.382  14.830
24836W        W97904  26.213  22.989   4.093
24837W        W97905  35.750  16.785   0.563
24838W        W97906  23.605  36.259  11.902
24839W        W97907   4.883  40.080  12.508
24840W        W97908  21.174  26.689  13.162
24841W        W97909  38.860  21.405   0.140
24842W        W97910  10.412  10.720   0.422
24843W        W97911   0.687  19.433   3.860
24844W        W97912  43.151  12.263   0.823
24845W        W97913  24.240  40.401  11.104
24846W        W97914  33.517   4.838  10.882
24847W        W97915  25.646  12.311   2.370
24848W        W97916  22.146   4.197   4.081
24849W        W97917  44.553  43.307   2.421
24850W        W97918  26.663  38.839  13.397
24851W        W97919  27.576   6.179  13.883
24852W        W97920  23.931  23.048  10.835
24853W        W97921   2.934  16.870  14.424
24854W        W97922  23.680  13.446   0.291
24855W        W97923  35.308  42.427   2.139
24856W        W97924  25.578   1.720  11.223
24857W        W97925  33.543  13.313  14.751
24858W        W97926  33.396  36.709  14.803
24859W        W97927  24.300  21.174  10.253
24860W        W97928  24.161  17.743  10.660
24861W        W97929  32.053  27.233   2.294
24862W        W97930  22.712  12.246  10.949
24863W        W97931  43.486  19.950  14.312
24864W        W97932  43.766  28.390  12.889
24865W        W97933  28.692  16.616   4.508
24866W        W97934  25.517  29.529  12.168
24867W        W97935   5.921  28.956  13.858
24868W        W97936  29.730   5.164  12.133
24869W        W97937  13.175   2.995  10.629
24870W        W97938  25.106  18.346  12.391
24871W        W97939  13.743   1.772   3.152
24872W        W97940  44.656   5.493   3.719
24873W        W97941  18.672  26.673  14.943
24874W        W97942  36.991  39.771   2.857
24875W        W97943  22.060   7.827  13.550
24876W        W97944  29.077  42.062   4.596
24877W        W97945   3.893  15.393   4.213
24878W        W97946  37.586   6.806   4.503
24879W        W97947  41.825  11.052  13.426
24880W        W97948  12.752   4.660  13.055
24881W        W97949   4.686   9.867  11.017
24882W        W97950  26.477   9.674   9.711
24883W        W97951   5.644   4.336   2.196
24884W        W97952  44.114  35.129   0.582
24885W        W97953  19.271  12.956  13.782
24886W        W97954   4.405  32.127  12.416
24887W        W97955  31.454  16.172  12.467
24888W        W97956  24.731  30.184  10.661
24889W        W97957  33.592   3.122   0.177
24890W        W97958  43.270  20.582   0.187
24891W        W97959  18.817  30.492   4.939
24892W        W97960  21.914   2.423  11.315
24893W        W97961  11.752  21.052   1.514
24894W        W97962  23.601   8.942   4.473
24895W        W97963  34.856  37.475   3.078
24896W        W97964  16.354   8.912   4.444
24897W        W97965  10.107  13.323  11.672
24898W        W97966  12.906  23.247   3.272
24899W        W97967  33.443  20.287  11.558
24900W        W97968   0.397  42.464   3.399
24901W        W97969  32.619   2.205   2.329
24902W        W97970   8.841  25.750   4.649
24903W        W97971  40.803  24.206  12.613
24904W        W97972   8.986  24.399   1.354
24905W        W97973  15.840  39.530   3.681
24906W        W97974  23.566  21.342   2.393
24907W        W97975  35.005  15.652  12.509
24908W        W97976   0.730   2.086  10.024
24909W        W97977   4.432   7.154  13.009
24910W        W97978  43.672  17.578   2.843
24911W        W97979  32.628   9.837   1.819
24912W        W97980  14.504   5.737   1.396
24913W        W97981   1.668   1.406   3.199
24914W        W97982  15.555   6.241   2.668
24915W        W97983  15.111  18.239  13.197
24916W        W97984  21.206  29.090   2.338
24917W        W97985  23.897  35.789  14.382
24918W        W97986  15.134   9.708  11.188
24919W        W97987   4.340  15.905   0.164
24920W        W97988  27.091  40.384   3.357
24921W        W97989  42.374  36.124  11.088
24922W        W97990  14.818  15.833   2.209
24923W        W97991   9.814  27.654   3.720
24924W        W97992   4.799   5.926  13.540
24925W        W97993   0.413  34.600   4.561
24926W        W97994  30.959  20.496   2.730
24927W        W97995  14.564  14.349  11.130
24928W        W97996  39.820   6.128   1.356
24929W        W97997   2.315  44.680  11.541
24930W        W97998  24.588  13.333  12.086
24931W        W97999  31.964  27.184  11.470
24932W        W98000   7.287  40.951   1.481
24933W        W98001  19.767   4.861  11.380
24934W        W98002  18.250  34.431   1.747
24935W        W98003  27.576  34.376  14.036
24936W        W98004  29.350  19.557   4.557
24937W        W98005  17.841  26.542  14.220
24938W        W98006  44.977   2.253   1.678
24939W        W98007  29.765  20.788  12.818
24940W        W98008   8.931   1.977   2.301
24941W        W98009   0.318  18.320  14.768
24942W        W98010  31.887  12.378  13.901
24943W        W98011  22.765   3.476  12.117
24944W        W98012  10.838  26.234   3.158
24945W        W98013  22.210   3.286  13.536
24946W        W98014   9.075  31.586  10.423
24947W        W98015  43.865  21.297  12.023
24948W        W98016  32.005  24.153   3.946
24949W        W98017  19.822   9.910  11.194
24950W        W98018   2.904  42.617   4.354
24951W        W98019  18.976  22.692  14.477
24952W        W98020  31.117   3.120  12.119
24953W        W98021  44.645   6.828   1.305
24954W        W98022  37.473  41.731  14.995
24955W        W98023  26.831  23.492   4.626
24956W        W98024  39.507  31.983   1.756
24957W        W98025  44.973  38.121  14.014
24958W        W98026  31.603  10.493   1.300
24959W        W98027  18.703  26.604  13.801
24960W        W98028  23.891   9.935   1.759
24961W        W98029  32.549  28.567  10.900
24962W        W98030   7.891  42.337  13.309
24963W        W98031  17.060  11.283   1.032
24964W        W98032  22.033   4.414  13.097
24965W        W98033   9.331  18.819  13.579
24966W        W98034  18.535  39.125   5.009
24967W        W98035  42.766   0.435  10.579
24968W        W98036  21.292  24.122   1.686
24969W        W98037  42.211  40.047  12.971
24970W        W98038   3.312   9.323   1.158
24971W        W98039  19.486  30.159  12.581
24972W        W98040  10.488  21.576  13.418
24973W        W98041  41.769  29.056   4.918
24974W        W98042  41.043  27.731  10.863
24975W        W98043  37.078   2.678  13.386
24976W        W98044  19.562  16.697  12.391
24977W        W98045  22.197  42.828  14.873
24978W        W98046   7.314  37.597  14.822
24979W        W98047   1.716   3.775   4.323
24980W        W98048  31.534  44.216   4.828
24981W        W98049   9.264  18.067  14.406
24982W        W98050  37.569  29.385   2.105
24983W        W98051  23.575  31.832  14.832
24984W        W98052  34.369   3.138   0.893
24985W        W98053  33.018  15.270  11.864
24986W        W98054  31.995  28.553  14.494
24987W        W98055  33.385   5.446   1.808
24988W        W98056   8.696   8.249   0.252
24989W        W98057  19.917   2.666   3.192
24990W        W98058  40.335  32.784   4.603
24991W        W98059  37.203  31.635   4.635
24992W        W98060  22.437  42.233   4.934
24993W        W98061  24.279  19.090   0.425
24994W        W98062   4.453   9.346  13.464
24995W        W98063  27.497   5.534  12.623
24996W        W98064   0.468   4.788   1.728
24997W        W98065  41.476  30.852  13.375
24998W        W98066  13.042  41.032   1.334
24999W        W98067   8.053  28.113   3.776
25000W        W98068  18.713  15.426  11.071
25001W        W98069   7.862  21.092  11.044
25002W        W98070  27.578   1.533   3.390
25003W        W98071  14.775  17.350   2.301
25004W        W98072   0.789  43.480  12.433
25005W        W98073   3.920   8.421   5.021
25006W        W98074  35.268  19.547   4.511
25007W        W98075   3.242   7.955   3.094
25008W        W98076  43.298  36.454   3.294
25009W        W98077   8.633  13.826  14.529
25010W        W98078  21.054   7.517  13.800
25011W        W98079  43.904  35.474   4.460
25012W        W98080  22.304  10.203   3.282
25013W        W98081  26.608   5.810   3.249
25014W        W98082  13.903  22.072  13.981
25015W        W98083  21.061  35.397   2.760
25016W        W98084   4.392  30.465  12.577
25017W        W98085  24.259  26.149  14.849
25018W        W98086  35.084  21.972  11.681
25019W        W98087  19.073  31.435   4.547
25020W        W98088  12.703  18.946   4.579
25021W        W98089  11.271  32.988  14.971
25022W        W98090  25.130   3.537  13.342
25023W        W98091  36.421  36.325  13.103
25024W        W98092  13.704  32.322  10.660
25025W        W98093  31.912  42.188  11.218
25026W        W98094  19.210  39.834  10.581
25027W        W98095  28.152  19.508  11.446
25028W        W98096  10.288   0.959  14.864
25029W        W98097  34.585   4.388   1.305
25030W        W98098  43.800  43.926   3.633
25031W        W98099  20.935   4.574   0.990
25032W        W98100  26.385  28.296   2.287
25033W        W98101  42.733  22.210   0.691
25034W        W98102  19.134  27.598  14.466
25035W        W98103  41.223   5.210  14.028
25036W        W98104  19.678  26.088   4.340
25037W        W98105  31.954   7.825   1.329
25038W        W98106  37.623  31.137   5.062
25039W        W98107   9.076   5.653  10.727
25040W        W98108   2.205  42.284  11.547
25041W        W98109   7.515  40.943  13.927
25042W        W98110  33.487   1.684   0.991
25043W        W98111  19.081  37.852  14.473
25044W        W98112  38.295   1.971  11.714
25045W        W98113  27.111   5.225  12.513
25046W        W98114  40.644  44.877  11.884
25047W        W98115  44.510  10.318  10.702
25048W        W98116   9.685  42.087   1.879
25049W        W98117  24.816  37.523  14.931
25050W        W98118   6.578  38.093   2.272
25051W        W98119  17.766  18.762   1.199
25052W        W98120  14.801  34.604  11.663
25053W        W98121  35.023  31.863  12.365
25054W        W98122  19.472  32.390   1.884
25055W        W98123  23.988   0.784   1.928
25056W        W98124  17.347  39.390  11.862
25057W        W98125  25.102  18.582  11.934
25058W        W98126  22.477  37.031  12.049
25059W        W98127  10.370  33.854   3.752
25060W        W98128   6.780  31.105   0.902
25061W        W98129  15.272  43.124   2.277
25062W        W98130  19.061  15.789  10.778
25063W        W98131  38.233  14.507  13.427
25064W        W98132  10.711  38.973  14.096
25065W        W98133   9.042  42.042   0.827
25066W        W98134   3.189  25.132  10.579
25067W        W98135  32.442  22.678  12.886
25068W        W98136  23.107  22.739   3.302
25069W        W98137  27.133  33.732   0.801
25070W        W98138   2.367  37.941  11.532
25071W        W98139   6.214   2.928   0.812
25072W        W98140  11.579  27.652  12.227
25073W        W98141  18.239  43.351   0.261
25074W        W98142  22.303   2.979   0.145
25075W        W98143  34.374  28.659  13.453
25076W        W98144  26.957  13.343  10.523
25077W        W98145  30.036   0.279  14.501
25078W        W98146  29.879  16.616  11.634
25079W        W98147   4.814  21.238   4.138
25080W        W98148  41.345  41.592   0.995
25081W        W98149  22.466   4.850  11.599
25082W        W98150  26.208   7.822   2.220
25083W        W98151  40.957   6.003   5.873
25084W        W98152  14.025  16.019  11.102
25085W        W98153  24.578  22.640  14.951
25086W        W98154  24.046   3.507   1.510
25087W        W98155  28.413   8.105  12.866
25088W        W98156   5.392  10.590  10.689
25089W        W98157  16.800  28.532  11.545
25090W        W98158  34.436  27.891   0.358
25091W        W98159  15.175   2.497  10.684
25092W        W98160  18.748  41.317  10.730
25093W        W98161  23.243  16.977  10.260
25094W        W98162  32.702  17.332  12.044
25095W        W98163  24.530   2.943   4.145
25096W        W98164  20.671  31.642   0.819
25097W        W98165   9.360  19.367  12.092
25098W        W98166  29.834  21.898   2.537
25099W        W98167   5.947  44.992  11.079
25100W        W98168  22.764   4.846   2.599
25101W        W98169  35.300  20.826   0.714
25102W        W98170   0.154  21.523  14.510
25103W        W98171  31.182   9.774  14.883
25104W        W98172   3.316  20.439  13.887
25105W        W98173  40.416  22.071   1.310
25106W        W98174  31.983  41.021   1.437
25107W        W98175   4.311  44.853   3.371
25108W        W98176  41.501   1.011  13.313
25109W        W98177   6.234  20.022   3.187
25110W        W98178  32.419  42.985   2.408
25111W        W98179  44.381  21.815  13.186
25112W        W98180  16.749  30.380  13.852
25113W        W98181   8.624  13.634   3.613
25114W        W98182  31.615  15.595   0.734
25115W        W98183  11.597  35.510   4.722
25116W        W98184   3.934  37.788   2.748
25117W        W98185   2.013   8.865   0.447
25118W        W98186   4.387   8.391  14.207
25119W        W98187  33.950  27.187   0.708
25120W        W98188   5.656  35.613  11.583
25121W        W98189  28.835   2.625  12.653
25122W        W98190   8.000   3.496   5.075
25123W        W98191  31.513  18.734  13.890
25124W        W98192  25.161  37.409  12.079
25125W        W98193  44.870  41.949  11.117
25126W        W98194  11.786  41.516  11.615
25127W        W98195  38.889   3.014   3.714
25128W        W98196  10.621   7.526  12.055
25129W        W98197  17.863   6.268   0.847
25130W        W98198  43.481   7.760   3.025
25131W        W98199  42.728  26.618   0.367
25132W        W98200   7.195  32.744   0.330
25133W        W98201  15.060  24.007   4.486
25134W        W98202  42.735  23.001  12.495
25135W        W98203  18.266  21.129   0.507
25136W        W98204  23.606   6.093   2.714
25137W        W98205  32.228  18.573  12.816
25138W        W98206  35.187  13.276  14.175
25139W        W98207  23.138  16.160   4.902
25140W        W98208  40.852  15.058   1.207
25141W        W98209  31.889  32.605  14.522
25142W        W98210  34.447   0.385   3.876
25143W        W98211  42.581  14.744  14.580
25144W        W98212   4.753  36.873  13.316
25145W        W98213  16.719  31.193   1.461
25146W        W98214  19.221  37.578   0.911
25147W        W98215  27.147  42.586   2.701
25148W        W98216  25.129  33.525  10.800
25149W        W98217   3.289  26.996  12.551
25150W        W98218  41.382  11.189  14.544
25151W        W98219  35.779  13.130  14.992
25152W        W98220  10.634  21.650   1.647
25153W        W98221  27.907   2.293   2.219
25154W        W98222  29.289  37.065  10.560
25155W        W98223  15.742  13.804  12.605
25156W        W98224  33.126  30.240  10.446
25157W        W98225  32.623  27.193   0.452
25158W        W98226  43.771   1.011   0.834
25159W        W98227   6.238  34.191   2.268
25160W        W98228   8.833  39.546   5.013
25161W        W98229   4.062  26.683   3.217
25162W        W98230   4.405  18.557  14.003
25163W        W98231  30.776   6.207  12.471
25164W        W98232   7.520   1.690   1.199
25165W        W98233   6.265  12.824   0.184
25166W        W98234  21.915  26.555   4.997
25167W        W98235  19.835  19.746   2.475
25168W        W98236  35.447  17.620  11.418
25169W        W98237  41.781  26.195   3.816
25170W        W98238  37.498  41.025  14.385
25171W        W98239  21.116  30.405   1.099
25172W        W98240  31.625  21.120  14.308
25173W        W98241  24.805  34.482  12.994
25174W        W98242  39.440  34.959   3.172
25175W        W98243  11.053  13.870   1.965
25176W        W98244  30.313  28.633  10.958
25177W        W98245  15.693  27.667   1.860
25178W        W98246  13.154  30.609   5.225
25179W        W98247  35.438   7.077   0.453
25180W        W98248  15.564  39.579   2.609
25181W        W98249   8.857  32.400  13.569
25182W        W98250   0.459  42.974  13.364
25183W        W98251  37.115  32.027  14.779
25184W        W98252  23.186  15.725   1.735
25185W        W98253  36.382  10.886   0.530
25186W        W98254   1.918  25.236   2.535
25187W        W98255  17.725  21.868   2.869
25188W        W98256  11.199   8.424  12.129
25189W        W98257   6.225  11.199  14.411
25190W        W98258  16.118  29.906   1.262
25191W        W98259   9.771  13.156   1.234
25192W        W98260  37.859  27.908  13.512
25193W        W98261  15.523   1.071   4.186
25194W        W98262  37.577  34.512  10.719
25195W        W98263  10.219  19.501   2.788
25196W        W98264  30.668  33.949  11.989
25197W        W98265  35.543  23.557  13.471
25198W        W98266  30.583  37.561  12.801
25199W        W98267   0.373  10.447  12.097
25200W        W98268  33.131  29.095  10.511
25201W        W98269  17.560  25.432   4.785
25202W        W98270  41.503  17.265   0.408
25203W        W98271  33.513  38.496   3.663
25204W        W98272  23.052  35.453  14.126
25205W        W98273  36.683  21.183   1.687
25206W        W98274   2.555  28.504   3.014
25207W        W98275  44.897   3.981   1.873
25208W        W98276  12.657  42.920  14.444
25209W        W98277  14.863  16.227  13.357
25210W        W98278  43.771  20.506   0.016
25211W        W98279  34.758  29.696  14.933
25212W        W98280  10.233  10.780   1.891
25213W        W98281  33.188   6.429  12.979
25214W        W98282  23.835  26.578  12.843
25215W        W98283  34.720  27.863   0.897
25216W        W98284   1.214  11.849   2.922
25217W        W98285  41.104  22.133  14.466
25218W        W98286   8.887  28.704  11.977
25219W        W98287  31.110   5.961  10.459
25220W        W98288  19.724  13.116   4.518
25221W        W98289  17.314  27.648   4.601
25222W        W98290   5.747  35.326  11.177
25223W        W98291   1.866  18.769   0.423
25224W        W98292  27.378  27.051  12.155
25225W        W98293  43.318   3.483   4.233
25226W        W98294  23.626  19.988  10.237
25227W        W98295  22.211  25.989  10.997
25228W        W98296   7.322   2.652   1.274
25229W        W98297   1.744  26.882  11.188
25230W        W98298  25.172  41.070   0.765
25231W        W98299  37.039  17.486   2.826
25232W        W98300  38.909   5.256  14.328
25233W        W98301  25.743  42.969   4.170
25234W        W98302  14.540  19.576   2.658
25235W        W98303  12.323  35.443  12.571
25236W        W98304  37.484  15.057   3.585
25237W        W98305  21.527  40.230   4.121
25238W        W98306   1.713  38.505   3.750
25239W        W98307  34.770   2.397  11.215
25240W        W98308  41.311  29.071  13.456
25241W        W98309  25.884  24.223   0.195
25242W        W98310  16.076  44.441   4.517
25243W        W98311  35.408   1.839  13.232
25244W        W98312  30.909  29.776  11.524
25245W        W98313   3.815  18.247   2.788
25246W        W98314   2.589  11.169  14.110
25247W        W98315  23.618  26.070   3.596
25248W        W98316   0.034  10.511  12.987
25249W        W98317   6.242  42.881  10.576
25250W        W98318  25.159  33.637  12.280
25251W        W98319   5.822  28.555   4.917
25252W        W98320  43.813  12.829   2.690
25253W        W98321   8.093  41.101   3.614
25254W        W98322  41.933  35.593   0.388
25255W        W98323   0.806  44.558  14.538
25256W        W98324  38.577  26.461  14.811
25257W        W98325  42.780  34.489  11.113
25258W        W98326  29.748   5.347   2.731
25259W        W98327   7.673   4.473   4.090
25260W        W98328  38.031  26.459   3.411
25261W        W98329  26.286  13.309  13.981
25262W        W98330  34.601  33.049   1.386
25263W        W98331  19.732  40.527  13.576
25264W        W98332  43.699  21.195  12.514
25265W        W98333   9.832   1.944  10.681
25266W        W98334   4.815  28.109   3.196
25267W        W98335   3.305  29.213  13.097
25268W        W98336  12.760   0.296  14.317
25269W        W98337   0.768  31.000   4.275
25270W        W98338  43.052  10.227   2.209
25271W        W98339  37.535   5.202  11.542
25272W        W98340   9.700   2.020  14.352
25273W        W98341  26.031   5.809   0.876
25274W        W98342   8.616  20.226  13.652
25275W        W98343  14.278   4.309  11.224
25276W        W98344  12.843  28.163  13.557
25277W        W98345  16.228  17.102  14.033
25278W        W98346  32.728  24.791  11.199
25279W        W98347  16.543  33.793  14.503
25280W        W98348  23.077   3.942   2.230
25281W        W98349  35.829  27.141   1.774
25282W        W98350   6.276   0.001   4.646
25283W        W98351  13.664  29.909   4.694
25284W        W98352  43.395  27.919  12.482
25285W        W98353  21.908  23.136  12.865
25286W        W98354  20.012  10.334   2.342
25287W        W98355  29.870  28.066   2.880
25288W        W98356  26.894   1.860  11.322
25289W        W98357  34.018  20.899   4.035
25290W        W98358  29.934  10.881   1.632
25291W        W98359   6.436  42.739   4.802
25292W        W98360  20.938  38.269   1.366
25293W        W98361  22.856   2.781  14.327
25294W        W98362  39.123  10.811   1.771
25295W        W98363  44.285  26.598  12.363
25296W        W98364  23.880  23.919  14.567
25297W        W98365   7.173  43.880  11.656
25298W        W98366  12.726  28.483  11.626
25299W        W98367  22.594   1.195   4.802
25300W        W98368  40.403  36.515  14.982
25301W        W98369  17.715  20.720   4.106
25302W        W98370  15.682  31.389   3.717
25303W        W98371  33.620  14.480   0.941
25304W        W98372  27.186  19.277  10.629
25305W        W98373  44.504  41.008   3.259
25306W        W98374   1.750  16.802  10.921
25307W        W98375  37.056  38.454  10.580
25308W        W98376  28.108  12.266  14.346
25309W        W98377  34.642  25.295  11.262
25310W        W98378  28.519   6.652  10.775
25311W        W98379   2.767   4.029  12.981
25312W        W98380  10.809  15.045   3.574
25313W        W98381   9.846  39.599  14.618
25314W        W98382  32.993  21.937   0.828
25315W        W98383   4.282  32.159  10.381
25316W        W98384   5.020  14.778  11.070
25317W        W98385  36.736  42.422  13.856
25318W        W98386  12.312   7.234  11.933
25319W        W98387  12.137  25.971  13.359
25320W        W98388  13.418  13.083   1.847
25321W        W98389  17.191   2.717   2.132
25322W        W98390   1.604   4.658  14.830
25323W        W98391  27.133   0.206  12.651
25324W        W98392   3.558  17.916   1.871
25325W        W98393   8.919  43.839   1.299
25326W        W98394  32.520  29.960  10.537
25327W        W98395  17.496   6.946   0.242
25328W        W98396  24.523   4.967   0.325
25329W        W98397   2.734  37.187   1.360
25330W        W98398  16.042  13.808  13.063
25331W        W98399   7.244  23.092  12.605
25332W        W98400   7.058  24.619  11.400
25333W        W98401  24.426   7.770  14.013
25334W        W98402  24.860  10.543  12.926
25335W        W98403   7.574  44.332   3.046
25336W        W98404  33.113  16.158   1.974
25337W        W98405  24.464  29.497   1.254
25338W        W98406   3.762  26.967   1.876
25339W        W98407  31.958   5.374  14.366
25340W        W98408  14.150  42.883   0.657
25341W        W98409   2.293  27.533  13.937
25342W        W98410  10.331  33.894   4.594
25343W        W98411   5.426   8.942  13.388
25344W        W98412  44.204  24.529  10.618
25345W        W98413  44.598   8.767   5.003
25346W        W98414   9.366  44.682  11.634
25347W        W98415   3.390  33.894  10.660
25348W        W98416  35.918  22.494  11.111
25349W        W98417  28.998  20.992  11.168
25350W        W98418  40.117  34.424  11.823
25351W        W98419   5.302  17.753   3.760
25352W        W98420  41.799  38.892  14.888
25353W        W98421  18.299   5.697  13.867
25354W        W98422   8.757  35.541   4.077
25355W        W98423  20.726  19.191   3.240
25356W        W98424  37.355  17.533   0.739
25357W        W98425  28.561  41.843  14.527
25358W        W98426  23.771  32.399   2.268
25359W        W98427  27.663  27.239   1.524
25360W        W98428  43.773  13.103   3.184
25361W        W98429  20.490  41.050  14.327
25362W        W98430  22.258  12.022  11.135
25363W        W98431  34.765  39.614  11.196
25364W        W98432  35.792  28.404   2.506
25365W        W98433  19.557  29.078   1.698
25366W        W98434   4.184  27.880   4.717
25367W        W98435   9.892   6.158   3.682
25368W        W98436   7.292   9.476  11.873
25369W        W98437  13.228  15.843  12.393
25370W        W98438   7.715  24.201  13.957
25371W        W98439  30.486   2.710   0.933
25372W        W98440  38.240  34.060   3.531
25373W        W98441  14.612  23.073  14.297
25374W        W98442   5.457  24.384  11.439
25375W        W98443   3.926   6.771   2.757
25376W        W98444  32.503   8.659   2.424
25377W        W98445  11.619  27.903   4.611
25378W        W98446  18.832  32.297   2.428
25379W        W98447  28.437  23.421   3.746
25380W        W98448  13.674   0.726  11.072
25381W        W98449  43.564  13.993   2.609
25382W        W98450   3.717  10.582  12.059
25383W        W98451  44.241  15.132  11.591
25384W        W98452  42.804  15.475   0.662
25385W        W98453  16.250  25.548   4.309
25386W        W98454  28.949   1.792   0.331
25387W        W98455  16.418  24.425  11.166
25388W        W98456   7.690  42.753  12.938
25389W        W98457  25.158  13.117  13.434
25390W        W98458   7.079  19.569  14.905
25391W        W98459  25.511  28.241   1.199
25392W        W98460  24.243   1.387  14.071
25393W        W98461  40.884  38.639  13.394
25394W        W98462  16.094   1.670  14.279
25395W        W98463  44.255  11.410  12.453
25396W        W98464  37.823  34.480   1.079
25397W        W98465  25.177  30.486  12.195
25398W        W98466  38.496  10.938   2.834
25399W        W98467  43.814  25.435   2.074
25400W        W98468  13.154   1.973  11.164
25401W        W98469  12.283  42.811   2.295
25402W        W98470   7.671  10.349  10.745
25403W        W98471   8.265  14.201  13.753
25404W        W98472  23.710  33.161  13.434
25405W        W98473  15.659  10.665  11.644
25406W        W98474  41.155   4.630  12.041
25407W        W98475  15.116  12.763  12.914
25408W        W98476   3.576  13.209  11.663
25409W        W98477  39.557   9.318  11.587
25410W        W98478  39.313  16.104  11.152
25411W        W98479  36.414  20.272   1.491
25412W        W98480  36.297  36.342  14.958
25413W        W98481  13.245   7.743   0.131
25414W        W98482   1.804  25.176   4.781
25415W        W98483  41.274   2.902   2.466
25416W        W98484  41.502  17.487   3.297
25417W        W98485   0.977  40.047   4.148
25418W        W98486  23.999  40.398   1.783
25419W        W98487  33.244  12.298   3.568
25420W        W98488  16.298  31.393  10.691
25421W        W98489  22.664  13.075  11.604
25422W        W98490  39.839  41.514  13.840
25423W        W98491  43.745  19.335   3.203
25424W        W98492  11.615  33.330  14.103
25425W        W98493  43.487  19.478   2.749
25426W        W98494  15.144   3.249   3.771
25427W        W98495  21.666  35.207   3.182
25428W        W98496  35.846  15.654   2.937
25429W        W98497  36.961   5.371  10.477
25430W        W98498  22.831  32.839   0.920
25431W        W98499   8.849  18.063   4.133
25432W        W98500   2.266  32.877   3.687
25433W        W98501  31.656  41.816  13.775
25434W        W98502  11.508  34.953   4.782
25435W        W98503  15.587  26.921   0.694
25436W        W98504   8.176  44.286  14.927
25437W        W98505  16.804  32.061   3.409
25438W        W98506  30.212  38.348  13.316
25439W        W98507   8.053  15.815   2.372
25440W        W98508  17.592  33.004   3.623
25441W        W98509  36.590  21.543  14.815
25442W        W98510  34.802  26.628   2.825
25443W        W98511  10.064  29.027  10.586
25444W        W98512  43.481   5.187   1.511
25445W        W98513  27.424  17.799   2.694
25446W        W98514  31.031  20.455  11.644
25447W        W98515  44.475  32.362  10.583
25448W        W98516  20.691  26.898  14.989
25449W        W98517   3.474  25.277  11.484
25450W        W98518  30.666  10.432   1.829
25451W        W98519  16.712  11.548   3.231
25452W        W98520   8.854  20.576   4.892
25453W        W98521  38.605  13.132   5.183
25454W        W98522   8.969   7.837   1.483
25455W        W98523  11.293   2.228   3.616
25456W        W98524  18.438  37.010   1.843
25457W        W98525  27.873  42.969   0.268
25458W        W98526  29.633  31.514   2.810
25459W        W98527   9.321  13.602  14.337
25460W        W98528  16.681  29.522   4.055
25461W        W98529  34.529  11.553  12.747
25462W        W98530  33.880  39.425  11.181
25463W        W98531  29.056  23.442   2.394
25464W        W98532  36.726  24.031   2.302
25465W        W98533  13.252   6.373   1.518
25466W        W98534  22.600  22.969   1.376
25467W        W98535  42.617   0.267   1.050
25468W        W98536  31.922  37.022  13.867
25469W        W98537  40.892  37.626  13.158
25470W        W98538  16.970  18.103   4.235
25471W        W98539  16.245  11.100   4.858
25472W        W98540  25.163  28.599   2.838
25473W        W98541   7.240   7.473  14.141
25474W        W98542  30.915  11.865  11.554
25475W        W98543  43.364  19.191  14.909
25476W        W98544  43.268  27.399  12.437
25477W        W98545   7.232  12.283  13.820
25478W        W98546  40.360  19.101  12.237
25479W        W98547   3.253  41.870   0.514
25480W        W98548  23.463   1.344  10.720
25481W        W98549  44.255  26.295   2.319
25482W        W98550  35.543  35.343   1.606
25483W        W98551  41.023  13.674  11.654
25484W        W98552  24.146  39.851  11.948
25485W        W98553  37.486   0.885   4.819
25486W        W98554  15.794  32.057   3.165
25487W        W98555   8.904  28.068  14.840
25488W        W98556  42.371  21.782  13.526
25489W        W98557   7.431  30.080   0.205
25490W        W98558  12.614  23.143  10.623
25491W        W98559  29.125  27.592   2.505
25492W        W98560  38.301   7.178   3.967
25493W        W98561  10.450  42.035  12.596
25494W        W98562   6.333   0.003   0.695
25495W        W98563  15.627  30.395   1.895
25496W        W98564  24.166  44.066   2.282
25497W        W98565  13.362  26.991  11.155
25498W        W98566   2.723  18.779   2.321
25499W        W98567  36.889  31.301  14.240
25500W        W98568  17.074  27.551  10.711
25501W        W98569   2.797  11.281   2.947
25502W        W98570  25.799  12.770   2.199
25503W        W98571   5.680   7.901   3.386
25504W        W98572   3.788  10.780   3.594
25505W        W98573   9.185   6.438   2.639
25506W        W98574   0.373  24.466   1.756
25507W        W98575  23.645   1.145  12.531
25508W        W98576  23.134   2.962  13.813
25509W        W98577  34.856  10.792  13.296
25510W        W98578  43.871   9.293   0.248
25511W        W98579  41.036  24.599  13.489
25512W        W98580  17.670   7.136  14.764
25513W        W98581   0.126  17.857   0.713
25514W        W98582  31.084  25.248   5.183
25515W        W98583  37.862  29.396  12.010
25516W        W98584   3.391  12.379   3.345
25517W        W98585  38.587   6.663  10.151
25518W        W98586  40.027   2.805  12.015
25519W        W98587  24.415  10.618  11.811
25520W        W98588  25.499  34.157   2.479
25521W        W98589   1.220   5.928   2.186
25522W        W98590   3.842  15.246  11.655
25523W        W98591  39.399  43.516  13.908
25524W        W98592  18.099  25.114  10.736
25525W        W98593  41.656  30.316   4.163
25526W        W98594   4.647  14.106   2.192
25527W        W98595  22.327  22.960   2.648
25528W        W98596  28.861  43.082   1.393
25529W        W98597  18.682  25.937  14.541
25530W        W98598  41.013  32.123  11.382
25531W        W98599   3.910  36.931   4.658
25532W        W98600  19.774  40.247   3.731
25533W        W98601  12.349  41.207  11.520
25534W        W98602  17.745  26.951  13.874
25535W        W98603  22.217  17.100  11.580
25536W        W98604  20.308  24.421   0.060
25537W        W98605  30.639  21.757  14.795
25538W        W98606   8.322  33.865   2.443
25539W        W98607  12.806  14.475   0.844
25540W        W98608   8.786  35.667  13.426
25541W        W98609   9.871  16.630  13.384
25542W        W98610  35.834  22.218  10.661
25543W        W98611  21.721  43.349   5.069
25544W        W98612  38.389   7.749  13.506
25545W        W98613  13.168  36.894   4.309
25546W        W98614  38.100  11.429   4.170
25547W        W98615  25.450  35.991   2.390
25548W        W98616  25.777  23.598   2.164
25549W        W98617  13.209  39.817   2.136
25550W        W98618  37.123  30.191  13.071
25551W        W98619  11.577  11.829  11.491
25552W        W98620  42.037  23.776  14.416
25553W        W98621  22.328  11.382   2.298
25554W        W98622  15.302  38.530   3.669
25555W        W98623  11.104   3.511  14.045
25556W        W98624   9.253   7.202  10.615
25557W        W98625  32.280  25.290   5.098
25558W        W98626   7.079  27.853   3.675
25559W        W98627   2.973  18.693   3.620
25560W        W98628  14.625  13.129   1.650
25561W        W98629  31.515  24.489   2.349
25562W        W98630  26.103  27.218  12.015
25563W        W98631   5.810  36.622  10.667
25564W        W98632  16.655  35.322   3.215
25565W        W98633   1.995  10.303   1.717
25566W        W98634  18.952  23.171   2.252
25567W        W98635  25.765   8.846  12.976
25568W        W98636  15.537  38.235  12.486
25569W        W98637   2.404  42.359   0.355
25570W        W98638   5.773  38.749  12.977
25571W        W98639   5.880   1.809   3.226
25572W        W98640  10.321  18.723  14.757
25573W        W98641  41.966   6.190   0.459
25574W        W98642   1.565  27.096   2.625
25575W        W98643  28.528  43.044  12.982
25576W        W98644  22.477  44.015   3.228
25577W        W98645  28.005  29.624   0.632
25578W        W98646  32.244  41.227   3.855
25579W        W98647   6.086   8.660   1.414
25580W        W98648  34.658  16.797  13.739
25581W        W98649   5.384  17.254  11.884
25582W        W98650  21.808  16.602   3.789
25583W        W98651  21.461   0.341   0.372
25584W        W98652  43.795  40.258  12.016
25585W        W98653   9.212  38.108   1.429
25586W        W98654   9.726   7.011   2.676
25587W        W98655  11.013  18.825  13.764
25588W        W98656   8.830  42.046   4.636
25589W        W98657   5.923  18.233   1.925
25590W        W98658  40.865  33.198   3.456
25591W        W98659  25.380  26.707  14.422
25592W        W98660  18.131  10.840   2.348
25593W        W98661  44.931  31.605  13.345
25594W        W98662  33.565   0.863  13.041
25595W        W98663  18.699  17.063   0.385
25596W        W98664  23.092  17.306  10.656
25597W        W98665  43.412  26.836   5.084
25598W        W98666  41.959  33.985  14.415
25599W        W98667   3.267  20.713   2.687
25600W        W98668  19.789  14.739  11.072
25601W        W98669  12.892  36.829  14.273
25602W        W98670  24.986  18.178   2.378
25603W        W98671  11.757  33.300   3.800
25604W        W98672   5.787  22.187  14.050
25605W        W98673  22.575  11.613  11.099
25606W        W98674  29.211  27.154  14.039
25607W        W98675  20.615  33.078  14.879
25608W        W98676  39.528  24.977   3.765
25609W        W98677   9.205  25.529  10.528
25610W        W98678  19.087  35.373   4.186
25611W        W98679  28.111  18.601   1.887
25612W        W98680  41.950   1.009  13.603
25613W        W98681   1.813  41.836  14.968
25614W        W98682  31.841  20.553   0.947
25615W        W98683   3.823  43.961   4.173
25616W        W98684  37.285  39.021   1.722
25617W        W98685  34.486  21.004   1.021
25618W        W98686  35.816   1.252   4.370
25619W        W98687  26.965   2.852  12.858
25620W        W98688   0.411  15.657  10.508
25621W        W98689  41.538  33.451   2.080
25622W        W98690  25.718   5.391   0.909
25623W        W98691  16.069  40.468  10.717
25624W        W98692   9.272  13.855  11.421
25625W        W98693  18.443  43.929   0.997
25626W        W98694  44.980  28.954   1.792
25627W        W98695  36.447  30.949  12.003
25628W        W98696  27.260   6.635   3.035
25629W        W98697  36.564  18.053   2.173
25630W        W98698  16.113  26.307   0.351
25631W        W98699  42.426   3.437   3.701
25632W        W98700  17.158  28.613  12.096
25633W        W98701  40.996   1.462   2.803
25634W        W98702  22.921  24.831  13.051
25635W        W98703  10.225  38.577  10.164
25636W        W98704   5.737  13.659   4.188
25637W        W98705  40.596  34.459  13.170
25638W        W98706  10.135  27.552  14.751
25639W        W98707  36.117  18.015  12.907
25640W        W98708  31.071  25.925  11.866
25641W        W98709   1.288   5.934  12.518
25642W        W98710  10.162  20.601   3.671
25643W        W98711  13.696  12.558  13.395
25644W        W98712  37.886   0.344  12.254
25645W        W98713  16.694  31.608  12.478
25646W        W98714  25.446  38.429  12.938
25647W        W98715  41.239  33.494  12.529
25648W        W98716   2.766  10.880   1.223
25649W        W98717   4.873  12.558   0.486
25650W        W98718  34.213  30.453   2.356
25651W        W98719  10.208  21.988  13.345
25652W        W98720   1.906  28.041   1.314
25653W        W98721   3.564  31.174  11.092
25654W        W98722  24.421  20.532  13.591
25655W        W98723   0.309   1.496   1.467
25656W        W98724  14.519  22.524   1.362
25657W        W98725  16.068  36.878   2.091
25658W        W98726  42.291  33.891   4.963
25659W        W98727  29.696  13.832   4.772
25660W        W98728  15.229  17.141   3.144
25661W        W98729   5.226  13.973   0.369
25662W        W98730  27.531   8.621   0.477
25663W        W98731  11.982  44.695   4.598
25664W        W98732  29.019   6.875  11.639
25665W        W98733   4.883   1.365  14.340
25666W        W98734  15.712  18.810  12.977
25667W        W98735   5.312  27.945  13.880
25668W        W98736  41.730   6.203   0.937
25669W        W98737   4.936  40.112   3.247
25670W        W98738  37.616  15.639   0.957
25671W        W98739  23.211  43.434   4.152
25672W        W98740  41.269  26.390   9.789
25673W        W98741  20.325  12.550   4.159
25674W        W98742  22.898  10.646  11.945
25675W        W98743  18.839  16.138   4.614
25676W        W98744  25.679  39.488   0.692
25677W        W98745  44.229  28.685  14.339
25678W        W98746  35.366  35.779  13.905
25679W        W98747  14.735  25.141   1.890
25680W        W98748  26.711  10.201   0.765
25681W        W98749  11.212  42.286  14.784
25682W        W98750   9.002  44.941   2.664
25683W        W98751   1.351  29.577   2.753
25684W        W98752  42.534  18.786   0.344
25685W        W98753  34.400  37.934   0.837
25686W        W98754  26.426   7.264   1.514
25687W        W98755  19.258  38.369   0.349
25688W        W98756   8.293  39.570   1.945
25689W        W98757   2.263  32.549   1.878
25690W        W98758  20.158  21.962  10.192
25691W        W98759   8.758  41.040   1.800
25692W        W98760  13.886  17.166   0.348
25693W        W98761   4.825   7.187  10.915
25694W        W98762  13.254   7.828   1.786
25695W        W98763  24.748  15.423   2.638
25696W        W98764   6.063   8.203  10.208
25697W        W98765  11.558  22.872  10.366
25698W        W98766  25.951  42.471  12.463
25699W        W98767   5.425  36.349  12.449
25700W        W98768  13.262  35.544   1.434
25701W        W98769  23.691  13.262   4.807
25702W        W98770  35.961  38.618  11.599
25703W        W98771  22.093  38.582  10.667
25704W        W98772   2.674  16.967  13.761
25705W        W98773  29.523  25.257   4.944
25706W        W98774  10.688  13.636   2.759
25707W        W98775  22.970  19.323   1.291
25708W        W98776  25.356  29.658   0.861
25709W        W98777  17.663   0.084  10.675
25710W        W98778  31.935   4.845   1.384
25711W        W98779   4.215   5.920   3.256
25712W        W98780  13.054   4.730   4.942
25713W        W98781  19.114  26.389  14.845
25714W        W98782  40.593   8.475   4.167
25715W        W98783  26.737  37.778   1.727
25716W        W98784  38.958  21.200   3.781
25717W        W98785  24.484  34.120  12.063
25718W        W98786   8.945  18.446   1.943
25719W        W98787   0.303  23.446  14.108
25720W        W98788  15.565  15.881  13.745
25721W        W98789   3.416  41.289  10.005
25722W        W98790  36.144   1.569   3.306
25723W        W98791  23.004   3.770   1.358
25724W        W98792  23.246  20.286   1.555
25725W        W98793  36.063  10.451  10.177
25726W        W98794  32.092   7.084  14.895
25727W        W98795  30.945   7.672  10.652
25728W        W98796  36.356  43.207   1.123
25729W        W98797  20.057  28.434  12.349
25730W        W98798  36.173  30.573   1.488
25731W        W98799  38.436  16.842  13.617
25732W        W98800  42.054  33.540   1.162
25733W        W98801  14.106   0.519   0.812
25734W        W98802  23.144   8.347  12.870
25735W        W98803  15.611  25.354   3.445
25736W        W98804  25.163  20.166  12.110
25737W        W98805  11.110   2.511  13.784
25738W        W98806  15.460  23.716   3.746
25739W        W98807  15.779  42.906   2.275
25740W        W98808  16.899  32.721   0.370
25741W        W98809  17.535   6.071   4.191
25742W        W98810  18.862  30.151  13.914
25743W        W98811  42.244   5.363   4.613
25744W        W98812  17.208  34.173   3.641
25745W        W98813  26.573  42.780  13.621
25746W        W98814  29.535  11.335  12.996
25747W        W98815   7.372  20.703   2.418
25748W        W98816  31.035  21.948   4.224
25749W        W98817  20.609  26.143   3.303
25750W        W98818   9.230  22.230  12.142
25751W        W98819  30.194   1.768   0.314
25752W        W98820  18.607  42.030  14.486
25753W        W98821  23.129  33.387  10.471
25754W        W98822  22.161   2.293   0.821
25755W        W98823   6.101  28.704   1.941
25756W        W98824  33.522  37.832  12.196
25757W        W98825  23.719  40.363  13.851
25758W        W98826   6.928  14.492  13.947
25759W        W98827  44.991  19.582   3.700
25760W        W98828   3.725   1.181  13.388
25761W        W98829  12.814  23.179   2.309
25762W        W98830  43.242  20.024   3.703
25763W        W98831  11.113  16.291  12.229
25764W        W98832  17.521  27.468   0.402
25765W        W98833  12.836  42.141   2.305
25766W        W98834  22.571  10.091  11.106
25767W        W98835  19.275  30.468   2.479
25768W        W98836  40.431   7.900   5.484
25769W        W98837  41.350  29.174   1.161
25770W        W98838   5.179   2.928   2.764
25771W        W98839  32.439  33.272   3.653
25772W        W98840  15.643  10.111  12.657
25773W        W98841   7.505  44.764  12.691
25774W        W98842  28.619  12.731  14.995
25775W        W98843  16.108  31.660   1.883
25776W        W98844  28.421   2.282   0.250
25777W        W98845  44.961  21.172   4.506
25778W        W98846  43.246  24.197  11.070
25779W        W98847  13.697  32.594   1.703
25780W        W98848  32.562  29.023  10.614
25781W        W98849  12.847  22.732   0.417
25782W        W98850  10.636  32.696  12.107
25783W        W98851   7.823  20.785   4.386
25784W        W98852  23.204  35.558   4.242
25785W        W98853   7.654  15.626  14.044
25786W        W98854  17.591  20.434   2.668
25787W        W98855  11.195  15.062   4.860
25788W        W98856  11.245   4.979  13.888
25789W        W98857   1.918  34.271  12.403
25790W        W98858  33.875  39.992  12.860
25791W        W98859  13.671  32.525  12.026
25792W        W98860  44.229  42.672  14.818
25793W        W98861  17.636   5.122   4.244
25794W        W98862  25.629   6.303   1.385
25795W        W98863  28.693   1.651   4.631
25796W        W98864  42.978  10.516  14.817
25797W        W98865  26.048  10.054   4.715
25798W        W98866   2.210  41.036  12.849
25799W        W98867  28.398  41.601  11.603
25800W        W98868  42.747  32.522  12.644
25801W        W98869  42.272  38.625   0.730
25802W        W98870  19.125   2.206   2.290
25803W        W98871   6.944  14.131   1.901
25804W        W98872  42.237  18.747  13.746
25805W        W98873  43.007  36.613   4.496
25806W        W98874   7.727  23.383  10.683
25807W        W98875  40.329  28.590   1.371
25808W        W98876   5.438  32.264  12.980
25809W        W98877  23.106   0.949   1.416
25810W        W98878   5.266  13.884  14.368
25811W        W98879  18.127  40.386  11.107
25812W        W98880  29.573  16.702   3.732
25813W        W98881   9.770  29.574   1.608
25814W        W98882  38.562  25.590  13.054
25815W        W98883  15.283   5.709  11.091
25816W        W98884  40.778  11.910  10.647
25817W        W98885  37.281  25.430   4.033
25818W        W98886  17.807  16.497  14.314
25819W        W98887   2.259   3.532  13.260
25820W        W98888  37.948  29.572   2.457
25821W        W98889   2.476  20.452   0.532
25822W        W98890  23.200   1.238   4.179
25823W        W98891  35.582  29.969   1.209
25824W        W98892  24.942  33.983  13.886
25825W        W98893   6.201   4.805   5.018
25826W        W98894  24.969  41.701  12.355
25827W        W98895   8.833  23.570  14.003
25828W        W98896  27.565  42.830   3.001
25829W        W98897  38.350  13.444  14.392
25830W        W98898  30.389   1.107   0.009
25831W        W98899  27.719  37.041  10.776
25832W        W98900  30.000  17.323  10.464
25833W        W98901  24.495   6.781   0.656
25834W        W98902  16.238  38.740  11.018
25835W        W98903  37.818   4.957   4.606
25836W        W98904  28.529  33.039   0.900
25837W        W98905  35.644   4.298   0.481
25838W        W98906  13.860  38.960   2.635
25839W        W98907  20.599  36.530  12.476
25840W        W98908  40.088  43.443   3.762
25841W        W98909  44.765  21.063  12.584
25842W        W98910  26.191  24.992   2.293
25843W        W98911  33.809  17.082  10.772
25844W        W98912  43.472  41.775   0.400
25845W        W98913  41.947  14.729  13.971
25846W        W98914  31.080  23.584   5.075
25847W        W98915  20.154  26.633  11.202
25848W        W98916  36.614  12.340  11.895
25849W        W98917  42.479  36.623  11.049
25850W        W98918  35.344  44.769   1.858
25851W        W98919  36.341  10.724  14.753
25852W        W98920  33.585   3.352  14.270
25853W        W98921   6.945  29.589  11.595
25854W        W98922  42.946  36.425   0.001
25855W        W98923  26.170  36.102  11.568
25856W        W98924  20.749  27.036  14.084
25857W        W98925  36.169  34.872   2.896
25858W        W98926  18.002  43.504   2.336
25859W        W98927  21.221  41.738  13.622
25860W        W98928  34.969  17.656  11.632
25861W        W98929  11.647  29.447   2.887
25862W        W98930  22.609  41.111  12.495
25863W        W98931  41.228  28.963   4.148
25864W        W98932  15.771   3.493  11.030
25865W        W98933   3.961  27.714  14.399
25866W        W98934  29.197  17.248  10.668
25867W        W98935   7.143  30.262   2.572
25868W        W98936  33.238  44.537   0.276
25869W        W98937  22.434  13.885   1.771
25870W        W98938   3.221  27.598  11.309
25871W        W98939  13.511  19.146   4.326
25872W        W98940  22.413  19.174  14.879
25873W        W98941  32.899  18.722  13.518
25874W        W98942  18.483  15.510  13.024
25875W        W98943  44.326  38.072  11.927
25876W        W98944  26.467  20.838   4.096
25877W        W98945  21.658  19.704  11.620
25878W        W98946   0.315  12.339   1.178
25879W        W98947  29.127  42.454   0.297
25880W        W98948  21.723  22.448   0.727
25881W        W98949  25.541  37.941   9.868
25882W        W98950  26.684  37.038  11.610
25883W        W98951  23.968  11.892  10.338
25884W        W98952  18.504   9.771  12.534
25885W        W98953  37.869   3.264  10.748
25886W        W98954  43.558   3.074  10.243
25887W        W98955  18.978   1.188  14.218
25888W        W98956  37.865  29.194  12.488
25889W        W98957   4.904  22.738  10.924
25890W        W98958  38.495  43.534   3.095
25891W        W98959  31.735  44.027  11.101
25892W        W98960   0.393  11.706   2.892
25893W        W98961   5.946  33.338   4.577
25894W        W98962   3.725   0.667  13.447
25895W        W98963  40.379  18.857   0.884
25896W        W98964  39.352  29.664   4.159
25897W        W98965  33.404  24.998   0.801
25898W        W98966  22.220  14.813   2.610
25899W        W98967  11.572   0.861   0.217
25900W        W98968   9.964  32.109   2.695
25901W        W98969  33.067  36.314  11.588
25902W        W98970  36.554  18.295   4.081
25903W        W98971  12.165  29.674  10.742
25904W        W98972  13.001  12.069  11.519
25905W        W98973  23.733  42.841   4.469
25906W        W98974   4.150  24.479   2.827
25907W        W98975  26.000  18.981   3.737
25908W        W98976  27.013   7.903  13.892
25909W        W98977  25.600  22.028   3.418
25910W        W98978  17.966  21.132  12.462
25911W        W98979  23.226   3.421   2.227
25912W        W98980  38.359  41.049  13.776
25913W        W98981  42.047  10.624  14.336
25914W        W98982   4.424  15.709   2.400
25915W        W98983  14.708  30.794  14.842
25916W        W98984  19.570  44.424   0.409
25917W        W98985   7.904  30.344   1.268
25918W        W98986  18.636  16.573   3.161
25919W        W98987  28.101  31.021  12.420
25920W        W98988  29.213  25.131   0.886
25921W        W98989  40.152  26.996   2.707
25922W        W98990  30.532  22.793   1.831
25923W        W98991   6.418  27.036  13.645
25924W        W98992  10.166  19.326  13.785
25925W        W98993  30.606  24.656  14.318
25926W        W98994  37.961  10.237   0.681
25927W        W98995   5.301  30.019   3.465
25928W        W98996  10.338  18.806   1.853
25929W        W98997  32.036  18.750   3.674
25930W        W98998  31.811  34.169   1.379
25931W        W98999   3.893  40.309   2.334
25932W        W99000  17.284   7.701   1.733
25933W        W99001  30.140  12.220  14.443
25934W        W99002  16.858  10.895  14.773
25935W        W99003  44.501   7.956   3.347
25936W        W99004  36.582  43.505   1.483
25937W        W99005  18.612  16.347   4.197
25938W        W99006  25.138  28.363  13.421
25939W        W99007  28.249  38.045   3.626
25940W        W99008  39.297  16.869  13.045
25941W        W99009  25.115  43.754  13.161
25942W        W99010  36.615  36.385   0.368
25943W        W99011  15.069  38.050  11.511
25944W        W99012   6.801   5.698  12.610
25945W        W99013  25.388   9.893  12.055
25946W        W99014  20.578  43.774   5.214
25947W        W99015  21.088  33.084   3.290
25948W        W99016  27.008   9.649  10.741
25949W        W99017   6.924   1.388  12.005
25950W        W99018   5.541  34.461  13.514
25951W        W99019  28.392  38.856  14.913
25952W        W99020  11.129  26.663  14.782
25953W        W99021  35.912  16.278   1.638
25954W        W99022  29.107  17.512  14.268
25955W        W99023  12.322   1.947   3.829
25956W        W99024   4.436  14.286  14.308
25957W        W99025  22.060  15.744   2.397
25958W        W99026  19.275  26.585   2.611
25959W        W99027  39.790  21.977  10.662
25960W        W99028  31.938  18.099  12.072
25961W        W99029  15.026  23.549  14.855
25962W        W99030  10.608  24.565   4.313
25963W        W99031  28.679  17.174  14.791
25964W        W99032   6.494  37.439   1.413
25965W        W99033   3.704  38.542  12.434
25966W        W99034  24.994  42.224  12.416
25967W        W99035  34.357   8.574  11.706
25968W        W99036  40.509  35.217   4.641
25969W        W99037  18.502  10.835   1.238
25970W        W99038   7.199  12.294  11.865
25971W        W99039  14.538   1.303   2.232
25972W        W99040   8.263  17.659   3.393
25973W        W99041  39.037   6.322  10.708
25974W        W99042  28.775  17.780   2.855
25975W        W99043  27.499  19.635   2.825
25976W        W99044  13.728   7.295   0.789
25977W        W99045  40.298  37.566   4.215
25978W        W99046  23.053   1.464   0.441
25979W        W99047   4.011  24.118  11.207
25980W        W99048  13.526  35.542  12.021
25981W        W99049   9.848  37.841  13.344
25982W        W99050  40.834  26.462   1.393
25983W        W99051  42.440   1.346   0.392
25984W        W99052  27.944  11.413  11.197
25985W        W99053  43.254   5.887   0.171
25986W        W99054   2.657  14.577  11.564
25987W        W99055  31.496   4.905   1.891
25988W        W99056  20.680  42.578  10.752
25989W        W99057  31.519  17.590   2.919
25990W        W99058   3.465  12.238   0.364
25991W        W99059   3.522  24.551  11.954
25992W        W99060  21.122  34.319   2.415
25993W        W99061  23.132  40.683   0.438
25994W        W99062   1.679  18.079  12.952
25995W        W99063   9.159  43.458  12.176
25996W        W99064  44.454  17.201   1.447
25997W        W99065  23.146   7.720  11.299
25998W        W99066  33.129  18.573   4.622
25999W        W99067  36.939  10.515   0.850
26000W        W99068  27.131  36.097   4.051
26001W        W99069  19.012   3.005  10.756
26002W        W99070  41.895  35.312  14.456
26003W        W99071  21.617   2.762  13.994
26004W        W99072  36.781  36.400   2.764
26005W        W99073  44.399  26.149  14.027
26006W        W99074  14.566  25.100   4.522
26007W        W99075  12.575  26.075   2.394
26008W        W99076   4.456   9.644  12.424
26009W        W99077  26.405  42.076   2.876
26010W        W99078  40.004  16.380   4.435
26011W        W99079  18.833  31.161  13.921
26012W        W99080  10.581   0.895  10.401
26013W        W99081  44.215  26.553  14.749
26014W        W99082  25.507  37.782   1.249
26015W        W99083  32.758  28.145  14.811
26016W        W99084  34.829  29.662  11.988
26017W        W99085  41.323  22.998  12.932
26018W        W99086  29.223   6.688   4.542
26019W        W99087  36.089  36.103   2.239
26020W        W99088  39.721  44.796   3.644
26021W        W99089  21.979  14.806   1.751
26022W        W99090  33.357  24.431  14.357
26023W        W99091  17.693  44.325  13.973
26024W        W99092  25.983   3.499   2.287
26025W        W99093  33.819   4.970  13.619
26026W        W99094  29.033  35.148  13.297
26027W        W99095  38.811  18.060  11.118
26028W        W99096  16.963   3.173  12.130
26029W        W99097  24.205  26.625   0.558
26030W        W99098   7.867   0.735   3.979
26031W        W99099   2.002  18.180  14.863
26032W        W99100   8.375  32.940  11.215
26033W        W99101   6.932  23.145  11.657
26034W        W99102  31.082  14.041   1.473
26035W        W99103  17.825  10.709  10.994
26036W        W99104  17.144  24.592   2.742
26037W        W99105  15.841  42.931   4.220
26038W        W99106  10.600  28.534  12.587
26039W        W99107  17.746  23.611   3.163
26040W        W99108  21.817  34.597  11.491
26041W        W99109  32.547  22.744  11.096
26042W        W99110  25.002  35.169   1.501
26043W        W99111  29.413  13.712  12.452
26044W        W99112  41.410   2.408   1.827
26045W        W99113  11.758  10.848  14.859
26046W        W99114  36.032  38.703   4.685
26047W        W99115  26.448  14.387   4.257
26048W        W99116  14.363  36.413  14.230
26049W        W99117  10.617  10.920   2.725
26050W        W99118  42.529  26.991  10.622
26051W        W99119  18.753   3.394   2.763
26052W        W99120  27.922  38.951  10.678
26053W        W99121   2.834  16.738   2.261
26054W        W99122  27.483  17.093   3.248
26055W        W99123  20.550  43.312   5.469
26056W        W99124  36.379  24.695   1.370
26057W        W99125  44.815  34.188  11.086
26058W        W99126   0.439  17.127   0.443
26059W        W99127  26.617   4.879  13.303
26060W        W99128   1.895   4.713   4.961
26061W        W99129  35.145  23.894   1.551
26062W        W99130  19.294  16.040  12.096
26063W        W99131  38.032  44.390   4.750
26064W        W99132  35.570  13.190  11.638
26065W        W99133   7.197  33.388  10.758
26066W        W99134  44.109  14.684  11.851
26067W        W99135  33.626  26.718  12.138
26068W        W99136  13.735  10.407  11.730
26069W        W99137  19.240  36.852  14.427
26070W        W99138  40.827   3.647   4.677
26071W        W99139  32.903  11.928  14.736
26072W        W99140   2.748  35.638  11.328
26073W        W99141  22.963  27.224   0.517
26074W        W99142  20.267  39.273  13.017
26075W        W99143  28.463   5.165   2.212
26076W        W99144   2.242  40.551   4.212
26077W        W99145  43.544  18.715  12.439
26078W        W99146   0.037  24.131  11.598
26079W        W99147  12.730  11.105  12.732
26080W        W99148   6.502  20.387   2.798
26081W        W99149   6.559  41.207  10.677
26082W        W99150   0.391  18.150   0.293
26083W        W99151  35.338  14.976   2.953
26084W        W99152  17.645  30.438  11.091
26085W        W99153   0.852   4.451   0.895
26086W        W99154  41.453  14.224  10.607
26087W        W99155  37.752   3.689  12.127
26088W        W99156   3.924  42.734  14.736
26089W        W99157  44.294  12.582  10.680
26090W        W99158  42.310   1.469  14.627
26091W        W99159  29.285  30.432  14.871
26092W        W99160   9.395  34.441   3.626
26093W        W99161  39.969  20.786   3.833
26094W        W99162  31.892  15.443  13.870
26095W        W99163  27.726  16.074  11.529
26096W        W99164   7.692  25.554  14.945
26097W        W99165   1.004  10.820   2.956
26098W        W99166   8.281  12.169  14.685
26099W        W99167  12.161  22.668   0.080
26100W        W99168  26.475  37.579  13.972
26101W        W99169  39.936  35.663  13.785
26102W        W99170  39.503  43.753   0.916
26103W        W99171  33.655  27.898   0.051
26104W        W99172  38.529   7.298  11.186
26105W        W99173  20.043  19.055   4.008
26106W        W99174   7.468  29.517   4.705
26107W        W99175   4.280  34.943   4.513
26108W        W99176  42.266  43.726   4.992
26109W        W99177  15.296  12.297  14.849
26110W        W99178  28.269   5.269  11.645
26111W        W99179  23.294  21.505   0.082
26112W        W99180  37.550  10.389   3.244
26113W        W99181  35.954  18.810   3.197
26114W        W99182  25.184  44.540   4.597
26115W        W99183  38.863   9.887  10.615
26116W        W99184  10.393  29.151  13.750
26117W        W99185  26.678   7.143  12.073
26118W        W99186  23.732  22.001   0.869
26119W        W99187  13.261  43.410   4.538
26120W        W99188  28.039   0.721  13.216
26121W        W99189  40.695   7.171   3.711
26122W        W99190  10.102  16.571  11.113
26123W        W99191  18.505  31.431   3.344
26124W        W99192   4.458   0.251  13.759
26125W        W99193  44.919  31.134   1.809
26126W        W99194  10.809  32.854  11.203
26127W        W99195   3.883  10.031  14.605
26128W        W99196  20.639  18.248  13.299
26129W        W99197  42.768  28.152  11.180
26130W        W99198  15.138  19.560   0.313
26131W        W99199   7.648  27.226  11.313
26132W        W99200  37.372  11.372   3.169
26133W        W99201  30.249   7.279   3.635
26134W        W99202  32.205  16.132  13.196
26135W        W99203  16.826   7.701  10.484
26136W        W99204  40.089   6.913  13.754
26137W        W99205  28.228   5.084  12.951
26138W        W99206  10.292  26.068   2.844
26139W        W99207   1.975  37.455   3.186
26140W        W99208  27.635  12.670  13.267
26141W        W99209  21.118   1.420  11.549
26142W        W99210  40.064  19.286   0.891
26143W        W99211  42.939  20.002  12.553
26144W        W99212  13.265  34.951  14.600
26145W        W99213  26.968  21.385   4.112
26146W        W99214  40.346   9.838   3.969
26147W        W99215   2.191   8.672  14.461
26148W        W99216  42.326  15.942  14.921
26149W        W99217  25.591   5.974   1.772
26150W        W99218  37.971   7.276  10.484
26151W        W99219  38.859   0.561  11.261
26152W        W99220   0.670   3.302  11.680
26153W        W99221  29.131  16.161   1.701
26154W        W99222  12.548  35.377  13.092
26155W        W99223   2.985  15.585  13.691
26156W        W99224  41.872   8.755   1.284
26157W        W99225  10.312  23.524   1.504
26158W        W99226  24.419  16.206   2.251
26159W        W99227  21.664  18.351   1.298
26160W        W99228  31.481  44.312   3.288
26161W        W99229   7.947  12.842   4.232
26162W        W99230  13.057  34.630   3.193
26163W        W99231  36.148  21.636   0.054
26164W        W99232  31.992   7.669  14.507
26165W        W99233  41.854  24.719  10.784
26166W        W99234  29.413  13.330  11.575
26167W        W99235  22.941   3.980  12.658
26168W        W99236  37.448  12.369   3.351
26169W        W99237  12.158  26.249  11.496
26170W        W99238  21.743  18.660  10.717
26171W        W99239  27.517  14.144   1.107
26172W        W99240  27.427  23.509  14.808
26173W        W99241  25.733  10.373   1.110
26174W        W99242  11.239  37.771  14.030
26175W        W99243  18.543  23.332  10.810
26176W        W99244  27.287  35.933   1.810
26177W        W99245  13.825  21.242  12.379
26178W        W99246  18.349  22.938  11.075
26179W        W99247   9.316  31.126  10.584
26180W        W99248   4.828   3.092   1.893
26181W        W99249   0.541  22.273   1.707
26182W        W99250  12.120  13.110   9.943
26183W        W99251  44.577  16.388   2.786
26184W        W99252  30.389  30.172  12.233
26185W        W99253  19.999   2.172   1.424
26186W        W99254  41.438  34.879   4.172
26187W        W99255  43.748  42.425   1.259
26188W        W99256  31.628  30.938   2.372
26189W        W99257   2.059  12.303   2.812
26190W        W99258  23.736  44.566   3.811
26191W        W99259   4.038  26.007  14.785
26192W        W99260  32.954  44.685  14.773
26193W        W99261  10.356   4.181  13.143
26194W        W99262  44.431   3.978  14.376
26195W        W99263  44.841  30.578  12.533
26196W        W99264  10.247   8.108   3.580
26197W        W99265   7.458  15.347  13.262
26198W        W99266  24.022  12.123   2.416
26199W        W99267  12.705  39.971   3.269
26200W        W99268   2.454  26.990  13.775
26201W        W99269  45.000   7.223  13.819
26202W        W99270   5.804  30.531   4.855
26203W        W99271   1.477  12.632   1.257
26204W        W99272   2.024  31.947  14.821
26205W        W99273   9.874  43.877   1.599
26206W        W99274   6.881  22.129   0.877
26207W        W99275  29.540  35.359   0.851
26208W        W99276   1.269  39.476   3.915
26209W        W99277  42.782  38.047   5.094
26210W        W99278  35.361  27.273   0.842
26211W        W99279   7.128  39.436  12.484
26212W        W99280  35.763  33.123  13.025
26213W        W99281  32.421  25.981  11.885
26214W        W99282   7.242  43.424  13.376
26215W        W99283  16.397   2.332   4.221
26216W        W99284  37.499  25.150   4.872
26217W        W99285  23.465  36.095  14.409
26218W        W99286  11.219  33.618   1.055
26219W        W99287  31.822  42.816   0.278
26220W        W99288  13.684  42.477   3.322
26221W        W99289  44.772  17.329   1.936
26222W        W99290  33.148  13.626   3.272
26223W        W99291  25.005  19.687  14.402
26224W        W99292  25.910  15.725   3.253
26225W        W99293  42.263   7.758   3.060
26226W        W99294  31.343  26.243  13.049
26227W        W99295  20.956  16.590   0.750
26228W        W99296  19.754   7.451  14.497
26229W        W99297  14.274  10.969   1.798
26230W        W99298   3.643  19.153  12.319
26231W        W99299  34.635  42.073   4.366
26232W        W99300  17.585  27.165   4.508
26233W        W99301  40.653  36.574  12.148
26234W        W99302  24.385   7.730   3.588
26235W        W99303  25.399  25.187   2.691
26236W        W99304  27.515   8.214   4.668
26237W        W99305  20.100   5.637  13.400
26238W        W99306  29.976  40.908   0.437
26239W        W99307   7.948  12.688   0.165
26240W        W99308   9.641  16.679   3.746
26241W        W99309  12.666  38.429  10.709
26242W        W99310  36.885  32.955  10.237
26243W        W99311  42.780  13.331  12.065
26244W        W99312  11.689  10.342   0.040
26245W        W99313  11.217   8.225   0.967
26246W        W99314   8.283  15.826  13.033
26247W        W99315  40.981  10.770   4.940
26248W        W99316  28.603  35.439  12.958
26249W        W99317  16.123  30.013   0.291
26250W        W99318   2.810  13.667  11.605
26251W        W99319   3.980  13.660   0.405
26252W        W99320  43.171   0.833   4.795
26253W        W99321  15.417  12.253   2.715
26254W        W99322   6.949  44.320  10.623
26255W        W99323  15.143  44.788   1.810
26256W        W99324  44.348   0.547   3.960
26257W        W99325  43.387   8.763   4.873
26258W        W99326  40.460  20.262   3.640
26259W        W99327  15.191  24.852  13.760
26260W        W99328   9.699   2.291   3.472
26261W        W99329   2.927  23.660   4.430
26262W        W99330  29.582   2.687   0.843
26263W        W99331  17.050  31.861  11.628
26264W        W99332  10.185  37.848  10.690
26265W        W99333  34.433  20.548   2.800
26266W        W99334  35.956   4.690   0.657
26267W        W99335  43.586  23.243   3.253
26268W        W99336  32.697  11.325  13.206
26269W        W99337   0.331   1.434   2.956
26270W        W99338  11.179  18.616  14.216
26271W        W99339   2.310  44.531   4.892
26272W        W99340  34.940  27.177   4.200
26273W        W99341  40.308  23.690   2.814
26274W        W99342  16.100  36.477  12.820
26275W        W99343  19.786   2.335   4.718
26276W        W99344  28.083   9.062  14.728
26277W        W99345  32.837  12.104  11.989
26278W        W99346   3.215  40.138   2.723
26279W        W99347   8.733  34.188  12.864
26280W        W99348  31.999  18.566  13.288
26281W        W99349  42.832  41.351  14.623
26282W        W99350  26.968  34.614   2.219
26283W        W99351   3.338   1.904  11.357
26284W        W99352  19.241  18.340   0.133
26285W        W99353  34.026  32.342  14.531
26286W        W99354  24.035  38.885   3.179
26287W        W99355  39.840  27.105  13.937
26288W        W99356   7.104  33.871   4.281
26289W        W99357  16.890  25.444   3.328
26290W        W99358  44.347  36.406  11.227
26291W        W99359  15.712   8.425   4.229
26292W        W99360  35.993   9.815   0.337
26293W        W99361  30.327  34.036  12.887
26294W        W99362   5.431  32.065   2.170
26295W        W99363  34.800  38.971   0.897
26296W        W99364   8.852  37.161  14.428
26297W        W99365   5.767  40.816   3.056
26298W        W99366  27.848  12.783  14.501
26299W        W99367  32.258  30.361   0.265
26300W        W99368   4.698  26.742   5.092
26301W        W99369   4.852  18.764   1.767
26302W        W99370  24.991   0.427  10.664
26303W        W99371  43.434  35.991   1.830
26304W        W99372  13.149  16.651  14.495
26305W        W99373  44.026   7.667   4.382
26306W        W99374  34.817   8.935  11.601
26307W        W99375  39.033   6.475  14.803
26308W        W99376  40.331  25.065   3.224
26309W        W99377  30.113   0.678  14.857
26310W        W99378  39.151  24.643   3.105
26311W        W99379  10.337  17.098  13.442
26312W        W99380  44.297  43.459  14.338
26313W        W99381   2.031   5.912   0.894
26314W        W99382  15.530  44.564   3.176
26315W        W99383  24.967  21.579   2.701
26316W        W99384  22.079  27.187  13.235
26317W        W99385   1.900  42.205   4.869
26318W        W99386  28.984  43.344   2.155
26319W        W99387  18.559   6.930   0.916
26320W        W99388   9.927  39.890   5.156
26321W        W99389   0.944  12.097  12.019
26322W        W99390   2.691   4.850   0.706
26323W        W99391   2.917  23.915  11.651
26324W        W99392  42.929  33.881  13.303
26325W        W99393   4.822  15.714   4.535
26326W        W99394  10.338  31.703   3.670
26327W        W99395  30.810  23.453  14.237
26328W        W99396  38.369  35.671  12.916
26329W        W99397  26.958  15.980  13.581
26330W        W99398  26.673   4.016   3.712
26331W        W99399   9.084  24.126   4.663
26332W        W99400  14.428   1.659   1.454
26333W        W99401  11.735  44.036  14.710
26334W        W99402  28.022   0.870  11.745
26335W        W99403  13.534  43.370   3.264
26336W        W99404  37.732  13.538   2.809
26337W        W99405   5.840  31.697   3.448
26338W        W99406  43.736  10.339   1.270
26339W        W99407   1.467   0.292   2.134
26340W        W99408  44.863  36.662   3.347
26341W        W99409  24.954   8.713   0.151
26342W        W99410  13.188   7.083   1.861
26343W        W99411   3.999  41.885  14.104
26344W        W99412  42.259  12.291  13.548
26345W        W99413  15.754  19.588   3.831
26346W        W99414  40.823  17.270  12.059
26347W        W99415  35.801   3.697   2.749
26348W        W99416  26.954   9.549  11.929
26349W        W99417  22.959   5.455   2.244
26350W        W99418  18.200   2.809   2.373
26351W        W99419   2.989  40.739  13.444
26352W        W99420  14.686  21.698  13.251
26353W        W99421  32.737  12.281   4.800
26354W        W99422  23.982  33.173  12.139
26355W        W99423  31.442  14.623  10.609
26356W        W99424  42.575  19.983  11.843
26357W        W99425  40.506  17.017   4.157
26358W        W99426  25.290  16.185   0.006
26359W        W99427   9.801  30.852   4.479
26360W        W99428   5.264   4.851  11.854
26361W        W99429   9.083  35.383   4.459
26362W        W99430  12.977   7.829  12.984
26363W        W99431   5.658   9.171  14.062
26364W        W99432  16.051  20.146   3.654
26365W        W99433  12.802   9.280   2.370
26366W        W99434  29.192   6.955   3.411
26367W        W99435  37.605  28.970   4.023
26368W        W99436  28.635  43.330  14.908
26369W        W99437  39.589  41.141  14.426
26370W        W99438  16.769  39.645   4.681
26371W        W99439  17.059  22.527   4.144
26372W        W99440  35.377  40.487   3.436
26373W        W99441  17.774  27.469  14.041
26374W        W99442  18.002  24.709   3.717
26375W        W99443   4.469  27.020   2.754
26376W        W99444   8.720   8.818   3.869
26377W        W99445  26.032  14.586   4.059
26378W        W99446  27.253  38.919   2.187
26379W        W99447   4.832  43.576  14.098
26380W        W99448  21.646  36.326  14.539
26381W        W99449  17.193   9.344  11.221
26382W        W99450  14.494   6.872  13.813
26383W        W99451   0.855  19.558   4.674
26384W        W99452   4.915  32.415   4.143
26385W        W99453  13.138  11.091   1.358
26386W        W99454   9.133  22.560   1.168
26387W        W99455  38.267  27.953   3.454
26388W        W99456  17.209  21.180  14.355
26389W        W99457  24.705  29.138   3.981
26390W        W99458  31.368  17.688   3.941
26391W        W99459  27.256  15.048  13.897
26392W        W99460   1.360  28.451  12.144
26393W        W99461   6.908  32.856   0.764
26394W        W99462  40.027  10.206  13.413
26395W        W99463  28.643  11.816  13.742
26396W        W99464  19.945  19.806  14.080
26397W        W99465  17.721  13.286   1.810
26398W        W99466  21.290   8.032  12.150
26399W        W99467  29.044  41.462   2.728
26400W        W99468  39.062  26.940   3.703
26401W        W99469  42.057  23.302  11.976
26402W        W99470   3.778   0.932   4.287
26403W        W99471  23.016   6.221  11.993
26404W        W99472   7.194  19.032   3.686
26405W        W99473  37.475  30.716   4.640
26406W        W99474  40.501  10.821   4.270
26407W        W99475  12.292  32.701   2.727
26408W        W99476  33.940  35.805   4.148
26409W        W99477  26.566  41.675   0.287
26410W        W99478   3.633  37.163  12.390
26411W        W99479   9.586  17.923   2.360
26412W        W99480  41.586   0.378   4.607
26413W        W99481  38.824  40.955   2.889
26414W        W99482  43.828  37.843   1.999
26415W        W99483  44.118  31.101   1.846
26416W        W99484  19.914  26.082  14.261
26417W        W99485  34.502  41.108   4.044
26418W        W99486   3.761   9.446   4.072
26419W        W99487   9.791  20.197   1.592
26420W        W99488   3.148   0.729   3.113
26421W        W99489  14.743  41.982   0.038
26422W        W99490   2.400   4.730  10.295
26423W        W99491  13.640   1.435  14.439
26424W        W99492  24.575  23.148   2.205
26425W        W99493  23.144   8.832  14.367
26426W        W99494   2.317  31.253   4.596
26427W        W99495   7.839   8.476  10.914
26428W        W99496  34.157  14.787  11.576
26429W        W99497  39.829  39.046  10.599
26430W        W99498   2.291  18.511   0.205
26431W        W99499  11.650  24.950   0.727
26432W        W99500  26.543  10.161   4.106
26433W        W99501  18.212  36.924   3.648
26434W        W99502  30.547   0.824   2.710
26435W        W99503   4.835  16.968  13.409
26436W        W99504  25.176   8.889  13.695
26437W        W99505  19.035  19.203   2.639
26438W        W99506  13.331   2.704   0.158
26439W        W99507  40.528   7.771   1.862
26440W        W99508  36.871  22.413  13.034
26441W        W99509  35.591  40.063   2.879
26442W        W99510  42.827  35.921   0.162
26443W        W99511  20.332  27.511  11.975
26444W        W99512  26.434   8.363  12.457
26445W        W99513  39.793  42.352  12.523
26446W        W99514   3.792  34.069  11.991
26447W        W99515  26.175  16.746   2.161
26448W        W99516  16.728  24.082   0.453
26449W        W99517  20.026  42.114   2.739
26450W        W99518  32.464   4.361   2.708
26451W        W99519   9.137  40.958   0.949
26452W        W99520  11.200  22.961  12.993
26453W        W99521  22.546  25.033   4.530
26454W        W99522  19.168  44.478  10.113
26455W        W99523   7.881  42.483   1.445
26456W        W99524   6.786  43.324   1.720
26457W        W99525  23.560  40.088   1.018
26458W        W99526  28.210  28.494   4.352
26459W        W99527  43.005  38.826  12.479
26460W        W99528  15.250  20.988   2.689
26461W        W99529  17.309  11.818   4.143
26462W        W99530  44.774  23.758  11.836
26463W        W99531  25.128   9.800   1.268
26464W        W99532  12.415  17.062   4.557
26465W        W99533  26.021  41.479   0.702
26466W        W99534  39.014  37.096   0.059
26467W        W99535  12.093  26.437   3.688
26468W        W99536  15.032   9.735   1.390
26469W        W99537  19.090   5.801   1.198
26470W        W99538  16.757  20.151   3.174
26471W        W99539   6.391  40.330   1.416
26472W        W99540  18.954   4.449   0.066
26473W        W99541   5.309  23.484  13.263
26474W        W99542  25.475   6.736  14.306
26475W        W99543   9.890  19.365  12.105
26476W        W99544  40.404  25.643   0.347
26477W        W99545  13.099  13.110   4.637
26478W        W99546  15.465  18.239   0.968
26479W        W99547   9.397  10.643   3.718
26480W        W99548  25.649  32.873   1.326
26481W        W99549  38.063   2.445   3.740
26482W        W99550  16.251  37.567  12.052
26483W        W99551  22.980  34.644   3.851
26484W        W99552  37.533  17.153  13.557
26485W        W99553  12.611  29.946   1.324
26486W        W99554  34.540  30.875   1.985
26487W        W99555  10.869  41.089  11.477
26488W        W99556  39.958   1.002  13.443
26489W        W99557  41.404  33.341  14.461
26490W        W99558  19.348  28.063  14.074
26491W        W99559   4.965  19.587   0.212
26492W        W99560   8.880  36.045  14.728
26493W        W99561   4.252  28.441   3.738
26494W        W99562  22.556  16.925   5.479
26495W        W99563  10.794   6.149   1.802
26496W        W99564  37.456  12.863   2.838
26497W        W99565   3.174  31.700   4.996
26498W        W99566  24.486  38.597   2.790
26499W        W99567   6.415   0.073  13.770
26500W        W99568  35.942  35.585   2.183
26501W        W99569  37.740  11.352   2.810
26502W        W99570   7.866  37.110   0.081
26503W        W99571  19.554  37.504   2.961
26504W        W99572   3.199  35.333  13.200
26505W        W99573  11.412  17.498  10.303
26506W        W99574  12.796  29.866   0.362
26507W        W99575  29.038   9.480  13.522
26508W        W99576  41.412  20.305   0.370
26509W        W99577  34.602  38.447  11.512
26510W        W99578  17.794  16.691   4.570
26511W        W99579  21.261  42.995   4.285
26512W        W99580   8.632  25.060   4.518
26513W        W99581   6.068  13.617  13.485
26514W        W99582  28.014  10.244  11.328
26515W        W99583  41.491  35.799  13.501
26516W        W99584   6.677  29.104  12.424
26517W        W99585  42.822  39.429  10.762
26518W        W99586  43.735  37.405   4.283
26519W        W99587  36.771  42.490   1.644
26520W        W99588   3.472   5.529   0.904
26521W        W99589   5.125  11.282   9.990
26522W        W99590  13.897  12.132  13.676
26523W        W99591  36.002  25.564   1.310
26524W        W99592  43.389   7.236   2.740
26525W        W99593  32.128  36.978   4.303
26526W        W99594  13.738  17.987   0.067
26527W        W99595  25.725  44.763  14.401
26528W        W99596  13.899   5.338   4.748
26529W        W99597  10.071  36.880   4.941
26530W        W99598  35.578  35.519  10.614
26531W        W99599  43.734  12.232  12.599
26532W        W99600   3.839  39.283   4.747
26533W        W99601  18.737  40.168   0.483
26534W        W99602   5.047  22.131  12.089
26535W        W99603  13.188   7.451   4.255
26536W        W99604  14.837   1.359   0.761
26537W        W99605  23.484  13.321   2.289
26538W        W99606  24.544  23.480   3.648
26539W        W99607  29.485  27.849  14.356
26540W        W99608  20.796  39.332   2.220
26541W        W99609  17.045  19.648  11.440
26542W        W99610  40.404  37.883  12.894
26543W        W99611   4.697   6.768   1.954
26544W        W99612  37.026  28.841  12.209
26545W        W99613  37.611  32.223   2.783
26546W        W99614  22.893  26.779  12.959
26547W        W99615  39.597  42.515  12.068
26548W        W99616   7.335  38.585  14.801
26549W        W99617  23.357  10.755  12.152
26550W        W99618   8.141  32.592  13.457
26551W        W99619  24.487  16.560   4.601
26552W        W99620  13.848  38.464  10.993
26553W        W99621  27.217  24.558   0.276
26554W        W99622  14.251  32.607   3.860
26555W        W99623  44.769  34.282   1.234
26556W        W99624   0.361  29.226  13.073
26557W        W99625  17.325   6.070  14.849
26558W        W99626  35.039  32.420  10.173
26559W        W99627  13.852  14.722   4.236
26560W        W99628  22.945  13.204   3.242
26561W        W99629   1.745  27.277   0.914
26562W        W99630  43.080  24.913   2.748
26563W        W99631  14.936  11.615  14.861
26564W        W99632   5.404   8.706   2.640
26565W        W99633  32.418  11.345  12.775
26566W        W99634   6.846  44.907   4.574
26567W        W99635  22.635   2.949   3.070
26568W        W99636  27.594  43.478   4.325
26569W        W99637  31.364  36.520  11.897
26570W        W99638  31.977  43.063   1.392
26571W        W99639  27.714  28.345   0.635
26572W        W99640  44.275  32.519  11.020
26573W        W99641  43.535  40.388   3.904
26574W        W99642  25.152  13.621  13.302
26575W        W99643   3.217  43.884   3.411
26576W        W99644  12.731  33.967   2.944
26577W        W99645  11.355  32.109  14.270
26578W        W99646  38.839   8.778   1.336
26579W        W99647  44.021   3.706  12.413
26580W        W99648  34.143  23.726   1.629
26581W        W99649  29.589  25.184  14.976
26582W        W99650   9.434  33.734  12.480
26583W        W99651  13.061  29.060  12.583
26584W        W99652  11.857  39.601  10.785
26585W        W99653  16.871   8.057   1.382
26586W        W99654  17.375   2.269   0.200
26587W        W99655  39.499   2.943  11.191
26588W        W99656  18.208   7.691   4.631
26589W        W99657  10.151  13.611   2.807
26590W        W99658  18.838  16.783  13.595
26591W        W99659   5.629   4.405  12.106
26592W        W99660  29.199  25.216  11.445
26593W        W99661  13.776  39.542  14.343
26594W        W99662   7.108  42.063   2.722
26595W        W99663  19.405  37.865   1.299
26596W        W99664  19.775  19.369   4.789
26597W        W99665  17.182  30.649  11.086
26598W        W99666  24.536   9.881   4.599
26599W        W99667  28.181  25.793  10.945
26600W        W99668  14.722  12.422  13.498
26601W        W99669   0.772   8.373   0.011
26602W        W99670  11.653  29.797   1.169
26603W        W99671  18.247  44.028   4.651
26604W        W99672  42.219   2.132   1.440
26605W        W99673  14.383  12.758   2.807
26606W        W99674   7.461  43.542  12.448
26607W        W99675  18.272   9.331   0.361
26608W        W99676  28.792  31.031   2.291
26609W        W99677  34.571  33.631   5.390
26610W        W99678  17.761  22.723  12.364
26611W        W99679  29.614  19.617   1.564
26612W        W99680  14.680  27.494  11.977
26613W        W99681  27.234   7.811   0.005
26614W        W99682  22.037  31.505  13.980
26615W        W99683  20.040  26.754   2.326
26616W        W99684   1.060   4.343  13.448
26617W        W99685   5.093  44.193   1.817
26618W        W99686   4.347  22.640   3.070
26619W        W99687  13.304  25.801   2.665
26620W        W99688  19.783   0.758  12.901
26621W        W99689  44.018  20.270   0.393
26622W        W99690  43.304  20.701   4.242
26623W        W99691   1.752  21.047  10.696
26624W        W99692  27.421  14.347   2.850
26625W        W99693  35.415  36.898   1.309
26626W        W99694  27.550  33.583  14.731
26627W        W99695   2.831   6.732  13.872
26628W        W99696  15.252  17.860  11.643
26629W        W99697   7.752  25.654   2.255
26630W        W99698  44.989   1.975  11.119
26631W        W99699  28.145  29.429   3.211
26632W        W99700  14.164  31.186  13.341
26633W        W99701  41.449  27.615  10.542
26634W        W99702  18.143  38.413   0.162
26635W        W99703  42.275  28.870  14.323
26636W        W99704  18.503   6.714   2.772
26637W        W99705  29.171  10.286  14.832
26638W        W99706  20.529  29.339  11.970
26639W        W99707  41.684  43.511   1.291
26640W        W99708  38.560  32.095   4.158
26641W        W99709  35.622  33.792  12.904
26642W        W99710  38.050  10.359  11.053
26643W        W99711  38.889  17.284  11.482
26644W        W99712   4.659  32.244  10.935
26645W        W99713  32.081  22.297   2.632
26646W        W99714  15.773  17.591   4.578
26647W        W99715  24.570  23.053   4.633
26648W        W99716  28.372  34.773   3.171
26649W        W99717  40.471  13.748  12.835
26650W        W99718  40.018   1.779   9.796
26651W        W99719  14.302  14.634   1.167
26652W        W99720  22.413   7.829   3.561
26653W        W99721  36.514   4.918   1.796
26654W        W99722  35.008  31.651   1.675
26655W        W99723  10.389  20.356   3.254
26656W        W99724  41.761  23.236  13.376
26657W        W99725  17.993  29.898  11.625
26658W        W99726   2.283  34.867  11.256
26659W        W99727  18.658  39.477  14.814
26660W        W99728  22.870  38.791   1.817
26661W        W99729  26.204  19.487   0.799
26662W        W99730  41.281  14.587   2.587
26663W        W99731  24.247  19.271   1.906
26664W        W99732  18.087  25.581   2.169
26665W        W99733  14.224  11.736   2.974
26666W        W99734  24.074  16.102   1.877
26667W        W99735  13.836   7.869  10.628
26668W        W99736  37.142   3.488   4.196
26669W        W99737  44.422  23.636   1.815
26670W        W99738  33.915   2.532   4.447
26671W        W99739  35.851  23.498  12.334
26672W        W99740  18.976  15.622   3.762
26673W        W99741  27.129  11.796   4.808
26674W        W99742  35.177  25.066  12.454
26675W        W99743   4.804  23.144   0.210
26676W        W99744  10.882   9.108   2.255
26677W        W99745  12.105   3.946   1.293
26678W        W99746  24.976  20.588   3.370
26679W        W99747  13.519  31.842  10.661
26680W        W99748  10.097  22.661   0.355
26681W        W99749  27.491   7.298  11.618
26682W        W99750  17.595  26.464  13.787
26683W        W99751  10.328  43.843  14.456
26684W        W99752  28.038  27.180   3.130
26685W        W99753  43.884  23.660   4.214
26686W        W99754  29.586  10.806  13.135
26687W        W99755  13.717  13.527  14.898
26688W        W99756  25.292  18.817  12.373
26689W        W99757  33.795   7.785   1.658
26690W        W99758  25.479  23.484   4.153
26691W        W99759   7.892  12.462   1.020
26692W        W99760  19.246  24.659  11.128
26693W        W99761  12.697  25.710   1.404
26694W        W99762  26.502  22.579  11.587
26695W        W99763  35.663  36.463  10.749
26696W        W99764  16.734   2.297   1.928
26697W        W99765   6.486  27.374   4.503
26698W        W99766  20.736  13.236   1.506
26699W        W99767  31.947  37.051   0.682
26700W        W99768  30.985  22.501  12.135
26701W        W99769   1.854  31.032  13.753
26702W        W99770  14.265  33.526   0.253
26703W        W99771  24.047  29.180  13.256
26704W        W99772  44.607  44.274   3.738
26705W        W99773   8.324  18.635   0.791
26706W        W99774  43.783  21.576   3.640
26707W        W99775  20.752  24.571   0.302
26708W        W99776   9.153  34.168  12.538
26709W        W99777  20.943  31.151   0.470
26710W        W99778  14.211  26.519   4.114
26711W        W99779  43.496  25.883  11.532
26712W        W99780  32.895  13.796   2.310
26713W        W99781   6.419  11.268   2.740
26714W        W99782  31.946   9.782   3.301
26715W        W99783   4.802  42.440  14.010
26716W        W99784  28.617  43.043  10.859
26717W        W99785  40.267  39.817  10.298
26718W        W99786  31.531  15.331   2.676
26719W        W99787   4.945  13.522   0.272
26720W        W99788   6.262  12.706   2.333
26721W        W99789  43.198  34.639  13.001
26722W        W99790  20.072   8.579  13.817
26723W        W99791  34.545  31.812  14.076
26724W        W99792  18.267   5.926  14.954
26725W        W99793   9.858  17.551  11.149
26726W        W99794   7.240  41.454  13.992
26727W        W99795  39.717  13.805   3.770
26728W        W99796   1.301   7.298   4.889
26729W        W99797  17.651  14.826  11.921
26730W        W99798  36.528   0.844   3.325
26731W        W99799  12.277  32.758   0.591
26732W        W99800  25.163  29.414   0.438
26733W        W99801  19.814  42.333  12.847
26734W        W99802  34.495  23.842   4.097
26735W        W99803  13.012   4.249  14.035
26736W        W99804  27.687  11.269  12.362
26737W        W99805  43.199   6.163   5.158
26738W        W99806   0.392  20.778   3.754
26739W        W99807  20.802  20.996  10.145
26740W        W99808  23.138  30.538  11.490
26741W        W99809  35.835  37.618   0.412
26742W        W99810  29.167  24.183  12.930
26743W        W99811  42.785  38.388  13.351
26744W        W99812  26.539  33.869   1.984
26745W        W99813  26.098   8.805  10.837
26746W        W99814  19.772  22.564   2.743
26747W        W99815  21.290  26.231   2.698
26748W        W99816  23.961  25.720  11.071
26749W        W99817  24.121   9.308  13.533
26750W        W99818  18.941  30.882   2.761
26751W        W99819   0.741  25.628   1.873
26752W        W99820   9.136  40.506  11.173
26753W        W99821   8.881  34.593   2.087
26754W        W99822  10.798   5.373   3.252
26755W        W99823  23.213   9.568   3.567
26756W        W99824  18.526  32.320   4.522
26757W        W99825   2.565  30.881   3.793
26758W        W99826   5.272  31.237  10.682
26759W        W99827  32.516  10.624  10.567
26760W        W99828  20.279   4.222  14.380
26761W        W99829   4.657  13.158   0.007
26762W        W99830  44.179  31.614  11.026
26763W        W99831   1.900  30.428  13.060
26764W        W99832   2.676  31.879  13.277
26765W        W99833   8.691  24.039  13.817
26766W        W99834  43.873  28.535   3.090
26767W        W99835  19.725  13.262   3.515
26768W        W99836  33.311   1.836   1.888
26769W        W99837  20.213  20.254   0.838
26770W        W99838  17.680  15.100   0.676
26771W        W99839  12.338  34.892  14.555
26772W        W99840  36.449  29.628   0.494
26773W        W99841  44.386  16.851   0.243
26774W        W99842   6.014  28.297   2.342
26775W        W99843  26.023   3.522  13.322
26776W        W99844  16.596  16.683   1.235
26777W        W99845  18.546  25.166   3.295
26778W        W99846   9.905   2.565   3.096
26779W        W99847  12.458  42.085   0.406
26780W        W99848  33.614  16.269   3.274
26781W        W99849  15.681   2.178   3.782
26782W        W99850   2.982  33.971   1.776
26783W        W99851   5.298  35.848  12.510
26784W        W99852  16.059  30.001  11.548
26785W        W99853   2.769  22.114  14.427
26786W        W99854  11.171  14.890  13.386
26787W        W99855  17.784  18.610  13.886
26788W        W99856  20.704   5.867   0.412
26789W        W99857   9.401  27.509  14.298
26790W        W99858  32.814  36.856   3.709
26791W        W99859  15.246  40.912   2.378
26792W        W99860  29.592   3.407  12.118
26793W        W99861   0.358  19.825  10.753
26794W        W99862  41.305  31.355  11.164
26795W        W99863  41.859  10.273  13.049
26796W        W99864  14.093  15.766  10.652
26797W        W99865  18.256  17.300  13.799
26798W        W99866  34.544   5.777  11.375
26799W        W99867  29.857   4.291  10.708
26800W        W99868  39.837  31.526  13.021
26801W        W99869  36.732   9.449  11.657
26802W        W99870   6.340  35.316   2.760
26803W        W99871   9.900  26.657   2.350
26804W        W99872  34.027  42.880   1.906
26805W        W99873  43.996  13.750  12.082
26806W        W99874  27.623   5.732  13.089
26807W        W99875  37.460  34.677   3.311
26808W        W99876  21.741   4.675   3.186
26809W        W99877   1.978   6.985   2.859
26810W        W99878  41.874   4.721   0.929
26811W        W99879  31.963   4.651   4.194
26812W        W99880  15.811  20.419  12.534
26813W        W99881   2.826  26.010  11.794
26814W        W99882  30.025   7.215   2.119
26815W        W99883  39.519  14.073  10.729
26816W        W99884   7.859   9.898   3.779
26817W        W99885  43.873  37.971   3.322
26818W        W99886  39.068  10.184   4.534
26819W        W99887  29.055  42.923   2.458
26820W        W99888   5.804  34.296  11.549
26821W        W99889   7.785   3.979  10.998
26822W        W99890  18.261  28.583  13.505
26823W        W99891  25.087   4.304   0.742
26824W        W99892  37.421  22.161   2.467
26825W        W99893  42.901  38.980  14.964
26826W        W99894   8.002  28.207  12.948
26827W        W99895  35.947  42.555  10.733
26828W        W99896   2.739  23.936  12.118
26829W        W99897   9.565  20.563   3.619
26830W        W99898  24.113  43.428   3.392
26831W        W99899  25.334  11.889  10.173
26832W        W99900   4.233   0.534   0.430
26833W        W99901  20.153  28.172   4.892
26834W        W99902  43.800  23.505   4.703
26835W        W99903  38.964  18.992   1.086
26836W        W99904  39.585  43.815   4.798
26837W        W99905  19.558  43.442   3.137
26838W        W99906  37.064  19.534  13.572
26839W        W99907  34.982  41.468  10.810
26840W        W99908  20.837   7.850  11.207
26841W        W99909   0.027  29.411   2.206
26842W        W99910  18.076  10.532  11.383
26843W        W99911  40.364  10.097   3.139
26844W        W99912  12.139  40.585   1.973
26845W        W99913  26.948  23.081   3.401
26846W        W99914  41.827   9.532  14.770
26847W        W99915   6.258   5.179  14.439
26848W        W99916  40.092  20.521  11.636
26849W        W99917   4.072   6.810   1.896
26850W        W99918  42.321   2.464   4.846
26851W        W99919  39.465  29.403  14.279
26852W        W99920  12.884   7.495   2.003
26853W        W99921  41.398  33.607  12.059
26854W        W99922  10.009  36.584   2.633
26855W        W99923  11.302   7.135  10.719
26856W        W99924  35.633  30.060  12.061
26857W        W99925   8.802  16.529  11.834
26858W        W99926  44.073   0.900   4.257
26859W        W99927  33.877  21.360   4.223
26860W        W99928  17.325  35.566   2.717
26861W        W99929  16.821   6.448  13.986
26862W        W99930  34.801  32.433   4.074
26863W        W99931  36.962   3.940   3.300
26864W        W99932  27.152   3.289  10.418
26865W        W99933  30.036   1.726  12.670
26866W        W99934   4.417  42.587  13.471
26867W        W99935  43.012   6.916   3.806
26868W        W99936  27.942   1.372   0.324
26869W        W99937  11.574  18.198  14.000
26870W        W99938  12.405  18.143   3.637
26871W        W99939  28.757  14.014   0.038
26872W        W99940   5.818  37.050  10.945
26873W        W99941  40.972  15.840  14.038
26874W        W99942  28.096   4.379  12.484
26875W        W99943  16.413  16.532  10.648
26876W        W99944  15.585  36.270   1.688
26877W        W99945  34.012  42.780  13.860
26878W        W99946  14.245  36.304   4.621
26879W        W99947  25.679  41.195   3.850
26880W        W99948  25.226  33.471  14.114
26881W        W99949  22.263  31.574  13.496
26882W        W99950  27.926  14.397  10.969
26883W        W99951  40.386  27.091  13.102
26884W        W99952  25.753   0.171  12.533
26885W        W99953  27.275  18.587  13.818
26886W        W99954  36.084  26.730  11.698
26887W        W99955   6.186  16.309   0.930
26888W        W99956   4.129  10.291  10.790
26889W        W99957   7.210  28.432  12.870
26890W        W99958   3.225  40.483   0.659
26891W        W99959   7.256  17.470  10.807
26892W        W99960  24.975   7.600  11.570
26893W        W99961   9.638  26.912   4.185
26894W        W99962  38.103  32.671   1.315
26895W        W99963  41.865  40.862  10.633
26896W        W99964   9.357  37.619   4.135
26897W        W99965  17.799  27.986  10.041
26898W        W99966  28.065   5.039  11.220
26899W        W99967  38.784  24.256  12.055
26900W        W99968  29.978   4.365   0.024
26901W        W99969  40.508  18.114   0.744
26902W        W99970  17.798  14.111   0.206
26903W        W99971  30.701  18.998  14.016
26904W        W99972   0.306  36.426  14.257
26905W        W99973  16.123  12.676   4.281
26906W        W99974  35.142  43.972   4.674
26907W        W99975  33.978  41.062   1.864
26908W        W99976  13.670  21.847   0.548
26909W        W99977  22.484  26.999  10.589
26910W        W99978  19.775  13.857   2.348
26911W        W99979  34.894   6.666   1.284
26912W        W99980  27.932  35.893   3.724
26913W        W99981  37.185  33.338   4.160
26914W        W99982   0.330  40.335  14.899
26915W        W99983  30.623  18.834  11.124
26916W        W99984  43.007  42.485   1.989
26917W        W99985   5.181   1.207   4.178
26918W        W99986   2.891   6.022  11.417
26919W        W99987  40.476  26.985   3.122
26920W        W99988  27.092  33.917  12.353
26921W        W99989  29.717  23.586  10.347
26922W        W99990  17.369  36.352  13.686
26923W        W99991   6.883   2.779  14.962
26924W        W99992  40.845   3.814  13.906
26925W        W99993  21.250  36.773   2.276
26926W        W99994  20.763   8.285  11.446
26927W        W99995  20.208  27.617   2.632
26928W        W99996  21.552  30.311  14.314
26929W        W99997  17.905   5.167   1.352
26930W        W99998  36.365  35.008  12.404
26931W        W99999  44.862  35.913   2.834
26932W        W    0  27.964  16.676  13.171
26933W        W    1  19.081  44.288  13.481
26934W        W    2  31.250  25.133  10.319
26935W        W    3  10.546  36.037  13.294
26936W        W    4  26.872  43.340   2.409
26937W        W    5  16.243   6.746  11.000
26938W        W    6   1.330  29.983  13.872
26939W        W    7  40.007  13.936  12.832
26940W        W    8   5.814  33.980  11.014
26941W        W    9  43.433   6.104   4.684
26942W        W   10  22.309  25.010   1.407
26943W        W   11  11.337  38.868   0.280
26944W        W   12  14.184  16.717  14.261
26945W        W   13  36.651  11.030   0.054
26946W        W   14   3.321  39.491  12.146
26947W        W   15   3.367  30.240   4.196
26948W        W   16   2.859  28.185  12.015
26949W        W   17  22.213  20.416  12.237
26950W        W   18  39.764  40.939   2.243
26951W        W   19  20.649  21.007   2.628
26952W        W   20  39.977  25.845   1.344
26953W        W   21   4.711  16.877   3.835
26954W        W   22  27.379   4.825  12.913
26955W        W   23  36.889   6.210  11.487
26956W        W   24  32.004  22.092  13.971
26957W        W   25   4.931  15.699   1.669
26958W        W   26  40.512  16.318   2.832
26959W        W   27  26.685  34.602  10.447
26960W        W   28  29.900   0.217   2.889
26961W        W   29   8.152  11.088  10.819
26962W        W   30  39.763  15.869  11.406
26963W        W   31  25.063  40.525   0.800
26964W        W   32  35.241  14.657   0.129
26965W        W   33  19.813  37.153  12.495
26966W        W   34   6.901  36.105   4.126
26967W        W   35  26.716  18.465   2.111
26968W        W   36  41.348  30.622   0.429
26969W        W   37   6.646  30.530   1.796
26970W        W   38  13.067  12.399  13.865
26971W        W   39  16.701  29.877  13.805
26972W        W   40  38.920   5.013  11.498
26973W        W   41  14.936  22.664   2.659
26974W        W   42   8.124   4.835  13.378
26975W        W   43  35.583  23.565  13.989
26976W        W   44  26.711  28.340   1.550
26977W        W   45  36.972  25.174   3.716
26978W        W   46  42.800  19.668   1.356
26979W        W   47   5.712  44.692  10.723
26980W        W   48  22.763  19.691   0.053
26981W        W   49  38.836  29.887  13.018
26982W        W   50  22.545  23.121  13.892
26983W        W   51  35.129  33.639  11.100
26984W        W   52  38.393  12.275  12.615
26985W        W   53  15.024  21.578   0.463
26986W        W   54  21.155  40.917   0.270
26987W        W   55   3.467   1.617   3.242
26988W        W   56  36.519  36.957   3.882
26989W        W   57   2.978  28.515  11.647
26990W        W   58  38.261  24.448  10.298
26991W        W   59   1.415  11.361  12.911
26992W        W   60  27.489  43.259   1.029
26993W        W   61  17.556  30.519   1.655
26994W        W   62  25.631   4.610   2.834
26995W        W   63   8.948  34.881   2.795
26996W        W   64  10.019  29.186   1.891
26997W        W   65  43.712  28.651   1.719
26998W        W   66  34.868  22.858  11.513
26999W        W   67  35.769  12.890   0.800
27000W        W   68  11.166  41.794  14.888
27001W        W   69  22.692  27.675  11.216
27002W        W   70  33.680  33.025   3.412
27003W        W   71   6.779  28.755   1.848
27004W        W   72  18.306  31.417  11.798
27005W        W   73  17.173  37.823   0.789
27006W        W   74  13.384  13.895   0.037
27007W        W   75  18.710   1.462  13.829
27008W        W   76  36.325   6.363  14.729
27009W        W   77   6.473  10.244  13.907
27010W        W   78  20.288  11.202  11.535
27011W        W   79  33.266  44.929   4.818
27012W        W   80  30.526  42.286   0.085
27013W        W   81  24.141  27.745   4.888
27014W        W   82  41.059  39.989   1.407
27015W        W   83  34.666  11.645   4.508
27016W        W   84  27.087  25.943   2.200
27017W        W   85   7.870  11.629   2.258
27018W        W   86  25.087  37.084  14.856
27019W        W   87  33.904  22.324   4.588
27020W        W   88  33.164  36.926   0.317
27021W        W   89  22.534  10.697   4.432
27022W        W   90  10.267   8.489   4.659
27023W        W   91  39.495   9.697  12.618
27024W        W   92  25.686  36.519   3.200
27025W        W   93  43.000  41.395  14.142
27026W        W   94  35.447  17.331  13.915
27027W        W   95   7.867  24.317   3.175
27028W        W   96  30.167  38.932   4.814
27029W        W   97   0.439  17.342  14.005
27030W        W   98  32.785  29.538   4.655
27031W        W   99  24.880  42.792  11.651
27032W        W  100  31.584  11.910  14.600
27033W        W  101   3.397   9.814   3.337
27034W        W  102  43.367  15.549  12.383
27035W        W  103  35.412  23.039  13.052
27036W        W  104  12.613  34.008  11.533
27037W        W  105  33.718  42.347   1.633
27038W        W  106  27.137   9.322   1.216
27039W        W  107  27.095  24.564   4.666
27040W        W  108   5.115  44.919   0.146
27041W        W  109  36.711   8.694  10.152
27042W        W  110  31.458  32.317  11.632
27043W        W  111  28.099  36.027  13.357
27044W        W  112   7.364  35.526  10.657
27045W        W  113  22.654   9.317  13.982
27046W        W  114  11.840  43.501   1.277
27047W        W  115   6.570   0.397   3.897
27048W        W  116   7.950  34.631   1.167
27049W        W  117  11.062  22.702   3.353
27050W        W  118  24.108  27.700   4.376
27051W        W  119  40.869  34.822   2.541
27052W        W  120  17.273  39.283   1.970
27053W        W  121  30.131  26.736   1.856
27054W        W  122  39.041  23.471  11.632
27055W        W  123  23.178   3.301   1.334
27056W        W  124   6.953  41.272  11.839
27057W        W  125   3.867  20.339   0.013
27058W        W  126   9.378  41.973  11.793
27059W        W  127   1.285  28.448  14.055
27060W        W  128  10.249  26.919  13.000
27061W        W  129  37.409  17.587   3.204
27062W        W  130  13.618  28.319   4.619
27063W        W  131  38.012   0.586   3.273
27064W        W  132  36.437  29.382  13.479
27065W        W  133  19.084  22.568   3.350
27066W        W  134   0.213   3.441   2.810
27067W        W  135  37.842  23.394  13.978
27068W        W  136   2.115  12.691  12.129
27069W        W  137  16.558   8.340   4.101
27070W        W  138  15.134   8.724   2.128
27071W        W  139  28.727  21.654  14.963
27072W        W  140  41.887  28.776  13.986
27073W        W  141  40.021   5.790   2.945
27074W        W  142  27.066  11.639  12.905
27075W        W  143  11.938   4.661  10.178
27076W        W  144  27.176  15.609  10.576
27077W        W  145   2.254  37.067   2.195
27078W        W  146  22.068  16.602   4.631
27079W        W  147   4.253  17.701  10.683
27080W        W  148  24.236   2.824   4.557
27081W        W  149  42.562  14.798   3.205
27082W        W  150   5.446   9.693   2.279
27083W        W  151   2.702  24.206  10.650
27084W        W  152  17.071  19.544   1.188
27085W        W  153   7.118  38.419  11.121
27086W        W  154   3.831  26.495   4.341
27087W        W  155  33.029  30.035   4.487
27088W        W  156   0.858  39.200   3.157
27089W        W  157  22.775  10.322  11.535
27090W        W  158   4.507  26.107   0.011
27091W        W  159  23.833  31.240   0.167
27092W        W  160   8.810  12.115  11.895
27093W        W  161   7.590  20.603  13.952
27094W        W  162  17.650  14.806   3.939
27095W        W  163  11.871  22.303   2.016
27096W        W  164  15.058  26.502  13.507
27097W        W  165  12.727   4.092   3.319
27098W        W  166  36.156  41.810   3.825
27099W        W  167   3.208  12.021   2.270
27100W        W  168   5.002  16.394   4.116
27101W        W  169  38.803   1.268   4.203
27102W        W  170  43.012  18.058  10.747
27103W        W  171   0.709  12.900  12.071
27104W        W  172  22.038   7.608   1.803
27105W        W  173  16.730  37.233   2.216
27106W        W  174  23.395  13.880  11.305
27107W        W  175  18.292  26.556  13.468
27108W        W  176   9.208   4.829   1.966
27109W        W  177  29.439  27.206   4.830
27110W        W  178  42.916   8.659   1.424
27111W        W  179   6.372  12.544   1.870
27112W        W  180  21.531   1.763  13.942
27113W        W  181   6.345  25.389   4.752
27114W        W  182  26.238  26.470  10.752
27115W        W  183  11.355   9.810   3.075
27116W        W  184  10.033   3.264   3.818
27117W        W  185  39.945  12.714  10.634
27118W        W  186   3.344  17.598  11.091
27119W        W  187  36.890  35.932   2.998
27120W        W  188  44.506  31.425  14.563
27121W        W  189   2.294   1.953  10.363
27122W        W  190  37.652  29.514  11.561
27123W        W  191  36.648  21.076  14.026
27124W        W  192  19.387  27.050  12.879
27125W        W  193  42.546  18.149  10.503
27126W        W  194  41.127   5.840   2.318
27127W        W  195  12.197  10.412   1.988
27128W        W  196  25.522  43.544  14.841
27129W        W  197  41.613  16.377   1.127
27130W        W  198  27.485   3.872   3.424
27131W        W  199  18.644  22.284   1.316
27132W        W  200  33.157  19.617   1.939
27133W        W  201  20.605  22.343  12.999
27134W        W  202   6.194  17.319   0.597
27135W        W  203  32.675  10.701   9.824
27136W        W  204  13.367  21.812   1.357
27137W        W  205  38.266  35.641  14.231
27138W        W  206   5.982  16.150  14.409
27139W        W  207  12.565  23.113  14.333
27140W        W  208  33.379  38.050   3.867
27141W        W  209  15.074  12.037  13.461
27142W        W  210  12.385   5.873  12.438
27143W        W  211  40.601  44.385  14.541
27144W        W  212  30.646   7.652   3.690
27145W        W  213   4.252  13.179   4.621
27146W        W  214  19.177  14.675   2.324
27147W        W  215   3.421  24.965   4.884
27148W        W  216   2.864   2.861  12.688
27149W        W  217  34.943  12.607   1.908
27150W        W  218   7.245   4.606   2.762
27151W        W  219  18.791  22.355   1.820
27152W        W  220  21.940  29.085  14.346
27153W        W  221   3.159  38.796  13.536
27154W        W  222   3.048  35.959   2.315
27155W        W  223  34.815  38.895  14.558
27156W        W  224  23.126   8.658   0.354
27157W        W  225  32.346   2.727   4.544
27158W        W  226  38.887   5.101  13.036
27159W        W  227  16.735  16.258  14.019
27160W        W  228  34.140   2.834  11.872
27161W        W  229   5.463  26.044  13.522
27162W        W  230  36.825  11.825  10.641
27163W        W  231   0.437   7.869   4.867
27164W        W  232  19.464  13.571   2.663
27165W        W  233  43.404  23.817   4.958
27166W        W  234  32.126  36.928   1.694
27167W        W  235  32.838  25.705   0.260
27168W        W  236   5.788  41.577   0.256
27169W        W  237  12.614  10.122  11.912
27170W        W  238  21.248   4.313  14.602
27171W        W  239  44.705  10.835  13.556
27172W        W  240   0.518   2.215  11.688
27173W        W  241   6.736  33.876  14.474
27174W        W  242  27.170  41.809   2.322
27175W        W  243  15.899  21.201  11.144
27176W        W  244  23.735  33.508  11.037
27177W        W  245  11.280  29.934   4.266
27178W        W  246   8.544   5.247  11.996
27179W        W  247  42.588  37.445  14.210
27180W        W  248  26.377   0.885  13.360
27181W        W  249  39.016  25.052  14.322
27182W        W  250  31.775  31.575  10.753
27183W        W  251  29.969   6.762  10.616
27184W        W  252  20.153  29.485  10.276
27185W        W  253   9.670  18.911  11.988
27186W        W  254  30.923  37.353   0.349
27187W        W  255  28.111  16.423   0.714
27188W        W  256  15.149   9.329  12.888
27189W        W  257  34.402  27.485   4.434
27190W        W  258  40.274   2.643   3.096
27191W        W  259  39.640  14.905   2.679
27192W        W  260  22.973   1.500   4.572
27193W        W  261  44.778   9.698   1.997
27194W        W  262  28.756   5.109  11.648
27195W        W  263  28.925  11.818   3.769
27196W        W  264  25.486   6.534   2.389
27197W        W  265  30.931  13.846  11.365
27198W        W  266  23.663  10.419  10.630
27199W        W  267  19.108  12.736   3.689
27200W        W  268  24.503  28.053   3.873
27201W        W  269  44.218  24.096  12.887
27202W        W  270  31.144  37.466  11.761
27203W        W  271  28.355   3.306  13.541
27204W        W  272  29.607   0.689   2.048
27205W        W  273  10.717  32.349   0.953
27206W        W  274  29.936  19.150  14.462
27207W        W  275  26.138  24.102   4.615
27208W        W  276  36.534   2.706   0.351
27209W        W  277   3.674  39.631   3.157
27210W        W  278  29.570  10.762  14.602
27211W        W  279  16.164  34.981  12.292
27212W        W  280  40.291  25.640   1.696
27213W        W  281  43.838  29.986  11.996
27214W        W  282  14.202  42.942  10.227
27215W        W  283  21.707   7.517   3.178
27216W        W  284  17.318  24.046  12.466
27217W        W  285   1.409  23.744   1.281
27218W        W  286   2.920   0.901  12.916
27219W        W  287  35.135  24.137   2.357
27220W        W  288  11.801  37.427   1.289
27221W        W  289   5.807  42.835  12.548
27222W        W  290  36.393   3.947  14.403
27223W        W  291  41.713  27.208   4.638
27224W        W  292  36.104  43.583   0.227
27225W        W  293  12.442  26.193   0.915
27226W        W  294  41.897  33.482  14.480
27227W        W  295  10.706  16.477   3.670
27228W        W  296   0.719  23.299  12.581
27229W        W  297  25.816   3.013  11.177
27230W        W  298  42.919  29.276  10.666
27231W        W  299  32.618  41.518   4.052
27232W        W  300  37.779  30.041  14.493
27233W        W  301  11.079  35.553  14.423
27234W        W  302   8.592  19.565  13.113
27235W        W  303  12.289  37.994  11.677
27236W        W  304  12.359  23.609  10.592
27237W        W  305  24.040  21.807  13.567
27238W        W  306  27.315  24.930  12.956
27239W        W  307  22.613  30.615  11.645
27240W        W  308  44.791  27.183   1.472
27241W        W  309  12.790  31.435  13.393
27242W        W  310   5.743  13.776   3.162
27243W        W  311  33.710  20.541   0.960
27244W        W  312  35.490   4.309   2.264
27245W        W  313  36.109  40.950  14.857
27246W        W  314   5.970  33.919  11.849
27247W        W  315  28.459  25.746  11.659
27248W        W  316   8.244  23.496   3.650
27249W        W  317  11.312  38.215   3.391
27250W        W  318  27.078  13.844  14.921
27251W        W  319   2.797  41.227  12.067
27252W        W  320  36.685  23.041  13.250
27253W        W  321   8.281   0.479   2.811
27254W        W  322  39.980  19.637  14.275
27255W        W  323  11.405  31.441   4.448
27256W        W  324  33.132  27.100   0.383
27257W        W  325  18.612  28.207  14.913
27258W        W  326  41.247  33.138  14.951
27259W        W  327  24.512  12.547  13.024
27260W        W  328   5.807  19.433  10.651
27261W        W  329   6.347   0.266   2.003
27262W        W  330  19.705  19.670   1.510
27263W        W  331  11.121  24.994  11.505
27264W        W  332  33.917   9.806  11.634
27265W        W  333  21.020  10.829  13.313
27266W        W  334  42.942  21.124  13.960
27267W        W  335  23.148  29.082   1.364
27268W        W  336   9.425  28.537  11.111
27269W        W  337  32.380  11.174   3.123
27270W        W  338   1.544   0.761  11.858
27271W        W  339   2.273  31.184  12.944
27272W        W  340  23.659  18.740  12.882
27273W        W  341  29.699  29.674   3.017
27274W        W  342  12.585  35.039   2.575
27275W        W  343  17.509   8.318  11.807
27276W        W  344  32.928  11.366  12.679
27277W        W  345  26.729  16.366  12.435
27278W        W  346  34.568   3.756   1.817
27279W        W  347  25.795  33.059   2.756
27280W        W  348   1.339   3.023  11.682
27281W        W  349  25.876  28.609   0.461
27282W        W  350   0.214   4.127  14.805
27283W        W  351  11.264  14.431  11.533
27284W        W  352   2.218  43.465   3.132
27285W        W  353  17.155   5.897   0.348
27286W        W  354   3.764  27.645  13.508
27287W        W  355  40.137  41.282   2.265
27288W        W  356  37.093   5.719  14.854
27289W        W  357  27.624  23.985   1.580
27290W        W  358  23.563  36.404   4.413
27291W        W  359  24.048  42.286   2.717
27292W        W  360  19.677   2.561   1.306
27293W        W  361  29.472  13.613  14.040
27294W        W  362  37.159  41.141   0.525
27295W        W  363  34.925  14.751  14.201
27296W        W  364  18.667  31.707   2.933
27297W        W  365  25.758  39.076   2.973
27298W        W  366   1.730  38.921  14.954
27299W        W  367  24.117  33.118   4.226
27300W        W  368  19.085  18.957  14.974
27301W        W  369  14.931  11.540  13.454
27302W        W  370  34.312  25.372  10.827
27303W        W  371   9.320  16.694   0.975
27304W        W  372  30.953   3.934  11.086
27305W        W  373  12.334  29.432  14.863
27306W        W  374  20.819  22.332   1.871
27307W        W  375  38.997  44.310  10.635
27308W        W  376  32.545  34.622   3.218
27309W        W  377  40.349  43.491  12.947
27310W        W  378  44.971  32.031  13.052
27311W        W  379  35.291  34.001   5.436
27312W        W  380  27.903  31.374  13.929
27313W        W  381  31.269  21.204  14.811
27314W        W  382   2.301  31.942   3.122
27315W        W  383  34.664  34.491   3.842
27316W        W  384  31.613  19.108   4.162
27317W        W  385  13.637   6.225   0.757
27318W        W  386   4.668   1.670   2.379
27319W        W  387   2.290  28.158  11.162
27320W        W  388  10.413  23.685   1.994
27321W        W  389  41.372  42.173   3.325
27322W        W  390  22.657   0.446  14.636
27323W        W  391  32.973  24.951   3.578
27324W        W  392  34.586  13.226   2.438
27325W        W  393  11.653   7.381   2.578
27326W        W  394  39.032  34.040  12.430
27327W        W  395  32.444  30.163  11.536
27328W        W  396  31.588  21.498   0.501
27329W        W  397   6.819  31.479   0.441
27330W        W  398  44.823  25.219   2.963
27331W        W  399  44.830  29.305  13.058
27332W        W  400  13.243  34.166  12.821
27333W        W  401  16.312  29.840   3.217
27334W        W  402  23.158  18.173  12.492
27335W        W  403  35.957  22.914   4.753
27336W        W  404   6.450   9.450   3.096
27337W        W  405  11.589  24.771  14.844
27338W        W  406  12.555  40.431  11.913
27339W        W  407  13.118   6.504   5.131
27340W        W  408  28.239  10.612   1.882
27341W        W  409   7.624   1.853   0.241
27342W        W  410  31.987  41.449  10.728
27343W        W  411  43.799   9.354  13.011
27344W        W  412  29.414  43.843   1.877
27345W        W  413   0.146  23.982   3.710
27346W        W  414  32.849  14.828   4.536
27347W        W  415  44.322  11.513  11.225
27348W        W  416   1.833  11.629   1.975
27349W        W  417   2.198   4.228   4.128
27350W        W  418  29.071  18.786  12.515
27351W        W  419  24.161  29.046  10.594
27352W        W  420  34.406  13.583  14.227
27353W        W  421  32.497   5.394  14.277
27354W        W  422  21.557  11.608   3.143
27355W        W  423   5.029   2.749  11.715
27356W        W  424  19.636  17.327   2.852
27357W        W  425  26.496  22.183   3.795
27358W        W  426  23.049   3.908  12.160
27359W        W  427  43.188   6.401   3.834
27360W        W  428  28.685  22.004  10.999
27361W        W  429  27.734   3.716   1.254
27362W        W  430  25.701   5.736  13.075
27363W        W  431  16.182  22.253   0.307
27364W        W  432  14.597  31.709   4.324
27365W        W  433  43.381  10.760   1.198
27366W        W  434  24.201  22.186   0.717
27367W        W  435  26.032  36.968  10.586
27368W        W  436   1.108  38.094   1.299
27369W        W  437  31.026   4.682   1.728
27370W        W  438  21.133  32.176   3.418
27371W        W  439  38.823   1.165  14.900
27372W        W  440  38.011  44.761  12.002
27373W        W  441  34.020  25.955  11.272
27374W        W  442  30.709  39.156  11.028
27375W        W  443  26.440  14.706  11.997
27376W        W  444  32.373  28.178   0.155
27377W        W  445   0.406  40.546  14.435
27378W        W  446  19.325  15.142   1.237
27379W        W  447  10.315  11.134   2.363
27380W        W  448   6.270  34.425  13.859
27381W        W  449  21.664   0.236  11.709
27382W        W  450  43.127  11.281   2.250
27383W        W  451  25.290  15.285   2.658
27384W        W  452  29.913  40.002   3.725
27385W        W  453   5.828  12.633  13.825
27386W        W  454  40.559  31.002   0.960
27387W        W  455  42.320  12.305   2.846
27388W        W  456  29.082  39.335   4.378
27389W        W  457  28.879  40.363   0.878
27390W        W  458  37.580   3.241  11.166
27391W        W  459  19.632   0.908   2.713
27392W        W  460  41.233  23.478   1.710
27393W        W  461  15.316  40.493  11.115
27394W        W  462  25.958  27.236   1.865
27395W        W  463  25.523  40.535  12.863
27396W        W  464  18.169  36.899  14.037
27397W        W  465  24.216   3.406  12.863
27398W        W  466  12.193  41.766   0.760
27399W        W  467   9.554  32.047  10.963
27400W        W  468  28.152  11.797  13.989
27401W        W  469  16.738  22.391  14.445
27402W        W  470  27.849  36.431  13.114
27403W        W  471  20.223  37.447  10.364
27404W        W  472  29.143   7.963  12.502
27405W        W  473  29.895  18.096  11.179
27406W        W  474  12.525  25.336   1.766
27407W        W  475  44.034  38.520  11.992
27408W        W  476  38.922  13.242   2.797
27409W        W  477  18.066  18.200  14.029
27410W        W  478  12.638   9.898  14.937
27411W        W  479  25.709  31.976   4.695
27412W        W  480   5.634  43.230  11.110
27413W        W  481  10.380  29.115   2.989
27414W        W  482  22.193  20.788  10.696
27415W        W  483   4.383  26.269   3.284
27416W        W  484  39.336   5.497   1.876
27417W        W  485  11.350  41.362   4.895
27418W        W  486   6.118   2.255   4.168
27419W        W  487   8.176  42.850  11.580
27420W        W  488  39.027  33.337  12.017
27421W        W  489  16.375  36.427  13.795
27422W        W  490  12.629   5.314   2.489
27423W        W  491   9.602  35.944  12.179
27424W        W  492   0.891  31.626  10.172
27425W        W  493  39.888   1.038  10.248
27426W        W  494  21.266  37.914  11.073
27427W        W  495  41.018  15.250   1.700
27428W        W  496  37.354   3.303  10.656
27429W        W  497   6.609  42.394   4.156
27430W        W  498  15.687  23.051  14.705
27431W        W  499  12.890   4.651   1.416
27432W        W  500  30.323  42.864   1.439
27433W        W  501   7.893   1.489   4.652
27434W        W  502  32.014  33.412  12.405
27435W        W  503  24.141   7.327   9.754
27436W        W  504  33.343  33.207   1.248
27437W        W  505  12.815  41.852   1.424
27438W        W  506  38.108  15.039  13.389
27439W        W  507  14.349  25.093   3.201
27440W        W  508  10.193  13.370  13.242
27441W        W  509  11.200  39.562   0.794
27442W        W  510   7.721   1.953  13.821
27443W        W  511  40.945   7.044   1.478
27444W        W  512  36.375  17.942  12.482
27445W        W  513  38.036  22.906   0.872
27446W        W  514  33.408  17.086  14.019
27447W        W  515   5.933  32.493   1.473
27448W        W  516  22.028  28.702  10.403
27449W        W  517  14.111  11.333  11.675
27450W        W  518  20.653  42.961   3.588
27451W        W  519  23.253  42.402   0.751
27452W        W  520   4.475  18.642  13.097
27453W        W  521   9.350  15.613   1.335
27454W        W  522   3.954  26.830  13.889
27455W        W  523  32.670  26.363  12.141
27456W        W  524  27.363  22.499   4.580
27457W        W  525  10.609  21.126   0.817
27458W        W  526   2.245  26.113  14.425
27459W        W  527  33.865  42.935   3.724
27460W        W  528   5.153   4.783  14.512
27461W        W  529  30.354  14.899   3.979
27462W        W  530  21.607  32.539  13.025
27463W        W  531  16.673   5.815   1.657
27464W        W  532  40.420  16.587  13.339
27465W        W  533  12.858  19.017   2.268
27466W        W  534  38.428   4.906  10.724
27467W        W  535  22.452  31.689  10.243
27468W        W  536  20.695  25.111   3.202
27469W        W  537   7.920  33.246  11.458
27470W        W  538  21.657  33.103  12.328
27471W        W  539   7.750   6.921  13.025
27472W        W  540   5.787  10.707   3.686
27473W        W  541  30.518  30.421   4.525
27474W        W  542  31.612   2.326  14.000
27475W        W  543  28.485  18.914   0.735
27476W        W  544   9.009  32.972  10.671
27477W        W  545   3.988  36.817  11.154
27478W        W  546  11.812   8.656  12.895
27479W        W  547  37.050  16.831  12.455
27480W        W  548  28.403  40.337  13.451
27481W        W  549  26.705  38.956   2.228
27482W        W  550  23.177   2.396  13.854
27483W        W  551  13.514   2.194   4.084
27484W        W  552  41.577  29.488  14.501
27485W        W  553  41.882  35.476   2.306
27486W        W  554   7.748  40.620   0.609
27487W        W  555  39.877  33.635  12.353
27488W        W  556   8.789   3.465  14.519
27489W        W  557  36.391   5.471  14.945
27490W        W  558  31.203  33.829  12.117
27491W        W  559  21.553   2.191   2.281
27492W        W  560  32.083  13.312  11.149
27493W        W  561  42.275   7.943  12.595
27494W        W  562  19.332  22.051  12.416
27495W        W  563   4.620  39.575   0.751
27496W        W  564  43.705  35.327  11.639
27497W        W  565  43.765  25.584   4.255
27498W        W  566   7.750  19.366   4.725
27499W        W  567  39.552  33.096  12.147
27500W        W  568  23.403  20.612  14.473
27501W        W  569  34.427  19.597   3.326
27502W        W  570   1.792   1.745  12.038
27503W        W  571  22.533   2.077   0.287
27504W        W  572  19.702  25.959  12.010
27505W        W  573  23.504  41.340   1.798
27506W        W  574   5.990   6.813   3.209
27507W        W  575  22.941  24.068   3.346
27508W        W  576  28.290  44.030  11.427
27509W        W  577   7.168  39.412   3.717
27510W        W  578  38.279  42.539   4.653
27511W        W  579  16.494   7.916  10.830
27512W        W  580  40.947  26.779  12.417
27513W        W  581  26.020   8.818   0.329
27514W        W  582  29.797  40.584   4.988
27515W        W  583  44.249  41.019   0.388
27516W        W  584  32.895  32.894   4.175
27517W        W  585   0.536  35.541  13.333
27518W        W  586  39.285  24.069   4.283
27519W        W  587  28.206   6.308  13.491
27520W        W  588   0.801  29.942   0.438
27521W        W  589   5.399  16.028   4.193
27522W        W  590  28.430  35.523  14.020
27523W        W  591   1.254   7.736  14.398
27524W        W  592  21.037   1.277   3.668
27525W        W  593   2.328  13.669   1.679
27526W        W  594   8.186  17.161   2.845
27527W        W  595  32.354  25.767   3.983
27528W        W  596  11.861  44.823   0.764
27529W        W  597  31.476   7.721  14.597
27530W        W  598  38.996  34.996   1.291
27531W        W  599  33.273  10.009  13.757
27532W        W  600  16.100  19.307   4.755
27533W        W  601   6.138  11.719   9.920
27534W        W  602  29.603  31.415   1.740
27535W        W  603  38.976  25.527  11.581
27536W        W  604  41.974  14.042  10.684
27537W        W  605   9.910  40.021  12.851
27538W        W  606  13.203  30.749   3.878
27539W        W  607  28.886  32.156  12.420
27540W        W  608  22.350  27.817   5.037
27541W        W  609  29.650  34.143   4.119
27542W        W  610   6.691  19.558   2.339
27543W        W  611  36.540  43.592  11.088
27544W        W  612  24.262  36.843  11.645
27545W        W  613   9.781  36.535   0.805
27546W        W  614  25.894   5.436  13.687
27547W        W  615  28.977   8.300  11.765
27548W        W  616  23.130  42.325  13.073
27549W        W  617  18.819  44.724  11.060
27550W        W  618  27.716  11.096   1.214
27551W        W  619  27.651  25.482  11.537
27552W        W  620  30.569  41.167  13.090
27553W        W  621   9.837  42.710  10.144
27554W        W  622  42.331  43.306  13.017
27555W        W  623  40.527  36.082   2.298
27556W        W  624  39.899  21.510  11.551
27557W        W  625  37.216   4.284  10.295
27558W        W  626  43.784  44.396  14.360
27559W        W  627  44.310  28.912  10.642
27560W        W  628  26.154   7.346  12.802
27561W        W  629  23.995  35.950  11.212
27562W        W  630   9.739  15.214   1.425
27563W        W  631   0.216   2.867  13.995
27564W        W  632  42.786  30.472   0.857
27565W        W  633  34.555  24.235  13.429
27566W        W  634  10.901  29.449  13.476
27567W        W  635  25.593  18.024  13.645
27568W        W  636   3.783  27.961  12.117
27569W        W  637   5.181  27.205  10.431
27570W        W  638  30.504  27.749   0.347
27571W        W  639  40.205  28.232  14.693
27572W        W  640  28.641   9.963   4.199
27573W        W  641   3.345  24.215   3.127
27574W        W  642  33.303  41.270  14.274
27575W        W  643  40.480  42.897  11.154
27576W        W  644  35.252  40.835  14.507
27577W        W  645  16.963  15.792  10.233
27578W        W  646  21.189   4.128   1.010
27579W        W  647  21.438  33.585  12.423
27580W        W  648  35.456  22.779   4.231
27581W        W  649  28.464  23.506   1.937
27582W        W  650  43.878  25.130  11.300
27583W        W  651  44.457  17.338  10.210
27584W        W  652  34.639  33.202  14.386
27585W        W  653  27.167  13.197  14.505
27586W        W  654   4.154  19.547  12.072
27587W        W  655  17.370  20.612   4.928
27588W        W  656  18.872  43.242  14.849
27589W        W  657  42.327  13.746   9.886
27590W        W  658  33.894  42.222  12.495
27591W        W  659  41.482  15.649  14.932
27592W        W  660  33.043  16.063   0.068
27593W        W  661  38.617  23.768  12.118
27594W        W  662   0.825  13.900  13.964
27595W        W  663  44.834  17.783  12.604
27596W        W  664   9.890  12.564  12.379
27597W        W  665  34.981  33.908   0.950
27598W        W  666  31.298  10.764  12.407
27599W        W  667   4.977  18.658   0.703
27600W        W  668   4.687  30.930   0.023
27601W        W  669  43.323  12.873  11.160
27602W        W  670  30.993  32.213   3.692
27603W        W  671  26.780   3.214  11.229
27604W        W  672  14.115  18.164   4.296
27605W        W  673  43.220  23.742   3.907
27606W        W  674  42.357   8.978  14.079
27607W        W  675   2.012  33.008   1.022
27608W        W  676  17.744  26.156   0.011
27609W        W  677  11.767  32.952  13.736
27610W        W  678   9.772   7.350   0.341
27611W        W  679   0.850  25.498   3.256
27612W        W  680  44.968   7.690  14.526
27613W        W  681  24.434   3.483   2.919
27614W        W  682  39.613   8.602   0.300
27615W        W  683   1.079  11.584   3.685
27616W        W  684  42.870   6.704   2.901
27617W        W  685   2.851  37.781   4.195
27618W        W  686  13.231  38.312  12.184
27619W        W  687  33.433   6.906  13.851
27620W        W  688  16.754   5.641  12.851
27621W        W  689  22.873  43.974   4.672
27622W        W  690   1.344  30.009  10.430
27623W        W  691   1.460   2.167  12.024
27624W        W  692  31.182  44.576   2.659
27625W        W  693  31.995  43.502   4.746
27626W        W  694  43.029  24.109  14.421
27627W        W  695  37.350   8.239   0.535
27628W        W  696   4.005   0.985   0.322
27629W        W  697  28.465  10.336   4.575
27630W        W  698  36.348   8.808  11.478
27631W        W  699  18.292  39.495  11.701
27632W        W  700  30.073  12.167  11.640
27633W        W  701   9.351  31.427   0.110
27634W        W  702   1.901   8.722   1.959
27635W        W  703   7.613  23.807  14.268
27636W        W  704  34.464  37.405   4.028
27637W        W  705  30.937  10.185  14.447
27638W        W  706  13.215  26.123   0.364
27639W        W  707  34.157  31.375  14.286
27640W        W  708  34.463   4.464  14.250
27641W        W  709   0.480  13.626   2.740
27642W        W  710  24.334  35.789   2.587
27643W        W  711  39.625  20.723   0.774
27644W        W  712  20.765   2.436  10.549
27645W        W  713  12.098  20.141   0.935
27646W        W  714  42.527  32.207   1.285
27647W        W  715  18.705  44.922   4.763
27648W        W  716  30.884  39.534  13.589
27649W        W  717  44.240   3.567   3.846
27650W        W  718  31.958  16.462  12.860
27651W        W  719   7.651  10.707   2.624
27652W        W  720  30.079  39.529  11.246
27653W        W  721  28.173  32.197   2.770
27654W        W  722  32.580  38.546   0.467
27655W        W  723  25.597   5.691   2.200
27656W        W  724   6.904  16.547   4.119
27657W        W  725  22.010  17.569   1.646
27658W        W  726  21.235  10.751   2.756
27659W        W  727  44.195   8.884  11.616
27660W        W  728  25.121  21.025   4.251
27661W        W  729  25.674  11.233  14.506
27662W        W  730  18.265  41.931   4.574
27663W        W  731  39.548  14.065  14.420
27664W        W  732  10.350  39.451   3.839
27665W        W  733   7.838  22.440   2.736
27666W        W  734  24.097   0.787   0.020
27667W        W  735   3.780  44.436  12.066
27668W        W  736  26.676  25.057  10.335
27669W        W  737  31.562  35.651   1.783
27670W        W  738  21.285  30.020   4.810
27671W        W  739  33.197   0.703   2.459
27672W        W  740  17.057  37.482  11.031
27673W        W  741  10.742  29.612   3.239
27674W        W  742  30.552  38.536  12.052
27675W        W  743  15.725  23.049   1.538
27676W        W  744   8.424  34.914   2.787
27677W        W  745  10.222   4.893  14.630
27678W        W  746  41.344  26.224  14.041
27679W        W  747  23.738  11.135  14.763
27680W        W  748  41.808   7.656  13.324
27681W        W  749  19.476  44.000   2.448
27682W        W  750  30.372  41.830   4.182
27683W        W  751  41.480  36.509   3.340
27684W        W  752   7.955   5.002   2.757
27685W        W  753  31.311  39.340   0.423
27686W        W  754   1.514  17.521   1.467
27687W        W  755  24.415   5.238   4.662
27688W        W  756  19.299   0.911   4.563
27689W        W  757  11.195  14.044   3.335
27690W        W  758  30.857  15.375  14.024
27691W        W  759  27.173  13.701   4.554
27692W        W  760   5.216  40.297   4.142
27693W        W  761  25.094  40.790   5.397
27694W        W  762  25.074   8.795   3.864
27695W        W  763  37.054  32.647   2.247
27696W        W  764  25.233   4.809   2.038
27697W        W  765  34.340  42.441   0.838
27698W        W  766  28.553  41.479   1.900
27699W        W  767  11.162   7.112   0.803
27700W        W  768  20.736  38.962  10.569
27701W        W  769  44.204  15.634  12.310
27702W        W  770  27.922  42.269  13.986
27703W        W  771  35.964  28.252   4.120
27704W        W  772  44.465  44.491  11.971
27705W        W  773  33.610  24.996  11.994
27706W        W  774  44.494   5.389  14.392
27707W        W  775  26.007  27.507   0.493
27708W        W  776  29.654  18.000   1.864
27709W        W  777  21.556  22.797  13.048
27710W        W  778   3.030  34.412  13.181
27711W        W  779   7.839  14.372   4.164
27712W        W  780   4.228  31.154  14.999
27713W        W  781  19.768  37.533   1.452
27714W        W  782   6.256  34.519  12.986
27715W        W  783  18.611   7.936   0.719
27716W        W  784  17.855  27.878   2.968
27717W        W  785  23.062  39.777   1.914
27718W        W  786  11.665  33.190   2.463
27719W        W  787  34.555   4.881  11.896
27720W        W  788   8.391  14.223  10.826
27721W        W  789  20.104  25.255  11.617
27722W        W  790   5.397  41.814   1.030
27723W        W  791   7.748   1.302  12.434
27724W        W  792  30.016   3.693   0.258
27725W        W  793  29.511  33.377   2.757
27726W        W  794  13.664  12.192  14.547
27727W        W  795  41.842  27.055   0.175
27728W        W  796  44.554  37.404  11.583
27729W        W  797  31.490  16.090   3.172
27730W        W  798  27.609  33.715  11.604
27731W        W  799  41.082   6.429  13.335
27732W        W  800  22.680  41.243  13.052
27733W        W  801  18.840  23.239   1.626
27734W        W  802  36.938  21.390  10.579
27735W        W  803  20.751  36.778  11.208
27736W        W  804  44.714  31.094   4.062
27737W        W  805   6.755  16.853  14.451
27738W        W  806  35.926  21.573  12.204
27739W        W  807  25.126   5.388  13.345
27740W        W  808  22.147  19.006  10.674
27741W        W  809  40.826   1.166   5.483
27742W        W  810   8.851   2.467  11.513
27743W        W  811  25.616  28.609  13.147
27744W        W  812   7.261  32.305  13.942
27745W        W  813  32.575  42.255  13.313
27746W        W  814  44.900   0.236   3.170
27747W        W  815  24.986  37.970   2.211
27748W        W  816   5.916   5.272  12.968
27749W        W  817   6.443  34.124   1.301
27750W        W  818  24.609   2.410   1.771
27751W        W  819  15.206  36.954  14.412
27752W        W  820  10.787  28.764   0.108
27753W        W  821  29.896  35.646  12.092
27754W        W  822  39.894  14.661   3.339
27755W        W  823   5.765  38.234  12.850
27756W        W  824   4.366  28.205   2.293
27757W        W  825  44.069  25.576   0.533
27758W        W  826  25.630  34.828   5.055
27759W        W  827  41.235  10.720  10.530
27760W        W  828   9.598  42.020  13.043
27761W        W  829  18.053  19.543  12.418
27762W        W  830  15.396  42.036   1.474
27763W        W  831   8.705  11.734   3.512
27764W        W  832  21.142   3.759  12.308
27765W        W  833  13.643  34.858  14.949
27766W        W  834  39.521  26.874   4.490
27767W        W  835  36.654  26.408   4.175
27768W        W  836  16.993  24.242   3.180
27769W        W  837  23.513  41.051  11.020
27770W        W  838  10.847  33.825  14.549
27771W        W  839  14.860  13.704   3.795
27772W        W  840  35.084  43.915  13.163
27773W        W  841  23.510  41.362  14.016
27774W        W  842   8.470  12.856   0.956
27775W        W  843  22.008  23.534   0.887
27776W        W  844  20.689  23.413   3.805
27777W        W  845  24.284  44.834   1.898
27778W        W  846   2.205  11.293   3.009
27779W        W  847   0.261  25.930  12.002
27780W        W  848   4.297  14.270  13.300
27781W        W  849  30.088   9.314   0.802
27782W        W  850  40.397  44.042   1.364
27783W        W  851   8.253   0.496   2.299
27784W        W  852  19.766   8.996  14.352
27785W        W  853  18.002  19.044  13.724
27786W        W  854  36.880   2.205  11.149
27787W        W  855  43.735  18.784  13.900
27788W        W  856  13.382  37.418  13.387
27789W        W  857  20.522  35.048   2.067
27790W        W  858   0.651  18.142  14.405
27791W        W  859   6.720  39.867  10.286
27792W        W  860  25.989   1.639  12.803
27793W        W  861  10.763  39.143  11.562
27794W        W  862  38.193  39.369   1.024
27795W        W  863  23.548  43.292   1.326
27796W        W  864  40.420  38.040  13.947
27797W        W  865  13.769  31.415  12.792
27798W        W  866  36.155  16.692  13.857
27799W        W  867  39.867  11.538   2.809
27800W        W  868  25.560  12.511   5.069
27801W        W  869  32.438  24.040   3.700
27802W        W  870  15.197  21.787   3.360
27803W        W  871  25.575  28.590  13.639
27804W        W  872  32.396   7.147  11.984
27805W        W  873   6.240  19.729  14.445
27806W        W  874  37.913  29.611  14.241
27807W        W  875  11.710  33.613   4.643
27808W        W  876  19.223  13.074  14.998
27809W        W  877   2.697   0.213  13.362
27810W        W  878  30.008  20.598   3.738
27811W        W  879   8.855  30.769   2.473
27812W        W  880  22.107  38.008   1.214
27813W        W  881  30.830  28.616  12.498
27814W        W  882   5.806  41.997  13.795
27815W        W  883   7.746  29.055   4.649
27816W        W  884   2.393  10.792   2.938
27817W        W  885  25.685  35.366  12.953
27818W        W  886  15.723   2.321  11.511
27819W        W  887   8.335   8.178   2.988
27820W        W  888  29.126  21.766  12.451
27821W        W  889  19.682   5.798  13.073
27822W        W  890   6.750   2.945   0.829
27823W        W  891  27.676  25.903  11.093
27824W        W  892  38.505  31.506  13.066
27825W        W  893  33.643  10.231  12.656
27826W        W  894  18.407  38.745  13.926
27827W        W  895  29.239  35.755   0.982
27828W        W  896  31.064   0.865   3.492
27829W        W  897  29.250  34.541   1.939
27830W        W  898  42.253  29.086   0.121
27831W        W  899  22.804  14.769  12.021
27832W        W  900  22.258  10.682  13.911
27833W        W  901  30.846   0.636  13.834
27834W        W  902  14.345  20.695  14.903
27835W        W  903  15.795  31.304  12.450
27836W        W  904   4.805  12.980  12.067
27837W        W  905   2.369  10.592  13.391
27838W        W  906  39.445   2.093  13.818
27839W        W  907  22.541  39.820  12.106
27840W        W  908  22.635  38.860   2.537
27841W        W  909  17.341   7.228  12.079
27842W        W  910  11.363  34.411   4.575
27843W        W  911   0.045  31.697  10.670
27844W        W  912   0.450  12.031  14.234
27845W        W  913  10.823   9.334  11.121
27846W        W  914  40.928  31.485  14.235
27847W        W  915  43.794   9.585  11.610
27848W        W  916  38.119  32.350   4.134
27849W        W  917  10.343  21.620  12.419
27850W        W  918   7.653  19.153  14.443
27851W        W  919  20.213  18.693   3.687
27852W        W  920  28.434  39.932  14.555
27853W        W  921  20.503  12.788   4.605
27854W        W  922  21.549  31.957   2.657
27855W        W  923  22.712   9.204   2.263
27856W        W  924  39.075  35.437   0.303
27857W        W  925   6.226   8.432   2.786
27858W        W  926  21.791  10.344   4.049
27859W        W  927  24.476   0.486  14.380
27860W        W  928  12.057  21.446   1.391
27861W        W  929  41.146   7.222   2.374
27862W        W  930   6.332  12.378  12.282
27863W        W  931  17.801  19.605   2.375
27864W        W  932  34.512  36.015   1.839
27865W        W  933  41.230   6.242   4.553
27866W        W  934  36.341  24.099  13.989
27867W        W  935   2.543  19.523   0.464
27868W        W  936   8.561  36.677   0.349
27869W        W  937   7.698   6.420  14.959
27870W        W  938   8.750  24.566  14.467
27871W        W  939  16.662  24.146   2.740
27872W        W  940  22.268  16.779  11.976
27873W        W  941  20.029  23.801  14.376
27874W        W  942  26.939  15.529   0.830
27875W        W  943  41.756  34.186   1.666
27876W        W  944   2.225  19.119  13.000
27877W        W  945  13.126  38.041  14.931
27878W        W  946   3.928  25.041  14.744
27879W        W  947  30.122   3.309  14.901
27880W        W  948  27.456  40.591   0.913
27881W        W  949  42.017  13.878  12.112
27882W        W  950   0.904  14.947   2.081
27883W        W  951  28.530   8.739  13.426
27884W        W  952   9.885  26.196   1.471
27885W        W  953  33.961  36.379   1.757
27886W        W  954  40.440   1.404   5.209
27887W        W  955  21.020   0.843  11.489
27888W        W  956  33.462  27.669  10.871
27889W        W  957  29.168   0.291  12.345
27890W        W  958  30.438  23.542   1.304
27891W        W  959  41.454   1.082   0.392
27892W        W  960  43.576   4.788  12.379
27893W        W  961  23.787   8.672   3.535
27894W        W  962  13.137   0.859  14.875
27895W        W  963  40.901  40.445   4.799
27896W        W  964  35.958  19.133   2.179
27897W        W  965  17.287   8.739   4.499
27898W        W  966  40.091  20.149  14.457
27899W        W  967  18.859  40.308   2.288
27900W        W  968  22.152  16.806  10.648
27901W        W  969   8.796  41.552  10.590
27902W        W  970   9.246  38.380  13.567
27903W        W  971  21.224   8.742   3.837
27904W        W  972   3.819  39.102   3.223
27905W        W  973  38.429  35.522  14.706
27906W        W  974  42.841  24.811  10.972
27907W        W  975  24.217   6.464   3.198
27908W        W  976   6.165   9.217   2.711
27909W        W  977   6.649  41.461   0.339
27910W        W  978  33.084  16.308  12.222
27911W        W  979  42.038  24.034   0.054
27912W        W  980   1.820  38.301  12.825
27913W        W  981   4.810  25.629  11.517
27914W        W  982   1.950  13.173   2.757
27915W        W  983   5.318  36.192  13.784
27916W        W  984  16.279  28.043   1.844
27917W        W  985   4.818  31.127  13.898
27918W        W  986  32.959  31.482   4.065
27919W        W  987  33.015  32.455   4.378
27920W        W  988   7.986  26.576   0.474
27921W        W  989  14.698  38.817   2.195
27922W        W  990   1.945  30.439   0.494
27923W        W  991   4.903  36.340  12.452
27924W        W  992  14.610   8.625   3.920
27925W        W  993   3.115  15.409  11.206
27926W        W  994  21.184  27.728  13.103
27927W        W  995  11.553   0.330  11.019
27928W        W  996  17.649  23.241  10.652
27929W        W  997  23.254  12.591  10.638
27930W        W  998  16.719  11.083   4.113
27931W        W  999  12.571  14.917   0.663
27932W        W 1000  32.552  14.176   5.059
27933W        W 1001  12.686  28.081   1.411
27934W        W 1002  36.508  10.175  10.240
27935W        W 1003  30.384  35.372   3.289
27936W        W 1004   7.956   5.349   1.433
27937W        W 1005   3.958  33.392  11.141
27938W        W 1006   9.712   9.424  14.219
27939W        W 1007   2.401  39.913  11.917
27940W        W 1008  36.864  36.439  12.173
27941W        W 1009  31.997  26.104  14.857
27942W        W 1010   1.044  43.867   2.211
27943W        W 1011   2.360  32.544   2.403
27944W        W 1012  25.667  33.685  10.738
27945W        W 1013  40.383   9.694   2.215
27946W        W 1014  19.575  15.343   0.550
27947W        W 1015   1.999  35.893   4.142
27948W        W 1016   8.914  44.858   4.794
27949W        W 1017  30.692   2.975   3.686
27950W        W 1018   1.504  11.063  11.592
27951W        W 1019  26.127  11.429   0.297
27952W        W 1020  44.776  44.762   3.769
27953W        W 1021  17.687  38.067   2.320
27954W        W 1022   7.312  42.000   2.210
27955W        W 1023  31.179   3.398   2.210
27956W        W 1024  30.352  33.809   0.548
27957W        W 1025  35.786   7.696   2.177
27958W        W 1026  44.466  25.053   1.855
27959W        W 1027  31.209   3.519  11.289
27960W        W 1028  29.202  28.156   0.560
27961W        W 1029  26.953  15.132  14.405
27962W        W 1030   9.339  14.525  10.677
27963W        W 1031  24.021   9.752  14.291
27964W        W 1032  10.703  16.279  14.449
27965W        W 1033  12.458  20.477  12.095
27966W        W 1034  22.272  33.588   2.137
27967W        W 1035  14.271  25.985  10.458
27968W        W 1036   1.220  27.924   4.612
27969W        W 1037  34.111  16.609   4.559
27970W        W 1038   0.498  25.192   0.434
27971W        W 1039  43.392  28.592  13.308
27972W        W 1040   0.271  43.369   2.395
27973W        W 1041  15.605   8.319  12.040
27974W        W 1042  42.791   7.675  14.531
27975W        W 1043  10.255  23.584   0.974
27976W        W 1044  31.733   7.230   3.930
27977W        W 1045  34.023   3.490   4.678
27978W        W 1046  26.948  28.667  12.453
27979W        W 1047   4.552   8.876  11.206
27980W        W 1048   3.857  39.365  12.124
27981W        W 1049  35.924  35.046  13.244
27982W        W 1050  41.057  43.773   0.187
27983W        W 1051   8.700  11.703   2.791
27984W        W 1052  28.098   5.739  14.502
27985W        W 1053  38.301  17.410   3.227
27986W        W 1054  42.912  27.050   1.568
27987W        W 1055  14.675  15.115   3.654
27988W        W 1056  21.654  15.878   0.869
27989W        W 1057  44.291  34.406  12.123
27990W        W 1058  41.406  15.081   2.704
27991W        W 1059   0.045   5.597   3.346
27992W        W 1060  24.991   7.354   1.863
27993W        W 1061  40.351   7.649  12.386
27994W        W 1062  25.147  23.504   2.767
27995W        W 1063   8.858   4.136   3.696
27996W        W 1064  43.220   0.854   2.419
27997W        W 1065  17.680   3.814  12.029
27998W        W 1066  17.198  30.975   2.292
27999W        W 1067  22.063  37.401   2.410
28000W        W 1068  34.386  39.186   2.391
28001W        W 1069  32.326  14.248  13.853
28002W        W 1070  29.491  32.575   1.635
28003W        W 1071  17.802   0.567   3.790
28004W        W 1072   4.500  19.721  10.284
28005W        W 1073   8.650  22.638  14.727
28006W        W 1074  32.178  25.560   4.532
28007W        W 1075  44.785  23.093  12.480
28008W        W 1076   4.522  35.885   2.701
28009W        W 1077  29.422  19.157  13.601
28010W        W 1078  15.272  42.238   0.231
28011W        W 1079  32.964  34.188  14.032
28012W        W 1080  16.713  24.899   0.048
28013W        W 1081  21.303  28.137   0.875
28014W        W 1082  14.159  35.373   5.022
28015W        W 1083  18.331  21.091   3.598
28016W        W 1084  15.215  42.416  12.533
28017W        W 1085  13.216  14.436  14.970
28018W        W 1086   2.238  23.752   4.152
28019W        W 1087   9.848  38.112   4.145
28020W        W 1088  18.482  41.007  11.031
28021W        W 1089  10.655   1.369  10.602
28022W        W 1090  40.518  14.246  14.562
28023W        W 1091  28.716  29.399  12.069
28024W        W 1092  43.436  37.301   1.494
28025W        W 1093   4.626   5.467  13.335
28026W        W 1094  11.113  10.871  12.789
28027W        W 1095  32.893  30.177   1.930
28028W        W 1096  23.984  19.026  11.129
28029W        W 1097  42.932  28.602  13.549
28030W        W 1098  32.169   7.866   0.422
28031W        W 1099   1.507  22.229  12.220
28032W        W 1100  15.030  13.837   1.407
28033W        W 1101  11.690  31.045   0.318
28034W        W 1102   0.840  25.123  12.816
28035W        W 1103  44.791  42.353   4.629
28036W        W 1104  21.285  14.906   4.077
28037W        W 1105  23.625   4.364  12.779
28038W        W 1106   9.078   1.844   0.739
28039W        W 1107  23.491  30.066  11.151
28040W        W 1108  40.307  20.531  12.972
28041W        W 1109  32.099  15.549   1.302
28042W        W 1110  27.124  16.133   3.363
28043W        W 1111  27.692  37.013   0.252
28044W        W 1112  27.927  34.882   2.797
28045W        W 1113  21.532   0.142   4.451
28046W        W 1114   7.870   6.793  13.860
28047W        W 1115  44.718  25.640  13.355
28048W        W 1116  22.684   8.687   2.311
28049W        W 1117   8.605  12.611  14.324
28050W        W 1118  23.995  34.938  14.930
28051W        W 1119   9.571  21.455   3.285
28052W        W 1120  29.272  11.667   2.305
28053W        W 1121   2.369   3.434  14.767
28054W        W 1122  11.633  37.605   0.263
28055W        W 1123  22.735  17.036  11.520
28056W        W 1124  10.666  19.728   1.240
28057W        W 1125  31.512  42.909  10.682
28058W        W 1126  35.819  34.600  14.506
28059W        W 1127  38.817  16.882   3.749
28060W        W 1128  30.683  24.933  12.584
28061W        W 1129  41.087  44.631  10.105
28062W        W 1130  30.932  14.701  12.415
28063W        W 1131  16.125  43.045  13.941
28064W        W 1132  13.600   1.902   1.882
28065W        W 1133  14.667  28.715   3.842
28066W        W 1134  35.629  28.285  14.015
28067W        W 1135  17.145  38.927  12.003
28068W        W 1136  21.095  11.977   1.529
28069W        W 1137   8.393  30.188   3.197
28070W        W 1138   8.411  21.845   1.274
28071W        W 1139  44.965  43.600   0.313
28072W        W 1140   7.780  33.065   4.652
28073W        W 1141  33.635   8.339  10.398
28074W        W 1142  20.338  17.303   2.254
28075W        W 1143  34.449  34.740  14.389
28076W        W 1144  29.061  42.264   3.140
28077W        W 1145  26.434   2.114  13.513
28078W        W 1146  18.404  26.410   4.713
28079W        W 1147  27.107   4.309  14.328
28080W        W 1148  18.716   2.193  11.535
28081W        W 1149  42.880  40.837  14.861
28082W        W 1150  39.354  41.008   0.240
28083W        W 1151  27.869  11.227   5.042
28084W        W 1152  12.358  17.642  12.121
28085W        W 1153  23.577  10.251  14.637
28086W        W 1154  23.449   5.791   3.111
28087W        W 1155  32.340  40.346  14.871
28088W        W 1156  24.169   7.348  11.491
28089W        W 1157   1.020  38.713   3.066
28090W        W 1158   4.968  43.769  13.150
28091W        W 1159  36.975  19.041   1.962
28092W        W 1160  12.060  31.119   1.715
28093W        W 1161  44.717   4.053  10.788
28094W        W 1162  15.092   8.897   1.345
28095W        W 1163   5.283   6.469   1.723
28096W        W 1164   6.986  32.052  11.339
28097W        W 1165  39.519  23.285  11.566
28098W        W 1166   8.899  27.916   4.169
28099W        W 1167  37.411  42.245  13.501
28100W        W 1168  25.477  23.948   0.360
28101W        W 1169  15.100  14.812  12.000
28102W        W 1170   4.162  21.257  13.035
28103W        W 1171  19.299  43.461  11.411
28104W        W 1172  23.696  20.837   3.294
28105W        W 1173  31.568   2.198   0.024
28106W        W 1174  16.851  21.046  14.718
28107W        W 1175  10.364   1.276  12.550
28108W        W 1176  19.036  43.771   3.852
28109W        W 1177  14.371   8.991  13.913
28110W        W 1178  32.113  40.947  14.020
28111W        W 1179  37.149  22.466  14.499
28112W        W 1180   5.732  16.142  11.963
28113W        W 1181   4.995  34.133   0.344
28114W        W 1182  14.865  15.034   1.737
28115W        W 1183  25.447  29.992  13.853
28116W        W 1184  30.830  12.885   0.857
28117W        W 1185  40.958  42.375  14.324
28118W        W 1186   7.666  32.924   0.276
28119W        W 1187  23.591  15.843  11.402
28120W        W 1188   1.184  10.346   2.782
28121W        W 1189   4.721  24.268   0.349
28122W        W 1190  19.015  10.624   1.959
28123W        W 1191  31.958  35.589  11.025
28124W        W 1192  36.481  11.634   0.885
28125W        W 1193  28.389   6.607   4.367
28126W        W 1194  18.918  27.503   0.378
28127W        W 1195  27.393  11.663  14.952
28128W        W 1196  14.634   8.586   3.398
28129W        W 1197  32.060   8.722   2.750
28130W        W 1198  27.140  44.308  14.883
28131W        W 1199  42.982  32.829   4.709
28132W        W 1200  35.594  37.890   2.138
28133W        W 1201   4.294  34.654   4.057
28134W        W 1202  23.604  26.141  11.663
28135W        W 1203  44.480  44.896   3.290
28136W        W 1204  41.847  10.709   0.706
28137W        W 1205   1.785   4.870   1.348
28138W        W 1206   0.506   8.725   1.390
28139W        W 1207   8.258  24.667   2.857
28140W        W 1208  34.330  20.060   2.261
28141W        W 1209  36.431  40.035   4.323
28142W        W 1210  44.983  13.811  14.877
28143W        W 1211  26.261  39.049  10.047
28144W        W 1212  16.831  11.350   3.690
28145W        W 1213   0.535  28.108   1.715
28146W        W 1214  24.256  40.894  12.412
28147W        W 1215   8.306  27.648  12.881
28148W        W 1216  11.138   2.961  10.910
28149W        W 1217  24.752  38.351   5.028
28150W        W 1218  17.027  42.791   1.418
28151W        W 1219  15.367  39.084  12.153
28152W        W 1220  20.115  27.614  14.722
28153W        W 1221  38.901  11.549   2.286
28154W        W 1222  16.166  24.662   3.175
28155W        W 1223  12.357  16.886  13.340
28156W        W 1224  20.372  28.516   3.675
28157W        W 1225  24.982  39.512   1.399
28158W        W 1226  26.019  38.222   4.443
28159W        W 1227  24.390  28.848   0.782
28160W        W 1228  19.621  17.778  10.661
28161W        W 1229  34.065   4.449   2.319
28162W        W 1230   6.841   2.518  12.660
28163W        W 1231   0.949  24.913  10.722
28164W        W 1232  37.513   6.705  12.564
28165W        W 1233  11.269   5.757   4.547
28166W        W 1234   1.250  13.879  12.782
28167W        W 1235  24.213  41.323   0.836
28168W        W 1236  12.884   6.436  13.053
28169W        W 1237   4.011  40.343   1.461
28170W        W 1238  39.410   6.352  13.936
28171W        W 1239  13.596  12.334   0.851
28172W        W 1240  36.796   3.097   0.599
28173W        W 1241  21.293  10.536  12.935
28174W        W 1242  39.925  39.517   2.310
28175W        W 1243  15.389  19.869  11.282
28176W        W 1244  43.984   3.332   0.269
28177W        W 1245  37.479  11.357  11.626
28178W        W 1246  27.563   6.666   4.244
28179W        W 1247   0.233   7.397   4.785
28180W        W 1248   0.468  37.039   2.740
28181W        W 1249  42.284  38.408  13.363
28182W        W 1250  26.851  41.014   1.005
28183W        W 1251   3.155  39.539   0.717
28184W        W 1252  43.455  36.500   2.278
28185W        W 1253   4.302   0.831   3.858
28186W        W 1254   2.842  43.877  10.920
28187W        W 1255  23.202   0.877  10.604
28188W        W 1256  31.241  22.007  13.478
28189W        W 1257   1.950  44.703   3.740
28190W        W 1258  14.826   8.776  11.936
28191W        W 1259  13.261  25.447   2.294
28192W        W 1260  16.749  10.929   2.225
28193W        W 1261  32.615  36.767  13.373
28194W        W 1262  16.801  15.002  12.412
28195W        W 1263   7.276  30.659  10.663
28196W        W 1264  25.048  38.097   4.607
28197W        W 1265  15.581  24.195   4.658
28198W        W 1266   9.782  44.828   3.084
28199W        W 1267  33.374  14.744  14.995
28200W        W 1268  23.260  42.400   3.236
28201W        W 1269   1.797  24.426  13.423
28202W        W 1270   2.512  42.677   2.746
28203W        W 1271  28.131  35.006  14.879
28204W        W 1272   7.193   5.264   0.296
28205W        W 1273  34.593  14.325  12.371
28206W        W 1274   4.728  43.358  12.533
28207W        W 1275  34.131  34.826  11.596
28208W        W 1276  42.310  37.739   3.266
28209W        W 1277   5.122  43.949  11.394
28210W        W 1278  22.950   1.241   3.323
28211W        W 1279  24.413  39.337  13.634
28212W        W 1280  40.741   6.377   0.406
28213W        W 1281  16.198  14.144   5.035
28214W        W 1282  38.119  14.846   1.835
28215W        W 1283   4.472  12.726  12.403
28216W        W 1284  10.243  16.078   2.573
28217W        W 1285  33.922  18.823   1.298
28218W        W 1286  36.653  41.767   1.901
28219W        W 1287  10.112  24.956  13.347
28220W        W 1288  21.585  23.943  12.473
28221W        W 1289   0.479  34.058  11.507
28222W        W 1290  14.437  44.958   2.179
28223W        W 1291  44.632   6.748  12.977
28224W        W 1292  13.676  28.090   1.924
28225W        W 1293  42.406  21.447   1.618
28226W        W 1294  28.917  22.612  12.020
28227W        W 1295  19.315  20.152   1.389
28228W        W 1296  35.051   8.239   0.019
28229W        W 1297  44.911   1.485   0.629
28230W        W 1298  20.160  27.128  14.927
28231W        W 1299  34.502  40.773   3.625
28232W        W 1300  38.480  43.435   1.251
28233W        W 1301   7.310  13.104  13.439
28234W        W 1302  37.253  28.662   3.588
28235W        W 1303  44.323  39.304  12.434
28236W        W 1304  40.565  12.799   3.568
28237W        W 1305  15.289  37.316   1.523
28238W        W 1306  25.054   9.586   4.596
28239W        W 1307   8.797  22.940   3.841
28240W        W 1308  23.479  16.840  11.488
28241W        W 1309  40.573   3.810  12.184
28242W        W 1310  35.744   9.470   1.803
28243W        W 1311  14.900   2.982  12.925
28244W        W 1312   6.775   8.821   3.733
28245W        W 1313   2.837  25.411  14.204
28246W        W 1314  28.403  28.556  14.876
28247W        W 1315   0.448  30.990   4.669
28248W        W 1316  29.160  44.715   3.173
28249W        W 1317  44.927  33.616  12.548
28250W        W 1318  20.686  35.093   2.568
28251W        W 1319  37.501  35.854  12.881
28252W        W 1320   8.783  33.467  10.714
28253W        W 1321   9.105  19.204   3.956
28254W        W 1322   3.468  16.802  14.709
28255W        W 1323  42.702   5.117   3.174
28256W        W 1324  31.157  37.434  12.302
28257W        W 1325  40.665  19.529   2.458
28258W        W 1326  36.847  36.886  14.294
28259W        W 1327   5.790  44.539   1.130
28260W        W 1328  26.304  44.478   2.289
28261W        W 1329  13.079  24.685  11.931
28262W        W 1330  10.502  35.165  12.076
28263W        W 1331  27.600   8.135  11.928
28264W        W 1332  35.201   6.518  12.782
28265W        W 1333  21.518   1.219   0.343
28266W        W 1334  38.979  13.772   2.282
28267W        W 1335  20.316  38.919   4.895
28268W        W 1336  23.794  17.218  13.105
28269W        W 1337  16.759  34.107  14.123
28270W        W 1338   2.633  20.217  14.344
28271W        W 1339  35.760  40.476  14.908
28272W        W 1340   8.345  38.013   0.393
28273W        W 1341  41.826  29.180  11.170
28274W        W 1342  21.067  33.954  11.894
28275W        W 1343   6.897  42.663   3.766
28276W        W 1344  38.324  19.611   4.397
28277W        W 1345  36.362  24.970  13.859
28278W        W 1346  16.830  26.734  13.440
28279W        W 1347  18.340  12.079  14.679
28280W        W 1348  23.280  20.136   3.079
28281W        W 1349  30.203  37.956   4.162
28282W        W 1350  16.280  18.214   2.686
28283W        W 1351  35.620  27.654   1.119
28284W        W 1352  40.428  10.129   0.718
28285W        W 1353  39.337  28.500  13.052
28286W        W 1354  16.497  15.671  13.940
28287W        W 1355  37.428  43.470  14.844
28288W        W 1356   3.011  43.436  13.524
28289W        W 1357  30.922  21.443  14.473
28290W        W 1358  12.347  21.096   1.676
28291W        W 1359   5.125  32.652  12.074
28292W        W 1360  35.798  11.890  10.859
28293W        W 1361   1.319  37.428  12.418
28294W        W 1362  36.443   8.523   1.530
28295W        W 1363  34.421  13.713   3.751
28296W        W 1364   9.163  41.822  13.295
28297W        W 1365  21.156  31.399   0.887
28298W        W 1366  27.665  26.591   2.735
28299W        W 1367  18.562  19.198   0.819
28300W        W 1368  33.472  32.608   4.168
28301W        W 1369  10.215   5.647  13.070
28302W        W 1370  12.681   9.045   0.882
28303W        W 1371  32.490  34.511   0.714
28304W        W 1372  31.920   5.670   1.793
28305W        W 1373  26.686   8.281   4.117
28306W        W 1374   0.254  41.102   0.222
28307W        W 1375  37.327  25.227  12.473
28308W        W 1376   7.702  19.311   0.731
28309W        W 1377  35.528  13.271   2.373
28310W        W 1378  31.996   1.633  10.796
28311W        W 1379  24.012   4.973   0.306
28312W        W 1380  24.826  39.949  13.145
28313W        W 1381  40.532  34.938  14.519
28314W        W 1382  38.861  20.017  11.512
28315W        W 1383  44.453  24.989   0.906
28316W        W 1384  21.033  24.137  13.969
28317W        W 1385   9.238  10.340  11.527
28318W        W 1386  28.418  37.795   2.726
28319W        W 1387  10.734  43.548   2.152
28320W        W 1388  28.208  21.308   3.733
28321W        W 1389  15.542  11.315  13.802
28322W        W 1390  15.687  11.146   1.113
28323W        W 1391  37.896  25.997   3.201
28324W        W 1392   0.204  14.273   4.700
28325W        W 1393  34.574  35.110   0.740
28326W        W 1394  22.544   8.880  11.562
28327W        W 1395   8.939  24.136   3.129
28328W        W 1396  35.880   0.667  14.309
28329W        W 1397  26.568  36.591  13.999
28330W        W 1398   8.303  30.124   1.620
28331W        W 1399  39.452   8.942   1.828
28332W        W 1400   5.725  20.720  13.362
28333W        W 1401  19.624   7.621  13.081
28334W        W 1402   1.458  27.597  13.451
28335W        W 1403  26.235  22.121   4.231
28336W        W 1404   0.959  29.116   3.782
28337W        W 1405  18.812  17.859  12.563
28338W        W 1406   6.237  11.016   3.157
28339W        W 1407  15.912  16.298   0.869
28340W        W 1408   0.701  20.197  10.631
28341W        W 1409  15.825   4.377   0.468
28342W        W 1410   7.196  23.010   1.905
28343W        W 1411  44.318   6.744  11.143
28344W        W 1412  37.533  11.075  11.005
28345W        W 1413  31.115  37.595  14.698
28346W        W 1414  21.055   6.117  13.968
28347W        W 1415  10.454  32.453   1.817
28348W        W 1416   4.736  40.338   1.786
28349W        W 1417  22.506   7.738  12.985
28350W        W 1418  28.251  12.439  10.130
28351W        W 1419  18.916  29.885   2.853
28352W        W 1420  36.320  10.202   2.718
28353W        W 1421   5.863  10.400  10.616
28354W        W 1422  28.577  33.476  14.689
28355W        W 1423   9.809  22.608   3.620
28356W        W 1424  17.876   7.281  14.310
28357W        W 1425  38.136  32.169   1.440
28358W        W 1426  32.639  14.826   3.723
28359W        W 1427  32.889   2.737   4.550
28360W        W 1428   4.638  22.648   0.183
28361W        W 1429  11.929  11.506  13.788
28362W        W 1430  35.950  17.178  13.923
28363W        W 1431  41.898  38.884   1.459
28364W        W 1432   0.125   6.693  13.172
28365W        W 1433  24.473  20.858   2.101
28366W        W 1434  14.036  35.381  12.824
28367W        W 1435  20.646   9.104  11.909
28368W        W 1436   5.715  31.502  13.042
28369W        W 1437   6.690  44.239   0.894
28370W        W 1438  27.058  44.383   0.978
28371W        W 1439  44.997   4.347   4.629
28372W        W 1440  38.829  28.071  10.435
28373W        W 1441  44.855  16.775  13.884
28374W        W 1442  40.391   6.612  14.021
28375W        W 1443  38.418  32.484  12.562
28376W        W 1444  21.623   0.342  14.016
28377W        W 1445  35.777   7.309  11.097
28378W        W 1446  19.964  43.481   4.652
28379W        W 1447  25.416  12.465  12.904
28380W        W 1448  44.520  25.698   3.114
28381W        W 1449   4.189   2.254   4.506
28382W        W 1450  17.590  27.498  10.617
28383W        W 1451  38.005   1.298   0.355
28384W        W 1452  15.826   7.478   0.010
28385W        W 1453  25.533  22.935   0.116
28386W        W 1454  36.415  12.816   1.744
28387W        W 1455  26.532   9.221  14.747
28388W        W 1456   9.928  35.241  13.912
28389W        W 1457  21.318  30.184   3.200
28390W        W 1458  28.982  16.667  11.561
28391W        W 1459  31.643  40.345   1.926
28392W        W 1460  44.322   5.425  13.566
28393W        W 1461   0.739   7.700   3.532
28394W        W 1462   0.406  20.178  13.929
28395W        W 1463   8.432  36.121  11.107
28396W        W 1464  22.687   4.465  11.331
28397W        W 1465  28.171  35.419  14.527
28398W        W 1466  36.984  44.274  12.396
28399W        W 1467  41.732  16.963   2.892
28400W        W 1468   6.383  30.486   3.587
28401W        W 1469  41.846   7.622   4.206
28402W        W 1470   1.400  32.721   0.599
28403W        W 1471  20.502  16.650  13.886
28404W        W 1472  40.616   5.861   2.379
28405W        W 1473  32.962  11.850  13.309
28406W        W 1474   5.625  44.980   1.437
28407W        W 1475  37.961  10.910  13.699
28408W        W 1476  44.441   7.873  12.448
28409W        W 1477   2.750  21.217   0.264
28410W        W 1478   5.951  28.981  12.925
28411W        W 1479  37.496   0.248  11.371
28412W        W 1480  30.087  43.364  13.366
28413W        W 1481  38.312  27.632  12.992
28414W        W 1482  41.661  12.892   0.387
28415W        W 1483   0.671   6.976   0.457
28416W        W 1484  11.239  25.091   2.756
28417W        W 1485  39.079  39.760  11.436
28418W        W 1486  12.302  22.689  11.193
28419W        W 1487  33.375   7.636   3.091
28420W        W 1488   0.393  26.467  13.640
28421W        W 1489  29.684  30.791   5.142
28422W        W 1490   7.997  10.168  11.720
28423W        W 1491   3.806  40.573   0.465
28424W        W 1492  32.201   7.195   4.173
28425W        W 1493  30.204  30.472   0.444
28426W        W 1494  28.944  38.830  10.638
28427W        W 1495  18.456  10.738   0.717
28428W        W 1496  32.466   4.350  12.146
28429W        W 1497  21.842   5.897  14.268
28430W        W 1498   1.751  32.864  14.992
28431W        W 1499  26.972   2.341  11.051
28432W        W 1500   6.836  20.074  12.360
28433W        W 1501  40.914  30.339   3.328
28434W        W 1502  19.795  12.227   4.849
28435W        W 1503  18.986  32.113   1.215
28436W        W 1504  25.459  39.043  12.229
28437W        W 1505   3.623   0.540   1.293
28438W        W 1506  37.085  28.207  11.226
28439W        W 1507   1.941  42.833   0.831
28440W        W 1508   4.271  11.405  11.086
28441W        W 1509  18.115  38.624   2.608
28442W        W 1510  33.736   0.078  12.560
28443W        W 1511  29.411  27.063   1.840
28444W        W 1512  26.165  24.577   2.622
28445W        W 1513  41.141  21.738  11.006
28446W        W 1514  22.200  15.314  14.987
28447W        W 1515  20.502  21.958  10.741
28448W        W 1516  38.906  30.080  11.211
28449W        W 1517  30.914   4.294  10.711
28450W        W 1518  10.842  18.213   2.893
28451W        W 1519  43.505   6.402   0.923
28452W        W 1520  36.041  24.225   0.419
28453W        W 1521  21.033  43.828  10.160
28454W        W 1522  32.583   8.737   4.552
28455W        W 1523   8.471  18.559  13.870
28456W        W 1524  39.908   6.686  14.221
28457W        W 1525  18.257  34.147  13.400
28458W        W 1526  44.068   5.279  11.865
28459W        W 1527  25.684  18.291  14.751
28460W        W 1528  33.377   5.574   4.077
28461W        W 1529   0.197  25.958   3.583
28462W        W 1530  11.304  25.662   3.598
28463W        W 1531  27.396  40.458  14.495
28464W        W 1532  16.125  10.861  11.515
28465W        W 1533  31.209  42.484   1.806
28466W        W 1534  21.984  10.826  11.564
28467W        W 1535  10.636  19.061  14.066
28468W        W 1536   7.963  18.702  13.802
28469W        W 1537  10.674   2.349  11.877
28470W        W 1538  15.890  44.967   2.290
28471W        W 1539  11.692  33.000   3.013
28472W        W 1540   3.906  15.898  10.010
28473W        W 1541  31.537  11.829   2.762
28474W        W 1542   4.586  39.169   1.454
28475W        W 1543   8.809   8.660  14.418
28476W        W 1544   8.936   2.232   1.519
28477W        W 1545  12.236  14.461  11.510
28478W        W 1546   3.575  30.953   1.381
28479W        W 1547  36.372  15.327  11.539
28480W        W 1548  44.016  24.608   3.242
28481W        W 1549  13.906  31.248   1.944
28482W        W 1550  24.174  38.183   2.650
28483W        W 1551   0.525  15.991   1.679
28484W        W 1552   9.851  31.615   2.631
28485W        W 1553  44.463  13.566  14.003
28486W        W 1554  32.020  37.528   5.130
28487W        W 1555  22.796   7.124  13.600
28488W        W 1556  26.437  36.185  14.908
28489W        W 1557  28.969   8.846  11.924
28490W        W 1558  40.289  11.399  13.946
28491W        W 1559  17.955  34.961  11.579
28492W        W 1560  27.043  29.183  12.423
28493W        W 1561  24.283  41.847   1.745
28494W        W 1562   7.662   5.464   4.247
28495W        W 1563  43.732  28.122   3.368
28496W        W 1564  37.276  22.546  11.925
28497W        W 1565  21.813  31.926  13.811
28498W        W 1566   8.251  31.985   3.701
28499W        W 1567  13.967  44.423  10.751
28500W        W 1568  35.418  42.487   3.645
28501W        W 1569  12.820   7.390  12.018
28502W        W 1570  36.513  17.630  12.914
28503W        W 1571  40.773  29.541   0.793
28504W        W 1572  22.562   0.483  10.227
28505W        W 1573  34.358  20.539  14.424
28506W        W 1574   5.374   3.304   4.196
28507W        W 1575  19.746   6.772  13.162
28508W        W 1576  17.681  17.608  13.282
28509W        W 1577  18.280   3.012  11.655
28510W        W 1578  21.019  41.069   3.380
28511W        W 1579  16.000  41.257   2.641
28512W        W 1580  28.483  16.270   0.070
28513W        W 1581  11.770  44.752   4.111
28514W        W 1582  29.858  43.010  14.867
28515W        W 1583  12.266  16.140   4.601
28516W        W 1584   0.930   2.065  11.023
28517W        W 1585   5.402  28.903  11.205
28518W        W 1586   6.316  43.739   3.801
28519W        W 1587  12.104  10.247   2.847
28520W        W 1588  31.703  16.373   1.293
28521W        W 1589  37.808  24.961  11.053
28522W        W 1590  39.070  15.585  14.208
28523W        W 1591  43.450   7.251   3.883
28524W        W 1592  37.543  34.054  12.573
28525W        W 1593  44.669  39.884  14.835
28526W        W 1594  43.600  15.514  14.986
28527W        W 1595  42.907   4.166  14.471
28528W        W 1596  32.702  34.613   2.292
28529W        W 1597  22.118  20.429  14.893
28530W        W 1598  43.348  10.978  12.453
28531W        W 1599  25.039   1.939   2.311
28532W        W 1600  37.802  32.966  12.830
28533W        W 1601  17.576  40.030  13.564
28534W        W 1602   7.320   7.728   0.919
28535W        W 1603  32.357  37.052   2.398
28536W        W 1604  43.459  31.508   4.135
28537W        W 1605  13.085  21.576  12.433
28538W        W 1606  37.391  28.866   0.620
28539W        W 1607  35.345  24.264   0.023
28540W        W 1608  17.823  16.581   1.609
28541W        W 1609   6.244  35.068   3.261
28542W        W 1610  42.803  44.076   3.131
28543W        W 1611  17.812   0.963  10.527
28544W        W 1612  14.536  12.040  10.525
28545W        W 1613  42.267  17.516  11.516
28546W        W 1614  38.981  24.775  12.944
28547W        W 1615   3.002   5.348  14.866
28548W        W 1616   5.797  43.414   0.885
28549W        W 1617  23.752  26.661  14.582
28550W        W 1618  23.203   0.262   3.238
28551W        W 1619   7.522  42.854   2.174
28552W        W 1620  19.506  16.666  12.904
28553W        W 1621  30.732  22.787  10.616
28554W        W 1622  26.437  42.059   3.684
28555W        W 1623   5.689   2.968  12.951
28556W        W 1624  33.425  20.494   2.683
28557W        W 1625  41.495  14.324  13.472
28558W        W 1626  27.633   6.677   0.386
28559W        W 1627   1.916  14.422   2.258
28560W        W 1628   1.693  22.786  10.951
28561W        W 1629  31.399  23.335  12.013
28562W        W 1630  22.065  14.796  14.912
28563W        W 1631  27.608  28.875  11.161
28564W        W 1632  23.971   2.598   2.049
28565W        W 1633   7.323  37.319   0.285
28566W        W 1634  32.925  30.904  12.378
28567W        W 1635  11.798  15.348  14.015
28568W        W 1636  18.706  29.872   3.307
28569W        W 1637  13.612   2.959  13.404
28570W        W 1638  41.933   6.608   4.086
28571W        W 1639  23.628  26.084   3.086
28572W        W 1640  17.620  24.419   3.593
28573W        W 1641  32.162  19.173  10.684
28574W        W 1642   4.190  22.782   2.581
28575W        W 1643  24.193  42.497   1.290
28576W        W 1644  43.333   5.772  13.293
28577W        W 1645   3.792   0.077   2.680
28578W        W 1646  42.910  23.980   4.275
28579W        W 1647   6.928  43.396  11.511
28580W        W 1648   1.270  18.792   3.192
28581W        W 1649  18.895  17.235  14.938
28582W        W 1650  28.516  35.994   0.434
28583W        W 1651  22.953  27.943  13.074
28584W        W 1652   6.985  22.042   3.720
28585W        W 1653  17.551  35.091  11.948
28586W        W 1654  23.903  11.794  11.618
28587W        W 1655  15.580   5.406  13.522
28588W        W 1656  12.817  13.295   3.278
28589W        W 1657  14.212  27.762   1.725
28590W        W 1658  37.377  14.357   4.619
28591W        W 1659   5.478   7.361  12.558
28592W        W 1660   0.729   8.741  12.227
28593W        W 1661   2.884  24.757  13.351
28594W        W 1662   4.706   1.637  11.167
28595W        W 1663  36.807  11.344  11.934
28596W        W 1664   9.484  38.784   1.940
28597W        W 1665  41.481  32.423  11.181
28598W        W 1666  44.836  31.611   2.785
28599W        W 1667   8.016  36.075  10.865
28600W        W 1668  25.255   2.674   3.692
28601W        W 1669  35.834   8.769  12.421
28602W        W 1670  28.655  32.104   0.461
28603W        W 1671   8.011  34.809   2.444
28604W        W 1672  38.642  32.940   2.947
28605W        W 1673   9.098  25.950  11.933
28606W        W 1674  11.117  34.920  12.726
28607W        W 1675  39.974  14.146  13.292
28608W        W 1676  21.614   8.794  13.494
28609W        W 1677  25.465   5.725  13.520
28610W        W 1678   5.451   7.360   2.182
28611W        W 1679  24.157  30.134   3.905
28612W        W 1680  29.610  36.555   0.888
28613W        W 1681  38.283  42.806   3.681
28614W        W 1682   3.473  13.013   1.349
28615W        W 1683  30.587  18.826   2.727
28616W        W 1684   2.621   5.825   4.556
28617W        W 1685  44.018  38.385   1.333
28618W        W 1686   5.599  40.938  13.533
28619W        W 1687  12.038   6.414   5.096
28620W        W 1688  40.215  15.065  13.458
28621W        W 1689  25.448  11.166   3.986
28622W        W 1690  13.655  19.118   1.823
28623W        W 1691  13.330  34.338   1.205
28624W        W 1692  42.775  32.813   2.353
28625W        W 1693  13.754  38.913  12.616
28626W        W 1694  24.217  21.507  12.821
28627W        W 1695  25.297   9.025  11.135
28628W        W 1696  34.558  26.891  10.775
28629W        W 1697  41.365  17.211  14.877
28630W        W 1698  20.221  32.490   4.166
28631W        W 1699   0.683   2.920  11.322
28632W        W 1700  29.845  37.458  10.250
28633W        W 1701  29.960   5.827   0.561
28634W        W 1702  21.550  10.995  14.936
28635W        W 1703  26.516  25.424   4.486
28636W        W 1704  43.876  23.145   4.337
28637W        W 1705  24.244  26.435  13.344
28638W        W 1706   9.760  27.937  11.410
28639W        W 1707  17.267  38.408   1.787
28640W        W 1708  39.716   0.475   2.829
28641W        W 1709  15.571   0.723  13.442
28642W        W 1710   4.796   3.708   3.187
28643W        W 1711  17.523  17.370  12.757
28644W        W 1712  10.405  25.055   4.176
28645W        W 1713  20.293  37.346  13.961
28646W        W 1714   8.475  40.815  13.736
28647W        W 1715  42.389  31.198   2.325
28648W        W 1716  15.394  22.577  12.581
28649W        W 1717  28.133  26.519  14.001
28650W        W 1718  37.112   9.697   3.595
28651W        W 1719  29.165  12.315  14.320
28652W        W 1720   1.856  29.053  13.398
28653W        W 1721   3.448  42.904  11.919
28654W        W 1722  35.296  23.134   2.433
28655W        W 1723   0.835  15.969   4.246
28656W        W 1724  18.558  32.338   3.712
28657W        W 1725   8.670   2.281   1.957
28658W        W 1726   5.679  43.750  14.485
28659W        W 1727  13.924  39.943   0.023
28660W        W 1728  40.831  13.775  10.702
28661W        W 1729  16.302  35.946   1.420
28662W        W 1730   3.249  34.332  14.994
28663W        W 1731   2.234  36.960   0.521
28664W        W 1732  31.454   1.205   0.818
28665W        W 1733  20.618  39.682   4.525
28666W        W 1734  27.475   5.263  11.095
28667W        W 1735  14.894   5.874  14.017
28668W        W 1736   9.209  11.566   4.026
28669W        W 1737   0.603  20.077   3.148
28670W        W 1738  22.743   8.424   4.092
28671W        W 1739  39.342   1.997   2.194
28672W        W 1740   7.675   3.578   1.985
28673W        W 1741  12.744  28.117   2.322
28674W        W 1742  11.650   9.180   4.652
28675W        W 1743  37.652   9.146   4.763
28676W        W 1744  21.006  31.620  10.872
28677W        W 1745  35.350  27.615  12.935
28678W        W 1746   1.244  14.610   2.274
28679W        W 1747   3.297  44.457  14.826
28680W        W 1748  14.726   1.885  14.313
28681W        W 1749   7.287  42.495  13.123
28682W        W 1750  30.508  13.147  13.515
28683W        W 1751  15.837  20.594   1.275
28684W        W 1752  35.025   1.495  12.490
28685W        W 1753  27.170  11.903  10.737
28686W        W 1754   2.717  34.427   1.866
28687W        W 1755  26.567  35.670  11.896
28688W        W 1756  11.520  18.682  13.829
28689W        W 1757  28.488  34.939   0.266
28690W        W 1758  24.393   1.127   3.142
28691W        W 1759  28.126  23.375  14.291
28692W        W 1760  37.581  34.596  12.531
28693W        W 1761   1.298  15.902  11.031
28694W        W 1762  21.086  20.180   4.116
28695W        W 1763   5.414   7.747   4.751
28696W        W 1764   4.131   3.958  14.367
28697W        W 1765  40.450  25.856   4.320
28698W        W 1766  24.654  19.331  12.927
28699W        W 1767  40.644  19.373   4.614
28700W        W 1768  15.888   9.868   1.784
28701W        W 1769  32.003  12.139   2.711
28702W        W 1770  37.436  11.115  12.517
28703W        W 1771   4.772  32.583   1.886
28704W        W 1772   8.955   6.623   2.144
28705W        W 1773  11.718  14.021  11.949
28706W        W 1774  33.019   0.280  11.568
28707W        W 1775  34.964  20.321   3.193
28708W        W 1776   9.065   2.291  13.888
28709W        W 1777   7.144   5.630  11.136
28710W        W 1778   2.763  28.803   0.866
28711W        W 1779   2.375  19.867  12.521
28712W        W 1780  20.437  37.907  13.025
28713W        W 1781  44.211  22.644  11.751
28714W        W 1782  43.170  44.491  13.383
28715W        W 1783  14.501  36.885  12.030
28716W        W 1784   4.234  10.807   4.511
28717W        W 1785   9.406  30.412   4.143
28718W        W 1786  22.911  41.347  14.836
28719W        W 1787   2.709  25.794  14.563
28720W        W 1788  34.682  26.098   0.385
28721W        W 1789  29.393  11.947   3.092
28722W        W 1790  31.023  40.316   1.293
28723W        W 1791  24.152  25.463   4.130
28724W        W 1792  43.364  13.293   0.270
28725W        W 1793   6.320  29.752  11.920
28726W        W 1794  29.936   2.822   2.684
28727W        W 1795  37.111  29.108   1.911
28728W        W 1796  39.435  12.370  12.274
28729W        W 1797  28.150  44.027   3.570
28730W        W 1798   6.805   9.217   3.408
28731W        W 1799   4.189  27.678  13.832
28732W        W 1800  26.149  33.895  14.930
28733W        W 1801  41.487  19.285   3.832
28734W        W 1802   0.642  17.601   3.646
28735W        W 1803  24.078   7.387   2.783
28736W        W 1804   8.243   6.228   4.323
28737W        W 1805  38.140  42.712  11.995
28738W        W 1806  10.583  37.083   3.799
28739W        W 1807  40.557   3.788   2.896
28740W        W 1808  13.260  20.529  13.391
28741W        W 1809  36.014   0.503   3.283
28742W        W 1810  31.013   4.494  13.567
28743W        W 1811  29.616  21.699   0.376
28744W        W 1812  36.404  39.593  12.691
28745W        W 1813   6.772  30.122  12.505
28746W        W 1814  43.576  24.376  12.373
28747W        W 1815  33.533  39.399   2.775
28748W        W 1816  43.305  31.552   1.938
28749W        W 1817  40.052  36.566   2.775
28750W        W 1818  44.873  16.159  11.715
28751W        W 1819  44.459  26.097   1.827
28752W        W 1820  25.537  16.291  13.165
28753W        W 1821  23.178  10.281   4.537
28754W        W 1822  31.533  31.898  10.386
28755W        W 1823  10.202   7.264   4.242
28756W        W 1824  16.260  15.903   0.819
28757W        W 1825  22.509  10.596  11.119
28758W        W 1826  31.064  40.824   1.355
28759W        W 1827  43.909  15.769  13.051
28760W        W 1828  43.582   2.488   4.831
28761W        W 1829  40.992  20.543  10.676
28762W        W 1830  14.756  26.641  12.976
28763W        W 1831  26.117  26.451   1.380
28764W        W 1832  16.866  44.577   3.707
28765W        W 1833  32.489  39.893   0.706
28766W        W 1834  15.115  10.721   3.678
28767W        W 1835  16.650  24.845  12.451
28768W        W 1836  14.195  43.122   4.665
28769W        W 1837  15.038   5.240   3.335
28770W        W 1838  37.420   0.372   4.918
28771W        W 1839   6.857   3.765   2.730
28772W        W 1840  35.012  36.660  12.850
28773W        W 1841   6.649  34.367  11.189
28774W        W 1842   5.721  29.522   2.813
28775W        W 1843  21.696  34.524   0.824
28776W        W 1844  37.831  41.464  11.137
28777W        W 1845  24.933  43.439   2.331
28778W        W 1846  12.094  27.076  14.958
28779W        W 1847   6.970  30.036   3.041
28780W        W 1848   8.403   0.879   4.116
28781W        W 1849  29.878   8.207  14.447
28782W        W 1850   8.302  10.329  11.336
28783W        W 1851   3.495   5.568  14.818
28784W        W 1852   4.464  21.667  14.803
28785W        W 1853  18.674  17.693   2.238
28786W        W 1854  30.511  41.675  12.996
28787W        W 1855  41.967   5.308   3.592
28788W        W 1856  19.678  42.783  10.750
28789W        W 1857  11.611  11.775  12.426
28790W        W 1858  43.523  15.421   3.625
28791W        W 1859  20.556   6.896  11.108
28792W        W 1860  40.118   3.903  12.418
28793W        W 1861  43.831  33.604  10.584
28794W        W 1862  21.478  25.167   2.692
28795W        W 1863  27.097  30.840   2.856
28796W        W 1864  16.725  13.080   4.660
28797W        W 1865  44.783  13.900  10.770
28798W        W 1866  36.552  44.406  10.756
28799W        W 1867   4.230  39.303  13.988
28800W        W 1868   0.030   6.795   1.674
28801W        W 1869  35.830  30.342   2.435
28802W        W 1870  22.993  13.710   3.413
28803W        W 1871  33.887  17.127  12.574
28804W        W 1872  11.708  17.551   1.581
28805W        W 1873  30.741  16.714  11.316
28806W        W 1874  42.013   5.993   4.876
28807W        W 1875  26.468  13.822  13.316
28808W        W 1876   0.460  29.387   4.010
28809W        W 1877  23.576   3.806   2.302
28810W        W 1878  16.170  15.571   0.420
28811W        W 1879  26.714  43.994   2.640
28812W        W 1880  26.193  12.368   1.324
28813W        W 1881   7.836  23.230   4.198
28814W        W 1882  20.534  38.053   3.786
28815W        W 1883  11.761   9.231  11.154
28816W        W 1884  20.739   0.805   2.756
28817W        W 1885  39.039   1.298  10.210
28818W        W 1886  35.461  16.107   1.893
28819W        W 1887  10.184  21.730   0.980
28820W        W 1888   1.725  18.217  13.969
28821W        W 1889  39.014  26.877   4.634
28822W        W 1890   4.657  38.324   4.155
28823W        W 1891  10.350  24.169   2.316
28824W        W 1892  34.457  25.596   4.080
28825W        W 1893   4.806  25.957   3.265
28826W        W 1894   1.243  20.779  11.182
28827W        W 1895   0.027  28.230  11.561
28828W        W 1896  35.497  40.805  13.059
28829W        W 1897  35.998  26.209  12.496
28830W        W 1898   7.828   8.155  11.302
28831W        W 1899  18.731  36.431  12.877
28832W        W 1900  34.435  25.431   2.297
28833W        W 1901  42.843  28.394   3.175
28834W        W 1902  20.242  18.089   1.869
28835W        W 1903  19.119  21.694  11.083
28836W        W 1904  21.076  28.827  14.621
28837W        W 1905  43.418  26.652   4.602
28838W        W 1906  22.032   5.307   2.209
28839W        W 1907  44.659   1.828   2.283
28840W        W 1908  32.503  15.239   1.274
28841W        W 1909  22.483  37.137   3.290
28842W        W 1910  17.747   6.739  11.596
28843W        W 1911  19.648  43.580   2.169
28844W        W 1912  29.089  31.460   2.385
28845W        W 1913  18.131   1.453   5.020
28846W        W 1914  15.104  20.136  10.898
28847W        W 1915  32.366  33.595   0.706
28848W        W 1916  20.250  31.934  13.871
28849W        W 1917  35.088  11.114  13.946
28850W        W 1918   6.342  14.192   3.699
28851W        W 1919   5.855  43.398  14.917
28852W        W 1920  23.074   5.935  11.480
28853W        W 1921  42.352  13.678  14.407
28854W        W 1922  24.231  26.671   2.890
28855W        W 1923  10.301  10.252   0.657
28856W        W 1924   5.188  39.461   4.381
28857W        W 1925  43.930  12.870  10.954
28858W        W 1926  40.746  16.064   1.257
28859W        W 1927   6.923   6.876   0.873
28860W        W 1928  31.985  19.518   4.852
28861W        W 1929   2.654  18.357  14.261
28862W        W 1930  38.519  22.018  12.262
28863W        W 1931  19.260   4.272  12.188
28864W        W 1932  30.707  17.592   2.209
28865W        W 1933   4.658  30.303  11.056
28866W        W 1934  20.246   5.148  14.319
28867W        W 1935  40.860  33.958   0.469
28868W        W 1936  38.912  12.155  10.372
28869W        W 1937   9.556   0.135   1.919
28870W        W 1938  37.262  43.378   2.215
28871W        W 1939   5.800   3.607   3.215
28872W        W 1940  12.840  35.559   1.131
28873W        W 1941   8.209  29.481  12.265
28874W        W 1942  41.035  19.256   4.163
28875W        W 1943  40.997  25.514   1.200
28876W        W 1944  38.839  17.137  10.641
28877W        W 1945  33.889   6.362   1.275
28878W        W 1946   9.203  42.779  10.561
28879W        W 1947  35.907  41.321   0.910
28880W        W 1948  35.657   4.379   3.683
28881W        W 1949  32.285   1.901   1.960
28882W        W 1950  25.178   4.316   2.841
28883W        W 1951   8.240  42.557  12.020
28884W        W 1952  39.280  13.421   3.672
28885W        W 1953  36.855   4.439   0.620
28886W        W 1954   4.425  27.264  13.449
28887W        W 1955  30.078  10.872  14.433
28888W        W 1956   4.692  44.839  12.607
28889W        W 1957  26.715  10.916   0.347
28890W        W 1958  35.683  37.180  14.075
28891W        W 1959   2.890  41.099   4.449
28892W        W 1960  39.977  27.654   0.924
28893W        W 1961  22.555  27.038  13.391
28894W        W 1962  27.516  43.508  11.160
28895W        W 1963  42.322   8.012  14.446
28896W        W 1964  36.965  40.086  11.641
28897W        W 1965  44.393   4.197   0.230
28898W        W 1966  33.040  38.055  12.904
28899W        W 1967   1.384  37.947  11.505
28900W        W 1968  26.618   5.298   2.678
28901W        W 1969  11.593  40.287  12.307
28902W        W 1970  12.410  20.792   4.047
28903W        W 1971  39.589  39.750  11.483
28904W        W 1972   5.725  21.774  11.216
28905W        W 1973   8.925  44.233  14.434
28906W        W 1974  17.685  19.577   1.838
28907W        W 1975  27.564   9.291  10.444
28908W        W 1976  28.206   9.536  14.796
28909W        W 1977  27.093  12.728   4.878
28910W        W 1978   3.246  36.421  11.845
28911W        W 1979  30.931  24.246   3.592
28912W        W 1980  37.817  14.304   1.151
28913W        W 1981   9.199  39.734  14.423
28914W        W 1982   1.331  31.107  13.920
28915W        W 1983  25.704  42.785   1.121
28916W        W 1984  23.007   5.925   4.558
28917W        W 1985   4.435  35.046  14.964
28918W        W 1986  30.934  29.099   3.840
28919W        W 1987  19.962  12.277   0.964
28920W        W 1988  12.674  16.475  13.456
28921W        W 1989  30.957  10.005   1.856
28922W        W 1990   7.458   3.650  11.212
28923W        W 1991  36.399  27.488  14.679
28924W        W 1992  35.788  19.761  13.468
28925W        W 1993  26.509  21.674   3.739
28926W        W 1994  14.680   4.132  11.502
28927W        W 1995   1.292  28.533   4.475
28928W        W 1996  36.329  27.964   3.299
28929W        W 1997   8.802  26.672  13.909
28930W        W 1998   2.281   3.686  12.189
28931W        W 1999   8.997   4.615  11.425
28932W        W 2000  29.133  14.485  13.341
28933W        W 2001  28.017   6.326   0.241
28934W        W 2002  19.549   0.179  13.719
28935W        W 2003   1.338   6.364  10.505
28936W        W 2004  10.381  19.560  10.672
28937W        W 2005  44.948  22.520   4.682
28938W        W 2006  30.397   1.923   3.188
28939W        W 2007  42.974  37.363   0.191
28940W        W 2008   1.823  37.613  13.897
28941W        W 2009  11.385  25.218  11.143
28942W        W 2010   8.390  39.849   2.752
28943W        W 2011  15.129  11.740   4.212
28944W        W 2012  23.595  26.625   4.714
28945W        W 2013  22.894   3.432  13.894
28946W        W 2014  18.084   7.576   2.433
28947W        W 2015  38.416   1.196   2.142
28948W        W 2016  37.997  22.341   1.896
28949W        W 2017  41.014  12.630   3.822
28950W        W 2018  37.933  22.055   3.876
28951W        W 2019   4.870  33.457  12.679
28952W        W 2020  20.777  13.588  13.906
28953W        W 2021  24.226  20.871   4.575
28954W        W 2022  12.890  32.048   0.996
28955W        W 2023  18.159  36.005  12.415
28956W        W 2024   5.851  27.889   0.015
28957W        W 2025   2.958  41.822   2.393
28958W        W 2026  38.612  42.242   0.367
28959W        W 2027  12.652  23.563  11.922
28960W        W 2028   3.319  22.684   0.008
28961W        W 2029   6.011  37.524   1.263
28962W        W 2030  22.641  38.233  10.462
28963W        W 2031  20.000  26.074   2.594
28964W        W 2032  12.769  19.503   2.431
28965W        W 2033  12.383  30.147  10.677
28966W        W 2034  43.928  26.130  11.643
28967W        W 2035  44.192  17.408   2.818
28968W        W 2036  29.837  29.512   0.378
28969W        W 2037  24.983  24.422   2.801
28970W        W 2038   1.123  18.981   0.934
28971W        W 2039  21.610  42.443   4.978
28972W        W 2040   0.028  21.644   1.379
28973W        W 2041  30.963  21.110   4.600
28974W        W 2042  15.868   6.259   2.273
28975W        W 2043  32.669  10.210   2.251
28976W        W 2044   7.839  11.320   1.837
28977W        W 2045  36.406  19.212   0.699
28978W        W 2046  25.419  20.302  10.733
28979W        W 2047   8.541   7.082  14.630
28980W        W 2048  36.859  26.629   2.806
28981W        W 2049   7.142  38.766  13.966
28982W        W 2050  32.997   4.102  14.937
28983W        W 2051  40.819  39.975  14.014
28984W        W 2052  36.384  10.831   2.668
28985W        W 2053  28.395  13.630   0.056
28986W        W 2054  19.590  20.578   1.534
28987W        W 2055   0.900  29.635   1.244
28988W        W 2056  21.182   8.626   2.701
28989W        W 2057  35.214  17.096  14.509
28990W        W 2058  10.204  44.877  11.213
28991W        W 2059  42.365  16.823   4.088
28992W        W 2060  41.422  16.968  10.027
28993W        W 2061  39.082   5.727   3.339
28994W        W 2062  43.822  22.650  12.097
28995W        W 2063  21.813   6.762  13.497
28996W        W 2064  35.835  40.907   4.282
28997W        W 2065  42.308  32.358   0.036
28998W        W 2066  38.058  19.477   2.173
28999W        W 2067   2.698  23.591   0.754
29000W        W 2068   7.000  32.514  11.152
29001W        W 2069  23.409  41.902   1.040
29002W        W 2070  10.623   8.633   0.037
29003W        W 2071  21.011  40.303  10.663
29004W        W 2072  32.646  13.084  14.280
29005W        W 2073   3.340  14.310  13.481
29006W        W 2074  16.533   7.271  12.488
29007W        W 2075  27.459   2.771   3.621
29008W        W 2076  16.368  21.322   1.278
29009W        W 2077   9.994  41.135   2.195
29010W        W 2078  23.289  17.310   4.256
29011W        W 2079  36.418  32.665   3.949
29012W        W 2080  10.424  25.814   3.763
29013W        W 2081  14.048  33.985  13.534
29014W        W 2082  11.203  17.327   4.076
29015W        W 2083  23.078  38.431  10.653
29016W        W 2084   8.825   3.223   0.929
29017W        W 2085  22.267  21.062   4.617
29018W        W 2086  29.661  43.218  14.028
29019W        W 2087  29.163  38.449  11.418
29020W        W 2088  38.938  34.219   2.916
29021W        W 2089  13.847   3.133  14.984
29022W        W 2090  34.632  23.531   3.714
29023W        W 2091  11.392   6.476   3.181
29024W        W 2092   0.824  39.974   2.761
29025W        W 2093  21.786  35.072   2.275
29026W        W 2094  20.455  13.563   2.847
29027W        W 2095  15.830  39.919   4.794
29028W        W 2096  40.798  32.164   2.330
29029W        W 2097  16.640   8.577  11.083
29030W        W 2098  37.149  30.759   0.367
29031W        W 2099  36.332   4.412   1.854
29032W        W 2100  26.453  42.746   0.375
29033W        W 2101  22.938  11.863   3.709
29034W        W 2102  16.392  41.828  12.464
29035W        W 2103  15.269  16.313   4.777
29036W        W 2104  12.281  36.731  13.018
29037W        W 2105   9.197  33.401   4.762
29038W        W 2106  11.291  35.849  12.304
29039W        W 2107  23.819   6.673  11.090
29040W        W 2108  41.464  13.414  14.319
29041W        W 2109  25.047   7.887   2.743
29042W        W 2110  22.717  36.779  14.463
29043W        W 2111   0.220   9.229   0.580
29044W        W 2112  19.025  10.662   3.764
29045W        W 2113  34.341  35.920   2.421
29046W        W 2114  40.910  22.136   4.223
29047W        W 2115   4.861  28.156  11.458
29048W        W 2116   6.862   7.704  13.828
29049W        W 2117   5.951  15.732   2.888
29050W        W 2118  21.784   9.607  13.016
29051W        W 2119   0.091  32.088   1.982
29052W        W 2120   4.671   7.397   3.309
29053W        W 2121  43.916  41.010   1.323
29054W        W 2122  25.167  40.308   0.340
29055W        W 2123  26.061  15.159  11.260
29056W        W 2124  29.628  22.659   2.750
29057W        W 2125  28.184   1.050  10.935
29058W        W 2126  18.745  39.788   0.921
29059W        W 2127  21.797  31.998  10.664
29060W        W 2128  35.952  17.118   3.712
29061W        W 2129   0.853  26.413   0.408
29062W        W 2130  18.755  44.340   0.899
29063W        W 2131  36.735  15.122   1.864
29064W        W 2132  30.877  20.809  14.895
29065W        W 2133  16.811  27.378  14.800
29066W        W 2134   8.910  28.240   2.424
29067W        W 2135   5.565  44.032   1.780
29068W        W 2136  26.984  27.898  13.821
29069W        W 2137  34.442  30.002  11.637
29070W        W 2138   9.916  23.619   1.820
29071W        W 2139  25.753   5.377  14.185
29072W        W 2140  27.370  28.393  11.179
29073W        W 2141   5.893  24.267  11.709
29074W        W 2142   0.810  42.191   3.168
29075W        W 2143  19.283  34.537  11.406
29076W        W 2144  34.629  14.599  10.328
29077W        W 2145  18.142  25.366   4.094
29078W        W 2146  11.104   1.563   0.882
29079W        W 2147  27.152   9.978  11.110
29080W        W 2148  40.602  20.192  14.582
29081W        W 2149   2.909  37.621   3.264
29082W        W 2150   5.371  20.322   1.625
29083W        W 2151   7.749  11.532   4.513
29084W        W 2152  37.825  24.584  13.423
29085W        W 2153  39.010  42.578  14.322
29086W        W 2154  35.225  41.603   0.494
29087W        W 2155  11.052  43.074   0.827
29088W        W 2156  42.751   5.999  11.082
29089W        W 2157  11.365  17.830  14.892
29090W        W 2158   0.581  13.129   2.736
29091W        W 2159  40.490  13.678  11.839
29092W        W 2160  28.445  15.659   0.142
29093W        W 2161  44.483  15.951  11.466
29094W        W 2162  10.841   6.053   2.683
29095W        W 2163  44.728   6.964  11.462
29096W        W 2164  29.724   9.847  12.257
29097W        W 2165  17.638  40.383   3.940
29098W        W 2166  30.992   3.464  10.822
29099W        W 2167   6.981  37.312   1.314
29100W        W 2168  30.072   3.521   0.768
29101W        W 2169  22.710   6.243  12.532
29102W        W 2170   7.932  43.487   2.093
29103W        W 2171  31.927  17.233   2.912
29104W        W 2172  16.135   9.361   2.842
29105W        W 2173   1.804  30.868  12.790
29106W        W 2174   7.065  40.506   2.851
29107W        W 2175  12.780  28.735  12.063
29108W        W 2176   7.100  32.285  12.076
29109W        W 2177  24.193  17.154  14.555
29110W        W 2178  36.262  35.083  11.860
29111W        W 2179   7.981  44.326   5.063
29112W        W 2180  16.221  36.101  12.519
29113W        W 2181  42.413  37.530   4.650
29114W        W 2182  22.229  21.801  14.368
29115W        W 2183  38.956  34.693   0.790
29116W        W 2184  10.104  29.949  14.589
29117W        W 2185  41.389   4.836  11.594
29118W        W 2186  39.260  39.022   9.962
29119W        W 2187  43.901   3.186   3.626
29120W        W 2188  16.286  14.631   3.687
29121W        W 2189  37.653  32.531   4.273
29122W        W 2190  36.897  26.673   3.696
29123W        W 2191  37.440  14.773   3.174
29124W        W 2192  23.001  42.975   1.879
29125W        W 2193  33.106  10.978  12.954
29126W        W 2194  43.989  36.309   3.648
29127W        W 2195  22.237   4.986   0.899
29128W        W 2196   0.846  20.290  13.009
29129W        W 2197  29.205  14.290   1.744
29130W        W 2198  27.671  28.480   3.061
29131W        W 2199   5.324  27.692  10.476
29132W        W 2200  30.005  13.848   2.264
29133W        W 2201  13.364   5.286  14.876
29134W        W 2202   3.775  22.657   1.257
29135W        W 2203  30.003   6.471   3.241
29136W        W 2204  39.108  38.554   3.294
29137W        W 2205  17.643   2.732   0.350
29138W        W 2206  40.546  13.578   4.154
29139W        W 2207  24.149  29.552  12.380
29140W        W 2208  42.740   7.578   3.275
29141W        W 2209  42.991  39.586   2.288
29142W        W 2210   5.929  39.412   2.759
29143W        W 2211  35.054  27.623   1.865
29144W        W 2212  40.085  30.113  10.592
29145W        W 2213   3.628  42.855  10.529
29146W        W 2214  20.620  37.859   0.816
29147W        W 2215  34.399  18.168   2.416
29148W        W 2216  20.557   7.327  14.494
29149W        W 2217   7.487  43.269  10.649
29150W        W 2218  11.965  36.463  13.363
29151W        W 2219   6.630  18.511   1.405
29152W        W 2220  26.756  30.908  14.333
29153W        W 2221  31.552  23.650  11.144
29154W        W 2222  20.033   4.681  14.445
29155W        W 2223  22.073  31.045  14.232
29156W        W 2224  36.004  33.387  10.205
29157W        W 2225  20.620  41.266   1.595
29158W        W 2226  43.325  14.313   3.416
29159W        W 2227  34.506  34.881  12.156
29160W        W 2228   3.713   5.728   3.645
29161W        W 2229  28.643  21.155   4.678
29162W        W 2230  11.793  42.214  13.486
29163W        W 2231  19.469   9.316  10.642
29164W        W 2232   2.410  22.855   4.244
29165W        W 2233  42.015  16.201   4.432
29166W        W 2234  28.557  13.005   2.371
29167W        W 2235  21.728  39.562  10.852
29168W        W 2236  27.041  21.186   2.382
29169W        W 2237  41.992  35.696  13.379
29170W        W 2238  36.952  41.418   4.695
29171W        W 2239   5.022   0.265   2.283
29172W        W 2240  34.228   0.009  14.211
29173W        W 2241  13.569  28.871  14.366
29174W        W 2242  14.680   4.112   0.041
29175W        W 2243  29.602   0.976   1.599
29176W        W 2244   0.909  24.490  14.358
29177W        W 2245  12.718  22.295  12.882
29178W        W 2246  36.002  41.846  13.511
29179W        W 2247  19.262  43.061  10.614
29180W        W 2248  12.781  43.358   2.772
29181W        W 2249   6.744  39.055  13.862
29182W        W 2250   6.805  34.380  12.429
29183W        W 2251  31.700  37.751   3.402
29184W        W 2252   4.512  13.853   3.859
29185W        W 2253   5.652   0.366  14.358
29186W        W 2254  35.115  23.058   4.904
29187W        W 2255   9.709  28.455  11.540
29188W        W 2256  42.854   9.104  13.962
29189W        W 2257  37.728  38.535   4.270
29190W        W 2258  24.195   8.348   3.084
29191W        W 2259   2.865  20.757  10.934
29192W        W 2260  44.279  14.838  10.543
29193W        W 2261  13.589  41.057  12.164
29194W        W 2262  44.012  43.472   3.747
29195W        W 2263  36.019   4.297  14.293
29196W        W 2264   2.437  31.052   2.737
29197W        W 2265  16.329  24.597  14.322
29198W        W 2266  16.144  33.687   1.825
29199W        W 2267  11.322  33.874  13.151
29200W        W 2268   8.284  27.548   2.965
29201W        W 2269  24.798  41.375  10.651
29202W        W 2270   7.696   5.314  12.548
29203W        W 2271  27.158  18.613   2.363
29204W        W 2272  33.879  42.555  13.431
29205W        W 2273   6.865  28.176  11.097
29206W        W 2274  28.671  23.018  13.980
29207W        W 2275  36.981  20.133  12.892
29208W        W 2276  23.928  10.467   1.752
29209W        W 2277  19.328  23.086   4.106
29210W        W 2278   4.319  23.496   0.082
29211W        W 2279  21.520  29.057  10.870
29212W        W 2280   6.233   6.680   2.296
29213W        W 2281  41.344  12.008   4.607
29214W        W 2282  21.090  31.577   4.697
29215W        W 2283  19.324  26.319  11.984
29216W        W 2284  30.607  14.326   0.371
29217W        W 2285  28.177   2.346   1.775
29218W        W 2286  39.446  15.182  13.390
29219W        W 2287   3.216  26.065   4.158
29220W        W 2288   5.585  16.543  11.668
29221W        W 2289  24.103  26.165   0.330
29222W        W 2290  33.068  42.262   2.448
29223W        W 2291  24.907   8.964  14.523
29224W        W 2292  12.828  14.789   2.600
29225W        W 2293  25.455  43.397   2.181
29226W        W 2294   5.763  31.557  11.310
29227W        W 2295  21.625  36.338  13.367
29228W        W 2296  37.321   4.772  11.799
29229W        W 2297  19.835  24.832  14.432
29230W        W 2298  34.831  10.163   2.755
29231W        W 2299  44.399   1.450   1.968
29232W        W 2300  14.101  36.400  12.933
29233W        W 2301  26.805  19.970  14.290
29234W        W 2302   6.777  37.061  13.365
29235W        W 2303  34.674  42.480  11.324
29236W        W 2304  11.182  28.153   4.804
29237W        W 2305  21.675  20.616   1.158
29238W        W 2306  20.460  43.354   4.572
29239W        W 2307  16.045  19.412  10.852
29240W        W 2308  13.318  17.555   3.237
29241W        W 2309   4.016  41.400  13.010
29242W        W 2310  22.930  39.615   2.863
29243W        W 2311  16.834  38.820  14.271
29244W        W 2312  36.908  44.987   3.222
29245W        W 2313   8.598   3.008  14.370
29246W        W 2314  13.218  35.956  10.857
29247W        W 2315  16.092  44.854  10.599
29248W        W 2316  21.975  15.793  14.273
29249W        W 2317  36.256  20.357   2.345
29250W        W 2318  38.573  42.019   2.893
29251W        W 2319  36.427  24.023  11.691
29252W        W 2320  34.890  37.092   3.877
29253W        W 2321  34.242  22.300   2.116
29254W        W 2322  11.347  33.650   9.980
29255W        W 2323   1.510  34.638   1.270
29256W        W 2324   2.864  32.560   0.686
29257W        W 2325  28.542  38.349   4.472
29258W        W 2326  32.460  25.208  10.727
29259W        W 2327  40.023  20.945   0.492
29260W        W 2328  30.778  42.282  12.044
29261W        W 2329  29.059   1.204  14.970
29262W        W 2330  19.111  36.546  14.036
29263W        W 2331  41.460  17.817   3.840
29264W        W 2332  32.759  30.389   0.179
29265W        W 2333  38.432  23.709  12.639
29266W        W 2334   5.349  34.066   2.079
29267W        W 2335  16.513  22.134  11.956
29268W        W 2336  10.301  42.551   1.368
29269W        W 2337  32.033  20.137   4.549
29270W        W 2338  25.994   4.207   0.732
29271W        W 2339  12.862  36.016   2.903
29272W        W 2340  40.797  24.195   1.342
29273W        W 2341  44.261  38.518   0.845
29274W        W 2342   9.022  12.349   2.284
29275W        W 2343  28.162   8.154   0.395
29276W        W 2344  44.834  44.566  11.589
29277W        W 2345  37.147  40.356  14.493
29278W        W 2346  23.478  18.787   0.749
29279W        W 2347  21.750  27.905  14.254
29280W        W 2348  43.285  37.439   2.524
29281W        W 2349  10.302  29.818  12.924
29282W        W 2350   0.284   8.541  14.986
29283W        W 2351  38.391   1.004  11.504
29284W        W 2352   5.206   1.664   2.200
29285W        W 2353  36.237  16.586  12.091
29286W        W 2354  13.564  28.376   3.784
29287W        W 2355  32.560  30.040   4.736
29288W        W 2356  15.867  24.070   3.845
29289W        W 2357   5.670  41.024   1.182
29290W        W 2358  32.510  40.787   4.857
29291W        W 2359  22.057   4.729  14.447
29292W        W 2360  33.035   7.364   4.386
29293W        W 2361  15.959  24.979  12.072
29294W        W 2362  12.631  29.702   3.258
29295W        W 2363  15.373  35.010  12.916
29296W        W 2364  28.431  25.211   3.954
29297W        W 2365  34.501  34.521   1.794
29298W        W 2366  20.526  34.367   1.178
29299W        W 2367  43.809  10.684  11.578
29300W        W 2368  16.103  26.393   3.615
29301W        W 2369   8.364  22.760  10.779
29302W        W 2370   5.387  34.645   0.999
29303W        W 2371  33.323  43.375   0.935
29304W        W 2372  36.090  42.504   4.148
29305W        W 2373  22.787  36.524  12.017
29306W        W 2374  16.542   8.769  14.843
29307W        W 2375  32.708  24.969   2.664
29308W        W 2376  27.180  16.197  12.609
29309W        W 2377   6.266  26.517   5.004
29310W        W 2378  28.059  21.244   1.913
29311W        W 2379  32.210  34.498  12.962
29312W        W 2380  21.993  17.056   3.922
29313W        W 2381   8.229   5.091  11.617
29314W        W 2382  32.374  13.726   4.858
29315W        W 2383  29.929   2.214   0.242
29316W        W 2384   7.129  25.255   4.428
29317W        W 2385  31.146   0.221  13.924
29318W        W 2386  27.440  43.763  14.343
29319W        W 2387  11.774  33.550   2.827
29320W        W 2388   0.875   1.796   1.371
29321W        W 2389  19.178  36.814   1.239
29322W        W 2390   2.275  33.009  14.982
29323W        W 2391  18.285  41.936  11.217
29324W        W 2392  24.203  31.088  13.853
29325W        W 2393  38.087  29.050   3.697
29326W        W 2394  41.066   0.246   3.699
29327W        W 2395  26.240  27.076   3.792
29328W        W 2396  28.875  15.501  12.100
29329W        W 2397  32.536  29.007   0.158
29330W        W 2398  28.998   0.697  10.615
29331W        W 2399   0.922   5.201  11.222
29332W        W 2400   3.922  15.907   4.137
29333W        W 2401  44.419  22.586   4.694
29334W        W 2402   4.485   5.303  14.466
29335W        W 2403  32.255  26.479   3.701
29336W        W 2404   3.497  14.469  13.937
29337W        W 2405  13.304  41.882   1.218
29338W        W 2406   0.774   5.724  12.501
29339W        W 2407   3.165  32.005   3.311
29340W        W 2408  41.483  31.057  13.843
29341W        W 2409  26.598  42.767   3.248
29342W        W 2410  11.255  42.927  14.463
29343W        W 2411  36.545  20.043   3.672
29344W        W 2412  26.031  15.159  10.752
29345W        W 2413  35.505   0.919   4.100
29346W        W 2414  16.458  30.593   3.423
29347W        W 2415  23.566  44.951   4.087
29348W        W 2416  40.409  33.907  14.467
29349W        W 2417  24.492  33.106  12.061
29350W        W 2418   1.183  33.217  10.439
29351W        W 2419   8.654  33.998   0.860
29352W        W 2420  35.868   3.225   1.791
29353W        W 2421  19.872  43.405   1.703
29354W        W 2422  22.125  28.166   0.963
29355W        W 2423  41.736   1.277  12.385
29356W        W 2424  24.056  15.370  13.810
29357W        W 2425  36.926  43.792  14.321
29358W        W 2426  23.146  39.952  12.368
29359W        W 2427  24.580   7.632   0.329
29360W        W 2428  12.966  38.723   4.070
29361W        W 2429  38.840  28.021  10.950
29362W        W 2430   2.001  32.929  12.421
29363W        W 2431  43.388  20.777   4.768
29364W        W 2432   1.492  30.884   4.914
29365W        W 2433  34.854  33.617  12.489
29366W        W 2434   0.234  14.457   2.335
29367W        W 2435   5.883  28.177   4.122
29368W        W 2436   4.781  39.460   1.840
29369W        W 2437  27.627  43.814  10.737
29370W        W 2438  30.537  43.743   2.138
29371W        W 2439  29.293  39.292  12.436
29372W        W 2440   1.915   9.097  14.355
29373W        W 2441  34.303  35.273   0.248
29374W        W 2442  44.981  35.676  14.952
29375W        W 2443  30.927   5.946   3.294
29376W        W 2444   9.674  18.682   1.259
29377W        W 2445  42.459  34.810   3.295
29378W        W 2446  11.237   8.122  11.716
29379W        W 2447  32.538   4.905   2.731
29380W        W 2448  19.846  11.192  12.085
29381W        W 2449  13.664  38.600  13.369
29382W        W 2450  15.963  41.159  13.892
29383W        W 2451  29.057   8.847   0.186
29384W        W 2452  36.420  31.693  12.481
29385W        W 2453  38.562  28.096   2.493
29386W        W 2454  11.371  20.682  10.047
29387W        W 2455  16.273  24.146  14.061
29388W        W 2456  13.636  12.251   2.715
29389W        W 2457  19.665  26.661  13.078
29390W        W 2458  32.136   8.330  12.533
29391W        W 2459  13.812  27.400   1.761
29392W        W 2460   0.427  39.400   2.923
29393W        W 2461  29.116  14.671   3.103
29394W        W 2462  41.870  33.521   4.340
29395W        W 2463  10.231  32.797   3.840
29396W        W 2464  30.499  35.060  13.389
29397W        W 2465  10.297  43.733   3.369
29398W        W 2466  30.443  21.259   4.645
29399W        W 2467  36.641  26.724   1.746
29400W        W 2468  44.424  25.368  10.204
29401W        W 2469  24.553  11.575   2.323
29402W        W 2470  19.091  15.776   3.269
29403W        W 2471  14.785  10.541  13.383
29404W        W 2472  41.770  37.124   0.406
29405W        W 2473  20.156  42.290  12.427
29406W        W 2474  17.735  26.875  11.639
29407W        W 2475  17.686   7.924   0.337
29408W        W 2476  24.038  11.619   2.349
29409W        W 2477  40.461   5.192   4.122
29410W        W 2478   0.364   5.806   4.673
29411W        W 2479  29.946   1.356   0.110
29412W        W 2480  12.383  11.116  12.361
29413W        W 2481   2.194  15.705   2.650
29414W        W 2482  21.927   4.253  11.024
29415W        W 2483  36.787  15.954  13.346
29416W        W 2484  38.409   7.655  12.927
29417W        W 2485   9.262  19.561   2.711
29418W        W 2486   8.728  44.529  10.604
29419W        W 2487  30.005  29.446   0.899
29420W        W 2488  10.411   0.496   2.802
29421W        W 2489  23.160  31.193   3.580
29422W        W 2490   1.198  30.998   1.689
29423W        W 2491  41.248  14.167  13.916
29424W        W 2492  15.170   5.966  12.456
29425W        W 2493  34.434  42.298  10.482
29426W        W 2494  40.965  24.684  12.398
29427W        W 2495   7.191   6.134  11.051
29428W        W 2496  31.106  23.890  10.513
29429W        W 2497  32.146  20.036  12.512
29430W        W 2498  18.774  13.186   1.754
29431W        W 2499  16.230   9.805  13.096
29432W        W 2500  14.096   3.365   0.453
29433W        W 2501   7.340  10.231   0.905
29434W        W 2502   9.400  27.099   0.408
29435W        W 2503  14.252  23.537   4.550
29436W        W 2504  12.343   0.523  12.036
29437W        W 2505   5.982   3.822  14.720
29438W        W 2506  15.515  32.068   4.186
29439W        W 2507  38.582   5.670  11.090
29440W        W 2508  16.292  22.656  14.318
29441W        W 2509  18.882  37.386   4.060
29442W        W 2510  33.636   6.352   1.756
29443W        W 2511   2.650  43.737  14.519
29444W        W 2512  13.255  40.933  12.553
29445W        W 2513  36.525  10.131  13.153
29446W        W 2514  38.304  19.153   0.362
29447W        W 2515  15.343  42.892   4.112
29448W        W 2516   6.599   8.102  13.590
29449W        W 2517  16.753  21.537   3.113
29450W        W 2518  28.174  33.541   1.895
29451W        W 2519  42.879  18.129   0.311
29452W        W 2520  13.261  41.754  13.309
29453W        W 2521  14.171  27.081   4.158
29454W        W 2522  41.691  37.112  13.821
29455W        W 2523  20.829  13.466  11.286
29456W        W 2524  13.110  14.992  13.354
29457W        W 2525  38.616  30.004  12.227
29458W        W 2526  23.742  24.898  10.982
29459W        W 2527  18.698  14.764   0.360
29460W        W 2528  22.588  41.719  11.651
29461W        W 2529  41.390  40.633   1.187
29462W        W 2530  42.858   2.815  11.476
29463W        W 2531  27.207  30.448  12.007
29464W        W 2532  24.731  18.178   1.907
29465W        W 2533  32.212   3.762   4.634
29466W        W 2534   6.638  44.989  12.406
29467W        W 2535  10.113   1.678  14.385
29468W        W 2536  44.336  26.627  10.640
29469W        W 2537  11.597  44.008  13.761
29470W        W 2538  13.243  26.087   4.253
29471W        W 2539  12.817  21.483  13.414
29472W        W 2540  41.371  36.774   1.349
29473W        W 2541  29.865  30.896  14.416
29474W        W 2542  29.691  11.259   0.823
29475W        W 2543  43.560  33.356  13.793
29476W        W 2544  44.649  36.224  12.941
29477W        W 2545   2.829  42.334  13.471
29478W        W 2546   3.593  21.604   2.486
29479W        W 2547  35.251  35.373  11.328
29480W        W 2548   0.733  37.534  13.496
29481W        W 2549  20.891  17.218  10.499
29482W        W 2550  15.268  19.742   3.168
29483W        W 2551   4.950  10.829  12.199
29484W        W 2552  35.028  20.693  11.910
29485W        W 2553   2.331  24.089  12.450
29486W        W 2554   3.795  14.285  13.108
29487W        W 2555   6.026  26.671  14.492
29488W        W 2556  37.175  29.633   1.871
29489W        W 2557  39.135  20.130   2.844
29490W        W 2558  20.126  44.951   1.825
29491W        W 2559   9.291  36.061  12.584
29492W        W 2560  11.123  19.624  14.011
29493W        W 2561  12.612  24.445  12.949
29494W        W 2562  27.227   4.150  12.598
29495W        W 2563  10.657  22.320   0.472
29496W        W 2564   4.271  28.580   1.626
29497W        W 2565  30.114   7.878  14.075
29498W        W 2566  39.493  19.330   3.990
29499W        W 2567  16.279  39.703   4.962
29500W        W 2568  12.908  26.955  13.051
29501W        W 2569   2.523  38.814   2.764
29502W        W 2570  31.608  12.799   1.603
29503W        W 2571  18.041  42.395   4.648
29504W        W 2572  39.326  22.036   2.792
29505W        W 2573   1.455   3.444  11.972
29506W        W 2574  39.918   4.861   2.871
29507W        W 2575  16.668  40.825  11.153
29508W        W 2576   1.250   4.929   1.372
29509W        W 2577  31.179  18.689  12.943
29510W        W 2578   4.971   8.619   3.678
29511W        W 2579  21.105  38.795  12.412
29512W        W 2580  21.831  22.265   4.080
29513W        W 2581  31.077  17.270   3.832
29514W        W 2582  20.768  35.695  11.960
29515W        W 2583  36.694  24.998  11.422
29516W        W 2584  13.051  44.930  12.136
29517W        W 2585  15.268  34.734   4.967
29518W        W 2586  36.462  33.982  12.812
29519W        W 2587  24.199  39.895  13.030
29520W        W 2588  39.472  29.565  12.592
29521W        W 2589  17.132  42.914  13.506
29522W        W 2590  31.984   4.329  11.970
29523W        W 2591  19.645  26.388   0.047
29524W        W 2592   4.785  41.771  14.773
29525W        W 2593   8.245  31.619   4.813
29526W        W 2594  42.536  20.228   4.384
29527W        W 2595  39.430  22.756  13.352
29528W        W 2596  11.399   3.270  12.333
29529W        W 2597   9.098   8.141  11.728
29530W        W 2598   7.274  43.522   0.971
29531W        W 2599  16.057  18.779  11.447
29532W        W 2600  40.479   2.749   1.089
29533W        W 2601  24.227  31.984   3.625
29534W        W 2602  32.671  26.829  14.906
29535W        W 2603  23.629  19.127  10.179
29536W        W 2604  12.166  43.380   1.671
29537W        W 2605  37.928  18.696   0.989
29538W        W 2606  37.916  11.889   4.327
29539W        W 2607  42.395  17.620   4.469
29540W        W 2608  14.502   0.370   1.114
29541W        W 2609   8.858  33.013  12.449
29542W        W 2610   1.323  44.971  12.428
29543W        W 2611  25.399  38.328   1.378
29544W        W 2612   9.374  12.428  12.415
29545W        W 2613  17.177   1.741  14.880
29546W        W 2614   6.723  33.162  12.945
29547W        W 2615  21.325  17.715   4.229
29548W        W 2616  42.832  30.531  12.416
29549W        W 2617  15.586  13.581  14.641
29550W        W 2618  34.176  25.676  13.001
29551W        W 2619  26.528  35.709   2.206
29552W        W 2620   2.789  19.446   4.174
29553W        W 2621  34.944  30.583   4.573
29554W        W 2622  28.930  27.558   3.964
29555W        W 2623  30.253  37.271  12.507
29556W        W 2624  41.391   1.452   0.026
29557W        W 2625  17.302  41.635   3.098
29558W        W 2626  30.108  25.198  10.919
29559W        W 2627  38.466  11.638   1.130
29560W        W 2628   8.850   7.011   3.267
29561W        W 2629  30.372   5.467  11.357
29562W        W 2630  36.888   4.401  12.083
29563W        W 2631  15.642  36.583   4.581
29564W        W 2632  17.395  35.327  10.975
29565W        W 2633   5.961  20.534  12.895
29566W        W 2634   5.885  12.335   1.809
29567W        W 2635  30.491  10.506  14.482
29568W        W 2636   2.600  36.071  11.041
29569W        W 2637  29.454  37.411   1.400
29570W        W 2638  24.513  14.865  11.820
29571W        W 2639  41.343  24.317  12.546
29572W        W 2640  12.285  11.554  11.720
29573W        W 2641  31.566  23.917  12.773
29574W        W 2642  41.346   3.351   3.667
29575W        W 2643   3.938   2.708   0.794
29576W        W 2644  31.570   0.248  12.524
29577W        W 2645  17.572   9.000  11.062
29578W        W 2646  38.489  31.396   0.412
29579W        W 2647  38.774  42.555  13.422
29580W        W 2648  41.391  20.690  13.364
29581W        W 2649   0.267  24.535   0.738
29582W        W 2650   0.675  31.494   2.758
29583W        W 2651  42.999   3.970  10.659
29584W        W 2652  44.114   2.395   0.371
29585W        W 2653  33.951  12.943   2.609
29586W        W 2654   6.423  26.034   3.717
29587W        W 2655   3.287  21.827  13.086
29588W        W 2656  13.614  19.119   0.808
29589W        W 2657  20.209  30.519   4.114
29590W        W 2658  33.385  40.075   0.829
29591W        W 2659  24.521  24.048   2.269
29592W        W 2660   0.469   0.438  15.000
29593W        W 2661   7.728  33.651   1.371
29594W        W 2662  29.283  42.123   1.795
29595W        W 2663   1.512  23.940  11.540
29596W        W 2664   0.487  15.309  10.877
29597W        W 2665   2.345  27.108  14.271
29598W        W 2666  43.360  26.639   0.902
29599W        W 2667   8.621  31.872   4.051
29600W        W 2668  26.650   7.706   3.466
29601W        W 2669   6.207  27.098  12.638
29602W        W 2670  15.493  39.346   3.346
29603W        W 2671  38.527  29.470   1.854
29604W        W 2672   6.181   8.832  13.010
29605W        W 2673  17.895   7.146   2.175
29606W        W 2674   5.997  40.886   0.763
29607W        W 2675  23.503  42.181  13.398
29608W        W 2676  10.570   0.335  13.367
29609W        W 2677  41.795  23.862   3.631
29610W        W 2678  40.346  37.002   2.717
29611W        W 2679  31.447  29.912  11.504
29612W        W 2680  39.948  32.085  14.404
29613W        W 2681  19.524   3.266   3.247
29614W        W 2682  17.697   5.264   0.838
29615W        W 2683   3.964   5.666  12.916
29616W        W 2684  36.599  44.778  10.359
29617W        W 2685   2.194  13.603  12.177
29618W        W 2686  22.082  10.022   3.741
29619W        W 2687  34.931  35.471  13.977
29620W        W 2688  39.333  43.536  10.560
29621W        W 2689  19.873  32.371  11.536
29622W        W 2690  42.924  24.495  11.382
29623W        W 2691  33.353  21.590  12.683
29624W        W 2692  13.069  11.642   2.352
29625W        W 2693  26.909   7.420   0.140
29626W        W 2694   5.834   0.360  14.836
29627W        W 2695  20.295  41.367   4.106
29628W        W 2696  25.955  29.456  12.400
29629W        W 2697  36.349  24.629   4.781
29630W        W 2698   6.190   7.744   1.370
29631W        W 2699   3.469  37.437   2.588
29632W        W 2700   3.154  41.059  11.605
29633W        W 2701  26.850  24.767  13.862
29634W        W 2702   8.940   2.846   3.282
29635W        W 2703  11.293  44.294  13.416
29636W        W 2704  26.488  38.104  11.917
29637W        W 2705   4.585   1.515  13.933
29638W        W 2706  21.618  30.829  14.348
29639W        W 2707  27.848  18.444   4.861
29640W        W 2708  43.051   1.756   1.862
29641W        W 2709  38.912   6.525   5.094
29642W        W 2710  14.572   1.385   4.663
29643W        W 2711  41.344  24.912  14.754
29644W        W 2712   7.401  40.046  14.454
29645W        W 2713   8.302  31.466  12.954
29646W        W 2714   2.498  10.137   1.664
29647W        W 2715  42.126  15.201  14.758
29648W        W 2716  28.888  28.192  11.486
29649W        W 2717  39.021  42.723   4.576
29650W        W 2718  42.550  15.206  10.653
29651W        W 2719   9.044  40.410  10.678
29652W        W 2720  21.312  42.937  12.138
29653W        W 2721   4.838   6.548  11.728
29654W        W 2722  25.377  24.214  14.883
29655W        W 2723  32.619   5.225   3.151
29656W        W 2724  38.898  44.547  13.444
29657W        W 2725  29.433   1.176  11.143
29658W        W 2726  30.472  40.775  12.779
29659W        W 2727  17.641  41.861  10.771
29660W        W 2728   6.833   0.049  14.109
29661W        W 2729  31.444  20.220   1.226
29662W        W 2730  20.457  43.435   0.867
29663W        W 2731  16.590  21.867  13.565
29664W        W 2732  12.535  14.769   3.818
29665W        W 2733  41.776  43.864  12.775
29666W        W 2734   5.309  34.054  11.007
29667W        W 2735  43.902  43.042   0.974
29668W        W 2736  28.485  21.975   0.827
29669W        W 2737  14.714  29.546   1.100
29670W        W 2738  33.923  39.768   3.634
29671W        W 2739  35.082  21.011  13.883
29672W        W 2740  38.532  22.610  12.969
29673W        W 2741  22.200  16.118   4.551
29674W        W 2742  12.118  16.139   3.702
29675W        W 2743   3.417  30.443  11.569
29676W        W 2744  43.838  43.888  10.688
29677W        W 2745  25.406  42.228  13.843
29678W        W 2746   1.415  27.114   2.125
29679W        W 2747  26.856  10.836   1.163
29680W        W 2748  22.893  42.298   0.365
29681W        W 2749   1.486   3.862   1.896
29682W        W 2750  14.551  20.156   4.891
29683W        W 2751  31.234  27.097   3.213
29684W        W 2752  33.306  25.097  13.879
29685W        W 2753  19.663   3.392  10.685
29686W        W 2754  34.331  42.271  13.506
29687W        W 2755  39.792  43.881  11.598
29688W        W 2756  23.040  44.861  14.896
29689W        W 2757  32.145  24.685  13.475
29690W        W 2758  40.898  20.114   3.900
29691W        W 2759   6.164  26.671  13.336
29692W        W 2760  11.196  37.882  12.704
29693W        W 2761  26.714   4.957  12.317
29694W        W 2762   6.092  36.596  14.506
29695W        W 2763  29.171  39.125   2.608
29696W        W 2764   9.302  24.706   0.742
29697W        W 2765  34.029  20.246  12.860
29698W        W 2766  12.974  40.187   5.018
29699W        W 2767   7.027  36.957  12.824
29700W        W 2768   5.498  28.593  14.619
29701W        W 2769  44.374  23.654  11.547
29702W        W 2770  27.461  37.831   0.458
29703W        W 2771  24.261  27.103  12.093
29704W        W 2772  34.370  36.865   4.751
29705W        W 2773  18.019   3.665   2.588
29706W        W 2774  28.963  34.143   1.547
29707W        W 2775  21.318  21.048   0.316
29708W        W 2776  38.581  15.739  13.992
29709W        W 2777  21.822   0.235   3.582
29710W        W 2778  37.982  26.206   2.179
29711W        W 2779  12.899  28.990  10.324
29712W        W 2780  14.423  11.651  14.925
29713W        W 2781  14.066  17.650   4.076
29714W        W 2782   1.059  23.594  11.989
29715W        W 2783  11.560   6.681   1.412
29716W        W 2784  32.164  41.729  11.111
29717W        W 2785   7.424  24.001  12.688
29718W        W 2786  38.764   6.516   3.647
29719W        W 2787  10.206  32.394   4.223
29720W        W 2788  41.852  22.576   0.825
29721W        W 2789  10.715   2.264   4.340
29722W        W 2790  32.634  32.322   0.417
29723W        W 2791  25.568  29.376   1.282
29724W        W 2792   1.188   8.589  14.388
29725W        W 2793  32.137   3.741  14.941
29726W        W 2794  35.225  34.153  13.377
29727W        W 2795  26.582   7.193  14.072
29728W        W 2796  25.724  36.081  11.804
29729W        W 2797   7.260  42.978  11.867
29730W        W 2798  30.904   4.765   4.619
29731W        W 2799  32.347   7.782   1.959
29732W        W 2800   3.404   7.873  10.610
29733W        W 2801   3.927  40.935   0.847
29734W        W 2802  27.166  31.501   1.644
29735W        W 2803  41.766  11.743  12.550
29736W        W 2804  36.481  34.166   3.769
29737W        W 2805   5.864  43.529  13.995
29738W        W 2806  25.504  19.786  12.008
29739W        W 2807  35.945  40.486   0.932
29740W        W 2808   0.399  42.239   0.261
29741W        W 2809  31.427  11.062   2.784
29742W        W 2810   5.608  27.117  11.762
29743W        W 2811  22.736  16.687  11.117
29744W        W 2812  11.624  38.813   4.149
29745W        W 2813  24.585  10.364  10.998
29746W        W 2814  27.569  39.495  12.191
29747W        W 2815  21.745  40.392  12.953
29748W        W 2816   8.230  14.849   3.111
29749W        W 2817  41.009  19.082  13.038
29750W        W 2818  33.785  33.685  10.568
29751W        W 2819  34.348  22.175  10.306
29752W        W 2820  36.922   7.353  13.484
29753W        W 2821   2.409  24.378   0.375
29754W        W 2822  12.963  17.866   1.785
29755W        W 2823  36.849   8.368   3.398
29756W        W 2824   7.437   7.519  11.998
29757W        W 2825   4.946  24.129   4.237
29758W        W 2826  18.577  26.492   1.285
29759W        W 2827   3.771  17.231   2.926
29760W        W 2828  42.173  38.569  12.112
29761W        W 2829  28.574  15.699   3.943
29762W        W 2830  40.792   9.138  13.552
29763W        W 2831   4.263  23.903   1.316
29764W        W 2832  38.496   9.672  11.608
29765W        W 2833  16.167   1.995  14.715
29766W        W 2834  28.877   7.383   0.287
29767W        W 2835  17.295  17.665  10.670
29768W        W 2836  28.043  16.262  12.891
29769W        W 2837  39.942   7.976  11.579
29770W        W 2838  11.783   5.328  11.480
29771W        W 2839  17.193  22.296  14.095
29772W        W 2840  29.205  44.388  11.955
29773W        W 2841  14.894   2.268  12.500
29774W        W 2842  31.867  22.040   0.396
29775W        W 2843   4.131  12.831  12.852
29776W        W 2844  27.924   4.390  14.908
29777W        W 2845   6.313  15.284  12.376
29778W        W 2846  38.200  29.044   0.286
29779W        W 2847  36.596  18.722   0.773
29780W        W 2848  33.041  35.641   0.006
29781W        W 2849   5.645  23.753   4.734
29782W        W 2850  20.245  30.899   2.347
29783W        W 2851  16.873  28.969  13.432
29784W        W 2852  24.999  24.923  13.865
29785W        W 2853  16.101  12.670  13.271
29786W        W 2854  29.336  15.794  13.093
29787W        W 2855  24.424  27.572  12.213
29788W        W 2856  29.610  16.306   4.333
29789W        W 2857   8.007  16.890   1.831
29790W        W 2858  32.329  21.992  10.768
29791W        W 2859  31.728   6.745  11.956
29792W        W 2860  14.196   7.395  13.923
29793W        W 2861  30.120  28.922  12.996
29794W        W 2862  35.531  20.503  11.490
29795W        W 2863  12.882  13.743  13.746
29796W        W 2864  30.814  33.975   0.365
29797W        W 2865  19.004  31.651  13.809
29798W        W 2866   0.292  38.450   2.257
29799W        W 2867  38.626  14.287  12.544
29800W        W 2868   2.757  30.750  11.037
29801W        W 2869  28.481  23.368  13.650
29802W        W 2870  41.109  24.316   4.226
29803W        W 2871  20.981  28.089   1.283
29804W        W 2872  14.322  18.167  14.297
29805W        W 2873  23.813  16.541   2.629
29806W        W 2874  36.410  10.434  11.622
29807W        W 2875  21.668   0.385  13.111
29808W        W 2876  31.470  16.119   2.173
29809W        W 2877  31.549  38.328   4.220
29810W        W 2878  30.946  40.649   0.868
29811W        W 2879   6.481  13.467  13.799
29812W        W 2880  31.409  31.604  13.023
29813W        W 2881  21.597  26.021  13.583
29814W        W 2882  42.556  43.718  14.372
29815W        W 2883  25.528  33.992  13.064
29816W        W 2884  10.271  18.992   3.741
29817W        W 2885  42.994  43.976  14.404
29818W        W 2886  20.050  22.498   1.426
29819W        W 2887  23.208  44.890   1.352
29820W        W 2888  35.324  29.343  12.168
29821W        W 2889  41.679  27.129   3.790
29822W        W 2890  39.032  34.622   1.707
29823W        W 2891  22.582  23.083  10.849
29824W        W 2892  34.036  23.310   1.912
29825W        W 2893  40.410   5.602  12.930
29826W        W 2894   6.856  10.800   1.867
29827W        W 2895  19.683  11.695  13.888
29828W        W 2896   7.746  32.931  13.275
29829W        W 2897  41.001  15.274   4.255
29830W        W 2898  25.737  16.291   0.914
29831W        W 2899   0.314  25.993  13.855
29832W        W 2900  14.089  38.938  12.181
29833W        W 2901  28.162  35.856   2.774
29834W        W 2902  10.187   1.024   5.029
29835W        W 2903  29.533  12.378   1.294
29836W        W 2904  22.215  32.412   2.210
29837W        W 2905  11.611  25.187   2.422
29838W        W 2906  38.549  27.715   4.670
29839W        W 2907   4.938  23.232   2.893
29840W        W 2908  14.225  15.848  13.356
29841W        W 2909  20.584  23.232   4.800
29842W        W 2910  22.178  11.060   3.740
29843W        W 2911  13.120  10.181  13.377
29844W        W 2912   1.962  39.561   1.321
29845W        W 2913  17.166  22.772   4.600
29846W        W 2914  42.326   0.390   0.631
29847W        W 2915  16.636  27.399   0.748
29848W        W 2916  17.750  15.285   4.149
29849W        W 2917   3.404  36.837  14.439
29850W        W 2918   9.560  11.962  12.399
29851W        W 2919  40.605  15.051  10.727
29852W        W 2920  40.401  39.020   1.361
29853W        W 2921  34.478  18.595  10.689
29854W        W 2922   5.415   1.901  11.345
29855W        W 2923  32.099  19.483   4.320
29856W        W 2924   9.548  26.652  10.262
29857W        W 2925  40.554  36.780  12.930
29858W        W 2926  42.966  43.954   2.232
29859W        W 2927  40.109  37.968   0.738
29860W        W 2928   5.889  33.325   0.958
29861W        W 2929   8.322   4.611  11.443
29862W        W 2930   8.254  36.759   4.581
29863W        W 2931  24.476  35.510   3.730
29864W        W 2932  18.396  18.984   1.669
29865W        W 2933  21.318  17.230  12.977
29866W        W 2934  11.753  27.677   3.325
29867W        W 2935  43.932   8.125   4.080
29868W        W 2936  40.003  27.861   2.274
29869W        W 2937  31.572  13.398  11.238
29870W        W 2938  33.556   2.338   1.786
29871W        W 2939  39.047  44.852   0.921
29872W        W 2940   1.496  33.552   4.807
29873W        W 2941  26.880  22.585  13.937
29874W        W 2942   6.353  38.020   4.705
29875W        W 2943   1.871  21.988   2.359
29876W        W 2944  15.615  41.790  10.669
29877W        W 2945  29.158  43.872   4.276
29878W        W 2946  38.798  37.554   0.014
29879W        W 2947   8.164  22.709   1.455
29880W        W 2948  31.228   4.472   2.182
29881W        W 2949  37.954  37.570  10.480
29882W        W 2950  26.580  44.898   4.096
29883W        W 2951  30.964  37.856   0.500
29884W        W 2952  25.024  29.384   1.795
29885W        W 2953  36.269  33.418   5.102
29886W        W 2954  43.440   3.384  13.009
29887W        W 2955  38.037   5.000  11.590
29888W        W 2956   2.431  34.505  13.827
29889W        W 2957   7.678  41.945  11.118
29890W        W 2958  13.071  39.846   0.730
29891W        W 2959   5.746  42.410   2.882
29892W        W 2960  28.974  18.820  13.053
29893W        W 2961  42.265  40.951  14.076
29894W        W 2962  14.040  16.246   4.154
29895W        W 2963   3.475  30.398  14.275
29896W        W 2964  17.071  30.097  14.184
29897W        W 2965  26.490  31.890   0.440
29898W        W 2966  34.876  41.799   2.274
29899W        W 2967  44.818  41.025   3.685
29900W        W 2968  43.764  12.674  11.402
29901W        W 2969  40.280  40.851  11.972
29902W        W 2970  40.864  42.853   1.934
29903W        W 2971  18.469  30.618  14.507
29904W        W 2972  33.003  40.250   3.620
29905W        W 2973  27.473  21.531   3.305
29906W        W 2974  38.937  38.915  11.757
29907W        W 2975  38.883   6.956  13.526
29908W        W 2976  11.338  29.121  13.949
29909W        W 2977  14.354  43.026   2.889
29910W        W 2978  37.348  37.797  12.746
29911W        W 2979  34.799  21.037   0.193
29912W        W 2980   4.514  16.680  14.907
29913W        W 2981  16.815  38.935  10.474
29914W        W 2982  13.780   6.419   4.622
29915W        W 2983  19.545  18.258   1.293
29916W        W 2984  27.085  26.067   4.786
29917W        W 2985   2.761  40.921   1.293
29918W        W 2986   8.483  29.936  12.413
29919W        W 2987  19.613   7.687  13.588
29920W        W 2988  28.584  18.653  12.447
29921W        W 2989  44.978  22.525   3.800
29922W        W 2990   7.573   6.204  11.918
29923W        W 2991   9.130  42.394   0.427
29924W        W 2992  39.987  14.926  11.062
29925W        W 2993  17.009  27.212  14.335
29926W        W 2994  22.798   0.754  11.904
29927W        W 2995  20.478   6.791  14.987
29928W        W 2996  40.056   8.687  13.921
29929W        W 2997  16.185  15.569  12.487
29930W        W 2998  29.358   9.881   0.910
29931W        W 2999  41.733  44.277   1.495
29932W        W 3000  11.104  28.142   2.763
29933W        W 3001  30.663  25.000   0.845
29934W        W 3002  19.475  44.581   2.932
29935W        W 3003  29.722  38.483  13.145
29936W        W 3004  31.053  16.138   0.368
29937W        W 3005  16.996  13.252   3.381
29938W        W 3006  31.368   7.516   4.193
29939W        W 3007   1.010  35.870  12.483
29940W        W 3008  28.737  30.667  11.095
29941W        W 3009  20.596  42.534   3.913
29942W        W 3010  17.809  44.622   3.696
29943W        W 3011  18.958  31.934  11.641
29944W        W 3012   4.376   2.331  12.941
29945W        W 3013   0.312  27.551   2.331
29946W        W 3014   5.502  23.943  11.171
29947W        W 3015  19.139   9.900  13.281
29948W        W 3016   3.816  27.143  11.158
29949W        W 3017  24.158  34.417  14.021
29950W        W 3018  19.563  18.349   4.565
29951W        W 3019  44.007  31.625   2.724
29952W        W 3020   9.586   3.908  13.169
29953W        W 3021  41.380  13.574  14.809
29954W        W 3022  27.170  38.565  10.641
29955W        W 3023  39.680  41.633  14.321
29956W        W 3024   9.765  24.575  14.286
29957W        W 3025  15.217   9.782  12.560
29958W        W 3026  37.843  19.672   4.071
29959W        W 3027   9.920  37.459  12.441
29960W        W 3028  24.271  34.511  12.844
29961W        W 3029  10.085  33.043  12.094
29962W        W 3030  14.040  41.547  10.218
29963W        W 3031  18.475  27.050  10.993
29964W        W 3032   8.353  39.758   5.028
29965W        W 3033  37.603  30.232  12.349
29966W        W 3034   8.325  42.841   0.599
29967W        W 3035  43.014   7.299  14.864
29968W        W 3036  26.084  34.658  13.584
29969W        W 3037  36.092  18.201  10.739
29970W        W 3038  37.878  32.104  13.861
29971W        W 3039  38.854  20.736   1.748
29972W        W 3040  39.000  31.028   2.394
29973W        W 3041  33.509  42.976  11.405
29974W        W 3042  44.075  30.076  12.429
29975W        W 3043   2.401  16.886   4.075
29976W        W 3044  27.766   9.243   2.429
29977W        W 3045  29.964  41.440  13.613
29978W        W 3046   8.781  36.182  12.594
29979W        W 3047  41.478  27.792   2.801
29980W        W 3048  36.592  25.649  11.995
29981W        W 3049  35.528   4.687   3.206
29982W        W 3050  44.301  30.066  13.519
29983W        W 3051  35.281   3.313   0.878
29984W        W 3052   9.233   6.236   4.732
29985W        W 3053  39.859  10.548   4.175
29986W        W 3054   6.322  26.548  13.827
29987W        W 3055  32.019  22.278   3.636
29988W        W 3056  19.807  32.511   1.508
29989W        W 3057  16.268   3.402  10.845
29990W        W 3058  44.677  42.767  13.863
29991W        W 3059  41.959  36.425  11.195
29992W        W 3060   7.813  44.717   2.121
29993W        W 3061   6.469  29.008  11.202
29994W        W 3062  17.577  23.450   1.184
29995W        W 3063  16.556  35.505   4.764
29996W        W 3064  24.972  39.490  10.656
29997W        W 3065  16.414  14.591  12.418
29998W        W 3066   9.470   1.351  13.151
29999W        W 3067  31.107  28.642   0.470
30000W        W 3068  18.705  34.359  12.569
30001W        W 3069  27.101  12.662   2.453
30002W        W 3070   5.453  23.351   3.764
30003W        W 3071  22.318  44.208  14.391
30004W        W 3072   3.523   4.896   4.244
30005W        W 3073  41.937  21.577   0.792
30006W        W 3074  21.562  30.311   3.635
30007W        W 3075  29.020  26.939   2.164
30008W        W 3076  19.051  35.061  12.526
30009W        W 3077  41.736   4.249  12.770
30010W        W 3078  13.809  20.249  12.350
30011W        W 3079  37.275  21.756   2.188
30012W        W 3080  32.292   5.900  13.854
30013W        W 3081  18.949   0.414   1.974
30014W        W 3082  29.713  36.109   0.100
30015W        W 3083  11.811  23.512  14.430
30016W        W 3084  30.093   0.991   0.886
30017W        W 3085  44.749  29.471  10.725
30018W        W 3086  44.664  13.493   0.252
30019W        W 3087  32.881  28.245   4.045
30020W        W 3088  21.337  16.594  13.533
30021W        W 3089  22.048  31.185  11.931
30022W        W 3090  24.947  18.429   5.749
30023W        W 3091  19.966   9.348  10.813
30024W        W 3092  40.938   7.680  13.814
30025W        W 3093  35.376  41.007  12.609
30026W        W 3094  35.256  22.027   2.099
30027W        W 3095  25.385  42.544  14.765
30028W        W 3096  44.188  12.083  10.685
30029W        W 3097   4.384  35.485  10.672
30030W        W 3098  40.022  31.098  14.653
30031W        W 3099  14.219  22.129   3.865
30032W        W 3100  44.716   1.468   3.619
30033W        W 3101   3.803   1.179   1.902
30034W        W 3102   4.190   8.665   4.200
30035W        W 3103  21.540  20.135   1.003
30036W        W 3104   7.891  19.056   1.718
30037W        W 3105  29.611  42.054  10.535
30038W        W 3106   4.730  23.592  10.761
30039W        W 3107  38.806  22.344  13.608
30040W        W 3108   6.812   8.755   3.122
30041W        W 3109  26.901   4.800  10.603
30042W        W 3110  29.021  17.538   4.286
30043W        W 3111  28.146  31.078   3.358
30044W        W 3112  32.130  11.107   0.602
30045W        W 3113  13.804  29.054  13.923
30046W        W 3114  40.907  12.124  13.436
30047W        W 3115  35.862  11.200  13.343
30048W        W 3116  39.801  39.351   2.791
30049W        W 3117  31.944   3.749   3.072
30050W        W 3118  33.443  15.851  11.506
30051W        W 3119  17.070  29.278  13.051
30052W        W 3120  39.050  39.122  12.265
30053W        W 3121  24.044  43.526  13.434
30054W        W 3122  24.194  15.085  14.681
30055W        W 3123  31.511  43.038   2.265
30056W        W 3124   7.654  34.901   3.412
30057W        W 3125  33.931  25.996   1.720
30058W        W 3126  31.980  35.174   3.615
30059W        W 3127  22.025  30.753   1.389
30060W        W 3128  40.389  26.586   3.416
30061W        W 3129  27.398  30.574   3.247
30062W        W 3130  22.910  40.509   0.870
30063W        W 3131  17.323  35.010  13.616
30064W        W 3132   2.855  42.253  11.978
30065W        W 3133   9.405  44.804  13.878
30066W        W 3134  33.139  26.500  13.995
30067W        W 3135  25.178  14.290  11.546
30068W        W 3136  21.138   6.654   3.649
30069W        W 3137  10.732   6.334  14.320
30070W        W 3138  18.377  32.900   0.433
30071W        W 3139  18.370  44.537  10.528
30072W        W 3140  11.795  40.880  13.741
30073W        W 3141  12.449  31.786  11.170
30074W        W 3142   8.573  27.693  13.294
30075W        W 3143  26.987  24.197   2.875
30076W        W 3144  10.801  39.313   3.609
30077W        W 3145  38.776  22.750   1.587
30078W        W 3146   2.887  34.542   4.696
30079W        W 3147  43.389  30.136   0.272
30080W        W 3148  23.658  18.608   5.160
30081W        W 3149  39.544  20.124  12.114
30082W        W 3150  13.181  11.883  13.018
30083W        W 3151   7.364  21.310   0.594
30084W        W 3152  13.647  31.033   3.809
30085W        W 3153  26.106  32.667  11.048
30086W        W 3154  13.208  17.052   3.216
30087W        W 3155  35.268   0.761  11.501
30088W        W 3156   8.407  31.221   0.718
30089W        W 3157  30.993  18.831   3.680
30090W        W 3158   1.149  14.082   1.115
30091W        W 3159  26.465  33.639  13.806
30092W        W 3160  17.755   7.891  13.970
30093W        W 3161  39.402  18.445   3.575
30094W        W 3162   2.995   7.835   4.120
30095W        W 3163   4.681  43.238  14.998
30096W        W 3164   8.159  18.978  11.533
30097W        W 3165  16.617   8.589  11.975
30098W        W 3166   2.386  41.337   2.798
30099W        W 3167   9.638   9.343   2.827
30100W        W 3168   1.513  38.663   2.779
30101W        W 3169  14.021  39.011   0.070
30102W        W 3170  13.187  31.667   3.968
30103W        W 3171  17.259  12.443  12.513
30104W        W 3172  29.479  19.823   4.125
30105W        W 3173   9.470   9.850  13.556
30106W        W 3174  36.982  32.403  10.973
30107W        W 3175  11.852  26.763  10.273
30108W        W 3176   9.197  29.650   0.315
30109W        W 3177  44.802  39.852  11.154
30110W        W 3178  39.174   8.347   9.767
30111W        W 3179   1.181  10.661  12.484
30112W        W 3180  25.414  24.529   3.109
30113W        W 3181   2.350  25.015  11.102
30114W        W 3182  42.749   0.992  10.616
30115W        W 3183   3.357   7.284   0.014
30116W        W 3184  28.425  34.873   2.007
30117W        W 3185   3.432  25.735  12.815
30118W        W 3186  42.034   1.929  13.493
30119W        W 3187   1.718  28.661  12.480
30120W        W 3188  16.850  30.374   0.418
30121W        W 3189  42.733  29.154  10.195
30122W        W 3190  22.719  32.450   2.346
30123W        W 3191   9.515  43.839  11.103
30124W        W 3192   7.203  26.631  13.924
30125W        W 3193  32.846  34.048   1.325
30126W        W 3194  11.284  24.080   3.169
30127W        W 3195   8.824   9.149  13.451
30128W        W 3196  16.749   3.353   1.409
30129W        W 3197   7.198  35.920  13.345
30130W        W 3198  32.115  32.863  12.976
30131W        W 3199  41.800  24.448   1.717
30132W        W 3200  18.461  43.195   4.816
30133W        W 3201  28.684  38.074   3.951
30134W        W 3202  10.636  37.410   3.216
30135W        W 3203  37.007  15.189  12.564
30136W        W 3204  18.340  20.285  12.194
30137W        W 3205  13.219  20.666   3.265
30138W        W 3206  18.343  32.014   2.401
30139W        W 3207   6.667  17.338   2.805
30140W        W 3208  37.132  42.401   1.272
30141W        W 3209  37.853   0.037  10.448
30142W        W 3210  37.008   8.888   2.942
30143W        W 3211  29.238  13.509   3.841
30144W        W 3212  27.552  30.855  13.856
30145W        W 3213  26.936  31.556  13.872
30146W        W 3214  28.694  19.234   4.355
30147W        W 3215   4.148   8.064  12.933
30148W        W 3216  10.660  31.573  12.893
30149W        W 3217  16.315  14.283  14.848
30150W        W 3218   5.543  20.526  11.486
30151W        W 3219  21.034  10.323  13.867
30152W        W 3220  44.867  34.345   4.535
30153W        W 3221   7.141  20.322   0.925
30154W        W 3222  42.531  35.060  11.169
30155W        W 3223  23.423  22.979  11.553
30156W        W 3224  29.338  24.860  11.053
30157W        W 3225  33.869  26.423  11.196
30158W        W 3226  15.225  31.228   1.695
30159W        W 3227  27.061  18.128   0.048
30160W        W 3228  37.724   6.518  10.400
30161W        W 3229  35.296  24.176  12.861
30162W        W 3230  12.847  19.529   0.907
30163W        W 3231  24.509  25.168  10.464
30164W        W 3232  15.809  30.712   1.326
30165W        W 3233  35.611  41.007   2.722
30166W        W 3234  36.887  33.617   2.682
30167W        W 3235  21.563  25.077   0.926
30168W        W 3236  23.116  18.289  10.483
30169W        W 3237  35.912  21.015  12.280
30170W        W 3238  34.226  15.629   4.466
30171W        W 3239  36.408  43.525  12.013
30172W        W 3240  29.909  13.590  11.537
30173W        W 3241  31.657   2.588   4.034
30174W        W 3242  22.666  10.675   2.911
30175W        W 3243  43.415  34.156   1.220
30176W        W 3244  38.593  34.996   5.047
30177W        W 3245  12.918   6.157  14.855
30178W        W 3246   6.609  21.746   1.193
30179W        W 3247  40.419  37.798   0.363
30180W        W 3248   9.191   1.967  12.584
30181W        W 3249  36.387   1.889  13.282
30182W        W 3250  41.043  13.679   4.207
30183W        W 3251  35.022   1.001  11.034
30184W        W 3252  35.594  28.571  10.824
30185W        W 3253  12.986  19.725  12.517
30186W        W 3254   3.298  23.663   2.182
30187W        W 3255  21.790  36.955   3.676
30188W        W 3256   3.429  28.975   4.546
30189W        W 3257  15.083  28.120   2.312
30190W        W 3258  15.764  44.176   3.587
30191W        W 3259  12.540   6.108  13.570
30192W        W 3260  23.468  36.081  13.476
30193W        W 3261   7.668  28.499   3.780
30194W        W 3262   0.239  22.448   4.244
30195W        W 3263  42.559  36.396   1.784
30196W        W 3264   6.926  18.161   3.889
30197W        W 3265  30.113  18.475  12.430
30198W        W 3266  35.413  40.815  11.712
30199W        W 3267  32.188  44.420   2.732
30200W        W 3268  16.206  38.423   2.734
30201W        W 3269  36.853  30.477   4.218
30202W        W 3270   8.023  38.823  10.284
30203W        W 3271  16.580  15.054   2.765
30204W        W 3272   1.967  35.443   4.379
30205W        W 3273  38.047  19.056  11.065
30206W        W 3274  10.791  40.754   2.175
30207W        W 3275  44.414  43.327  11.187
30208W        W 3276   2.224  10.140   0.730
30209W        W 3277   3.680  23.950  12.392
30210W        W 3278  40.222  42.503   1.624
30211W        W 3279  43.834  14.867   2.595
30212W        W 3280  37.895   0.323   3.697
30213W        W 3281   2.775  42.745  12.247
30214W        W 3282  39.264   8.238  10.660
30215W        W 3283  30.914  13.317  10.676
30216W        W 3284  40.906  30.491   3.821
30217W        W 3285  29.553   5.853  12.809
30218W        W 3286  37.599   0.485  14.294
30219W        W 3287  15.152  19.188  13.513
30220W        W 3288  16.145  37.365   3.594
30221W        W 3289  14.196  37.196  11.179
30222W        W 3290   7.774  29.600  13.046
30223W        W 3291   3.433   0.779  11.144
30224W        W 3292  32.373  43.031  11.611
30225W        W 3293  17.830  39.480   2.396
30226W        W 3294  13.342  18.236  14.813
30227W        W 3295  22.143   0.692   2.368
30228W        W 3296   8.709  41.536   4.147
30229W        W 3297  15.093  27.711  12.156
30230W        W 3298  39.945  40.000  14.988
30231W        W 3299   3.265   6.128  12.820
30232W        W 3300   5.305  17.725  11.129
30233W        W 3301   5.731  40.447  13.380
30234W        W 3302  24.221  14.370  10.773
30235W        W 3303  35.006  20.537  10.788
30236W        W 3304  16.214  42.961   3.288
30237W        W 3305  43.825   2.826   0.336
30238W        W 3306  12.202  30.148  12.089
30239W        W 3307   3.238  37.531  12.224
30240W        W 3308   8.368  38.758   3.287
30241W        W 3309  26.896  12.400   3.266
30242W        W 3310  23.416  33.066   4.778
30243W        W 3311  28.666  15.284   1.864
30244W        W 3312  39.476  34.678  13.999
30245W        W 3313  37.975  37.847   0.820
30246W        W 3314  18.530   9.076  11.007
30247W        W 3315  16.740  19.722   4.404
30248W        W 3316  33.094  38.968   4.623
30249W        W 3317  28.936  28.987   3.773
30250W        W 3318  20.320  32.332   3.382
30251W        W 3319   0.906  29.923  10.720
30252W        W 3320  44.770  19.784   0.375
30253W        W 3321  39.262  36.978  13.702
30254W        W 3322   9.680  28.827  13.528
30255W        W 3323   1.376  36.772  10.811
30256W        W 3324  22.459  13.626  14.359
30257W        W 3325  21.619   8.208  14.749
30258W        W 3326  37.660  43.893  11.984
30259W        W 3327  17.572   0.260  13.918
30260W        W 3328  13.703  23.080   1.771
30261W        W 3329   2.207  14.518  14.502
30262W        W 3330  26.148   2.250   1.077
30263W        W 3331   1.109  18.806  12.461
30264W        W 3332  11.747  21.116   3.260
30265W        W 3333  42.970  24.921   0.727
30266W        W 3334  15.341  18.316  12.190
30267W        W 3335  43.524  18.037   4.157
30268W        W 3336  28.136  11.736   5.092
30269W        W 3337  11.226  25.638  13.782
30270W        W 3338  14.788  23.109   0.706
30271W        W 3339  29.417  39.792  11.019
30272W        W 3340  11.023   5.010  11.698
30273W        W 3341  27.447   6.463  14.301
30274W        W 3342  16.675  18.795  14.318
30275W        W 3343  29.474  16.274   1.318
30276W        W 3344  19.513  29.996  11.480
30277W        W 3345   4.851  39.865   1.504
30278W        W 3346  37.595  12.340   1.315
30279W        W 3347   2.433   9.515  11.466
30280W        W 3348  37.125  34.124   0.364
30281W        W 3349   4.827   8.410   4.119
30282W        W 3350  37.497  36.351   5.028
30283W        W 3351  19.271  31.682   1.176
30284W        W 3352  39.197  27.226   5.145
30285W        W 3353  14.739   8.125  11.718
30286W        W 3354  43.194  31.980  13.345
30287W        W 3355  43.306  21.259  13.303
30288W        W 3356  19.798   4.215   2.718
30289W        W 3357  20.578  31.657   4.517
30290W        W 3358   9.903  38.788   2.784
30291W        W 3359  19.545  14.050   4.509
30292W        W 3360  21.763   1.409   4.330
30293W        W 3361  25.722  31.579  12.529
30294W        W 3362  13.994  15.024  13.755
30295W        W 3363  16.762   4.362  12.188
30296W        W 3364  32.651  15.771  10.220
30297W        W 3365  14.328   4.824   2.321
30298W        W 3366  44.480  34.391  14.574
30299W        W 3367  13.339   8.239   0.947
30300W        W 3368  19.303  37.810  11.890
30301W        W 3369  28.446  44.919  10.359
30302W        W 3370  31.980  18.562   0.681
30303W        W 3371   1.276  42.195   2.695
30304W        W 3372   6.921  29.392  12.066
30305W        W 3373   4.221   9.581   3.547
30306W        W 3374  19.520  38.985  14.918
30307W        W 3375  14.203   8.384   3.710
30308W        W 3376  14.162  28.991   2.647
30309W        W 3377  12.764   5.967   4.648
30310W        W 3378  15.683  25.009  13.082
30311W        W 3379  10.845  43.260   4.558
30312W        W 3380   1.234  21.062  10.713
30313W        W 3381  38.216  15.628   3.652
30314W        W 3382   6.881  32.990   4.070
30315W        W 3383   0.960   4.611  14.825
30316W        W 3384  40.327  31.260   1.914
30317W        W 3385  28.943  42.199  12.122
30318W        W 3386  23.570  10.293   3.422
30319W        W 3387  34.859   4.136  13.460
30320W        W 3388  15.947  25.111   4.237
30321W        W 3389   7.159  35.427   3.814
30322W        W 3390  40.039  11.391   4.486
30323W        W 3391  15.379   2.390   4.137
30324W        W 3392  27.234  29.354   1.473
30325W        W 3393   3.311  35.300   5.127
30326W        W 3394  35.154  27.436   3.365
30327W        W 3395  15.609  14.701  12.008
30328W        W 3396   0.778  22.867  12.840
30329W        W 3397  36.133  28.957   1.351
30330W        W 3398  19.692  24.228  11.038
30331W        W 3399  34.170  42.623   2.922
30332W        W 3400  11.125  16.718   1.849
30333W        W 3401  14.005  26.494   1.915
30334W        W 3402   4.709  18.623   2.608
30335W        W 3403  32.461  29.507   0.328
30336W        W 3404   3.374  34.901   1.414
30337W        W 3405  41.056  35.352  12.482
30338W        W 3406  25.764  27.571   4.192
30339W        W 3407  36.418  44.952   3.462
30340W        W 3408  17.794  26.232   0.913
30341W        W 3409  43.459  16.565   2.142
30342W        W 3410   9.382  26.467   4.139
30343W        W 3411   8.197  13.628  12.897
30344W        W 3412  43.876   7.195  10.558
30345W        W 3413  11.040   2.414  10.719
30346W        W 3414  30.896  38.560  11.494
30347W        W 3415  23.098   7.107   0.466
30348W        W 3416  41.697  26.027  11.680
30349W        W 3417  27.250  20.873   1.002
30350W        W 3418  42.941  28.975  13.928
30351W        W 3419  23.006  33.107  14.305
30352W        W 3420  39.430  34.655   0.515
30353W        W 3421  25.053  23.037  13.314
30354W        W 3422  20.111  11.724  10.915
30355W        W 3423   6.343  10.373  11.977
30356W        W 3424   0.953   9.466  14.491
30357W        W 3425  24.193   9.754   3.149
30358W        W 3426  22.444  12.749   3.657
30359W        W 3427   8.175  34.816  10.789
30360W        W 3428  12.107  17.127  11.008
30361W        W 3429  20.639  38.555   3.652
30362W        W 3430  31.886   7.168  10.375
30363W        W 3431   4.888  42.741   1.803
30364W        W 3432  35.884  29.070   4.744
30365W        W 3433  22.501  37.374  10.370
30366W        W 3434  19.196  27.054  11.563
30367W        W 3435  26.177   2.808   0.187
30368W        W 3436  11.413  10.058   4.577
30369W        W 3437  14.551  43.504  13.926
30370W        W 3438  27.024  33.647  13.396
30371W        W 3439  37.082  38.045   1.430
30372W        W 3440  12.132  18.827  10.335
30373W        W 3441  33.335  17.538   4.167
30374W        W 3442  41.897   9.755   2.849
30375W        W 3443  32.445  43.757   4.662
30376W        W 3444  24.029  40.049   2.737
30377W        W 3445  38.837  31.971   3.270
30378W        W 3446  44.836  31.626  11.856
30379W        W 3447  11.231  38.745  13.116
30380W        W 3448  20.662  13.309   0.989
30381W        W 3449   7.220  14.175  14.976
30382W        W 3450  41.022  28.707   3.144
30383W        W 3451  43.437   5.808   2.087
30384W        W 3452  28.177  39.995   4.997
30385W        W 3453   5.132  16.823   2.857
30386W        W 3454  10.178  44.389   3.730
30387W        W 3455   3.718   7.977  14.917
30388W        W 3456  22.092  11.870  14.808
30389W        W 3457  38.786  31.926  14.949
30390W        W 3458  18.991  32.383  11.385
30391W        W 3459  41.980  19.773   0.263
30392W        W 3460  23.629   8.439  11.644
30393W        W 3461   8.710  37.039  14.947
30394W        W 3462  34.325  44.863   1.849
30395W        W 3463  14.378  40.947   4.682
30396W        W 3464  30.929   1.830  14.401
30397W        W 3465  27.505  12.207  11.138
30398W        W 3466  10.092  40.102  10.922
30399W        W 3467   2.296   2.542   1.398
30400W        W 3468   8.229  16.596  11.085
30401W        W 3469   5.293  22.660  12.896
30402W        W 3470  37.030   7.094  11.495
30403W        W 3471  33.559  36.928   4.343
30404W        W 3472   8.754   9.811   4.778
30405W        W 3473  21.646   7.003   3.169
30406W        W 3474  15.684   3.199   1.441
30407W        W 3475   0.042  37.097  13.993
30408W        W 3476   5.962  13.590  11.940
30409W        W 3477  24.188  12.397  14.801
30410W        W 3478   7.997  10.625   3.236
30411W        W 3479  18.532  35.477   4.537
30412W        W 3480  32.356  14.722  11.100
30413W        W 3481  12.774   2.973   3.815
30414W        W 3482  11.744   9.539   3.303
30415W        W 3483   4.468   8.837  14.477
30416W        W 3484   7.480   4.163   3.680
30417W        W 3485  29.394  10.136   2.761
30418W        W 3486  35.559  28.017   0.489
30419W        W 3487  36.376  35.891   1.191
30420W        W 3488  33.673  35.149  13.007
30421W        W 3489   5.848  19.545   3.853
30422W        W 3490   2.844  39.436  12.502
30423W        W 3491  41.413  12.654  10.756
30424W        W 3492   3.974  16.900   3.265
30425W        W 3493   3.002  28.293  13.039
30426W        W 3494   0.067  35.661   2.412
30427W        W 3495  43.321  36.133  12.878
30428W        W 3496  20.575  21.835  13.110
30429W        W 3497   0.502   6.325  11.932
30430W        W 3498  35.537  12.818  10.731
30431W        W 3499   1.924  19.863  11.880
30432W        W 3500  37.007  11.439   0.769
30433W        W 3501  10.576   2.397   3.874
30434W        W 3502  17.808  21.996   0.297
30435W        W 3503  26.019  12.552   4.254
30436W        W 3504  32.595  13.339  14.713
30437W        W 3505  15.681  24.833   3.259
30438W        W 3506  11.179  43.413  10.669
30439W        W 3507   7.846  33.200   1.635
30440W        W 3508  44.276  33.097   0.346
30441W        W 3509  39.572  23.225   4.264
30442W        W 3510   1.772   0.374  10.937
30443W        W 3511  33.362  19.010   2.375
30444W        W 3512  22.535  24.692  10.988
30445W        W 3513  22.267  19.806  11.028
30446W        W 3514   2.774   9.170  12.093
30447W        W 3515  34.643  33.111   1.914
30448W        W 3516  30.668  34.458  12.030
30449W        W 3517   9.308  42.880  12.986
30450W        W 3518  40.779  41.446   3.214
30451W        W 3519  32.880  22.490   4.119
30452W        W 3520  32.268  20.216   3.650
30453W        W 3521  23.929   5.489   4.702
30454W        W 3522  21.995  42.760   2.470
30455W        W 3523   5.847   7.984  11.939
30456W        W 3524  36.140  15.297  12.489
30457W        W 3525  22.757  26.053   0.197
30458W        W 3526  29.958   1.981  10.426
30459W        W 3527  15.675  22.448  10.551
30460W        W 3528  16.686  28.008  13.760
30461W        W 3529   4.305   7.680   3.516
30462W        W 3530  16.223   8.857  12.597
30463W        W 3531  34.374  25.239  13.592
30464W        W 3532  30.275  26.424  11.694
30465W        W 3533  13.488  33.372  13.782
30466W        W 3534   1.716   9.270   3.699
30467W        W 3535  33.010  34.527   1.439
30468W        W 3536  20.505   4.177  13.446
30469W        W 3537   4.444  37.841   1.750
30470W        W 3538  44.423   1.336   3.218
30471W        W 3539  14.245  34.933  12.582
30472W        W 3540  29.285  10.245  12.396
30473W        W 3541  31.116   3.651  13.961
30474W        W 3542   3.774   3.378   3.215
30475W        W 3543   4.213   1.417  12.147
30476W        W 3544   3.874  10.712  10.619
30477W        W 3545  44.977   9.348  12.065
30478W        W 3546  11.235  35.320   0.264
30479W        W 3547  16.771  28.073   0.318
30480W        W 3548  17.691  13.522  10.673
30481W        W 3549   6.742  10.210   4.322
30482W        W 3550  29.201   1.553  13.948
30483W        W 3551  35.804  23.295  12.839
30484W        W 3552   2.682  33.957   0.547
30485W        W 3553  34.602  29.998  14.521
30486W        W 3554   6.913  15.140   0.486
30487W        W 3555  19.376   9.714  12.837
30488W        W 3556  16.055  18.234   3.207
30489W        W 3557   7.199  16.023   0.973
30490W        W 3558  25.564  37.343  13.252
30491W        W 3559  11.287  15.716  14.775
30492W        W 3560  32.863  11.467   0.382
30493W        W 3561  30.072  20.243  10.616
30494W        W 3562  12.583  32.965  11.620
30495W        W 3563  15.556  12.890   5.106
30496W        W 3564  15.014  33.084   1.200
30497W        W 3565  11.232  33.644   2.003
30498W        W 3566  35.445   5.905   2.680
30499W        W 3567   4.385   8.815   0.448
30500W        W 3568  15.620   3.435   2.391
30501W        W 3569  23.743  35.371  14.776
30502W        W 3570  44.998   5.452   4.587
30503W        W 3571  40.266  18.807   3.681
30504W        W 3572  26.612  41.918   1.621
30505W        W 3573  35.666  30.133  12.978
30506W        W 3574  21.469  33.370  14.540
30507W        W 3575   1.380  29.662  11.526
30508W        W 3576  30.178  11.960   3.764
30509W        W 3577  12.685   9.541   0.693
30510W        W 3578  35.273  26.676   3.763
30511W        W 3579  34.555  42.281  11.798
30512W        W 3580  42.331  33.502   4.580
30513W        W 3581  16.714  44.820   1.117
30514W        W 3582  29.395  20.444  14.795
30515W        W 3583   3.855  11.132   3.214
30516W        W 3584  37.582  41.880  14.457
30517W        W 3585  37.734  20.299   2.941
30518W        W 3586  41.621  28.624  13.355
30519W        W 3587   8.573   2.805  12.809
30520W        W 3588   6.380  21.692   0.290
30521W        W 3589  34.955  30.966  13.384
30522W        W 3590  27.627  32.385   4.086
30523W        W 3591  34.423  37.807  14.209
30524W        W 3592  12.046  39.080   2.029
30525W        W 3593  25.693   5.113   2.771
30526W        W 3594  29.700  26.581   5.177
30527W        W 3595  37.503  43.375   1.729
30528W        W 3596   0.036   8.240   2.659
30529W        W 3597  30.101   1.873  10.922
30530W        W 3598  18.786  10.484   3.213
30531W        W 3599  29.641  38.441   0.553
30532W        W 3600  27.538  34.056   4.587
30533W        W 3601  13.661  43.362  11.536
30534W        W 3602  22.982  11.674  12.022
30535W        W 3603   0.283  18.504  14.280
30536W        W 3604  10.189  11.812   5.030
30537W        W 3605  15.706   1.823   0.542
30538W        W 3606  40.419   4.314   4.159
30539W        W 3607  15.115  40.772   4.171
30540W        W 3608  31.644   2.116   4.273
30541W        W 3609  32.848  14.740  12.616
30542W        W 3610   4.387  34.805  13.865
30543W        W 3611  39.462   9.704   3.345
30544W        W 3612  28.360  31.659  11.584
30545W        W 3613  25.591   5.293  14.675
30546W        W 3614  11.841  38.342  14.305
30547W        W 3615  25.968  17.556   3.902
30548W        W 3616  19.089  14.142   1.308
30549W        W 3617  39.307   2.102   3.900
30550W        W 3618  39.993  34.139  14.987
30551W        W 3619   4.349  17.067   2.680
30552W        W 3620   9.749  10.462  12.294
30553W        W 3621  28.253  41.599   3.690
30554W        W 3622   8.501  37.583  13.907
30555W        W 3623  23.216  19.024  13.072
30556W        W 3624  17.047  26.212   3.568
30557W        W 3625  10.810  34.663   3.744
30558W        W 3626   4.813  35.503   3.200
30559W        W 3627  43.023  16.795  11.149
30560W        W 3628  25.034  15.874  10.668
30561W        W 3629  12.016  25.510  10.657
30562W        W 3630  36.237  34.665  14.799
30563W        W 3631  21.690  41.530  12.540
30564W        W 3632  33.372  17.338  12.618
30565W        W 3633   6.668   2.225  11.161
30566W        W 3634  13.422  41.711  14.224
30567W        W 3635   0.944  42.864   0.945
30568W        W 3636  27.102  18.302  12.883
30569W        W 3637  32.662   1.979   4.153
30570W        W 3638  39.905  23.580  11.736
30571W        W 3639  11.133  19.215  13.454
30572W        W 3640  40.208  24.316   4.462
30573W        W 3641   1.303  26.049  14.406
30574W        W 3642  25.227  28.140  14.274
30575W        W 3643  30.574  30.926   3.703
30576W        W 3644  20.727  27.998   4.765
30577W        W 3645  41.420   5.441   5.115
30578W        W 3646  13.741   6.969  11.144
30579W        W 3647  30.621  30.957   3.195
30580W        W 3648  44.589  34.092   0.199
30581W        W 3649  38.612  12.387  14.843
30582W        W 3650  33.624  38.494   9.787
30583W        W 3651  33.199  10.277   2.212
30584W        W 3652  25.660  17.862  12.880
30585W        W 3653  23.408  21.628  12.466
30586W        W 3654  32.176  13.364   2.235
30587W        W 3655   8.907  21.748   1.256
30588W        W 3656  10.888   7.360  14.319
30589W        W 3657  21.555   8.485   4.764
30590W        W 3658  36.044   3.808  11.943
30591W        W 3659   5.844  26.500   0.795
30592W        W 3660  26.193  28.616  12.910
30593W        W 3661   5.487  20.461  14.415
30594W        W 3662  15.400  38.034  13.872
30595W        W 3663  33.657   6.511   4.044
30596W        W 3664  21.075  15.110   4.504
30597W        W 3665  28.583  34.438  13.437
30598W        W 3666  20.164  19.105   4.521
30599W        W 3667  26.482  25.275  11.750
30600W        W 3668  21.599  14.289   4.689
30601W        W 3669  30.887  28.648  14.983
30602W        W 3670   3.731   8.488  14.841
30603W        W 3671  17.202  12.020  13.853
30604W        W 3672   0.014  34.658  12.527
30605W        W 3673  28.570  40.297   4.771
30606W        W 3674  13.837  41.997   2.416
30607W        W 3675  35.620  21.096  10.735
30608W        W 3676  32.968   9.382  12.901
30609W        W 3677   1.427  40.745  12.282
30610W        W 3678  35.763  39.122  11.093
30611W        W 3679   2.947  31.063  12.031
30612W        W 3680   6.140  34.137   3.390
30613W        W 3681  30.095  28.110  13.971
30614W        W 3682  20.969  24.953  10.748
30615W        W 3683  33.954   1.137   3.973
30616W        W 3684  23.314  18.745  12.493
30617W        W 3685  21.606  28.157   0.226
30618W        W 3686  19.533   6.639   2.753
30619W        W 3687  12.572  40.803  14.277
30620W        W 3688  38.993  28.958  14.881
30621W        W 3689  25.671  24.216   1.361
30622W        W 3690   9.350  33.625  13.393
30623W        W 3691  29.567  12.895  14.090
30624W        W 3692   8.894  11.487  11.173
30625W        W 3693   3.289  11.137   2.779
30626W        W 3694  29.178   0.323   4.241
30627W        W 3695  34.552   1.446  13.267
30628W        W 3696  15.020  29.919  11.553
30629W        W 3697  14.690  16.091   2.652
30630W        W 3698  12.824  44.877   1.928
30631W        W 3699  42.762   0.158  11.018
30632W        W 3700  18.516  12.479  13.521
30633W        W 3701  12.995  42.046  13.845
30634W        W 3702   8.423   1.042  14.914
30635W        W 3703  20.271   6.816   1.402
30636W        W 3704  34.833  35.476   0.416
30637W        W 3705  27.574  31.460   4.593
30638W        W 3706  35.830  18.603   4.527
30639W        W 3707  43.185  25.375   0.795
30640W        W 3708  39.036   7.679  14.016
30641W        W 3709  29.503  36.102  12.017
30642W        W 3710  36.409  30.419  11.904
30643W        W 3711  16.294  30.940   1.288
30644W        W 3712  12.035  37.022  13.981
30645W        W 3713   7.232  16.082   2.877
30646W        W 3714   5.666  23.680   2.155
30647W        W 3715   9.896  15.716  10.636
30648W        W 3716  16.919  14.292   4.583
30649W        W 3717   4.404  28.644  12.180
30650W        W 3718  17.282  10.781   2.239
30651W        W 3719   7.161  19.001  14.442
30652W        W 3720   3.289  33.965  11.597
30653W        W 3721  26.594  18.178   3.694
30654W        W 3722  13.993  25.399   0.225
30655W        W 3723  27.936  32.944   3.077
30656W        W 3724   1.357  18.553   0.460
30657W        W 3725   2.282  31.635   1.861
30658W        W 3726  13.091  34.577   1.596
30659W        W 3727  35.482   3.436  12.986
30660W        W 3728  42.053   5.860   1.533
30661W        W 3729   9.894  22.058   2.145
30662W        W 3730  14.316  32.023   1.686
30663W        W 3731  21.017  15.610  12.139
30664W        W 3732  28.431  23.316  12.371
30665W        W 3733  10.854  31.114  11.614
30666W        W 3734  31.407  35.391   1.280
30667W        W 3735  29.914   5.557   2.289
30668W        W 3736  40.354   9.676  10.541
30669W        W 3737  22.183  28.705   0.962
30670W        W 3738   9.167  10.593  14.770
30671W        W 3739  33.443  23.628  14.869
30672W        W 3740  44.331  38.397  10.657
30673W        W 3741   5.402   2.498  11.156
30674W        W 3742  31.626   9.350   4.058
30675W        W 3743   3.645  27.002  13.029
30676W        W 3744  39.558  26.528  11.907
30677W        W 3745  12.187  40.758  14.992
30678W        W 3746   8.336  23.102  11.838
30679W        W 3747  41.745   1.818  13.909
30680W        W 3748  12.573  13.799   3.237
30681W        W 3749   5.802  20.646   2.321
30682W        W 3750  38.809  30.540   3.276
30683W        W 3751  19.126  39.412  14.086
30684W        W 3752  44.379  38.352   0.300
30685W        W 3753  30.115  31.396  11.611
30686W        W 3754   3.199  14.390   4.162
30687W        W 3755  17.623  11.793   3.724
30688W        W 3756  30.015   6.016  11.947
30689W        W 3757  21.860  33.818   2.789
30690W        W 3758   7.394   8.125  11.572
30691W        W 3759  20.542  14.812   3.010
30692W        W 3760  17.211  26.184   0.201
30693W        W 3761   3.773   6.708   4.551
30694W        W 3762   3.210  11.775  14.069
30695W        W 3763  41.003  26.456   4.750
30696W        W 3764  24.445  38.294   3.609
30697W        W 3765  10.411   7.809  14.262
30698W        W 3766  40.108  20.450  13.861
30699W        W 3767   9.741  36.129   4.880
30700W        W 3768  42.956  30.111  14.935
30701W        W 3769  13.361   9.840  10.739
30702W        W 3770  31.220  25.130  14.752
30703W        W 3771  18.090  33.558   1.701
30704W        W 3772  34.528  15.199   4.762
30705W        W 3773  38.021  42.298  10.748
30706W        W 3774  20.042  29.909   2.699
30707W        W 3775  18.990  17.109  12.021
30708W        W 3776  42.883  14.166   0.284
30709W        W 3777   3.962  10.375  14.987
30710W        W 3778  33.384  29.167  11.050
30711W        W 3779   2.739   4.309   3.247
30712W        W 3780  38.511   2.184   3.633
30713W        W 3781   1.822  17.252  10.671
30714W        W 3782  31.202  29.013  11.068
30715W        W 3783  39.395  39.960   0.861
30716W        W 3784  13.799  43.115  11.971
30717W        W 3785  11.327  36.982   1.767
30718W        W 3786  20.630  32.180   2.626
30719W        W 3787  12.161  20.215  14.998
30720W        W 3788  38.836  12.840  14.972
30721W        W 3789  10.212  42.540  11.933
30722W        W 3790  21.651   6.299  11.212
30723W        W 3791  42.496   4.937   0.259
30724W        W 3792  36.144  39.372   3.854
30725W        W 3793   4.337  21.668   4.104
30726W        W 3794   2.008  23.814   2.851
30727W        W 3795  16.877  34.150  11.079
30728W        W 3796  31.649  16.809   4.753
30729W        W 3797  21.509   9.423  12.211
30730W        W 3798   1.651  28.016   4.052
30731W        W 3799  17.622  28.925   4.540
30732W        W 3800   9.390  21.781  11.132
30733W        W 3801  21.673  23.753  14.514
30734W        W 3802  19.117  39.514  13.588
30735W        W 3803  12.651   2.484   3.705
30736W        W 3804   9.442  13.286   3.243
30737W        W 3805  14.831  23.781   1.546
30738W        W 3806  30.099  15.393  13.509
30739W        W 3807  26.463   5.957  10.755
30740W        W 3808  23.999  33.407  12.616
30741W        W 3809  15.207  20.288  14.849
30742W        W 3810   8.482  29.616  11.276
30743W        W 3811  37.618  16.843   3.182
30744W        W 3812  41.900  14.134   4.193
30745W        W 3813  20.298  20.627   0.309
30746W        W 3814   3.981  12.722  10.173
30747W        W 3815   8.388  20.267   4.866
30748W        W 3816  28.492  37.558  11.095
30749W        W 3817  32.077  29.622  14.400
30750W        W 3818  30.624  29.909   0.157
30751W        W 3819  17.285  23.222   4.403
30752W        W 3820  11.220  17.886  11.062
30753W        W 3821   0.708  12.133  14.955
30754W        W 3822  12.728  38.301   1.781
30755W        W 3823  30.602  31.172  13.105
30756W        W 3824   3.774  24.625   0.530
30757W        W 3825   6.155   5.975   1.800
30758W        W 3826  36.183  44.790  12.386
30759W        W 3827  31.479  29.642   2.758
30760W        W 3828  42.683  27.897   1.320
30761W        W 3829  22.210   1.772  12.598
30762W        W 3830  42.335  42.922   2.022
30763W        W 3831  33.633  18.623  14.808
30764W        W 3832  17.599   9.511  13.319
30765W        W 3833  17.882  19.177   1.500
30766W        W 3834   9.596  38.513  13.927
30767W        W 3835  30.911   4.798  14.929
30768W        W 3836   7.981   9.167   3.873
30769W        W 3837  25.452  30.618   1.744
30770W        W 3838  36.574   9.321   3.141
30771W        W 3839  17.286  18.592  13.795
30772W        W 3840  36.830  37.021   1.255
30773W        W 3841  37.900  18.637   4.649
30774W        W 3842  15.137  18.622  14.742
30775W        W 3843   9.863  43.854   4.590
30776W        W 3844   6.468   6.113  13.056
30777W        W 3845  18.349  13.143  12.330
30778W        W 3846  27.708   3.384   1.835
30779W        W 3847   4.380  10.055   3.734
30780W        W 3848  37.843  11.083   3.250
30781W        W 3849  42.274   1.930  13.973
30782W        W 3850  10.166  25.672   3.243
30783W        W 3851  43.004   0.376   2.319
30784W        W 3852  21.649   0.361   2.566
30785W        W 3853  14.537  29.600  12.055
30786W        W 3854  34.828  44.606   4.057
30787W        W 3855  40.233  16.112  14.104
30788W        W 3856  25.534   9.442   0.857
30789W        W 3857  17.561   4.831  10.856
30790W        W 3858  41.808  17.320  10.063
30791W        W 3859  11.916  16.808   9.729
30792W        W 3860   3.868  39.916  11.652
30793W        W 3861  13.420  10.278  11.312
30794W        W 3862  31.549  26.221  11.472
30795W        W 3863  10.284  19.217   5.443
30796W        W 3864  37.598  28.455  11.517
30797W        W 3865   7.874  30.181   1.931
30798W        W 3866  43.969  44.347   0.836
30799W        W 3867  25.985  35.370  14.793
30800W        W 3868  32.935  14.526  14.412
30801W        W 3869   4.762  34.943   3.716
30802W        W 3870  34.143  43.964   2.771
30803W        W 3871   0.810  22.235   4.749
30804W        W 3872  28.411  43.817  13.470
30805W        W 3873  42.873   1.732   3.823
30806W        W 3874  15.365  34.647   2.769
30807W        W 3875   7.203  24.588   0.871
30808W        W 3876   8.617   7.507   1.246
30809W        W 3877  27.060  40.512   3.893
30810W        W 3878  26.163  24.482   2.129
30811W        W 3879  32.557  20.387   2.987
30812W        W 3880  26.557  44.259  11.943
30813W        W 3881  27.002  23.963  12.520
30814W        W 3882  11.269  25.484  14.279
30815W        W 3883  34.571   7.707   1.958
30816W        W 3884  43.478  21.049   3.899
30817W        W 3885  11.051  21.170   5.089
30818W        W 3886  20.870  20.892   0.875
30819W        W 3887   0.728  20.586   3.348
30820W        W 3888  15.105  36.105   2.180
30821W        W 3889   5.470  42.252  14.465
30822W        W 3890   3.453  24.746   2.314
30823W        W 3891  18.228  37.167   2.597
30824W        W 3892   7.414  11.133  12.448
30825W        W 3893  24.603  42.245   3.817
30826W        W 3894  41.299  11.563   2.324
30827W        W 3895  32.877  40.257   0.907
30828W        W 3896   5.636   0.098   0.469
30829W        W 3897   5.313  38.243   1.381
30830W        W 3898  26.168  23.190   1.187
30831W        W 3899   3.315  16.807  13.369
30832W        W 3900  35.921  14.333   3.295
30833W        W 3901  38.365  15.690  10.226
30834W        W 3902  11.837  29.396  11.871
30835W        W 3903  34.782   2.335   4.207
30836W        W 3904  23.437  15.865   0.413
30837W        W 3905  15.299   4.896   2.645
30838W        W 3906  12.370  34.831   0.907
30839W        W 3907  24.616  35.475   1.909
30840W        W 3908  23.747  39.734  14.822
30841W        W 3909  13.747   3.892  14.302
30842W        W 3910  42.043   6.937  12.896
30843W        W 3911  30.812  43.513  10.836
30844W        W 3912  40.751  42.063   2.332
30845W        W 3913  37.796  23.014   4.213
30846W        W 3914  41.369   9.477   4.367
30847W        W 3915  33.852  42.771   1.360
30848W        W 3916  39.943  20.831  12.125
30849W        W 3917  44.599  38.928   0.907
30850W        W 3918  13.360   2.300  14.794
30851W        W 3919  12.461  21.530  13.040
30852W        W 3920   3.263  28.930   0.752
30853W        W 3921   2.071  28.128  13.230
30854W        W 3922   6.636  18.964   4.283
30855W        W 3923  27.758   2.318   1.412
30856W        W 3924  13.693  10.146   3.152
30857W        W 3925  24.494  17.592   3.197
30858W        W 3926   3.538  29.195   0.289
30859W        W 3927   3.500  31.640  12.285
30860W        W 3928   1.510  38.271  11.133
30861W        W 3929  16.650  12.072   3.256
30862W        W 3930  10.895  41.332   2.988
30863W        W 3931  43.016  19.631   0.320
30864W        W 3932  41.859   0.888  10.393
30865W        W 3933  20.497  21.633  13.587
30866W        W 3934  42.730  42.327   2.854
30867W        W 3935  39.452  41.509   3.269
30868W        W 3936   8.936   0.782  13.810
30869W        W 3937  21.199  28.733   1.900
30870W        W 3938   8.344   0.935   3.608
30871W        W 3939  44.917   0.577  11.728
30872W        W 3940   4.686  43.262   2.661
30873W        W 3941   1.751  44.577  13.530
30874W        W 3942  15.225  28.205  12.671
30875W        W 3943   4.321  36.797   2.212
30876W        W 3944  33.848  41.291   2.816
30877W        W 3945  41.685   5.357   4.678
30878W        W 3946  19.089   1.965   1.014
30879W        W 3947  15.663  20.025   2.317
30880W        W 3948  28.585  22.045   4.112
30881W        W 3949  10.174  33.100  13.561
30882W        W 3950  14.143  38.885  10.081
30883W        W 3951  44.086  39.398   1.371
30884W        W 3952  30.030  39.919   4.921
30885W        W 3953  11.597  42.090   4.487
30886W        W 3954  29.963  26.775  13.544
30887W        W 3955   8.908  38.385   2.303
30888W        W 3956  34.556   3.718   3.267
30889W        W 3957  24.901  34.607   1.971
30890W        W 3958  29.527  34.365   4.621
30891W        W 3959  15.372  44.410   2.710
30892W        W 3960   2.979  24.562  12.009
30893W        W 3961  16.586  15.547  11.504
30894W        W 3962  31.654  11.836  11.016
30895W        W 3963  15.008  20.211  13.576
30896W        W 3964  20.187   5.713   1.635
30897W        W 3965  23.058  32.892   1.409
30898W        W 3966  11.370   3.241  14.826
30899W        W 3967   7.976  37.150   1.443
30900W        W 3968  37.033  23.046   2.275
30901W        W 3969   6.311  31.003   0.672
30902W        W 3970   0.384  18.466   2.207
30903W        W 3971  25.261   9.630  14.860
30904W        W 3972  33.445  42.556  11.079
30905W        W 3973  35.124  42.112   4.520
30906W        W 3974  43.517  16.090  13.408
30907W        W 3975  44.496  44.386   0.832
30908W        W 3976  11.198  22.596   0.474
30909W        W 3977  11.677  18.237   1.797
30910W        W 3978  17.811  21.041   0.274
30911W        W 3979  28.062  36.902   2.874
30912W        W 3980  28.229  18.072   4.740
30913W        W 3981  24.930  11.202  10.151
30914W        W 3982  26.074  32.188   0.578
30915W        W 3983  18.077   0.470   1.888
30916W        W 3984   1.537  17.557  12.811
30917W        W 3985   2.497  44.713  13.945
30918W        W 3986  24.583   7.972   2.275
30919W        W 3987  37.949  13.572  11.158
30920W        W 3988  29.883  12.052   2.891
30921W        W 3989  44.926  44.867   4.324
30922W        W 3990  26.053  41.359   4.519
30923W        W 3991  36.336  27.705  11.989
30924W        W 3992   8.204  39.331  14.337
30925W        W 3993  35.030  42.960   0.870
30926W        W 3994  13.859  17.217   4.684
30927W        W 3995  29.177  38.302   0.321
30928W        W 3996   0.980  34.548   1.293
30929W        W 3997   6.360  16.714   4.522
30930W        W 3998  10.178  18.024   0.951
30931W        W 3999  37.537  12.578   2.183
30932W        W 4000  44.490  36.952   3.562
30933W        W 4001  32.074  17.870  11.143
30934W        W 4002   2.798   0.236   3.696
30935W        W 4003   9.411  27.473   0.794
30936W        W 4004  33.061   8.633   3.654
30937W        W 4005  14.753  36.404  11.979
30938W        W 4006   6.776   1.723   2.817
30939W        W 4007  17.823   1.429   4.593
30940W        W 4008  39.228  19.764   4.015
30941W        W 4009  44.458  37.920   9.908
30942W        W 4010  24.179  14.118  11.741
30943W        W 4011  22.960  34.097  13.774
30944W        W 4012  34.388  35.084  14.006
30945W        W 4013  38.433   2.827  13.424
30946W        W 4014   8.433  19.118  11.944
30947W        W 4015  33.608  22.488  11.918
30948W        W 4016   5.223  25.262  14.424
30949W        W 4017   4.704   9.930   4.134
30950W        W 4018  17.548  16.213   2.657
30951W        W 4019  24.029   0.473   3.769
30952W        W 4020  42.427  37.590   0.021
30953W        W 4021   1.043  13.345   2.783
30954W        W 4022  34.329  34.577   0.865
30955W        W 4023  42.743  31.635  10.968
30956W        W 4024   5.469   2.371  13.975
30957W        W 4025  38.060  24.187   1.236
30958W        W 4026  35.777   2.444   0.456
30959W        W 4027  37.343  41.526   3.763
30960W        W 4028  38.847  41.846   4.743
30961W        W 4029  19.721   5.535   1.834
30962W        W 4030  24.439  34.821  14.688
30963W        W 4031  27.366  42.798   0.234
30964W        W 4032  22.220  40.873   3.335
30965W        W 4033  23.972  15.662   0.407
30966W        W 4034  29.151  39.350  11.033
30967W        W 4035  34.552  18.239  14.047
30968W        W 4036  13.139  11.917   4.070
30969W        W 4037  11.195  34.020   2.376
30970W        W 4038  17.610  35.152  14.016
30971W        W 4039   4.498   8.334  14.716
30972W        W 4040   7.237  11.081   3.578
30973W        W 4041   4.326   0.375   1.713
30974W        W 4042  19.252  29.419   0.773
30975W        W 4043  41.232  28.126   2.489
30976W        W 4044  35.998   8.192   2.788
30977W        W 4045  11.461  44.537  13.844
30978W        W 4046  31.680  37.422  10.486
30979W        W 4047  23.507  37.173   3.141
30980W        W 4048  18.486  10.907  11.568
30981W        W 4049  10.252  23.648  12.442
30982W        W 4050  15.788  13.590   3.756
30983W        W 4051  19.781   6.815   3.313
30984W        W 4052  28.406  37.839   4.324
30985W        W 4053  15.176  15.834  10.963
30986W        W 4054  42.208  25.121   0.394
30987W        W 4055  42.518  19.812   2.958
30988W        W 4056  12.344  41.595  13.224
30989W        W 4057  17.290  38.854  14.805
30990W        W 4058  26.998  38.458  14.965
30991W        W 4059  37.857   8.357   3.760
30992W        W 4060   8.645   4.158   0.816
30993W        W 4061  36.062  13.060  11.685
30994W        W 4062  44.677  38.973   2.707
30995W        W 4063  19.177   1.368  12.604
30996W        W 4064  20.214  32.485   1.844
30997W        W 4065  25.472  15.993   3.139
30998W        W 4066  36.286  11.727  12.000
30999W        W 4067  13.123  10.189  10.361
31000W        W 4068  38.941  34.087   1.799
31001W        W 4069   3.317  38.580   1.929
31002W        W 4070  21.120  36.596  13.379
31003W        W 4071  17.477  40.978  13.532
31004W        W 4072  36.138  17.590   3.666
31005W        W 4073   3.681  32.176   3.666
31006W        W 4074   7.834  37.919   4.212
31007W        W 4075  41.537  10.238   0.450
31008W        W 4076  29.188   4.332   0.395
31009W        W 4077  17.631  28.524   4.146
31010W        W 4078  16.350  19.080  11.158
31011W        W 4079  29.112   5.700  12.029
31012W        W 4080  19.202  23.477  12.531
31013W        W 4081   0.684   6.907  10.779
31014W        W 4082  43.979  28.644  12.469
31015W        W 4083  24.528   5.149  11.103
31016W        W 4084   0.429   7.255  12.510
31017W        W 4085  21.559  10.858   4.250
31018W        W 4086  29.000   8.471  13.489
31019W        W 4087  43.857  31.378  12.118
31020W        W 4088  24.752   7.512  14.426
31021W        W 4089  26.113  14.169   1.874
31022W        W 4090   3.960   0.244   0.767
31023W        W 4091  12.683   2.776   4.268
31024W        W 4092  40.403  30.838  11.620
31025W        W 4093  11.798  22.236  12.955
31026W        W 4094  30.214  37.001  11.539
31027W        W 4095  43.283  44.750  10.661
31028W        W 4096  40.791  10.425  12.282
31029W        W 4097   5.394   7.247  14.498
31030W        W 4098  26.681   9.407   4.636
31031W        W 4099  42.914  32.474  11.160
31032W        W 4100  33.375  33.495   0.780
31033W        W 4101  37.903  28.409  11.104
31034W        W 4102  26.715  39.401  12.500
31035W        W 4103  36.928  24.153  14.789
31036W        W 4104  38.073  33.159   0.359
31037W        W 4105  12.812  36.601   3.561
31038W        W 4106  33.099  20.827   0.372
31039W        W 4107  17.390  28.250   0.870
31040W        W 4108  37.736  33.389  10.665
31041W        W 4109  15.987  11.615   4.578
31042W        W 4110  14.156   5.236   3.124
31043W        W 4111  24.006  40.438  12.534
31044W        W 4112  14.169  32.620   4.405
31045W        W 4113  18.521  30.017  12.461
31046W        W 4114  36.614   6.397  14.292
31047W        W 4115  17.756  42.790  11.180
31048W        W 4116   6.829  25.494  14.292
31049W        W 4117  29.655  43.087  10.696
31050W        W 4118  16.809  32.207  12.931
31051W        W 4119  11.648  34.715  10.262
31052W        W 4120  37.190  32.002  10.659
31053W        W 4121  31.073   6.652   4.523
31054W        W 4122  34.387   7.216   4.602
31055W        W 4123  15.230  13.648   2.327
31056W        W 4124   2.909  19.236   0.215
31057W        W 4125  35.958  33.673  14.401
31058W        W 4126  17.069  33.898  10.642
31059W        W 4127  36.199  31.235  10.259
31060W        W 4128  17.611  23.412  13.449
31061W        W 4129   7.508   8.710   2.507
31062W        W 4130  28.125   2.987   0.953
31063W        W 4131  42.705   4.259  11.065
31064W        W 4132  28.652   0.317  12.188
31065W        W 4133  20.611  10.834  11.582
31066W        W 4134   4.845   5.798  10.997
31067W        W 4135  44.559  13.775   0.759
31068W        W 4136  26.117  42.911   3.214
31069W        W 4137  40.865  23.704  10.379
31070W        W 4138  15.545  21.519   0.274
31071W        W 4139  19.405  38.404  13.956
31072W        W 4140  21.245  41.169  11.511
31073W        W 4141  37.648  32.905   1.160
31074W        W 4142  18.551  34.127   2.842
31075W        W 4143  32.806  21.367  12.003
31076W        W 4144  26.938  39.395  11.622
31077W        W 4145   2.571  12.179  12.489
31078W        W 4146   7.084  28.086   4.813
31079W        W 4147   5.757  39.935  13.489
31080W        W 4148   0.403  31.463  12.527
31081W        W 4149  40.114  29.955   3.276
31082W        W 4150  15.820   1.032   2.400
31083W        W 4151   9.427  25.586  11.779
31084W        W 4152  28.827  11.171   2.764
31085W        W 4153  21.991  17.543  11.712
31086W        W 4154  35.095   4.952  13.547
31087W        W 4155  40.561  35.739   4.678
31088W        W 4156   4.324  27.494   3.716
31089W        W 4157   4.145  33.088   4.755
31090W        W 4158  24.272  43.481   0.480
31091W        W 4159  16.309  40.398   2.654
31092W        W 4160   1.471  16.252  13.487
31093W        W 4161  15.836   9.115   3.185
31094W        W 4162  42.555   5.444   0.742
31095W        W 4163  33.621  44.344  12.028
31096W        W 4164   4.184  37.170  10.249
31097W        W 4165  32.366  33.331   1.639
31098W        W 4166  34.898  29.344  13.967
31099W        W 4167   4.899  24.178  14.854
31100W        W 4168  44.484  27.985   1.714
31101W        W 4169   9.832  41.923  13.516
31102W        W 4170  26.979  35.591   0.686
31103W        W 4171  40.926  10.127  13.271
31104W        W 4172  43.274  43.094  13.463
31105W        W 4173  21.488  30.811  11.034
31106W        W 4174  44.759  40.338  13.409
31107W        W 4175   7.679  23.631  14.766
31108W        W 4176  32.593  13.103  13.368
31109W        W 4177  42.648   2.839  12.135
31110W        W 4178  24.481  34.164   3.110
31111W        W 4179   5.538   7.027   2.997
31112W        W 4180  16.346   3.396  13.552
31113W        W 4181  36.629  31.988   0.607
31114W        W 4182   8.998  24.679  11.500
31115W        W 4183  18.655  32.690  11.908
31116W        W 4184  36.451  33.422   1.202
31117W        W 4185   0.759  13.764  11.602
31118W        W 4186  16.171  39.307  11.183
31119W        W 4187  36.873  10.299  11.842
31120W        W 4188  24.401   8.300   1.469
31121W        W 4189  44.910   2.940  13.360
31122W        W 4190  26.462  22.051   0.426
31123W        W 4191   3.177  11.585   3.761
31124W        W 4192  12.146  14.988   2.974
31125W        W 4193  19.193   3.741  12.305
31126W        W 4194  28.964  17.129   0.958
31127W        W 4195  23.138  38.376  13.582
31128W        W 4196   8.875  14.760   2.231
31129W        W 4197  38.513  26.995   1.509
31130W        W 4198  44.864  27.274   4.595
31131W        W 4199  18.497   3.322   5.040
31132W        W 4200   1.791  17.603   2.381
31133W        W 4201  26.644  20.250  12.995
31134W        W 4202  39.824   6.224   5.064
31135W        W 4203   0.375   1.673   2.301
31136W        W 4204   9.810  17.555   3.782
31137W        W 4205   4.989  15.067   2.397
31138W        W 4206  40.543   6.366  11.036
31139W        W 4207  35.311  39.553  13.417
31140W        W 4208  37.968  15.133  11.052
31141W        W 4209  27.162  16.285   0.491
31142W        W 4210  10.875   4.686   3.736
31143W        W 4211   3.257  25.470   2.820
31144W        W 4212  44.442  39.375   4.311
31145W        W 4213   7.858   5.864   1.212
31146W        W 4214  20.505  13.823  11.546
31147W        W 4215  33.707   1.239  14.467
31148W        W 4216  42.856  42.404  13.097
31149W        W 4217  21.296  31.946  13.830
31150W        W 4218  33.084   3.932  13.164
31151W        W 4219  10.584   4.908   3.347
31152W        W 4220  19.208   2.513   2.677
31153W        W 4221  22.567   8.620  12.445
31154W        W 4222   7.893  25.513   0.430
31155W        W 4223   1.379   4.429  12.653
31156W        W 4224  26.711  23.535  12.548
31157W        W 4225   2.336  42.574  13.533
31158W        W 4226  42.271  34.017   2.317
31159W        W 4227  25.496  11.646   5.414
31160W        W 4228  16.501  16.100  14.487
31161W        W 4229  36.159   8.859   3.323
31162W        W 4230   4.235  17.067   3.683
31163W        W 4231  15.255  41.544   3.953
31164W        W 4232   6.805  27.744   3.236
31165W        W 4233   2.840   5.630   0.509
31166W        W 4234  43.481  34.533   0.008
31167W        W 4235   0.028   7.307   4.314
31168W        W 4236  44.212  40.579   2.344
31169W        W 4237  44.700  17.065  10.664
31170W        W 4238  21.326  25.618   3.603
31171W        W 4239  20.010  41.379   4.572
31172W        W 4240   6.757  16.749   4.873
31173W        W 4241  18.261   2.449   1.118
31174W        W 4242  18.406  16.644  12.650
31175W        W 4243  12.146  21.786  10.612
31176W        W 4244  19.413  26.727  10.306
31177W        W 4245  25.356  22.699   2.352
31178W        W 4246  39.043  20.611   4.094
31179W        W 4247   0.348  12.291  12.876
31180W        W 4248   0.183  11.013  13.886
31181W        W 4249  12.210  28.686  11.670
31182W        W 4250  22.685  21.198   9.861
31183W        W 4251  20.762  20.157  11.546
31184W        W 4252  28.005  30.604  10.731
31185W        W 4253  35.431  23.052  13.567
31186W        W 4254  14.325  27.258   1.699
31187W        W 4255  13.257   9.789  12.107
31188W        W 4256  11.731  12.713  12.571
31189W        W 4257  24.990  43.355  14.660
31190W        W 4258  38.641   9.807   2.854
31191W        W 4259  19.681  14.203   5.069
31192W        W 4260  15.404  18.492   1.824
31193W        W 4261  24.886  27.515  13.106
31194W        W 4262  16.845   3.732   0.375
31195W        W 4263  36.208  21.874   0.541
31196W        W 4264  42.487  33.034   3.749
31197W        W 4265  19.806  15.775  13.289
31198W        W 4266  44.165  19.054  13.968
31199W        W 4267  28.441   1.320   3.302
31200W        W 4268   3.341  39.586   2.055
31201W        W 4269   9.443  11.503   5.065
31202W        W 4270   0.698  34.946   4.255
31203W        W 4271  18.572  31.164  13.019
31204W        W 4272  12.314  18.715   2.912
31205W        W 4273  44.739  26.306   3.551
31206W        W 4274  18.175  40.009  10.532
31207W        W 4275  44.020   1.135   2.208
31208W        W 4276  23.468  27.570   0.780
31209W        W 4277   3.191   3.240  11.513
31210W        W 4278  21.588  26.547  12.823
31211W        W 4279  42.949  34.162  14.354
31212W        W 4280  15.643  14.932   1.279
31213W        W 4281  32.129  39.566   3.881
31214W        W 4282  35.012   7.170   1.288
31215W        W 4283  16.739  31.690  10.727
31216W        W 4284  36.161   9.641   0.853
31217W        W 4285  38.961  19.987  10.516
31218W        W 4286   8.940   6.072  12.921
31219W        W 4287   0.271  28.957  14.879
31220W        W 4288   3.945   8.405   3.260
31221W        W 4289  11.904  24.591   1.032
31222W        W 4290  11.555  38.965  13.544
31223W        W 4291  15.731  16.284  14.003
31224W        W 4292  23.193  37.023   3.861
31225W        W 4293  38.532  19.578  12.064
31226W        W 4294   3.941   4.390   3.649
31227W        W 4295   0.757   9.332  14.978
31228W        W 4296  12.812  18.615  13.488
31229W        W 4297  33.727   5.632  11.161
31230W        W 4298  39.495   1.055   4.653
31231W        W 4299  35.571   7.983   3.320
31232W        W 4300   7.020  35.920  12.845
31233W        W 4301   0.299  35.970  13.979
31234W        W 4302   8.290  30.375  14.824
31235W        W 4303  13.674  13.775  14.454
31236W        W 4304  29.735  27.411   3.167
31237W        W 4305  15.582  27.180   3.146
31238W        W 4306  30.716  27.045   3.251
31239W        W 4307  33.760  24.148  13.803
31240W        W 4308  22.651   0.884  14.300
31241W        W 4309  17.801  11.851   0.927
31242W        W 4310   9.077   8.327  13.111
31243W        W 4311  19.026  18.342  12.537
31244W        W 4312  39.099  14.314  14.977
31245W        W 4313  18.532   0.296   3.319
31246W        W 4314  23.015  18.229  11.470
31247W        W 4315  21.172  14.612  11.411
31248W        W 4316  24.765  17.129   5.702
31249W        W 4317   3.038  12.322  11.459
31250W        W 4318  44.488  18.686  10.513
31251W        W 4319  44.715  24.669  12.325
31252W        W 4320  25.602  30.827  14.792
31253W        W 4321  28.357  20.170  11.141
31254W        W 4322   4.811  44.301   2.250
31255W        W 4323  14.778  37.538   3.891
31256W        W 4324   8.819   2.917   4.618
31257W        W 4325  10.452  34.365  13.896
31258W        W 4326  29.698  21.049  10.205
31259W        W 4327  40.678  29.082   3.265
31260W        W 4328  35.180  31.403  10.182
31261W        W 4329  39.941   5.941  14.936
31262W        W 4330  40.822   6.364  12.546
31263W        W 4331  18.330  17.960   2.788
31264W        W 4332  21.987   6.678  11.286
31265W        W 4333  43.725  40.755  14.669
31266W        W 4334   9.226  14.628  12.944
31267W        W 4335  13.217  18.240   1.475
31268W        W 4336  13.314  17.768   4.562
31269W        W 4337  25.134  30.905   4.190
31270W        W 4338   1.472  38.637   4.250
31271W        W 4339  35.869  29.123  13.581
31272W        W 4340  36.133  24.969  13.370
31273W        W 4341   4.690  24.774   0.608
31274W        W 4342  25.967  35.132  14.320
31275W        W 4343  20.005  33.230   0.563
31276W        W 4344  21.131  37.925   0.681
31277W        W 4345  36.346  12.281  13.519
31278W        W 4346  33.125   3.676   4.661
31279W        W 4347   5.349  37.996  14.434
31280W        W 4348   0.244  35.191  10.902
31281W        W 4349   6.391  25.618   0.434
31282W        W 4350  31.679  31.097   0.843
31283W        W 4351   8.927   1.193   0.201
31284W        W 4352  20.231  26.523  13.558
31285W        W 4353  15.359  29.184  11.987
31286W        W 4354  37.473  40.004  11.548
31287W        W 4355  23.017  10.380  14.766
31288W        W 4356   5.258  42.797   0.502
31289W        W 4357  25.103  24.734   0.312
31290W        W 4358  33.006  21.711   1.270
31291W        W 4359   7.216  11.224   1.029
31292W        W 4360  28.059  22.074   4.129
31293W        W 4361   1.552  43.944   2.139
31294W        W 4362   8.202  15.368   3.245
31295W        W 4363  31.968  17.659  10.655
31296W        W 4364  18.219  44.829   2.962
31297W        W 4365   1.342  29.172   2.360
31298W        W 4366  37.802  24.081  11.907
31299W        W 4367  19.851  33.844   1.305
31300W        W 4368  29.227  18.718  11.087
31301W        W 4369  20.831  16.663  13.483
31302W        W 4370  32.987   6.973   0.880
31303W        W 4371  29.219  12.178   3.561
31304W        W 4372   8.816  31.087  12.335
31305W        W 4373  31.401  36.331   4.108
31306W        W 4374  38.878  15.549   4.156
31307W        W 4375  35.108   3.015   3.649
31308W        W 4376  22.134  20.061  10.419
31309W        W 4377  33.087  13.218  13.429
31310W        W 4378  39.340   8.451  13.383
31311W        W 4379  35.446  41.227  11.400
31312W        W 4380  17.715  37.226  13.245
31313W        W 4381  15.045  26.497  12.591
31314W        W 4382   9.133  11.129  12.014
31315W        W 4383   3.326  38.301   1.435
31316W        W 4384   1.258  11.163  14.475
31317W        W 4385  38.606  27.579   1.194
31318W        W 4386  23.824  40.043   1.454
31319W        W 4387  20.264   5.112  12.623
31320W        W 4388  36.608   3.670  14.819
31321W        W 4389  39.963  22.515   4.659
31322W        W 4390  16.244  15.791  11.094
31323W        W 4391  28.971  14.570  12.864
31324W        W 4392   0.495   2.396   1.720
31325W        W 4393  26.428  41.401   2.371
31326W        W 4394   7.266   4.475  11.464
31327W        W 4395  41.716  35.058  10.665
31328W        W 4396  17.078   1.876   0.387
31329W        W 4397  35.900  35.208  12.241
31330W        W 4398   1.384  36.162  12.269
31331W        W 4399  35.287  30.290  14.358
31332W        W 4400   0.925  10.427   4.503
31333W        W 4401  22.519   9.423   1.799
31334W        W 4402  33.362  39.495  14.286
31335W        W 4403  20.094  32.587  14.149
31336W        W 4404   4.799  15.698   3.048
31337W        W 4405   5.916   1.413  10.762
31338W        W 4406   8.991  43.009  14.937
31339W        W 4407  26.975  10.812  12.566
31340W        W 4408  15.825   9.615  14.351
31341W        W 4409  39.560  32.600   3.433
31342W        W 4410  19.227   6.221   2.906
31343W        W 4411  12.390  27.754   1.759
31344W        W 4412  18.696  39.469  12.851
31345W        W 4413   4.844  36.291   5.029
31346W        W 4414  23.690  20.548   1.502
31347W        W 4415  21.557  16.192   0.419
31348W        W 4416  14.740  40.080  14.721
31349W        W 4417  33.790  44.354  10.978
31350W        W 4418  10.650  38.108  10.705
31351W        W 4419  26.235  34.352   2.649
31352W        W 4420   0.345  39.451   0.312
31353W        W 4421  32.415  35.951  14.499
31354W        W 4422  13.838  26.524   3.720
31355W        W 4423  44.779   1.958  13.881
31356W        W 4424   5.741  11.872  12.501
31357W        W 4425  26.645   5.225  14.375
31358W        W 4426  18.892  26.577  10.345
31359W        W 4427  21.046  44.905  11.499
31360W        W 4428   9.416   2.760   3.840
31361W        W 4429  13.817  14.358  10.746
31362W        W 4430  27.576  32.142  14.509
31363W        W 4431  10.330  25.396  14.266
31364W        W 4432  20.069  42.805   2.806
31365W        W 4433  35.561   2.527  14.482
31366W        W 4434  40.605  17.431  12.539
31367W        W 4435  10.714  27.884   4.630
31368W        W 4436  44.551   5.414  12.044
31369W        W 4437  21.702   4.766  13.867
31370W        W 4438   0.809  41.932   4.104
31371W        W 4439  23.106  22.163   0.250
31372W        W 4440  13.288  36.525  11.608
31373W        W 4441  25.719  16.551   4.093
31374W        W 4442  26.351  18.345  11.083
31375W        W 4443  28.567   0.656   0.804
31376W        W 4444  32.641   4.456  13.940
31377W        W 4445  13.760  26.375   0.958
31378W        W 4446  27.494  41.760  13.316
31379W        W 4447  44.857  18.487  14.871
31380W        W 4448   4.250  26.127  12.989
31381W        W 4449  34.539   5.980  13.731
31382W        W 4450  31.363  25.207   1.036
31383W        W 4451  30.637  12.547  12.754
31384W        W 4452   9.189  13.827  13.327
31385W        W 4453  41.532   5.856   4.725
31386W        W 4454  39.816  40.572   1.277
31387W        W 4455  36.619  40.364  11.968
31388W        W 4456  28.699  28.540  10.789
31389W        W 4457  12.366  30.635   4.550
31390W        W 4458   8.273  29.225   2.765
31391W        W 4459   1.358  37.328   0.240
31392W        W 4460   4.785  23.678   0.250
31393W        W 4461  23.497  19.471   9.785
31394W        W 4462  23.379  24.976   1.702
31395W        W 4463   8.952  19.050  11.935
31396W        W 4464  39.586  28.083  12.890
31397W        W 4465  19.482  32.570   0.591
31398W        W 4466  16.414  25.951  14.404
31399W        W 4467  11.824  13.710   4.270
31400W        W 4468  18.189  19.139  11.495
31401W        W 4469   2.235  42.936   3.146
31402W        W 4470   5.417  31.852   3.138
31403W        W 4471  38.527  28.395  11.602
31404W        W 4472  29.450  27.490  10.737
31405W        W 4473   9.854  27.587   4.581
31406W        W 4474  11.673  30.044   4.616
31407W        W 4475  32.660  25.503   0.698
31408W        W 4476   3.906  27.184   1.413
31409W        W 4477   4.125  21.231  10.706
31410W        W 4478  11.612  16.554   0.345
31411W        W 4479  30.016   1.517   3.205
31412W        W 4480  30.484  32.909   3.237
31413W        W 4481   1.409   5.207  13.181
31414W        W 4482  16.936  14.527  12.505
31415W        W 4483  44.287  18.661  11.446
31416W        W 4484  29.124  15.606   2.859
31417W        W 4485   8.808   4.987  13.964
31418W        W 4486  19.775  31.667   4.163
31419W        W 4487  30.884  24.658  11.150
31420W        W 4488  43.357   9.132  12.845
31421W        W 4489  39.324  38.342  13.370
31422W        W 4490   4.190  26.839  14.372
31423W        W 4491   2.462   7.941  11.676
31424W        W 4492  17.296  26.445   4.143
31425W        W 4493   6.545  13.565  14.830
31426W        W 4494   1.125  25.511  12.224
31427W        W 4495  25.963  12.387  10.925
31428W        W 4496  15.538  33.068  14.826
31429W        W 4497  15.793   0.029   3.257
31430W        W 4498  41.324  35.582   0.777
31431W        W 4499  40.432  16.999  11.345
31432W        W 4500   7.870  42.365   4.780
31433W        W 4501  24.698  40.170   4.573
31434W        W 4502   7.504  32.920   0.806
31435W        W 4503  44.845   3.358  10.773
31436W        W 4504  31.733  38.266   3.260
31437W        W 4505  11.934  12.352   4.813
31438W        W 4506  24.576  34.962   1.721
31439W        W 4507   7.941   2.655   0.771
31440W        W 4508  28.456  24.759   3.233
31441W        W 4509  16.328  29.107  11.060
31442W        W 4510  33.634  21.970   3.649
31443W        W 4511  13.694  12.655   4.223
31444W        W 4512  42.444   7.202   1.227
31445W        W 4513  38.823  33.885  13.511
31446W        W 4514  25.682  25.391  11.964
31447W        W 4515  34.543   6.144   1.759
31448W        W 4516   1.233  31.649  13.046
31449W        W 4517  43.090   4.130   3.309
31450W        W 4518  37.066  19.076  13.030
31451W        W 4519  36.439   1.817  10.754
31452W        W 4520  25.690  36.564  14.346
31453W        W 4521  33.431  42.527   5.081
31454W        W 4522  20.188  29.458   0.699
31455W        W 4523  39.392   6.634  11.190
31456W        W 4524  16.865  13.679  11.610
31457W        W 4525   6.893   0.293   2.696
31458W        W 4526  13.797  18.294  14.094
31459W        W 4527   1.917  20.515   4.166
31460W        W 4528   4.563  27.482  10.432
31461W        W 4529  24.525  27.030   1.831
31462W        W 4530  27.211  42.579  11.592
31463W        W 4531  27.915  38.502  13.473
31464W        W 4532  31.152  38.315   2.274
31465W        W 4533  31.002   2.307   2.352
31466W        W 4534  19.184  34.544  11.902
31467W        W 4535  22.853  10.370  13.484
31468W        W 4536  23.259  33.788   3.221
31469W        W 4537  21.535   1.517  10.969
31470W        W 4538  44.354   1.732   4.735
31471W        W 4539  24.277  16.910  13.830
31472W        W 4540  21.426  35.912  12.921
31473W        W 4541   0.338  41.882  10.905
31474W        W 4542  13.045  17.668   4.996
31475W        W 4543   6.560  44.114   3.273
31476W        W 4544  10.718  37.404  12.022
31477W        W 4545  23.070  20.033  12.936
31478W        W 4546   5.796  10.355  14.715
31479W        W 4547  39.448   9.924   0.936
31480W        W 4548  34.086  34.609   2.115
31481W        W 4549  26.186   8.368  14.126
31482W        W 4550  31.552   3.917  10.782
31483W        W 4551  20.209  43.864  14.432
31484W        W 4552   1.144  21.511   4.087
31485W        W 4553   3.509  27.472   3.046
31486W        W 4554  15.726  30.727   4.173
31487W        W 4555  16.171  12.668  11.891
31488W        W 4556   6.162  19.034  10.690
31489W        W 4557  29.763  21.998  11.489
31490W        W 4558  13.596  20.983   2.277
31491W        W 4559  38.923  34.816   4.053
31492W        W 4560  12.129  11.143   2.788
31493W        W 4561  43.342  12.842   3.409
31494W        W 4562  19.178  35.282   1.167
31495W        W 4563  41.448  17.129   4.193
31496W        W 4564  19.025  16.227   3.052
31497W        W 4565  35.880   5.794   2.354
31498W        W 4566  27.577  18.515  12.866
31499W        W 4567  17.638   4.446  11.473
31500W        W 4568   8.318  14.208   2.673
31501W        W 4569  38.997   2.679  13.483
31502W        W 4570  41.886  30.662  11.544
31503W        W 4571  24.486  35.984   1.207
31504W        W 4572   1.748   6.783   2.275
31505W        W 4573  43.689   6.424   3.830
31506W        W 4574  37.664  16.617  13.841
31507W        W 4575   1.820  37.310  14.998
31508W        W 4576  44.228  31.405  13.563
31509W        W 4577  17.274  34.760   1.719
31510W        W 4578   3.976  31.764  12.419
31511W        W 4579   6.183   5.259  13.464
31512W        W 4580  43.936  34.850   5.067
31513W        W 4581  18.771  29.640   4.355
31514W        W 4582  11.902   3.298  10.794
31515W        W 4583  12.636  12.608  13.672
31516W        W 4584  25.605  43.806  10.920
31517W        W 4585  40.364  24.144   2.571
31518W        W 4586  40.803  21.919   2.718
31519W        W 4587  40.705  25.005   4.144
31520W        W 4588  40.895  16.934  14.754
31521W        W 4589   5.358  20.263   2.680
31522W        W 4590   4.334  20.976   3.328
31523W        W 4591  44.845   8.619   4.054
31524W        W 4592  13.896  22.144  10.796
31525W        W 4593   1.742  39.625  12.048
31526W        W 4594  20.239  28.633   4.616
31527W        W 4595  38.526   9.219   3.826
31528W        W 4596  19.511  43.084   2.279
31529W        W 4597  31.633  18.292  13.613
31530W        W 4598  27.877  22.307  10.922
31531W        W 4599  10.461  22.585  11.118
31532W        W 4600  32.921  13.471   1.832
31533W        W 4601  23.027   9.080  11.537
31534W        W 4602  11.160  28.176  12.861
31535W        W 4603  43.311  38.032  14.230
31536W        W 4604  19.348  43.441   1.725
31537W        W 4605  14.622  16.238  13.821
31538W        W 4606  37.593  10.202  14.306
31539W        W 4607  15.812  38.316  13.112
31540W        W 4608  12.248  28.840   0.368
31541W        W 4609  39.005   0.443  10.772
31542W        W 4610   7.427  39.412  10.460
31543W        W 4611  15.600  12.065   0.680
31544W        W 4612  29.578  41.033  11.672
31545W        W 4613  40.688  11.074  11.583
31546W        W 4614  39.273   1.378   4.343
31547W        W 4615   9.575  36.451  12.382
31548W        W 4616  18.297  28.436  10.876
31549W        W 4617   6.888  33.137   2.225
31550W        W 4618   4.286  12.700   2.902
31551W        W 4619   7.112   8.198   2.418
31552W        W 4620  21.316  14.832  13.397
31553W        W 4621  15.534   8.324  11.099
31554W        W 4622  14.622  30.572   3.745
31555W        W 4623  15.686  29.058   3.249
31556W        W 4624  32.214  26.597  14.862
31557W        W 4625  17.329  13.597   1.631
31558W        W 4626   7.394  37.287  13.937
31559W        W 4627  42.889  40.320   0.051
31560W        W 4628  17.561  20.319   0.714
31561W        W 4629  25.090  36.924   2.605
31562W        W 4630   1.410  25.144  13.524
31563W        W 4631   9.579  37.501   3.429
31564W        W 4632  19.968  35.518  12.131
31565W        W 4633  28.476  24.769  14.231
31566W        W 4634   6.396  29.437   0.304
31567W        W 4635  24.794  22.090   2.695
31568W        W 4636   9.706   7.390  10.398
31569W        W 4637  30.756  36.423  11.064
31570W        W 4638  40.840  27.740  12.592
31571W        W 4639   3.878   4.367   4.635
31572W        W 4640   5.779   9.870  13.481
31573W        W 4641  23.708  13.793   2.195
31574W        W 4642  35.408  12.682   1.705
31575W        W 4643   2.011  19.030  13.473
31576W        W 4644  21.955  38.929   1.763
31577W        W 4645  11.464   7.242   2.113
31578W        W 4646  44.824  44.170  10.596
31579W        W 4647  33.638  40.361   3.206
31580W        W 4648   1.296  24.207   0.497
31581W        W 4649  26.945  26.074   3.764
31582W        W 4650  38.567   5.584   2.271
31583W        W 4651  44.253  38.973  14.926
31584W        W 4652  39.037  17.564   4.324
31585W        W 4653  28.533  44.528   4.223
31586W        W 4654  40.972  28.224   4.323
31587W        W 4655   1.215   5.930  10.749
31588W        W 4656  37.791  29.409   0.273
31589W        W 4657  37.658  35.474   1.699
31590W        W 4658  24.746  17.746   2.198
31591W        W 4659  34.033  26.375   4.885
31592W        W 4660  36.498  25.703   0.063
31593W        W 4661  11.647  32.672   0.914
31594W        W 4662  12.205   2.031   0.355
31595W        W 4663  16.280   5.018   0.284
31596W        W 4664  29.508   8.619   2.772
31597W        W 4665  20.413  30.472   1.660
31598W        W 4666  21.926  42.299  12.133
31599W        W 4667  36.585  44.331  11.627
31600W        W 4668  23.041  12.735   1.651
31601W        W 4669  25.130   7.906  11.931
31602W        W 4670  23.047  32.824   2.877
31603W        W 4671  19.769  31.035  14.931
31604W        W 4672   4.511   9.850   3.217
31605W        W 4673  25.510  30.630   0.684
31606W        W 4674  25.898  42.925   1.580
31607W        W 4675  20.838  10.109  11.277
31608W        W 4676   4.378  30.692  12.119
31609W        W 4677  31.024  10.895  12.880
31610W        W 4678  37.409  39.108  13.863
31611W        W 4679   6.840  28.572   2.599
31612W        W 4680   1.779   7.424  11.175
31613W        W 4681   5.638  31.000   1.066
31614W        W 4682  30.436  38.319  11.566
31615W        W 4683  13.088  24.721  13.860
31616W        W 4684  42.203   2.840  10.722
31617W        W 4685  26.176  13.085   4.210
31618W        W 4686   7.114  34.534  14.056
31619W        W 4687  14.177  20.456   4.066
31620W        W 4688   9.206  11.854   3.584
31621W        W 4689  10.429  40.282   3.800
31622W        W 4690  26.582   3.511   0.418
31623W        W 4691  10.668  13.576   1.178
31624W        W 4692  33.614  31.431  13.045
31625W        W 4693  42.072  27.565   1.847
31626W        W 4694  24.028  40.955  11.932
31627W        W 4695  43.275  20.766  13.523
31628W        W 4696  14.762  18.568   4.469
31629W        W 4697   5.317   3.900  11.892
31630W        W 4698  39.071   3.931  14.875
31631W        W 4699  26.723  30.041   3.359
31632W        W 4700   5.847   4.306  14.593
31633W        W 4701  31.665  25.173   2.884
31634W        W 4702  44.765  32.641  10.915
31635W        W 4703  33.013   6.920  12.957
31636W        W 4704  23.231  15.686  10.057
31637W        W 4705  17.017   0.485   3.256
31638W        W 4706   1.453  14.754  13.467
31639W        W 4707  11.191  35.829  11.001
31640W        W 4708   4.692  30.410   2.210
31641W        W 4709  28.464  23.016   1.678
31642W        W 4710  38.602   6.222  10.438
31643W        W 4711  40.683  31.875  11.883
31644W        W 4712  43.438  23.319   4.166
31645W        W 4713  30.106  37.770  12.408
31646W        W 4714  33.103  33.384  11.351
31647W        W 4715  11.636  21.630  10.580
31648W        W 4716   6.871  29.519   0.461
31649W        W 4717  40.605  26.313  14.700
31650W        W 4718  43.728  11.785  14.292
31651W        W 4719  43.971  38.225  13.060
31652W        W 4720  21.184  27.217   1.432
31653W        W 4721  22.510   4.365   4.440
31654W        W 4722  19.094  29.549  10.732
31655W        W 4723   6.324  39.038  11.931
31656W        W 4724   8.791   8.314   1.702
31657W        W 4725  32.406   0.746  13.992
31658W        W 4726  32.879  12.972   1.999
31659W        W 4727  40.501  17.746   2.649
31660W        W 4728   1.969   0.471   2.327
31661W        W 4729  40.510  13.739  14.325
31662W        W 4730  14.382  22.162  14.875
31663W        W 4731   6.799  31.860  13.297
31664W        W 4732  32.444   6.317   4.709
31665W        W 4733  25.596  39.548   2.427
31666W        W 4734  35.523  24.534   2.719
31667W        W 4735  15.041  15.214  14.283
31668W        W 4736  29.368   8.404  12.593
31669W        W 4737  25.272  33.128   1.589
31670W        W 4738   9.785  13.311   1.746
31671W        W 4739  41.105  40.387  13.981
31672W        W 4740  30.884  44.026   1.863
31673W        W 4741  15.064  30.346  11.268
31674W        W 4742  17.024  16.730   0.284
31675W        W 4743  38.487  29.050  14.855
31676W        W 4744   9.688  30.293  11.342
31677W        W 4745  27.592  24.955  14.047
31678W        W 4746  19.929   4.371  14.035
31679W        W 4747  32.708  23.647  12.010
31680W        W 4748   4.429  31.364   2.345
31681W        W 4749  43.398   4.354  13.256
31682W        W 4750  10.705  44.737  12.336
31683W        W 4751  43.981  25.262  14.449
31684W        W 4752  42.327  26.981   2.402
31685W        W 4753   6.610  10.863  14.318
31686W        W 4754  25.133  41.502  11.891
31687W        W 4755  39.771  40.086   4.890
31688W        W 4756  19.298  37.305   1.339
31689W        W 4757  44.063  35.158   2.199
31690W        W 4758  21.300  37.043  10.667
31691W        W 4759  32.993  33.125   2.806
31692W        W 4760  39.128  14.347   0.842
31693W        W 4761  11.540  29.408   5.017
31694W        W 4762  25.495  12.315   1.867
31695W        W 4763  31.003   8.332   4.871
31696W        W 4764  35.441   9.504   2.381
31697W        W 4765  24.132  28.422  11.724
31698W        W 4766  42.994   7.001  12.578
31699W        W 4767  11.191   7.957   0.533
31700W        W 4768   1.260  16.593   1.222
31701W        W 4769  27.460  29.763  12.440
31702W        W 4770   3.895  40.886   3.888
31703W        W 4771  39.849  13.815   1.866
31704W        W 4772  28.279  22.197  11.237
31705W        W 4773  15.753  24.547  12.856
31706W        W 4774  19.063  27.463  12.835
31707W        W 4775  42.580  42.736  14.006
31708W        W 4776  27.589  17.026   1.184
31709W        W 4777  28.319  11.325  10.874
31710W        W 4778   7.915  27.392  13.857
31711W        W 4779   6.890  44.764   4.080
31712W        W 4780  40.673  41.465  10.987
31713W        W 4781   7.334   8.095   1.929
31714W        W 4782  24.966  13.973   3.702
31715W        W 4783  30.510   3.954   4.165
31716W        W 4784  30.910  25.592  11.402
31717W        W 4785  39.133  22.993   4.151
31718W        W 4786   3.719  33.967   4.093
31719W        W 4787   2.476  33.137  13.123
31720W        W 4788  19.195   5.274   1.868
31721W        W 4789  15.079  22.221  11.624
31722W        W 4790   3.766  30.398  10.330
31723W        W 4791  39.480  29.367   1.667
31724W        W 4792  13.760  10.877   3.715
31725W        W 4793   3.720   2.835  14.872
31726W        W 4794  43.516   9.887   4.382
31727W        W 4795  40.364   1.672  13.060
31728W        W 4796  19.285   0.928  12.900
31729W        W 4797  35.533  43.532   1.346
31730W        W 4798   6.684   5.197  12.444
31731W        W 4799   8.914  14.721  12.510
31732W        W 4800  31.942   3.386   0.288
31733W        W 4801  39.053  11.293   4.100
31734W        W 4802   7.638  10.176   5.126
31735W        W 4803  41.261  43.740   0.657
31736W        W 4804  32.966  13.116  10.788
31737W        W 4805  33.329  33.785   3.201
31738W        W 4806   4.460  43.807   0.800
31739W        W 4807  25.232  38.334   0.129
31740W        W 4808  12.884   5.285  10.902
31741W        W 4809   2.403  22.448  13.394
31742W        W 4810  33.166  35.885  11.839
31743W        W 4811  38.093  27.747   1.446
31744W        W 4812  10.945   9.689  14.331
31745W        W 4813  40.834  18.133   4.778
31746W        W 4814  20.728  40.465  11.124
31747W        W 4815  21.032  22.062   1.481
31748W        W 4816   9.477  11.653   3.206
31749W        W 4817  36.372   3.371   1.873
31750W        W 4818  34.060   0.334  14.960
31751W        W 4819  35.499  26.068  12.138
31752W        W 4820   0.291  44.858   2.007
31753W        W 4821  42.383  34.565   1.052
31754W        W 4822   8.422  26.631   2.779
31755W        W 4823  13.550  15.847   2.670
31756W        W 4824  14.017  44.016   2.829
31757W        W 4825  28.057  20.523   4.731
31758W        W 4826  39.843  33.942  11.906
31759W        W 4827  17.282  30.462   2.251
31760W        W 4828  10.202   4.161   2.791
31761W        W 4829   2.390  35.996  13.901
31762W        W 4830  19.437  26.011  11.577
31763W        W 4831  44.660  34.611   3.164
31764W        W 4832  36.009  14.587   4.505
31765W        W 4833   6.447   7.930  14.037
31766W        W 4834  23.575  10.195  11.105
31767W        W 4835  13.698  38.601   4.540
31768W        W 4836  13.407   5.687  14.301
31769W        W 4837  34.565  44.967  13.827
31770W        W 4838   8.948  14.848  10.763
31771W        W 4839   8.690   9.334   4.566
31772W        W 4840   4.247   0.420  12.067
31773W        W 4841  44.067  29.572  14.309
31774W        W 4842  35.692   7.134   4.476
31775W        W 4843   3.856  16.153  14.446
31776W        W 4844  44.720  22.576   2.859
31777W        W 4845  41.387   9.915   0.857
31778W        W 4846  16.379  19.110  11.677
31779W        W 4847  17.351  14.317  12.734
31780W        W 4848  19.144  10.817   4.266
31781W        W 4849  29.528  32.501  14.387
31782W        W 4850  34.409  29.297   3.239
31783W        W 4851  41.941  27.636  13.802
31784W        W 4852  42.023  21.460   1.984
31785W        W 4853  36.896  43.501   3.217
31786W        W 4854  22.523  27.536  10.305
31787W        W 4855  19.374  29.112   0.220
31788W        W 4856  16.570  20.637   3.214
31789W        W 4857  16.354  29.072   2.430
31790W        W 4858  20.687  32.344   1.641
31791W        W 4859  20.119  30.467   2.623
31792W        W 4860  22.434  44.826   0.740
31793W        W 4861  41.045   5.441  13.582
31794W        W 4862   4.966  18.258   1.688
31795W        W 4863  37.431   5.354   3.400
31796W        W 4864  24.675  35.785   0.050
31797W        W 4865   6.377  12.361   2.734
31798W        W 4866  41.019  31.318  13.763
31799W        W 4867  14.777   7.246  14.068
31800W        W 4868   9.922  32.103   0.775
31801W        W 4869  33.650  10.930  13.852
31802W        W 4870   4.046  10.135  13.985
31803W        W 4871   0.191   3.844  10.882
31804W        W 4872   5.942  24.655   3.586
31805W        W 4873  19.047  20.944   4.095
31806W        W 4874  20.766  35.159  11.910
31807W        W 4875  33.195  25.948  13.047
31808W        W 4876  42.923  20.541  14.779
31809W        W 4877  34.989  44.391   2.013
31810W        W 4878   2.189  34.438   1.866
31811W        W 4879  16.178  18.578  12.916
31812W        W 4880  29.545  34.388   3.676
31813W        W 4881  24.219  18.175   1.918
31814W        W 4882  41.872  25.355  14.047
31815W        W 4883  33.486  17.800  13.825
31816W        W 4884  18.628  27.926  13.504
31817W        W 4885  10.243  14.413  14.298
31818W        W 4886  31.947   8.498  11.035
31819W        W 4887  17.342  10.750  14.903
31820W        W 4888  28.493  20.124   4.259
31821W        W 4889  29.248  42.938   4.332
31822W        W 4890  20.208  14.678  14.433
31823W        W 4891  41.001  15.897  10.969
31824W        W 4892   2.506  12.444  14.442
31825W        W 4893   2.732   4.817   1.223
31826W        W 4894  28.057  30.321  10.308
31827W        W 4895  33.549   9.039   0.882
31828W        W 4896  33.863   2.767  11.456
31829W        W 4897   6.495  32.039   0.697
31830W        W 4898  23.843  43.818   3.191
31831W        W 4899  10.641  10.265  10.727
31832W        W 4900  33.348   3.988   2.785
31833W        W 4901  32.486  40.834   3.654
31834W        W 4902   4.595  21.683  14.310
31835W        W 4903  23.456  19.807  10.708
31836W        W 4904   7.466  24.454  11.146
31837W        W 4905   5.392   2.247   0.737
31838W        W 4906  31.825   0.687  11.706
31839W        W 4907  39.355  15.564   2.043
31840W        W 4908  22.150  34.936   2.605
31841W        W 4909   1.383   5.921  14.424
31842W        W 4910  28.673  42.678   2.165
31843W        W 4911  18.307  18.618   0.414
31844W        W 4912  18.222  28.549  12.974
31845W        W 4913  13.028  41.060   4.375
31846W        W 4914   9.435  37.083   1.223
31847W        W 4915  42.330  29.400   4.107
31848W        W 4916   2.230   2.020  11.869
31849W        W 4917   1.865  43.199  12.548
31850W        W 4918  38.878  37.519  13.110
31851W        W 4919   1.825  17.204   0.815
31852W        W 4920  26.682  29.302  14.945
31853W        W 4921  28.047  36.248  11.996
31854W        W 4922  24.807  18.609   4.544
31855W        W 4923  32.817  43.193  14.692
31856W        W 4924   3.879   4.249   3.156
31857W        W 4925  39.088   9.609  11.019
31858W        W 4926  10.776   6.638  10.975
31859W        W 4927  20.253  13.041   4.150
31860W        W 4928  36.464   4.900  13.740
31861W        W 4929  22.264  37.627  11.615
31862W        W 4930  25.928  11.346   4.735
31863W        W 4931  26.766  25.889  11.066
31864W        W 4932  27.201  17.759   4.135
31865W        W 4933  43.130   5.179   4.100
31866W        W 4934   1.871   7.178   4.147
31867W        W 4935  14.365   9.232   2.311
31868W        W 4936  11.174  21.887  14.924
31869W        W 4937   1.964  19.288   0.593
31870W        W 4938  18.613   7.339  10.708
31871W        W 4939   3.853   7.416  11.667
31872W        W 4940  33.327  11.872   3.221
31873W        W 4941  42.898  42.379   3.334
31874W        W 4942  34.061  12.396  13.267
31875W        W 4943  37.055  17.696  13.014
31876W        W 4944  25.539  37.350  13.772
31877W        W 4945   2.432  44.291  11.895
31878W        W 4946  40.276  35.445  11.135
31879W        W 4947   7.297  10.685   4.531
31880W        W 4948   6.471  41.894   9.864
31881W        W 4949  11.118  42.821   4.748
31882W        W 4950  26.962  40.041   0.942
31883W        W 4951  31.382   7.652   3.248
31884W        W 4952   0.322   8.670   2.771
31885W        W 4953  36.898   8.433   0.721
31886W        W 4954  12.557   0.864   2.456
31887W        W 4955  22.157   4.969  14.913
31888W        W 4956  36.320   9.820   2.333
31889W        W 4957   0.527  43.338   3.848
31890W        W 4958   1.430   7.268  11.532
31891W        W 4959  30.785   7.709  12.992
31892W        W 4960  37.394  29.654  13.337
31893W        W 4961  23.447  31.143  12.789
31894W        W 4962  44.442   2.291   0.777
31895W        W 4963   5.185  43.431   4.662
31896W        W 4964  22.177   8.141  13.124
31897W        W 4965  22.164  29.664  12.914
31898W        W 4966   4.983  14.102  10.681
31899W        W 4967  36.570  39.056   2.889
31900W        W 4968  13.988  20.047   3.296
31901W        W 4969  40.763  31.666  12.354
31902W        W 4970  25.555  21.841  14.456
31903W        W 4971  32.207   5.868   1.420
31904W        W 4972  40.783  11.289  13.791
31905W        W 4973  42.522  36.428   4.568
31906W        W 4974  35.047  43.760   2.213
31907W        W 4975  41.972  16.600   0.828
31908W        W 4976  39.958  34.896  10.529
31909W        W 4977  43.492  20.421  13.882
31910W        W 4978   3.427  21.777   4.203
31911W        W 4979  29.704   4.491   0.458
31912W        W 4980  17.618  20.770  12.407
31913W        W 4981   1.933  23.332  11.978
31914W        W 4982  13.214  25.777   3.774
31915W        W 4983  26.332  10.214   0.385
31916W        W 4984   3.375  38.193   0.395
31917W        W 4985  18.676  43.084   0.334
31918W        W 4986  33.530  20.580  13.472
31919W        W 4987  20.513  31.431   0.340
31920W        W 4988   9.359  41.924   2.250
31921W        W 4989  28.390   7.137  11.724
31922W        W 4990  36.124  15.573   1.293
31923W        W 4991  29.972   6.760   2.775
31924W        W 4992  20.144  18.144  13.387
31925W        W 4993  24.533  12.028  12.960
31926W        W 4994  31.476  43.372  14.775
31927W        W 4995  35.793  10.119  14.956
31928W        W 4996  30.884   4.977   3.639
31929W        W 4997  25.590  10.945   4.756
31930W        W 4998  35.852  23.275   1.876
31931W        W 4999  43.739  31.337   2.409
31932W        W 5000  17.113  34.464   3.187
31933W        W 5001   2.817   2.984  14.275
31934W        W 5002  32.461   8.234   0.690
31935W        W 5003  14.170  30.056  11.089
31936W        W 5004  23.770  22.055   1.763
31937W        W 5005  25.594  13.104   5.030
31938W        W 5006  28.103  11.586   9.960
31939W        W 5007  38.457  38.935   1.269
31940W        W 5008  24.210  44.989  11.665
31941W        W 5009  16.700  36.928  12.502
31942W        W 5010   4.746   0.343  13.315
31943W        W 5011  20.695  19.085  12.981
31944W        W 5012  15.124  14.522   0.082
31945W        W 5013  27.532   8.690  12.855
31946W        W 5014  19.057  14.415   1.865
31947W        W 5015  34.952  28.635   0.942
31948W        W 5016  17.775  30.120   0.869
31949W        W 5017  15.488   4.745  10.901
31950W        W 5018   5.913  21.208  13.568
31951W        W 5019  24.704  25.931   3.282
31952W        W 5020   5.068  23.355   1.590
31953W        W 5021  13.788  22.161   3.602
31954W        W 5022  31.470   6.633  11.169
31955W        W 5023  21.165  27.205   0.902
31956W        W 5024  41.200  15.733   1.843
31957W        W 5025  43.852  17.136  13.057
31958W        W 5026  40.339  31.759  12.630
31959W        W 5027  20.217  20.950   3.931
31960W        W 5028   3.855  12.137   3.488
31961W        W 5029  12.674   5.584   1.500
31962W        W 5030  37.142   4.029   0.854
31963W        W 5031  23.060  41.256   2.344
31964W        W 5032  36.877  15.209   1.013
31965W        W 5033  34.114  25.430  14.836
31966W        W 5034  19.972   6.164  13.385
31967W        W 5035  36.185  28.621  11.562
31968W        W 5036  10.992  29.561   3.684
31969W        W 5037  12.780   0.872  11.226
31970W        W 5038  40.832   3.512  11.510
31971W        W 5039  24.956  27.147   4.395
31972W        W 5040   2.429  35.516   4.064
31973W        W 5041  37.130  27.463  11.881
31974W        W 5042  42.041   7.859  10.734
31975W        W 5043  14.602  21.333   0.286
31976W        W 5044  15.235  24.723   3.685
31977W        W 5045  40.369   7.360  13.780
31978W        W 5046  13.815  20.121  10.663
31979W        W 5047  25.935  33.668  11.202
31980W        W 5048   2.712  18.564  11.303
31981W        W 5049  29.853  27.644   0.680
31982W        W 5050  29.205  16.945   0.501
31983W        W 5051   5.314  30.863  14.029
31984W        W 5052  13.207  33.030   0.725
31985W        W 5053  29.727  28.650  10.471
31986W        W 5054  34.307  39.881   0.625
31987W        W 5055  17.179  19.226   4.646
31988W        W 5056  29.442  38.040  11.546
31989W        W 5057  33.373  30.467   0.125
31990W        W 5058   6.309  38.878   4.609
31991W        W 5059  41.422  40.545  10.557
31992W        W 5060  33.972  26.228  11.721
31993W        W 5061  38.942   9.596   3.297
31994W        W 5062  26.998  11.384  12.024
31995W        W 5063  14.337  35.394   3.489
31996W        W 5064   7.292  40.352   4.260
31997W        W 5065   7.260  13.930  13.347
31998W        W 5066  25.987  39.750   3.794
31999W        W 5067  35.363   3.917   3.704
32000W        W 5068  24.737  28.599   0.325
32001W        W 5069   3.977   9.402   2.335
32002W        W 5070   9.884   9.848   4.126
32003W        W 5071  12.028   8.265   4.653
32004W        W 5072  15.107  11.806   0.741
32005W        W 5073  37.046  38.138   3.604
32006W        W 5074  26.388  33.994   0.918
32007W        W 5075  28.403  25.679  14.283
32008W        W 5076  40.433   3.674  14.529
32009W        W 5077  44.890  34.978  13.022
32010W        W 5078  20.040  20.038  11.122
32011W        W 5079  23.677  21.558  14.659
32012W        W 5080  33.976  40.230  13.991
32013W        W 5081  17.721  11.859   0.423
32014W        W 5082  32.996   9.730  10.696
32015W        W 5083  33.960  35.923   0.640
32016W        W 5084   3.053  25.570  11.568
32017W        W 5085  15.824  40.032   1.307
32018W        W 5086  27.468  29.038   4.404
32019W        W 5087  40.314  21.786  13.795
32020W        W 5088  11.724  35.198   3.534
32021W        W 5089  14.591  39.739  12.436
32022W        W 5090  19.832   1.850   3.609
32023W        W 5091  30.672  37.472   4.690
32024W        W 5092  29.930  39.114  11.538
32025W        W 5093  31.885  34.882  13.807
32026W        W 5094   0.990   6.836  13.769
32027W        W 5095  38.800  19.678   3.721
32028W        W 5096  43.899   6.236  14.790
32029W        W 5097  10.337   1.756   4.537
32030W        W 5098  25.011  36.074  10.702
32031W        W 5099  25.669  30.136  11.615
32032W        W 5100  22.286  29.042   1.345
32033W        W 5101   0.957  40.942  12.832
32034W        W 5102  13.753  14.594  14.363
32035W        W 5103   9.912  44.473   4.168
32036W        W 5104   5.874  37.955   3.935
32037W        W 5105  35.126  21.033  10.639
32038W        W 5106  27.741  15.230   4.580
32039W        W 5107  41.019  19.724   4.859
32040W        W 5108  32.922  28.647  13.084
32041W        W 5109  39.469  15.534  14.531
32042W        W 5110  17.129  31.907  12.446
32043W        W 5111  36.054   2.757   2.667
32044W        W 5112  39.042  20.121  14.865
32045W        W 5113  29.712   8.756  12.434
32046W        W 5114   9.623  25.973   4.125
32047W        W 5115  34.921  28.473   2.488
32048W        W 5116  27.687   2.629  11.691
32049W        W 5117   4.848  35.358   2.366
32050W        W 5118   4.270  37.540  14.904
32051W        W 5119  18.155  30.407  13.268
32052W        W 5120  23.497  26.728   0.018
32053W        W 5121   3.785  34.554  14.382
32054W        W 5122   5.962  10.927  13.351
32055W        W 5123   6.284  28.095  14.357
32056W        W 5124  36.966  20.454  13.545
32057W        W 5125   1.797  33.870   2.377
32058W        W 5126  10.708  22.069  10.699
32059W        W 5127  20.018  39.089  11.183
32060W        W 5128  42.985   8.803  14.840
32061W        W 5129  18.218   9.883   4.613
32062W        W 5130  35.616  22.484  11.568
32063W        W 5131  36.599  13.660   1.237
32064W        W 5132  24.773  23.594   2.389
32065W        W 5133  24.772  12.606   2.379
32066W        W 5134  41.881  26.452  14.371
32067W        W 5135  30.608  25.453   1.922
32068W        W 5136  21.931  24.554   4.011
32069W        W 5137   7.846   8.689  13.403
32070W        W 5138   8.889  42.083  10.647
32071W        W 5139  30.030   3.183   1.726
32072W        W 5140   2.014  16.577   4.264
32073W        W 5141  15.356  18.679  13.378
32074W        W 5142   1.361  33.371  14.753
32075W        W 5143  12.541  17.273   5.010
32076W        W 5144  30.645   8.896   0.547
32077W        W 5145  15.295  42.839   3.610
32078W        W 5146   8.310  28.620   1.684
32079W        W 5147  41.590  30.946  10.984
32080W        W 5148  19.622  23.475  14.422
32081W        W 5149  42.712   4.321  12.630
32082W        W 5150  36.512   1.784  11.262
32083W        W 5151  33.036   9.736   4.435
32084W        W 5152  27.547  24.664  13.431
32085W        W 5153   7.262  16.331   3.294
32086W        W 5154   8.864  14.175  13.798
32087W        W 5155  34.550   0.727  11.058
32088W        W 5156  24.354   2.691  12.842
32089W        W 5157   0.738  19.982  11.102
32090W        W 5158  19.305  15.812   0.695
32091W        W 5159   9.135   0.349  11.172
32092W        W 5160   0.694  34.942   2.259
32093W        W 5161  37.102  22.692   0.782
32094W        W 5162  43.324   2.766   0.999
32095W        W 5163  24.541   5.255  14.864
32096W        W 5164  13.400  36.398  10.675
32097W        W 5165   9.828  26.548   0.752
32098W        W 5166  33.805  26.080   2.232
32099W        W 5167  16.726   7.077   3.386
32100W        W 5168   0.704   6.222  14.892
32101W        W 5169  38.691   5.418   2.757
32102W        W 5170   6.751   9.178  12.604
32103W        W 5171  33.077  33.927  12.560
32104W        W 5172  43.376   9.152  14.878
32105W        W 5173  34.289  30.953  12.606
32106W        W 5174   5.195  23.103  12.040
32107W        W 5175   6.354  18.242   0.646
32108W        W 5176  14.678  33.376  13.953
32109W        W 5177  36.339  29.622   2.743
32110W        W 5178  22.111  42.815   0.915
32111W        W 5179  26.618   0.851   2.182
32112W        W 5180  32.170  23.920   0.807
32113W        W 5181  19.843  19.583  11.212
32114W        W 5182  10.683  27.455  13.884
32115W        W 5183  40.921  37.427  14.121
32116W        W 5184  44.380  39.587  11.106
32117W        W 5185  13.202   9.714  14.781
32118W        W 5186  33.505   8.961  13.949
32119W        W 5187  30.665  38.180  11.141
32120W        W 5188  20.520  40.315  11.572
32121W        W 5189  38.942  11.678  12.590
32122W        W 5190  16.152  10.865   0.890
32123W        W 5191   3.837  40.391   3.684
32124W        W 5192   9.222  25.202   0.764
32125W        W 5193  33.810   4.222   1.905
32126W        W 5194  19.971  27.101  14.450
32127W        W 5195   6.429   2.453  14.904
32128W        W 5196   0.921  32.863  13.886
32129W        W 5197  37.458   1.855  11.059
32130W        W 5198  38.921  11.791  11.273
32131W        W 5199  18.424  20.681   4.816
32132W        W 5200  16.759  34.190   3.950
32133W        W 5201  24.480  19.299   4.141
32134W        W 5202   5.229  29.125   0.817
32135W        W 5203  13.341  37.078  14.322
32136W        W 5204  25.316  36.055  13.247
32137W        W 5205  40.882  21.186  13.992
32138W        W 5206  25.474   9.205   2.296
32139W        W 5207   4.920  13.524   3.606
32140W        W 5208  20.447   1.032   5.488
32141W        W 5209  32.668  25.935   1.165
32142W        W 5210  37.858  39.037  10.346
32143W        W 5211   3.190   3.571  14.492
32144W        W 5212  28.918  22.044  12.928
32145W        W 5213  22.514  27.403   0.858
32146W        W 5214  14.105  23.142   0.224
32147W        W 5215   0.575  26.486   2.127
32148W        W 5216  17.975  44.328  13.437
32149W        W 5217  25.153   4.847   1.431
32150W        W 5218  10.348  19.520  14.239
32151W        W 5219  12.373  22.561   0.517
32152W        W 5220   8.338   8.454  12.544
32153W        W 5221  36.380  42.722   1.873
32154W        W 5222   3.495  37.185   0.780
32155W        W 5223   6.452  12.761   4.133
32156W        W 5224  40.476  44.876  14.390
32157W        W 5225   4.515   0.189   0.812
32158W        W 5226  42.945   3.257  13.032
32159W        W 5227  32.534  36.408   1.766
32160W        W 5228  16.782  31.938  11.189
32161W        W 5229  38.724  20.983   4.261
32162W        W 5230  11.532   4.636   1.278
32163W        W 5231  40.396  27.559  12.843
32164W        W 5232  20.863  30.804  11.811
32165W        W 5233   6.968  14.335   0.384
32166W        W 5234   5.853   4.715  14.958
32167W        W 5235  24.357   9.844  13.301
32168W        W 5236   3.170  22.208  14.763
32169W        W 5237   3.703  30.090  14.847
32170W        W 5238  19.758  15.870  12.372
32171W        W 5239  34.077  38.470  10.608
32172W        W 5240  24.961  30.444   3.318
32173W        W 5241  26.218  41.924  14.647
32174W        W 5242  22.634  43.471  14.856
32175W        W 5243  42.575  33.988  14.902
32176W        W 5244  27.602   8.943  11.505
32177W        W 5245   0.311  31.563  11.563
32178W        W 5246  25.287  21.863  14.908
32179W        W 5247   7.789   9.199   2.389
32180W        W 5248  35.097   2.033   2.722
32181W        W 5249  36.615  31.205   3.578
32182W        W 5250   6.712   0.568   2.285
32183W        W 5251   3.257  35.385  12.692
32184W        W 5252  43.993  14.749  13.478
32185W        W 5253  14.161  39.904   3.514
32186W        W 5254  37.507  42.037   1.918
32187W        W 5255  11.768  39.594  12.046
32188W        W 5256   5.513  43.257   1.362
32189W        W 5257  37.310  13.877   0.514
32190W        W 5258   1.876  22.458   0.023
32191W        W 5259   9.086  25.721  11.400
32192W        W 5260  42.598  37.004   2.287
32193W        W 5261  31.867   1.998   3.791
32194W        W 5262   8.748  11.100   1.751
32195W        W 5263  26.704  30.147  10.712
32196W        W 5264  19.270  22.009   0.511
32197W        W 5265  10.896   0.402  11.617
32198W        W 5266  40.048  21.618   1.663
32199W        W 5267  24.052  40.000   5.083
32200W        W 5268  24.067   9.517  11.604
32201W        W 5269   1.871  26.722   0.889
32202W        W 5270   5.831  28.593   2.840
32203W        W 5271  14.312  41.106   2.661
32204W        W 5272  36.844  23.401   3.265
32205W        W 5273  33.618  26.589  14.913
32206W        W 5274  41.325  24.749  11.542
32207W        W 5275  31.527  32.106   2.471
32208W        W 5276  30.830  36.729   1.273
32209W        W 5277  40.521  33.091   1.148
32210W        W 5278  26.551  38.623  14.740
32211W        W 5279  38.541   4.177   0.296
32212W        W 5280  16.214  29.170  14.523
32213W        W 5281  21.180  10.625  14.737
32214W        W 5282  10.628  23.734   2.460
32215W        W 5283  11.827   4.864  14.353
32216W        W 5284  11.297  13.789   4.197
32217W        W 5285   4.861  23.600   4.360
32218W        W 5286   3.438  42.400  14.322
32219W        W 5287  32.420   6.789  13.282
32220W        W 5288  15.678  23.795   4.989
32221W        W 5289  43.204  39.305   2.677
32222W        W 5290  10.920   5.351  13.563
32223W        W 5291  35.942  13.706  12.358
32224W        W 5292  35.089  31.524  11.676
32225W        W 5293   0.386   2.008   1.380
32226W        W 5294   8.160   9.861  13.332
32227W        W 5295  27.694  14.661   0.345
32228W        W 5296   3.642  21.522   0.477
32229W        W 5297  34.593  13.099  11.658
32230W        W 5298  15.446   7.782   2.997
32231W        W 5299  30.050  12.249   0.775
32232W        W 5300  16.100  37.427  10.601
32233W        W 5301  38.854  29.847   5.331
32234W        W 5302  12.826   6.637  11.291
32235W        W 5303  16.596  10.584   4.098
32236W        W 5304  44.158  41.929  12.589
32237W        W 5305  31.655  30.026   4.118
32238W        W 5306   0.392  26.446   3.663
32239W        W 5307  43.458  44.457  14.788
32240W        W 5308  19.718  36.899   3.746
32241W        W 5309  33.585  44.451   2.258
32242W        W 5310  25.694  17.238  11.606
32243W        W 5311  16.600  12.097   0.262
32244W        W 5312  42.101  39.907   1.402
32245W        W 5313  31.166  10.828   1.387
32246W        W 5314   4.951  31.372   3.307
32247W        W 5315  44.656   4.425   1.745
32248W        W 5316  25.811  43.965   3.221
32249W        W 5317  32.938  37.425  14.131
32250W        W 5318  18.552   5.344  11.660
32251W        W 5319   6.111  41.990  10.384
32252W        W 5320   7.442   2.338  10.745
32253W        W 5321   3.996   4.748  11.036
32254W        W 5322  28.166  23.139   1.242
32255W        W 5323  39.983  31.594   3.163
32256W        W 5324  28.599  40.531   2.392
32257W        W 5325  23.702  38.633   0.739
32258W        W 5326  38.264  23.577  11.090
32259W        W 5327   3.158  43.717  12.215
32260W        W 5328  32.617  16.597  11.122
32261W        W 5329   5.153  25.175  11.010
32262W        W 5330  38.825  37.068   3.188
32263W        W 5331  13.806  37.007  14.522
32264W        W 5332  14.911  12.641  14.788
32265W        W 5333  40.839  30.053   1.963
32266W        W 5334  24.918   6.608   0.906
32267W        W 5335  26.047  21.445   3.747
32268W        W 5336  24.653   7.305   0.736
32269W        W 5337  41.254  20.032   0.805
32270W        W 5338  40.478  44.696   4.113
32271W        W 5339  37.497  22.161  13.799
32272W        W 5340  13.652  21.720  13.723
32273W        W 5341  34.683  16.117  11.869
32274W        W 5342  19.014  13.842   2.709
32275W        W 5343  22.018   7.651  13.064
32276W        W 5344  39.276  44.868  14.509
32277W        W 5345  13.696   9.182  10.923
32278W        W 5346  32.839   3.273  14.916
32279W        W 5347   4.733   6.173  12.642
32280W        W 5348  44.458  26.775  11.492
32281W        W 5349  38.841  37.945   2.198
32282W        W 5350  15.273  12.005   1.202
32283W        W 5351  33.413  31.751   4.096
32284W        W 5352  42.936  22.552   1.467
32285W        W 5353  16.591  34.210   1.283
32286W        W 5354  14.999  15.298   2.639
32287W        W 5355   6.878  17.032   0.463
32288W        W 5356  24.695  31.246  14.480
32289W        W 5357  31.181  33.963   3.199
32290W        W 5358  37.019   4.876   1.872
32291W        W 5359   6.850  13.573  13.450
32292W        W 5360  31.423  10.386  13.535
32293W        W 5361   8.240  21.149   0.472
32294W        W 5362  26.924  41.050   2.704
32295W        W 5363   0.416  28.953  13.548
32296W        W 5364  19.814  13.857   4.084
32297W        W 5365  20.204  15.524   1.674
32298W        W 5366  21.067  37.447   0.884
32299W        W 5367  18.689   2.473   2.377
32300W        W 5368   6.939  19.587  11.137
32301W        W 5369  28.084   8.324   2.157
32302W        W 5370  28.270  22.786   0.423
32303W        W 5371   1.436  31.596  10.685
32304W        W 5372  34.592  19.005   4.361
32305W        W 5373  37.857  20.723  13.470
32306W        W 5374   9.640  15.310   3.480
32307W        W 5375  11.287  22.642  14.599
32308W        W 5376  27.761  43.369   1.458
32309W        W 5377  16.530  25.484  12.841
32310W        W 5378  40.828   1.011   4.989
32311W        W 5379  37.913  32.524  12.626
32312W        W 5380  39.175   9.727   2.864
32313W        W 5381   7.671  12.086  11.661
32314W        W 5382  36.557  25.880  13.066
32315W        W 5383  24.314  19.531   4.600
32316W        W 5384   5.716  26.099  14.595
32317W        W 5385  20.683  43.564   9.843
32318W        W 5386  43.928  35.819   3.741
32319W        W 5387  31.529  27.114   0.888
32320W        W 5388  24.508  43.323  10.718
32321W        W 5389  27.693  36.968  12.517
32322W        W 5390  19.190  16.196   1.146
32323W        W 5391  38.838  39.515  10.973
32324W        W 5392  24.659  28.542   1.737
32325W        W 5393  17.553  28.908  11.878
32326W        W 5394  43.220  15.727   4.579
32327W        W 5395  13.200   8.847  13.047
32328W        W 5396  44.053  18.353   2.855
32329W        W 5397  30.605  25.132   3.760
32330W        W 5398  19.194  32.623  14.963
32331W        W 5399  33.079  25.761  13.531
32332W        W 5400  39.436   8.315  14.483
32333W        W 5401  12.672  18.169  13.799
32334W        W 5402   1.305  23.745  11.103
32335W        W 5403  12.217  18.232  10.255
32336W        W 5404  22.565  20.617   1.665
32337W        W 5405   5.631  32.957   4.793
32338W        W 5406  11.961   0.393   2.968
32339W        W 5407  37.858  14.744   0.890
32340W        W 5408  43.344  39.953   2.244
32341W        W 5409  34.924  29.436   3.761
32342W        W 5410  33.476  11.611  11.588
32343W        W 5411  32.579   7.875  14.283
32344W        W 5412  35.099   3.461  12.615
32345W        W 5413  33.369  19.450  11.191
32346W        W 5414  22.004  24.815  13.377
32347W        W 5415   4.926  43.881   0.969
32348W        W 5416  26.981  11.143   4.164
32349W        W 5417  44.557  25.554  12.425
32350W        W 5418   0.246  41.063   2.321
32351W        W 5419   6.253  27.932   1.272
32352W        W 5420  34.336  13.174   3.772
32353W        W 5421   1.707   2.324   3.142
32354W        W 5422   2.502  34.660   2.817
32355W        W 5423   4.341  17.685  12.140
32356W        W 5424  40.491   9.238  11.406
32357W        W 5425  33.353  26.987  13.076
32358W        W 5426  24.763   2.850  11.061
32359W        W 5427  18.622   1.448  13.008
32360W        W 5428   8.726  16.093   0.511
32361W        W 5429  28.005  41.907  12.994
32362W        W 5430  22.015  26.534   2.212
32363W        W 5431  43.570  25.120   4.149
32364W        W 5432  17.669  36.135  12.565
32365W        W 5433  15.706  34.449   4.905
32366W        W 5434  42.236  33.372   1.637
32367W        W 5435  34.486  10.610  12.929
32368W        W 5436  24.573   3.213  11.596
32369W        W 5437  28.282  35.614  10.280
32370W        W 5438  18.186  33.968   4.583
32371W        W 5439  35.503  40.291  12.903
32372W        W 5440  32.468  33.164   2.238
32373W        W 5441  27.072  17.884  14.187
32374W        W 5442  15.272   5.950  14.404
32375W        W 5443  42.388   1.846   3.606
32376W        W 5444  21.856  33.505   3.252
32377W        W 5445  39.871  36.374   4.867
32378W        W 5446  34.550   1.053  11.891
32379W        W 5447  30.118  22.479   0.289
32380W        W 5448   6.470   7.829   3.723
32381W        W 5449  31.108  39.814   1.300
32382W        W 5450   2.477  21.486  13.221
32383W        W 5451  18.703  27.192   0.015
32384W        W 5452  38.504  33.372  12.091
32385W        W 5453  32.902  20.833   2.352
32386W        W 5454  25.241  38.850   1.447
32387W        W 5455  28.213  34.058   3.481
32388W        W 5456  38.538  20.708  10.717
32389W        W 5457  18.477  44.005  10.473
32390W        W 5458  30.034  37.636  14.528
32391W        W 5459  14.385  19.755  12.005
32392W        W 5460  17.143  36.401   4.852
32393W        W 5461   0.906  38.741   2.223
32394W        W 5462   4.634  15.750  12.149
32395W        W 5463  14.301   3.390  11.195
32396W        W 5464  44.329   1.869   4.220
32397W        W 5465  27.553  12.125  12.019
32398W        W 5466  10.246  15.102   2.884
32399W        W 5467  18.156  40.565  14.483
32400W        W 5468  29.099  18.102  13.399
32401W        W 5469  22.360  27.918   4.237
32402W        W 5470  22.111  35.346  11.510
32403W        W 5471  44.983   3.253   0.230
32404W        W 5472  39.389  28.460  12.538
32405W        W 5473  32.950  43.958  12.520
32406W        W 5474   7.970  24.897  11.685
32407W        W 5475  42.922  41.139  12.477
32408W        W 5476  22.995  30.878  13.334
32409W        W 5477  14.581  20.093   4.040
32410W        W 5478  18.686   7.795  12.872
32411W        W 5479   6.636   7.993  11.354
32412W        W 5480  30.165  13.906  13.858
32413W        W 5481  40.546  11.620   1.847
32414W        W 5482  18.080  36.365  10.767
32415W        W 5483  23.181   9.504   2.237
32416W        W 5484   5.892   2.626  11.088
32417W        W 5485   8.409  17.704   4.857
32418W        W 5486  26.793  27.670  10.214
32419W        W 5487  15.103  21.263   2.258
32420W        W 5488  31.102  22.594   2.844
32421W        W 5489  24.264  12.583   2.385
32422W        W 5490  36.705  23.690  11.964
32423W        W 5491  35.791  36.482  14.754
32424W        W 5492  39.498   5.863  14.300
32425W        W 5493  40.039   7.670  14.226
32426W        W 5494  26.435  12.245   0.862
32427W        W 5495  44.497   1.337  11.676
32428W        W 5496  14.265  14.100  12.823
32429W        W 5497   7.116  16.900  12.798
32430W        W 5498  27.668  37.299  14.752
32431W        W 5499  11.300  41.637   2.894
32432W        W 5500  27.764  33.396  13.003
32433W        W 5501  14.171   2.439  14.481
32434W        W 5502   5.865  38.313   0.851
32435W        W 5503   3.168  33.078  11.130
32436W        W 5504   9.355   5.476  11.127
32437W        W 5505   6.834  11.977   3.673
32438W        W 5506  29.470  25.515   3.224
32439W        W 5507  39.646  18.006   3.728
32440W        W 5508  38.389  41.744   4.487
32441W        W 5509   3.936   4.875   3.888
32442W        W 5510  39.220  34.499  12.257
32443W        W 5511  44.494  17.302   0.443
32444W        W 5512  31.823  42.423  14.893
32445W        W 5513   1.804  30.143  14.086
32446W        W 5514   7.755  33.348  14.067
32447W        W 5515  13.209  10.768   4.124
32448W        W 5516  30.500   1.283  12.046
32449W        W 5517  33.337  22.923   0.939
32450W        W 5518   5.768  32.435   4.699
32451W        W 5519  11.769  33.678  14.469
32452W        W 5520  14.017  23.172  12.501
32453W        W 5521  16.045   3.111  13.055
32454W        W 5522   2.287  38.854  13.739
32455W        W 5523  17.622  26.006   0.475
32456W        W 5524  18.803  21.513  11.580
32457W        W 5525  17.738  20.090   1.658
32458W        W 5526  36.219  12.084  13.059
32459W        W 5527  43.918  40.237   4.258
32460W        W 5528  34.102  44.268   1.272
32461W        W 5529  21.583   7.239   2.673
32462W        W 5530  43.577  32.230   3.682
32463W        W 5531  19.152   6.447  14.869
32464W        W 5532  27.039  32.865   2.235
32465W        W 5533  23.016  37.081  12.021
32466W        W 5534   5.936  38.798   3.915
32467W        W 5535  33.079  19.084   2.830
32468W        W 5536  16.619   9.745  12.314
32469W        W 5537  25.564  12.125   0.218
32470W        W 5538  41.048   2.399  14.321
32471W        W 5539   0.208  24.763  14.825
32472W        W 5540  40.317  38.319  14.405
32473W        W 5541   1.958  15.223   0.403
32474W        W 5542  23.195   6.347  12.491
32475W        W 5543  19.409  43.728  13.816
32476W        W 5544  34.929  13.213   3.641
32477W        W 5545  36.984   5.479   2.238
32478W        W 5546  29.451  20.694   0.259
32479W        W 5547  44.208  18.192  11.636
32480W        W 5548  28.886  17.064  14.311
32481W        W 5549  36.577   3.902   1.849
32482W        W 5550   3.516  43.412  12.001
32483W        W 5551  40.837  44.465   0.953
32484W        W 5552   6.803   1.498   2.316
32485W        W 5553  39.858  35.566  11.964
32486W        W 5554  16.127  39.474   0.236
32487W        W 5555   2.272  42.784  14.141
32488W        W 5556  17.651   6.658   2.106
32489W        W 5557  41.431  38.999  11.588
32490W        W 5558   6.114   5.144  11.034
32491W        W 5559  42.990  16.781  13.025
32492W        W 5560  35.015  29.968  10.993
32493W        W 5561  26.550  43.810  11.120
32494W        W 5562  38.256  12.694  12.377
32495W        W 5563   6.373   6.419  14.173
32496W        W 5564  41.381  10.947   0.892
32497W        W 5565   7.887   3.333  14.578
32498W        W 5566  31.491  13.764   4.919
32499W        W 5567   0.994  35.262   4.558
32500W        W 5568  43.676  34.477  12.997
32501W        W 5569  35.204  16.045  11.941
32502W        W 5570  30.031  33.369   1.451
32503W        W 5571  20.701  30.945  11.339
32504W        W 5572  16.275  38.537   0.758
32505W        W 5573  17.542  22.171   1.326
32506W        W 5574   8.668   3.300   2.248
32507W        W 5575  41.031  37.301  10.776
32508W        W 5576  38.319  11.578   0.206
32509W        W 5577   2.101   2.740  13.136
32510W        W 5578  39.838  18.837   0.977
32511W        W 5579  38.208  24.099  11.014
32512W        W 5580   1.405  22.096   1.344
32513W        W 5581  24.047  25.682   0.545
32514W        W 5582  19.560   5.649  12.603
32515W        W 5583  39.567  13.263  12.663
32516W        W 5584  36.937  37.205   3.716
32517W        W 5585   7.195   8.782   0.760
32518W        W 5586  39.546  37.492  13.058
32519W        W 5587   9.718  42.370   4.414
32520W        W 5588  14.833   1.490  12.088
32521W        W 5589  24.988  11.483  12.264
32522W        W 5590  24.592  19.668   2.003
32523W        W 5591  31.610  32.123   1.438
32524W        W 5592  41.533  33.932   1.247
32525W        W 5593  26.504  17.495   1.737
32526W        W 5594  40.429  10.937  14.095
32527W        W 5595  25.204  23.266   3.223
32528W        W 5596  36.425  32.219   0.175
32529W        W 5597  23.606   4.322   3.570
32530W        W 5598  10.105  24.647   4.230
32531W        W 5599  15.379  12.837  14.906
32532W        W 5600  11.947   9.602  13.449
32533W        W 5601  14.249  35.844  11.649
32534W        W 5602  41.871   5.034   5.038
32535W        W 5603   7.338  28.681   4.252
32536W        W 5604  40.990  43.219  12.417
32537W        W 5605  12.775  44.219   4.245
32538W        W 5606  32.223   7.205  14.421
32539W        W 5607  18.267  20.205  13.581
32540W        W 5608  39.291  28.167   4.219
32541W        W 5609  31.482  20.136   0.706
32542W        W 5610   1.338  20.273   3.704
32543W        W 5611  43.373  12.385   4.179
32544W        W 5612  28.300  32.982   1.359
32545W        W 5613   6.195   5.039   0.183
32546W        W 5614  37.798  23.328   2.733
32547W        W 5615  11.398   6.654   0.733
32548W        W 5616   2.519  13.812   2.749
32549W        W 5617  37.937  36.703   2.278
32550W        W 5618  40.130  43.989   3.652
32551W        W 5619  28.375  11.852   3.380
32552W        W 5620  30.166  16.824  12.012
32553W        W 5621   3.821  39.312  11.234
32554W        W 5622   4.277  34.321   9.829
32555W        W 5623  38.530  41.094  12.487
32556W        W 5624  38.286   4.614   0.398
32557W        W 5625   2.506   2.372  11.571
32558W        W 5626  25.436   3.556  13.796
32559W        W 5627  37.487   1.746   0.414
32560W        W 5628  10.961   3.001  12.369
32561W        W 5629  25.004  23.379  13.736
32562W        W 5630  11.723   5.440   3.765
32563W        W 5631  44.940  20.085   3.804
32564W        W 5632   0.638   8.807  11.370
32565W        W 5633   6.760  34.102   2.205
32566W        W 5634   9.291  30.161  13.554
32567W        W 5635  14.685  25.016   0.983
32568W        W 5636   7.224   3.913  11.570
32569W        W 5637  41.505   9.175  14.605
32570W        W 5638   7.904  18.672   3.281
32571W        W 5639   9.136  15.362  13.939
32572W        W 5640   4.076  13.732  13.932
32573W        W 5641  27.450   6.121   1.312
32574W        W 5642  41.274  33.608   4.068
32575W        W 5643  16.532  23.444   1.911
32576W        W 5644   2.037  30.932   4.907
32577W        W 5645  14.844   4.615  11.511
32578W        W 5646  23.268  25.637   3.036
32579W        W 5647  29.004  33.488   2.954
32580W        W 5648  43.435  21.720   1.223
32581W        W 5649   5.901  33.883   0.071
32582W        W 5650  38.527  38.569  14.330
32583W        W 5651  44.990  12.852  13.894
32584W        W 5652   7.301  18.495   3.725
32585W        W 5653  10.962  35.326  13.961
32586W        W 5654  11.858  19.162  10.637
32587W        W 5655  29.545  18.563   3.275
32588W        W 5656  39.535   6.729  12.900
32589W        W 5657  33.503  35.903   4.394
32590W        W 5658  25.013  30.526  10.946
32591W        W 5659  13.330  22.233  10.446
32592W        W 5660  36.809  19.657   4.578
32593W        W 5661  28.584  41.986   3.672
32594W        W 5662   0.166  24.848   4.155
32595W        W 5663  27.405  36.368  12.874
32596W        W 5664  26.016  43.402   3.433
32597W        W 5665  19.554  17.275  10.576
32598W        W 5666  14.863   1.267   2.656
32599W        W 5667  30.635  17.664  10.921
32600W        W 5668   3.683  44.764   0.760
32601W        W 5669   0.557  26.932  12.834
32602W        W 5670  29.690  11.859  10.970
32603W        W 5671  25.470  31.454   2.839
32604W        W 5672  30.230  44.772  14.640
32605W        W 5673  22.982  24.657   1.834
32606W        W 5674  33.681  14.339  14.851
32607W        W 5675  31.439  21.019   1.772
32608W        W 5676  36.658  40.322  10.577
32609W        W 5677  10.352   2.843   0.530
32610W        W 5678   7.561   7.249   0.807
32611W        W 5679  18.551  42.066   1.728
32612W        W 5680  34.875  13.274   0.525
32613W        W 5681  43.518  25.656   1.697
32614W        W 5682  23.180  15.127   4.898
32615W        W 5683  30.554  41.412   3.617
32616W        W 5684  40.504   9.030   4.208
32617W        W 5685  37.956  39.440   1.471
32618W        W 5686  43.832  11.152  12.581
32619W        W 5687  24.572  36.500  12.683
32620W        W 5688  19.808  34.015  11.480
32621W        W 5689  11.596   4.739   3.064
32622W        W 5690  23.607   8.149   3.704
32623W        W 5691  33.382   4.733   3.553
32624W        W 5692  20.560  21.321   0.910
32625W        W 5693  40.914  43.953   1.094
32626W        W 5694  21.487  35.232  10.721
32627W        W 5695  14.592  43.781  11.473
32628W        W 5696  12.337  29.985  11.649
32629W        W 5697  21.247  27.661   1.729
32630W        W 5698  22.133  11.835   0.384
32631W        W 5699  27.356  15.117   3.535
32632W        W 5700  24.311   3.422   1.950
32633W        W 5701  42.715  28.918   0.211
32634W        W 5702  26.649  33.722  10.663
32635W        W 5703   3.587   8.129  11.144
32636W        W 5704   7.822  32.543   2.267
32637W        W 5705   2.948  26.988  13.936
32638W        W 5706  22.554  11.599  12.935
32639W        W 5707  23.974  31.059  10.781
32640W        W 5708  42.612   2.223  11.157
32641W        W 5709  36.577  22.959   3.198
32642W        W 5710  11.771   7.811  14.218
32643W        W 5711  30.635   2.122  14.764
32644W        W 5712   5.527  27.574  11.973
32645W        W 5713  13.360  41.538  10.540
32646W        W 5714  34.567   5.557  14.053
32647W        W 5715  30.426  44.045   2.599
32648W        W 5716  32.602  44.746  14.412
32649W        W 5717  27.732  23.613  13.175
32650W        W 5718  34.745  41.208  12.093
32651W        W 5719  44.057  28.480  13.871
32652W        W 5720  10.682   7.448   5.039
32653W        W 5721   0.458   0.397   2.795
32654W        W 5722  16.053  17.940   4.190
32655W        W 5723  10.960  17.669   0.883
32656W        W 5724  29.844   2.240  11.161
32657W        W 5725  29.721  29.975  10.622
32658W        W 5726  21.742   8.585   2.115
32659W        W 5727   1.402  17.274   4.254
32660W        W 5728  29.745  23.256  13.784
32661W        W 5729  21.143  22.091  12.175
32662W        W 5730  32.540   0.203  12.323
32663W        W 5731  27.794  34.874  12.821
32664W        W 5732   7.313  22.545  13.003
32665W        W 5733   7.805  24.558  12.059
32666W        W 5734   8.884   8.880   0.960
32667W        W 5735  42.837  18.921  13.544
32668W        W 5736  35.299   1.522   2.685
32669W        W 5737  21.905   1.859  13.587
32670W        W 5738   6.501  19.480  14.861
32671W        W 5739  25.094  29.632   1.322
32672W        W 5740  38.775  17.408   3.399
32673W        W 5741  42.153  43.888  10.499
32674W        W 5742  39.462   5.846   5.543
32675W        W 5743  23.612  19.295  12.880
32676W        W 5744  42.789   5.412   2.355
32677W        W 5745  26.812  31.104   1.697
32678W        W 5746  14.084  23.034  14.312
32679W        W 5747   8.879  38.150   1.017
32680W        W 5748   3.305  17.510   2.802
32681W        W 5749  39.252  42.902   1.736
32682W        W 5750   2.204  22.187  14.671
32683W        W 5751  16.125  17.956  12.558
32684W        W 5752   9.681  23.237  12.982
32685W        W 5753   8.626  14.963  12.081
32686W        W 5754  15.347  10.300   2.336
32687W        W 5755  12.177  18.222   1.671
32688W        W 5756  38.565  37.431   3.421
32689W        W 5757  15.518   8.738   3.390
32690W        W 5758  29.341   9.398  13.934
32691W        W 5759  10.249  37.270  12.879
32692W        W 5760  20.819   0.494  12.518
32693W        W 5761   0.817  10.347  10.359
32694W        W 5762   7.810  22.624  14.497
32695W        W 5763  28.646   4.464   2.876
32696W        W 5764  38.976  32.401   4.191
32697W        W 5765  44.379  23.602  13.030
32698W        W 5766   3.428   8.883   0.897
32699W        W 5767  22.148   4.704   3.916
32700W        W 5768  11.403  33.594   3.417
32701W        W 5769  29.260  32.082   1.163
32702W        W 5770  40.417  32.621   3.826
32703W        W 5771  14.709   9.824   0.521
32704W        W 5772  39.664  27.999  13.837
32705W        W 5773   4.765   8.696  11.644
32706W        W 5774  31.211   2.903   3.816
32707W        W 5775  24.700  27.549   1.703
32708W        W 5776  26.559   0.423  11.566
32709W        W 5777  36.884  27.736  12.965
32710W        W 5778   7.631   3.650   3.402
32711W        W 5779  42.525   4.288   1.910
32712W        W 5780  34.304  25.231   4.404
32713W        W 5781   6.890  31.001   3.261
32714W        W 5782  19.085  39.775  12.626
32715W        W 5783  31.097   0.680  12.961
32716W        W 5784   3.164   8.431   0.896
32717W        W 5785   7.894   9.223  13.454
32718W        W 5786  30.406  13.644   1.824
32719W        W 5787   7.828  19.973   0.200
32720W        W 5788  24.407  17.172  13.398
32721W        W 5789  35.163  26.804  12.425
32722W        W 5790  12.695  20.056   0.008
32723W        W 5791  34.495  32.138  14.462
32724W        W 5792  22.252  10.385  11.513
32725W        W 5793  44.834  44.761  13.229
32726W        W 5794  24.172  14.666   2.402
32727W        W 5795  14.069  35.879   0.686
32728W        W 5796   1.356  43.031  12.532
32729W        W 5797  12.640  16.769   5.556
32730W        W 5798   8.791   7.948   0.998
32731W        W 5799  44.779  11.722  13.388
32732W        W 5800   1.100  22.938  11.126
32733W        W 5801  17.261  37.901   4.501
32734W        W 5802  25.593  41.357   0.955
32735W        W 5803  36.870  16.748   4.682
32736W        W 5804  35.461  35.558   3.864
32737W        W 5805  30.188  24.710   2.171
32738W        W 5806   8.398  10.199   0.722
32739W        W 5807  32.007  32.102  13.269
32740W        W 5808  24.230  26.478  11.505
32741W        W 5809  17.215  24.996  11.532
32742W        W 5810  20.304  19.868   2.204
32743W        W 5811  33.691  13.212   4.602
32744W        W 5812   8.184  32.070  10.749
32745W        W 5813  43.726  20.974  10.649
32746W        W 5814  16.632  23.739  13.299
32747W        W 5815  23.034  22.730  11.749
32748W        W 5816   8.109  37.964   3.771
32749W        W 5817  12.357  19.181  14.062
32750W        W 5818  34.231  42.907  12.993
32751W        W 5819  20.584  26.614   2.307
32752W        W 5820  32.903  11.813  12.421
32753W        W 5821  17.297  22.982  10.949
32754W        W 5822  24.775  11.792   3.156
32755W        W 5823  14.791  25.136   0.435
32756W        W 5824  14.068  42.685  13.372
32757W        W 5825   8.246  13.355   4.644
32758W        W 5826  18.067   2.900  13.205
32759W        W 5827  30.860  29.495  14.931
32760W        W 5828  37.002  34.446  14.983
32761W        W 5829  23.945  12.817   1.497
32762W        W 5830  15.043   5.844  14.903
32763W        W 5831  44.516   0.215  14.887
32764W        W 5832  21.784  14.892  14.473
32765W        W 5833  25.980  27.725  12.060
32766W        W 5834  41.844  25.583  12.607
32767W        W 5835  29.858  41.163  12.102
32768W        W 5836  20.738   5.669   4.180
32769W        W 5837   7.884   2.534   4.835
32770W        W 5838   2.361  33.670   2.328
32771W        W 5839  34.882  18.035   0.440
32772W        W 5840  27.230  42.404   3.160
32773W        W 5841   1.425   1.160  11.242
32774W        W 5842  39.028  20.791   5.104
32775W        W 5843  29.862  27.711  14.693
32776W        W 5844  44.080  25.964  11.187
32777W        W 5845  35.384   0.793   1.816
32778W        W 5846  43.860   4.649  13.261
32779W        W 5847  41.928  37.460  11.979
32780W        W 5848  42.072   7.830   0.881
32781W        W 5849   8.133  11.883   1.847
32782W        W 5850  17.773  19.005  11.194
32783W        W 5851  17.341  10.182  10.728
32784W        W 5852  22.023  14.737  10.442
32785W        W 5853  38.823   0.879   5.021
32786W        W 5854  24.253  25.584   3.145
32787W        W 5855  16.786  13.409   3.845
32788W        W 5856  12.652  11.188  10.593
32789W        W 5857  38.838   4.208   4.121
32790W        W 5858  41.178  30.813  11.239
32791W        W 5859  41.200  26.128  14.522
32792W        W 5860  44.507  22.082  14.106
32793W        W 5861  36.312  40.104   4.872
32794W        W 5862  11.795  21.005  10.726
32795W        W 5863  15.335   4.264   0.514
32796W        W 5864   3.469   2.923   0.828
32797W        W 5865  14.139   9.646  11.140
32798W        W 5866  19.229  13.945   1.771
32799W        W 5867  25.551   9.745   5.447
32800W        W 5868  23.371  39.767  11.023
32801W        W 5869  32.697  17.599   0.923
32802W        W 5870  28.990  10.455  13.364
32803W        W 5871  18.004  15.054   3.676
32804W        W 5872  29.158   7.130  14.866
32805W        W 5873  38.922  27.485  10.060
32806W        W 5874  44.043   5.204   4.533
32807W        W 5875   1.740   1.200   1.201
32808W        W 5876  11.364   4.175  13.411
32809W        W 5877   9.773   4.160   0.002
32810W        W 5878   8.499  20.164  13.142
32811W        W 5879  19.595  44.823   0.796
32812W        W 5880  12.597   1.894  13.531
32813W        W 5881  41.555  21.253   3.793
32814W        W 5882  42.941  44.512   2.875
32815W        W 5883  38.062   8.230   2.438
32816W        W 5884   9.109  38.905   0.478
32817W        W 5885  19.669  43.078   0.346
32818W        W 5886  42.467  16.813  12.936
32819W        W 5887  34.127  20.728   0.727
32820W        W 5888  20.734  12.579  11.236
32821W        W 5889  12.786   3.887   3.845
32822W        W 5890  42.031  43.302   0.458
32823W        W 5891  38.087   3.183   0.985
32824W        W 5892  13.661  42.654   1.487
32825W        W 5893  10.891  34.397   1.675
32826W        W 5894  21.915  12.887  12.431
32827W        W 5895  35.771  36.878  11.469
32828W        W 5896  21.560  31.850  14.276
32829W        W 5897  43.261  17.174  14.062
32830W        W 5898  34.380   4.989   2.633
32831W        W 5899   9.418  13.414  12.425
32832W        W 5900   0.766   1.824  14.905
32833W        W 5901  26.822  42.472  10.672
32834W        W 5902  25.541  27.452   0.780
32835W        W 5903   6.459   4.961  14.019
32836W        W 5904   7.171   2.877   2.728
32837W        W 5905   5.837  29.939  10.486
32838W        W 5906  28.895   2.320   3.401
32839W        W 5907   1.427   5.167   3.164
32840W        W 5908  42.341   9.946   2.654
32841W        W 5909   8.738  20.245  12.465
32842W        W 5910  25.096  39.485  14.403
32843W        W 5911  43.459  32.690   0.311
32844W        W 5912  42.298   9.222   4.092
32845W        W 5913  13.655  26.903   1.879
32846W        W 5914  19.273  12.154   1.687
32847W        W 5915  23.496  31.536   0.765
32848W        W 5916  10.271  15.726   3.088
32849W        W 5917  35.073  40.918   4.898
32850W        W 5918  10.734   6.151  12.003
32851W        W 5919  43.003   1.931   3.165
32852W        W 5920   2.910  15.780  12.979
32853W        W 5921  24.629  28.203  13.419
32854W        W 5922   5.222  37.524   3.867
32855W        W 5923  32.640   8.674  12.055
32856W        W 5924  22.937  29.853  13.480
32857W        W 5925  26.385  33.982  12.024
32858W        W 5926  25.176  26.056  12.291
32859W        W 5927  24.953   8.426  11.177
32860W        W 5928  41.864  24.425   0.735
32861W        W 5929  14.682  10.647   1.708
32862W        W 5930   8.780   5.594  11.135
32863W        W 5931  38.420  25.643   0.145
32864W        W 5932  17.702  28.422   3.273
32865W        W 5933  13.830  26.725   2.799
32866W        W 5934  29.120  16.327   4.517
32867W        W 5935  34.089  38.421  11.105
32868W        W 5936  43.526  22.237   3.204
32869W        W 5937   1.808  11.191   0.222
32870W        W 5938  40.516   1.166  12.970
32871W        W 5939  35.510  26.045  12.644
32872W        W 5940   5.264  36.515  11.184
32873W        W 5941  40.731   7.455  10.695
32874W        W 5942  39.976  30.970   0.684
32875W        W 5943  34.492  14.783   3.985
32876W        W 5944   4.292   1.460   0.306
32877W        W 5945  22.618  23.467  12.122
32878W        W 5946   6.350  10.828   0.030
32879W        W 5947   4.906  32.210  12.289
32880W        W 5948  36.437  27.552   3.619
32881W        W 5949  22.498  19.758   2.008
32882W        W 5950  26.592  17.771   2.719
32883W        W 5951  16.205  24.114   2.436
32884W        W 5952  12.087  12.155   0.854
32885W        W 5953  21.148  18.997  13.605
32886W        W 5954  35.215  16.634  14.811
32887W        W 5955  15.055  40.992  11.953
32888W        W 5956  18.297  36.980   1.325
32889W        W 5957  30.196  30.425   3.686
32890W        W 5958  14.747  37.958   2.587
32891W        W 5959  23.090  31.375  13.460
32892W        W 5960  28.393  14.926  11.764
32893W        W 5961  22.200   6.215   2.965
32894W        W 5962  30.080  34.833   4.149
32895W        W 5963  12.669   6.614  10.802
32896W        W 5964   6.403  35.023  12.869
32897W        W 5965  38.071  14.245  14.828
32898W        W 5966  37.165  44.241   2.692
32899W        W 5967  36.965  36.974   3.234
32900W        W 5968  32.506  25.332   2.985
32901W        W 5969  36.125  11.303   0.690
32902W        W 5970  22.073  33.928  12.042
32903W        W 5971  34.187  23.650   4.458
32904W        W 5972  17.337  26.086   2.251
32905W        W 5973  30.439  33.878   2.741
32906W        W 5974  42.407  10.126  11.048
32907W        W 5975  19.707   5.795   2.367
32908W        W 5976   8.653  41.284  13.801
32909W        W 5977  41.588  27.978  13.525
32910W        W 5978   6.632  30.614  13.848
32911W        W 5979  12.068  42.788   4.348
32912W        W 5980  26.928  36.394  10.694
32913W        W 5981  31.477  18.007   1.651
32914W        W 5982  42.304  12.900   1.901
32915W        W 5983  12.378  27.113   4.582
32916W        W 5984  39.323  42.484   2.988
32917W        W 5985   9.315  22.774   2.831
32918W        W 5986   1.007  22.177  12.105
32919W        W 5987  24.610   3.509  12.555
32920W        W 5988  38.528  42.834  11.206
32921W        W 5989  11.217  37.860   4.865
32922W        W 5990   9.257   0.242  12.513
32923W        W 5991  30.904  12.596   2.206
32924W        W 5992  42.388  38.906  10.572
32925W        W 5993  27.213   4.855  13.801
32926W        W 5994  10.742  22.052   4.826
32927W        W 5995  40.603  10.224   3.652
32928W        W 5996   5.219  29.669  13.018
32929W        W 5997  14.516  24.481  11.169
32930W        W 5998  10.174  21.128   1.797
32931W        W 5999  31.651  12.640   3.195
32932W        W 6000  28.176  43.425   4.509
32933W        W 6001  34.769  19.004   1.430
32934W        W 6002  27.102  24.947  13.447
32935W        W 6003  11.076  34.729  13.216
32936W        W 6004   1.969   9.647  12.337
32937W        W 6005   2.229   4.580   2.320
32938W        W 6006  41.173  13.374  10.768
32939W        W 6007  15.318   5.689   1.797
32940W        W 6008   5.220   8.745   1.237
32941W        W 6009  20.156  38.982   0.811
32942W        W 6010  17.155   4.709   4.613
32943W        W 6011  40.425  31.806  10.539
32944W        W 6012  28.404  12.296  14.799
32945W        W 6013  38.538  17.836  11.985
32946W        W 6014  31.425   3.436  11.900
32947W        W 6015  38.636  34.081   3.846
32948W        W 6016  39.582  29.192   1.156
32949W        W 6017  15.744  34.155  13.327
32950W        W 6018  30.152  39.602   1.949
32951W        W 6019  17.657   6.380   3.087
32952W        W 6020  11.245  11.221   2.375
32953W        W 6021  27.413   4.308  13.048
32954W        W 6022  25.951  30.541  11.457
32955W        W 6023   1.357  16.075  14.373
32956W        W 6024  11.385  17.038  13.425
32957W        W 6025  34.988  32.478  11.637
32958W        W 6026  26.532  43.525  13.471
32959W        W 6027  38.122  10.622  13.324
32960W        W 6028  17.242  19.732   4.566
32961W        W 6029  34.468   5.842   1.330
32962W        W 6030  44.389   1.690   0.741
32963W        W 6031  34.418  37.388   4.636
32964W        W 6032  37.120   4.428   2.567
32965W        W 6033  13.230   3.787   1.856
32966W        W 6034   8.553  23.838  10.315
32967W        W 6035  26.232  13.059  14.440
32968W        W 6036  18.779  25.307  12.549
32969W        W 6037  31.488  43.852   3.513
32970W        W 6038  17.844   9.320   1.318
32971W        W 6039  24.030  35.481  13.868
32972W        W 6040  19.204  37.564  14.018
32973W        W 6041  42.377  44.219   0.269
32974W        W 6042   3.715  26.673  13.455
32975W        W 6043   6.939  22.614  12.609
32976W        W 6044  11.680  31.215  12.442
32977W        W 6045  21.841  31.002   3.190
32978W        W 6046  16.145  26.037  12.000
32979W        W 6047  17.744  40.408   0.434
32980W        W 6048  32.986  19.716   5.005
32981W        W 6049  40.908   2.453   1.692
32982W        W 6050   5.761  34.028   2.449
32983W        W 6051   2.709   5.333  13.556
32984W        W 6052  13.389  35.880   4.592
32985W        W 6053  32.970  14.163   0.357
32986W        W 6054  43.872   1.859   3.483
32987W        W 6055  23.095   2.695  14.782
32988W        W 6056  20.942   6.968  11.432
32989W        W 6057  34.247  26.491  12.517
32990W        W 6058  34.826   0.532   0.648
32991W        W 6059   5.973   4.374  10.669
32992W        W 6060   1.320  11.665   4.448
32993W        W 6061  40.509  35.523  14.767
32994W        W 6062  26.151  42.949  12.366
32995W        W 6063  41.254  10.677   0.460
32996W        W 6064  23.032  24.098  13.999
32997W        W 6065   3.798  11.074  12.896
32998W        W 6066   7.958  14.939   2.557
32999W        W 6067  26.656   8.127   3.130
33000W        W 6068  32.986   7.415  13.143
33001W        W 6069  15.153  24.020  10.715
33002W        W 6070  26.596  32.968  10.264
33003W        W 6071  43.990   8.378  13.755
33004W        W 6072  11.234  21.164   1.659
33005W        W 6073  31.075  39.549   0.848
33006W        W 6074  30.338  25.178   1.223
33007W        W 6075  25.480  30.623  11.656
33008W        W 6076  34.462  41.996  13.920
33009W        W 6077   2.278   7.274  11.119
33010W        W 6078  16.684  24.645   4.532
33011W        W 6079  14.018  35.878  12.979
33012W        W 6080  29.513  12.382  12.812
33013W        W 6081  22.551  40.537   2.160
33014W        W 6082  23.230  44.783   4.412
33015W        W 6083   2.342  18.099  10.430
33016W        W 6084  17.603  32.302   1.967
33017W        W 6085  10.344  31.909   1.834
33018W        W 6086  27.558   8.168   3.618
33019W        W 6087  11.745  34.698   2.078
33020W        W 6088   9.357   2.101  14.781
33021W        W 6089  38.889  32.230   0.959
33022W        W 6090   6.225  17.039   2.753
33023W        W 6091  10.265  30.573  14.031
33024W        W 6092  33.984  40.828   3.740
33025W        W 6093  22.171  33.680  14.284
33026W        W 6094  38.980  15.803   2.749
33027W        W 6095  12.048  39.341   4.766
33028W        W 6096  27.424  31.402   0.239
33029W        W 6097   4.675  19.920  14.418
33030W        W 6098  37.935  24.081  13.407
33031W        W 6099   4.286   5.250  13.011
33032W        W 6100  40.069  15.548   4.120
33033W        W 6101   5.130   9.933  11.843
33034W        W 6102  18.638  10.024   3.401
33035W        W 6103  27.643  42.945  11.951
33036W        W 6104  28.559  43.369   0.495
33037W        W 6105   2.026  21.592  11.521
33038W        W 6106  12.254  10.227  11.547
33039W        W 6107  18.738  38.339   2.926
33040W        W 6108  32.943   1.251   3.846
33041W        W 6109  32.163   2.235   4.157
33042W        W 6110  17.097   5.475  14.011
33043W        W 6111   3.715  37.832   0.263
33044W        W 6112  34.065  44.708   2.273
33045W        W 6113  39.007  17.596  11.949
33046W        W 6114  25.743  39.749  14.928
33047W        W 6115  15.318   2.385   3.185
33048W        W 6116  27.790  34.411  13.087
33049W        W 6117  25.589  33.214   2.251
33050W        W 6118  14.603  16.789   0.017
33051W        W 6119   9.302   0.221  10.714
33052W        W 6120   7.308  32.610   4.682
33053W        W 6121  30.849  11.374  12.878
33054W        W 6122  10.654  42.906  14.274
33055W        W 6123  34.577  36.125   3.352
33056W        W 6124  33.346  38.839   5.059
33057W        W 6125   4.182   7.780  14.869
33058W        W 6126  42.801  20.500  13.441
33059W        W 6127  10.295  44.555  14.997
33060W        W 6128  10.152  41.025   1.020
33061W        W 6129  39.273  13.628  13.388
33062W        W 6130  30.798  26.149   3.248
33063W        W 6131  38.529  32.531   3.241
33064W        W 6132  26.012  27.242   0.930
33065W        W 6133  38.119   0.557  13.515
33066W        W 6134  19.432   5.378   1.413
33067W        W 6135  16.229  20.038   1.858
33068W        W 6136  12.221   0.657  11.468
33069W        W 6137   8.812  39.763   0.285
33070W        W 6138  33.832   2.918   4.795
33071W        W 6139  26.573  32.931   2.473
33072W        W 6140  28.425  10.817  13.505
33073W        W 6141  28.693   7.803  11.161
33074W        W 6142  36.242  37.431  12.216
33075W        W 6143   8.148   6.282   2.426
33076W        W 6144  29.283  25.182  14.544
33077W        W 6145  14.066  31.650   2.417
33078W        W 6146  22.132  33.082   3.449
33079W        W 6147  32.916  23.635  11.506
33080W        W 6148   5.134   1.341  11.629
33081W        W 6149  30.082   9.419  11.974
33082W        W 6150   3.165  33.983  12.636
33083W        W 6151  42.255  27.876  10.804
33084W        W 6152  30.542  29.930   3.193
33085W        W 6153  38.847  35.106   1.792
33086W        W 6154  34.597  39.180  14.203
33087W        W 6155  32.875  36.271   2.393
33088W        W 6156  12.619  25.242  12.453
33089W        W 6157   2.392  28.677  14.470
33090W        W 6158  32.476  37.547   2.372
33091W        W 6159  23.273  12.293  13.015
33092W        W 6160  32.301  30.366   2.635
33093W        W 6161  42.281   8.506   2.592
33094W        W 6162  32.842  15.573  10.668
33095W        W 6163  44.927  32.453   4.337
33096W        W 6164  12.899  18.765   0.406
33097W        W 6165  25.949  23.016   3.634
33098W        W 6166  35.917  40.516   2.430
33099W        W 6167  28.652  10.477   4.119
33100W        W 6168  30.110  41.036   1.849
33101W        W 6169  24.234  26.237  12.856
33102W        W 6170  21.108  10.992   0.187
33103W        W 6171  12.818  20.934   1.845
33104W        W 6172   7.133  25.211   3.929
33105W        W 6173  33.896  25.529   4.313
33106W        W 6174  22.681  17.471   2.725
33107W        W 6175  43.625   4.631  13.725
33108W        W 6176   3.122   2.651   4.784
33109W        W 6177   1.538  19.238   1.854
33110W        W 6178  17.487  43.205  14.879
33111W        W 6179  29.358   7.700   0.700
33112W        W 6180   7.909   8.762   1.023
33113W        W 6181  34.141  27.178  11.486
33114W        W 6182  23.812  15.701   3.819
33115W        W 6183  13.263  42.186  14.290
33116W        W 6184  10.589   2.771  12.132
33117W        W 6185  14.017  11.419  13.098
33118W        W 6186  20.946  33.191  11.699
33119W        W 6187  12.529  33.004   3.904
33120W        W 6188  10.711  38.339   3.107
33121W        W 6189   4.294  11.366   3.302
33122W        W 6190  32.471  26.380   3.212
33123W        W 6191  26.202  38.240   3.947
33124W        W 6192  19.111  39.005  11.517
33125W        W 6193  32.472  41.196   4.531
33126W        W 6194  27.502  22.855   4.236
33127W        W 6195  37.216  21.811   3.375
33128W        W 6196  21.289  26.054  14.035
33129W        W 6197  21.835  29.180   4.530
33130W        W 6198  11.436  41.820   2.430
33131W        W 6199   2.475  28.614  11.901
33132W        W 6200   0.886   4.261   4.722
33133W        W 6201   0.415  17.741  12.118
33134W        W 6202  44.040  11.078   2.361
33135W        W 6203  26.109  33.518  14.579
33136W        W 6204  24.408   0.450  11.725
33137W        W 6205  43.303  23.315   4.686
33138W        W 6206   2.442  13.606   4.023
33139W        W 6207   1.486   3.507   1.155
33140W        W 6208   1.287  44.863  13.474
33141W        W 6209  38.241  37.525   2.448
33142W        W 6210  40.714  39.875   4.759
33143W        W 6211  28.076  19.353  14.489
33144W        W 6212   5.663  29.623   0.003
33145W        W 6213   6.461  17.639  10.529
33146W        W 6214  35.912  29.137  11.671
33147W        W 6215  37.806  18.744   4.101
33148W        W 6216   2.996  23.478  12.160
33149W        W 6217  10.559  44.531  11.064
33150W        W 6218  19.636  20.762  12.970
33151W        W 6219   6.745  12.832   1.651
33152W        W 6220  11.865  15.190  13.524
33153W        W 6221   3.813  40.273  13.511
33154W        W 6222  40.739  39.336   2.742
33155W        W 6223  34.492  37.353   2.649
33156W        W 6224  36.983   1.667  11.094
33157W        W 6225  27.207  25.550  11.775
33158W        W 6226  38.830  21.708   4.690
33159W        W 6227  42.829  35.416  11.996
33160W        W 6228   9.915  17.788  13.021
33161W        W 6229  11.339  31.450   4.951
33162W        W 6230  23.055  33.286   1.078
33163W        W 6231  34.255  33.420  13.152
33164W        W 6232  38.077  20.685   3.682
33165W        W 6233   8.404  27.438   2.316
33166W        W 6234  14.063   0.543   3.626
33167W        W 6235  36.983   0.915   3.629
33168W        W 6236  21.664  23.543   3.724
33169W        W 6237  38.836   0.400   4.788
33170W        W 6238  44.421  25.598  12.939
33171W        W 6239  43.499  13.398   1.613
33172W        W 6240   9.305  28.372  12.969
33173W        W 6241  43.528   1.794   0.776
33174W        W 6242   7.700   6.742   0.820
33175W        W 6243  34.019  24.647   4.407
33176W        W 6244  24.942  19.033  13.887
33177W        W 6245  23.191  14.260   4.638
33178W        W 6246  28.647  41.959   3.172
33179W        W 6247  12.643   7.789   1.240
33180W        W 6248  37.386  11.031   3.615
33181W        W 6249  26.724  34.554   2.722
33182W        W 6250  20.592  18.171   1.225
33183W        W 6251  13.617  17.203  13.987
33184W        W 6252  28.122  15.322   1.023
33185W        W 6253  21.852  23.203   3.141
33186W        W 6254  27.731  12.876  12.819
33187W        W 6255  11.234   1.895   1.284
33188W        W 6256  17.245  23.561  10.383
33189W        W 6257  14.362   6.394  12.687
33190W        W 6258   6.645  40.972  12.502
33191W        W 6259  22.608   1.390  14.480
33192W        W 6260  19.310  10.482   0.991
33193W        W 6261  10.313  17.746  13.870
33194W        W 6262  16.662  25.959  13.933
33195W        W 6263  41.372  13.228  11.988
33196W        W 6264  27.047  14.275   0.879
33197W        W 6265  20.163   0.988   4.458
33198W        W 6266  36.542  34.987   0.546
33199W        W 6267   2.954  40.209  13.398
33200W        W 6268  17.657  19.138   0.345
33201W        W 6269   8.173  38.924   1.325
33202W        W 6270  44.253  10.186  12.897
33203W        W 6271  36.872  22.444   1.410
33204W        W 6272  17.578  18.134   3.389
33205W        W 6273   5.446  39.511   1.072
33206W        W 6274   2.146  40.596  12.558
33207W        W 6275  38.736  23.062  10.529
33208W        W 6276  28.707  10.181   0.787
33209W        W 6277  44.877   0.523  13.870
33210W        W 6278  44.741  24.118  10.224
33211W        W 6279  16.254  36.800  14.751
33212W        W 6280  28.610  11.484   9.994
33213W        W 6281  42.089  36.904  14.799
33214W        W 6282  17.677  15.289  12.556
33215W        W 6283   4.428  25.946   2.886
33216W        W 6284   3.467  24.202  14.824
33217W        W 6285  10.194  22.484   1.902
33218W        W 6286  16.375  35.925   2.672
33219W        W 6287  43.555  25.163  12.059
33220W        W 6288  26.221  43.076   1.189
33221W        W 6289  38.004  11.848  13.862
33222W        W 6290  40.411  28.178   0.208
33223W        W 6291  10.326   8.619   3.629
33224W        W 6292  24.967  18.852  10.740
33225W        W 6293  36.900   8.266   1.625
33226W        W 6294  17.483  43.819  14.838
33227W        W 6295   5.176  19.723  11.136
33228W        W 6296  25.543  32.564  13.522
33229W        W 6297   0.759  23.133   3.799
33230W        W 6298  35.500  31.697   1.889
33231W        W 6299  31.133   6.702   2.209
33232W        W 6300  31.368  29.529   0.285
33233W        W 6301  31.338  12.299   2.927
33234W        W 6302  27.074   8.402   4.904
33235W        W 6303  37.052  17.093   0.879
33236W        W 6304   4.666  29.145  12.339
33237W        W 6305  24.638  10.206  11.506
33238W        W 6306  37.438  19.296   0.777
33239W        W 6307   8.921   6.237  14.253
33240W        W 6308   7.794  30.890  10.643
33241W        W 6309  33.121  31.550  11.990
33242W        W 6310  23.746  40.843  12.351
33243W        W 6311  32.766  31.367  10.776
33244W        W 6312  38.095  37.015   2.693
33245W        W 6313  12.859   5.758  10.694
33246W        W 6314  43.648  11.981  10.699
33247W        W 6315  16.724  34.636  14.042
33248W        W 6316  43.505  31.792   2.346
33249W        W 6317  36.292   1.595  10.287
33250W        W 6318  25.941  15.738   0.514
33251W        W 6319  20.470  38.548  10.416
33252W        W 6320   4.133  25.936  12.511
33253W        W 6321   8.825   4.481  14.023
33254W        W 6322   8.711  18.708  14.316
33255W        W 6323  40.448  34.974  13.397
33256W        W 6324  28.680  15.135  11.379
33257W        W 6325   8.720   3.636   2.718
33258W        W 6326   3.126  11.915  12.472
33259W        W 6327  31.491  28.897  14.359
33260W        W 6328   1.238  34.038  11.989
33261W        W 6329  31.191  41.685   4.119
33262W        W 6330   5.955  44.670  12.045
33263W        W 6331  44.216  43.475   0.963
33264W        W 6332  12.614  16.551   4.569
33265W        W 6333  33.630  23.718   1.678
33266W        W 6334   0.929  29.382  11.529
33267W        W 6335  28.100  16.270   3.359
33268W        W 6336  13.823  34.560   2.842
33269W        W 6337   1.961   2.769   4.921
33270W        W 6338  12.895  24.168   1.267
33271W        W 6339   3.477   1.236   1.007
33272W        W 6340  36.095  37.430  13.677
33273W        W 6341  16.376  28.965  13.528
33274W        W 6342  44.948  21.638  12.423
33275W        W 6343  21.119   7.009   2.668
33276W        W 6344  32.764  15.110  11.357
33277W        W 6345  11.012  35.106  10.725
33278W        W 6346  20.682  36.159   4.878
33279W        W 6347  19.157   2.261  11.160
33280W        W 6348  21.532   5.905  10.378
33281W        W 6349  12.704  13.590   2.229
33282W        W 6350  39.742  19.613  13.837
33283W        W 6351  40.907  14.401   4.478
33284W        W 6352  12.399  38.480  13.447
33285W        W 6353   5.275  30.013   4.913
33286W        W 6354  27.087   8.285   0.827
33287W        W 6355  21.030   6.373  11.637
33288W        W 6356   0.229  38.328  12.809
33289W        W 6357  30.378  22.681  12.989
33290W        W 6358  37.982  10.851  11.173
33291W        W 6359  44.931   0.888  13.497
33292W        W 6360   8.489  14.678  10.607
33293W        W 6361  35.570  33.663  10.271
33294W        W 6362  31.669   5.904   3.766
33295W        W 6363  44.884  14.662  14.422
33296W        W 6364  44.367  28.681   3.833
33297W        W 6365  11.541  11.315   1.018
33298W        W 6366  39.905  42.093  12.971
33299W        W 6367  39.000   3.017   1.292
33300W        W 6368  26.534   4.162  14.569
33301W        W 6369   0.581   8.004  12.917
33302W        W 6370  15.563  31.139  12.022
33303W        W 6371   2.134  29.090   2.759
33304W        W 6372  12.236  30.380   0.129
33305W        W 6373  26.365  17.010  11.106
33306W        W 6374  23.677  11.726   1.992
33307W        W 6375  35.171   9.932   0.808
33308W        W 6376  30.042  11.027   0.542
33309W        W 6377  42.269  10.673   0.378
33310W        W 6378  20.799  44.246   0.375
33311W        W 6379   4.782   4.021  13.396
33312W        W 6380   3.515  26.212   2.284
33313W        W 6381   8.188  41.971  12.382
33314W        W 6382   9.540  33.437   4.389
33315W        W 6383  33.040  26.109  11.198
33316W        W 6384  40.450  21.134  14.272
33317W        W 6385   0.839  29.051   2.313
33318W        W 6386  10.746  42.033   0.786
33319W        W 6387  40.214  26.066  14.471
33320W        W 6388  17.585   6.404   2.577
33321W        W 6389  40.721  30.003  11.216
33322W        W 6390   1.300  18.858  13.434
33323W        W 6391  14.256   6.466   4.239
33324W        W 6392  11.270  28.686  14.869
33325W        W 6393  44.149   9.608   2.791
33326W        W 6394   7.117  41.703  14.893
33327W        W 6395  17.559  29.855  12.453
33328W        W 6396  27.860   1.978  13.438
33329W        W 6397  17.434   2.212   4.108
33330W        W 6398   8.272  19.215   4.855
33331W        W 6399  15.628  30.322   4.475
33332W        W 6400  35.021  36.352   0.728
33333W        W 6401  21.519  38.797  13.216
33334W        W 6402   9.357  24.370  13.004
33335W        W 6403  10.803  37.897  13.299
33336W        W 6404  13.470  36.673   2.847
33337W        W 6405  30.877   1.465  11.158
33338W        W 6406  32.124  37.906   0.338
33339W        W 6407  17.316  37.976   3.093
33340W        W 6408  18.202  15.342  14.828
33341W        W 6409  32.896  44.718  10.907
33342W        W 6410  12.110  19.766   0.282
33343W        W 6411  23.714   9.261  11.954
33344W        W 6412  44.038  13.322  12.425
33345W        W 6413   6.182  26.222  12.605
33346W        W 6414  10.804   5.228  14.054
33347W        W 6415  33.304  27.032  14.059
33348W        W 6416   7.729  28.111  11.132
33349W        W 6417   5.918  25.691   2.644
33350W        W 6418  26.192  43.019   2.623
33351W        W 6419  31.101  38.806  11.093
33352W        W 6420   9.310  23.232  11.976
33353W        W 6421  29.620  26.304   4.178
33354W        W 6422  44.857  42.086  11.617
33355W        W 6423  32.957   2.053  10.851
33356W        W 6424  42.959  17.171   0.439
33357W        W 6425  17.775   4.670  13.034
33358W        W 6426  15.072  10.268   3.293
33359W        W 6427  33.490  27.905   4.461
33360W        W 6428  20.056  23.462  14.773
33361W        W 6429  31.671  28.437  10.959
33362W        W 6430  41.378   4.932   0.901
33363W        W 6431  22.372  44.548   1.871
33364W        W 6432  39.525  29.264  11.465
33365W        W 6433  39.997   7.766   1.898
33366W        W 6434   7.123   0.420  13.871
33367W        W 6435   3.697   2.737   3.905
33368W        W 6436  28.247  16.486  11.039
33369W        W 6437  31.042  25.446   0.705
33370W        W 6438  20.438  36.585   0.852
33371W        W 6439  34.520   1.342   1.821
33372W        W 6440  22.259  30.581  10.952
33373W        W 6441  34.653   6.153  12.887
33374W        W 6442  10.627   8.678   3.186
33375W        W 6443  44.300  13.575  10.670
33376W        W 6444   4.333  20.063   4.571
33377W        W 6445  21.724   9.388   3.120
33378W        W 6446  31.620   6.082  14.949
33379W        W 6447  15.959  35.556   1.368
33380W        W 6448  32.145  30.649  14.403
33381W        W 6449  25.629  12.627   0.037
33382W        W 6450   8.907  23.028  13.946
33383W        W 6451  18.036   5.106  13.108
33384W        W 6452  36.079  13.843  14.364
33385W        W 6453  34.038  27.048  13.474
33386W        W 6454  37.393  42.800  13.440
33387W        W 6455   1.334  41.446  12.819
33388W        W 6456  26.706  26.767   2.408
33389W        W 6457   2.871  21.776  14.813
33390W        W 6458  41.288  41.311  13.114
33391W        W 6459  41.515  12.443   0.176
33392W        W 6460   4.753  36.385   3.756
33393W        W 6461   0.959  31.974  11.602
33394W        W 6462  23.669   9.736  13.901
33395W        W 6463  35.511  20.296   0.313
33396W        W 6464  24.609  20.976   3.529
33397W        W 6465   5.329  10.606  11.205
33398W        W 6466  19.293   3.354   2.774
33399W        W 6467  12.722  20.970   2.339
33400W        W 6468  23.964   5.265   2.377
33401W        W 6469   2.496   4.123   2.241
33402W        W 6470   7.309  12.290  14.757
33403W        W 6471  11.801  27.131  13.964
33404W        W 6472  29.239  37.080  11.587
33405W        W 6473  16.288  41.870  11.133
33406W        W 6474  25.999  41.555  13.503
33407W        W 6475  38.061  22.116  11.557
33408W        W 6476  44.855   3.240   3.148
33409W        W 6477  40.935  31.630  11.489
33410W        W 6478  20.458  44.428   3.200
33411W        W 6479  28.159  27.211   2.268
33412W        W 6480  11.596   1.362   1.761
33413W        W 6481   8.811  33.898   1.694
33414W        W 6482  32.912  22.202   3.650
33415W        W 6483  44.360   0.094   4.987
33416W        W 6484  12.144   2.237   1.816
33417W        W 6485  20.804  36.585   0.497
33418W        W 6486  19.517  27.621  12.370
33419W        W 6487   7.427  44.369   2.184
33420W        W 6488  38.907  21.545  11.578
33421W        W 6489  25.184  40.342   2.505
33422W        W 6490   8.005  43.979   1.943
33423W        W 6491  38.982   2.294  12.966
33424W        W 6492  33.502  12.107   2.753
33425W        W 6493  19.932   2.037  10.473
33426W        W 6494  20.680  31.227  13.399
33427W        W 6495  26.741   4.539   3.671
33428W        W 6496   4.703  29.702  11.084
33429W        W 6497  31.049  44.450   9.922
33430W        W 6498  15.796  23.221   0.753
33431W        W 6499   1.963  13.179  13.879
33432W        W 6500  36.104  12.860   0.314
33433W        W 6501  41.020  26.066   4.429
33434W        W 6502  22.345  21.032   0.469
33435W        W 6503  44.059  34.974   1.370
33436W        W 6504  10.343  34.385   0.275
33437W        W 6505   3.423   5.030   2.391
33438W        W 6506  27.294  19.832  14.179
33439W        W 6507  28.022  30.203   2.915
33440W        W 6508  31.918   7.517  12.337
33441W        W 6509  39.073  27.538   2.380
33442W        W 6510  40.273   1.993   0.441
33443W        W 6511  14.504  29.092  10.075
33444W        W 6512  24.323   7.202   2.356
33445W        W 6513   3.789  34.898   4.721
33446W        W 6514   3.012  31.903  12.210
33447W        W 6515  40.955  33.753  13.612
33448W        W 6516  27.821  27.251   1.052
33449W        W 6517  27.084  22.756  12.873
33450W        W 6518   4.169   1.862   2.337
33451W        W 6519  33.346   8.741  12.572
33452W        W 6520  37.357   6.093   3.293
33453W        W 6521  28.391  37.583   5.177
33454W        W 6522  26.774  24.241   1.760
33455W        W 6523  41.938  31.930  13.913
33456W        W 6524  30.664  37.451  14.480
33457W        W 6525  38.407  21.291   1.303
33458W        W 6526   5.755  24.543  12.146
33459W        W 6527  14.100  21.075   2.303
33460W        W 6528  27.168  36.535  14.392
33461W        W 6529  44.170  44.806   0.732
33462W        W 6530  42.372  38.133   0.889
33463W        W 6531  21.469  43.964  13.442
33464W        W 6532   5.930   4.787  14.055
33465W        W 6533   3.726  23.474   2.434
33466W        W 6534  17.643  38.094   0.856
33467W        W 6535  10.346  27.982   0.022
33468W        W 6536  40.702  28.186  13.877
33469W        W 6537  21.504  35.289   3.671
33470W        W 6538  42.281   6.490   1.789
33471W        W 6539  31.574  27.638   0.351
33472W        W 6540   2.357  35.461  12.608
33473W        W 6541  32.886  25.988  14.836
33474W        W 6542  25.972  13.128  12.512
33475W        W 6543  30.572  44.429  11.678
33476W        W 6544  22.502  31.329  14.259
33477W        W 6545   5.162  36.329   3.406
33478W        W 6546  13.070   3.278  12.972
33479W        W 6547  17.072  21.541  11.520
33480W        W 6548   0.248   3.348  13.390
33481W        W 6549  26.197  35.628   1.295
33482W        W 6550  19.493  32.764  12.396
33483W        W 6551  43.862  37.028   0.373
33484W        W 6552  14.073  27.295   4.661
33485W        W 6553   8.677   6.984   4.217
33486W        W 6554  36.444   2.765  10.712
33487W        W 6555  26.232  21.573  11.142
33488W        W 6556  17.877  24.771  14.315
33489W        W 6557  31.493   5.974   4.229
33490W        W 6558   0.706  24.662  14.801
33491W        W 6559  35.383  34.526  14.775
33492W        W 6560  11.152  31.045   4.693
33493W        W 6561  16.630  32.194  11.624
33494W        W 6562  23.699   0.058   3.098
33495W        W 6563  24.933  16.923  10.489
33496W        W 6564  30.960  40.052  14.282
33497W        W 6565  25.622  40.593  13.375
33498W        W 6566  38.684  29.732   3.356
33499W        W 6567  24.642  16.808  14.814
33500W        W 6568  44.841  29.541   0.267
33501W        W 6569  36.345  24.621  14.495
33502W        W 6570  29.271  34.404  10.689
33503W        W 6571   4.972  25.581  12.692
33504W        W 6572  41.234  12.052   2.192
33505W        W 6573  27.170  18.261   1.918
33506W        W 6574  12.407   1.370   1.269
33507W        W 6575  17.825  40.426   2.263
33508W        W 6576  17.800  39.100  11.178
33509W        W 6577   7.205  38.913   0.299
33510W        W 6578  43.944  34.004  12.309
33511W        W 6579  26.112   9.368  11.996
33512W        W 6580  20.418  33.864  12.359
33513W        W 6581  12.072   2.923  13.563
33514W        W 6582  44.041  29.395   1.317
33515W        W 6583  41.850   5.626  10.996
33516W        W 6584   0.311  11.867   1.392
33517W        W 6585  36.349  36.024  11.471
33518W        W 6586  10.297  12.568   1.874
33519W        W 6587  14.823  25.234   4.103
33520W        W 6588   4.138  44.472   1.606
33521W        W 6589  19.734  25.932   3.268
33522W        W 6590  27.121   4.822   0.668
33523W        W 6591  28.595  16.314  12.062
33524W        W 6592  23.718  14.260  12.013
33525W        W 6593  32.980  37.588  13.123
33526W        W 6594  19.726  30.723   2.391
33527W        W 6595  39.458  27.534  12.325
33528W        W 6596  29.949  38.104  11.489
33529W        W 6597  39.774   8.370  14.857
33530W        W 6598   7.533  32.589  12.031
33531W        W 6599  33.626  14.031  12.506
33532W        W 6600  30.445   5.833  11.708
33533W        W 6601  24.625  23.167   1.693
33534W        W 6602  22.022  36.573  10.823
33535W        W 6603  14.360  19.644  11.111
33536W        W 6604   2.926  16.363   0.518
33537W        W 6605  22.220  41.541  13.435
33538W        W 6606   3.417  36.097   4.767
33539W        W 6607  10.790  20.657   1.473
33540W        W 6608  37.347  32.975   2.563
33541W        W 6609  21.064   3.476   2.359
33542W        W 6610  10.208   2.452   4.237
33543W        W 6611  16.139  41.334  14.735
33544W        W 6612  25.164   1.752   1.816
33545W        W 6613   6.892  29.386  14.590
33546W        W 6614   3.704  29.054  14.770
33547W        W 6615  14.530  28.984  11.524
33548W        W 6616  10.885   8.892  11.437
33549W        W 6617  33.667  31.542  14.362
33550W        W 6618  16.728  37.742   2.279
33551W        W 6619  10.959  30.094  11.263
33552W        W 6620  40.600  19.680  14.872
33553W        W 6621   8.614  44.613   2.753
33554W        W 6622   1.429  31.071   2.173
33555W        W 6623  17.205  16.056   4.070
33556W        W 6624  22.664  14.286   4.642
33557W        W 6625  22.172  41.265   2.352
33558W        W 6626  33.390   4.734  11.349
33559W        W 6627  34.482   3.716  12.144
33560W        W 6628  13.547   8.273  11.365
33561W        W 6629  16.714  31.031   3.266
33562W        W 6630  26.774   9.828  10.096
33563W        W 6631  11.964  24.564   3.923
33564W        W 6632  29.618  34.987   1.240
33565W        W 6633   7.956  29.390   1.293
33566W        W 6634  22.182  39.787   2.226
33567W        W 6635  30.595  22.629   2.730
33568W        W 6636  33.070  13.799  11.740
33569W        W 6637  12.146  42.553  13.634
33570W        W 6638  21.297  41.015   2.011
33571W        W 6639  26.800  33.612  12.043
33572W        W 6640  16.179  41.526  10.623
33573W        W 6641  24.183  34.980   2.751
33574W        W 6642  21.131   4.316   3.675
33575W        W 6643  26.631  14.861   1.967
33576W        W 6644   1.231  44.912   4.030
33577W        W 6645  24.595  39.819  14.943
33578W        W 6646  23.437   1.832   0.685
33579W        W 6647  11.916  14.189  13.372
33580W        W 6648   4.625  28.501   0.638
33581W        W 6649  37.685  44.354   1.281
33582W        W 6650  38.477  43.512  10.870
33583W        W 6651  28.058  26.287   0.754
33584W        W 6652  20.811  16.771   0.260
33585W        W 6653  20.357  37.365   3.112
33586W        W 6654  30.597  26.895  14.223
33587W        W 6655  22.071  11.527  11.214
33588W        W 6656   2.848  29.874  10.480
33589W        W 6657   9.427  24.582   2.297
33590W        W 6658  25.574  38.017   4.239
33591W        W 6659   6.777  41.313   2.136
33592W        W 6660  17.283   5.778  13.582
33593W        W 6661  24.917  32.127  13.480
33594W        W 6662  35.184  28.358  13.752
33595W        W 6663  40.936  39.060   3.230
33596W        W 6664  13.757  38.138   1.663
33597W        W 6665  14.037  33.539  10.934
33598W        W 6666  32.456   2.347  12.816
33599W        W 6667  11.003   8.634  10.993
33600W        W 6668  43.398   0.405   1.587
33601W        W 6669  16.342  20.335  14.140
33602W        W 6670  36.730  39.025   0.416
33603W        W 6671  26.961  18.083   0.550
33604W        W 6672  35.637  29.419   1.745
33605W        W 6673  30.984  33.401   3.281
33606W        W 6674   5.297  39.939   4.569
33607W        W 6675  32.033  22.248   4.601
33608W        W 6676  24.530  39.074  11.619
33609W        W 6677  35.115   5.417  14.121
33610W        W 6678   0.510  33.736  13.118
33611W        W 6679  16.209  34.182   0.921
33612W        W 6680   7.261  38.295  13.787
33613W        W 6681  27.141  25.412  12.795
33614W        W 6682  43.274   3.357  14.540
33615W        W 6683  42.905  34.581   1.896
33616W        W 6684  43.796  22.701   4.084
33617W        W 6685  27.235  31.705  13.475
33618W        W 6686  14.591  42.478  11.881
33619W        W 6687   1.261   4.944  14.562
33620W        W 6688  21.626  16.518  13.093
33621W        W 6689   7.733  30.386  10.606
33622W        W 6690  39.610  38.318  10.691
33623W        W 6691  33.354   2.551   1.359
33624W        W 6692   8.761  38.042   4.237
33625W        W 6693  30.163  19.052  12.176
33626W        W 6694  33.058  33.919   0.822
33627W        W 6695  19.595  43.607   0.198
33628W        W 6696  15.750   1.363  12.812
33629W        W 6697  14.696  12.247  11.866
33630W        W 6698  31.414  40.905   0.725
33631W        W 6699  43.736  13.634   1.196
33632W        W 6700  11.875  35.508   2.279
33633W        W 6701  27.176  34.604   0.407
33634W        W 6702  21.576  15.334  11.461
33635W        W 6703  22.613  18.320   2.342
33636W        W 6704  42.684   8.873   0.920
33637W        W 6705  26.674  32.487   2.226
33638W        W 6706  32.740  40.900   3.204
33639W        W 6707  11.147  21.193   4.578
33640W        W 6708  35.258  13.279   1.268
33641W        W 6709   4.043  17.732   0.223
33642W        W 6710   5.878  25.385   0.771
33643W        W 6711  14.128   7.842   2.269
33644W        W 6712  15.131  11.872   4.980
33645W        W 6713  15.578  43.934   2.715
33646W        W 6714  12.843  43.684   1.012
33647W        W 6715  13.185  17.200  11.384
33648W        W 6716  44.037  33.050   2.851
33649W        W 6717  38.995  16.221  13.411
33650W        W 6718  16.484  27.639  12.540
33651W        W 6719  24.040  30.254  11.184
33652W        W 6720  23.287   2.251   0.034
33653W        W 6721  25.011   4.288  11.843
33654W        W 6722  22.125   7.905  12.639
33655W        W 6723  31.075  43.001   4.098
33656W        W 6724  14.014  42.384   0.777
33657W        W 6725   3.848   6.877   3.250
33658W        W 6726  40.049  39.297   4.832
33659W        W 6727  26.415  28.773   0.282
33660W        W 6728  36.125   2.711   3.696
33661W        W 6729  17.993  31.120  11.539
33662W        W 6730  27.690  33.091  13.554
33663W        W 6731  36.378  22.637   4.591
33664W        W 6732  23.973   7.772  13.613
33665W        W 6733  34.589  12.708   3.732
33666W        W 6734  30.684  23.537   0.831
33667W        W 6735  43.512  10.376   3.589
33668W        W 6736  27.980  19.380   2.647
33669W        W 6737  23.105  36.116  11.020
33670W        W 6738  33.611  15.357  13.540
33671W        W 6739  19.723  41.410  11.625
33672W        W 6740  31.925  13.130   1.859
33673W        W 6741  32.678  19.989  12.439
33674W        W 6742   9.180  33.886   0.947
33675W        W 6743   4.934  17.317   4.045
33676W        W 6744  15.308  12.694   4.684
33677W        W 6745  36.522  12.648  10.634
33678W        W 6746   0.888  41.339   3.683
33679W        W 6747  28.538  24.039  13.908
33680W        W 6748  40.354   2.481  10.185
33681W        W 6749  12.610  40.362   4.686
33682W        W 6750  36.518  32.671  12.871
33683W        W 6751  10.003  40.607   0.728
33684W        W 6752  36.492   5.320   2.141
33685W        W 6753  36.419  33.690   0.181
33686W        W 6754   0.958   7.236  14.471
33687W        W 6755  15.085   0.015  14.413
33688W        W 6756  20.118  12.698   1.885
33689W        W 6757   0.427  35.393   3.053
33690W        W 6758  40.000  18.084  12.511
33691W        W 6759  17.746  40.158  11.395
33692W        W 6760  42.543   7.223   2.210
33693W        W 6761  40.632  29.927   3.309
33694W        W 6762  22.184  30.150  13.797
33695W        W 6763   4.973   6.751   0.300
33696W        W 6764  23.218  44.383  14.816
33697W        W 6765  13.131   3.604  13.937
33698W        W 6766  19.544  36.581   2.472
33699W        W 6767  42.319  21.931   0.768
33700W        W 6768  27.919  12.390  12.906
33701W        W 6769   6.448   3.446   0.113
33702W        W 6770  27.105  12.575   5.921
33703W        W 6771  31.636  30.495   3.871
33704W        W 6772  15.821   4.681  11.311
33705W        W 6773  41.403  15.674  12.275
33706W        W 6774  14.205  37.326  14.567
33707W        W 6775  26.674  40.982  14.819
33708W        W 6776  41.483  11.156   0.428
33709W        W 6777   8.102  41.822   0.705
33710W        W 6778  41.900  24.246   2.194
33711W        W 6779   6.660  13.766   3.715
33712W        W 6780   4.896   5.173  11.651
33713W        W 6781  28.701  41.876   4.922
33714W        W 6782   2.556  12.750   2.227
33715W        W 6783  17.178   0.075   0.948
33716W        W 6784   5.891   6.454   1.946
33717W        W 6785  22.509  35.416  13.901
33718W        W 6786   1.848  40.837  13.255
33719W        W 6787  12.580  36.930   1.215
33720W        W 6788   1.313  43.326  11.025
33721W        W 6789  18.006  25.606   0.417
33722W        W 6790   6.162   5.688  14.433
33723W        W 6791   7.779  29.565  13.563
33724W        W 6792  40.326  13.160  13.938
33725W        W 6793  32.269   0.914  10.381
33726W        W 6794  28.512  21.490   1.925
33727W        W 6795  43.773   8.841   4.531
33728W        W 6796  25.612  42.446   4.737
33729W        W 6797   0.490  41.442  11.600
33730W        W 6798  13.578  44.258  14.105
33731W        W 6799   6.832  20.464   4.270
33732W        W 6800  40.356  37.624  11.467
33733W        W 6801   5.249  23.405  12.446
33734W        W 6802  15.830  34.956  14.794
33735W        W 6803  34.924   6.884  12.501
33736W        W 6804  22.065  12.902  13.821
33737W        W 6805  36.840   1.842  12.463
33738W        W 6806  24.118  42.496   3.822
33739W        W 6807   3.996  10.657   3.150
33740W        W 6808  43.256  40.516   3.273
33741W        W 6809  12.434   0.404   0.268
33742W        W 6810   1.171  12.614  14.385
33743W        W 6811  30.610   3.794   3.271
33744W        W 6812  22.640  21.784   3.781
33745W        W 6813   8.699  40.042   3.256
33746W        W 6814  20.965   4.862  12.508
33747W        W 6815   4.972  25.176  12.364
33748W        W 6816  30.061  40.350   4.617
33749W        W 6817  12.655   5.850   2.424
33750W        W 6818  28.740  23.672   0.107
33751W        W 6819  34.293   5.265   4.065
33752W        W 6820  36.337  13.129   2.569
33753W        W 6821  14.681  15.564   3.954
33754W        W 6822   5.443  33.636   0.740
33755W        W 6823  24.280  21.607  10.947
33756W        W 6824   4.692   6.490  12.234
33757W        W 6825  19.915  38.126  12.427
33758W        W 6826  28.016  23.643  12.342
33759W        W 6827   8.782  41.376  12.908
33760W        W 6828   1.222  36.268  13.555
33761W        W 6829  19.166  21.605  13.593
33762W        W 6830  21.672  11.077  12.634
33763W        W 6831   8.912  40.350   4.605
33764W        W 6832  15.953  26.313  13.580
33765W        W 6833  40.472  41.359   4.156
33766W        W 6834  29.995  44.910  10.815
33767W        W 6835  23.639  41.248  13.338
33768W        W 6836   7.697   6.244   2.153
33769W        W 6837  18.031   1.043   3.781
33770W        W 6838  20.415  39.470   4.984
33771W        W 6839  32.628  37.822   2.803
33772W        W 6840  24.525  40.284  12.830
33773W        W 6841  27.016  11.646   1.471
33774W        W 6842  22.411  32.915   4.798
33775W        W 6843  27.658  24.020  12.852
33776W        W 6844   3.813  21.803   0.893
33777W        W 6845   8.438  31.111  13.383
33778W        W 6846  27.447  14.280   3.721
33779W        W 6847  41.532  32.242   0.329
33780W        W 6848  42.014  24.043   2.641
33781W        W 6849  30.046   3.875   2.667
33782W        W 6850  38.883   0.836  10.020
33783W        W 6851  17.777  35.598  10.741
33784W        W 6852  16.065  11.894   0.891
33785W        W 6853   3.277  20.102   4.638
33786W        W 6854  21.894   1.042   4.688
33787W        W 6855  39.574   8.674   9.704
33788W        W 6856  22.448  19.834   2.886
33789W        W 6857  41.648  40.478   0.756
33790W        W 6858  34.498  26.183   4.724
33791W        W 6859  17.024  12.301   0.458
33792W        W 6860  31.458   8.659  13.733
33793W        W 6861  43.597  21.710  12.416
33794W        W 6862  43.317  39.329  13.436
33795W        W 6863  31.142  24.559   1.683
33796W        W 6864  36.857  30.371   3.720
33797W        W 6865  38.107  31.625   0.703
33798W        W 6866  33.814   1.879   1.775
33799W        W 6867  35.604  43.940  12.588
33800W        W 6868  37.606  28.133  10.051
33801W        W 6869  25.505  35.564   2.750
33802W        W 6870  30.582   1.321   4.883
33803W        W 6871  17.820  36.773   1.280
33804W        W 6872   1.658  32.328  14.803
33805W        W 6873  17.615  30.911  11.804
33806W        W 6874  13.331  33.091   3.345
33807W        W 6875   1.977  30.514   4.195
33808W        W 6876   8.803   8.663   2.477
33809W        W 6877  12.921  16.939   4.438
33810W        W 6878   4.883   4.680  14.969
33811W        W 6879   4.837  10.867  12.687
33812W        W 6880  44.483  20.644   1.360
33813W        W 6881  39.480  10.124  12.349
33814W        W 6882  14.432  21.995  11.978
33815W        W 6883   4.353  10.752   0.682
33816W        W 6884  14.459  17.766  14.887
33817W        W 6885  16.617  16.145   3.704
33818W        W 6886  41.395  43.471  12.666
33819W        W 6887  25.238  35.847  11.152
33820W        W 6888  24.503  26.036  10.670
33821W        W 6889  15.326   1.398  14.825
33822W        W 6890   0.226  24.573  12.356
33823W        W 6891   5.628  32.186  10.635
33824W        W 6892  15.687   5.245   4.685
33825W        W 6893  32.976  13.698  14.695
33826W        W 6894  44.801  27.513  13.071
33827W        W 6895  11.233  12.401   1.714
33828W        W 6896  30.969  14.060  14.383
33829W        W 6897  27.599  19.615   2.309
33830W        W 6898  32.558   5.916  10.723
33831W        W 6899  14.043   6.743  12.479
33832W        W 6900  42.437   1.516  12.872
33833W        W 6901  27.966  15.259   1.501
33834W        W 6902  16.807  42.531   3.355
33835W        W 6903   8.262  29.037  11.533
33836W        W 6904   8.371  38.149   4.969
33837W        W 6905  21.241  33.343  14.026
33838W        W 6906  41.597  16.131  10.591
33839W        W 6907   6.536  42.911   1.878
33840W        W 6908  29.387  19.572  12.640
33841W        W 6909  14.137   8.568   3.212
33842W        W 6910   8.207   0.946   2.577
33843W        W 6911  30.111  15.319  14.883
33844W        W 6912  15.538   5.174   1.785
33845W        W 6913   0.750  32.335  13.449
33846W        W 6914  20.641  15.386   4.748
33847W        W 6915  23.034   3.541  11.476
33848W        W 6916  35.425  28.648   2.236
33849W        W 6917  11.208  35.519  13.538
33850W        W 6918  18.142  16.510  13.912
33851W        W 6919   2.396   1.915   0.478
33852W        W 6920  13.185  38.585   4.617
33853W        W 6921  40.794  30.477  14.002
33854W        W 6922  26.980  35.484   0.179
33855W        W 6923   8.280  31.578  10.563
33856W        W 6924  14.213  33.570  10.414
33857W        W 6925  14.292  31.077   2.220
33858W        W 6926   7.813   2.671   3.867
33859W        W 6927   4.124   4.362   0.297
33860W        W 6928  25.852   3.270  10.747
33861W        W 6929  10.140  24.805   0.512
33862W        W 6930  35.674   7.820  12.972
33863W        W 6931  18.176   0.129  12.928
33864W        W 6932  19.580  34.336   1.197
33865W        W 6933  29.883  38.598  14.245
33866W        W 6934  43.813  21.776  10.989
33867W        W 6935  42.813   3.592  13.390
33868W        W 6936  43.414  38.100   3.927
33869W        W 6937  20.217  35.781   3.256
33870W        W 6938   4.877  35.904   3.542
33871W        W 6939  34.110  37.154   2.322
33872W        W 6940  18.516  14.653  14.877
33873W        W 6941  38.939  19.692  10.058
33874W        W 6942  35.204  38.006   0.903
33875W        W 6943   6.002  24.040  12.153
33876W        W 6944  18.210  22.061   3.740
33877W        W 6945  17.208  39.413   0.994
33878W        W 6946  27.823  33.502  12.051
33879W        W 6947  36.821  44.757   1.481
33880W        W 6948  30.865  44.970   1.725
33881W        W 6949  42.010  29.234   2.348
33882W        W 6950  19.953  27.250   2.377
33883W        W 6951  39.883  24.614  12.611
33884W        W 6952  13.984  24.694  11.097
33885W        W 6953  21.114  15.942  10.527
33886W        W 6954  30.440   1.638  14.852
33887W        W 6955  29.124  43.458   1.663
33888W        W 6956   4.706  15.548  13.899
33889W        W 6957  37.327  14.692   0.956
33890W        W 6958  42.207  21.714   0.319
33891W        W 6959  20.867  17.432  14.315
33892W        W 6960  16.689  20.648  11.180
33893W        W 6961  41.832  21.536  11.661
33894W        W 6962  40.344  30.477   4.496
33895W        W 6963   3.427  44.219  13.840
33896W        W 6964  20.103   4.191   1.845
33897W        W 6965  29.985  15.555  10.764
33898W        W 6966  42.112  15.732   5.681
33899W        W 6967  20.478  29.399   1.465
33900W        W 6968  33.029  18.372   2.322
33901W        W 6969  41.893  31.676   4.567
33902W        W 6970   2.793  29.579   2.427
33903W        W 6971  40.495   3.517  13.685
33904W        W 6972   5.756  43.415  13.380
33905W        W 6973   3.703  12.650  12.016
33906W        W 6974  32.362  30.620  13.928
33907W        W 6975  39.981  26.501  13.318
33908W        W 6976   0.421  15.710   2.117
33909W        W 6977  20.632  27.201   0.444
33910W        W 6978  18.752  44.912  11.537
33911W        W 6979  24.508  22.489   3.906
33912W        W 6980  24.292  16.428  10.193
33913W        W 6981  32.551  31.061   1.670
33914W        W 6982  24.051   8.791   2.867
33915W        W 6983  21.708  43.316  10.172
33916W        W 6984   5.487   8.049  13.195
33917W        W 6985  44.228  35.592   3.067
33918W        W 6986   0.445   2.768   0.911
33919W        W 6987  38.397  42.078   4.890
33920W        W 6988  24.222  11.150  12.810
33921W        W 6989  25.797   8.370   1.831
33922W        W 6990   6.314  37.583   2.811
33923W        W 6991   7.926  24.748  12.926
33924W        W 6992  15.819  11.292  13.320
33925W        W 6993  10.659  14.791  11.169
33926W        W 6994  18.459  33.318  13.322
33927W        W 6995  31.583  30.438   4.897
33928W        W 6996  20.513  30.941   1.882
33929W        W 6997  38.870  36.473  14.541
33930W        W 6998  15.657  28.285   0.365
33931W        W 6999  10.720  28.747   3.134
33932W        W 7000  16.674  32.366   1.934
33933W        W 7001   3.553  23.226   4.238
33934W        W 7002  32.027  32.081   4.522
33935W        W 7003  39.599  31.651   2.387
33936W        W 7004  29.546  28.634  10.947
33937W        W 7005   2.979  17.563   3.699
33938W        W 7006  41.001  19.223   3.648
33939W        W 7007  21.501  18.265   5.022
33940W        W 7008   2.444  12.319  12.012
33941W        W 7009  44.030  10.424   3.743
33942W        W 7010   3.992  18.555  13.358
33943W        W 7011  44.664  26.472   4.212
33944W        W 7012  39.827  15.395   1.832
33945W        W 7013   5.256   9.649   2.794
33946W        W 7014  43.054   3.794   4.963
33947W        W 7015  29.049   3.036  14.143
33948W        W 7016  30.603   6.828  12.096
33949W        W 7017  14.118  10.465   1.836
33950W        W 7018  40.776  13.713   2.836
33951W        W 7019  13.396   5.655   3.654
33952W        W 7020  11.286   6.265  12.865
33953W        W 7021  41.373  16.827   1.013
33954W        W 7022  14.430  22.770  11.098
33955W        W 7023  44.057  21.266   4.758
33956W        W 7024  14.876  24.354   3.697
33957W        W 7025  22.814  21.061   4.530
33958W        W 7026   2.236  43.987  12.715
33959W        W 7027  21.853  11.688   4.375
33960W        W 7028  15.623  37.594   3.670
33961W        W 7029  14.463  39.258   4.229
33962W        W 7030  43.361   0.020  12.504
33963W        W 7031  10.191  15.655   4.145
33964W        W 7032  39.678   1.261   3.422
33965W        W 7033  37.400  23.193  12.840
33966W        W 7034   6.380   5.503   0.375
33967W        W 7035  28.037   2.885  11.402
33968W        W 7036  27.491   5.421  12.100
33969W        W 7037  36.060  16.141  14.813
33970W        W 7038   4.242  16.253  14.783
33971W        W 7039   9.731  36.915  13.343
33972W        W 7040  25.549   2.189  14.391
33973W        W 7041  44.231  20.040   2.102
33974W        W 7042   1.319  22.483  10.291
33975W        W 7043  30.515  22.008  13.873
33976W        W 7044  37.151  16.585  13.812
33977W        W 7045  13.743   7.786  14.432
33978W        W 7046  12.626  12.166  13.980
33979W        W 7047  17.784  29.023   4.061
33980W        W 7048  25.611  18.856  13.057
33981W        W 7049  27.400  20.731  12.349
33982W        W 7050  11.039  33.168  10.722
33983W        W 7051  10.746  36.567   2.264
33984W        W 7052   0.820   0.582  14.475
33985W        W 7053  31.622  31.816   4.394
33986W        W 7054  11.873  17.826   4.717
33987W        W 7055   6.597  31.432   1.783
33988W        W 7056  36.864  34.256   5.525
33989W        W 7057   0.972  23.638  10.701
33990W        W 7058  22.833   3.180  10.661
33991W        W 7059  11.687  42.357  12.074
33992W        W 7060  14.056  27.594   4.250
33993W        W 7061  25.160  32.077   3.348
33994W        W 7062  11.208   5.246   2.497
33995W        W 7063  22.069   8.150  10.517
33996W        W 7064  21.800  36.334   0.974
33997W        W 7065  38.260  23.212  14.277
33998W        W 7066  33.182  33.343  12.486
33999W        W 7067  40.228  24.339   1.726
34000W        W 7068   8.252  15.899  14.860
34001W        W 7069  10.749  40.046   1.527
34002W        W 7070  13.626  25.738  12.416
34003W        W 7071  16.873   6.522   4.711
34004W        W 7072  24.471  17.526  11.456
34005W        W 7073  42.199  12.274  14.998
34006W        W 7074  36.742  16.713   0.712
34007W        W 7075  22.688   9.172   0.032
34008W        W 7076  32.005  37.502  11.742
34009W        W 7077  28.735  34.641  11.561
34010W        W 7078  31.448  17.568  11.327
34011W        W 7079  20.562   5.069   2.766
34012W        W 7080  10.900  36.504  12.074
34013W        W 7081  42.470  43.533   2.327
34014W        W 7082  33.839  27.121   2.153
34015W        W 7083  15.379  43.520  13.589
34016W        W 7084   1.670   2.770   2.263
34017W        W 7085   2.240  22.495   0.396
34018W        W 7086  10.468   0.056  12.940
34019W        W 7087   5.591  37.473  10.743
34020W        W 7088   1.347   4.685   0.926
34021W        W 7089  27.387  20.307  13.522
34022W        W 7090  15.124  44.508  13.066
34023W        W 7091  27.097  16.939   2.714
34024W        W 7092  29.047  30.077   4.646
34025W        W 7093  26.180  33.610   1.704
34026W        W 7094  24.700  11.025  12.994
34027W        W 7095  44.328  15.489   1.335
34028W        W 7096   8.422  33.443  11.237
34029W        W 7097  43.975   1.085   1.298
34030W        W 7098  34.231   0.828  10.681
34031W        W 7099  17.031  30.893   4.862
34032W        W 7100  32.999  29.750  10.374
34033W        W 7101  38.343  30.652  12.068
34034W        W 7102  32.125  39.224  14.762
34035W        W 7103  44.898  26.044  13.039
34036W        W 7104  16.691  34.321   3.454
34037W        W 7105  11.609  41.384  13.656
34038W        W 7106  22.713  42.431  12.780
34039W        W 7107  12.552   3.166  12.053
34040W        W 7108  23.722  10.642  13.876
34041W        W 7109  40.378   6.370   0.771
34042W        W 7110  26.306   4.813   4.619
34043W        W 7111   2.814  39.879  14.745
34044W        W 7112  27.102   0.874  12.622
34045W        W 7113   2.022  14.133  11.569
34046W        W 7114  39.928  40.744   1.755
34047W        W 7115   5.144  33.625  14.902
34048W        W 7116  39.131   4.713   4.227
34049W        W 7117  35.908  39.944   4.594
34050W        W 7118  18.739   5.999  13.913
34051W        W 7119  20.983  44.999  12.030
34052W        W 7120  35.026  38.992  10.507
34053W        W 7121  41.321  34.361   0.338
34054W        W 7122  19.507  39.443   0.459
34055W        W 7123   1.892   6.461  12.213
34056W        W 7124   6.350   2.888  11.071
34057W        W 7125  36.602  17.268  12.010
34058W        W 7126   6.242   3.210   4.140
34059W        W 7127   5.847  22.230  10.937
34060W        W 7128  16.607   9.864  14.034
34061W        W 7129   3.739   8.728  13.447
34062W        W 7130   2.536  18.681  12.963
34063W        W 7131   0.422  24.385  11.914
34064W        W 7132  11.768  20.932   1.026
34065W        W 7133   1.924   8.178   3.180
34066W        W 7134  41.776  37.274  10.982
34067W        W 7135  44.787   0.364  13.392
34068W        W 7136  22.958  29.777   0.810
34069W        W 7137  42.051  31.086  10.641
34070W        W 7138  39.391   0.345   0.936
34071W        W 7139   6.846  14.315   4.941
34072W        W 7140  41.526  12.340  11.165
34073W        W 7141  12.734  19.532  14.985
34074W        W 7142  24.624  24.028   0.744
34075W        W 7143  28.017  34.634  11.272
34076W        W 7144  32.763  28.135  12.973
34077W        W 7145  43.366  23.751   1.182
34078W        W 7146  43.315  31.743   4.584
34079W        W 7147   9.380   0.721   2.280
34080W        W 7148  42.453  22.285  14.745
34081W        W 7149   4.764   3.855   0.286
34082W        W 7150  16.214  32.517  11.551
34083W        W 7151  15.487  10.997  12.541
34084W        W 7152   4.578  38.006  12.111
34085W        W 7153  44.443  31.650   3.144
34086W        W 7154  27.396  23.741  11.865
34087W        W 7155  31.588  23.168   1.839
34088W        W 7156  21.739  13.197   0.037
34089W        W 7157  16.702  10.743   2.750
34090W        W 7158  44.259  20.054   0.807
34091W        W 7159  26.726  32.042   1.423
34092W        W 7160  29.505   4.736   3.144
34093W        W 7161  22.615  24.321  12.433
34094W        W 7162  11.191  37.753   0.485
34095W        W 7163  36.928  28.728   0.988
34096W        W 7164   1.693  11.356   2.899
34097W        W 7165   8.502  28.147  12.826
34098W        W 7166  37.626  42.044   3.821
34099W        W 7167  39.005   3.931  10.464
34100W        W 7168  26.193  18.172  12.612
34101W        W 7169  32.169  34.019  13.121
34102W        W 7170  35.801   2.455   3.385
34103W        W 7171  34.456  12.715   1.758
34104W        W 7172   6.028  27.561  11.989
34105W        W 7173  11.743  25.723  12.623
34106W        W 7174   8.746   2.805  11.884
34107W        W 7175  33.707  13.039   2.156
34108W        W 7176  21.665   5.179  13.323
34109W        W 7177  24.432  40.375   0.790
34110W        W 7178   2.755  44.492   4.619
34111W        W 7179  42.988  15.852  13.963
34112W        W 7180  36.599  38.096  13.445
34113W        W 7181   4.837  16.478  14.525
34114W        W 7182  22.254  41.792  12.955
34115W        W 7183   6.024  37.144  11.561
34116W        W 7184   5.405  11.083  13.900
34117W        W 7185  16.577   2.249  11.833
34118W        W 7186   5.761  17.122   4.401
34119W        W 7187   7.910  11.109   4.254
34120W        W 7188   7.507  27.053  13.998
34121W        W 7189  37.964  23.757   4.663
34122W        W 7190  27.664  10.652   1.966
34123W        W 7191   0.772   8.367   4.836
34124W        W 7192   9.420  38.077   0.364
34125W        W 7193  34.628  21.474  14.285
34126W        W 7194  33.552  39.798  10.455
34127W        W 7195  32.628  36.588  11.623
34128W        W 7196  33.537  23.726   2.540
34129W        W 7197  24.978  31.605  13.550
34130W        W 7198  19.184  14.289   0.792
34131W        W 7199  22.521  10.459   1.670
34132W        W 7200  24.482  28.904  12.037
34133W        W 7201  35.482  22.260  14.900
34134W        W 7202  13.621   8.680   0.884
34135W        W 7203   1.988   2.850   3.884
34136W        W 7204   1.528  16.718   4.427
34137W        W 7205  20.683   1.277   5.073
34138W        W 7206  37.914   9.931  13.945
34139W        W 7207  21.768  30.067   4.577
34140W        W 7208   8.372   0.612   1.282
34141W        W 7209  43.942  22.133   1.059
34142W        W 7210  12.726  14.746  11.517
34143W        W 7211   3.837  34.631   3.739
34144W        W 7212   0.787  22.509   4.294
34145W        W 7213  33.116  33.135   0.283
34146W        W 7214  41.825  22.003  12.559
34147W        W 7215  16.763  12.195   4.789
34148W        W 7216  40.553  11.094  11.043
34149W        W 7217   9.736  16.431  12.084
34150W        W 7218   2.660  22.027   4.679
34151W        W 7219  17.306  44.373  12.586
34152W        W 7220  43.613  39.045   4.256
34153W        W 7221   6.414   6.481   0.632
34154W        W 7222  26.486  37.333   1.676
34155W        W 7223  19.944  13.376   2.425
34156W        W 7224  42.373  34.440  13.959
34157W        W 7225  10.290  21.367  11.967
34158W        W 7226   0.748  24.005  12.023
34159W        W 7227  31.078  36.958  11.597
34160W        W 7228  18.936  39.875   4.444
34161W        W 7229  17.733  44.797  12.950
34162W        W 7230  15.402  24.237   3.693
34163W        W 7231  40.455   7.832  13.490
34164W        W 7232   6.923  23.787  12.841
34165W        W 7233  28.654  33.096   2.844
34166W        W 7234  12.157   8.634   2.438
34167W        W 7235   7.531  18.271   3.272
34168W        W 7236  21.617  16.224   3.221
34169W        W 7237   0.048  12.348  13.904
34170W        W 7238   4.574  36.351  13.269
34171W        W 7239  18.917   1.876  12.872
34172W        W 7240  22.281  37.447   3.634
34173W        W 7241   8.830   5.703  11.981
34174W        W 7242  20.091  14.782   2.180
34175W        W 7243   9.429  44.079   4.987
34176W        W 7244  24.195   2.786  14.686
34177W        W 7245   7.117   8.676  12.851
34178W        W 7246   3.890   0.685  14.480
34179W        W 7247  37.611  19.315  11.093
34180W        W 7248  22.025  11.554   3.862
34181W        W 7249  20.094  13.904  11.257
34182W        W 7250  13.591  18.223  12.145
34183W        W 7251   6.233  39.801  13.279
34184W        W 7252  22.464  40.852   2.860
34185W        W 7253   1.224  37.981   0.804
34186W        W 7254   2.442  29.184   4.616
34187W        W 7255  25.084   8.589  13.281
34188W        W 7256   1.305  18.764  11.147
34189W        W 7257  43.878  31.104  10.806
34190W        W 7258  15.859  33.342  11.628
34191W        W 7259   6.762  32.455   0.457
34192W        W 7260  40.780  38.910   3.868
34193W        W 7261  37.543  14.899  12.062
34194W        W 7262  15.733  37.346  12.956
34195W        W 7263  22.532  10.228  12.003
34196W        W 7264  36.381   0.460   4.141
34197W        W 7265  13.863  35.472   4.221
34198W        W 7266  43.185  22.508   2.781
34199W        W 7267  42.911  37.085  14.345
34200W        W 7268  26.829  26.635  11.419
34201W        W 7269  41.990  38.349  12.949
34202W        W 7270  35.906   3.787  14.379
34203W        W 7271   4.031  12.748  14.619
34204W        W 7272   6.793  10.410   2.358
34205W        W 7273  11.262  26.579  11.574
34206W        W 7274   1.658  37.960   1.734
34207W        W 7275   3.263   2.317   3.894
34208W        W 7276  36.602  41.742  11.653
34209W        W 7277  43.709   5.490   0.329
34210W        W 7278   3.863  42.985   0.617
34211W        W 7279  38.590  17.234  14.721
34212W        W 7280  39.657   8.117   9.749
34213W        W 7281   9.746  28.865   1.558
34214W        W 7282  39.914  38.847   3.683
34215W        W 7283  41.856  19.230  13.113
34216W        W 7284   6.898  35.926   0.780
34217W        W 7285  27.698  28.841   0.814
34218W        W 7286  44.970  36.594  10.481
34219W        W 7287  40.738  16.600   0.340
34220W        W 7288   7.704   6.100   3.170
34221W        W 7289  22.124  42.576   4.134
34222W        W 7290  32.077  33.759   1.530
34223W        W 7291  16.950  15.725   0.235
34224W        W 7292  10.113  41.799   2.009
34225W        W 7293  20.849  23.640   4.631
34226W        W 7294  22.125  16.712   3.313
34227W        W 7295  25.083  44.504   1.454
34228W        W 7296  31.905  10.799   2.385
34229W        W 7297  44.411   3.283   2.285
34230W        W 7298  23.696  29.161  11.622
34231W        W 7299  36.446  39.252  14.315
34232W        W 7300   4.668  12.625   5.145
34233W        W 7301   9.211   3.459  14.831
34234W        W 7302  34.554  43.339   4.531
34235W        W 7303   2.603  18.559  10.400
34236W        W 7304  23.172  25.940   4.949
34237W        W 7305  42.667  14.995   0.519
34238W        W 7306  32.628  19.960  14.992
34239W        W 7307  32.974   2.660   3.077
34240W        W 7308  26.320  35.449   1.811
34241W        W 7309   9.818  16.931   4.168
34242W        W 7310  21.621  13.857  12.367
34243W        W 7311  30.168  43.602   2.480
34244W        W 7312  33.560  18.180  12.107
34245W        W 7313  25.851  36.524  10.780
34246W        W 7314  19.994   6.140   0.361
34247W        W 7315   7.821  41.518   2.384
34248W        W 7316   7.684  39.014  10.690
34249W        W 7317  14.653  38.114  14.599
34250W        W 7318  30.046  12.883  13.847
34251W        W 7319   4.811  30.694   4.664
34252W        W 7320  22.887  33.100   4.749
34253W        W 7321   6.171  44.224   2.938
34254W        W 7322  40.039  18.713   0.515
34255W        W 7323  35.100  36.910  13.543
34256W        W 7324  26.721  12.635   0.544
34257W        W 7325  39.342  44.982  13.905
34258W        W 7326   7.428  42.859   0.361
34259W        W 7327  25.965   5.298   3.663
34260W        W 7328  15.070  22.604   4.227
34261W        W 7329  21.271  13.537   2.211
34262W        W 7330  40.041  32.639  13.280
34263W        W 7331  42.443  32.677  11.853
34264W        W 7332  37.492  19.481  14.403
34265W        W 7333   9.088  23.885  13.030
34266W        W 7334  22.542  30.812  14.227
34267W        W 7335  30.698  15.731   2.937
34268W        W 7336   3.267   1.819   4.661
34269W        W 7337   6.236  31.175   3.332
34270W        W 7338  39.488  14.077  12.643
34271W        W 7339  35.995  43.943   0.902
34272W        W 7340  14.192  13.551   2.393
34273W        W 7341  18.549  23.375  11.330
34274W        W 7342  20.579  37.268  11.280
34275W        W 7343  22.212   7.810  10.871
34276W        W 7344  41.622  12.387   2.190
34277W        W 7345  26.810  31.074   0.164
34278W        W 7346   3.965   4.160   1.725
34279W        W 7347  38.579  31.555   0.901
34280W        W 7348  22.185   7.186   0.432
34281W        W 7349  37.258  39.957   1.874
34282W        W 7350  43.278  23.377   5.212
34283W        W 7351  44.296   5.946   4.998
34284W        W 7352  16.604  14.697  12.875
34285W        W 7353  33.586  33.631  13.956
34286W        W 7354  27.054   0.043   2.793
34287W        W 7355  10.289  19.773   0.883
34288W        W 7356  17.103  23.704  14.205
34289W        W 7357  29.643   8.803  10.735
34290W        W 7358  28.965   8.745  11.048
34291W        W 7359  34.994  17.865  14.936
34292W        W 7360   1.927  36.038  11.444
34293W        W 7361  14.208  15.777  13.853
34294W        W 7362  26.665  27.655  13.417
34295W        W 7363  27.302  42.949  13.826
34296W        W 7364  21.024  12.502  12.616
34297W        W 7365   6.406  14.594   4.010
34298W        W 7366  28.390  39.302   1.698
34299W        W 7367  23.822  16.328   1.472
34300W        W 7368  20.213  30.243   1.212
34301W        W 7369  16.630   2.850   0.524
34302W        W 7370  37.198  30.247   2.378
34303W        W 7371  13.284  16.554   1.682
34304W        W 7372  23.050  41.215  11.986
34305W        W 7373  26.970  40.958  13.028
34306W        W 7374  23.346  23.436  12.389
34307W        W 7375  32.534  40.030  11.491
34308W        W 7376  36.890  20.226  12.397
34309W        W 7377   2.317   7.335   0.635
34310W        W 7378  13.097  18.013   4.168
34311W        W 7379  39.795  37.364   2.262
34312W        W 7380  17.525  43.288   2.385
34313W        W 7381   2.551  13.270  12.332
34314W        W 7382   0.442   9.930   0.048
34315W        W 7383  18.866  23.262  13.851
34316W        W 7384  15.931  21.215   0.470
34317W        W 7385  29.022  22.196   1.897
34318W        W 7386  10.847  13.220  11.438
34319W        W 7387  37.773  15.807   0.416
34320W        W 7388  42.595  10.794  13.017
34321W        W 7389  17.880  33.084   3.125
34322W        W 7390  10.830  32.811   1.884
34323W        W 7391   3.170   4.112  14.647
34324W        W 7392  20.871   0.271   5.012
34325W        W 7393   7.452   6.849  10.759
34326W        W 7394  28.057  33.627  14.887
34327W        W 7395  30.427  41.515  10.733
34328W        W 7396   6.648  31.983  10.436
34329W        W 7397  41.020  19.509  12.551
34330W        W 7398  40.054   5.990  12.881
34331W        W 7399  26.617  34.727  11.459
34332W        W 7400  39.430  15.266   2.964
34333W        W 7401  38.108  34.724   0.706
34334W        W 7402  29.592  13.322   0.369
34335W        W 7403   6.399   6.418   1.898
34336W        W 7404  10.834   0.759   1.478
34337W        W 7405  33.059   9.417   2.353
34338W        W 7406  13.187  14.176   0.421
34339W        W 7407  42.075  26.029  12.502
34340W        W 7408  33.883  11.386  13.870
34341W        W 7409  12.213   8.948  13.786
34342W        W 7410   2.873   5.365   4.630
34343W        W 7411  12.769  23.301  13.837
34344W        W 7412  29.183  27.637   1.388
34345W        W 7413  43.735   2.304  11.486
34346W        W 7414  40.613  29.520  10.596
34347W        W 7415  39.635   1.667  12.570
34348W        W 7416  17.061   4.739   4.120
34349W        W 7417  27.463  34.027  13.268
34350W        W 7418  26.781   5.961   3.686
34351W        W 7419  40.957  10.586  13.573
34352W        W 7420  17.837  17.314   2.359
34353W        W 7421   7.190  30.541   0.345
34354W        W 7422  31.904  16.836   3.290
34355W        W 7423  12.130   9.798   4.285
34356W        W 7424  40.771  35.461   4.260
34357W        W 7425  31.370  18.575   4.858
34358W        W 7426  35.884  41.277  11.192
34359W        W 7427  19.586  24.078   1.168
34360W        W 7428  32.617   7.191   1.390
34361W        W 7429  10.171  19.514   3.690
34362W        W 7430  28.847  23.097  12.170
34363W        W 7431   8.333  25.155   1.947
34364W        W 7432  20.096  32.999   4.338
34365W        W 7433  15.711  39.472  12.912
34366W        W 7434  36.016  23.635  13.278
34367W        W 7435  41.669   5.239  12.483
34368W        W 7436  15.501  40.607   9.973
34369W        W 7437  30.452  41.471  13.476
34370W        W 7438  35.188  25.628  14.746
34371W        W 7439  32.170   9.356  12.511
34372W        W 7440   5.663  12.727  10.627
34373W        W 7441   3.983   7.748   1.766
34374W        W 7442  11.663  18.610   2.804
34375W        W 7443  20.176  31.949   4.861
34376W        W 7444  34.931  40.056   4.391
34377W        W 7445  24.727  26.061   4.190
34378W        W 7446  26.515   9.873   4.524
34379W        W 7447   1.017  11.805   5.112
34380W        W 7448  39.041  31.802  10.447
34381W        W 7449   2.902   8.879   0.681
34382W        W 7450  18.534  31.595   0.475
34383W        W 7451  42.293  15.639  13.616
34384W        W 7452  21.488  31.224  13.400
34385W        W 7453  21.138  39.008   4.737
34386W        W 7454   8.719  42.479   0.719
34387W        W 7455  30.050  42.095   3.832
34388W        W 7456  16.608  36.420   1.442
34389W        W 7457  22.684  18.141  12.151
34390W        W 7458   8.747  27.490   1.833
34391W        W 7459  39.340  19.478   1.943
34392W        W 7460  23.574  23.830  12.868
34393W        W 7461   0.442  33.637   2.306
34394W        W 7462  21.191  29.418   0.864
34395W        W 7463  25.535  16.575   1.386
34396W        W 7464  25.471  13.808   0.389
34397W        W 7465   8.666   6.784  11.523
34398W        W 7466   9.817  11.898   0.714
34399W        W 7467  12.532   8.916   4.176
34400W        W 7468  16.336  20.668   4.589
34401W        W 7469  16.695  25.385  14.754
34402W        W 7470   5.446  27.102   0.001
34403W        W 7471  20.836  10.329  13.373
34404W        W 7472  14.570  18.648   0.756
34405W        W 7473  17.210  16.581   2.316
34406W        W 7474  33.870  14.788   2.192
34407W        W 7475  14.068  21.804   0.887
34408W        W 7476  30.024  44.036  10.628
34409W        W 7477  28.899   8.707   3.610
34410W        W 7478  22.721   5.960  14.265
34411W        W 7479   4.848  37.047  14.443
34412W        W 7480   9.666  16.164  13.615
34413W        W 7481  35.959  44.404   0.523
34414W        W 7482  44.237  17.704   0.730
34415W        W 7483   4.805  29.874  11.973
34416W        W 7484  22.282  15.329   2.615
34417W        W 7485  28.189   2.186  14.772
34418W        W 7486  38.465  38.786   2.759
34419W        W 7487   8.702  11.166  12.991
34420W        W 7488  38.311  30.673   3.175
34421W        W 7489  12.719  27.754   0.964
34422W        W 7490   5.855   1.242  12.875
34423W        W 7491  30.080  36.524   3.689
34424W        W 7492  22.968  23.997   2.439
34425W        W 7493   5.035  37.288   1.208
34426W        W 7494  27.693  20.642   0.915
34427W        W 7495  17.676  21.245  10.926
34428W        W 7496  13.595  38.075   2.647
34429W        W 7497  42.359  43.905  14.829
34430W        W 7498  18.807  40.846  10.520
34431W        W 7499  34.103   9.058   1.541
34432W        W 7500  14.825  35.032  11.011
34433W        W 7501  33.119  33.348   4.221
34434W        W 7502  43.092   3.773  12.971
34435W        W 7503  44.535   1.156   0.800
34436W        W 7504  40.062  32.839   2.647
34437W        W 7505  30.054  29.058  10.436
34438W        W 7506   0.627   1.338   4.958
34439W        W 7507  41.932  18.514  12.027
34440W        W 7508   8.680   5.110   1.845
34441W        W 7509  21.354  36.422  12.930
34442W        W 7510   9.436   5.403   3.857
34443W        W 7511  37.450   3.833   3.063
34444W        W 7512   9.122  14.616   1.738
34445W        W 7513  44.866  38.666   1.443
34446W        W 7514  24.660   1.573  11.101
34447W        W 7515  36.799   1.875   1.887
34448W        W 7516  16.830  36.151  13.827
34449W        W 7517  22.635   2.196   1.229
34450W        W 7518   6.789  17.855  14.332
34451W        W 7519  21.972  24.121   2.369
34452W        W 7520  33.510  41.063   3.789
34453W        W 7521   4.031   1.485  14.721
34454W        W 7522  29.180  31.145   1.963
34455W        W 7523   2.943  25.579  10.571
34456W        W 7524   3.456  14.277   1.705
34457W        W 7525  22.240   8.871   1.247
34458W        W 7526  40.425  18.822  14.015
34459W        W 7527   9.917  11.927   3.309
34460W        W 7528   7.724  36.567  14.420
34461W        W 7529  34.934  27.063   3.683
34462W        W 7530  34.199   8.438  12.199
34463W        W 7531  43.957  27.050  12.381
34464W        W 7532  29.776  12.795   3.430
34465W        W 7533   8.539  42.106   2.832
34466W        W 7534  44.270  35.289  12.812
34467W        W 7535  26.180  14.613   3.583
34468W        W 7536   9.094   4.845   3.246
34469W        W 7537  16.438  19.033   1.610
34470W        W 7538  19.469  40.894  11.136
34471W        W 7539   4.222  38.787   1.409
34472W        W 7540  32.476  32.622   2.233
34473W        W 7541  30.027  13.231  13.313
34474W        W 7542  16.593  16.050  11.547
34475W        W 7543  21.995  18.763  13.413
34476W        W 7544  39.495  22.282  11.490
34477W        W 7545  15.243  24.009  13.936
34478W        W 7546   1.517   0.523  14.916
34479W        W 7547  33.617  43.953   1.267
34480W        W 7548  24.212  15.097   1.130
34481W        W 7549   6.220  43.973  12.087
34482W        W 7550  16.557  17.775   4.196
34483W        W 7551   2.325  42.500   1.322
34484W        W 7552  20.521  17.705  13.960
34485W        W 7553  22.566  22.027  12.368
34486W        W 7554   7.233  36.933   3.709
34487W        W 7555   2.729   7.798  13.227
34488W        W 7556  15.606  12.358  12.419
34489W        W 7557   4.428  35.545   1.250
34490W        W 7558  20.940  19.240  14.007
34491W        W 7559  11.939  21.073   2.776
34492W        W 7560  27.959  23.128  14.714
34493W        W 7561  12.881  13.994   0.014
34494W        W 7562  17.682  35.625  12.648
34495W        W 7563  35.867   5.445  14.933
34496W        W 7564  33.084   1.598  11.078
34497W        W 7565  25.159  32.520  14.687
34498W        W 7566   7.299  24.161  14.501
34499W        W 7567  39.237  29.897   4.609
34500W        W 7568  15.001  38.643   3.260
34501W        W 7569  25.522   4.366  11.988
34502W        W 7570  27.832   0.028   3.234
34503W        W 7571   1.885  27.027   1.343
34504W        W 7572   1.371  13.220   1.835
34505W        W 7573  33.137  35.986  13.363
34506W        W 7574  32.518  37.042   3.310
34507W        W 7575  29.748  16.747   1.350
34508W        W 7576  22.240  22.681   1.130
34509W        W 7577  41.101  16.607  11.527
34510W        W 7578  42.811   5.229  14.856
34511W        W 7579  35.923  11.183   2.652
34512W        W 7580  40.440  33.164  13.945
34513W        W 7581   6.181  43.882  11.569
34514W        W 7582  15.151  21.246   4.641
34515W        W 7583   7.697  36.600  13.344
34516W        W 7584  12.505  31.506  14.748
34517W        W 7585  10.320  17.087  14.351
34518W        W 7586  32.335  41.901  12.609
34519W        W 7587   7.735  21.720   3.159
34520W        W 7588  32.886  24.005   5.002
34521W        W 7589  35.036   7.689  10.782
34522W        W 7590  24.640  29.170   0.040
34523W        W 7591  21.687   9.804   4.087
34524W        W 7592  11.584  31.009   5.071
34525W        W 7593  23.237  14.368   0.449
34526W        W 7594   5.898  28.534  12.647
34527W        W 7595  38.579  41.508  12.871
34528W        W 7596  21.642  28.548   1.734
34529W        W 7597  10.613   5.935  14.672
34530W        W 7598  32.707  44.911  11.377
34531W        W 7599  44.118  41.357  11.131
34532W        W 7600   8.474  41.773   1.270
34533W        W 7601  23.506  43.788   2.808
34534W        W 7602   1.280  32.336   4.420
34535W        W 7603  26.159  31.663  10.887
34536W        W 7604  36.586   2.788   2.711
34537W        W 7605   7.080  44.526  14.966
34538W        W 7606  30.241   2.883   0.442
34539W        W 7607  34.316  24.512   2.262
34540W        W 7608   9.636  10.382   1.115
34541W        W 7609  11.570   9.730  12.476
34542W        W 7610  16.737   5.649   1.184
34543W        W 7611  26.010  27.998   4.360
34544W        W 7612  27.236   6.232   2.702
34545W        W 7613  30.945  36.870  13.971
34546W        W 7614  26.104  23.002  13.406
34547W        W 7615  25.256  29.149   0.871
34548W        W 7616   9.262  32.219  12.511
34549W        W 7617  11.693   8.124   0.295
34550W        W 7618  33.339  37.448  13.473
34551W        W 7619  37.486   8.185   4.623
34552W        W 7620  22.583  11.674   2.765
34553W        W 7621   9.917   5.055   2.732
34554W        W 7622  31.653   2.987  12.082
34555W        W 7623  42.591  19.644  12.211
34556W        W 7624  30.617  15.272  14.960
34557W        W 7625  41.924  18.705   4.940
34558W        W 7626  37.679  35.923  11.846
34559W        W 7627  41.705  28.299  13.953
34560W        W 7628  36.457  19.034   1.992
34561W        W 7629  16.140  17.994   0.460
34562W        W 7630  29.928  42.767  14.341
34563W        W 7631   5.168   9.120   2.833
34564W        W 7632  36.825  15.194   4.260
34565W        W 7633  33.100   3.280   1.784
34566W        W 7634  12.008  14.525   2.803
34567W        W 7635  21.257  13.325  11.539
34568W        W 7636  15.817  40.347   2.515
34569W        W 7637  30.666   4.260  14.586
34570W        W 7638   5.814  13.897   1.654
34571W        W 7639  18.132  21.114  10.695
34572W        W 7640  31.951   0.946  14.549
34573W        W 7641  30.168  39.427  10.735
34574W        W 7642  43.512   1.269   2.201
34575W        W 7643  35.348  36.427  14.456
34576W        W 7644  32.072  32.466   4.831
34577W        W 7645   5.504  24.072   4.339
34578W        W 7646   0.577  33.698  13.696
34579W        W 7647  15.277   6.454   0.706
34580W        W 7648  43.732   8.224  10.641
34581W        W 7649   2.678   1.891  14.991
34582W        W 7650   2.236  19.657   2.687
34583W        W 7651   0.289  17.181   3.667
34584W        W 7652  33.995   2.438  12.507
34585W        W 7653   7.951   4.368   0.333
34586W        W 7654  15.503  10.528   3.409
34587W        W 7655  27.712   4.032  12.399
34588W        W 7656  15.264  23.992   2.200
34589W        W 7657  43.955  42.464   0.765
34590W        W 7658  22.533   4.982  14.289
34591W        W 7659  10.210  23.160  11.924
34592W        W 7660  28.887   1.796   2.099
34593W        W 7661  21.606  38.603  13.753
34594W        W 7662  25.042   9.828   0.300
34595W        W 7663  38.527   2.431   0.207
34596W        W 7664  25.048  10.279  10.753
34597W        W 7665  38.305   4.745   0.917
34598W        W 7666  30.418  16.155  13.442
34599W        W 7667  24.434  15.121  12.572
34600W        W 7668   0.569   7.740   0.326
34601W        W 7669   9.350  28.095  11.687
34602W        W 7670  12.721  15.959  13.469
34603W        W 7671   4.215  11.968   3.139
34604W        W 7672  36.406  29.123   2.368
34605W        W 7673  40.990   2.673  13.865
34606W        W 7674   5.761  31.040  11.466
34607W        W 7675  35.150  27.679   1.344
34608W        W 7676   4.490   7.756   1.833
34609W        W 7677  32.024  43.244   0.505
34610W        W 7678  44.478  22.984  14.263
34611W        W 7679  36.604  12.404   0.290
34612W        W 7680  20.644   7.190   0.846
34613W        W 7681  17.818  10.936   0.080
34614W        W 7682  39.089   3.950  12.324
34615W        W 7683  36.079  23.707  12.757
34616W        W 7684  20.052  31.204   1.216
34617W        W 7685  10.241  33.591   3.125
34618W        W 7686  22.118  29.581   3.821
34619W        W 7687  16.510  22.433   2.398
34620W        W 7688  36.047  20.019  13.811
34621W        W 7689  31.461  35.931  14.551
34622W        W 7690  10.251   6.179   4.485
34623W        W 7691  26.717  21.451  11.115
34624W        W 7692  36.515  41.552   2.664
34625W        W 7693   6.682   4.477  13.405
34626W        W 7694   2.304  38.981  12.757
34627W        W 7695   7.942  16.563  14.929
34628W        W 7696   0.194  37.479   2.170
34629W        W 7697   6.224  44.271   0.087
34630W        W 7698   5.794   4.727  11.559
34631W        W 7699  26.525  33.139  13.975
34632W        W 7700  10.685  29.989   3.600
34633W        W 7701   4.672   7.894   3.242
34634W        W 7702   7.277  20.699  13.403
34635W        W 7703  25.173  38.340   4.172
34636W        W 7704  12.678  36.880   4.496
34637W        W 7705  39.060  41.781  11.661
34638W        W 7706  32.892  32.038   4.713
34639W        W 7707  26.860  28.119  10.493
34640W        W 7708  38.802  34.890  11.540
34641W        W 7709  34.935  10.825  12.764
34642W        W 7710   8.417  18.716  14.741
34643W        W 7711  26.965  10.256   2.834
34644W        W 7712   0.000  14.363   5.153
34645W        W 7713  28.032  20.275   0.887
34646W        W 7714  22.078  41.078  14.960
34647W        W 7715  38.819  12.855   0.907
34648W        W 7716  39.920  13.495  13.922
34649W        W 7717  43.157  22.626  10.111
34650W        W 7718   7.870  15.057  13.450
34651W        W 7719  32.694   0.404  11.154
34652W        W 7720  10.741  30.492   3.466
34653W        W 7721  26.951  43.199  13.472
34654W        W 7722  42.638  27.542   3.774
34655W        W 7723  20.642  12.069   0.003
34656W        W 7724   9.310  19.516   1.127
34657W        W 7725  21.983  13.449   0.438
34658W        W 7726  16.952  14.225  11.205
34659W        W 7727  43.455  14.481  12.535
34660W        W 7728   7.547   6.878  14.771
34661W        W 7729  16.776  44.895   4.119
34662W        W 7730  37.790  10.710  12.392
34663W        W 7731  25.954  34.292  12.112
34664W        W 7732  40.838  26.971   4.703
34665W        W 7733  43.806  10.201  12.637
34666W        W 7734  21.292   8.431  13.300
34667W        W 7735  15.719  27.383  13.821
34668W        W 7736  35.026   5.863  10.633
34669W        W 7737  14.796  19.513   3.082
34670W        W 7738  26.645  35.596  11.390
34671W        W 7739  41.451   7.525   0.848
34672W        W 7740  14.169  35.986  14.476
34673W        W 7741   0.985  18.482   0.901
34674W        W 7742   1.328  42.809   3.579
34675W        W 7743   9.059  33.272   4.249
34676W        W 7744  21.307  33.959   3.672
34677W        W 7745  20.790   4.844   2.361
34678W        W 7746  18.161  14.212   0.822
34679W        W 7747  38.099   2.348  11.148
34680W        W 7748  29.575   4.802   2.006
34681W        W 7749  26.381   2.911   2.822
34682W        W 7750   3.279  11.872  11.383
34683W        W 7751  30.631  28.721   2.607
34684W        W 7752  23.362  21.157   4.676
34685W        W 7753  44.604   4.047  13.105
34686W        W 7754  38.974  11.247  11.016
34687W        W 7755  27.692  32.398   2.149
34688W        W 7756  34.677   6.791   4.378
34689W        W 7757  33.613  22.112  12.957
34690W        W 7758  10.899  37.587  11.578
34691W        W 7759  31.841  23.188   3.773
34692W        W 7760  26.062   9.586   4.529
34693W        W 7761  11.790  39.930   4.956
34694W        W 7762  15.810  44.236  13.578
34695W        W 7763  23.008  12.759  12.980
34696W        W 7764  24.010  44.962  13.917
34697W        W 7765  18.713  10.768  14.923
34698W        W 7766  17.139  10.642  13.744
34699W        W 7767  36.636  18.381  12.494
34700W        W 7768  42.387  34.053   0.915
34701W        W 7769  22.082   5.478   0.834
34702W        W 7770  43.266  36.994  10.697
34703W        W 7771   8.354  26.185   1.821
34704W        W 7772  17.300  20.938  11.659
34705W        W 7773  28.323  11.119   2.728
34706W        W 7774   3.272  33.560  14.371
34707W        W 7775   2.595  11.616   1.710
34708W        W 7776  15.876  13.771   2.876
34709W        W 7777   2.616  21.391   5.153
34710W        W 7778   1.823  15.820   1.166
34711W        W 7779  16.652  12.979   1.831
34712W        W 7780  15.370  29.032   4.085
34713W        W 7781  43.233  18.123   1.430
34714W        W 7782  20.494   7.096   2.182
34715W        W 7783  42.552  37.090  14.926
34716W        W 7784   5.094  34.518   2.133
34717W        W 7785  40.925  34.102  12.690
34718W        W 7786   8.850  40.536   3.260
34719W        W 7787  28.152  20.470   3.240
34720W        W 7788  32.138  44.943  14.474
34721W        W 7789  28.303  28.867  14.188
34722W        W 7790   1.639  40.470   3.168
34723W        W 7791  37.949   5.115   4.138
34724W        W 7792  24.998   3.884  14.077
34725W        W 7793  37.052   6.475   0.745
34726W        W 7794   4.264  37.589   4.861
34727W        W 7795  26.132  10.407  10.057
34728W        W 7796  28.556   9.548   1.392
34729W        W 7797  25.127  27.648   2.469
34730W        W 7798  35.522  21.364   2.987
34731W        W 7799  26.212   1.281   2.168
34732W        W 7800  12.137  32.616   1.872
34733W        W 7801  15.299  43.412   0.286
34734W        W 7802   3.268  32.311   2.901
34735W        W 7803   5.890  28.442  14.929
34736W        W 7804  34.301  13.712   1.150
34737W        W 7805  42.473  40.329   3.075
34738W        W 7806  18.140   0.202   2.337
34739W        W 7807  15.106  13.189   2.493
34740W        W 7808  33.882  17.779  14.351
34741W        W 7809  23.310  16.822   2.518
34742W        W 7810  35.485  44.088   3.744
34743W        W 7811  37.832  14.254  14.313
34744W        W 7812  21.100  26.499  11.136
34745W        W 7813  38.867  12.612   1.352
34746W        W 7814  37.352  44.446   3.590
34747W        W 7815  20.942  44.351  14.257
34748W        W 7816  15.609   1.967   3.310
34749W        W 7817  31.615  42.837  12.134
34750W        W 7818  44.622   6.318   2.788
34751W        W 7819   4.195  14.858   1.467
34752W        W 7820   3.141   9.191   2.565
34753W        W 7821   7.483  28.854  11.966
34754W        W 7822  25.086   5.112  10.667
34755W        W 7823  11.735  12.830   4.779
34756W        W 7824  39.832  16.110   4.043
34757W        W 7825   3.949  25.475  11.411
34758W        W 7826  35.648   0.717   0.509
34759W        W 7827  39.464   5.720  14.792
34760W        W 7828  26.189  44.651  11.843
34761W        W 7829  33.944  21.646   1.658
34762W        W 7830  10.218  42.313   3.138
34763W        W 7831  24.964  28.737   0.790
34764W        W 7832  43.847  29.886   0.433
34765W        W 7833   7.392   4.782   4.858
34766W        W 7834  30.659  18.991   0.397
34767W        W 7835  43.725  42.467   0.266
34768W        W 7836   7.825   3.399  13.134
34769W        W 7837  19.757  39.815  10.619
34770W        W 7838   9.795  39.354   2.736
34771W        W 7839  27.595  20.110  12.089
34772W        W 7840  28.183  41.720   3.155
34773W        W 7841  19.285  40.604   0.956
34774W        W 7842  22.970  31.094  11.012
34775W        W 7843   5.698  25.544   4.090
34776W        W 7844   1.082  29.614  12.483
34777W        W 7845   8.707  23.712  11.554
34778W        W 7846  24.242  25.274   1.377
34779W        W 7847  41.952  16.286  14.351
34780W        W 7848  32.857  18.151  12.352
34781W        W 7849  35.457  25.766   4.758
34782W        W 7850  14.070  20.561  14.438
34783W        W 7851  37.912  43.145   1.914
34784W        W 7852  19.998  29.518   1.639
34785W        W 7853   8.440  27.721   3.432
34786W        W 7854  41.421  21.636   0.781
34787W        W 7855   4.530  23.660  14.038
34788W        W 7856  35.920  22.021  14.785
34789W        W 7857   8.257  24.278  12.083
34790W        W 7858  37.295  35.045   4.168
34791W        W 7859  15.653  15.535  11.634
34792W        W 7860   6.462  18.483   3.203
34793W        W 7861  24.968  12.627  14.321
34794W        W 7862  32.527   6.215  12.034
34795W        W 7863   5.438  41.222   2.400
34796W        W 7864  10.636   1.750  13.396
34797W        W 7865  30.747  43.056   9.791
34798W        W 7866  15.243  27.221   1.937
34799W        W 7867  38.510  43.529  13.911
34800W        W 7868  44.014  34.392  14.853
34801W        W 7869  12.359  25.051   2.167
34802W        W 7870  25.502   1.262   0.456
34803W        W 7871  36.378   2.222   1.392
34804W        W 7872  29.576  12.854   2.605
34805W        W 7873  14.116   9.833   3.243
34806W        W 7874  36.823  11.282   2.605
34807W        W 7875  36.986  22.340  13.987
34808W        W 7876  25.938  20.253  10.868
34809W        W 7877  38.111   7.747  10.322
34810W        W 7878  39.064  14.598   4.324
34811W        W 7879  41.798  31.699  13.437
34812W        W 7880  12.314  38.570   0.761
34813W        W 7881  31.244  14.720   3.309
34814W        W 7882  16.772  15.316  10.409
34815W        W 7883  11.203  37.520  11.117
34816W        W 7884   3.660  37.380  13.011
34817W        W 7885  35.352   3.953  13.473
34818W        W 7886  42.366   2.388  12.046
34819W        W 7887   2.826   4.349  10.623
34820W        W 7888  26.007  22.071  11.962
34821W        W 7889  36.916  27.734   0.909
34822W        W 7890  22.595  42.890  12.562
34823W        W 7891  29.238  25.702   3.691
34824W        W 7892   8.762  44.886   4.307
34825W        W 7893   4.792   8.693  10.771
34826W        W 7894  13.116  37.390   0.718
34827W        W 7895   9.283   7.071   1.734
34828W        W 7896  33.006  24.555   2.795
34829W        W 7897  32.367  14.578  13.489
34830W        W 7898  44.563  31.041   2.199
34831W        W 7899  30.174  29.573   2.271
34832W        W 7900  27.199  18.246   3.916
34833W        W 7901  14.808  23.445   2.434
34834W        W 7902  38.361  24.225  14.599
34835W        W 7903  34.132  31.602  12.034
34836W        W 7904  30.282   7.332  11.654
34837W        W 7905  35.840   5.791   1.803
34838W        W 7906   6.817   4.181   4.489
34839W        W 7907  24.590  11.847   1.734
34840W        W 7908  14.167  38.105  14.772
34841W        W 7909  10.509  36.215   3.792
34842W        W 7910   4.758  31.689   1.567
34843W        W 7911   1.764  17.369   1.906
34844W        W 7912  12.739   9.155   3.772
34845W        W 7913  21.536   7.918  11.534
34846W        W 7914   2.491  19.456  13.488
34847W        W 7915   8.461   4.428   3.872
34848W        W 7916  23.685  12.271   2.784
34849W        W 7917   2.981  44.340  11.149
34850W        W 7918  19.793  27.456   0.109
34851W        W 7919  40.967  12.916  10.699
34852W        W 7920   0.227  39.077   1.393
34853W        W 7921  25.977  28.670  14.954
34854W        W 7922  12.219   7.236   4.576
34855W        W 7923  35.499   7.759  11.071
34856W        W 7924  43.743  30.144   0.929
34857W        W 7925  38.885   6.438  11.686
34858W        W 7926  34.419   7.673   3.265
34859W        W 7927   5.866  22.283   0.050
34860W        W 7928  28.175  38.534   0.273
34861W        W 7929  39.942   0.426   0.410
34862W        W 7930   3.499  17.288   5.083
34863W        W 7931  24.002  19.867  11.389
34864W        W 7932  23.166  34.376  12.888
34865W        W 7933  36.482   0.838   4.928
34866W        W 7934   9.917  33.176   4.149
34867W        W 7935  40.047  32.874  11.949
34868W        W 7936  31.005  44.431   3.615
34869W        W 7937   0.526  21.696  11.546
34870W        W 7938  22.696  25.686  14.828
34871W        W 7939  25.496  44.300  14.389
34872W        W 7940  39.849  15.493  13.430
34873W        W 7941  19.694  33.678  11.999
34874W        W 7942  29.554  36.139  14.608
34875W        W 7943  37.393  34.654  14.391
34876W        W 7944   8.540  19.682   4.831
34877W        W 7945  13.655  23.943  12.950
34878W        W 7946  21.575  35.069  14.967
34879W        W 7947   7.332   6.713  11.741
34880W        W 7948  14.792  38.328   3.620
34881W        W 7949   3.827  33.610  14.070
34882W        W 7950  42.546  30.102   0.329
34883W        W 7951  36.398  37.506  11.312
34884W        W 7952  43.640  37.367   2.903
34885W        W 7953  35.305  25.665   2.455
34886W        W 7954   3.640  19.499  11.961
34887W        W 7955  21.306  21.277  13.022
34888W        W 7956  41.793  13.294   2.243
34889W        W 7957  22.854  30.463  14.665
34890W        W 7958   7.039  41.325   5.585
34891W        W 7959  13.649  30.994  11.145
34892W        W 7960  21.351  22.190  13.576
34893W        W 7961  19.078  44.790   4.412
34894W        W 7962   7.774  33.990  14.376
34895W        W 7963  38.349  42.509  11.563
34896W        W 7964  31.073   6.801  14.231
34897W        W 7965  40.089   8.072  12.820
34898W        W 7966   3.311  29.179  12.061
34899W        W 7967  15.997  19.935  11.471
34900W        W 7968  41.053  16.688   2.435
34901W        W 7969  41.364  12.670  12.185
34902W        W 7970   7.789  15.104   3.018
34903W        W 7971  21.691  27.521   1.410
34904W        W 7972  42.197   9.419  13.435
34905W        W 7973  44.573  40.540  14.024
34906W        W 7974  42.273  44.562   2.126
34907W        W 7975  33.836  10.661  13.452
34908W        W 7976  26.959  13.575   4.076
34909W        W 7977   5.534  44.865  13.821
34910W        W 7978  34.605  13.545  11.436
34911W        W 7979  44.197  10.860  13.334
34912W        W 7980  10.286  25.572   4.574
34913W        W 7981  20.036   3.322   4.686
34914W        W 7982  37.848  42.423   0.900
34915W        W 7983  30.862  19.485   0.285
34916W        W 7984   3.446   0.345  12.661
34917W        W 7985  24.718  10.249  13.311
34918W        W 7986  35.495   5.210  13.787
34919W        W 7987   3.206   7.888  11.420
34920W        W 7988  25.117  37.791   4.178
34921W        W 7989  39.965  37.609  11.115
34922W        W 7990  38.277  13.891  10.680
34923W        W 7991  39.388   0.898  10.213
34924W        W 7992  18.540  27.367  12.780
34925W        W 7993  22.697  27.516  13.200
34926W        W 7994  24.196  20.626  11.964
34927W        W 7995  31.947  37.557  13.873
34928W        W 7996   0.934  32.436   1.241
34929W        W 7997  39.770  22.353   1.863
34930W        W 7998  31.019   5.208  12.952
34931W        W 7999  34.412  12.897   4.226
34932W        W 8000  39.379   8.437   0.752
34933W        W 8001  15.767  30.400  10.185
34934W        W 8002   6.675  16.165  13.601
34935W        W 8003   3.500  25.220   3.222
34936W        W 8004  32.559  14.807  13.081
34937W        W 8005   4.406   5.744   0.395
34938W        W 8006  22.926  41.781  10.723
34939W        W 8007  15.359  32.320   4.613
34940W        W 8008  12.723  19.002  14.982
34941W        W 8009  20.014  43.165  10.747
34942W        W 8010   9.158   5.699  12.570
34943W        W 8011  10.390  40.508   3.329
34944W        W 8012  19.181  33.823  12.088
34945W        W 8013  11.614  15.539   2.598
34946W        W 8014  22.661  35.382   4.162
34947W        W 8015  43.768  30.534  11.596
34948W        W 8016  17.331  23.270   3.168
34949W        W 8017  24.726  12.356  12.573
34950W        W 8018  27.945  26.398  14.473
34951W        W 8019   5.207  23.500   1.108
34952W        W 8020  17.502  13.203  14.543
34953W        W 8021  30.855   5.890   1.956
34954W        W 8022  24.622  29.712  12.530
34955W        W 8023  29.114  29.706   2.248
34956W        W 8024  40.884  44.217  12.371
34957W        W 8025  15.064  16.514   2.330
34958W        W 8026   8.959  19.950   1.805
34959W        W 8027  42.970  10.321   0.762
34960W        W 8028  28.633   6.144  10.742
34961W        W 8029   9.347  25.402   1.246
34962W        W 8030  27.680  19.028   0.706
34963W        W 8031  35.979  36.274   2.775
34964W        W 8032  42.266  11.725  12.400
34965W        W 8033  14.650  28.572   0.987
34966W        W 8034   7.811  33.547   0.070
34967W        W 8035   2.253  39.731   2.683
34968W        W 8036  35.342  33.345  11.554
34969W        W 8037  23.933   3.990   1.335
34970W        W 8038  28.744  11.890   5.715
34971W        W 8039  19.194  18.107  10.613
34972W        W 8040  29.660  13.776   2.647
34973W        W 8041  25.467  13.144   2.244
34974W        W 8042  11.689   7.279   5.321
34975W        W 8043  37.406  12.541  10.790
34976W        W 8044  28.156  39.774  12.963
34977W        W 8045   3.490  36.803  11.080
34978W        W 8046   1.410  44.957   3.068
34979W        W 8047  24.403  17.793  10.199
34980W        W 8048  44.004   8.362   4.526
34981W        W 8049  34.115  39.302   2.790
34982W        W 8050   5.918  37.282  12.498
34983W        W 8051  36.110  20.531  13.851
34984W        W 8052  14.754  12.682   2.362
34985W        W 8053   2.996   9.386   4.545
34986W        W 8054  20.828  13.355  14.826
34987W        W 8055  31.503  22.604  12.754
34988W        W 8056  20.759  32.564   2.127
34989W        W 8057  13.325  34.004  14.870
34990W        W 8058   0.698   8.814   5.081
34991W        W 8059  34.407  18.716  13.121
34992W        W 8060  16.098  20.125  10.655
34993W        W 8061  28.415  31.977  13.387
34994W        W 8062   7.229  33.298  11.597
34995W        W 8063   5.348  15.241  14.685
34996W        W 8064  41.433   5.521  10.561
34997W        W 8065  10.725  43.865   1.698
34998W        W 8066  41.526  13.295   2.686
34999W        W 8067  25.550  24.409   1.881
35000W        W 8068  33.792   2.400  11.114
35001W        W 8069  22.608  12.338  13.582
35002W        W 8070  36.496  27.005  11.563
35003W        W 8071  35.324  13.387  12.060
35004W        W 8072  33.052   7.149   3.902
35005W        W 8073  16.847  34.119   4.479
35006W        W 8074   9.122   7.721  14.362
35007W        W 8075  11.710  15.879   1.758
35008W        W 8076  23.029  23.737  11.453
35009W        W 8077   6.897  33.335   0.996
35010W        W 8078  36.343  14.753   2.144
35011W        W 8079  10.662  14.700   0.805
35012W        W 8080  27.517  24.215  11.525
35013W        W 8081  38.781  15.383   0.697
35014W        W 8082  42.045  21.588  10.742
35015W        W 8083  37.980  40.261  14.266
35016W        W 8084  40.290  30.905   4.807
35017W        W 8085  15.890   1.523  11.384
35018W        W 8086  26.105  30.242  13.494
35019W        W 8087  25.648  42.879  12.557
35020W        W 8088  27.463  36.530  13.932
35021W        W 8089  26.773   7.796  14.766
35022W        W 8090  21.010  23.037  14.809
35023W        W 8091  43.986  22.104   2.863
35024W        W 8092  33.790  10.136   5.287
35025W        W 8093   8.665  11.321  14.311
35026W        W 8094   7.288  13.661  14.299
35027W        W 8095  20.798  36.204   0.936
35028W        W 8096  25.259  39.898  13.580
35029W        W 8097  34.011   4.394   0.659
35030W        W 8098  16.869  11.280  13.035
35031W        W 8099  14.773  32.994  10.630
35032W        W 8100   2.462  41.311   0.206
35033W        W 8101  19.460  11.450  14.785
35034W        W 8102  19.991  25.619  13.838
35035W        W 8103   0.548  27.195  11.540
35036W        W 8104  29.037  29.120   0.268
35037W        W 8105  35.439  16.425  13.533
35038W        W 8106  43.235   2.447   4.406
35039W        W 8107  33.013  11.258   1.338
35040W        W 8108  35.963  14.626   3.995
35041W        W 8109   9.083   4.717   4.136
35042W        W 8110  38.621  43.601  12.285
35043W        W 8111   6.855  35.579  13.938
35044W        W 8112  34.737   8.227   4.611
35045W        W 8113   8.431  29.494  11.792
35046W        W 8114  25.784  36.871   4.419
35047W        W 8115   3.951  18.692  11.519
35048W        W 8116  21.144  16.713  14.839
35049W        W 8117  12.277   9.224  11.018
35050W        W 8118  44.086  30.539  11.125
35051W        W 8119  36.358  20.485  11.316
35052W        W 8120  33.658   9.185  13.467
35053W        W 8121   3.407   3.766  14.945
35054W        W 8122  36.054  16.200   0.711
35055W        W 8123  38.158  33.392   2.347
35056W        W 8124  20.757  13.210   4.751
35057W        W 8125  14.250   2.747   3.803
35058W        W 8126  28.230  11.054   0.919
35059W        W 8127   9.231  28.359   4.155
35060W        W 8128   9.740   3.433  12.958
35061W        W 8129  18.687  17.588   0.281
35062W        W 8130  19.573  22.187   1.372
35063W        W 8131  42.024  29.939  11.623
35064W        W 8132  36.172  12.050  11.167
35065W        W 8133  44.741  26.654   1.506
35066W        W 8134  28.538   8.911  14.502
35067W        W 8135  10.437  40.244   1.940
35068W        W 8136   3.488  27.671  11.756
35069W        W 8137  43.471   7.347  11.938
35070W        W 8138   1.868   4.623   0.878
35071W        W 8139  40.725   0.467   2.714
35072W        W 8140  26.636  29.146   1.754
35073W        W 8141  37.923   4.172  14.461
35074W        W 8142  17.203  34.550  13.430
35075W        W 8143  41.571  31.147  11.967
35076W        W 8144  39.424  36.867  14.198
35077W        W 8145  15.260  44.323   3.586
35078W        W 8146  22.529  25.046   4.010
35079W        W 8147  20.959  20.268  14.776
35080W        W 8148  44.512  41.870  14.315
35081W        W 8149  18.641  11.389  10.467
35082W        W 8150  33.702   2.213  12.127
35083W        W 8151  39.763  40.956  13.954
35084W        W 8152   2.938  36.049   1.702
35085W        W 8153   2.945   4.787  14.862
35086W        W 8154  17.512  34.893   2.779
35087W        W 8155  11.057  42.532  10.413
35088W        W 8156  17.539  28.009   4.888
35089W        W 8157  16.780  17.703   0.128
35090W        W 8158  39.006  28.863  12.643
35091W        W 8159  41.357  32.622  12.085
35092W        W 8160  44.284  24.727  13.552
35093W        W 8161  39.271   0.597   4.541
35094W        W 8162   2.137   7.793   0.502
35095W        W 8163  26.484  37.259   2.200
35096W        W 8164  44.159  11.206   3.210
35097W        W 8165  15.333  30.487  11.687
35098W        W 8166   8.817   4.133   2.789
35099W        W 8167  25.973  26.736   1.776
35100W        W 8168  18.706  23.535   4.718
35101W        W 8169  11.707  26.583  14.817
35102W        W 8170  17.317   0.716  14.934
35103W        W 8171   5.267  16.954   2.347
35104W        W 8172  17.515  35.471   2.222
35105W        W 8173  29.830  23.703  14.056
35106W        W 8174  42.044   7.228   2.414
35107W        W 8175   4.827  31.484  10.539
35108W        W 8176   1.692  40.327  12.435
35109W        W 8177   3.200  30.012  10.852
35110W        W 8178  21.240  33.714  14.882
35111W        W 8179  35.584   2.678  11.605
35112W        W 8180  18.649  43.284   2.200
35113W        W 8181  41.444  13.821  11.387
35114W        W 8182  30.955   4.889  10.973
35115W        W 8183  26.119  39.589  13.947
35116W        W 8184   8.426  19.171  12.443
35117W        W 8185   2.878  36.973   3.895
35118W        W 8186  36.607  40.473   4.090
35119W        W 8187  14.508  37.258  11.646
35120W        W 8188   6.283  44.448   2.429
35121W        W 8189   2.894   0.028   1.780
35122W        W 8190   7.376  43.937  13.404
35123W        W 8191  43.400  19.764   4.620
35124W        W 8192  42.459  32.941  14.351
35125W        W 8193  39.387  34.010   2.658
35126W        W 8194   4.841  31.907   4.202
35127W        W 8195  16.756   4.915   2.646
35128W        W 8196  44.770  43.359  12.636
35129W        W 8197  14.529   3.155   2.769
35130W        W 8198  19.739  27.393   2.825
35131W        W 8199  29.426  38.994  11.535
35132W        W 8200  40.563  28.426  14.338
35133W        W 8201   3.435  42.524  10.166
35134W        W 8202  24.448  35.596   4.319
35135W        W 8203  20.580   7.746   4.043
35136W        W 8204   8.378  13.279   1.901
35137W        W 8205   6.705  30.431  12.061
35138W        W 8206  25.181   2.525   4.565
35139W        W 8207  38.797   6.333   1.285
35140W        W 8208  34.108  30.092  14.742
35141W        W 8209  43.405  13.751  11.019
35142W        W 8210  22.760  39.185   2.151
35143W        W 8211  44.203  30.425   1.785
35144W        W 8212  32.640  18.794  11.971
35145W        W 8213  29.085   2.399   2.915
35146W        W 8214  33.930  16.143  10.621
35147W        W 8215   2.187  42.438   3.356
35148W        W 8216  14.950  18.285   0.521
35149W        W 8217  42.335  17.491   2.987
35150W        W 8218  42.235   5.572  10.622
35151W        W 8219   2.516  24.483   3.671
35152W        W 8220  41.964  25.557   0.541
35153W        W 8221  13.135   6.344   2.929
35154W        W 8222  36.206  26.506  13.012
35155W        W 8223  40.953  37.188   4.859
35156W        W 8224  26.451  11.172   4.163
35157W        W 8225  10.326   2.793  14.124
35158W        W 8226  28.022  33.077  14.791
35159W        W 8227  29.197   8.595  14.771
35160W        W 8228  43.350  29.798   1.788
35161W        W 8229   9.514   6.731   4.979
35162W        W 8230  17.120   2.714  10.645
35163W        W 8231   8.275  34.516   3.083
35164W        W 8232  20.993  42.465  13.590
35165W        W 8233   0.461  16.337  14.328
35166W        W 8234   8.607   8.298   3.974
35167W        W 8235  15.032  44.384  13.830
35168W        W 8236  27.613  19.112   2.898
35169W        W 8237  14.076  23.663   2.570
35170W        W 8238   4.337  33.350  10.772
35171W        W 8239   9.437  12.166   3.190
35172W        W 8240  17.480  37.942  10.629
35173W        W 8241  10.147  17.738   0.473
35174W        W 8242  28.740  31.328  11.687
35175W        W 8243  15.222  32.981  12.340
35176W        W 8244  11.515  35.591   3.241
35177W        W 8245  43.514   3.152  10.748
35178W        W 8246  41.321  19.477  12.974
35179W        W 8247  10.759  23.940  10.228
35180W        W 8248  39.794   9.643   4.701
35181W        W 8249  23.525  27.402  10.724
35182W        W 8250  11.625   1.463  14.956
35183W        W 8251  39.927  32.453  12.568
35184W        W 8252  11.157  11.596  14.940
35185W        W 8253  40.072  28.589   3.926
35186W        W 8254  28.643  14.811   2.898
35187W        W 8255   8.682  40.733  12.034
35188W        W 8256  38.316  28.005   4.292
35189W        W 8257   7.910  26.436   1.839
35190W        W 8258  20.775  25.004  13.453
35191W        W 8259  24.196  29.319   3.295
35192W        W 8260   2.285  27.908  14.958
35193W        W 8261  34.938   8.616   3.608
35194W        W 8262  38.339  37.070   2.243
35195W        W 8263  19.005  34.975   1.945
35196W        W 8264   5.978  15.306   2.583
35197W        W 8265  21.761  37.802  13.409
35198W        W 8266  28.432  15.654   4.665
35199W        W 8267   0.185   3.906   3.803
35200W        W 8268   6.721  41.833  13.381
35201W        W 8269  41.569  26.365  14.806
35202W        W 8270  28.448  19.277   2.922
35203W        W 8271  24.472  18.161   2.364
35204W        W 8272  37.854  37.940   3.189
35205W        W 8273   4.280   5.056   3.151
35206W        W 8274  20.509  31.539  10.722
35207W        W 8275   9.589  20.787  12.073
35208W        W 8276  21.746  25.062  11.150
35209W        W 8277  31.967  28.892   3.191
35210W        W 8278  11.769   7.895  14.821
35211W        W 8279  20.175  21.013   4.550
35212W        W 8280  22.773   3.197   3.738
35213W        W 8281  43.540  17.715   4.584
35214W        W 8282  42.555  13.495   5.064
35215W        W 8283  29.689   6.985   4.500
35216W        W 8284   0.347   7.435  11.555
35217W        W 8285  42.896  41.913  11.825
35218W        W 8286   7.012  42.239  13.489
35219W        W 8287  42.652  33.554  14.062
35220W        W 8288  11.736  14.701  12.580
35221W        W 8289  44.791  39.784  14.330
35222W        W 8290  26.528  30.942   3.105
35223W        W 8291  14.844   3.949   1.866
35224W        W 8292   9.500  27.630   0.313
35225W        W 8293  13.173  10.604  11.680
35226W        W 8294   6.673  24.089   1.369
35227W        W 8295  12.792  18.160  13.259
35228W        W 8296  39.988  23.753   2.395
35229W        W 8297  37.553  29.984   4.207
35230W        W 8298  12.739  35.978   1.418
35231W        W 8299  37.807   4.334   1.789
35232W        W 8300  19.071  24.618  10.638
35233W        W 8301  39.803   4.993  14.495
35234W        W 8302  43.509  26.729  13.846
35235W        W 8303  14.268  38.970   2.969
35236W        W 8304   3.840  40.800  14.888
35237W        W 8305   6.680  41.972   5.229
35238W        W 8306  21.030  26.456   0.403
35239W        W 8307  30.039  39.818  12.593
35240W        W 8308  41.781  32.584   2.828
35241W        W 8309  24.448  15.139   3.939
35242W        W 8310   1.306  40.566  12.758
35243W        W 8311  18.481  15.579   3.643
35244W        W 8312   4.898  10.315  12.117
35245W        W 8313  25.246  20.531   2.347
35246W        W 8314  19.735   8.380   1.494
35247W        W 8315  21.286  44.728  12.369
35248W        W 8316  39.955  13.985  10.232
35249W        W 8317  19.090   1.181   5.012
35250W        W 8318  44.774  30.108  14.422
35251W        W 8319  15.252  20.540  13.206
35252W        W 8320  39.535   1.152  12.608
35253W        W 8321  17.890  38.627  11.942
35254W        W 8322  10.309  14.265  11.711
35255W        W 8323   6.388  39.662  10.630
35256W        W 8324  26.256   4.474  11.053
35257W        W 8325  17.224  28.229   4.543
35258W        W 8326  18.213  30.512   2.395
35259W        W 8327  17.440  38.016  11.550
35260W        W 8328  18.097  36.379  14.960
35261W        W 8329  20.649  28.019  10.534
35262W        W 8330  32.792  10.978   2.849
35263W        W 8331  44.379  23.955  14.323
35264W        W 8332  22.166  14.783   3.127
35265W        W 8333   9.221  14.845  13.437
35266W        W 8334  33.540   1.756  14.513
35267W        W 8335  40.937  29.073  12.902
35268W        W 8336   4.476   5.272   2.174
35269W        W 8337  44.028  24.251  14.585
35270W        W 8338  34.974  34.547  14.315
35271W        W 8339  12.496  10.655  12.526
35272W        W 8340  36.003  39.833  12.460
35273W        W 8341  40.345   6.627  13.420
35274W        W 8342  16.546  43.497   4.537
35275W        W 8343   4.210  34.967  14.325
35276W        W 8344  21.540  33.012  12.809
35277W        W 8345   2.516  20.213   1.467
35278W        W 8346  31.962  42.968  12.525
35279W        W 8347  18.470  30.670   2.822
35280W        W 8348   1.173  17.956  12.883
35281W        W 8349  10.152   2.988  11.985
35282W        W 8350  25.666  17.298  12.930
35283W        W 8351   6.412   8.477  11.452
35284W        W 8352   8.357  22.235   1.657
35285W        W 8353  37.157  32.580   3.418
35286W        W 8354  43.893  10.130   3.326
35287W        W 8355  11.351  22.287   4.150
35288W        W 8356  25.977  27.124   2.777
35289W        W 8357  42.445  33.806   3.371
35290W        W 8358  14.428   8.860  11.623
35291W        W 8359  42.791  10.670  13.523
35292W        W 8360  37.013   1.921   0.926
35293W        W 8361  35.252   6.776  14.394
35294W        W 8362  32.858  32.673  13.102
35295W        W 8363   2.045  15.408   3.492
35296W        W 8364  19.465  43.438   4.604
35297W        W 8365  11.830  40.158  10.778
35298W        W 8366  28.878  43.729   0.771
35299W        W 8367  34.313  22.283   4.123
35300W        W 8368  24.678   5.868  12.711
35301W        W 8369  17.739  10.652  14.101
35302W        W 8370  29.542  13.732  13.053
35303W        W 8371  41.834  34.684   1.735
35304W        W 8372  24.455  41.093   3.012
35305W        W 8373   8.254   1.881  12.945
35306W        W 8374   8.131   7.411  11.708
35307W        W 8375   4.888  25.650  11.010
35308W        W 8376  25.348   7.134   1.307
35309W        W 8377  41.453  44.308  14.871
35310W        W 8378  27.147  25.208  13.919
35311W        W 8379  11.125  21.651   3.881
35312W        W 8380  44.554  33.082   2.839
35313W        W 8381   6.921   3.236   0.235
35314W        W 8382  34.764  19.546   2.832
35315W        W 8383   3.306   9.624   2.820
35316W        W 8384  43.030  30.072   2.754
35317W        W 8385  29.894  41.440  11.577
35318W        W 8386   4.355  40.572   2.408
35319W        W 8387  22.077  24.048  13.991
35320W        W 8388   2.957  44.853  11.932
35321W        W 8389  23.024  26.918   1.380
35322W        W 8390  30.164  34.615  12.096
35323W        W 8391  28.364  22.231  12.835
35324W        W 8392   9.760   6.279  14.990
35325W        W 8393  16.638  42.999   4.620
35326W        W 8394  13.261  10.272   4.345
35327W        W 8395   4.079  19.349   0.397
35328W        W 8396  14.934  25.993  13.411
35329W        W 8397   4.067  31.098   2.637
35330W        W 8398  19.992  36.306  14.926
35331W        W 8399  25.733  32.341  14.894
35332W        W 8400  21.210  20.512  14.364
35333W        W 8401   9.639  13.234  10.681
35334W        W 8402  15.102  32.560  13.558
35335W        W 8403  41.754   5.436   1.690
35336W        W 8404  27.175  37.614  13.419
35337W        W 8405   3.318  35.897  12.014
35338W        W 8406  14.882  12.862   2.821
35339W        W 8407   4.737  40.921   2.112
35340W        W 8408  33.300   8.457  13.876
35341W        W 8409  35.327  14.309  12.999
35342W        W 8410   6.747  10.078  12.055
35343W        W 8411  30.916  16.161  12.503
35344W        W 8412  15.521   8.806  13.149
35345W        W 8413  32.510  24.187   1.722
35346W        W 8414  31.048  25.486   1.660
35347W        W 8415   2.550   6.191  11.096
35348W        W 8416  15.537  25.933   0.717
35349W        W 8417  16.089   0.064   1.803
35350W        W 8418  38.493  13.665   4.345
35351W        W 8419   3.846  12.784  14.107
35352W        W 8420  37.849  18.724  12.855
35353W        W 8421  43.299   0.983  12.255
35354W        W 8422  17.556  38.412   3.269
35355W        W 8423  18.298  42.432   4.094
35356W        W 8424  22.507  30.453  12.101
35357W        W 8425   7.437  33.722   2.659
35358W        W 8426  12.964  24.706   3.697
35359W        W 8427  15.991  29.199   0.566
35360W        W 8428  28.198  19.729  13.838
35361W        W 8429   9.257  16.152   2.225
35362W        W 8430   0.845  10.060   0.410
35363W        W 8431   4.658  24.144   4.661
35364W        W 8432  12.541  38.051   0.773
35365W        W 8433  44.589  41.585   4.308
35366W        W 8434  14.185  24.773  14.603
35367W        W 8435  34.107  39.559   3.219
35368W        W 8436  20.923  29.166   1.816
35369W        W 8437  18.057  41.400   4.089
35370W        W 8438  22.638  37.269  10.856
35371W        W 8439  27.632  31.807  13.812
35372W        W 8440  29.667   6.342   5.066
35373W        W 8441  33.914   7.840  12.428
35374W        W 8442   1.775  36.547  13.518
35375W        W 8443   0.291  33.105   3.189
35376W        W 8444  27.082  26.566   4.535
35377W        W 8445  36.812  13.068   2.722
35378W        W 8446  41.521  38.777  14.486
35379W        W 8447  41.752  39.168  12.676
35380W        W 8448  24.948   9.360   4.126
35381W        W 8449   0.001  28.687   3.739
35382W        W 8450  19.580   1.557   3.971
35383W        W 8451  24.251  25.370   0.879
35384W        W 8452  30.395  39.349  11.669
35385W        W 8453   0.182  34.974   4.278
35386W        W 8454   5.823  27.037  13.155
35387W        W 8455   1.825   1.502   2.703
35388W        W 8456  13.728  16.127   0.613
35389W        W 8457  23.567   8.991  12.393
35390W        W 8458  20.422   6.155   3.701
35391W        W 8459   1.333  38.322  13.016
35392W        W 8460  23.659  28.057   0.018
35393W        W 8461   3.440   3.294  11.070
35394W        W 8462   1.704  32.028   1.274
35395W        W 8463  28.868   3.463  11.582
35396W        W 8464  36.065   3.449   3.286
35397W        W 8465  22.576  23.674   0.085
35398W        W 8466  24.177   1.976   1.384
35399W        W 8467  27.493  35.508  10.787
35400W        W 8468  37.443  24.336   0.925
35401W        W 8469  24.530  42.424  13.918
35402W        W 8470   0.496  16.726   2.663
35403W        W 8471  27.185  26.171  11.107
35404W        W 8472   9.407   2.732  11.213
35405W        W 8473   6.723  36.524  12.018
35406W        W 8474  35.188  36.009   3.755
35407W        W 8475   6.451  33.465   4.542
35408W        W 8476  35.053   6.990  11.419
35409W        W 8477  11.066   4.971   1.775
35410W        W 8478   6.892  20.561  11.165
35411W        W 8479  10.749   6.719   3.685
35412W        W 8480  27.841  42.546   3.730
35413W        W 8481   1.432   3.880  14.399
35414W        W 8482  23.553  26.265  13.630
35415W        W 8483  17.592  39.910  12.070
35416W        W 8484   7.604  21.926   0.250
35417W        W 8485  29.533  43.863  11.985
35418W        W 8486  29.063   1.688  14.842
35419W        W 8487  32.002  20.106   0.780
35420W        W 8488  44.736  35.473  12.891
35421W        W 8489  33.592  10.214   0.329
35422W        W 8490  41.904  17.591   0.820
35423W        W 8491  24.056  11.005   0.341
35424W        W 8492  26.574   0.931  11.562
35425W        W 8493  40.056   5.854  11.149
35426W        W 8494  30.445   7.448   5.020
35427W        W 8495  14.449  26.603   1.428
35428W        W 8496  36.883  32.758  12.248
35429W        W 8497   4.408  34.610  10.302
35430W        W 8498  38.849  28.269   5.081
35431W        W 8499  28.577  25.233  10.759
35432W        W 8500  27.640  21.122  12.083
35433W        W 8501  28.967  29.581  11.631
35434W        W 8502   1.933  11.761   4.130
35435W        W 8503   0.285   5.435  12.378
35436W        W 8504  39.277  35.458   1.399
35437W        W 8505  11.111   8.880  13.077
35438W        W 8506  27.267   1.967   0.171
35439W        W 8507  40.690   0.448  11.630
35440W        W 8508  15.463   6.598   1.729
35441W        W 8509   7.401  12.188   4.133
35442W        W 8510  13.946   1.234  11.907
35443W        W 8511  16.118  23.595  12.949
35444W        W 8512   6.011  13.642  14.797
35445W        W 8513  19.857  15.867   2.811
35446W        W 8514   9.941  44.843   3.605
35447W        W 8515   6.184  15.824  12.453
35448W        W 8516   9.485  12.170   2.390
35449W        W 8517  40.399   2.835   1.625
35450W        W 8518  33.683  33.086   0.833
35451W        W 8519   2.415   2.440   0.495
35452W        W 8520  40.819  38.853  13.915
35453W        W 8521   7.147  29.048   1.390
35454W        W 8522  11.869   4.281  13.338
35455W        W 8523  36.801  28.140   3.239
35456W        W 8524  31.944  20.005  11.579
35457W        W 8525   6.324   2.968  14.909
35458W        W 8526   7.891  36.376   4.368
35459W        W 8527   5.829   3.108   3.387
35460W        W 8528  26.528  18.276   0.330
35461W        W 8529   1.865  31.928  11.496
35462W        W 8530   8.356  40.899   2.744
35463W        W 8531   1.138  12.071   0.313
35464W        W 8532  32.632  12.573   5.212
35465W        W 8533   0.280  39.431   3.408
35466W        W 8534  17.394  26.447   0.655
35467W        W 8535  10.878  41.281   5.063
35468W        W 8536   2.359  35.659   2.298
35469W        W 8537  27.497  16.013  12.975
35470W        W 8538  15.578  38.464   4.099
35471W        W 8539  28.073  25.307  10.873
35472W        W 8540  16.751  19.755   0.819
35473W        W 8541  17.379  39.530  14.024
35474W        W 8542  32.152  14.156  12.075
35475W        W 8543   9.986  42.257   9.813
35476W        W 8544  22.482  17.670   5.142
35477W        W 8545   1.750  40.910   2.336
35478W        W 8546   6.356  20.262  14.545
35479W        W 8547  16.129  40.032  13.398
35480W        W 8548  38.986   9.690  12.778
35481W        W 8549   4.449  44.482   1.192
35482W        W 8550  42.463  21.496   4.258
35483W        W 8551  14.850  34.434   3.682
35484W        W 8552  40.454  33.115   2.844
35485W        W 8553   7.856  34.845  13.031
35486W        W 8554  39.403  34.645   3.920
35487W        W 8555  35.825  23.318  11.638
35488W        W 8556  26.950  13.087   0.457
35489W        W 8557  10.239  37.286   4.169
35490W        W 8558  44.751   6.955   2.645
35491W        W 8559   1.218  19.006   2.218
35492W        W 8560   6.318  41.478   4.649
35493W        W 8561  11.387  38.394  14.907
35494W        W 8562   4.855  43.536   3.077
35495W        W 8563  41.969  35.019   4.523
35496W        W 8564  12.843  25.160  11.995
35497W        W 8565  42.215  11.291  13.160
35498W        W 8566   5.175  35.603  12.949
35499W        W 8567  32.048  37.877  13.471
35500W        W 8568  11.266  26.643  12.979
35501W        W 8569  38.453  30.332   1.280
35502W        W 8570   8.881   7.954   4.292
35503W        W 8571   3.343  40.317  13.693
35504W        W 8572  28.215  38.234   1.860
35505W        W 8573   4.412  10.591  14.838
35506W        W 8574  28.670   6.873  14.427
35507W        W 8575  19.238  16.272  10.742
35508W        W 8576  24.633   1.793  13.948
35509W        W 8577  19.697  32.826  13.859
35510W        W 8578  16.190  25.027   0.806
35511W        W 8579  15.650  19.508  14.458
35512W        W 8580  15.558  31.742  13.412
35513W        W 8581   7.196  43.328   0.472
35514W        W 8582  39.349  16.590  13.463
35515W        W 8583  19.546  12.777   3.226
35516W        W 8584  23.500  43.336  14.326
35517W        W 8585  21.282  44.861   3.225
35518W        W 8586  35.553   5.304   4.591
35519W        W 8587  12.626   0.519   3.801
35520W        W 8588  19.782  13.033  12.452
35521W        W 8589  35.296  35.207  12.030
35522W        W 8590   8.416  36.348   4.292
35523W        W 8591  33.100  27.296  11.594
35524W        W 8592  22.657  21.039   0.897
35525W        W 8593  34.926  44.910  14.815
35526W        W 8594  24.769   0.541   5.157
35527W        W 8595  27.882  41.357   4.001
35528W        W 8596   1.224  23.372  12.441
35529W        W 8597  34.917  16.223   3.650
35530W        W 8598  18.671  28.700   2.267
35531W        W 8599   1.973  19.584   1.166
35532W        W 8600  12.557  12.249  10.587
35533W        W 8601   9.156  35.437  10.990
35534W        W 8602  38.378  12.755   1.252
35535W        W 8603   6.212  25.632   1.936
35536W        W 8604  29.401   8.127  14.615
35537W        W 8605  16.030   8.845   9.949
35538W        W 8606  42.398  25.953   2.307
35539W        W 8607  27.933   6.792  14.981
35540W        W 8608  28.466   1.828   3.243
35541W        W 8609   5.778  38.732  10.682
35542W        W 8610  36.513   5.885   2.921
35543W        W 8611  26.714  20.009  11.619
35544W        W 8612  34.619  31.665   2.653
35545W        W 8613  10.913  17.645  11.671
35546W        W 8614  17.025   3.039   1.748
35547W        W 8615   8.912   7.250   0.873
35548W        W 8616  13.313  15.932   0.848
35549W        W 8617   2.452  22.752  12.491
35550W        W 8618   6.869  16.242  10.868
35551W        W 8619  16.050   2.887  13.518
35552W        W 8620  31.062  34.988   3.890
35553W        W 8621   2.725   7.655  14.138
35554W        W 8622   1.107   3.838  11.174
35555W        W 8623  35.081  33.820  11.593
35556W        W 8624   4.217  43.534   1.679
35557W        W 8625  29.887  12.773  12.538
35558W        W 8626  34.159  36.880   2.772
35559W        W 8627  13.149  39.380  10.124
35560W        W 8628  31.602  37.103  13.460
35561W        W 8629  35.987  42.998  13.953
35562W        W 8630  33.971  20.473  11.587
35563W        W 8631  32.175  11.782  12.917
35564W        W 8632  19.578  10.515  14.402
35565W        W 8633  27.094   2.455   0.219
35566W        W 8634  34.049  44.083  13.385
35567W        W 8635   9.076  38.526   1.719
35568W        W 8636  17.909  35.396  13.078
35569W        W 8637   5.187  16.735   3.763
35570W        W 8638  34.925  34.014   1.460
35571W        W 8639  40.244   8.590   2.263
35572W        W 8640  15.840   5.285  13.059
35573W        W 8641  37.354  41.375  12.783
35574W        W 8642  42.037  23.081  13.783
35575W        W 8643   2.840  31.868  11.685
35576W        W 8644  17.791  12.670   0.993
35577W        W 8645  26.272  40.284  11.884
35578W        W 8646   2.379  18.222   1.463
35579W        W 8647   3.200   1.975   1.218
35580W        W 8648  27.591   8.367   0.924
35581W        W 8649  38.542  32.674   4.163
35582W        W 8650  29.194  14.273  11.510
35583W        W 8651  32.912  42.306  14.860
35584W        W 8652  35.097  41.915   2.718
35585W        W 8653   3.270  18.766  13.540
35586W        W 8654  24.493  40.515  11.540
35587W        W 8655  36.096  10.141   0.977
35588W        W 8656   4.390  34.474   3.093
35589W        W 8657  35.481  17.840  13.770
35590W        W 8658  41.767  11.392  10.739
35591W        W 8659   0.931  42.081  11.193
35592W        W 8660   1.854  16.813   3.279
35593W        W 8661  30.037   6.691   4.955
35594W        W 8662  36.334  13.078  14.850
35595W        W 8663  30.050  13.399   3.830
35596W        W 8664  27.681   4.349   3.678
35597W        W 8665   4.788  12.084   2.376
35598W        W 8666   9.098   8.312   1.282
35599W        W 8667   8.161  26.099   0.449
35600W        W 8668  14.748  32.040  11.105
35601W        W 8669  20.114   2.898   4.172
35602W        W 8670   5.585  19.812   0.934
35603W        W 8671  43.473  26.863  11.512
35604W        W 8672  33.447  41.761  13.430
35605W        W 8673  40.546  11.163   4.687
35606W        W 8674  13.879  28.021  10.741
35607W        W 8675  35.541  19.757   4.149
35608W        W 8676  16.205  42.499   1.417
35609W        W 8677   2.205  41.061   3.725
35610W        W 8678  30.468  29.438  11.605
35611W        W 8679   4.641  35.129  11.999
35612W        W 8680  18.227  29.620  12.574
35613W        W 8681  38.025  27.100   2.696
35614W        W 8682  10.047  22.619  10.304
35615W        W 8683  38.321   7.924   1.400
35616W        W 8684  25.075  28.044   4.526
35617W        W 8685  11.742  23.759  12.904
35618W        W 8686  24.756  16.874   4.303
35619W        W 8687   6.228  17.816   4.168
35620W        W 8688  20.167  20.161  13.739
35621W        W 8689  12.151  33.145   1.823
35622W        W 8690   4.883  29.255   9.944
35623W        W 8691  20.525  27.463   0.008
35624W        W 8692  30.012  34.874  13.476
35625W        W 8693  13.123  17.518  13.471
35626W        W 8694  27.070   1.730  13.271
35627W        W 8695  20.830   1.436   4.166
35628W        W 8696  27.685  29.625  12.895
35629W        W 8697  30.641   8.866  10.731
35630W        W 8698  18.638  32.627  14.180
35631W        W 8699  42.815  25.670  13.003
35632W        W 8700   8.775  33.653   1.246
35633W        W 8701  27.405  22.775   0.846
35634W        W 8702  32.039  21.794  12.320
35635W        W 8703   2.278  13.092   3.210
35636W        W 8704  41.520   1.907   1.754
35637W        W 8705  27.947  22.470  13.066
35638W        W 8706  37.357   9.604  11.949
35639W        W 8707  26.518  42.106  11.838
35640W        W 8708  12.888  35.326  11.406
35641W        W 8709  41.791   1.985  10.713
35642W        W 8710   0.311  12.270   3.692
35643W        W 8711  41.498  38.160  11.092
35644W        W 8712  35.146  35.386  14.460
35645W        W 8713   0.936  32.143  12.993
35646W        W 8714  20.989   5.283   2.967
35647W        W 8715   2.320  13.778   1.178
35648W        W 8716  11.262  15.773  10.389
35649W        W 8717  29.052   5.818  10.677
35650W        W 8718   0.768   1.208  10.609
35651W        W 8719  39.983  31.412  12.521
35652W        W 8720   4.188  40.944  11.552
35653W        W 8721   0.654  33.180  12.895
35654W        W 8722  38.875  16.057   3.190
35655W        W 8723  16.215  18.950  10.662
35656W        W 8724   4.733  14.807   3.257
35657W        W 8725  36.350  41.371   3.604
35658W        W 8726   2.779  35.175  12.040
35659W        W 8727   6.705  12.855   3.666
35660W        W 8728  26.680  17.268  13.879
35661W        W 8729  37.472  42.297   4.271
35662W        W 8730  20.986  41.423   1.948
35663W        W 8731  38.676  41.487   1.239
35664W        W 8732  37.438  37.590   0.179
35665W        W 8733   5.825  18.829   0.583
35666W        W 8734  43.832  36.107  14.437
35667W        W 8735  29.915  11.069  13.543
35668W        W 8736  20.428  26.192  14.353
35669W        W 8737  15.346  22.096  13.934
35670W        W 8738   1.885  31.901  13.239
35671W        W 8739   8.264  37.856  14.848
35672W        W 8740   6.184  25.392   4.258
35673W        W 8741  27.042  22.620  11.558
35674W        W 8742  11.058  44.395  10.961
35675W        W 8743  42.434  26.414  13.575
35676W        W 8744  11.702  40.436   4.088
35677W        W 8745  21.102  32.451  12.972
35678W        W 8746  14.235  25.269  14.758
35679W        W 8747   8.590   3.370   4.420
35680W        W 8748   6.925  40.999   3.027
35681W        W 8749  43.443  33.948   2.608
35682W        W 8750  20.968  35.927  14.921
35683W        W 8751  23.254  11.851  12.429
35684W        W 8752  12.347  41.560   1.949
35685W        W 8753  14.652  29.623  13.788
35686W        W 8754   4.956  25.163   0.844
35687W        W 8755  41.034  11.231   2.635
35688W        W 8756  34.008  12.710  12.429
35689W        W 8757  39.879   2.391  10.427
35690W        W 8758  31.404   1.888  14.619
35691W        W 8759  34.479  12.570  13.530
35692W        W 8760  23.659  19.307   2.369
35693W        W 8761  11.556  36.533   1.780
35694W        W 8762  43.190  44.379   3.329
35695W        W 8763   4.364  22.003  13.442
35696W        W 8764  28.861   8.344  12.751
35697W        W 8765  16.600  17.020   2.857
35698W        W 8766  30.906  29.069  14.260
35699W        W 8767  25.007   0.460  13.514
35700W        W 8768  29.525  21.289  14.437
35701W        W 8769  22.276  36.343  11.293
35702W        W 8770   2.116  38.913  13.253
35703W        W 8771  26.024  22.459  11.190
35704W        W 8772  43.472  23.140  10.685
35705W        W 8773  12.510  32.570   3.191
35706W        W 8774  15.099  26.413   0.302
35707W        W 8775  25.761  15.145   2.875
35708W        W 8776  26.140  22.323   0.851
35709W        W 8777  38.520   6.949  11.643
35710W        W 8778  37.899  10.969   1.466
35711W        W 8779  31.377  30.157  11.958
35712W        W 8780  33.947   9.743   0.440
35713W        W 8781   9.622  27.513  11.114
35714W        W 8782  21.248   1.612  13.509
35715W        W 8783  10.551  32.355  13.877
35716W        W 8784  14.222  42.152  14.955
35717W        W 8785  30.093  32.844  13.528
35718W        W 8786  29.470  26.677   1.189
35719W        W 8787  32.639  36.090   3.265
35720W        W 8788  33.419  30.705   1.364
35721W        W 8789  11.805  24.146   3.161
35722W        W 8790   5.455  22.152  10.595
35723W        W 8791  22.320  24.513   2.331
35724W        W 8792  42.700  29.089   4.292
35725W        W 8793   9.887  11.349  12.268
35726W        W 8794  34.498  30.502   1.005
35727W        W 8795   5.629  43.389   2.713
35728W        W 8796  23.103  43.165   0.043
35729W        W 8797  33.832  40.385  14.895
35730W        W 8798  41.818   2.713   1.861
35731W        W 8799  37.483   1.821  13.981
35732W        W 8800  40.163  44.516   3.705
35733W        W 8801   8.200   4.698   4.320
35734W        W 8802  36.485  30.706   3.648
35735W        W 8803  40.238  44.421   5.003
35736W        W 8804  17.088  20.488  13.044
35737W        W 8805  36.778  44.320   4.717
35738W        W 8806  23.258  25.959  13.128
35739W        W 8807  43.915  10.304  14.988
35740W        W 8808  24.474  24.417   0.018
35741W        W 8809  16.575  18.297   3.134
35742W        W 8810  33.651   0.173   0.930
35743W        W 8811  34.644  42.411   0.350
35744W        W 8812  25.279  26.558  10.636
35745W        W 8813  30.683  29.072   4.662
35746W        W 8814  29.025  11.313  13.988
35747W        W 8815  31.173  38.289  11.146
35748W        W 8816  32.700  19.312  12.959
35749W        W 8817  25.633  43.045   3.389
35750W        W 8818   8.284   1.027  10.451
35751W        W 8819  38.594  15.644  12.080
35752W        W 8820  15.310  20.654   1.290
35753W        W 8821  31.110  42.865  12.309
35754W        W 8822   4.912   7.793  13.639
35755W        W 8823  21.983  44.917  11.003
35756W        W 8824  19.247   6.709  10.653
35757W        W 8825   8.391  22.671   1.929
35758W        W 8826  31.957  10.662   2.885
35759W        W 8827  28.818  27.583  12.970
35760W        W 8828  15.269  33.379   3.222
35761W        W 8829  28.402  15.655  12.950
35762W        W 8830  16.544  16.658  13.015
35763W        W 8831  44.770  42.749  14.777
35764W        W 8832  16.707  21.038   2.868
35765W        W 8833  42.503  26.138  12.072
35766W        W 8834  16.737  31.422  11.161
35767W        W 8835   8.339   3.815   4.386
35768W        W 8836   7.882  31.843  10.368
35769W        W 8837  29.175  38.954  12.007
35770W        W 8838  41.339  39.938   0.051
35771W        W 8839   2.511  16.396   4.250
35772W        W 8840   6.180   1.855   5.120
35773W        W 8841   4.196   7.866  11.614
35774W        W 8842   9.559  18.948   4.638
35775W        W 8843  34.935  17.479  12.116
35776W        W 8844  14.850  28.537  14.939
35777W        W 8845  18.074  42.226   1.830
35778W        W 8846  36.906  25.594  13.440
35779W        W 8847  12.660  36.013  12.118
35780W        W 8848  15.692  31.366   2.763
35781W        W 8849  41.478   3.131  14.009
35782W        W 8850  38.388  19.258  11.491
35783W        W 8851  24.494  12.200   3.267
35784W        W 8852  23.959  26.642  11.070
35785W        W 8853  20.587  38.757  11.395
35786W        W 8854  20.572  18.176  14.302
35787W        W 8855  27.000  26.180  13.509
35788W        W 8856  37.294  27.381   0.192
35789W        W 8857  40.111  18.389   0.932
35790W        W 8858  33.658  29.229  14.778
35791W        W 8859  28.290   0.592   0.014
35792W        W 8860   1.902  43.742  11.548
35793W        W 8861  27.427   0.529   0.297
35794W        W 8862  43.216  29.962   2.269
35795W        W 8863  43.678  17.777   3.696
35796W        W 8864   5.774  21.527   2.858
35797W        W 8865  39.956  18.753  12.030
35798W        W 8866  16.593  34.049  12.320
35799W        W 8867   3.175  16.478  10.681
35800W        W 8868  33.306   0.452  12.863
35801W        W 8869  35.963   8.172   2.269
35802W        W 8870   9.223   2.014  13.482
35803W        W 8871  16.984  27.164   3.681
35804W        W 8872  36.278   1.322   0.831
35805W        W 8873  35.260  17.253  10.608
35806W        W 8874  14.047  23.696  11.679
35807W        W 8875  21.906  41.136  13.507
35808W        W 8876   0.301  27.633   4.596
35809W        W 8877  14.077  44.886  11.869
35810W        W 8878  43.103  41.456   4.130
35811W        W 8879  17.281  30.326  11.452
35812W        W 8880   3.937  41.781   4.188
35813W        W 8881  40.799  14.309   3.228
35814W        W 8882  18.770  20.494  11.411
35815W        W 8883  15.879  23.757   4.539
35816W        W 8884  39.253  22.548  14.826
35817W        W 8885  14.351  23.694  13.520
35818W        W 8886  34.830  24.812  11.258
35819W        W 8887  43.834  38.660  11.122
35820W        W 8888  29.702  11.291  14.622
35821W        W 8889  20.587  37.417   1.063
35822W        W 8890  21.636  32.554   4.608
35823W        W 8891  43.158  36.422  12.493
35824W        W 8892   5.929  14.601   3.772
35825W        W 8893   7.326  31.126   1.138
35826W        W 8894  17.335  37.000  10.218
35827W        W 8895  39.826  25.088   4.159
35828W        W 8896  20.420   1.154  10.367
35829W        W 8897  16.638  10.600  12.905
35830W        W 8898  36.345   4.332  12.572
35831W        W 8899  22.617  29.660   5.032
35832W        W 8900  13.613  39.791   2.428
35833W        W 8901  15.188  37.095  12.538
35834W        W 8902   5.970  28.487  12.128
35835W        W 8903  10.611  23.699  11.496
35836W        W 8904   5.920  27.947   1.957
35837W        W 8905  12.703   0.152  13.351
35838W        W 8906   0.417  21.307  11.118
35839W        W 8907  20.587  22.330  12.122
35840W        W 8908  14.363  11.765  11.594
35841W        W 8909   0.422  42.193   3.843
35842W        W 8910  26.492  26.165   0.188
35843W        W 8911  36.236   1.178   3.638
35844W        W 8912  39.827  10.058  14.047
35845W        W 8913   1.368  18.003   1.356
35846W        W 8914  15.537   5.892   1.363
35847W        W 8915  42.150  33.416  13.997
35848W        W 8916   8.785  28.327   3.310
35849W        W 8917  35.886  20.932   1.473
35850W        W 8918   0.020  33.691   3.357
35851W        W 8919  17.842  29.536  10.293
35852W        W 8920   2.499  20.172   2.888
35853W        W 8921  39.845  30.068   1.952
35854W        W 8922  22.995  38.370  12.075
35855W        W 8923  18.030   0.942   1.627
35856W        W 8924  23.533  20.174  12.721
35857W        W 8925  42.407  22.061  12.949
35858W        W 8926   2.934  22.428   3.241
35859W        W 8927  33.148  19.850   3.757
35860W        W 8928  31.874  21.936  10.999
35861W        W 8929  40.651  22.521   1.193
35862W        W 8930  12.864  40.224   1.410
35863W        W 8931  37.487  43.062  12.421
35864W        W 8932   5.856  16.608   4.536
35865W        W 8933  37.514   4.748   1.891
35866W        W 8934  34.141   6.458   1.885
35867W        W 8935  39.848  20.465   0.352
35868W        W 8936  38.494  28.236   4.710
35869W        W 8937  31.978  10.213   3.593
35870W        W 8938  35.406  27.192  12.140
35871W        W 8939  28.963   9.156  14.786
35872W        W 8940  19.999  36.020  13.812
35873W        W 8941  33.133   9.584  11.164
35874W        W 8942  10.807  36.049  12.297
35875W        W 8943   9.865  17.308   2.915
35876W        W 8944  15.921  33.965  10.586
35877W        W 8945  11.818  36.771   4.239
35878W        W 8946  29.178  16.498  12.002
35879W        W 8947  32.512  28.546  10.384
35880W        W 8948  31.909  12.813  12.369
35881W        W 8949  44.330   2.096  10.706
35882W        W 8950  16.780  31.366  12.045
35883W        W 8951  38.005  31.735   1.683
35884W        W 8952  42.976  42.857  10.625
35885W        W 8953  19.675  23.592  12.046
35886W        W 8954  24.515   9.138  13.249
35887W        W 8955  35.937  43.113   3.193
35888W        W 8956  32.014  36.448   1.800
35889W        W 8957  10.438  23.243   0.222
35890W        W 8958  11.211  22.274   4.668
35891W        W 8959   4.293  21.233   1.433
35892W        W 8960  16.271   1.334  13.872
35893W        W 8961  33.036  34.519  14.973
35894W        W 8962  35.465  17.221  12.878
35895W        W 8963  15.717  29.404  14.237
35896W        W 8964  12.330   6.387  12.578
35897W        W 8965  39.797  16.316   2.169
35898W        W 8966  31.353  26.731  10.861
35899W        W 8967  41.160  35.087  13.972
35900W        W 8968  15.868  31.572  13.764
35901W        W 8969  23.109  39.982  10.637
35902W        W 8970   9.434  11.660   2.313
35903W        W 8971  39.932  42.815   4.216
35904W        W 8972  20.254  24.040  12.920
35905W        W 8973  13.909   8.740  12.658
35906W        W 8974  41.095  39.596  13.805
35907W        W 8975   3.243  21.195   0.859
35908W        W 8976  12.678  41.188   2.186
35909W        W 8977   4.707  36.631  12.845
35910W        W 8978  24.217  14.851   4.350
35911W        W 8979  34.859  27.674   4.317
35912W        W 8980  17.808  31.616  13.365
35913W        W 8981  29.139  40.350  11.678
35914W        W 8982   9.261  43.122   3.751
35915W        W 8983   0.994  27.131  12.655
35916W        W 8984  29.500  42.513   3.057
35917W        W 8985   9.367  40.799   2.777
35918W        W 8986  43.290   2.369   3.896
35919W        W 8987  34.066  22.678  11.962
35920W        W 8988   5.716  39.758   3.644
35921W        W 8989   5.824  43.497   3.990
35922W        W 8990  14.293  32.612   2.902
35923W        W 8991  11.215  26.052   4.087
35924W        W 8992  34.959  29.327  11.578
35925W        W 8993   1.107  26.164  14.958
35926W        W 8994  30.072  14.330   3.268
35927W        W 8995  42.834   5.143  11.285
35928W        W 8996  17.830  36.322   2.798
35929W        W 8997   5.457  20.166  12.006
35930W        W 8998  15.351   5.241  12.877
35931W        W 8999   7.779   1.420   2.798
35932W        W 9000  36.697  31.375  10.218
35933W        W 9001  14.829  21.013  13.901
35934W        W 9002  23.681  41.511  14.526
35935W        W 9003   8.289  29.231   2.130
35936W        W 9004  29.593   0.205   2.312
35937W        W 9005  28.622  35.034   1.439
35938W        W 9006  38.286   3.727   0.327
35939W        W 9007  44.817  39.339   0.491
35940W        W 9008   3.516   5.145   1.279
35941W        W 9009  44.562  10.883  11.587
35942W        W 9010  11.559  25.266  10.220
35943W        W 9011  20.629   1.816  11.158
35944W        W 9012  42.476  31.087   2.829
35945W        W 9013   5.811  38.548  12.451
35946W        W 9014  16.862  19.072   1.321
35947W        W 9015  36.423   1.469  14.431
35948W        W 9016  25.486   9.158  14.925
35949W        W 9017  11.563  27.156   2.792
35950W        W 9018   8.177  27.698   4.052
35951W        W 9019  20.568  30.579  13.617
35952W        W 9020   0.539  25.898   0.935
35953W        W 9021  19.530  17.836   2.834
35954W        W 9022  41.377   2.903  11.386
35955W        W 9023  29.715  41.323   0.188
35956W        W 9024  20.797  43.063  10.718
35957W        W 9025   8.152  38.980  12.338
35958W        W 9026  39.387   2.464  14.706
35959W        W 9027  15.378  41.712   4.945
35960W        W 9028  18.674  22.885   0.746
35961W        W 9029  34.853  13.802  10.669
35962W        W 9030  16.708  18.584   4.564
35963W        W 9031  31.105  27.446  13.524
35964W        W 9032  10.111  16.103   0.326
35965W        W 9033  16.077   5.922  14.993
35966W        W 9034  44.955   9.892  11.508
35967W        W 9035  37.249  35.436   4.525
35968W        W 9036  26.626   0.833   1.673
35969W        W 9037   3.830   0.195   1.670
35970W        W 9038  16.501  30.999  13.274
35971W        W 9039  43.785  31.857  11.829
35972W        W 9040  35.858  35.091  10.517
35973W        W 9041  36.087   8.139  11.187
35974W        W 9042  34.412  24.957   0.827
35975W        W 9043  31.128  42.231  13.307
35976W        W 9044   3.950  10.830  14.723
35977W        W 9045  18.868  10.977   3.355
35978W        W 9046  20.705  37.481  14.867
35979W        W 9047  32.787  43.997   1.946
35980W        W 9048  19.184  44.190  13.994
35981W        W 9049  43.262  38.883  10.263
35982W        W 9050  16.258  37.228  11.082
35983W        W 9051   0.957   3.864   2.839
35984W        W 9052  37.019   8.466   2.229
35985W        W 9053  29.735  43.800  13.349
35986W        W 9054  35.134  41.999  14.362
35987W        W 9055  36.937   7.883  13.454
35988W        W 9056   9.756  17.713  10.237
35989W        W 9057   8.117  26.626  11.483
35990W        W 9058   5.883  19.981  13.819
35991W        W 9059  43.796  39.467   0.914
35992W        W 9060  33.994  38.810  12.563
35993W        W 9061  34.059  30.072   1.311
35994W        W 9062  24.245  12.270   0.287
35995W        W 9063  31.506  10.567   2.612
35996W        W 9064  34.052   6.011   1.624
35997W        W 9065  37.317   9.132  11.322
35998W        W 9066  19.511  28.254   0.422
35999W        W 9067  13.714  13.517  13.452
36000W        W 9068  37.302  12.636  13.397
36001W        W 9069   8.483  42.396  13.943
36002W        W 9070  11.435  23.699   4.508
36003W        W 9071  18.989   9.644   3.295
36004W        W 9072  17.763  26.288   4.601
36005W        W 9073  11.678   8.703   1.745
36006W        W 9074  22.734  13.613  14.926
36007W        W 9075  12.402   5.882  11.407
36008W        W 9076  26.547  22.637  10.369
36009W        W 9077   8.438  11.978   3.153
36010W        W 9078  32.539  34.040   0.899
36011W        W 9079   6.272  24.959   3.946
36012W        W 9080  18.715   4.365   2.698
36013W        W 9081  26.177  40.863   3.225
36014W        W 9082  36.480  31.084   2.140
36015W        W 9083   4.364  18.991   4.806
36016W        W 9084  22.662   2.401   0.746
36017W        W 9085  16.562  42.872   1.202
36018W        W 9086  16.696  39.081   3.442
36019W        W 9087  21.213   4.748  14.077
36020W        W 9088  31.581  28.727   2.802
36021W        W 9089  14.102   6.377   0.924
36022W        W 9090  13.320   5.450   2.663
36023W        W 9091  16.436  32.593   4.598
36024W        W 9092  44.677   1.800  11.499
36025W        W 9093  29.391  22.231   2.593
36026W        W 9094   8.581  21.827  12.473
36027W        W 9095   0.401   9.374   1.830
36028W        W 9096  31.938  15.216  13.405
36029W        W 9097  27.060  27.193  13.422
36030W        W 9098  10.661   0.060  11.933
36031W        W 9099  29.267  40.782  14.471
36032W        W 9100  16.165  17.016  10.704
36033W        W 9101  15.726   8.331   4.737
36034W        W 9102  31.045  42.652  11.110
36035W        W 9103  15.077  38.006  14.315
36036W        W 9104  13.269  37.694   2.520
36037W        W 9105  40.770  19.542  13.000
36038W        W 9106  28.399  22.867  13.505
36039W        W 9107  18.767  19.782   3.387
36040W        W 9108  19.692  12.544   0.615
36041W        W 9109  31.976  43.585  11.209
36042W        W 9110   5.334   0.853   1.139
36043W        W 9111  44.010  44.339  12.904
36044W        W 9112  18.359  23.002   0.344
36045W        W 9113   3.394   5.029  11.962
36046W        W 9114  29.188  36.421  14.321
36047W        W 9115   9.749  41.398  14.553
36048W        W 9116  14.828  24.642   1.799
36049W        W 9117  38.957   7.664  12.064
36050W        W 9118  27.972   6.710   0.960
36051W        W 9119  37.410  15.100   1.278
36052W        W 9120  43.823  16.112   3.229
36053W        W 9121  30.595  25.534   0.939
36054W        W 9122   6.185  24.060   0.442
36055W        W 9123  21.558   8.898   3.486
36056W        W 9124  14.219  35.344  10.510
36057W        W 9125  31.582  18.464   1.842
36058W        W 9126   5.895  31.374  14.398
36059W        W 9127   6.956  15.007   2.362
36060W        W 9128  16.584  35.832   3.168
36061W        W 9129  43.693   4.137   3.647
36062W        W 9130   7.682  20.709   1.211
36063W        W 9131  32.847  37.430   1.825
36064W        W 9132  38.036  18.601  12.351
36065W        W 9133  10.347   6.703   4.505
36066W        W 9134   8.923   4.495  13.488
36067W        W 9135  28.280   8.681   0.260
36068W        W 9136   0.275   3.372   3.793
36069W        W 9137  18.517   1.690   1.680
36070W        W 9138  33.885  40.106  11.206
36071W        W 9139   5.199  33.522  10.785
36072W        W 9140  28.455   7.550  10.773
36073W        W 9141  42.685  29.909   2.382
36074W        W 9142   5.796  42.497  13.932
36075W        W 9143  29.005   5.955   3.199
36076W        W 9144   0.185  10.668  12.521
36077W        W 9145  34.868  42.466   0.823
36078W        W 9146  30.044   3.234  13.137
36079W        W 9147  31.171  35.076  14.921
36080W        W 9148  20.426   1.116   4.060
36081W        W 9149   9.844  16.726   2.338
36082W        W 9150  39.486  41.835   0.786
36083W        W 9151  34.982  22.873   3.108
36084W        W 9152   8.453   6.124  14.487
36085W        W 9153   8.722  44.436  11.127
36086W        W 9154  37.459  39.746   4.136
36087W        W 9155  39.342  42.839   5.005
36088W        W 9156  13.394  29.695   3.693
36089W        W 9157   7.510  29.260   1.784
36090W        W 9158  35.157  30.428   0.203
36091W        W 9159  26.460  17.712  11.571
36092W        W 9160  10.925   3.447  12.631
36093W        W 9161  23.023  40.740   2.207
36094W        W 9162  33.181  35.441  14.538
36095W        W 9163  40.377  13.998   4.872
36096W        W 9164  20.946  31.032   2.800
36097W        W 9165  39.584  13.216  12.158
36098W        W 9166  41.395  30.987   4.515
36099W        W 9167  35.559  28.226  14.548
36100W        W 9168   3.233  17.619  13.736
36101W        W 9169  23.750  20.160   2.855
36102W        W 9170  32.782  19.485  12.491
36103W        W 9171  40.555  23.509  14.427
36104W        W 9172  18.614  35.975   3.308
36105W        W 9173   3.674  18.211   0.871
36106W        W 9174  22.298  21.578  11.108
36107W        W 9175  37.038  26.189   3.903
36108W        W 9176  32.890  34.841  11.113
36109W        W 9177  30.408  39.335   2.932
36110W        W 9178  12.416  11.791  12.148
36111W        W 9179   3.164  33.878  13.584
36112W        W 9180   7.487  34.488  12.912
36113W        W 9181  14.318  13.134   0.415
36114W        W 9182  27.219   1.484  10.690
36115W        W 9183   5.740  18.587   4.441
36116W        W 9184  27.457  40.676  11.435
36117W        W 9185  38.465  40.714  13.377
36118W        W 9186  28.768  18.506   0.947
36119W        W 9187   4.268  19.553   4.539
36120W        W 9188  43.231  13.911  11.468
36121W        W 9189   5.242  34.929   4.337
36122W        W 9190   8.244  16.133  10.341
36123W        W 9191  41.416  21.993  12.884
36124W        W 9192  28.005   0.981  12.245
36125W        W 9193  38.771  10.114   2.398
36126W        W 9194   8.452  26.159   0.010
36127W        W 9195  20.261  31.294  12.437
36128W        W 9196  17.586  11.051   3.475
36129W        W 9197  28.046  37.753  12.957
36130W        W 9198  35.653  33.391  11.101
36131W        W 9199  36.507  13.830   3.289
36132W        W 9200   2.924  36.462  10.903
36133W        W 9201  31.860  13.537   3.152
36134W        W 9202  19.676  14.952  11.523
36135W        W 9203  43.957  41.364  13.965
36136W        W 9204  41.989   0.180  12.063
36137W        W 9205   0.357  35.548   1.647
36138W        W 9206  42.730  18.063  14.218
36139W        W 9207  27.892  35.405  12.315
36140W        W 9208  38.581  30.125  14.921
36141W        W 9209   7.112   4.427  14.308
36142W        W 9210  19.222  26.669   3.122
36143W        W 9211  29.904  13.959  12.034
36144W        W 9212  39.711  19.111   0.551
36145W        W 9213  37.459  19.782  14.840
36146W        W 9214  36.524  30.631   1.867
36147W        W 9215  43.926  41.412  10.633
36148W        W 9216  18.053  19.627   0.300
36149W        W 9217  39.886   6.759  10.737
36150W        W 9218  42.511  12.658   2.319
36151W        W 9219  32.663  29.418   2.889
36152W        W 9220   3.937  11.534  12.061
36153W        W 9221   3.560  21.142   2.799
36154W        W 9222   0.828   5.157  14.388
36155W        W 9223  38.716  11.104   9.893
36156W        W 9224  19.532  27.458  11.528
36157W        W 9225  19.225   9.351   4.055
36158W        W 9226  38.183  25.622   2.865
36159W        W 9227  29.921  30.042   2.144
36160W        W 9228  43.281  42.942  14.940
36161W        W 9229  16.356  38.763  12.675
36162W        W 9230  43.964  11.879   2.789
36163W        W 9231   7.159  28.761   0.953
36164W        W 9232   6.030  18.233   3.626
36165W        W 9233  13.864   5.453  12.949
36166W        W 9234  21.690   4.950  10.597
36167W        W 9235   4.762   9.652   3.657
36168W        W 9236  27.470  23.219  11.149
36169W        W 9237  26.459  43.759  10.623
36170W        W 9238   2.357  20.701   3.234
36171W        W 9239  19.748  39.286   0.905
36172W        W 9240  25.566  39.969  12.113
36173W        W 9241  34.366  11.219   4.544
36174W        W 9242   4.300  34.478  14.482
36175W        W 9243  34.935  21.043   4.598
36176W        W 9244  36.414   6.564   1.908
36177W        W 9245  19.529  33.670  14.281
36178W        W 9246   5.456  27.594   0.252
36179W        W 9247  37.661  19.272  11.985
36180W        W 9248  33.457   3.304   4.113
36181W        W 9249  10.471  26.049   0.314
36182W        W 9250  22.120  20.636   1.412
36183W        W 9251  38.834  28.478  13.917
36184W        W 9252  20.005  30.369   4.607
36185W        W 9253   6.411  30.647  14.618
36186W        W 9254  12.195   5.188  14.433
36187W        W 9255  29.381  22.248  12.854
36188W        W 9256  31.826   7.703   0.039
36189W        W 9257  30.073  43.906  14.775
36190W        W 9258  27.459   4.516   2.124
36191W        W 9259  32.389   5.465  12.965
36192W        W 9260  39.583  35.942   4.802
36193W        W 9261  25.503  31.895  14.740
36194W        W 9262  34.039  42.733  11.601
36195W        W 9263  41.741  38.795   1.963
36196W        W 9264  12.300  25.496  11.088
36197W        W 9265  10.141  39.018  13.463
36198W        W 9266  37.439   7.247   3.599
36199W        W 9267  32.467   5.396   3.725
36200W        W 9268  16.244  19.475   1.795
36201W        W 9269  36.099  39.346  12.317
36202W        W 9270  31.862   8.379   1.308
36203W        W 9271  36.876  27.215  12.888
36204W        W 9272  13.639  38.297  13.788
36205W        W 9273  42.976  42.381  12.472
36206W        W 9274  37.248  33.075  14.745
36207W        W 9275  35.086  22.124   4.265
36208W        W 9276  14.581  37.984   1.021
36209W        W 9277   6.938  37.783  10.657
36210W        W 9278   7.172  13.689   1.376
36211W        W 9279  37.902  25.199  11.898
36212W        W 9280  40.387  41.896  12.139
36213W        W 9281   9.985  23.082   0.037
36214W        W 9282  44.247  32.866   9.994
36215W        W 9283  22.623   0.479   4.033
36216W        W 9284   0.929  42.526  12.138
36217W        W 9285  43.206   8.684  11.160
36218W        W 9286  27.026  38.088  12.630
36219W        W 9287  34.992  25.914   1.697
36220W        W 9288   4.679  33.575   2.654
36221W        W 9289  41.443  22.308   4.802
36222W        W 9290  20.942  19.142   1.256
36223W        W 9291  13.053  23.102  10.898
36224W        W 9292  14.869  24.483   0.736
36225W        W 9293  34.396  43.305  13.502
36226W        W 9294  43.281  28.659   4.745
36227W        W 9295  30.811   5.382  11.082
36228W        W 9296   5.449   0.257   2.576
36229W        W 9297  18.994  11.314   0.692
36230W        W 9298  41.558   6.149   4.171
36231W        W 9299  19.883  34.301   5.087
36232W        W 9300  40.656   0.455  14.822
36233W        W 9301  19.670  12.394   0.088
36234W        W 9302   9.281   1.965   3.300
36235W        W 9303  33.134  42.300  11.462
36236W        W 9304  39.362  36.412  13.809
36237W        W 9305  42.501   6.771   0.367
36238W        W 9306   9.242  22.647   0.162
36239W        W 9307  32.251  28.832  12.499
36240W        W 9308  18.071  42.901   5.004
36241W        W 9309   3.215  14.506   1.285
36242W        W 9310  37.606  23.834   3.713
36243W        W 9311  25.910  17.677   0.228
36244W        W 9312  25.355  11.370   1.983
36245W        W 9313  37.875  42.624   4.355
36246W        W 9314  31.559  25.251   3.801
36247W        W 9315  13.915   1.589  14.839
36248W        W 9316   9.904  17.327  11.619
36249W        W 9317  24.746  34.207   1.649
36250W        W 9318   7.717   8.464   1.991
36251W        W 9319   4.365   1.516  10.757
36252W        W 9320  17.133   2.504   1.674
36253W        W 9321   0.450  30.449   1.574
36254W        W 9322   9.295  27.099  11.635
36255W        W 9323  34.018  32.646   3.392
36256W        W 9324  32.370   2.833   1.844
36257W        W 9325   2.005  31.998   2.651
36258W        W 9326   2.141  38.400  13.466
36259W        W 9327   8.690  32.036   1.339
36260W        W 9328  31.463  17.150   2.670
36261W        W 9329  31.008   6.227  12.933
36262W        W 9330  15.821  44.954   0.995
36263W        W 9331  42.863  12.638   3.287
36264W        W 9332  28.960  44.775  11.653
36265W        W 9333  44.802  19.393  11.934
36266W        W 9334  36.830  38.436  11.034
36267W        W 9335  28.429  26.365   2.372
36268W        W 9336   8.265  36.931   3.573
36269W        W 9337  31.535   7.789   2.773
36270W        W 9338  26.006   1.420   0.651
36271W        W 9339  22.105   2.831   4.740
36272W        W 9340  34.556   9.106   3.193
36273W        W 9341  27.548  13.765  12.092
36274W        W 9342   4.712  30.410   0.216
36275W        W 9343  26.460  37.820   9.977
36276W        W 9344   8.545  33.521   2.850
36277W        W 9345  31.633  41.223  12.966
36278W        W 9346  24.594   1.692  12.404
36279W        W 9347  13.125  16.764  13.523
36280W        W 9348  12.330  27.476   0.199
36281W        W 9349  26.692  34.106  13.870
36282W        W 9350  28.072   8.363   4.119
36283W        W 9351  43.440   5.441   2.938
36284W        W 9352   5.419  34.122  13.130
36285W        W 9353  23.008  34.677  14.390
36286W        W 9354  12.774  11.220   2.331
36287W        W 9355  33.531  16.504   0.357
36288W        W 9356  35.609  23.193  11.199
36289W        W 9357   4.912  32.174   1.466
36290W        W 9358  36.059  33.408   3.368
36291W        W 9359   9.462  34.970  11.087
36292W        W 9360  37.656  26.951  14.927
36293W        W 9361  27.172  27.141   1.370
36294W        W 9362  44.591   0.875   4.278
36295W        W 9363  39.771  44.953  14.702
36296W        W 9364  44.554  29.106   2.881
36297W        W 9365  21.515  40.340  13.978
36298W        W 9366  40.467  20.845   4.944
36299W        W 9367  36.861  44.894  14.185
36300W        W 9368   5.784  19.609   2.306
36301W        W 9369  16.246  32.918   2.331
36302W        W 9370  33.102   4.535   2.342
36303W        W 9371  35.506  14.849   4.037
36304W        W 9372  44.829  22.787  10.954
36305W        W 9373  35.559  38.699  13.323
36306W        W 9374  12.211   0.394   3.448
36307W        W 9375   1.471  29.773   1.214
36308W        W 9376  37.911  15.152  14.730
36309W        W 9377  34.669  21.901   3.990
36310W        W 9378  37.394  15.514  12.477
36311W        W 9379  20.696  16.246   4.105
36312W        W 9380  15.766  19.709  10.516
36313W        W 9381  14.277  41.353  14.507
36314W        W 9382  16.268  30.509   2.641
36315W        W 9383  11.659  36.815   0.039
36316W        W 9384  38.353  35.533   2.450
36317W        W 9385  35.026  14.855  11.610
36318W        W 9386  21.650  12.463  12.105
36319W        W 9387   6.336  39.825   1.509
36320W        W 9388  28.156   0.832   0.461
36321W        W 9389  29.306  28.657  11.398
36322W        W 9390  32.583  15.782  11.605
36323W        W 9391  26.956  20.590   0.674
36324W        W 9392  16.251  40.883   1.869
36325W        W 9393  29.126  32.314  14.710
36326W        W 9394  44.280  16.208   0.748
36327W        W 9395   4.524   7.307   3.815
36328W        W 9396  18.813  44.573  12.559
36329W        W 9397  23.936  21.607   3.041
36330W        W 9398   7.774   9.023   3.381
36331W        W 9399  40.839  21.292  13.395
36332W        W 9400   5.037  28.268   1.807
36333W        W 9401  10.304  37.554  11.104
36334W        W 9402   6.855   5.990   2.688
36335W        W 9403  23.806   6.555   2.851
36336W        W 9404  37.831   7.301   4.634
36337W        W 9405  38.941  24.517  13.404
36338W        W 9406  23.679   1.981   2.619
36339W        W 9407  41.995  39.574   3.277
36340W        W 9408  26.407  23.211   1.653
36341W        W 9409  32.049   2.447   3.588
36342W        W 9410  35.659  23.742  11.908
36343W        W 9411  30.085  41.339  12.561
36344W        W 9412   0.250  22.634  11.229
36345W        W 9413  13.707  43.537   3.728
36346W        W 9414  43.305  10.940  11.567
36347W        W 9415  26.171   7.483  14.288
36348W        W 9416   1.889   3.734  13.867
36349W        W 9417  25.826  19.636   1.185
36350W        W 9418   6.402  25.512  13.893
36351W        W 9419  30.927  28.593  13.993
36352W        W 9420   3.962  37.368   2.443
36353W        W 9421   5.898   7.773  13.395
36354W        W 9422  36.843   6.253  10.961
36355W        W 9423  32.620   1.584  14.589
36356W        W 9424  22.739   8.540   5.010
36357W        W 9425  18.563  33.058  14.936
36358W        W 9426   1.772   7.739  14.291
36359W        W 9427  17.770  13.131   3.806
36360W        W 9428  38.026   5.661   4.233
36361W        W 9429   2.377  40.691  13.898
36362W        W 9430  37.088  24.295  13.278
36363W        W 9431  20.347  26.584   0.835
36364W        W 9432   4.293  43.354  12.871
36365W        W 9433  35.491  12.110   2.929
36366W        W 9434  16.565  26.739  12.636
36367W        W 9435  39.957   8.430  12.475
36368W        W 9436  16.218  32.465   1.394
36369W        W 9437  32.519  18.732   2.831
36370W        W 9438  23.094  32.073  14.419
36371W        W 9439  42.024   8.542  12.088
36372W        W 9440   3.987   5.258  14.661
36373W        W 9441  12.733  36.729  10.932
36374W        W 9442  40.293   2.294  14.845
36375W        W 9443  38.376   6.273  13.865
36376W        W 9444  10.454   0.659  11.658
36377W        W 9445  42.818  10.935   3.822
36378W        W 9446  10.705  17.054   2.216
36379W        W 9447  11.031  17.562  10.666
36380W        W 9448   7.974  23.149   2.235
36381W        W 9449  10.329  11.622   2.600
36382W        W 9450  30.996  37.340  13.764
36383W        W 9451  15.603  14.372   1.897
36384W        W 9452  33.079   1.351  13.437
36385W        W 9453  26.862  28.412   0.238
36386W        W 9454  27.609  26.984   0.080
36387W        W 9455  15.882  34.636  13.449
36388W        W 9456   1.718  13.246   4.086
36389W        W 9457  12.146  23.486  12.687
36390W        W 9458  44.601  12.887  14.919
36391W        W 9459  28.112  42.968   1.265
36392W        W 9460  21.223  14.977  12.804
36393W        W 9461  12.342   0.098   4.644
36394W        W 9462  31.846   6.609   2.145
36395W        W 9463  24.581  43.005   0.705
36396W        W 9464   0.306  30.852   1.239
36397W        W 9465  10.025   3.267   2.202
36398W        W 9466  39.572   2.248  13.291
36399W        W 9467  14.663   1.998  12.103
36400W        W 9468  22.933  43.900  10.206
36401W        W 9469   7.287  44.721  13.183
36402W        W 9470  20.690   6.193   4.214
36403W        W 9471  34.429  24.856  11.641
36404W        W 9472   0.677  22.205  14.731
36405W        W 9473  39.300   8.188  12.061
36406W        W 9474  11.131  40.001  14.404
36407W        W 9475  42.771  40.577   3.407
36408W        W 9476   4.441  22.677   1.797
36409W        W 9477   6.910  44.297  12.056
36410W        W 9478   7.611  40.984   3.716
36411W        W 9479  17.655  32.797  12.521
36412W        W 9480  42.859  15.012  11.519
36413W        W 9481  43.885  23.737  14.469
36414W        W 9482  12.932  44.184  13.039
36415W        W 9483  19.239  28.127   4.471
36416W        W 9484  22.084  36.679  13.770
36417W        W 9485  42.885  32.445  11.668
36418W        W 9486  28.635  33.508   1.699
36419W        W 9487  20.166   2.518   2.320
36420W        W 9488  11.150  12.313  10.638
36421W        W 9489  18.004  11.840  14.032
36422W        W 9490  28.652   4.356   0.315
36423W        W 9491  27.973  14.316   5.122
36424W        W 9492  30.541  24.940   2.846
36425W        W 9493  33.664  43.989  10.652
36426W        W 9494  41.311  43.978  12.574
36427W        W 9495  14.743  34.934  13.959
36428W        W 9496   5.276  44.822   2.323
36429W        W 9497  37.400  32.189  10.241
36430W        W 9498  18.164  30.846  13.025
36431W        W 9499  35.136  12.275  11.611
36432W        W 9500  21.671  30.413  12.125
36433W        W 9501  38.321   2.761   4.323
36434W        W 9502  19.264  33.963  10.618
36435W        W 9503  14.872  19.136  13.065
36436W        W 9504  15.186  19.532  13.136
36437W        W 9505  42.720  32.175   4.133
36438W        W 9506  28.157  22.250   1.796
36439W        W 9507  14.313  23.567   0.447
36440W        W 9508  19.820  17.691  11.138
36441W        W 9509  12.165  19.566  12.112
36442W        W 9510   8.181  36.165  11.919
36443W        W 9511  19.086  23.695   1.843
36444W        W 9512  33.762  13.475   1.868
36445W        W 9513  31.577  42.915   1.734
36446W        W 9514  21.862  36.381   1.732
36447W        W 9515  34.009  19.474  13.500
36448W        W 9516  27.856  26.948   1.904
36449W        W 9517  39.281   3.832   3.209
36450W        W 9518  31.910  43.944   3.784
36451W        W 9519  26.032  39.522   1.667
36452W        W 9520   7.876  26.512  13.363
36453W        W 9521  35.010  15.285  12.937
36454W        W 9522  22.300  11.229  11.586
36455W        W 9523  10.691  31.979   4.827
36456W        W 9524  40.086  40.084   3.890
36457W        W 9525  11.562  41.800   3.316
36458W        W 9526  32.467  21.631  13.311
36459W        W 9527  43.795   9.872  13.065
36460W        W 9528   6.216  37.711  12.483
36461W        W 9529  42.225  31.914  11.596
36462W        W 9530  15.820  30.437  11.454
36463W        W 9531  26.011   4.019  11.102
36464W        W 9532   4.701  36.104   1.716
36465W        W 9533  29.413  37.580   0.343
36466W        W 9534  31.886  18.569   4.136
36467W        W 9535  37.066   6.734   1.203
36468W        W 9536   5.354  22.267  14.889
36469W        W 9537   2.120  30.836   1.353
36470W        W 9538  13.835  20.652  14.899
36471W        W 9539  44.809  30.144  13.511
36472W        W 9540  29.759  17.567  12.522
36473W        W 9541  21.108   4.737  10.061
36474W        W 9542  27.991  22.717   4.729
36475W        W 9543  31.579  13.916   1.549
36476W        W 9544  36.814  33.560  12.551
36477W        W 9545   4.536   5.690   4.565
36478W        W 9546   4.452   7.671   2.776
36479W        W 9547  25.822  33.293  10.437
36480W        W 9548  19.570  17.609  11.581
36481W        W 9549  33.375  22.956  13.792
36482W        W 9550  44.365  44.380  13.499
36483W        W 9551  32.533  18.745   3.817
36484W        W 9552  17.620  40.085   1.400
36485W        W 9553  26.743  28.411  12.043
36486W        W 9554  38.565   3.460   0.974
36487W        W 9555  40.481  32.352  14.946
36488W        W 9556  27.432  37.332  12.840
36489W        W 9557   7.169  42.889   2.532
36490W        W 9558  42.991  34.687  14.370
36491W        W 9559  29.999   9.415   1.298
36492W        W 9560  38.697   3.181  12.038
36493W        W 9561  10.001  28.458   4.712
36494W        W 9562  27.637  19.623  14.549
36495W        W 9563  32.644  43.851   1.462
36496W        W 9564  26.235  25.484   1.302
36497W        W 9565  42.725   0.844   5.063
36498W        W 9566   2.826  27.274   3.744
36499W        W 9567   0.214  15.688  12.564
36500W        W 9568  37.620   4.168  13.899
36501W        W 9569   6.907  29.048   0.237
36502W        W 9570  16.573  39.739  13.392
36503W        W 9571  11.551  22.150   1.642
36504W        W 9572  16.144  31.982  12.371
36505W        W 9573  37.625  10.544   1.647
36506W        W 9574  43.046  43.415   2.516
36507W        W 9575  19.678  10.867   0.906
36508W        W 9576  22.681  35.120  11.699
36509W        W 9577  43.222  20.400  14.357
36510W        W 9578  42.016  34.757   2.989
36511W        W 9579  16.407   7.279   2.418
36512W        W 9580  44.202  22.755  10.447
36513W        W 9581   9.445  10.064   4.387
36514W        W 9582   5.391  33.481   4.768
36515W        W 9583  31.073  15.202  12.633
36516W        W 9584  10.202  37.565  10.033
36517W        W 9585  17.157  15.346  12.576
36518W        W 9586  41.230  31.384   5.323
36519W        W 9587   2.654  41.581  11.013
36520W        W 9588  24.533   0.219  12.204
36521W        W 9589  24.438  10.361   1.836
36522W        W 9590  39.770  22.426  14.850
36523W        W 9591  27.824  24.211   2.005
36524W        W 9592  10.084  39.400  13.990
36525W        W 9593  26.006   6.542   2.370
36526W        W 9594  15.817  18.761   0.486
36527W        W 9595  30.172  28.419   4.323
36528W        W 9596  21.476  27.442  14.822
36529W        W 9597  29.187  13.336   4.333
36530W        W 9598  25.790  24.053  11.505
36531W        W 9599  28.799  15.468   0.480
36532W        W 9600  26.319   6.533   2.803
36533W        W 9601   3.403  44.941   1.881
36534W        W 9602   1.925  40.137   0.503
36535W        W 9603  29.069  22.533  11.529
36536W        W 9604  32.545   1.451   2.887
36537W        W 9605  20.209  18.511   2.819
36538W        W 9606   6.430   7.324  11.986
36539W        W 9607  25.203  17.090  13.042
36540W        W 9608  10.708   5.903  13.376
36541W        W 9609  44.534  16.293   1.698
36542W        W 9610  10.150  23.547  12.950
36543W        W 9611  37.363   0.836  10.870
36544W        W 9612  15.366  22.751  13.524
36545W        W 9613  17.561  40.502  13.318
36546W        W 9614  12.676  11.339   3.662
36547W        W 9615  40.614  20.763   0.787
36548W        W 9616  39.995  43.029   0.853
36549W        W 9617  24.375  26.674   9.797
36550W        W 9618  13.268   0.474  14.256
36551W        W 9619   0.246   5.358  13.722
36552W        W 9620  39.019  37.553  12.119
36553W        W 9621   1.013  39.388  14.807
36554W        W 9622  22.598  14.665  12.933
36555W        W 9623  19.236  39.261  11.953
36556W        W 9624  39.105  14.843   1.542
36557W        W 9625  18.753  35.574   2.329
36558W        W 9626  18.485  32.558   1.690
36559W        W 9627  24.703  12.825  11.959
36560W        W 9628  38.313  25.263   4.262
36561W        W 9629  29.145  20.205   1.579
36562W        W 9630  39.774  44.020   3.211
36563W        W 9631  32.325  17.629   4.185
36564W        W 9632  31.615  17.428  13.565
36565W        W 9633  11.842  30.067   0.290
36566W        W 9634  37.132  40.464  11.370
36567W        W 9635  40.629  31.767   9.949
36568W        W 9636  22.593  40.114  10.722
36569W        W 9637  10.027  21.323  10.388
36570W        W 9638  12.849   2.922   4.737
36571W        W 9639  20.065  44.234   4.461
36572W        W 9640  39.278  25.937  14.464
36573W        W 9641  38.103  13.981  12.871
36574W        W 9642  40.171  34.539  11.308
36575W        W 9643  13.328  21.052   4.077
36576W        W 9644   3.528  11.367   0.927
36577W        W 9645  30.453   5.930   0.325
36578W        W 9646  17.062  21.800  13.334
36579W        W 9647  26.177  11.674   3.337
36580W        W 9648  42.872  24.409   0.750
36581W        W 9649  21.029  17.226   2.840
36582W        W 9650   1.298  31.162  11.446
36583W        W 9651  35.445  38.100   2.868
36584W        W 9652   7.253  24.578  14.960
36585W        W 9653  33.671  10.189   3.424
36586W        W 9654  18.056  38.392  13.701
36587W        W 9655   3.872  28.630   3.089
36588W        W 9656  21.616  40.281   1.755
36589W        W 9657  38.056  39.765   0.403
36590W        W 9658  27.237  40.865  12.552
36591W        W 9659  32.423  29.588  13.964
36592W        W 9660  15.901   3.740  11.459
36593W        W 9661  30.141  32.033  13.931
36594W        W 9662  19.259  35.337  14.288
36595W        W 9663  24.081  37.925   3.563
36596W        W 9664  37.589  19.674   2.272
36597W        W 9665   0.860   3.903  11.643
36598W        W 9666   0.556  23.963  10.664
36599W        W 9667  44.006  22.277   1.916
36600W        W 9668  25.014  17.584   1.792
36601W        W 9669  18.262  21.028   2.747
36602W        W 9670   7.402  17.704   0.004
36603W        W 9671  33.452  35.440   4.645
36604W        W 9672  38.683  39.325  11.974
36605W        W 9673  10.810  16.184  10.403
36606W        W 9674  43.781   8.436   3.622
36607W        W 9675  21.266   5.523  13.379
36608W        W 9676  28.114  33.943  11.492
36609W        W 9677  16.193  44.068  14.048
36610W        W 9678  43.866  32.937  14.541
36611W        W 9679  31.102  15.630   0.565
36612W        W 9680  28.127  20.864  14.534
36613W        W 9681  30.502  43.234   2.292
36614W        W 9682  26.663  11.907   0.527
36615W        W 9683  31.464  20.187  12.918
36616W        W 9684  30.832  13.370  11.609
36617W        W 9685  12.718  41.919   0.883
36618W        W 9686  41.039   1.750   1.877
36619W        W 9687   6.279  17.074  11.885
36620W        W 9688  42.313  34.605  13.440
36621W        W 9689   3.740   2.881   1.277
36622W        W 9690   1.419  23.901  12.503
36623W        W 9691   2.239   9.459   2.674
36624W        W 9692   5.102  18.733   2.244
36625W        W 9693  36.680  41.981  13.083
36626W        W 9694  24.577   1.888  12.881
36627W        W 9695  23.958  24.152   2.417
36628W        W 9696  43.804  42.038   2.300
36629W        W 9697  10.639  34.894  12.986
36630W        W 9698  41.215   7.344  10.624
36631W        W 9699  18.531  35.502   3.104
36632W        W 9700  42.853  26.931   3.182
36633W        W 9701  32.120  23.151   3.333
36634W        W 9702  37.483  25.067   2.596
36635W        W 9703   2.319  32.823   1.416
36636W        W 9704  35.686  19.191  12.853
36637W        W 9705  15.074  32.661   2.482
36638W        W 9706   3.318  16.055   0.329
36639W        W 9707  20.292   8.626   1.657
36640W        W 9708   8.209  20.200   3.854
36641W        W 9709  42.763   4.940   2.165
36642W        W 9710   9.288  38.832  10.286
36643W        W 9711  22.483   9.694  12.039
36644W        W 9712  39.816  11.575  13.088
36645W        W 9713   3.500  21.949   1.289
36646W        W 9714  13.291  38.553  10.752
36647W        W 9715   1.940  41.886   3.656
36648W        W 9716  24.516  38.803  12.550
36649W        W 9717  25.687  38.105   2.694
36650W        W 9718  16.523   8.289  14.070
36651W        W 9719   9.641  13.217  11.491
36652W        W 9720   2.044  39.672  10.490
36653W        W 9721  34.812  44.826  13.397
36654W        W 9722  14.825  30.594   1.439
36655W        W 9723  12.913  19.514  13.562
36656W        W 9724  43.292  15.655  10.464
36657W        W 9725  29.502  16.255   2.350
36658W        W 9726  43.792  39.772   2.012
36659W        W 9727  24.698  27.219  14.877
36660W        W 9728  25.031  35.937  10.200
36661W        W 9729  27.366  27.460  13.843
36662W        W 9730   7.327   8.455  12.007
36663W        W 9731  20.565   4.000   1.693
36664W        W 9732  12.917  17.512  11.970
36665W        W 9733  42.644  30.690   4.221
36666W        W 9734  10.806  40.832   0.167
36667W        W 9735  38.606  12.895  10.656
36668W        W 9736  40.072  31.923  11.841
36669W        W 9737  10.367  43.748  10.644
36670W        W 9738  33.490  24.728   2.904
36671W        W 9739  23.903  42.381   4.280
36672W        W 9740  19.304  35.478  11.575
36673W        W 9741  20.726   8.234  14.880
36674W        W 9742  15.259  34.453   4.039
36675W        W 9743  19.812  23.684  10.752
36676W        W 9744  35.011  36.988   2.888
36677W        W 9745  18.565  24.769  13.738
36678W        W 9746   8.027  43.336  10.730
36679W        W 9747  43.737  39.310  11.592
36680W        W 9748  43.732   5.625   3.392
36681W        W 9749  28.456  17.978  12.977
36682W        W 9750  24.547  32.801   4.170
36683W        W 9751  11.381  23.159   3.478
36684W        W 9752  32.958  15.551   2.842
36685W        W 9753  44.911  24.645  12.825
36686W        W 9754  28.649  19.208  12.339
36687W        W 9755  34.809  13.605  11.943
36688W        W 9756  38.028  32.216  11.696
36689W        W 9757  30.499   1.932  12.810
36690W        W 9758  37.127   2.210   4.654
36691W        W 9759  36.451  35.072   0.026
36692W        W 9760   4.444   8.731   4.639
36693W        W 9761  42.458  15.217  13.333
36694W        W 9762  42.147  38.079   0.416
36695W        W 9763  11.200   1.456   4.109
36696W        W 9764  44.397  10.109   0.243
36697W        W 9765   9.639  23.737  12.904
36698W        W 9766   0.236  26.084   2.238
36699W        W 9767   3.281  32.678   4.540
36700W        W 9768  16.024  10.788   2.651
36701W        W 9769  39.377   9.336  12.965
36702W        W 9770  41.024   5.262   4.167
36703W        W 9771  39.722   5.916  12.482
36704W        W 9772  44.593  31.968   2.077
36705W        W 9773  16.027  13.728   0.263
36706W        W 9774   0.762  29.007   3.227
36707W        W 9775  19.450  31.446   3.731
36708W        W 9776  20.253   1.455  14.717
36709W        W 9777  18.226  39.442   0.242
36710W        W 9778  42.491   5.941   4.645
36711W        W 9779   1.372   4.771  13.496
36712W        W 9780  33.089  38.567  12.936
36713W        W 9781  37.407  23.008  10.994
36714W        W 9782  39.716   1.499  11.354
36715W        W 9783  34.058  25.303   0.982
36716W        W 9784  29.159  32.123   3.529
36717W        W 9785  12.722  36.951   3.978
36718W        W 9786  18.204  14.096  12.430
36719W        W 9787   2.396  23.464  13.034
36720W        W 9788  15.752  36.499  11.394
36721W        W 9789   8.415  43.368  11.598
36722W        W 9790   9.714  29.120   4.286
36723W        W 9791  32.117  30.509   1.799
36724W        W 9792  14.842  27.887  13.384
36725W        W 9793   1.870  38.641  10.493
36726W        W 9794  15.695  13.100   0.897
36727W        W 9795  24.310  10.616   2.331
36728W        W 9796   0.410  29.462   1.284
36729W        W 9797  44.535  42.841   3.321
36730W        W 9798   8.191  32.636   3.161
36731W        W 9799  24.693  35.936  14.072
36732W        W 9800  31.941  19.097   2.176
36733W        W 9801  23.121  25.416  14.769
36734W        W 9802  36.375  34.524   0.717
36735W        W 9803  16.864   7.103   2.229
36736W        W 9804  27.503  36.115   1.361
36737W        W 9805   1.857  15.734   0.234
36738W        W 9806  29.105  20.253   1.063
36739W        W 9807  22.172   4.753   4.426
36740W        W 9808  31.362   4.418   3.111
36741W        W 9809  42.852   8.678   4.185
36742W        W 9810  40.400  14.862   3.055
36743W        W 9811   4.714  42.644   4.599
36744W        W 9812  44.024  40.401   3.653
36745W        W 9813  42.446  34.982   2.798
36746W        W 9814  26.242  40.956  12.561
36747W        W 9815  16.318   0.292   2.284
36748W        W 9816   7.029  14.695  14.399
36749W        W 9817  21.407  23.221   4.311
36750W        W 9818   4.776  26.407   2.313
36751W        W 9819  24.195   9.296   2.899
36752W        W 9820  19.115  28.552  12.478
36753W        W 9821  19.986  19.208  13.754
36754W        W 9822   5.742  14.767  10.574
36755W        W 9823  21.686   3.964  14.071
36756W        W 9824  25.988  15.655   1.024
36757W        W 9825  21.657  14.365   3.812
36758W        W 9826  31.188  32.982  13.121
36759W        W 9827  11.277  35.149   1.643
36760W        W 9828  44.472   8.715   0.251
36761W        W 9829   0.525  18.996   4.225
36762W        W 9830  41.561  15.178  13.034
36763W        W 9831  38.090  16.456  10.839
36764W        W 9832  39.682  14.257   5.058
36765W        W 9833   7.388   2.338  13.761
36766W        W 9834  26.666  27.040  14.199
36767W        W 9835  15.148  36.071   0.830
36768W        W 9836  28.667  29.480  12.930
36769W        W 9837  33.158  34.404   2.445
36770W        W 9838  26.745  44.264   2.166
36771W        W 9839   7.729  36.623  14.948
36772W        W 9840  43.521  12.273  14.238
36773W        W 9841   6.270  23.589   4.173
36774W        W 9842   5.250  25.906   4.253
36775W        W 9843   8.194  13.985  14.759
36776W        W 9844  26.915   4.806  14.220
36777W        W 9845  37.161  35.851   3.456
36778W        W 9846   1.007  12.855   0.440
36779W        W 9847  21.068  26.958   0.427
36780W        W 9848  16.245   9.823  11.527
36781W        W 9849  16.969   8.191  11.833
36782W        W 9850  29.706  34.669  12.958
36783W        W 9851  28.959  35.609   4.029
36784W        W 9852  36.753  22.614  13.556
36785W        W 9853  33.813  44.442   3.171
36786W        W 9854   8.872  35.540  11.892
36787W        W 9855  33.300  35.962   1.151
36788W        W 9856  36.884  42.857  14.370
36789W        W 9857  33.183  35.964  12.847
36790W        W 9858   5.957  36.135   4.170
36791W        W 9859  38.490  16.573  11.129
36792W        W 9860  44.895  10.526  10.386
36793W        W 9861   0.841  42.489   3.646
36794W        W 9862  15.730  31.349   0.268
36795W        W 9863  22.595   7.436   3.171
36796W        W 9864  27.644  44.155   3.241
36797W        W 9865   8.716  28.896   4.185
36798W        W 9866  13.978  36.494  14.577
36799W        W 9867   2.868   7.392  10.307
36800W        W 9868  32.139  19.982   5.027
36801W        W 9869  34.067   2.429   2.339
36802W        W 9870  37.814   7.807   2.259
36803W        W 9871  28.728   8.671  11.512
36804W        W 9872   5.531   2.777  11.582
36805W        W 9873  12.365  34.959   4.801
36806W        W 9874  21.775  16.808   2.187
36807W        W 9875  39.666  43.752   3.660
36808W        W 9876  10.175  27.582  11.458
36809W        W 9877   0.399  34.714   0.656
36810W        W 9878  15.883  14.334  11.087
36811W        W 9879  11.829  26.169  12.911
36812W        W 9880  21.988  11.151  14.316
36813W        W 9881  21.050  34.188  13.025
36814W        W 9882  17.299  12.624   1.193
36815W        W 9883   2.974  18.341   4.009
36816W        W 9884   0.332  36.889   0.440
36817W        W 9885  12.619  31.526  12.428
36818W        W 9886  44.897  22.897   2.474
36819W        W 9887  35.937  18.270  12.492
36820W        W 9888  38.810  42.797   3.678
36821W        W 9889  13.783  13.566   1.903
36822W        W 9890  10.652  26.922   4.301
36823W        W 9891   5.924  24.163   4.652
36824W        W 9892  18.211  11.078  13.303
36825W        W 9893  17.121  24.019  10.715
36826W        W 9894  32.151  25.081  12.000
36827W        W 9895  17.124   4.591   0.245
36828W        W 9896   9.304  43.473   0.050
36829W        W 9897   9.337  16.771   4.179
36830W        W 9898   0.560  13.950   0.917
36831W        W 9899  35.502  41.274  14.497
36832W        W 9900  12.090  34.573  14.919
36833W        W 9901  19.527   7.779  11.517
36834W        W 9902   6.892  39.041   4.253
36835W        W 9903  12.811  27.573   0.485
36836W        W 9904  10.273  25.976  10.540
36837W        W 9905   8.729  32.242   0.819
36838W        W 9906  36.466  44.942  11.380
36839W        W 9907  31.409  24.580  11.031
36840W        W 9908   5.230  21.580   4.106
36841W        W 9909   7.092  43.960  14.275
36842W        W 9910  21.573  42.843   2.186
36843W        W 9911  18.869  17.785   0.737
36844W        W 9912   7.894  23.564  13.865
36845W        W 9913  22.446   5.662   2.306
36846W        W 9914   7.542  35.591   2.358
36847W        W 9915  35.478   7.414   1.303
36848W        W 9916  32.575  15.854   3.732
36849W        W 9917  37.930  21.490  13.027
36850W        W 9918  25.153  40.671  10.243
36851W        W 9919  20.611  40.304  12.519
36852W        W 9920  34.182  35.657   2.839
36853W        W 9921   9.866  26.538  12.011
36854W        W 9922  39.466  38.817   1.282
36855W        W 9923  33.458   5.434  10.325
36856W        W 9924  27.116  27.109   2.336
36857W        W 9925   8.592   0.914  14.404
36858W        W 9926  14.180  28.402  11.819
36859W        W 9927  38.411  39.781   3.975
36860W        W 9928  10.970  18.567  11.184
36861W        W 9929  26.606  28.448   3.643
36862W        W 9930   1.836  17.728  13.752
36863W        W 9931  28.108  23.180   2.700
36864W        W 9932  10.362  29.498  12.042
36865W        W 9933  34.281  12.328   2.229
36866W        W 9934  13.182  18.631   2.362
36867W        W 9935  25.657   0.562  14.830
36868W        W 9936  13.897  17.797  13.990
36869W        W 9937  30.204  26.950  14.884
36870W        W 9938  22.657  24.248  11.585
36871W        W 9939  15.781  38.515  11.047
36872W        W 9940   6.142   1.154  13.282
36873W        W 9941   4.338   0.991  14.807
36874W        W 9942  30.113  23.209  12.907
36875W        W 9943   5.356   9.429   3.655
36876W        W 9944  15.347   5.686   3.773
36877W        W 9945  35.330  27.948  12.450
36878W        W 9946  43.968  18.246  11.152
36879W        W 9947  18.909  31.637   4.088
36880W        W 9948   4.196  39.956  13.437
36881W        W 9949  27.651  43.280   2.763
36882W        W 9950  36.134  29.976  12.010
36883W        W 9951  26.509  31.411  10.282
36884W        W 9952  43.351  36.559  11.598
36885W        W 9953  11.235  36.835  12.293
36886W        W 9954   2.787  41.798  14.813
36887W        W 9955   4.783  36.480  10.636
36888W        W 9956  19.210   2.486  11.617
36889W        W 9957  21.560  30.874   1.222
36890W        W 9958   4.305  28.417   0.251
36891W        W 9959  37.926  44.139  10.953
36892W        W 9960   1.637  22.023  14.897
36893W        W 9961  25.950  30.914  11.975
36894W        W 9962  20.040   6.510  14.979
36895W        W 9963   3.609  30.415   0.869
36896W        W 9964  20.242  36.857  11.053
36897W        W 9965  40.248  32.865   0.719
36898W        W 9966  23.286  44.737  14.434
36899W        W 9967  41.297  38.292  12.638
36900W        W 9968  16.589  40.138   4.615
36901W        W 9969  25.516  42.657  13.012
36902W        W 9970  17.710   4.766  14.347
36903W        W 9971  11.304   3.488  11.523
36904W        W 9972   8.326   5.174  14.744
36905W        W 9973  42.706   4.735  14.733
36906W        W 9974  11.725  13.121  11.863
36907W        W 9975  16.130  34.563   4.607
36908W        W 9976   2.731  12.592  12.793
36909W        W 9977  12.114  25.757  11.472
36910W        W 9978  12.095  40.094   4.029
36911W        W 9979  35.431  23.891   4.106
36912W        W 9980  14.194   0.435  13.366
36913W        W 9981  33.061  23.647   0.865
36914W        W 9982  44.332  32.068   0.243
36915W        W 9983   7.794   8.900   4.286
36916W        W 9984  19.517  39.550   3.202
36917W        W 9985  28.042  15.076  13.470
36918W        W 9986  28.511   1.235  11.674
36919W        W 9987   9.656  24.613  12.126
36920W        W 9988   2.634  22.598  10.514
36921W        W 9989   0.334   2.432  10.712
36922W        W 9990  30.166  41.604   0.934
36923W        W 9991  43.390  30.592   3.058
36924W        W 9992  12.467  31.974   4.634
36925W        W 9993  29.618   3.449   2.345
36926W        W 9994  21.453  31.475   2.921
36927W        W 9995   5.970   9.906   2.255
36928W        W 9996  32.576  18.067   0.715
36929W        W 9997  36.126  36.121  11.949
36930W        W 9998  44.375  12.656   4.931
36931W        W 9999  35.080  13.358  11.588
36932W        W10000  36.039   9.017  14.769
36933W        W10001   7.341  36.315   1.199
36934W        W10002   3.256   2.526   0.498
36935W        W10003  15.764   7.370   4.282
36936W        W10004   1.308  38.860  13.503
36937W        W10005  42.346  14.221   2.376
36938W        W10006   2.208  11.788   2.788
36939W        W10007  24.093   8.381  11.441
36940W        W10008  42.814  16.338  11.126
36941W        W10009   1.408  43.826   0.713
36942W        W10010  44.383  14.701   1.773
36943W        W10011  36.407  44.892  10.852
36944W        W10012   5.068  39.999   2.522
36945W        W10013  25.860  33.585   4.087
36946W        W10014   5.876  32.976   2.096
36947W        W10015  44.545  36.384   0.381
36948W        W10016  32.456   5.251  12.057
36949W        W10017   8.687  16.820  14.494
36950W        W10018  30.920  21.291   9.696
36951W        W10019  20.320  27.002  11.573
36952W        W10020  33.030  42.050  13.412
36953W        W10021  28.952   4.894   1.016
36954W        W10022  31.015   9.890  14.020
36955W        W10023  42.727  13.782  12.533
36956W        W10024   4.354   4.937   0.807
36957W        W10025  42.710  16.731  12.467
36958W        W10026  27.968  39.983  14.348
36959W        W10027  35.134  19.727  10.287
36960W        W10028  35.984  29.420   2.295
36961W        W10029  36.997   2.750  11.171
36962W        W10030  31.142  25.643  13.821
36963W        W10031  34.499   6.214   4.725
36964W        W10032  26.298  42.380  10.602
36965W        W10033   8.920  38.079   1.891
36966W        W10034   8.987  31.360   2.716
36967W        W10035  36.520  26.807  14.136
36968W        W10036  44.301  40.073  14.003
36969W        W10037  27.416   2.870  12.535
36970W        W10038  38.044  28.162  11.546
36971W        W10039  10.770   4.933  14.482
36972W        W10040  24.664  11.036   0.470
36973W        W10041  18.027  24.227   1.196
36974W        W10042  13.864  14.748   1.492
36975W        W10043  28.501  30.358   2.810
36976W        W10044  23.279  17.986   4.420
36977W        W10045  36.144  30.737  10.006
36978W        W10046  19.142   8.185   1.635
36979W        W10047  27.359   2.969  14.711
36980W        W10048  43.818  34.866  14.817
36981W        W10049  15.263  37.569  14.062
36982W        W10050   9.860  39.801  11.828
36983W        W10051  43.887   5.395  11.022
36984W        W10052  25.400  10.807  10.783
36985W        W10053   9.747  23.119   2.922
36986W        W10054  18.663  33.886   4.840
36987W        W10055  31.887  32.084  10.724
36988W        W10056  15.758  33.134   9.966
36989W        W10057  12.226  29.069  12.017
36990W        W10058  15.180  42.970   1.022
36991W        W10059  30.923  24.151   4.120
36992W        W10060   0.461  23.036  13.800
36993W        W10061  12.860  38.472  14.933
36994W        W10062  28.583  15.848  13.375
36995W        W10063  12.687  20.698   3.604
36996W        W10064  10.805  13.150  10.936
36997W        W10065  29.684  34.870   4.594
36998W        W10066  15.340  23.279  13.603
36999W        W10067  17.832   6.515   1.333
37000W        W10068   5.878  15.428  12.618
37001W        W10069  24.760  29.963  12.988
37002W        W10070  28.695  23.554  11.403
37003W        W10071  14.387  13.302  14.388
37004W        W10072  30.237  32.342  13.481
37005W        W10073  27.555   7.140  11.136
37006W        W10074  28.523   3.615   3.262
37007W        W10075  27.594   4.217   1.242
37008W        W10076  24.601  23.930  11.164
37009W        W10077   4.040  11.972  13.779
37010W        W10078  23.440  36.312  13.933
37011W        W10079  40.300   0.847  14.799
37012W        W10080  39.394  18.757   1.230
37013W        W10081  19.182  38.564   0.833
37014W        W10082   3.551  37.154   4.381
37015W        W10083  12.184  13.382  10.528
37016W        W10084  10.607   2.358  14.001
37017W        W10085  37.583   1.717  12.059
37018W        W10086  14.343  40.332  14.959
37019W        W10087  41.010  17.064   1.304
37020W        W10088  30.172  36.952   3.432
37021W        W10089  29.671  10.222  14.655
37022W        W10090  23.673  28.007   4.932
37023W        W10091   4.349  10.142   2.815
37024W        W10092  44.834  38.868  13.513
37025W        W10093  39.820  39.879   2.853
37026W        W10094  25.069   6.945  14.001
37027W        W10095  44.266  20.602   0.713
37028W        W10096  42.355  13.415   3.324
37029W        W10097  29.056  36.312  11.914
37030W        W10098  14.687  29.449   3.067
37031W        W10099   4.786  13.346   2.783
37032W        W10100  11.412  33.602  11.620
37033W        W10101  40.859  14.590  10.754
37034W        W10102  10.146  30.409   0.879
37035W        W10103  42.943  21.170   4.034
37036W        W10104   5.129  22.488  12.439
37037W        W10105  31.439   7.879  10.715
37038W        W10106  38.111  41.495  13.619
37039W        W10107  40.353  14.311   1.472
37040W        W10108  12.110  36.257  12.899
37041W        W10109  26.794  36.003   4.652
37042W        W10110   0.764  24.801  11.629
37043W        W10111  33.445  18.922   3.759
37044W        W10112  37.074  17.109  12.013
37045W        W10113  31.040  26.122   0.436
37046W        W10114  17.590  29.373  14.714
37047W        W10115  10.324   7.420  13.401
37048W        W10116  31.608  14.312   2.502
37049W        W10117   1.367  18.339   4.203
37050W        W10118  24.150  11.135  10.657
37051W        W10119  28.163  41.960  12.320
37052W        W10120   9.904  19.734  14.385
37053W        W10121   4.641   4.867  12.839
37054W        W10122  13.551  20.491  12.893
37055W        W10123  25.532   1.860   3.734
37056W        W10124  30.671  31.403  14.438
37057W        W10125   8.180   5.445  12.666
37058W        W10126  43.228  38.316   0.977
37059W        W10127  43.022  35.003   1.304
37060W        W10128  34.365   9.710   0.032
37061W        W10129  39.975  32.796  10.615
37062W        W10130  41.812  22.529  12.490
37063W        W10131   3.692  43.940   3.663
37064W        W10132  31.606  39.661   1.267
37065W        W10133  16.086  13.882  11.130
37066W        W10134  16.680  18.074   4.656
37067W        W10135   9.234   4.603  11.927
37068W        W10136   2.138  33.510  11.888
37069W        W10137   3.058  25.719  12.458
37070W        W10138  35.551  38.484   4.612
37071W        W10139  18.888   6.309  11.538
37072W        W10140  29.843  40.623  11.968
37073W        W10141  18.003   3.247   0.692
37074W        W10142  36.564  38.998   3.963
37075W        W10143  10.919  42.976  11.663
37076W        W10144  20.333  17.222  12.946
37077W        W10145  14.141  18.842  12.111
37078W        W10146  34.872  14.113  11.996
37079W        W10147  44.039  41.271  14.499
37080W        W10148  24.955  23.216   0.691
37081W        W10149  22.152   8.384   2.407
37082W        W10150  22.442  13.731   0.358
37083W        W10151  12.870  43.262   1.335
37084W        W10152  21.839  37.191  12.476
37085W        W10153   6.787  43.084   3.394
37086W        W10154  18.489  13.748  13.455
37087W        W10155   7.352  37.070  11.473
37088W        W10156   0.236  29.585   1.767
37089W        W10157  23.060  42.399  11.664
37090W        W10158  14.237  10.589   2.810
37091W        W10159  17.181  14.164  12.244
37092W        W10160  33.056  26.494  14.916
37093W        W10161   7.322  33.045   4.409
37094W        W10162  30.452  17.585  13.702
37095W        W10163  32.368  20.995   4.750
37096W        W10164  33.476  13.116   2.661
37097W        W10165  35.568  22.428   1.966
37098W        W10166   2.806  13.089  11.064
37099W        W10167  42.931  34.662   4.182
37100W        W10168  13.564  22.112  13.403
37101W        W10169  21.679  39.447  14.467
37102W        W10170  23.572  30.246  12.488
37103W        W10171  14.382  38.518   2.714
37104W        W10172  44.499   3.828  12.639
37105W        W10173   7.705   9.873   2.645
37106W        W10174  15.191  10.265  12.837
37107W        W10175  40.451  12.824  10.637
37108W        W10176  29.334   3.272  14.537
37109W        W10177   2.003  36.855  12.745
37110W        W10178   3.510  25.085   4.385
37111W        W10179  23.792  31.154  11.285
37112W        W10180  41.324  32.631  14.792
37113W        W10181  22.605  19.588  14.579
37114W        W10182   6.276  38.714   9.942
37115W        W10183  38.752  30.598  10.278
37116W        W10184   7.980  34.911   4.229
37117W        W10185  38.467   4.466  10.457
37118W        W10186  19.617  22.699   1.165
37119W        W10187  37.716  34.445   4.825
37120W        W10188  34.295  12.178   1.017
37121W        W10189  19.293   9.586  13.703
37122W        W10190  13.635  28.394  13.548
37123W        W10191  32.437  10.426   3.530
37124W        W10192  16.772  19.602  12.994
37125W        W10193  41.679   2.386  13.631
37126W        W10194  32.157  37.846  12.562
37127W        W10195  37.029   1.610  12.025
37128W        W10196  33.957  35.131   4.784
37129W        W10197  35.501   1.508  13.614
37130W        W10198  38.424  37.350   2.921
37131W        W10199   3.782   8.497  12.979
37132W        W10200  16.077   2.466  14.521
37133W        W10201  32.373  16.552   2.385
37134W        W10202   6.069  36.667   3.029
37135W        W10203  33.497  37.426  10.901
37136W        W10204  41.025  20.522  11.544
37137W        W10205  11.116  10.685  11.792
37138W        W10206  33.443  22.136   4.448
37139W        W10207  25.094  18.968   3.175
37140W        W10208  28.961   2.571  12.163
37141W        W10209  17.053   6.622   1.870
37142W        W10210   5.936   3.896   2.278
37143W        W10211  41.729  34.374   4.169
37144W        W10212  27.193  31.440   4.209
37145W        W10213  25.483  33.522   1.292
37146W        W10214  11.778  28.164   3.171
37147W        W10215  38.438  19.664   0.418
37148W        W10216  14.068  32.354   0.873
37149W        W10217  30.204  22.033   2.171
37150W        W10218  37.923   1.554  12.874
37151W        W10219  10.937  20.447  14.002
37152W        W10220  16.584   9.894   3.220
37153W        W10221  21.877  39.088  10.237
37154W        W10222   2.608   5.346   0.904
37155W        W10223   3.389  20.221  12.018
37156W        W10224  43.183  14.067  14.841
37157W        W10225  13.235   1.561   2.091
37158W        W10226  21.647  24.203  12.891
37159W        W10227  18.130  36.321   1.316
37160W        W10228  43.393  21.811  14.779
37161W        W10229  12.778   8.265   4.178
37162W        W10230  44.736   7.417   0.480
37163W        W10231   3.829  43.036   4.602
37164W        W10232  24.199  31.182  14.777
37165W        W10233  31.192  14.222   2.810
37166W        W10234   1.051  18.587   0.018
37167W        W10235  38.310  41.064   2.895
37168W        W10236  33.488   8.609  13.060
37169W        W10237  20.339  16.711  10.993
37170W        W10238  18.149  18.686   3.703
37171W        W10239  19.757  17.557   2.404
37172W        W10240  31.954  40.773   1.893
37173W        W10241  38.619   8.644  12.883
37174W        W10242   9.739  20.622  12.955
37175W        W10243  22.166   9.828  13.331
37176W        W10244  26.739  36.986  12.452
37177W        W10245   9.853   2.263   2.674
37178W        W10246   2.912  38.672   3.837
37179W        W10247  16.160  36.399   4.432
37180W        W10248   9.294  40.015   4.182
37181W        W10249   7.936  37.837   0.681
37182W        W10250  34.890  14.309  13.842
37183W        W10251  33.387   1.937  10.554
37184W        W10252  22.204  42.910  12.221
37185W        W10253   9.081  17.800  10.789
37186W        W10254  10.909  10.574   0.299
37187W        W10255  17.572  31.878  11.670
37188W        W10256  15.735  43.609   3.652
37189W        W10257  21.588  44.908   1.295
37190W        W10258   8.608   8.873  14.857
37191W        W10259  28.108  12.863  14.956
37192W        W10260  33.353  27.993   0.456
37193W        W10261  41.447  25.525   3.336
37194W        W10262  26.925  43.546  10.690
37195W        W10263  18.250   6.754  12.365
37196W        W10264  32.925   6.849  13.481
37197W        W10265  16.387  30.495  11.207
37198W        W10266  28.974  15.162  10.958
37199W        W10267   6.282  11.164   3.662
37200W        W10268  43.427  21.172   0.893
37201W        W10269   6.779  38.251  14.533
37202W        W10270  20.805  34.642   3.342
37203W        W10271  16.743   8.080   3.559
37204W        W10272  25.673  23.092  13.838
37205W        W10273   9.268  23.027  11.509
37206W        W10274  27.669  11.877   2.732
37207W        W10275  43.716  42.755  13.593
37208W        W10276  30.899  31.638  13.140
37209W        W10277  40.239  13.286   2.095
37210W        W10278  29.795  25.538  12.576
37211W        W10279  15.128  39.300   0.418
37212W        W10280   1.916   9.083   2.380
37213W        W10281   1.743  27.491   2.299
37214W        W10282  38.262  40.081   3.056
37215W        W10283  28.115  32.534  14.805
37216W        W10284  31.145  24.933   0.649
37217W        W10285  14.156  43.651   4.594
37218W        W10286  13.676  42.096  12.055
37219W        W10287  23.072  26.449  14.885
37220W        W10288  23.121  32.111   4.594
37221W        W10289  12.048  18.179   0.266
37222W        W10290  44.274   7.714  14.775
37223W        W10291  29.496  18.219   4.114
37224W        W10292  17.614  10.297  12.965
37225W        W10293   7.190  18.070   2.897
37226W        W10294  23.072  11.853  14.734
37227W        W10295  39.202   8.698   5.427
37228W        W10296  21.678  25.195  14.593
37229W        W10297  37.791  39.997   1.752
37230W        W10298  24.700  37.883  10.156
37231W        W10299  11.323  42.736  14.986
37232W        W10300   5.491   6.481  11.111
37233W        W10301  25.121   8.187   0.006
37234W        W10302  32.579  24.508  11.591
37235W        W10303  26.170   3.173   4.876
37236W        W10304  36.487  11.219   4.974
37237W        W10305  29.345   4.919  14.244
37238W        W10306  14.162  30.766   2.922
37239W        W10307  14.855  24.899  11.194
37240W        W10308  21.777   2.431  10.823
37241W        W10309  17.412  19.398   5.087
37242W        W10310  23.632  16.367   4.782
37243W        W10311  18.829  30.435   0.004
37244W        W10312   2.065  36.450   5.173
37245W        W10313   8.346  33.002   1.366
37246W        W10314  17.610  16.118   1.767
37247W        W10315  33.571  33.554   4.095
37248W        W10316  38.837  29.385   2.695
37249W        W10317   9.858  16.150   4.706
37250W        W10318   1.015  19.260   1.773
37251W        W10319  19.289  16.325  11.637
37252W        W10320  10.231  33.022  14.396
37253W        W10321  19.246  19.359   1.657
37254W        W10322   2.234  20.650   1.396
37255W        W10323   6.715   3.625  14.322
37256W        W10324  22.328  16.004  12.557
37257W        W10325   4.398  38.583   0.976
37258W        W10326  28.986  13.003  13.463
37259W        W10327  33.041  16.058   1.071
37260W        W10328  40.485  37.151  10.567
37261W        W10329   4.345   0.552  10.661
37262W        W10330  19.809  12.372   3.824
37263W        W10331   2.476  14.718  14.081
37264W        W10332  32.406  15.368  10.453
37265W        W10333   0.897   8.490   1.947
37266W        W10334  28.486  38.040   1.013
37267W        W10335  42.565  34.313  11.556
37268W        W10336   5.757   7.272   3.991
37269W        W10337  17.688  32.470   1.041
37270W        W10338  19.096  16.628   0.275
37271W        W10339   1.580  21.581   1.305
37272W        W10340  37.241  11.063  11.996
37273W        W10341  41.042  19.825   2.225
37274W        W10342   9.215   2.992  12.024
37275W        W10343  41.751  42.225   2.477
37276W        W10344  42.510  42.691  10.816
37277W        W10345  16.372   3.030   1.646
37278W        W10346  16.845  40.045  10.404
37279W        W10347  21.107  28.975  11.195
37280W        W10348  41.408  38.918   3.988
37281W        W10349   8.684  29.976   4.221
37282W        W10350  15.334  16.415  12.090
37283W        W10351  30.318  35.395  12.552
37284W        W10352  37.396  28.632  11.081
37285W        W10353   4.525  25.381  12.454
37286W        W10354  42.763   2.071   2.693
37287W        W10355  35.266  26.200   3.972
37288W        W10356  19.307  29.368   2.313
37289W        W10357  20.676   6.842   2.874
37290W        W10358  18.647  34.134  11.613
37291W        W10359  33.091  42.788   2.520
37292W        W10360  36.086  36.421   1.733
37293W        W10361  40.927  16.141  14.440
37294W        W10362  10.956  16.622  10.134
37295W        W10363  40.077  33.531  13.918
37296W        W10364  27.129  43.419   0.578
37297W        W10365   9.714  18.290  11.426
37298W        W10366  41.270  40.330   3.597
37299W        W10367  38.888  24.149   4.662
37300W        W10368  31.760  14.725   3.443
37301W        W10369  37.087  22.543   2.415
37302W        W10370  35.889  20.062  12.518
37303W        W10371   6.555   8.712  12.627
37304W        W10372  14.231  42.239   4.757
37305W        W10373  21.609  20.849  14.275
37306W        W10374   7.800  26.089  13.747
37307W        W10375  12.289  18.413  12.525
37308W        W10376  10.189  10.731  13.846
37309W        W10377  44.469  42.335   3.431
37310W        W10378  39.657  15.916   3.597
37311W        W10379   1.173  19.802  13.452
37312W        W10380  44.294  37.501  14.880
37313W        W10381  18.192  36.846  10.974
37314W        W10382  44.433  22.363  14.946
37315W        W10383  23.378  22.825   2.347
37316W        W10384  18.088  26.314  11.523
37317W        W10385  14.941  26.617   1.621
37318W        W10386  29.681  16.832   4.606
37319W        W10387  44.329  17.838   3.071
37320W        W10388  26.660  43.551   1.689
37321W        W10389  12.395   3.733   2.331
37322W        W10390  36.548  37.580  10.330
37323W        W10391  15.883   4.356  12.024
37324W        W10392  34.113   8.595   1.798
37325W        W10393   6.895  21.998  12.030
37326W        W10394  37.065  26.582  12.101
37327W        W10395   3.315   1.343  12.186
37328W        W10396   6.427  17.014  13.387
37329W        W10397  42.532  10.134   2.200
37330W        W10398  28.925   4.969  12.475
37331W        W10399  15.766  34.060  14.232
37332W        W10400   2.080   5.780  13.406
37333W        W10401   1.897  40.392   4.620
37334W        W10402  14.188  36.751  13.300
37335W        W10403   8.679  33.998  12.381
37336W        W10404  39.363  40.369   3.383
37337W        W10405   1.019   1.724  13.649
37338W        W10406  14.904  14.633   4.262
37339W        W10407  42.307  35.045   3.744
37340W        W10408  10.120  36.006  11.042
37341W        W10409   2.450  32.213  12.968
37342W        W10410  44.467   3.793  14.864
37343W        W10411  16.367  14.295  13.845
37344W        W10412   3.750  22.316   0.860
37345W        W10413   2.335  11.306  13.140
37346W        W10414   5.230   1.657  13.417
37347W        W10415  32.881  28.200   2.129
37348W        W10416   2.408   1.762  13.822
37349W        W10417  18.263  12.257   4.856
37350W        W10418  40.014   7.730  13.197
37351W        W10419  29.176  36.969   1.917
37352W        W10420  26.028  26.821  11.076
37353W        W10421  38.537  34.848  13.227
37354W        W10422  24.317  19.650   1.550
37355W        W10423  36.896  14.111   0.278
37356W        W10424   3.234  32.803  14.857
37357W        W10425  31.515  42.439  11.508
37358W        W10426  29.483  38.432   2.383
37359W        W10427  34.927  21.077  11.576
37360W        W10428  13.387  12.068   0.399
37361W        W10429  24.131  39.940  12.501
37362W        W10430  10.587  23.175  11.534
37363W        W10431  25.060  24.724   4.632
37364W        W10432  16.346  19.297  13.060
37365W        W10433  11.648   7.154  12.905
37366W        W10434  44.893   8.162  10.747
37367W        W10435  43.197  41.815  11.383
37368W        W10436   3.389   4.841  13.240
37369W        W10437   2.200   4.329  14.887
37370W        W10438  36.913  13.062   1.892
37371W        W10439   0.803  43.680  14.931
37372W        W10440  24.207   4.715  10.882
37373W        W10441  19.164   3.511  11.504
37374W        W10442  28.917   7.272  13.924
37375W        W10443   1.041   8.352   2.955
37376W        W10444  32.103  44.926   4.728
37377W        W10445  33.855  10.481   0.925
37378W        W10446   9.264  38.365   0.758
37379W        W10447  39.488  38.592   4.593
37380W        W10448  13.556   1.047   2.863
37381W        W10449  18.531  15.450  11.719
37382W        W10450  31.384   5.674   3.428
37383W        W10451  38.598   7.292  14.445
37384W        W10452  23.694  13.292   3.727
37385W        W10453   6.401  42.251  12.327
37386W        W10454  29.518  15.778   4.212
37387W        W10455  25.198  44.087  12.015
37388W        W10456  44.188  12.288  14.943
37389W        W10457  35.154   0.949   2.285
37390W        W10458  38.792  44.055  11.041
37391W        W10459  17.149  30.599  14.088
37392W        W10460  24.051  22.572   4.128
37393W        W10461  35.206  31.345   3.655
37394W        W10462  11.043   1.512   2.280
37395W        W10463  28.205  42.210   3.293
37396W        W10464  37.507  12.098  14.110
37397W        W10465   1.875  14.395  11.992
37398W        W10466  17.711  13.898   1.471
37399W        W10467  33.944   4.213  11.451
37400W        W10468   2.208  41.883   2.136
37401W        W10469   1.364  11.893   2.426
37402W        W10470   6.786   7.681  14.350
37403W        W10471  15.261   3.495   1.352
37404W        W10472   8.373  28.179  13.318
37405W        W10473  23.759  14.996   2.678
37406W        W10474  40.644   9.043   2.196
37407W        W10475  35.483  43.474   2.239
37408W        W10476   1.430  12.210   0.803
37409W        W10477  29.186  43.846  11.165
37410W        W10478  39.720  27.165   1.843
37411W        W10479  24.642  17.955  10.638
37412W        W10480  41.261  29.635   2.649
37413W        W10481  26.979  22.494  13.437
37414W        W10482   7.279  17.813   1.329
37415W        W10483   2.829  17.011   2.724
37416W        W10484  30.952  30.609  11.212
37417W        W10485  25.113  26.178   1.940
37418W        W10486  35.882  10.118   1.471
37419W        W10487  17.956  40.810  13.505
37420W        W10488   3.149  43.129   3.420
37421W        W10489  43.919  39.395  14.081
37422W        W10490  32.804  16.259   2.392
37423W        W10491  21.011  36.504   5.111
37424W        W10492  26.151   7.848  12.480
37425W        W10493   6.141  16.524   3.661
37426W        W10494   4.158   4.477  14.462
37427W        W10495  13.724   9.349   1.399
37428W        W10496  26.061  29.408  13.950
37429W        W10497   5.440  14.356   0.652
37430W        W10498  15.306  24.068  11.741
37431W        W10499   1.355  28.665   2.280
37432W        W10500  41.318  25.256  11.484
37433W        W10501  14.686  13.567  14.749
37434W        W10502  41.842  19.522   4.546
37435W        W10503   6.497  33.000   3.739
37436W        W10504   8.884  30.902  13.203
37437W        W10505  29.053  11.227  12.897
37438W        W10506  40.079   8.429   4.180
37439W        W10507  40.536  11.969   1.433
37440W        W10508  38.055  14.499   4.698
37441W        W10509  20.172  29.899  14.338
37442W        W10510  37.556  43.706   3.134
37443W        W10511  32.218  20.323  12.102
37444W        W10512   1.299  25.998   4.430
37445W        W10513  20.462  12.063   0.479
37446W        W10514  32.593   2.641   0.845
37447W        W10515  38.957  43.281  13.972
37448W        W10516  22.752  40.382  14.002
37449W        W10517  16.985  30.710   0.911
37450W        W10518  33.436  13.839  12.963
37451W        W10519  14.896   5.918   3.824
37452W        W10520  15.597  26.115  10.805
37453W        W10521   5.658  36.827  11.382
37454W        W10522  18.705  11.630  13.833
37455W        W10523  16.215   8.371  12.846
37456W        W10524   9.191  26.913   1.258
37457W        W10525  26.670  39.224   0.673
37458W        W10526  26.584  22.259  10.722
37459W        W10527  10.996  13.834   4.718
37460W        W10528  18.626  38.568  14.959
37461W        W10529  35.419  30.048   3.014
37462W        W10530   6.755  14.671   0.697
37463W        W10531  19.494  31.242   4.214
37464W        W10532  39.615  40.863   4.333
37465W        W10533  21.175  41.481  12.809
37466W        W10534  29.442  17.645  14.841
37467W        W10535  35.145  31.438  13.065
37468W        W10536  42.335  14.828  11.563
37469W        W10537  25.679  30.114  10.750
37470W        W10538  12.692  14.238  11.620
37471W        W10539  37.972  38.951  13.076
37472W        W10540   1.303  36.729   3.640
37473W        W10541  21.169  22.681  13.802
37474W        W10542   9.566  19.869   2.428
37475W        W10543  15.652  18.163  10.710
37476W        W10544  15.733  34.178   4.043
37477W        W10545  11.408  36.938  14.615
37478W        W10546   9.746  15.310   5.162
37479W        W10547  17.674   4.347  10.972
37480W        W10548   9.313  38.145   4.182
37481W        W10549  39.383  37.308   4.564
37482W        W10550  31.146   9.305  11.614
37483W        W10551   0.541   8.315  11.923
37484W        W10552  41.461  44.808   4.323
37485W        W10553  40.558  31.139   2.363
37486W        W10554  27.715  13.771   4.608
37487W        W10555  40.276  38.923   4.139
37488W        W10556  35.072  30.491  10.669
37489W        W10557  23.151  15.575   0.755
37490W        W10558  10.367  35.723   2.983
37491W        W10559  26.743  41.883   0.810
37492W        W10560  11.836   0.704   4.183
37493W        W10561   2.668   3.773  11.217
37494W        W10562  42.030   7.059  14.418
37495W        W10563  25.035  15.491   4.689
37496W        W10564  36.799  25.652  14.319
37497W        W10565  40.569  12.139  12.770
37498W        W10566  39.929  17.966   4.908
37499W        W10567   8.399  21.631   0.405
37500W        W10568   5.259   9.833   1.808
37501W        W10569  24.348  36.334   1.698
37502W        W10570  27.422  35.676   2.260
37503W        W10571  27.114  16.069   4.267
37504W        W10572  32.883  33.621   2.925
37505W        W10573  36.472  19.780   1.339
37506W        W10574  42.729  32.598  13.928
37507W        W10575  28.525   8.279  13.842
37508W        W10576   9.929  21.721  12.099
37509W        W10577  29.135  33.817   3.975
37510W        W10578  38.278   3.344  12.992
37511W        W10579  17.603  21.305  10.416
37512W        W10580  34.162   6.241   0.820
37513W        W10581  41.932   5.724   4.441
37514W        W10582  39.561   1.943  11.054
37515W        W10583   9.717  17.810  11.594
37516W        W10584   9.313  27.511   2.359
37517W        W10585  30.001   8.966   0.113
37518W        W10586  27.199   3.439   1.774
37519W        W10587  14.348  43.306   0.407
37520W        W10588  30.968  17.555   4.259
37521W        W10589  39.526  33.112   3.202
37522W        W10590  13.187  29.176  13.414
37523W        W10591   1.112  11.188  11.262
37524W        W10592  14.476  16.097  10.799
37525W        W10593  32.637  19.239   1.197
37526W        W10594  10.063   8.864   4.969
37527W        W10595  38.422  36.364  12.045
37528W        W10596   0.632   5.622  11.194
37529W        W10597  21.684   4.024  14.587
37530W        W10598  31.065  23.205  12.870
37531W        W10599  29.405  44.874  11.891
37532W        W10600  41.739  26.959  11.156
37533W        W10601  19.151  16.143   2.030
37534W        W10602  18.608  36.281  12.414
37535W        W10603   6.970  26.851   1.798
37536W        W10604  43.968  26.284  13.173
37537W        W10605  31.279  33.553   9.878
37538W        W10606   5.952  23.689  11.022
37539W        W10607   6.746  10.887   3.696
37540W        W10608  26.808   4.926   4.479
37541W        W10609  33.916   8.287  11.768
37542W        W10610  23.996  21.592   2.021
37543W        W10611   5.926  27.416   0.455
37544W        W10612   0.230  12.269  14.654
37545W        W10613   5.347  37.053  10.571
37546W        W10614   6.640  40.976  13.492
37547W        W10615  26.426  26.577   0.549
37548W        W10616   8.168  21.748   2.249
37549W        W10617  16.303  18.554   1.749
37550W        W10618  13.185  25.340  11.181
37551W        W10619  33.982   1.842   0.255
37552W        W10620  12.054  10.241   3.755
37553W        W10621  13.739  29.995   2.882
37554W        W10622  12.329  15.740  12.750
37555W        W10623  12.133  40.582   3.851
37556W        W10624  34.922  17.050   3.581
37557W        W10625  12.617   6.394  12.174
37558W        W10626  31.712  20.020  13.351
37559W        W10627   7.903  14.054   0.552
37560W        W10628   8.706  44.078  14.896
37561W        W10629  19.308  41.716   1.419
37562W        W10630  29.053  32.559   1.323
37563W        W10631  33.872  40.635  11.237
37564W        W10632  16.745   1.408   4.055
37565W        W10633  11.170  38.841  10.827
37566W        W10634  22.684  42.804  13.575
37567W        W10635  37.092   5.882  13.066
37568W        W10636   3.385  23.717   4.215
37569W        W10637   1.760  11.848   4.617
37570W        W10638  29.892  24.333  12.502
37571W        W10639   7.894  16.398  14.408
37572W        W10640   7.290  16.488  11.006
37573W        W10641  44.766  13.110  11.121
37574W        W10642  41.828  17.776  11.571
37575W        W10643  19.016  10.708  14.515
37576W        W10644  34.580  30.581   1.546
37577W        W10645  11.108  10.263  12.172
37578W        W10646  40.817  32.283   0.678
37579W        W10647  43.039  29.492  13.355
37580W        W10648  41.504  25.671   0.350
37581W        W10649   4.067   5.451  14.125
37582W        W10650  44.904  11.811  12.127
37583W        W10651  10.279  37.804   4.111
37584W        W10652   8.400   8.274   0.680
37585W        W10653  30.658  20.641  11.246
37586W        W10654  37.372  30.114   1.811
37587W        W10655  21.351  19.223   3.754
37588W        W10656  22.711   1.279   2.171
37589W        W10657  24.947  24.568  14.854
37590W        W10658  40.862   9.777   0.905
37591W        W10659  13.114  19.280   4.628
37592W        W10660  11.609  12.563   0.530
37593W        W10661  17.991  18.194   0.455
37594W        W10662  29.105  32.002  13.791
37595W        W10663  43.960   3.755   2.873
37596W        W10664  14.142  32.705  13.535
37597W        W10665  25.511  42.797  10.592
37598W        W10666   5.157   7.813   0.038
37599W        W10667  30.658  34.137  13.848
37600W        W10668   9.101  17.746   2.312
37601W        W10669  33.469  13.648   0.553
37602W        W10670  32.395  26.811  14.426
37603W        W10671  20.531  23.960  14.361
37604W        W10672  23.442   1.375   3.221
37605W        W10673   9.954  21.144   3.175
37606W        W10674  31.309  31.972   2.936
37607W        W10675  22.965  41.792  13.922
37608W        W10676  40.887  29.124  12.385
37609W        W10677   1.338  29.943  10.974
37610W        W10678  16.142  24.645   2.182
37611W        W10679  29.219  25.630  14.215
37612W        W10680  34.327  42.869   0.315
37613W        W10681  11.241  23.635   4.041
37614W        W10682  14.260  16.067  14.957
37615W        W10683  42.710  12.277  14.899
37616W        W10684  44.916  38.272  14.533
37617W        W10685  10.780  13.661   0.274
37618W        W10686  22.690  42.951  14.670
37619W        W10687   5.768  37.866  13.223
37620W        W10688  25.094   0.822   4.388
37621W        W10689  16.958  23.648   3.730
37622W        W10690   5.397  24.336  14.411
37623W        W10691  26.083  31.555  13.824
37624W        W10692  23.662  16.907   3.609
37625W        W10693  34.650  16.188   3.189
37626W        W10694   0.301  38.417   3.361
37627W        W10695   0.831  36.817  13.340
37628W        W10696  37.929  21.615   2.722
37629W        W10697  42.517  17.776  11.883
37630W        W10698   8.119  12.371  11.652
37631W        W10699  30.579  25.480  13.026
37632W        W10700  20.045  42.396  11.064
37633W        W10701  21.503  12.270  11.633
37634W        W10702  26.504  23.701   3.864
37635W        W10703  23.464  43.679   2.112
37636W        W10704   2.848   8.209  12.408
37637W        W10705  30.248  10.380  11.604
37638W        W10706  31.230   6.966  13.282
37639W        W10707  21.772  11.193   2.414
37640W        W10708  20.283  10.285   4.321
37641W        W10709  19.808   8.593  10.492
37642W        W10710  29.381   6.158   1.854
37643W        W10711  36.055   0.209  11.594
37644W        W10712  19.738   5.176  12.409
37645W        W10713  28.030  38.807   2.750
37646W        W10714  22.079   9.950  14.984
37647W        W10715  23.903  35.397   2.820
37648W        W10716  24.558   6.606   0.179
37649W        W10717  20.102  21.680   4.560
37650W        W10718  21.033  31.420  13.721
37651W        W10719  33.897   4.798  11.237
37652W        W10720  27.002  40.317  13.588
37653W        W10721  17.503  22.554   2.472
37654W        W10722  27.910  32.441  13.337
37655W        W10723  36.823  38.502   1.537
37656W        W10724  28.203  10.635  13.984
37657W        W10725   6.676  18.651   2.246
37658W        W10726  18.989  18.895   1.867
37659W        W10727  43.182  18.723  12.827
37660W        W10728  37.679  38.682  14.005
37661W        W10729  14.665   0.018   1.727
37662W        W10730  27.571  25.176  13.580
37663W        W10731   8.986  17.230   4.780
37664W        W10732   7.304  33.063  13.990
37665W        W10733  44.227  27.443  12.635
37666W        W10734   0.663  29.737  11.242
37667W        W10735   9.757   6.648   3.659
37668W        W10736  41.834  27.325  11.947
37669W        W10737  31.000  25.021   2.640
37670W        W10738  23.178  42.527   1.701
37671W        W10739  29.077   9.272   0.786
37672W        W10740  12.848   4.794   3.701
37673W        W10741  29.645  43.718   0.526
37674W        W10742  12.757  31.615   4.414
37675W        W10743   3.302   0.432  14.497
37676W        W10744  18.158  38.586  14.678
37677W        W10745  31.161  30.470   2.213
37678W        W10746  16.976  24.160  12.844
37679W        W10747   9.391  39.936  12.050
37680W        W10748   5.205   1.936   4.631
37681W        W10749  41.077  28.490  11.120
37682W        W10750  10.920  26.688   2.945
37683W        W10751  35.774  17.234   0.316
37684W        W10752  31.906  44.454   3.573
37685W        W10753   4.735   8.835   3.246
37686W        W10754   3.685   7.900  11.599
37687W        W10755   8.296  20.530   1.825
37688W        W10756  35.689  32.209   4.058
37689W        W10757  31.436  10.403  14.476
37690W        W10758  34.808  30.126   0.788
37691W        W10759  42.003   0.975   1.224
37692W        W10760  12.107  31.947  12.267
37693W        W10761  17.234  20.750   2.865
37694W        W10762  21.553   6.722   1.010
37695W        W10763  36.355  23.262  14.578
37696W        W10764  10.296  23.725  11.092
37697W        W10765  30.734   3.015  10.711
37698W        W10766   8.281   0.472   3.318
37699W        W10767  30.759  15.180   0.964
37700W        W10768  11.799  43.531  14.673
37701W        W10769   3.842  23.129   4.751
37702W        W10770  14.321  13.451   1.901
37703W        W10771  22.615  34.118   1.529
37704W        W10772  36.408  36.674  13.505
37705W        W10773  29.868  28.450   1.190
37706W        W10774   8.706  27.561  14.955
37707W        W10775  25.196   5.658   1.437
37708W        W10776  14.689  44.219  14.183
37709W        W10777  35.472  14.764   4.551
37710W        W10778   4.664   0.331  11.457
37711W        W10779  12.259  41.875  10.981
37712W        W10780  37.416  23.101  13.861
37713W        W10781  35.768   9.123   2.633
37714W        W10782   4.362  23.105   0.973
37715W        W10783  28.999   8.816   2.153
37716W        W10784  28.178  33.452  12.508
37717W        W10785  19.925   0.456   1.936
37718W        W10786  25.015  11.308  13.709
37719W        W10787  39.353  43.519  12.833
37720W        W10788  29.993  19.116   5.032
37721W        W10789  25.008  31.611   1.978
37722W        W10790  37.796   4.824   0.878
37723W        W10791  18.640  23.349  13.289
37724W        W10792   5.777  43.239  14.429
37725W        W10793  19.757  10.301  12.086
37726W        W10794  36.034   3.822   2.277
37727W        W10795   0.653  35.687   2.085
37728W        W10796  33.533  44.375   0.717
37729W        W10797  39.508  32.162  12.544
37730W        W10798  44.720  10.342  11.648
37731W        W10799  27.671  26.465  12.396
37732W        W10800  41.975   7.235   1.425
37733W        W10801  10.619  35.954  14.755
37734W        W10802  10.114  30.578  11.601
37735W        W10803  35.878  36.365   0.751
37736W        W10804  11.855  43.931   5.093
37737W        W10805  36.090   7.700   0.877
37738W        W10806  44.725  29.915   2.303
37739W        W10807  41.941  38.914  11.689
37740W        W10808   1.394  10.180   0.343
37741W        W10809  10.881  17.733  14.939
37742W        W10810   2.991   1.268   2.212
37743W        W10811  22.440  21.149   2.811
37744W        W10812  21.573  20.578   2.192
37745W        W10813  23.999  13.048   4.425
37746W        W10814  43.911  14.121  11.672
37747W        W10815  43.442   1.990  14.286
37748W        W10816   9.836  36.019  12.629
37749W        W10817  16.156  20.198   2.373
37750W        W10818  28.495  40.997   1.699
37751W        W10819   5.883  42.958   4.146
37752W        W10820  40.447  31.582  10.998
37753W        W10821  43.265  42.054  13.127
37754W        W10822  28.603  20.097  12.550
37755W        W10823  19.995  13.122  14.399
37756W        W10824  33.632  16.705   3.620
37757W        W10825  37.113   3.101   2.816
37758W        W10826  16.348  33.446   0.253
37759W        W10827   1.354  23.937   1.766
37760W        W10828  33.462   9.876  11.404
37761W        W10829   9.709  43.109  12.241
37762W        W10830   8.902  18.704  13.064
37763W        W10831  14.761   4.381  11.030
37764W        W10832  21.985   7.114   1.910
37765W        W10833  31.893  30.667   2.770
37766W        W10834   9.615  14.254  14.547
37767W        W10835  15.258  14.429   2.659
37768W        W10836  25.021  40.956  12.110
37769W        W10837  33.448  33.091  12.872
37770W        W10838   0.900  11.366   4.882
37771W        W10839  36.910  11.169  11.459
37772W        W10840   8.945  28.462   1.961
37773W        W10841  28.738  39.470  14.382
37774W        W10842   9.318  24.135   2.062
37775W        W10843  41.510  12.923  14.212
37776W        W10844  14.786  10.090  11.604
37777W        W10845  10.098   0.952   2.844
37778W        W10846   7.830  27.471   1.778
37779W        W10847  11.348  25.002   4.172
37780W        W10848  35.409  12.140  14.325
37781W        W10849  42.382  41.414   3.678
37782W        W10850  15.268  28.699  13.890
37783W        W10851  34.360   5.139   1.777
37784W        W10852  15.184   1.565  12.908
37785W        W10853  23.031  20.610  10.620
37786W        W10854  43.972  21.769   4.650
37787W        W10855  32.573  17.810  11.044
37788W        W10856  40.013   7.717   9.752
37789W        W10857  42.531  28.716   0.976
37790W        W10858  39.483  28.571   3.276
37791W        W10859  35.628  26.004  14.633
37792W        W10860  30.592  32.623  12.072
37793W        W10861   6.556  19.247  11.884
37794W        W10862  43.459  32.746   3.663
37795W        W10863  34.791  25.530  10.809
37796W        W10864  32.337  31.998  11.962
37797W        W10865  41.861   2.805   3.208
37798W        W10866   9.000  36.975   0.427
37799W        W10867  44.237  14.650   1.209
37800W        W10868  42.555  32.943  12.334
37801W        W10869  16.825   5.444  11.085
37802W        W10870  26.262  37.768   4.567
37803W        W10871   3.457   7.718   4.558
37804W        W10872  28.824  42.678   5.143
37805W        W10873  39.376   1.980  12.885
37806W        W10874   2.345  17.088   0.880
37807W        W10875  23.041  15.708   4.179
37808W        W10876  13.649  26.901   0.949
37809W        W10877   4.126   1.453   1.159
37810W        W10878  41.921  25.263   1.307
37811W        W10879   2.756  22.083  11.540
37812W        W10880   9.415  27.858  13.394
37813W        W10881   4.161  24.635  14.507
37814W        W10882  31.606  22.538   4.591
37815W        W10883  39.404  30.552   0.453
37816W        W10884  31.330  30.130   0.961
37817W        W10885  23.141  43.446   2.595
37818W        W10886  39.945  37.319  10.692
37819W        W10887  12.165  23.034  12.945
37820W        W10888   6.873   5.818  14.039
37821W        W10889   9.260  10.856   2.771
37822W        W10890  28.695  16.924   2.732
37823W        W10891  12.678   5.138  14.006
37824W        W10892  23.193  24.143   1.463
37825W        W10893  10.734  27.201  10.395
37826W        W10894  21.020   7.132   2.181
37827W        W10895  38.064  10.680   0.945
37828W        W10896  31.793  32.168  11.992
37829W        W10897  28.489   9.437   0.441
37830W        W10898  28.484  39.982   1.050
37831W        W10899   3.010  39.434  14.891
37832W        W10900  27.219  35.965  10.774
37833W        W10901  11.145  24.535   4.404
37834W        W10902  23.420  26.505   3.342
37835W        W10903   2.918  31.652   3.753
37836W        W10904  31.801   8.944   1.201
37837W        W10905   9.697  18.116   4.803
37838W        W10906  41.343  31.540  10.680
37839W        W10907  24.077   6.214   0.917
37840W        W10908  10.666   2.855   2.676
37841W        W10909   6.221   4.033  13.788
37842W        W10910   0.736  22.560   2.833
37843W        W10911  13.225  44.856   2.245
37844W        W10912  32.969  18.088   1.882
37845W        W10913   7.239  31.983  12.484
37846W        W10914  26.928   2.227  13.421
37847W        W10915  13.801  13.044  12.584
37848W        W10916   3.802   1.844   0.479
37849W        W10917   7.139  15.814   1.918
37850W        W10918  22.239  17.781   3.165
37851W        W10919  39.409  38.403  12.027
37852W        W10920  42.928  42.906  12.493
37853W        W10921  44.947  32.798  10.472
37854W        W10922  36.373  30.831   5.010
37855W        W10923  40.012   4.327  14.769
37856W        W10924  38.980  19.280  13.355
37857W        W10925  30.550  23.036   0.770
37858W        W10926  29.595  32.101  10.631
37859W        W10927  17.365  17.821  11.505
37860W        W10928  28.616  44.399  11.551
37861W        W10929  24.386  42.319  11.497
37862W        W10930  23.413  26.905  12.953
37863W        W10931  33.910   9.655   2.772
37864W        W10932  14.260  33.158   2.010
37865W        W10933  24.629   2.989   0.387
37866W        W10934   9.497  39.908   2.822
37867W        W10935  39.261  33.864   2.161
37868W        W10936  35.119   7.295  13.363
37869W        W10937  34.991   5.977  11.140
37870W        W10938  40.328  22.850  12.329
37871W        W10939  42.498  41.285  13.318
37872W        W10940  35.397  28.995  11.213
37873W        W10941   8.566  26.446  11.574
37874W        W10942   0.144  17.998  14.398
37875W        W10943  37.448   9.687  13.423
37876W        W10944  42.456  36.008   2.582
37877W        W10945  18.322  19.192   3.678
37878W        W10946  26.527   1.558  12.771
37879W        W10947  30.311   9.601  12.423
37880W        W10948  40.077  26.924   0.032
37881W        W10949   4.326  15.243  11.069
37882W        W10950  40.504  22.775  11.601
37883W        W10951  39.679   7.704   4.613
37884W        W10952  36.441  11.181   1.863
37885W        W10953  42.394   1.970   4.621
37886W        W10954  25.119  14.288  10.655
37887W        W10955   4.907  39.958   0.995
37888W        W10956   6.234  13.323  10.647
37889W        W10957  23.160  11.396  14.946
37890W        W10958   7.465  29.185   3.392
37891W        W10959   2.969  26.935   2.813
37892W        W10960  22.026  26.970   4.308
37893W        W10961  35.327  13.872  11.944
37894W        W10962  36.031  44.908   2.680
37895W        W10963  42.854  10.223   4.970
37896W        W10964  34.357  34.121   5.440
37897W        W10965  43.989  24.004   0.395
37898W        W10966   3.905   7.238  10.339
37899W        W10967  16.709  25.710  13.300
37900W        W10968  15.628  26.593   2.298
37901W        W10969  43.744  14.395  12.068
37902W        W10970  30.202  28.516   0.779
37903W        W10971  34.045  16.281  14.800
37904W        W10972  44.474   6.737   3.719
37905W        W10973   3.756   9.837  13.668
37906W        W10974  32.567   5.396  11.571
37907W        W10975  11.674  16.695   5.242
37908W        W10976  21.190  44.862   1.929
37909W        W10977  22.953  16.806  10.671
37910W        W10978  33.452  38.832  13.882
37911W        W10979  12.751  38.287   2.698
37912W        W10980   0.128  26.620   2.345
37913W        W10981  23.779   3.843  14.788
37914W        W10982  43.696  35.141  10.749
37915W        W10983   5.872  11.772   4.680
37916W        W10984  33.928  22.004  10.627
37917W        W10985  19.543  24.949  14.875
37918W        W10986  10.973  34.422  13.816
37919W        W10987  39.345  23.089   1.964
37920W        W10988  24.553  18.791   4.117
37921W        W10989   4.183   4.303  11.173
37922W        W10990  25.629  12.838   4.110
37923W        W10991   9.375  44.439  12.086
37924W        W10992  40.502  28.671   0.377
37925W        W10993  33.457  23.040  12.500
37926W        W10994  19.975  22.050   3.287
37927W        W10995  43.393  23.763   4.409
37928W        W10996   6.644  39.447  13.499
37929W        W10997  20.581   5.911   2.479
37930W        W10998  32.679  40.556   4.407
37931W        W10999   3.232   2.883   1.293
37932W        W11000  31.915  16.335   3.331
37933W        W11001  30.535   8.273  13.125
37934W        W11002  41.389  36.283   0.394
37935W        W11003   1.923  28.180   4.512
37936W        W11004  30.153   2.210  12.514
37937W        W11005  14.071  26.255   2.793
37938W        W11006  38.913   8.413  10.198
37939W        W11007  23.083  39.908  13.936
37940W        W11008  23.666  13.143  13.413
37941W        W11009  19.538  34.943  12.464
37942W        W11010  38.598  33.603   3.618
37943W        W11011  39.060  36.809  12.851
37944W        W11012  44.543  44.728   2.024
37945W        W11013  41.378   0.786  11.532
37946W        W11014  18.199  16.644  12.173
37947W        W11015  18.771  37.471  14.962
37948W        W11016  38.492  22.736   0.032
37949W        W11017  41.573  12.738   4.353
37950W        W11018  37.933  39.974  13.351
37951W        W11019  16.072   7.672   2.288
37952W        W11020  10.359  23.556  13.435
37953W        W11021  17.123   7.870  11.449
37954W        W11022  15.189  37.564   4.209
37955W        W11023  15.808  19.635  14.963
37956W        W11024  39.102  12.754   4.030
37957W        W11025   3.461  36.541   2.433
37958W        W11026  36.098  21.099   3.864
37959W        W11027  22.324  12.378   4.101
37960W        W11028  12.173  38.851  12.432
37961W        W11029  24.101  44.006   1.435
37962W        W11030   2.184  25.887  13.027
37963W        W11031  25.709   1.906   4.742
37964W        W11032  24.582  22.531  13.945
37965W        W11033  12.095  21.265  12.782
37966W        W11034  33.278   6.416   2.207
37967W        W11035   9.771  34.534   0.971
37968W        W11036   0.010  35.909  12.648
37969W        W11037  43.079  13.839   3.298
37970W        W11038  26.268  38.630  11.243
37971W        W11039   0.419  20.015  12.999
37972W        W11040  39.059  28.633   4.134
37973W        W11041  31.984  23.964  11.117
37974W        W11042  32.826  44.437   3.103
37975W        W11043  25.057  44.983  14.004
37976W        W11044  40.531  44.316   4.594
37977W        W11045  21.011  10.520  11.477
37978W        W11046  43.904   5.228   0.765
37979W        W11047  29.976  33.437  10.824
37980W        W11048  35.488   2.289  14.968
37981W        W11049  33.331  34.190   1.187
37982W        W11050  19.055  32.550   0.896
37983W        W11051  14.541   2.342   4.665
37984W        W11052   7.699  13.128  11.121
37985W        W11053  39.467   9.643   3.867
37986W        W11054  27.050  26.837  11.826
37987W        W11055  32.621  10.254   0.892
37988W        W11056  26.165  18.813  11.083
37989W        W11057  21.636  29.042  14.852
37990W        W11058  40.812   1.089   3.223
37991W        W11059  19.248  42.894   4.132
37992W        W11060  19.054  41.226  12.522
37993W        W11061  38.051  36.056  10.328
37994W        W11062  14.530  13.628  13.897
37995W        W11063  43.465  10.700  14.852
37996W        W11064  24.437   3.376  13.978
37997W        W11065   4.431  25.580  14.197
37998W        W11066   7.240  38.060   2.867
37999W        W11067  39.814  15.940   1.262
38000W        W11068  32.287   0.042   3.335
38001W        W11069  35.713  29.072  10.783
38002W        W11070  13.828  44.354   4.095
38003W        W11071  15.661  15.633  12.585
38004W        W11072  41.628  39.108  11.136
38005W        W11073  20.103  40.501   4.081
38006W        W11074   7.949   0.129   9.697
38007W        W11075   4.974   2.393  12.956
38008W        W11076  40.113  16.098   0.851
38009W        W11077   2.480  23.104  10.611
38010W        W11078  27.414   7.666   4.491
38011W        W11079  15.790  13.695  11.541
38012W        W11080  13.721  35.619   1.184
38013W        W11081  17.858  28.159   1.074
38014W        W11082  32.742  31.704  12.875
38015W        W11083  12.615  40.079  11.049
38016W        W11084  36.898  10.293  12.358
38017W        W11085  15.526  44.168  10.159
38018W        W11086  12.218  38.105   0.034
38019W        W11087  16.780  10.366   0.935
38020W        W11088  27.084   6.358  13.931
38021W        W11089   6.415  24.609   3.105
38022W        W11090  28.848   7.353  11.555
38023W        W11091  27.078  13.856   1.192
38024W        W11092  10.408  16.553  13.409
38025W        W11093   8.211  43.833  11.672
38026W        W11094  10.501  27.423   0.219
38027W        W11095   2.252  26.111  12.566
38028W        W11096  23.225  28.715   4.356
38029W        W11097   5.464  14.227   3.699
38030W        W11098   0.270   4.987  12.621
38031W        W11099   1.471  11.674   0.186
38032W        W11100  27.126  35.610   3.327
38033W        W11101   4.741  44.812  10.648
38034W        W11102  26.025  21.148  11.368
38035W        W11103   3.049  27.595   4.090
38036W        W11104  15.263  28.033  13.674
38037W        W11105  44.412  37.010   4.055
38038W        W11106  20.688  24.509   3.823
38039W        W11107  37.340  13.612  13.224
38040W        W11108  23.756  34.479  14.838
38041W        W11109  11.261  19.835  11.021
38042W        W11110  24.593   1.943   3.952
38043W        W11111  36.371  26.529   1.328
38044W        W11112  18.211  35.961  11.521
38045W        W11113   5.492  28.168  13.423
38046W        W11114  19.301  25.100   0.355
38047W        W11115   5.354   5.676   2.178
38048W        W11116   7.413  12.637   1.022
38049W        W11117  14.100   7.421  14.443
38050W        W11118  37.747   0.338  13.793
38051W        W11119  17.497  42.436  11.933
38052W        W11120  31.821  36.082   3.627
38053W        W11121  26.150  37.957   5.032
38054W        W11122  36.398  10.282   1.385
38055W        W11123  31.403  37.003  12.996
38056W        W11124   5.569  44.288   4.787
38057W        W11125  11.294  42.890   3.327
38058W        W11126  31.661   3.171   3.792
38059W        W11127  20.269   9.833  10.738
38060W        W11128  23.059  27.389  11.519
38061W        W11129  29.506   9.134   2.921
38062W        W11130  17.706   2.608  14.029
38063W        W11131  10.409  38.435   0.339
38064W        W11132   0.434  31.146  12.944
38065W        W11133   6.364  38.968  11.432
38066W        W11134  17.889   0.745   0.646
38067W        W11135  43.717  44.253   0.225
38068W        W11136  22.637  34.529   4.697
38069W        W11137  18.239  19.007   1.167
38070W        W11138  42.098  18.092   0.882
38071W        W11139  38.636  31.675  10.746
38072W        W11140   9.200  21.038   4.755
38073W        W11141  41.482  12.971   0.884
38074W        W11142  42.402  43.989  12.029
38075W        W11143  30.670   7.256   0.044
38076W        W11144  27.433   2.470  10.852
38077W        W11145   2.295  15.340   2.240
38078W        W11146  25.373  32.096   5.092
38079W        W11147  40.511  32.299  11.521
38080W        W11148   6.444  14.209   2.684
38081W        W11149  11.791  23.255  13.983
38082W        W11150  37.042  17.227   4.545
38083W        W11151  33.395  39.954   2.712
38084W        W11152  37.886  31.358  14.773
38085W        W11153   6.193  29.019  11.620
38086W        W11154   0.548  18.617   0.122
38087W        W11155  32.956  21.677  11.532
38088W        W11156  30.963  37.796  10.430
38089W        W11157  27.595  17.329  13.940
38090W        W11158  34.413  41.597   2.159
38091W        W11159   4.282   4.436   0.785
38092W        W11160  25.222  32.107   4.571
38093W        W11161  27.492   1.180   3.793
38094W        W11162  21.428   6.474  13.759
38095W        W11163  44.547   1.908   1.755
38096W        W11164  35.407  20.069  10.592
38097W        W11165  20.758  23.254  11.112
38098W        W11166  16.814  44.896   3.288
38099W        W11167  16.457  44.532  14.159
38100W        W11168   8.493   4.927  11.092
38101W        W11169  16.556  43.003  12.597
38102W        W11170  32.129  31.823  11.100
38103W        W11171  42.183  25.711   1.885
38104W        W11172  21.039  11.492   1.886
38105W        W11173  13.625  17.624  13.449
38106W        W11174  35.899  28.478   1.999
38107W        W11175   9.972   7.837   0.441
38108W        W11176  20.128  35.333  13.862
38109W        W11177   1.231   3.216   0.797
38110W        W11178  38.441  30.159   3.191
38111W        W11179  39.785  26.382   2.314
38112W        W11180   7.820  25.192  13.858
38113W        W11181  23.246  25.111  14.389
38114W        W11182   3.679  41.007   2.898
38115W        W11183  41.545  20.976  13.792
38116W        W11184  22.585  33.353  11.650
38117W        W11185   4.956   7.728   2.845
38118W        W11186  15.770  42.292   1.231
38119W        W11187  17.141  28.357  11.170
38120W        W11188  23.184   9.386  14.997
38121W        W11189  25.420   3.380   1.063
38122W        W11190  19.302  41.780  11.022
38123W        W11191  12.146  15.197  11.901
38124W        W11192  37.767  36.846   3.666
38125W        W11193  29.456  18.298  11.335
38126W        W11194  33.835  22.074   1.368
38127W        W11195   3.452  31.784   4.065
38128W        W11196   1.643  26.010  13.396
38129W        W11197   8.797   0.429  10.685
38130W        W11198   4.171  23.979  12.579
38131W        W11199  43.245   6.227   1.838
38132W        W11200   8.244   8.680   4.093
38133W        W11201   9.333   2.536   1.475
38134W        W11202  31.913  28.382  13.261
38135W        W11203   8.115   0.941  12.148
38136W        W11204  20.860  26.417   0.894
38137W        W11205  24.117   8.431  12.907
38138W        W11206  11.461   3.905   3.430
38139W        W11207  35.400  29.351   0.446
38140W        W11208  36.276  15.875  13.278
38141W        W11209  21.934   5.672   3.213
38142W        W11210  10.400  37.536   3.689
38143W        W11211  20.016   3.722  14.876
38144W        W11212  28.155  11.308  10.384
38145W        W11213  33.835  11.318   4.458
38146W        W11214  36.875  28.028  11.667
38147W        W11215  27.269  35.933   0.909
38148W        W11216  36.522   9.923  11.784
38149W        W11217  22.202  43.057   3.247
38150W        W11218  12.624  17.893  11.760
38151W        W11219  30.941  39.497  14.485
38152W        W11220  10.254  33.632   2.196
38153W        W11221  23.795  23.748  13.348
38154W        W11222   5.330  28.509   4.745
38155W        W11223  16.307  31.708  11.105
38156W        W11224   0.995  44.204   0.028
38157W        W11225  12.359  14.157   1.614
38158W        W11226  18.531  31.018   0.292
38159W        W11227  29.437  10.563  10.207
38160W        W11228  17.262  30.847  12.615
38161W        W11229  44.337  12.712   4.410
38162W        W11230  23.056  33.914   1.698
38163W        W11231  21.269  39.378   3.003
38164W        W11232  37.602  33.417  12.852
38165W        W11233   5.938  30.926  10.609
38166W        W11234  26.972  12.688  14.426
38167W        W11235  26.897   4.859   1.145
38168W        W11236  40.468  18.537   2.241
38169W        W11237  40.067  13.365  14.934
38170W        W11238   6.446  30.467  11.616
38171W        W11239  21.631  12.742   3.401
38172W        W11240  35.378  40.361  11.038
38173W        W11241  40.841   7.843  12.415
38174W        W11242   1.281  35.867   2.305
38175W        W11243  42.042  18.832  11.146
38176W        W11244  35.822  28.625  14.361
38177W        W11245  29.032  10.706   0.148
38178W        W11246  23.440   7.619   3.601
38179W        W11247  34.383  24.015   2.000
38180W        W11248   5.360   2.014  14.374
38181W        W11249   2.585  39.409   3.194
38182W        W11250  44.790  31.858  14.444
38183W        W11251  37.467  24.584   1.390
38184W        W11252  34.580  19.610  12.532
38185W        W11253   6.196  19.210  14.554
38186W        W11254   0.205  24.992  14.080
38187W        W11255  18.567  15.716  10.679
38188W        W11256  11.369  10.414  11.422
38189W        W11257  32.438   6.720   1.516
38190W        W11258  41.913  35.564  11.407
38191W        W11259  20.300  25.551   1.658
38192W        W11260  27.240  28.733  11.532
38193W        W11261  40.492  34.093  11.675
38194W        W11262  12.916  30.093  10.600
38195W        W11263  17.393  39.538   3.826
38196W        W11264  39.912  44.519   0.915
38197W        W11265   0.813  41.844  11.623
38198W        W11266  21.718   0.706   3.122
38199W        W11267  24.652   9.845   4.105
38200W        W11268   4.125  25.179  12.982
38201W        W11269  30.741  36.460   0.360
38202W        W11270  27.498  22.501   1.257
38203W        W11271  35.014  20.117   0.488
38204W        W11272  14.340  17.604  13.102
38205W        W11273  40.075  27.235  12.563
38206W        W11274  16.684   1.215   4.535
38207W        W11275  20.790  32.496   0.261
38208W        W11276  18.955  20.207  12.914
38209W        W11277   0.773  15.725   1.031
38210W        W11278  42.069  37.398  14.071
38211W        W11279  10.286   5.365   3.449
38212W        W11280  20.507   1.822   0.819
38213W        W11281   5.822  37.382  14.075
38214W        W11282   2.362  19.296   1.447
38215W        W11283  15.569  10.552  10.670
38216W        W11284   6.318  34.183  14.329
38217W        W11285  17.323  24.525   0.846
38218W        W11286  11.698  44.666   2.343
38219W        W11287  42.497  37.800   1.352
38220W        W11288  21.805   0.003   1.772
38221W        W11289  10.756  44.620  12.838
38222W        W11290  40.229   5.295   3.674
38223W        W11291  13.395  36.319  12.529
38224W        W11292  26.665  35.893   2.668
38225W        W11293  43.035  28.018  11.582
38226W        W11294  32.442  18.819  13.714
38227W        W11295  31.998  27.431  10.014
38228W        W11296  27.065  20.672   2.571
38229W        W11297  33.575   1.377   0.318
38230W        W11298  43.279  15.179   3.997
38231W        W11299  29.806  33.806   1.247
38232W        W11300  29.855  39.051   3.782
38233W        W11301   6.715   5.857   4.578
38234W        W11302  37.587  23.077   2.318
38235W        W11303  14.313  19.446  11.583
38236W        W11304  12.136  16.457  11.471
38237W        W11305  33.466  16.215  11.876
38238W        W11306   4.162  30.409   2.176
38239W        W11307  23.274  34.630  12.417
38240W        W11308   2.234  27.523  11.026
38241W        W11309   8.948  23.017  14.936
38242W        W11310   9.796  20.797  11.610
38243W        W11311  18.038  11.345   0.334
38244W        W11312  18.088   3.913  14.420
38245W        W11313   4.593   7.429  12.387
38246W        W11314  23.145  34.549  13.914
38247W        W11315  15.014  35.933  12.081
38248W        W11316  42.375  44.234   4.916
38249W        W11317  11.112  28.895   0.872
38250W        W11318  35.310   1.883   4.595
38251W        W11319   4.959  17.719   3.353
38252W        W11320  13.830  23.118   1.246
38253W        W11321  44.219  32.153   4.093
38254W        W11322  20.561  10.835  12.517
38255W        W11323  31.381  44.042   2.590
38256W        W11324  10.286  32.600  12.511
38257W        W11325  15.269  24.004  14.828
38258W        W11326  24.065  32.357   2.709
38259W        W11327  14.671  27.613   1.941
38260W        W11328  44.344  40.389   4.995
38261W        W11329  10.537   0.406   4.669
38262W        W11330  23.553  29.085   2.614
38263W        W11331  25.754  43.819   2.153
38264W        W11332   2.876   0.536   4.519
38265W        W11333  18.855   0.742   1.267
38266W        W11334  25.042   2.828  10.636
38267W        W11335  23.268  42.064   1.955
38268W        W11336   3.699   6.217  11.094
38269W        W11337  14.963  11.857   3.733
38270W        W11338  41.358  20.987  11.159
38271W        W11339   8.579  36.511   2.134
38272W        W11340  41.903  41.691  13.297
38273W        W11341  43.480  10.676  12.856
38274W        W11342  34.090  39.277   3.681
38275W        W11343  18.595  33.291   2.109
38276W        W11344   3.508  15.100  14.492
38277W        W11345   5.251  42.044  14.918
38278W        W11346  27.945  35.602   3.172
38279W        W11347  28.702  25.222  14.942
38280W        W11348  15.868  33.892  13.758
38281W        W11349  27.611  35.013  10.832
38282W        W11350  40.807   6.661   3.690
38283W        W11351  31.448  14.844  14.663
38284W        W11352  13.190  36.031  10.343
38285W        W11353  25.422  36.463   0.707
38286W        W11354   2.018  21.721  14.759
38287W        W11355  37.507  42.461   2.782
38288W        W11356   7.509  39.066   0.829
38289W        W11357  41.413  27.919   3.823
38290W        W11358  21.360  39.685  14.841
38291W        W11359   2.062  31.181  12.477
38292W        W11360  39.812  41.686  12.094
38293W        W11361  30.731   1.771   2.330
38294W        W11362  21.497  10.911  14.403
38295W        W11363  35.736  35.583   4.647
38296W        W11364  32.995   1.511   2.192
38297W        W11365  35.837  29.607  14.325
38298W        W11366  14.217  38.048  11.713
38299W        W11367   5.399  26.409   4.629
38300W        W11368  11.692  17.122   4.175
38301W        W11369  21.201   4.812  11.153
38302W        W11370  12.831  25.052   3.155
38303W        W11371  28.986  43.878  10.682
38304W        W11372  43.557  37.410   3.413
38305W        W11373  10.578  20.816   0.402
38306W        W11374  19.630   4.174   4.093
38307W        W11375  36.310  31.557   0.738
38308W        W11376  40.339  13.708  10.472
38309W        W11377   0.414   4.428   0.175
38310W        W11378  43.963  17.753   1.173
38311W        W11379   1.590   8.519  12.116
38312W        W11380   3.936  22.664  12.311
38313W        W11381  35.302   8.875  10.721
38314W        W11382  10.187   9.801   0.435
38315W        W11383   0.182  14.218   0.267
38316W        W11384  24.784  43.260   1.432
38317W        W11385  35.134  36.770  10.878
38318W        W11386   6.755   7.283  12.419
38319W        W11387   7.762  41.056   3.231
38320W        W11388  13.098   2.696  12.547
38321W        W11389  29.187  13.826   1.229
38322W        W11390  39.037  33.485   9.898
38323W        W11391  11.627  19.160  12.627
38324W        W11392  10.805  16.570  14.877
38325W        W11393  25.576  44.121  10.039
38326W        W11394  11.888  10.239   0.512
38327W        W11395   2.501  33.115  14.499
38328W        W11396  11.288   9.358  13.988
38329W        W11397   7.697   4.001   1.648
38330W        W11398   6.426   3.811   2.470
38331W        W11399  30.602  27.424   2.320
38332W        W11400  20.869  36.698  12.072
38333W        W11401  22.278  19.639   3.759
38334W        W11402  31.117  15.803  11.641
38335W        W11403  10.220  12.057   1.929
38336W        W11404  24.994  24.697  12.402
38337W        W11405  26.594  26.187  11.494
38338W        W11406   0.056  15.606  10.903
38339W        W11407   8.946   9.762   2.923
38340W        W11408  10.323  21.752  12.906
38341W        W11409   2.839  41.252  14.850
38342W        W11410  34.971   7.679   1.287
38343W        W11411   5.498  37.127   3.697
38344W        W11412  34.988  41.090  11.543
38345W        W11413   6.702  22.422  10.764
38346W        W11414   6.260  40.730  10.660
38347W        W11415  42.941   9.662  12.503
38348W        W11416  41.816  34.109  11.533
38349W        W11417  11.878  31.405  14.483
38350W        W11418  24.549  29.908   2.715
38351W        W11419  10.608  11.795   2.205
38352W        W11420  16.873  37.108  13.980
38353W        W11421  35.278  19.297  12.061
38354W        W11422   5.375  35.268  14.840
38355W        W11423   6.411  32.054  14.804
38356W        W11424  38.149  18.639   2.009
38357W        W11425  44.729   9.396  13.982
38358W        W11426  10.622  22.321   3.325
38359W        W11427  27.141  24.586  11.641
38360W        W11428  42.312   0.065  12.899
38361W        W11429  21.595  33.105  10.538
38362W        W11430  34.857  14.792   1.326
38363W        W11431  18.268  22.006   4.247
38364W        W11432  20.774  10.780  10.694
38365W        W11433  13.267  44.054  11.875
38366W        W11434  33.825  26.260  13.072
38367W        W11435  13.227  44.142  10.439
38368W        W11436  30.124   1.221   2.792
38369W        W11437   2.829   0.449  13.916
38370W        W11438  21.648  16.698  14.487
38371W        W11439  34.817  13.400  14.535
38372W        W11440  20.444  14.675   1.801
38373W        W11441   4.274  25.435   3.764
38374W        W11442  39.204  30.994  11.991
38375W        W11443  19.006  24.593   2.351
38376W        W11444  39.549  20.497   3.629
38377W        W11445  19.120  20.713  12.845
38378W        W11446  25.676   8.645  12.508
38379W        W11447  27.594   9.724   2.432
38380W        W11448   9.684  26.208  13.986
38381W        W11449  35.496  37.438   2.387
38382W        W11450  39.522  29.490   3.701
38383W        W11451  14.873  35.619  14.343
38384W        W11452  31.600   9.235  10.703
38385W        W11453  13.645  30.600   4.112
38386W        W11454  15.061  43.573   3.129
38387W        W11455  30.729  23.676  10.874
38388W        W11456  11.379   6.558  10.547
38389W        W11457   3.830   1.697   1.957
38390W        W11458  16.283  25.830   0.475
38391W        W11459   4.474  20.188   2.685
38392W        W11460  22.635   3.908  14.040
38393W        W11461  29.148   1.326  14.449
38394W        W11462  19.479   1.187   1.811
38395W        W11463  13.296  10.843   2.706
38396W        W11464  44.666  44.922   2.807
38397W        W11465   5.668  35.454   3.684
38398W        W11466  24.092  30.404   0.596
38399W        W11467  41.560  25.109   3.656
38400W        W11468   3.500   6.489   3.165
38401W        W11469  22.043  11.539   2.723
38402W        W11470  43.572  20.208   1.384
38403W        W11471  10.159  20.594  12.034
38404W        W11472  43.268  44.418  14.287
38405W        W11473   0.535   0.798   1.849
38406W        W11474   2.237  16.561   0.179
38407W        W11475  15.048  17.931   0.856
38408W        W11476  18.263  26.805  11.608
38409W        W11477  24.171  38.086   4.566
38410W        W11478   8.099  23.184  10.951
38411W        W11479  30.191   5.183  14.420
38412W        W11480  39.615  30.639  12.500
38413W        W11481  40.277  19.078   1.335
38414W        W11482  10.060  39.895  10.196
38415W        W11483   4.183  31.600   0.348
38416W        W11484   2.043   4.813  11.516
38417W        W11485   5.843  10.595  11.111
38418W        W11486  33.334   7.929   3.499
38419W        W11487  41.765   6.697  11.619
38420W        W11488  20.542  43.396   0.363
38421W        W11489   0.437  24.063   0.928
38422W        W11490  38.804  17.289   4.686
38423W        W11491  17.504   7.939  11.112
38424W        W11492  38.128   1.339   3.627
38425W        W11493  23.205   9.974   3.213
38426W        W11494  29.435  11.835   5.068
38427W        W11495  12.229   0.714  14.642
38428W        W11496   1.380  13.386  14.845
38429W        W11497  17.109   4.143   2.792
38430W        W11498  29.407  31.559   0.377
38431W        W11499   7.253   6.606  12.370
38432W        W11500  11.079  16.063   3.714
38433W        W11501  35.520   7.163  14.196
38434W        W11502  16.768   7.110  14.262
38435W        W11503  26.671  19.304   4.353
38436W        W11504  36.359   1.758   1.119
38437W        W11505   7.172   8.298  14.497
38438W        W11506  19.749   4.815  14.973
38439W        W11507  28.095   3.377  11.225
38440W        W11508   2.499  37.928   3.360
38441W        W11509  11.115  28.170  10.314
38442W        W11510  28.602  44.771   3.766
38443W        W11511  28.259  43.457   1.327
38444W        W11512  43.801  40.064   1.013
38445W        W11513   1.978  34.471   2.736
38446W        W11514  21.198  19.800  12.913
38447W        W11515  34.072  17.811   1.237
38448W        W11516  28.219  20.943   0.036
38449W        W11517  38.640   1.985  14.503
38450W        W11518  39.105  39.651  14.524
38451W        W11519   3.614  10.439   4.181
38452W        W11520  44.228   6.897  12.506
38453W        W11521  26.329  40.333  13.009
38454W        W11522  10.338  29.137   4.028
38455W        W11523  43.259   2.269  11.737
38456W        W11524  27.615  39.412   4.195
38457W        W11525  32.334  21.549   4.683
38458W        W11526  34.558  32.331   0.286
38459W        W11527   8.927  20.693  14.548
38460W        W11528  15.552   3.237   0.451
38461W        W11529  39.803   3.591   2.783
38462W        W11530  23.459  16.648  14.099
38463W        W11531  12.028  19.674  10.481
38464W        W11532  22.530  24.723   0.202
38465W        W11533  22.114  24.455   0.052
38466W        W11534   1.782  42.869   2.311
38467W        W11535  32.653  11.450   3.698
38468W        W11536  26.329  39.430   3.542
38469W        W11537  33.912  33.605   0.869
38470W        W11538  39.905  44.904  13.493
38471W        W11539  41.516  13.497   0.896
38472W        W11540  27.638   9.702  10.150
38473W        W11541  24.575   5.801  11.712
38474W        W11542  29.161  10.532  11.885
38475W        W11543  21.200  27.196  11.826
38476W        W11544  19.139  35.536  13.833
38477W        W11545  25.440  22.605   4.272
38478W        W11546  25.065  38.936   5.021
38479W        W11547   4.638  19.072   1.364
38480W        W11548   0.930   2.280   0.899
38481W        W11549  23.064   0.348  10.472
38482W        W11550  22.625  37.551  13.880
38483W        W11551  15.102  26.929   2.940
38484W        W11552  39.555  22.045  14.487
38485W        W11553   1.906  19.181   0.095
38486W        W11554  23.759  19.216  14.509
38487W        W11555  10.168  36.392   5.039
38488W        W11556  43.050  26.417   3.084
38489W        W11557  38.512   7.621   2.280
38490W        W11558  42.215   1.670   1.228
38491W        W11559  39.352   3.864  14.433
38492W        W11560  23.660  23.802   3.164
38493W        W11561  10.164  40.517   2.849
38494W        W11562   4.451  20.714   1.322
38495W        W11563   8.633  28.684  12.417
38496W        W11564   3.915   9.278  13.470
38497W        W11565   0.151  27.596   2.839
38498W        W11566   5.246  30.933  11.164
38499W        W11567   4.535  41.839   9.888
38500W        W11568  37.729  26.713  10.593
38501W        W11569  10.948   4.039   1.012
38502W        W11570  14.677  22.065   1.164
38503W        W11571  14.877  10.585   2.208
38504W        W11572   3.248  42.078  14.709
38505W        W11573  39.723   4.810   1.508
38506W        W11574  25.073  18.815  11.487
38507W        W11575  35.567  36.892   4.617
38508W        W11576  33.933  25.661  11.693
38509W        W11577   3.446  23.495  12.474
38510W        W11578  27.179  29.481   3.225
38511W        W11579  26.300  26.583  11.438
38512W        W11580  24.480  11.355  12.392
38513W        W11581   4.945   8.931   2.263
38514W        W11582  34.634  24.898   3.393
38515W        W11583   4.130   8.145   3.667
38516W        W11584  29.020   0.891  14.175
38517W        W11585  30.195   8.543  14.886
38518W        W11586   5.470  16.281  14.316
38519W        W11587  28.975  25.189   0.409
38520W        W11588  28.334   6.940   1.832
38521W        W11589  43.037   5.729   2.815
38522W        W11590  28.938  41.025   4.585
38523W        W11591   7.818  23.472   2.655
38524W        W11592  21.675  34.806   3.522
38525W        W11593  25.502  28.605  10.664
38526W        W11594  40.296   0.502  13.836
38527W        W11595  37.419   8.705   2.007
38528W        W11596  29.542  29.509   4.141
38529W        W11597  12.068  38.953   3.246
38530W        W11598  14.089  18.148   0.394
38531W        W11599  41.014   6.109  11.196
38532W        W11600  25.036  37.516   3.753
38533W        W11601  14.843  14.207   3.760
38534W        W11602  25.016  19.314  11.580
38535W        W11603  41.358   9.910   4.037
38536W        W11604  21.159   3.284  10.885
38537W        W11605  30.469  35.388   2.318
38538W        W11606  30.230   4.414   0.469
38539W        W11607  23.467  15.669  14.433
38540W        W11608  24.628  43.337   3.199
38541W        W11609  15.146  15.177   1.308
38542W        W11610   0.276  34.673  12.082
38543W        W11611  11.232  20.301  14.835
38544W        W11612  15.098   4.294   0.948
38545W        W11613  24.443  24.991   3.287
38546W        W11614  32.397  32.696  14.826
38547W        W11615  11.201  10.088  11.054
38548W        W11616  31.673  44.757  11.468
38549W        W11617  41.296  24.064   1.399
38550W        W11618   8.594  13.315  13.283
38551W        W11619   2.263  34.163   1.035
38552W        W11620  25.948   2.766   1.186
38553W        W11621  24.367  16.108   4.340
38554W        W11622  35.072   4.520   2.051
38555W        W11623   8.712  34.757   3.253
38556W        W11624  41.715  29.418   0.835
38557W        W11625  38.388  29.434  10.676
38558W        W11626   6.345  30.010   3.836
38559W        W11627  29.696  33.658   2.329
38560W        W11628   0.843  16.315   1.940
38561W        W11629  23.634   0.851   4.245
38562W        W11630   5.243  30.525   4.227
38563W        W11631   5.706  15.081   4.073
38564W        W11632   8.217  30.534  10.754
38565W        W11633  17.717   6.800  12.486
38566W        W11634  19.806  36.605  11.182
38567W        W11635  20.282  20.906  10.095
38568W        W11636  15.804   1.247  10.667
38569W        W11637  21.514  27.171   3.162
38570W        W11638  20.082  22.695  12.778
38571W        W11639  36.792  14.801   2.367
38572W        W11640  17.706   8.485   0.273
38573W        W11641  43.265  25.990   3.322
38574W        W11642   6.306  18.776   5.219
38575W        W11643  32.060  33.376   1.195
38576W        W11644   1.640  39.152  13.215
38577W        W11645  34.892  40.959   2.460
38578W        W11646  20.727  20.669  11.418
38579W        W11647   6.279  22.370  14.750
38580W        W11648  36.863  21.633   2.454
38581W        W11649  39.823   8.240  12.012
38582W        W11650   2.512  34.915   4.616
38583W        W11651  23.021  34.626   4.363
38584W        W11652  15.675  10.121   4.119
38585W        W11653  43.365  36.657  12.091
38586W        W11654   4.425  19.597  11.588
38587W        W11655  12.717  44.715   1.015
38588W        W11656  41.255  32.258   3.443
38589W        W11657  30.470  10.184   0.467
38590W        W11658  22.045   8.758  11.687
38591W        W11659  43.199   2.012   1.417
38592W        W11660   1.876  18.103  10.683
38593W        W11661  43.797  19.031   4.188
38594W        W11662  34.278   4.255   4.156
38595W        W11663   2.597  36.077   2.121
38596W        W11664  43.763   8.918   2.444
38597W        W11665  40.516  18.012  14.363
38598W        W11666  36.142   3.627   0.734
38599W        W11667  39.584  22.165  12.520
38600W        W11668   1.279   4.179  14.811
38601W        W11669  44.323  10.275   1.651
38602W        W11670  22.187  39.179  13.584
38603W        W11671   2.473  36.429  10.652
38604W        W11672  22.095  32.058   3.076
38605W        W11673  42.363  41.378   4.632
38606W        W11674  25.086  40.349  12.369
38607W        W11675  31.991  32.481   0.816
38608W        W11676   7.918  19.272  11.939
38609W        W11677  42.259  14.330  11.043
38610W        W11678  17.726   7.554  12.054
38611W        W11679  36.413  13.588  14.702
38612W        W11680  24.512  18.286   4.234
38613W        W11681  35.548  16.138  11.230
38614W        W11682   1.446  33.611  13.875
38615W        W11683  36.506  19.126  10.508
38616W        W11684  13.084  37.513  14.387
38617W        W11685  44.361  13.352  14.835
38618W        W11686  44.380   5.916   1.866
38619W        W11687  44.087  15.322   2.756
38620W        W11688   6.795  17.247  10.598
38621W        W11689   5.777   7.951  14.493
38622W        W11690   5.957  42.438  10.615
38623W        W11691   8.473  10.827   2.370
38624W        W11692   0.591  17.837  12.890
38625W        W11693  18.411   3.797   4.846
38626W        W11694  36.079  23.458   2.766
38627W        W11695  38.756  12.538  11.533
38628W        W11696  14.732  10.383   3.681
38629W        W11697  43.391  37.733   5.098
38630W        W11698  33.029  42.944   0.965
38631W        W11699  18.122   7.296   0.785
38632W        W11700  39.010  37.492  10.654
38633W        W11701  20.111  44.012  11.149
38634W        W11702   4.946  17.364  12.149
38635W        W11703  10.787  17.118  10.456
38636W        W11704   1.069   1.916  14.496
38637W        W11705  37.562  18.325  10.262
38638W        W11706  40.173  16.152  12.741
38639W        W11707  20.138   9.943   2.752
38640W        W11708  24.592  12.883   0.843
38641W        W11709   7.716   2.530  12.486
38642W        W11710  33.175  40.515   4.587
38643W        W11711  16.267   2.423  13.562
38644W        W11712  21.482   6.850   4.036
38645W        W11713  41.840  43.460   2.295
38646W        W11714   0.932  23.055  11.602
38647W        W11715  33.589  30.803  14.803
38648W        W11716  43.759   0.718  12.445
38649W        W11717   6.789   6.805   2.325
38650W        W11718   4.245  14.149  11.111
38651W        W11719  39.278   4.171  12.773
38652W        W11720  43.275  29.127  10.303
38653W        W11721   2.319   0.436   4.599
38654W        W11722   4.395  10.078  14.862
38655W        W11723  30.174  14.242   4.293
38656W        W11724  31.966   4.955  13.399
38657W        W11725   7.794  19.711  11.681
38658W        W11726   7.446  30.401   4.872
38659W        W11727  34.051   1.515  13.563
38660W        W11728  34.609  14.844  11.333
38661W        W11729  33.534   5.927  11.562
38662W        W11730   5.101  11.795  13.842
38663W        W11731  29.095  19.613  13.550
38664W        W11732  30.535  13.763   2.685
38665W        W11733  12.388  28.395  12.062
38666W        W11734  25.023  43.264  12.448
38667W        W11735   9.419  39.389   0.876
38668W        W11736  40.292  22.310  14.872
38669W        W11737  10.353  17.076   5.536
38670W        W11738  28.689  28.872  12.050
38671W        W11739  39.235   0.713   1.974
38672W        W11740   2.368   7.235   1.123
38673W        W11741   1.926  29.974  14.589
38674W        W11742  31.406  43.045  14.325
38675W        W11743  15.527  29.163  13.318
38676W        W11744  26.646  22.069   0.898
38677W        W11745   3.941   3.382  11.088
38678W        W11746  15.208  30.994  14.789
38679W        W11747  21.490   3.865   1.353
38680W        W11748  43.435  35.573   3.136
38681W        W11749  26.520  14.205   0.530
38682W        W11750  16.042  20.464   3.248
38683W        W11751  28.590  35.993  14.143
38684W        W11752   2.914  38.480   1.157
38685W        W11753   4.921   6.851  12.558
38686W        W11754  13.578  12.790  12.087
38687W        W11755  12.280  42.979  11.844
38688W        W11756  34.061  24.153  11.283
38689W        W11757   7.975  13.975  10.262
38690W        W11758   8.073   1.913   0.019
38691W        W11759   3.864  37.429   3.472
38692W        W11760   4.917  41.345  11.931
38693W        W11761  15.703   6.237   5.064
38694W        W11762  10.850   5.626  11.956
38695W        W11763  12.755  26.216  12.662
38696W        W11764  10.882  36.028  12.835
38697W        W11765  44.513  41.444  14.644
38698W        W11766  23.444  36.856  14.766
38699W        W11767  14.884   9.160  14.840
38700W        W11768   8.869   4.297   4.786
38701W        W11769  42.541  27.161   4.141
38702W        W11770  27.405  38.932  11.553
38703W        W11771  34.517  21.394   3.868
38704W        W11772  26.341  33.977  14.350
38705W        W11773   8.834  42.746   2.181
38706W        W11774  11.665  34.971  11.857
38707W        W11775   5.499  30.112   3.961
38708W        W11776  12.311   6.656   1.890
38709W        W11777  15.114  13.329  10.600
38710W        W11778  29.136  28.953  13.713
38711W        W11779  31.588  18.037   2.647
38712W        W11780  35.630  34.098   9.964
38713W        W11781  21.786  29.317  12.943
38714W        W11782   2.678  25.320   3.678
38715W        W11783   5.598  41.644   4.150
38716W        W11784  28.609   5.900  12.974
38717W        W11785  39.917  43.526  14.765
38718W        W11786  34.522  20.009   2.768
38719W        W11787  10.165  35.592  13.370
38720W        W11788  36.600  25.032  14.322
38721W        W11789  34.613   6.498   2.697
38722W        W11790  12.117   7.968  12.399
38723W        W11791  33.571  18.967  11.156
38724W        W11792   6.613  33.843   4.234
38725W        W11793  28.579  32.122  11.515
38726W        W11794  44.782  18.101   1.446
38727W        W11795  15.647  34.353  13.830
38728W        W11796   6.727   7.781  12.835
38729W        W11797  15.952   3.849   1.698
38730W        W11798  40.858  41.841   1.885
38731W        W11799  38.061   5.343  13.390
38732W        W11800  39.018  33.662  11.179
38733W        W11801   0.797   3.214  12.555
38734W        W11802   1.804   5.708  12.039
38735W        W11803   6.468   0.948   3.226
38736W        W11804  25.729   9.676   2.202
38737W        W11805  27.833  21.683   0.163
38738W        W11806   2.528  20.231  11.531
38739W        W11807  32.366  21.776  12.818
38740W        W11808  33.398  27.034   2.399
38741W        W11809  44.423  17.741   4.155
38742W        W11810  15.788  25.457  14.229
38743W        W11811  27.353  14.232  12.059
38744W        W11812  13.581  23.691   2.404
38745W        W11813  21.771  26.879   3.500
38746W        W11814  31.348   7.931   0.065
38747W        W11815  23.716   6.757  10.589
38748W        W11816  10.787   1.007  11.913
38749W        W11817   0.072  20.280   1.249
38750W        W11818  39.023  38.648   0.484
38751W        W11819  26.156  37.679   0.002
38752W        W11820  26.263  28.668  11.014
38753W        W11821  38.764  38.105   4.253
38754W        W11822  42.038   4.845  10.380
38755W        W11823   8.976  42.874   4.122
38756W        W11824  42.573  17.688  12.826
38757W        W11825   7.773  11.031   0.780
38758W        W11826  12.250   6.390   0.331
38759W        W11827  16.209  21.201   2.715
38760W        W11828  35.365  23.420  12.572
38761W        W11829   8.961  44.393  11.612
38762W        W11830  26.066  16.006   1.922
38763W        W11831  33.678  21.222   9.992
38764W        W11832  23.187  43.349  12.059
38765W        W11833   2.565  43.036   0.293
38766W        W11834   2.457  21.096  12.082
38767W        W11835  44.227  40.988  10.442
38768W        W11836   7.155  36.455   2.280
38769W        W11837   8.279  28.059   0.556
38770W        W11838  28.897  10.976  13.304
38771W        W11839  31.901  43.986   2.642
38772W        W11840  37.334  10.201  12.091
38773W        W11841  33.337   0.016   0.088
38774W        W11842  10.858  14.892  13.976
38775W        W11843  16.212  36.978  12.688
38776W        W11844  38.694   6.344   0.229
38777W        W11845  31.082   0.415  12.499
38778W        W11846   3.323  10.623   2.626
38779W        W11847  40.779  22.159  13.498
38780W        W11848  37.534  17.582  11.893
38781W        W11849  33.746  27.376   3.683
38782W        W11850  40.909  31.079  13.335
38783W        W11851  32.040   5.992  12.446
38784W        W11852  39.617   5.885   9.819
38785W        W11853  13.776  43.759   0.750
38786W        W11854  21.553  11.202   0.438
38787W        W11855  17.492  37.247   0.402
38788W        W11856  43.359  24.595   0.744
38789W        W11857  13.903   3.914   3.383
38790W        W11858  43.934  31.453   0.550
38791W        W11859  21.789  32.396   3.322
38792W        W11860  11.125  18.808   4.262
38793W        W11861  37.326  39.329  14.770
38794W        W11862   5.153   1.760  10.940
38795W        W11863  37.252  27.474  10.529
38796W        W11864   1.766  36.465  12.493
38797W        W11865  17.595   1.732   1.719
38798W        W11866   4.117   8.177  11.143
38799W        W11867  12.850  19.035  12.763
38800W        W11868  12.589   4.377   3.832
38801W        W11869  31.898  29.998  10.316
38802W        W11870  15.248   9.085   0.258
38803W        W11871  28.683  30.910   4.669
38804W        W11872  20.225  44.350   2.709
38805W        W11873  19.580  44.281  12.981
38806W        W11874  43.838  11.645   3.241
38807W        W11875  42.392  35.903   1.696
38808W        W11876  39.468   0.673  10.701
38809W        W11877  25.606  16.150  13.644
38810W        W11878  10.078   0.409  11.407
38811W        W11879   8.332  16.605  14.157
38812W        W11880  44.036  20.757  12.058
38813W        W11881  16.259  30.135  13.932
38814W        W11882  32.425  24.116   3.189
38815W        W11883  16.189  38.986   2.382
38816W        W11884   7.766  16.649   2.213
38817W        W11885  39.923  43.903   1.193
38818W        W11886  16.107  25.248   1.281
38819W        W11887   5.661  18.658  14.102
38820W        W11888   7.853  29.414  14.505
38821W        W11889   4.654  28.580  11.173
38822W        W11890  31.353  28.613   4.272
38823W        W11891   3.189   0.042   0.263
38824W        W11892   4.652  34.823  11.132
38825W        W11893  15.550  20.286   4.910
38826W        W11894  10.995   1.952   3.285
38827W        W11895  23.901  10.168   0.038
38828W        W11896  43.139   2.222   2.324
38829W        W11897  20.617  36.046   3.005
38830W        W11898  13.143   8.420  11.105
38831W        W11899   5.781  13.747   2.660
38832W        W11900   8.175  43.329   0.250
38833W        W11901  31.360   8.963   2.360
38834W        W11902  12.886   7.195   0.446
38835W        W11903  35.002  33.355  12.038
38836W        W11904  41.420  22.507  12.861
38837W        W11905  10.595  41.504  14.362
38838W        W11906  29.976   5.311  14.869
38839W        W11907  36.577  27.874  12.537
38840W        W11908   9.144  30.429  11.886
38841W        W11909  43.076   2.389  11.264
38842W        W11910  30.050  28.094   0.516
38843W        W11911  34.032  12.821  11.591
38844W        W11912  13.931   4.326  13.399
38845W        W11913  25.042   7.855  12.751
38846W        W11914   6.020   6.629  11.025
38847W        W11915  38.509  16.586   1.965
38848W        W11916   7.258   7.651   0.039
38849W        W11917   6.375  38.091  13.822
38850W        W11918  13.621  11.600  13.744
38851W        W11919  23.669  31.143  11.802
38852W        W11920  23.437  12.102  13.883
38853W        W11921  15.768  43.045  10.256
38854W        W11922  17.035   4.394  10.218
38855W        W11923  17.426  27.841  10.981
38856W        W11924  18.761  23.779   3.171
38857W        W11925  12.538   8.188   4.628
38858W        W11926  25.719  14.141  14.969
38859W        W11927  39.645  23.766  13.214
38860W        W11928  37.385  42.765   4.518
38861W        W11929  37.901   0.323   0.734
38862W        W11930  37.943  32.139   4.553
38863W        W11931   1.721  40.091  13.367
38864W        W11932  42.719  17.211   3.641
38865W        W11933  28.476   6.189  12.535
38866W        W11934   5.176  12.927   3.795
38867W        W11935  22.728  15.242   0.703
38868W        W11936  34.548  24.334   3.179
38869W        W11937  30.199  14.676   4.592
38870W        W11938   8.742  18.220  14.572
38871W        W11939   3.592  26.171  13.075
38872W        W11940  34.945  17.303   4.584
38873W        W11941  32.196   6.658   0.654
38874W        W11942   1.670   2.677   1.388
38875W        W11943  12.263   3.860  13.051
38876W        W11944  23.963  14.704   0.881
38877W        W11945  25.511  26.748  11.073
38878W        W11946   4.771   9.696   1.681
38879W        W11947  44.269  21.683   2.738
38880W        W11948  40.060   3.020   0.261
38881W        W11949  19.794  40.658   4.550
38882W        W11950   3.498  37.089   1.670
38883W        W11951  11.129  31.580  11.550
38884W        W11952  19.807  25.109   0.340
38885W        W11953   0.994  41.294  12.427
38886W        W11954  22.421   0.987   3.968
38887W        W11955  22.703  37.955  11.993
38888W        W11956  19.768   8.206  11.729
38889W        W11957  10.186   8.928   0.045
38890W        W11958  44.519  42.998   4.209
38891W        W11959  25.596  36.950   1.941
38892W        W11960  15.656  33.473  13.971
38893W        W11961   3.510  33.406  10.920
38894W        W11962  32.661  29.052   4.497
38895W        W11963  42.380  25.682   4.567
38896W        W11964   1.615  42.830   4.559
38897W        W11965  43.984  33.989   4.840
38898W        W11966  22.085  21.938  11.516
38899W        W11967  42.831   7.172   0.324
38900W        W11968  16.612  17.263   3.314
38901W        W11969  10.885  14.077  11.366
38902W        W11970  29.770  23.750  14.918
38903W        W11971   3.749  38.552   1.644
38904W        W11972   8.230  32.853   2.385
38905W        W11973  40.716  21.012   2.708
38906W        W11974  40.358  38.582  12.546
38907W        W11975  11.720   2.531   4.528
38908W        W11976  39.518  18.158   1.821
38909W        W11977  38.098  31.588   2.199
38910W        W11978   7.698  42.331  14.921
38911W        W11979   1.827   7.647   0.097
38912W        W11980  12.682  24.061   0.801
38913W        W11981  42.852  34.536  12.464
38914W        W11982  35.085  28.210   0.643
38915W        W11983  10.710  33.347  11.085
38916W        W11984  12.857  14.205   9.875
38917W        W11985  29.819  16.211  14.436
38918W        W11986   1.567  20.124  11.629
38919W        W11987  34.547  34.018   3.715
38920W        W11988  28.084  39.237  14.752
38921W        W11989  32.871  24.086   2.925
38922W        W11990  26.846   5.122  14.887
38923W        W11991  34.540  44.480   2.291
38924W        W11992  22.224  41.918   0.009
38925W        W11993  26.047  34.069  13.001
38926W        W11994  21.051   2.445  11.513
38927W        W11995  41.883   2.412   4.074
38928W        W11996  43.616  43.582  13.311
38929W        W11997  33.939  36.149   4.563
38930W        W11998  19.343  37.363   2.171
38931W        W11999  39.489   8.831  14.815
38932W        W12000  17.378  23.968   1.866
38933W        W12001   6.384  28.405  12.449
38934W        W12002  42.009   5.044  11.705
38935W        W12003  24.171  20.160   0.371
38936W        W12004  30.036  14.223  13.420
38937W        W12005   8.685  42.375   9.990
38938W        W12006  12.800  33.441  14.395
38939W        W12007  26.588  27.080  11.863
38940W        W12008  43.464  20.552  11.455
38941W        W12009  44.347  35.330   0.181
38942W        W12010   9.367   7.831   4.129
38943W        W12011  41.978  24.566  12.564
38944W        W12012  39.095  27.595   3.369
38945W        W12013  19.075  31.564  10.704
38946W        W12014  21.562   2.827   0.995
38947W        W12015   8.652  26.282   2.221
38948W        W12016  27.241   7.351   0.919
38949W        W12017  24.068  24.049   4.178
38950W        W12018   5.725   6.874  10.646
38951W        W12019  33.568  44.287  13.421
38952W        W12020  17.343  12.386   2.334
38953W        W12021  36.387  32.907  14.466
38954W        W12022  30.435   3.845  11.095
38955W        W12023  12.624  37.840   0.253
38956W        W12024  23.215  13.627  13.573
38957W        W12025   2.555   4.837  11.364
38958W        W12026  17.013  13.537   0.414
38959W        W12027   6.511  16.617  12.105
38960W        W12028  12.615  30.131  12.850
38961W        W12029  36.065  35.434  11.484
38962W        W12030   3.379  34.402  14.043
38963W        W12031  21.768  21.615   3.315
38964W        W12032  43.793  23.933  12.590
38965W        W12033  37.611  40.346  10.520
38966W        W12034  31.068  17.550   2.645
38967W        W12035  36.132  15.411  13.478
38968W        W12036  17.459  12.483   2.840
38969W        W12037  34.890  36.379  14.216
38970W        W12038  31.932  24.542   2.653
38971W        W12039  13.384  30.304  10.477
38972W        W12040  20.125  23.104  11.483
38973W        W12041  16.149   1.168  13.092
38974W        W12042   2.248   1.764  12.318
38975W        W12043  40.143  43.093   3.331
38976W        W12044  26.445  34.799   2.377
38977W        W12045  30.696  11.535  14.473
38978W        W12046  25.401   0.867   3.676
38979W        W12047  37.136  42.363   0.305
38980W        W12048  19.655  34.829   3.761
38981W        W12049   0.053  28.927  12.773
38982W        W12050  26.508   4.451  10.608
38983W        W12051  23.554  17.599   0.325
38984W        W12052  12.147   8.216   2.782
38985W        W12053  23.033  36.579  14.104
38986W        W12054  21.118  31.170   5.041
38987W        W12055  20.456  22.536   4.141
38988W        W12056  14.320  35.843   4.862
38989W        W12057   4.035   3.947  13.420
38990W        W12058  41.546  25.854  14.853
38991W        W12059  33.931  38.426   2.784
38992W        W12060  33.838  23.550   1.237
38993W        W12061  14.374   1.439   3.608
38994W        W12062   0.197   4.894   4.662
38995W        W12063  31.599  21.972  12.093
38996W        W12064  10.662  13.276   4.606
38997W        W12065   9.066  33.324  13.029
38998W        W12066  37.323  42.577   0.781
38999W        W12067   1.458  40.951   3.301
39000W        W12068  27.845  37.335   2.018
39001W        W12069  14.670   1.063   3.789
39002W        W12070  38.786  10.313   4.117
39003W        W12071  33.544  20.093  13.639
39004W        W12072  12.390  25.108   0.201
39005W        W12073  26.386  10.565  11.432
39006W        W12074   0.448  23.089  11.843
39007W        W12075  44.875  11.291  10.709
39008W        W12076  25.694  16.223  10.615
39009W        W12077  37.659  36.086  13.504
39010W        W12078   3.020  25.080   3.343
39011W        W12079  26.483  14.787   0.694
39012W        W12080  33.770  38.916   2.768
39013W        W12081  40.992   3.558  12.432
39014W        W12082  12.224   9.211   3.659
39015W        W12083  26.387  14.299  13.491
39016W        W12084  33.992  18.549  13.431
39017W        W12085   9.329  32.567   3.195
39018W        W12086  33.148   5.142   1.450
39019W        W12087  14.419  38.436   1.309
39020W        W12088  42.028  42.483  14.838
39021W        W12089  21.006  44.719   0.089
39022W        W12090  14.686   9.118  12.901
39023W        W12091   2.402  36.225   1.223
39024W        W12092  44.116  26.973   0.888
39025W        W12093  32.045  17.684  12.410
39026W        W12094  31.731  14.201  10.483
39027W        W12095   8.734  28.399  11.578
39028W        W12096  29.771  14.737   2.336
39029W        W12097  28.122  17.266   4.907
39030W        W12098  20.182  44.014  13.873
39031W        W12099  26.685  14.204  13.934
39032W        W12100  16.574  30.057   1.455
39033W        W12101  34.551  32.199   1.886
39034W        W12102   0.896  40.572   4.848
39035W        W12103  26.811  10.225  14.486
39036W        W12104  14.702  39.637   0.509
39037W        W12105  22.259  22.684  11.951
39038W        W12106  44.994   3.634  12.601
39039W        W12107  27.712  16.568   4.713
39040W        W12108  36.306  41.351  11.472
39041W        W12109  10.580  25.036  14.742
39042W        W12110   2.254  25.548   1.878
39043W        W12111   3.726  38.924  14.763
39044W        W12112   2.150  44.795  12.604
39045W        W12113  24.207   7.322  13.742
39046W        W12114  13.330   6.795   3.175
39047W        W12115  20.649  11.881   3.762
39048W        W12116  37.871  17.510  13.931
39049W        W12117  36.909  25.438  11.173
39050W        W12118   7.399   2.722  14.921
39051W        W12119  28.670   9.387   1.878
39052W        W12120   4.505   5.467   3.387
39053W        W12121  23.699  20.108   4.640
39054W        W12122  25.690  42.284   1.233
39055W        W12123  20.697   3.386   4.077
39056W        W12124  10.550   8.805   1.457
39057W        W12125  27.221   9.730   9.847
39058W        W12126   4.166  18.070  14.495
39059W        W12127  34.998  37.123  14.407
39060W        W12128  17.826  34.779   3.167
39061W        W12129   0.814  11.853  13.407
39062W        W12130  20.637  26.557  11.390
39063W        W12131  36.314  31.412  13.389
39064W        W12132  33.468  29.397  11.555
39065W        W12133   8.308  33.105   1.903
39066W        W12134   9.386  31.971  12.953
39067W        W12135  21.027  14.601  10.455
39068W        W12136   2.532  16.722   0.559
39069W        W12137  36.925  40.412  13.086
39070W        W12138   4.407  34.871   2.776
39071W        W12139  37.755  31.668   4.548
39072W        W12140  14.146  29.671   1.424
39073W        W12141  24.686  17.115  11.692
39074W        W12142  23.069  21.480   3.561
39075W        W12143  23.550  43.385  14.862
39076W        W12144  12.738  36.812  10.427
39077W        W12145  26.520   2.770  13.516
39078W        W12146  36.076  40.501  11.620
39079W        W12147  38.026  41.021  13.389
39080W        W12148  37.974  42.288   2.940
39081W        W12149  23.702  41.364   4.121
39082W        W12150  21.590  10.303  10.090
39083W        W12151  42.088   9.309  12.689
39084W        W12152  22.635  41.891   4.527
39085W        W12153  17.372  26.540   2.788
39086W        W12154  30.870  23.147  10.948
39087W        W12155  43.695   7.380  11.443
39088W        W12156  15.772  20.077   1.192
39089W        W12157   6.247  43.305  10.231
39090W        W12158  32.496  39.135  14.001
39091W        W12159  43.729  40.358   3.238
39092W        W12160  25.243  13.266  10.691
39093W        W12161  26.030  17.332  14.496
39094W        W12162  21.144   5.307  14.789
39095W        W12163  17.232  35.860  12.408
39096W        W12164   9.121   8.238  14.546
39097W        W12165  41.595   9.012  14.077
39098W        W12166  30.180   5.869   1.285
39099W        W12167  24.682  15.253  10.996
39100W        W12168  17.924  36.850  12.962
39101W        W12169  29.376  36.986  13.121
39102W        W12170  44.158  10.041  13.370
39103W        W12171   0.987  15.168   4.722
39104W        W12172  27.184  20.864  11.900
39105W        W12173  42.961  42.299  10.564
39106W        W12174   2.117  10.357  12.441
39107W        W12175  38.518  11.480  11.084
39108W        W12176   9.343  14.682  14.371
39109W        W12177  19.848  33.106   3.289
39110W        W12178  22.101  26.513   4.516
39111W        W12179   2.851  19.192   3.719
39112W        W12180  32.973  13.499   4.262
39113W        W12181  30.059   9.036   1.649
39114W        W12182  28.133  13.409  12.029
39115W        W12183  12.149  32.606   0.092
39116W        W12184  18.686   8.879  13.831
39117W        W12185  19.238  17.804   0.184
39118W        W12186  23.736  37.550   0.161
39119W        W12187  19.746   6.487   2.229
39120W        W12188  21.217  37.986   3.166
39121W        W12189  33.608  25.647  11.301
39122W        W12190  38.473  13.807   3.159
39123W        W12191  19.315   1.964  14.474
39124W        W12192  25.596  30.123   4.052
39125W        W12193  19.147  16.607   3.413
39126W        W12194   1.223  12.861   2.745
39127W        W12195   2.264   8.710   2.329
39128W        W12196  36.777  32.686   3.106
39129W        W12197  21.695   5.712  11.977
39130W        W12198  37.284  37.389   4.566
39131W        W12199  28.162   5.995  13.928
39132W        W12200   0.818   8.808   2.762
39133W        W12201  33.855  17.555  10.501
39134W        W12202  42.071  15.630   3.685
39135W        W12203  37.385   4.336   3.203
39136W        W12204   8.772  16.113   1.966
39137W        W12205  12.734  44.884   2.434
39138W        W12206  38.300  34.051   4.404
39139W        W12207  27.238  30.063   3.336
39140W        W12208   9.899  23.193   1.494
39141W        W12209  11.884  10.422   2.387
39142W        W12210  38.043  34.574  14.615
39143W        W12211   3.825  22.621  13.815
39144W        W12212   5.764  38.838   4.917
39145W        W12213  12.247  16.627  10.610
39146W        W12214  22.135  38.512  14.919
39147W        W12215  21.746  40.845   3.537
39148W        W12216  37.391  26.550   1.281
39149W        W12217  40.945  30.928   0.009
39150W        W12218  40.730  15.208  13.466
39151W        W12219  40.778  37.011   1.732
39152W        W12220  29.475  26.178   2.777
39153W        W12221   4.008  43.547  11.897
39154W        W12222   6.827  38.383  12.895
39155W        W12223  24.209  15.945  12.742
39156W        W12224  44.807   7.266  14.298
39157W        W12225   0.363   7.790  12.481
39158W        W12226   2.205  24.925   2.210
39159W        W12227  23.580  22.565   4.343
39160W        W12228  25.578  41.280   0.442
39161W        W12229   5.656  20.760   1.815
39162W        W12230   6.807  41.128   1.660
39163W        W12231  18.542  40.383   3.683
39164W        W12232  23.986  38.242  11.096
39165W        W12233  21.602  44.487   4.166
39166W        W12234  19.023   3.319   5.054
39167W        W12235  32.019   8.481   3.648
39168W        W12236  29.587  24.022  13.521
39169W        W12237   0.908  14.769  14.149
39170W        W12238  21.115  38.313   3.649
39171W        W12239  12.326  38.798   2.350
39172W        W12240  21.210  28.210   1.744
39173W        W12241  22.771  28.545   4.575
39174W        W12242   6.400  24.731   0.419
39175W        W12243  18.550  32.522   3.234
39176W        W12244   3.891  38.858  12.105
39177W        W12245  41.945  39.581   3.797
39178W        W12246  18.047  39.944   2.374
39179W        W12247  17.355  38.481  12.902
39180W        W12248  19.844  15.855   1.386
39181W        W12249  38.941  42.336  12.972
39182W        W12250  21.971   7.906   0.857
39183W        W12251  13.839  38.490   2.807
39184W        W12252  15.205  12.539  13.382
39185W        W12253  23.468  31.546   2.731
39186W        W12254   5.132  22.012   3.211
39187W        W12255  23.083  33.834  12.876
39188W        W12256  25.754  11.827   4.515
39189W        W12257   7.755   2.492  14.547
39190W        W12258   6.178   2.697   1.803
39191W        W12259   7.939  34.079   4.643
39192W        W12260  29.438  37.351  11.176
39193W        W12261  28.597   2.243   2.967
39194W        W12262  31.597  35.653   4.736
39195W        W12263   5.410   1.492  12.947
39196W        W12264  30.149  41.847   1.388
39197W        W12265  24.757  14.657   1.437
39198W        W12266  24.710   1.777  10.637
39199W        W12267  36.112   9.696  11.417
39200W        W12268  37.549  17.129   4.543
39201W        W12269  24.103  43.900   3.619
39202W        W12270  18.726  43.939   0.582
39203W        W12271  37.480   0.881  13.100
39204W        W12272  29.765  23.890  10.807
39205W        W12273   4.012   8.124   1.413
39206W        W12274  43.533   7.798  12.699
39207W        W12275   4.675  24.620   4.960
39208W        W12276   0.436   3.844  13.443
39209W        W12277  37.325  30.545  14.860
39210W        W12278  30.558  42.493   1.148
39211W        W12279  20.230   5.550  10.969
39212W        W12280  15.701  26.614   4.187
39213W        W12281  16.422  41.574  13.336
39214W        W12282  25.065   6.275   2.914
39215W        W12283  11.698  30.220   4.113
39216W        W12284  20.636  35.507   0.486
39217W        W12285  23.743  27.996   0.899
39218W        W12286  13.376  25.069   3.178
39219W        W12287  23.015  29.705  11.984
39220W        W12288  31.987   9.204  12.986
39221W        W12289  17.512  43.442  11.646
39222W        W12290   0.187  24.019  14.030
39223W        W12291  25.566  29.163  10.385
39224W        W12292  39.104   3.384   2.347
39225W        W12293  19.781   8.625   2.848
39226W        W12294  29.755  15.456  13.998
39227W        W12295  26.371   6.265  14.467
39228W        W12296   2.366   2.389   1.902
39229W        W12297  33.647  20.614  11.221
39230W        W12298   7.442  41.918   1.218
39231W        W12299  20.559  11.604  13.146
39232W        W12300  15.579   8.634   0.237
39233W        W12301  12.265  16.697  14.717
39234W        W12302  34.944  28.525   1.975
39235W        W12303  37.563  38.577  14.493
39236W        W12304  43.348   1.913   3.603
39237W        W12305  26.009   7.799  12.991
39238W        W12306  10.632  25.100   2.173
39239W        W12307  37.212  34.862  12.933
39240W        W12308  23.558  29.079  10.734
39241W        W12309  11.156   3.862   4.415
39242W        W12310  42.895  32.941   0.260
39243W        W12311   3.531   3.652  11.587
39244W        W12312  43.588  13.200  13.345
39245W        W12313  23.651  29.127  13.611
39246W        W12314   7.835  30.639  14.855
39247W        W12315  16.989  15.362   2.863
39248W        W12316   3.639  32.448  14.895
39249W        W12317  32.205  34.598   4.099
39250W        W12318  30.409  23.146   2.808
39251W        W12319  31.362   0.399   2.220
39252W        W12320  17.550  44.255   4.551
39253W        W12321  18.373  20.176   3.227
39254W        W12322   2.374  30.953  10.726
39255W        W12323   0.525  22.543  13.581
39256W        W12324  14.109  36.171  13.408
39257W        W12325  15.657  30.957   4.786
39258W        W12326  16.358  12.009  12.412
39259W        W12327  17.159  19.572   1.726
39260W        W12328  37.096  15.578  13.479
39261W        W12329  17.563  12.602   3.327
39262W        W12330  20.442  17.174  10.743
39263W        W12331   9.896   5.898  10.429
39264W        W12332  11.380   4.642  14.302
39265W        W12333  11.883  35.797   1.285
39266W        W12334  21.629  15.118  13.117
39267W        W12335  13.583  43.685  11.124
39268W        W12336  21.740  33.413   4.312
39269W        W12337  11.199  19.368  11.241
39270W        W12338  31.630  24.933   3.400
39271W        W12339   6.874  36.641   4.088
39272W        W12340  11.112  23.420  12.792
39273W        W12341  23.693  12.608   3.202
39274W        W12342  24.696  29.657   4.143
39275W        W12343   6.642  33.970   3.321
39276W        W12344  16.308  43.328   0.315
39277W        W12345   6.264  13.746   1.922
39278W        W12346  11.148   1.398  11.982
39279W        W12347  19.541  16.345   3.716
39280W        W12348  29.668  11.376   0.331
39281W        W12349  16.507   5.420  13.254
39282W        W12350  17.094  17.159   2.900
39283W        W12351  44.713  33.295  13.507
39284W        W12352  41.766  40.411   3.786
39285W        W12353  10.290  14.354   3.722
39286W        W12354  42.850  38.067  11.686
39287W        W12355  41.733  28.115   2.481
39288W        W12356  11.158  37.881   2.397
39289W        W12357  41.256  31.619  12.542
39290W        W12358  13.541  26.141  12.001
39291W        W12359  28.493  38.037  12.501
39292W        W12360   1.685  20.247   2.369
39293W        W12361   0.861  11.846  13.953
39294W        W12362  31.388   7.961  11.513
39295W        W12363  37.308  20.613   0.734
39296W        W12364  25.169  38.414   1.963
39297W        W12365  38.089  19.759  13.591
39298W        W12366  14.554  36.367   4.226
39299W        W12367  11.359  22.127   2.115
39300W        W12368   7.743   8.133   0.961
39301W        W12369  16.204   7.920  14.290
39302W        W12370  26.688  44.328   0.639
39303W        W12371  35.878   7.851  10.381
39304W        W12372   0.533  38.929  11.532
39305W        W12373  43.460  38.885  11.573
39306W        W12374   6.302  32.777   1.854
39307W        W12375  40.266   3.387  14.949
39308W        W12376  39.837  14.423  12.866
39309W        W12377  36.894  24.986  10.912
39310W        W12378  15.013   3.388  11.929
39311W        W12379  19.647   4.809  13.016
39312W        W12380   6.667  18.408  12.112
39313W        W12381  32.871   1.824   3.168
39314W        W12382  38.060  33.054  13.804
39315W        W12383  15.295  35.492  13.566
39316W        W12384  34.343   9.253  14.788
39317W        W12385  25.181   9.935  13.509
39318W        W12386  18.686  21.008  11.438
39319W        W12387  16.681  26.432   3.279
39320W        W12388  17.728  30.717  13.427
39321W        W12389  22.842  36.431   1.908
39322W        W12390   9.688   8.925   2.023
39323W        W12391  28.061   8.283   3.076
39324W        W12392  13.477  37.811   0.692
39325W        W12393  30.745   2.840  14.269
39326W        W12394  26.931  17.773   4.646
39327W        W12395  41.085  30.670   2.799
39328W        W12396  18.550  16.834  13.103
39329W        W12397   7.457  25.668   2.751
39330W        W12398  22.289   5.708  14.422
39331W        W12399  10.160  31.297  12.957
39332W        W12400  10.698  34.408  14.353
39333W        W12401  26.434  23.766  12.165
39334W        W12402  22.071  19.238   4.018
39335W        W12403  31.171  40.319  10.618
39336W        W12404  39.532  35.043   4.275
39337W        W12405   5.686   1.075   4.212
39338W        W12406   9.892  14.310   0.934
39339W        W12407  43.581  30.624  11.130
39340W        W12408  39.067  27.439  14.388
39341W        W12409  39.674   3.928  11.085
39342W        W12410   4.785  38.868  12.654
39343W        W12411  20.543  43.770  12.482
39344W        W12412  38.937   0.392  13.666
39345W        W12413  34.882  10.809  11.333
39346W        W12414  30.768  13.841  10.744
39347W        W12415  12.545  10.052   1.872
39348W        W12416  17.973  38.595  14.166
39349W        W12417  32.124  33.602  13.395
39350W        W12418  10.337  37.609   4.582
39351W        W12419   5.334  18.135  14.024
39352W        W12420  25.653  32.874   1.861
39353W        W12421  21.462  10.852   4.824
39354W        W12422  20.593  36.587   3.079
39355W        W12423  41.028   7.618  11.144
39356W        W12424  22.810  25.807  13.909
39357W        W12425  43.932  35.107  14.376
39358W        W12426   6.452  21.170   1.838
39359W        W12427  28.593  42.565  10.687
39360W        W12428  38.493   6.602   0.672
39361W        W12429  43.286   4.703   4.645
39362W        W12430  15.336   1.314   1.148
39363W        W12431  17.331  13.596   3.160
39364W        W12432  18.529   8.813   0.832
39365W        W12433  32.967  30.919  11.839
39366W        W12434  27.432  43.813   1.524
39367W        W12435  22.986   4.901  12.500
39368W        W12436  39.039   0.029  13.310
39369W        W12437  20.474  12.395   0.904
39370W        W12438   9.151   3.474   2.321
39371W        W12439  42.507  23.839  10.759
39372W        W12440  44.529  42.273  14.910
39373W        W12441   5.689  26.531  14.882
39374W        W12442  32.416  21.954  11.462
39375W        W12443   5.474  21.107  10.984
39376W        W12444   2.301   7.871  12.529
39377W        W12445  13.920  16.495   3.631
39378W        W12446  17.004   6.006  11.661
39379W        W12447   2.942   7.367   2.428
39380W        W12448  32.064  44.303  12.053
39381W        W12449   7.178   6.861  13.423
39382W        W12450  38.893  36.078   1.828
39383W        W12451   7.840  40.679   1.465
39384W        W12452  38.032  30.453  11.112
39385W        W12453   5.325  37.902  10.598
39386W        W12454  28.434  37.987   0.509
39387W        W12455   0.666  11.239   2.928
39388W        W12456   1.964  28.766   1.718
39389W        W12457  43.231  27.147   4.575
39390W        W12458  26.991  41.475   3.526
39391W        W12459  28.991   1.232  11.884
39392W        W12460  21.710  23.153   1.507
39393W        W12461   4.344  22.654  11.559
39394W        W12462  44.184  31.500   3.584
39395W        W12463  39.078  22.502  10.651
39396W        W12464   6.667  27.968  12.435
39397W        W12465  18.372  44.922  11.163
39398W        W12466  36.490  28.090   9.869
39399W        W12467  41.565   0.214   2.815
39400W        W12468  12.351   0.267   1.600
39401W        W12469  41.970  13.960  12.968
39402W        W12470   4.704  33.472   9.994
39403W        W12471  29.592   6.327   2.307
39404W        W12472  27.608  20.161  13.952
39405W        W12473  24.159  33.650   1.362
39406W        W12474   9.595  23.611   2.232
39407W        W12475  40.994   9.231   3.124
39408W        W12476  41.108  19.260   1.557
39409W        W12477  37.007   2.949   0.115
39410W        W12478  18.256  27.915   3.831
39411W        W12479   3.836   1.191  14.328
39412W        W12480  20.795  37.179   2.869
39413W        W12481   3.407  44.764  11.194
39414W        W12482  29.152   4.449   1.248
39415W        W12483  44.788  32.565  13.829
39416W        W12484  16.261  14.175   2.868
39417W        W12485   7.384   7.188   2.080
39418W        W12486   2.430  33.771  10.217
39419W        W12487  22.780  17.181  10.211
39420W        W12488  31.964  25.999   4.687
39421W        W12489  40.549  21.523  11.993
39422W        W12490  25.260  39.436  13.878
39423W        W12491  23.484  13.544  14.422
39424W        W12492  12.174   0.854  10.655
39425W        W12493  14.683  14.346   0.341
39426W        W12494  22.160   1.425   4.876
39427W        W12495  44.427   4.822  12.598
39428W        W12496  25.848  14.077   4.723
39429W        W12497  42.822  15.196   2.325
39430W        W12498   9.699  10.864   0.905
39431W        W12499  15.526  13.864  13.089
39432W        W12500  38.729   1.730  13.554
39433W        W12501  19.366  17.041   3.212
39434W        W12502  35.981  28.328  14.839
39435W        W12503  24.720   5.219  14.361
39436W        W12504   4.825  23.434  12.132
39437W        W12505  20.200  19.241  11.413
39438W        W12506  15.397  41.545  12.260
39439W        W12507  26.141  36.556   1.194
39440W        W12508  17.102  17.139  11.002
39441W        W12509   4.535   6.228  13.862
39442W        W12510   4.504  14.163   0.834
39443W        W12511   0.191  21.769  11.107
39444W        W12512   6.393   6.894  12.284
39445W        W12513   9.697  16.759  12.886
39446W        W12514  34.283  16.771  12.797
39447W        W12515  15.293  31.746   1.828
39448W        W12516   7.878  25.404   1.802
39449W        W12517  36.700   0.482  13.541
39450W        W12518  37.596  25.884   2.278
39451W        W12519   1.952  39.540  14.521
39452W        W12520  11.733  43.401  11.887
39453W        W12521   3.732   7.885   2.250
39454W        W12522  25.165   5.233   1.753
39455W        W12523  21.684  40.873   0.235
39456W        W12524  23.107   8.875  14.888
39457W        W12525  37.525  15.697   1.475
39458W        W12526  12.065  32.890   3.687
39459W        W12527  24.584  25.804   2.789
39460W        W12528  44.998  34.142  13.926
39461W        W12529  30.674   1.291   4.385
39462W        W12530   6.816  25.429   3.157
39463W        W12531  19.554  12.677   2.135
39464W        W12532   5.428   7.935   1.914
39465W        W12533  24.290  22.649   0.910
39466W        W12534  12.335  13.556  11.416
39467W        W12535  14.307   5.088   4.532
39468W        W12536  31.186  26.535  14.809
39469W        W12537   8.850  28.238   1.399
39470W        W12538  40.243  33.624  11.587
39471W        W12539  12.201  28.425   3.520
39472W        W12540  19.905  40.030   4.177
39473W        W12541   3.791   5.900   2.294
39474W        W12542  10.452  25.672  12.465
39475W        W12543  13.131  21.270   2.139
39476W        W12544  22.297  26.007  13.993
39477W        W12545  27.182  23.274   4.254
39478W        W12546  11.399   3.310  10.664
39479W        W12547  30.354  30.955   1.233
39480W        W12548  19.945  30.745   0.344
39481W        W12549  20.980  38.374  14.485
39482W        W12550   3.755  28.948  11.963
39483W        W12551  43.557  16.948  12.587
39484W        W12552  35.623  24.065  13.334
39485W        W12553  14.631  25.638  14.333
39486W        W12554  14.454  18.748   1.737
39487W        W12555  38.906  44.477   4.654
39488W        W12556  21.589   8.351  10.616
39489W        W12557  29.507  36.352  10.524
39490W        W12558  29.230  44.016   0.374
39491W        W12559   9.836  15.422   3.010
39492W        W12560  41.764   8.182  14.555
39493W        W12561  24.973  25.245   4.591
39494W        W12562   0.911  44.799  14.996
39495W        W12563  17.943  37.883  11.538
39496W        W12564   4.016   2.501  13.914
39497W        W12565   0.182  20.133  13.457
39498W        W12566  15.191  18.201   1.415
39499W        W12567  27.712  11.365  13.938
39500W        W12568  40.826  10.773   2.396
39501W        W12569  16.110  13.814   3.396
39502W        W12570   6.198  35.498  12.793
39503W        W12571   7.385  33.727  13.304
39504W        W12572  41.441   0.050   0.451
39505W        W12573   0.212  21.629   4.563
39506W        W12574  35.125  15.836   1.283
39507W        W12575  23.920  38.378   1.366
39508W        W12576  41.905  20.762   0.007
39509W        W12577  14.284   4.377  14.251
39510W        W12578  34.374  32.334   0.768
39511W        W12579   5.368  11.803  13.396
39512W        W12580  17.858  43.198   2.762
39513W        W12581  10.666  43.053  11.151
39514W        W12582  43.029   6.197  13.276
39515W        W12583  40.400  44.356  11.088
39516W        W12584  30.493  24.971  13.078
39517W        W12585  31.525  40.937  11.473
39518W        W12586  29.263   6.777  11.151
39519W        W12587  41.235   5.178  12.861
39520W        W12588  32.111  10.342  12.171
39521W        W12589   3.273   9.620  14.410
39522W        W12590  32.516  11.635  14.489
39523W        W12591  31.508  27.125  11.943
39524W        W12592  41.958  38.548  14.338
39525W        W12593  39.277  43.253  12.405
39526W        W12594   5.148  34.999  12.059
39527W        W12595  42.485   1.517  10.676
39528W        W12596   4.371   7.115  13.940
39529W        W12597  42.466   2.497  12.972
39530W        W12598  41.519  26.133  11.172
39531W        W12599  44.048   1.568   1.505
39532W        W12600  39.603  34.127  12.350
39533W        W12601  34.586  24.149  14.375
39534W        W12602   7.418  36.106  14.741
39535W        W12603  20.520  30.962   4.132
39536W        W12604  34.111  18.657   3.625
39537W        W12605  22.965   1.515  11.196
39538W        W12606   5.108  17.743   4.262
39539W        W12607  32.485  28.596   1.428
39540W        W12608   7.493   1.769  12.437
39541W        W12609  14.421  39.825   0.066
39542W        W12610   0.754  16.648  10.515
39543W        W12611  35.610  29.085  14.482
39544W        W12612   3.254   3.645   2.224
39545W        W12613  42.535  34.502   0.025
39546W        W12614  13.343  13.854  13.558
39547W        W12615   5.191  19.050  14.919
39548W        W12616  20.765  40.411  13.535
39549W        W12617  17.296   5.236  11.098
39550W        W12618   4.556  32.562   1.428
39551W        W12619  28.872   9.875  12.548
39552W        W12620  12.229  39.011   1.553
39553W        W12621  16.755  33.633   2.130
39554W        W12622   9.675  19.078  11.091
39555W        W12623  32.060   5.472  13.405
39556W        W12624  12.168  13.151   4.288
39557W        W12625  26.092   7.358   4.735
39558W        W12626  23.730  23.083   4.480
39559W        W12627  42.914  33.915   3.192
39560W        W12628  19.600  20.594   2.595
39561W        W12629   6.667   9.289   4.423
39562W        W12630   5.326  37.991  14.957
39563W        W12631  18.256  36.027   2.882
39564W        W12632  36.378   0.350   2.600
39565W        W12633  30.673  38.572   2.323
39566W        W12634  21.638   7.715  12.441
39567W        W12635  32.483  23.301  14.906
39568W        W12636  11.194  37.059  10.901
39569W        W12637   1.799  31.391  13.030
39570W        W12638   6.087  25.012  12.977
39571W        W12639  44.883  41.288  14.329
39572W        W12640  39.257  15.870  12.815
39573W        W12641  27.159  31.529  14.759
39574W        W12642  24.236  12.380   3.678
39575W        W12643  23.929  29.447   3.734
39576W        W12644  21.748  30.465  13.854
39577W        W12645  28.003   0.796   4.674
39578W        W12646  44.238  25.650   4.030
39579W        W12647  25.101   9.740  13.977
39580W        W12648  29.712   6.250  14.895
39581W        W12649   4.661   6.463   4.525
39582W        W12650  11.688  18.600  14.310
39583W        W12651  21.580  31.947   3.169
39584W        W12652  32.864  38.538   1.283
39585W        W12653  43.895   3.396   2.141
39586W        W12654  43.107  21.080   3.044
39587W        W12655  42.352   2.435   1.820
39588W        W12656  43.465   0.260  10.729
39589W        W12657  15.899  22.259  11.240
39590W        W12658  28.452  26.044  12.983
39591W        W12659  41.392   7.896  12.548
39592W        W12660  16.056  14.652   1.979
39593W        W12661   0.014  19.230   4.920
39594W        W12662   4.895   9.062  14.271
39595W        W12663  38.353  41.316  12.061
39596W        W12664  12.108  29.034   4.404
39597W        W12665  25.476  17.537  12.514
39598W        W12666   2.140  32.160   0.987
39599W        W12667  18.024  39.452   0.751
39600W        W12668   8.953  40.542  14.796
39601W        W12669   6.896  27.445  10.637
39602W        W12670  41.811  36.103   3.144
39603W        W12671   6.886  44.822  11.974
39604W        W12672  23.167  18.058   3.114
39605W        W12673   4.464  10.710   2.218
39606W        W12674   2.827  37.046  12.590
39607W        W12675  24.073   4.850  13.418
39608W        W12676  11.327  31.447   0.465
39609W        W12677  21.649  33.105   2.221
39610W        W12678  40.390  43.263   0.608
39611W        W12679  17.120  37.993  11.945
39612W        W12680  30.155   2.373  13.496
39613W        W12681  29.381  28.653   1.320
39614W        W12682  34.927  42.992   4.630
39615W        W12683  25.026  24.445   1.930
39616W        W12684  21.620  16.722   3.329
39617W        W12685   9.794   5.264   4.636
39618W        W12686   3.761  29.726   1.423
39619W        W12687  41.885  21.997  13.492
39620W        W12688  21.057  16.219  12.404
39621W        W12689   9.797  18.354   0.809
39622W        W12690  43.101  29.582  12.432
39623W        W12691   7.778  20.526  11.059
39624W        W12692   8.734  22.314  12.350
39625W        W12693  12.787  39.052   2.261
39626W        W12694  39.449   6.827  12.376
39627W        W12695  34.802   6.281  10.319
39628W        W12696   2.466  43.007  14.557
39629W        W12697  43.520  29.514   2.183
39630W        W12698   9.601  44.863   4.001
39631W        W12699  42.272  27.202   4.599
39632W        W12700  20.233   1.952   4.581
39633W        W12701  30.004  23.429  10.979
39634W        W12702   0.364  29.677   0.340
39635W        W12703  34.506   5.356  12.175
39636W        W12704  42.874  18.683  14.811
39637W        W12705  44.436   2.645   4.920
39638W        W12706  26.460  25.368   5.025
39639W        W12707   2.540  18.149  13.586
39640W        W12708  25.747   5.769   3.623
39641W        W12709  39.178   0.888   4.108
39642W        W12710  23.184  15.516  13.519
39643W        W12711  23.243  32.503   2.255
39644W        W12712  15.295  25.445   4.168
39645W        W12713  22.974   1.695  12.092
39646W        W12714  19.208  15.129  12.345
39647W        W12715  27.016   5.303  13.983
39648W        W12716   4.690   9.433   1.237
39649W        W12717  38.473   2.288  12.795
39650W        W12718  31.799  20.050   0.276
39651W        W12719  27.077  31.365   0.636
39652W        W12720  22.054  20.223  13.790
39653W        W12721  38.293   8.248   1.808
39654W        W12722  39.019  34.022   3.410
39655W        W12723  17.201  31.474   4.457
39656W        W12724  38.548  24.336  11.353
39657W        W12725  29.416   1.004   4.671
39658W        W12726  44.909   3.139   5.066
39659W        W12727  12.303  42.312   4.579
39660W        W12728  21.663  29.521   2.696
39661W        W12729  16.820  21.286   1.644
39662W        W12730   1.964  32.138  12.781
39663W        W12731   3.668  26.701  14.305
39664W        W12732   5.723   2.397  13.460
39665W        W12733  10.572  23.979  13.237
39666W        W12734  12.521  44.895  12.047
39667W        W12735  35.473  13.811  12.959
39668W        W12736  25.399  42.899   3.812
39669W        W12737   3.870   3.892   4.859
39670W        W12738  38.038  38.851  14.522
39671W        W12739  13.717  25.835   3.643
39672W        W12740  32.640  42.830  12.028
39673W        W12741  16.326  20.788   1.287
39674W        W12742  39.841  30.404   3.226
39675W        W12743   7.304   1.265   2.170
39676W        W12744   3.119  41.900   1.031
39677W        W12745  39.387  42.060  12.964
39678W        W12746  38.569  32.503  11.859
39679W        W12747  32.910   6.744  11.104
39680W        W12748   8.963  43.788   3.233
39681W        W12749  14.739   5.723  12.569
39682W        W12750  16.583  23.899   3.199
39683W        W12751  13.213  39.872  14.412
39684W        W12752  25.009  39.030  14.742
39685W        W12753   1.502   3.436  14.060
39686W        W12754  35.097  26.666   4.272
39687W        W12755  32.023  33.870   4.718
39688W        W12756  29.852  28.961   4.786
39689W        W12757  14.904  33.014   3.269
39690W        W12758  38.958   8.957  13.983
39691W        W12759  36.741   2.071  12.020
39692W        W12760  23.727  15.897  12.555
39693W        W12761  31.600  35.113   2.708
39694W        W12762  25.627  37.453   9.991
39695W        W12763  31.158  11.794   1.603
39696W        W12764  40.053  29.965  13.742
39697W        W12765  35.903  15.543   1.914
39698W        W12766   5.127  26.203  14.321
39699W        W12767   4.670  21.239  12.934
39700W        W12768  43.211   1.042  12.766
39701W        W12769   8.991  32.328   1.769
39702W        W12770   8.291  29.908   3.855
39703W        W12771   3.855   6.354   4.908
39704W        W12772  43.017  23.315   3.242
39705W        W12773  26.058  37.556   2.305
39706W        W12774  29.923  31.638  12.982
39707W        W12775  31.156   6.044   2.793
39708W        W12776  21.132  31.565  14.207
39709W        W12777  16.537  21.390  12.611
39710W        W12778  21.751  16.776   4.269
39711W        W12779   5.942   2.640  13.866
39712W        W12780  20.257  26.718   3.244
39713W        W12781  19.989  29.206  13.889
39714W        W12782   1.412   9.672  14.330
39715W        W12783  20.903  35.955   3.893
39716W        W12784  23.150  26.105   3.874
39717W        W12785  17.117   3.144   0.940
39718W        W12786  10.690  29.155  11.878
39719W        W12787  40.051  29.176  10.568
39720W        W12788   9.173  14.477   0.427
39721W        W12789   5.421  37.741  12.351
39722W        W12790  23.683  29.982   3.681
39723W        W12791  31.048  23.010  11.412
39724W        W12792  33.042  24.465   4.233
39725W        W12793  16.068  27.654   4.092
39726W        W12794  42.456  23.107   4.861
39727W        W12795  13.321  31.878   1.746
39728W        W12796  41.735  39.410   0.750
39729W        W12797   2.372  17.744  13.872
39730W        W12798  18.521   9.710   4.225
39731W        W12799  39.523  26.933   3.974
39732W        W12800   8.777  22.022   1.887
39733W        W12801   8.973  35.552   2.260
39734W        W12802  31.860  36.540   3.183
39735W        W12803  27.526  27.059   4.232
39736W        W12804   6.019  11.244  10.134
39737W        W12805  16.365  19.401   0.887
39738W        W12806  27.928  33.560   3.511
39739W        W12807  32.198   1.747   1.186
39740W        W12808   4.310  20.136  11.485
39741W        W12809  32.245   3.972   1.290
39742W        W12810  29.549  26.776  12.007
39743W        W12811  33.409   6.548   1.297
39744W        W12812   5.129   1.984   0.296
39745W        W12813  12.019  43.183  11.066
39746W        W12814  41.292  37.759  14.398
39747W        W12815  29.444  10.979  14.090
39748W        W12816  42.038  33.948   3.059
39749W        W12817  32.858   6.391  10.728
39750W        W12818   7.834  17.492   2.687
39751W        W12819   0.832   3.917   0.906
39752W        W12820   2.263   7.377  14.208
39753W        W12821  36.398  37.381   0.386
39754W        W12822  26.721  11.178  14.361
39755W        W12823  21.268  22.880   1.310
39756W        W12824   9.301  30.969   1.834
39757W        W12825  29.077  10.242   1.313
39758W        W12826  12.362   5.046  11.113
39759W        W12827  16.099  17.620  11.157
39760W        W12828  34.001   4.914  12.204
39761W        W12829   5.255   8.420   1.759
39762W        W12830   8.594  19.654  12.523
39763W        W12831  27.083   7.242  12.415
39764W        W12832  14.173  33.533  11.946
39765W        W12833  35.494   8.033  13.470
39766W        W12834  39.030  32.561   0.575
39767W        W12835  39.973   1.110   2.798
39768W        W12836   0.405   9.830   0.866
39769W        W12837  24.539   6.825  11.150
39770W        W12838  18.018  44.383  14.353
39771W        W12839  37.601  14.373  12.549
39772W        W12840  21.886  42.837  10.080
39773W        W12841  29.897  23.532   4.656
39774W        W12842  38.542   3.329   3.184
39775W        W12843  44.039  31.503  10.150
39776W        W12844  16.345  20.363   2.834
39777W        W12845  14.792  26.707  10.557
39778W        W12846  17.330   6.783   3.397
39779W        W12847   4.956  38.589  14.204
39780W        W12848   8.379  24.877   0.662
39781W        W12849  42.309  23.613  14.901
39782W        W12850  15.731   2.432  13.670
39783W        W12851  32.461  19.770  12.849
39784W        W12852  11.388  17.539  13.003
39785W        W12853  16.491  44.513  12.845
39786W        W12854  29.677  11.277   3.680
39787W        W12855  36.638  41.564   1.381
39788W        W12856  29.679   6.724  14.348
39789W        W12857  29.186  36.253  11.028
39790W        W12858   0.393  40.842   1.759
39791W        W12859  21.262  27.925  14.904
39792W        W12860  37.438  39.968  13.508
39793W        W12861  42.024  37.595   1.256
39794W        W12862  35.640  17.515   3.783
39795W        W12863   4.344   4.896  14.795
39796W        W12864  17.356   9.296   0.490
39797W        W12865  25.949   1.980   1.977
39798W        W12866  19.103  18.004  12.173
39799W        W12867   0.454  21.111   0.790
39800W        W12868  27.430  11.632   2.369
39801W        W12869  31.376   6.234   4.661
39802W        W12870  13.384  19.838  10.711
39803W        W12871  40.344  29.082   4.580
39804W        W12872   9.094  30.635  12.368
39805W        W12873  42.313  32.544   2.831
39806W        W12874  22.475  11.173   4.185
39807W        W12875  13.663  19.182  13.355
39808W        W12876  35.364   2.505   1.484
39809W        W12877  36.442  16.870  11.703
39810W        W12878  39.483  15.176   1.418
39811W        W12879   9.259  20.418  11.935
39812W        W12880  35.256  12.241   0.872
39813W        W12881  30.060  41.829  12.784
39814W        W12882  41.132   5.729   1.474
39815W        W12883  24.109  27.748  13.821
39816W        W12884  22.326  31.139  13.785
39817W        W12885  34.357  41.301   2.723
39818W        W12886  25.107  22.693   0.360
39819W        W12887  36.070  12.580  13.064
39820W        W12888  20.507  22.694   1.652
39821W        W12889  38.125   5.793  13.140
39822W        W12890  29.515   7.257   5.156
39823W        W12891  13.676  38.277  10.549
39824W        W12892  39.988   7.167   1.316
39825W        W12893  33.004  17.362  10.624
39826W        W12894   7.729  36.334   0.421
39827W        W12895   8.061  30.020  13.049
39828W        W12896  25.652  18.106  11.542
39829W        W12897  12.214  39.779  12.583
39830W        W12898  23.151   6.678  14.525
39831W        W12899  16.352  32.947   4.233
39832W        W12900  32.495   2.276  10.717
39833W        W12901  34.534  12.941   0.244
39834W        W12902  36.042  31.811   1.872
39835W        W12903  15.003  34.998   2.682
39836W        W12904  25.708   6.694  13.223
39837W        W12905  35.123  17.503   3.718
39838W        W12906   4.816   7.199   1.669
39839W        W12907  12.168  40.616  12.856
39840W        W12908  30.673  44.045  12.003
39841W        W12909  43.531  17.159  14.525
39842W        W12910   6.163  35.203   2.257
39843W        W12911  18.181   5.943  12.812
39844W        W12912  11.751  35.710  11.133
39845W        W12913  39.844  21.766  11.125
39846W        W12914   6.200   0.402  14.440
39847W        W12915  33.179  32.513  14.081
39848W        W12916  39.433  11.414  14.854
39849W        W12917  41.445  25.408   1.416
39850W        W12918  26.652  25.129  12.205
39851W        W12919  36.510  11.214  11.155
39852W        W12920  30.459  25.106  14.079
39853W        W12921  20.631  22.181  11.213
39854W        W12922   9.815  27.358   1.108
39855W        W12923  26.642   8.564   5.130
39856W        W12924  22.022  13.793   4.231
39857W        W12925  24.321  39.344   3.274
39858W        W12926  43.827  34.378   3.174
39859W        W12927  15.214   5.930   4.252
39860W        W12928  41.939  12.779  14.442
39861W        W12929  17.137  24.238   2.248
39862W        W12930  10.885   3.291  10.581
39863W        W12931  36.083  36.298  14.206
39864W        W12932   9.700  10.889  13.025
39865W        W12933  27.418  36.205   2.411
39866W        W12934  42.335   1.017  13.963
39867W        W12935  16.358  43.029   4.163
39868W        W12936  15.617  33.340   4.986
39869W        W12937  15.815   9.227   1.426
39870W        W12938   7.737   1.080   2.413
39871W        W12939  30.953  41.004   0.465
39872W        W12940   0.844  15.110  14.535
39873W        W12941  25.617  31.595  14.335
39874W        W12942  37.394  25.626   0.051
39875W        W12943  12.204  28.961   3.389
39876W        W12944  41.906  42.753  11.002
39877W        W12945  30.970   2.824  12.488
39878W        W12946  11.656  26.270  10.461
39879W        W12947  29.158   5.787   4.614
39880W        W12948  30.051  25.149  12.877
39881W        W12949   6.348  16.756   3.222
39882W        W12950  37.272  16.365  12.402
39883W        W12951   1.255  15.232   3.868
39884W        W12952  19.251  14.373   4.821
39885W        W12953  25.252  40.974  11.650
39886W        W12954   2.595  29.514  13.400
39887W        W12955  24.186  27.948  13.352
39888W        W12956  21.598  33.332  11.085
39889W        W12957  22.403  42.019   1.401
39890W        W12958  14.780  17.352   1.310
39891W        W12959  33.971   4.728   1.863
39892W        W12960   1.808  16.114  11.092
39893W        W12961   2.706  40.927   2.911
39894W        W12962  38.446   6.413   4.529
39895W        W12963  34.075  20.987  10.349
39896W        W12964  39.506   2.300   1.262
39897W        W12965  17.744  44.944  14.324
39898W        W12966  24.455  34.098   0.746
39899W        W12967  26.497  16.728   1.248
39900W        W12968  11.846  40.463  11.530
39901W        W12969  20.106  38.405  12.029
39902W        W12970  12.655  18.802  11.208
39903W        W12971  34.027  26.016  12.633
39904W        W12972  27.704  10.975   4.189
39905W        W12973  20.470   5.350  12.206
39906W        W12974  28.495  26.751  13.353
39907W        W12975   4.337   2.045   3.167
39908W        W12976   6.978  36.770  11.652
39909W        W12977  43.907  24.187   4.200
39910W        W12978   9.204  15.115  14.647
39911W        W12979   7.117  29.361   3.859
39912W        W12980   1.378   6.133   3.339
39913W        W12981  39.779  44.717   2.357
39914W        W12982  14.057  14.174  14.484
39915W        W12983  43.859   1.743  13.570
39916W        W12984  29.078  13.509   0.824
39917W        W12985  39.017   5.287   0.357
39918W        W12986  17.252  10.330  11.582
39919W        W12987   3.283   8.810  14.816
39920W        W12988  10.783  43.868  14.224
39921W        W12989  28.687  30.034   4.166
39922W        W12990  24.698  37.886   1.753
39923W        W12991  19.291  17.603  12.475
39924W        W12992  17.928   2.148   4.312
39925W        W12993  34.991  11.769  12.617
39926W        W12994  11.973  18.278   3.066
39927W        W12995   6.488  28.234  11.964
39928W        W12996  10.362  12.546  12.081
39929W        W12997  13.364   3.348  14.817
39930W        W12998  17.721  19.940   2.799
39931W        W12999  31.178  37.410  10.767
39932W        W13000  39.572  21.208   0.460
39933W        W13001  37.124  27.917   2.259
39934W        W13002  31.974  29.062  14.328
39935W        W13003  13.131   4.338  12.987
39936W        W13004  15.806  39.017  13.987
39937W        W13005  43.295  30.856   4.948
39938W        W13006  26.412  19.142  11.393
39939W        W13007  39.740   4.493  14.368
39940W        W13008  36.315  39.302   0.263
39941W        W13009  38.320  25.681   3.900
39942W        W13010   6.937  18.533   2.931
39943W        W13011  20.329   8.508   5.058
39944W        W13012  28.491  24.373  12.468
39945W        W13013  38.447  19.290  14.877
39946W        W13014   7.794  41.515   3.745
39947W        W13015  43.920  19.776   0.506
39948W        W13016  41.147  36.362  10.555
39949W        W13017  26.724  25.651  12.044
39950W        W13018  31.091   9.693  11.946
39951W        W13019  17.069   7.710   4.499
39952W        W13020  35.217  19.573   2.551
39953W        W13021  25.108  19.932   4.181
39954W        W13022  27.634  29.732   2.331
39955W        W13023  26.022  30.162   3.706
39956W        W13024   8.977  40.528   0.703
39957W        W13025  39.452  23.646   3.170
39958W        W13026   9.330  43.108   2.872
39959W        W13027   4.281  37.551   0.892
39960W        W13028  19.463   5.871   3.361
39961W        W13029  44.783  18.143  13.006
39962W        W13030  19.041  12.293  10.465
39963W        W13031  41.813  14.785  11.732
39964W        W13032  18.633  21.777   3.631
39965W        W13033  26.268   6.361  13.576
39966W        W13034  21.735   3.194   4.666
39967W        W13035  40.275   5.799  13.411
39968W        W13036  42.964  31.817   2.224
39969W        W13037  43.494  42.929   3.164
39970W        W13038  23.510   7.415  14.291
39971W        W13039   2.387   1.279  12.384
39972W        W13040  23.350  35.604  14.540
39973W        W13041  18.689   6.524  13.967
39974W        W13042  13.055   6.718  10.421
39975W        W13043  27.210  41.884   3.244
39976W        W13044  29.097  39.835  11.840
39977W        W13045   1.877  32.371   2.277
39978W        W13046  19.463  35.502  12.058
39979W        W13047   3.159   5.370  14.033
39980W        W13048   8.380  19.757  13.569
39981W        W13049  39.857   0.334  10.792
39982W        W13050  26.520  14.165  10.747
39983W        W13051  32.556   0.301   1.178
39984W        W13052  14.917  18.960  13.924
39985W        W13053  24.684  14.332  13.373
39986W        W13054  37.759   9.922   4.097
39987W        W13055  36.478  43.187   0.315
39988W        W13056   4.293  29.480  11.303
39989W        W13057  39.570  36.359   1.410
39990W        W13058   2.198   4.880   0.537
39991W        W13059  34.001  23.209   3.563
39992W        W13060  43.968  40.043  11.574
39993W        W13061  21.287   2.216   0.949
39994W        W13062  43.349  27.598   3.225
39995W        W13063  19.714  25.446  12.912
39996W        W13064  34.073   3.951  11.878
39997W        W13065   3.801  27.729  12.566
39998W        W13066   0.331  43.230  14.261
39999W        W13067  39.925  16.154  14.500
40000W        W13068  10.169   5.841  11.373
40001W        W13069  35.465  43.196   0.945
40002W        W13070  12.902   9.400   4.201
40003W        W13071  34.400  33.557   1.971
40004W        W13072   4.209  11.262   4.212
40005W        W13073  31.414  23.637   1.277
40006W        W13074   7.784  21.779  12.910
40007W        W13075  44.438  30.055   4.811
40008W        W13076  44.783  18.669  12.830
40009W        W13077   9.256  29.588   3.651
40010W        W13078  15.520   0.394  13.845
40011W        W13079  20.633  25.967   3.798
40012W        W13080  20.132  10.693  10.998
40013W        W13081   5.351  34.429  14.452
40014W        W13082   5.079  21.493   0.984
40015W        W13083  20.980  12.319  10.856
40016W        W13084   9.285   4.766  14.058
40017W        W13085  11.778  13.768  14.030
40018W        W13086   9.386  38.819  14.342
40019W        W13087   3.978  12.313  11.743
40020W        W13088   5.908  20.618   1.392
40021W        W13089  30.514  12.668  13.748
40022W        W13090  28.034  29.041   3.541
40023W        W13091   9.188  44.397   3.494
40024W        W13092  17.358  38.857  11.125
40025W        W13093  29.421  21.499   1.830
40026W        W13094  28.457   2.829  13.321
40027W        W13095  12.118  42.550   2.712
40028W        W13096  17.652  18.487  14.404
40029W        W13097  39.605   4.396   4.576
40030W        W13098  38.235   0.895  13.116
40031W        W13099  15.574   1.326  14.349
40032W        W13100  16.163  33.401   1.386
40033W        W13101  38.834  10.722   4.524
40034W        W13102  35.798  16.295  13.879
40035W        W13103  33.652   7.128  14.904
40036W        W13104  38.832  33.175  11.323
40037W        W13105  28.971   2.680   1.449
40038W        W13106   3.182  21.969   3.312
40039W        W13107  25.704  17.807   2.622
40040W        W13108   0.239  32.585   3.245
40041W        W13109  18.104  19.031   0.647
40042W        W13110  13.211  23.519  14.475
40043W        W13111  12.779  30.726   4.234
40044W        W13112   8.742   2.473   4.372
40045W        W13113   3.802  28.913  12.841
40046W        W13114  23.968  22.179   2.235
40047W        W13115  36.092  14.282   0.818
40048W        W13116  16.311  30.727  14.516
40049W        W13117  15.359  23.019   4.189
40050W        W13118  32.585  20.935   1.316
40051W        W13119  27.439  16.091  11.100
40052W        W13120  44.285  24.046   2.897
40053W        W13121  10.288  42.858   3.833
40054W        W13122  44.391  40.238   2.677
40055W        W13123  30.452  35.909  12.738
40056W        W13124   0.752  26.488  11.899
40057W        W13125  39.006   6.331  14.281
40058W        W13126  26.533  17.851  11.077
40059W        W13127  14.856  22.572  13.522
40060W        W13128  36.936  38.566   0.227
40061W        W13129   2.007   3.956  12.524
40062W        W13130  26.404  30.569  10.655
40063W        W13131  36.192  29.717   3.604
40064W        W13132   9.275  12.073   4.039
40065W        W13133  21.044  30.155  11.004
40066W        W13134   1.285  16.092  11.520
40067W        W13135  14.728   6.729   4.557
40068W        W13136  32.355  10.902  13.470
40069W        W13137  42.349  23.011  11.042
40070W        W13138  29.060  13.619  14.823
40071W        W13139  16.381  33.497  12.540
40072W        W13140  23.865  36.480   1.824
40073W        W13141  33.145  21.684   0.425
40074W        W13142  30.912  32.825  11.207
40075W        W13143  15.409  42.739   2.614
40076W        W13144  43.992   2.910   4.849
40077W        W13145  31.515  15.864   0.303
40078W        W13146  42.267   1.939  10.923
40079W        W13147  37.254  34.882  14.828
40080W        W13148  30.513   6.300  12.017
40081W        W13149  42.886   7.223   2.926
40082W        W13150  22.228   8.961  14.878
40083W        W13151  37.645  33.450   2.149
40084W        W13152  39.053  31.414  11.648
40085W        W13153  20.274  25.226   4.593
40086W        W13154  14.197   2.952   2.410
40087W        W13155  34.990  25.516   0.732
40088W        W13156   2.749  11.198  12.852
40089W        W13157   4.371  30.431   4.801
40090W        W13158  16.727  30.556   2.975
40091W        W13159  38.966   1.394  12.811
40092W        W13160  38.815  10.814  12.330
40093W        W13161  25.077  27.198   3.157
40094W        W13162   9.441  21.311  14.906
40095W        W13163  29.684  43.990   0.091
40096W        W13164   0.294   4.315  11.109
40097W        W13165   6.885  29.381   4.929
40098W        W13166   7.705  17.656  10.996
40099W        W13167   2.459  22.972  11.608
40100W        W13168  19.683  18.115  11.510
40101W        W13169  36.068  15.406   0.274
40102W        W13170  20.734  22.105   4.111
40103W        W13171  22.254   4.322   3.589
40104W        W13172  13.257  33.719  13.074
40105W        W13173   2.276   7.387   0.127
40106W        W13174   0.357  26.120   0.457
40107W        W13175  29.131  10.242  10.522
40108W        W13176  18.627   4.226   1.768
40109W        W13177   1.039  37.853  12.467
40110W        W13178   0.072  18.282   0.996
40111W        W13179  15.141  11.823  14.423
40112W        W13180  24.768  43.420   0.411
40113W        W13181  42.563  14.694  13.567
40114W        W13182  37.938  18.339   0.152
40115W        W13183  19.542  30.942   1.921
40116W        W13184  28.061  25.485  11.858
40117W        W13185   6.793  27.972  14.283
40118W        W13186   6.749  44.785  10.675
40119W        W13187  29.510  34.950  11.110
40120W        W13188  13.222  18.239   9.977
40121W        W13189   4.691  36.565  14.220
40122W        W13190  31.832  19.631   2.325
40123W        W13191  27.003  20.090  13.813
40124W        W13192  27.049  39.041   3.153
40125W        W13193  31.428   2.279  10.928
40126W        W13194  12.614  43.099  11.098
40127W        W13195  44.065  33.677   2.335
40128W        W13196  26.677  19.509  11.624
40129W        W13197   2.606  40.802  14.375
40130W        W13198  39.501   7.301   1.511
40131W        W13199  28.483  19.065  14.298
40132W        W13200  20.063  15.011   1.697
40133W        W13201  17.423  31.918   0.418
40134W        W13202  26.752  40.118  12.007
40135W        W13203  35.373  41.460   2.687
40136W        W13204  37.093  41.947  14.687
40137W        W13205  38.738   1.216  11.111
40138W        W13206  43.400  29.378   4.159
40139W        W13207  30.893  15.635  12.948
40140W        W13208  31.635   4.306  14.350
40141W        W13209  38.447  24.721   3.552
40142W        W13210   8.748  10.705   2.802
40143W        W13211  12.163   1.387  14.071
40144W        W13212  29.465  17.553  13.829
40145W        W13213  41.939  17.741  14.772
40146W        W13214  33.438  30.030  10.963
40147W        W13215  17.524  17.350   0.942
40148W        W13216   7.926  37.397   4.348
40149W        W13217   4.104   2.950  10.795
40150W        W13218   8.355  12.030   4.188
40151W        W13219  32.425   2.842  13.789
40152W        W13220  29.558   7.652   1.581
40153W        W13221   6.415  44.517   0.524
40154W        W13222  32.668  43.007   3.301
40155W        W13223  15.384   3.287   4.262
40156W        W13224   4.472  26.543  12.123
40157W        W13225  16.016   0.725  14.656
40158W        W13226  35.550  19.498  11.667
40159W        W13227  17.739  23.460   4.448
40160W        W13228  29.503  23.193   0.642
40161W        W13229  21.420  28.469   1.275
40162W        W13230  28.105  39.272   4.251
40163W        W13231   0.884  17.235  14.374
40164W        W13232  34.535  16.352  13.013
40165W        W13233  32.452  22.529  14.415
40166W        W13234  39.296   9.357  10.238
40167W        W13235  23.991   7.671  10.675
40168W        W13236  21.509  26.679   0.317
40169W        W13237  16.555  18.665  11.412
40170W        W13238   2.208  33.034  14.099
40171W        W13239   1.866  34.785   0.548
40172W        W13240  22.442  15.122  13.205
40173W        W13241   3.304  24.236  12.656
40174W        W13242  13.177  43.973   4.509
40175W        W13243  38.470  42.582   3.171
40176W        W13244  20.241   9.637  13.117
40177W        W13245  25.442  30.919  12.083
40178W        W13246  42.065  39.067   3.216
40179W        W13247  37.924  44.036   3.285
40180W        W13248   8.923  41.939   0.318
40181W        W13249  44.982  27.006   0.602
40182W        W13250   6.236  30.505   0.520
40183W        W13251   5.009  35.682   2.732
40184W        W13252  17.109  17.149  12.490
40185W        W13253  38.035  18.987  14.931
40186W        W13254   5.772  25.265  11.497
40187W        W13255   5.227  17.961  14.942
40188W        W13256   0.444  38.409   0.304
40189W        W13257  35.028  36.393   1.647
40190W        W13258  44.273  44.781   3.743
40191W        W13259  20.976  24.158   2.088
40192W        W13260  23.988  27.538   0.793
40193W        W13261  22.550  42.215   0.936
40194W        W13262   4.795  20.122   4.808
40195W        W13263   8.618  30.545  14.414
40196W        W13264  22.973  17.720   1.017
40197W        W13265  37.985  16.549  13.388
40198W        W13266  41.899  42.198  13.355
40199W        W13267  39.010  12.580  14.522
40200W        W13268   9.744  15.671   3.841
40201W        W13269  37.170   4.889  11.313
40202W        W13270   7.373   9.229   2.707
40203W        W13271  19.494  31.029   0.356
40204W        W13272  15.797  18.250   3.665
40205W        W13273  25.029  22.782   3.240
40206W        W13274  22.733  36.818   3.603
40207W        W13275  26.563  21.019   0.080
40208W        W13276  10.218  20.318  12.869
40209W        W13277  25.560  28.869   1.478
40210W        W13278  15.367  33.398  11.451
40211W        W13279  21.681  20.376  12.524
40212W        W13280   6.950  21.500  10.739
40213W        W13281  36.437  34.137  10.039
40214W        W13282  35.059  24.676  14.881
40215W        W13283  21.715   4.047   0.917
40216W        W13284  15.699  22.186   3.102
40217W        W13285  25.995   1.707   2.418
40218W        W13286  20.266  29.713  11.076
40219W        W13287  42.391  39.470   3.613
40220W        W13288  31.045  41.519   0.550
40221W        W13289   4.807  32.620   4.680
40222W        W13290  27.207  10.571  12.962
40223W        W13291  36.365  13.915  11.495
40224W        W13292  15.469   2.490  11.092
40225W        W13293  29.215  29.477  12.060
40226W        W13294  18.588  34.152  14.345
40227W        W13295  23.683  43.238   3.171
40228W        W13296  27.506  44.186   1.149
40229W        W13297   2.286  43.775  11.195
40230W        W13298  19.501  21.119  14.421
40231W        W13299  10.020  31.629   1.078
40232W        W13300   3.915  23.017   2.188
40233W        W13301   5.831  24.548  13.037
40234W        W13302   5.344  35.421  10.775
40235W        W13303   9.498  16.163   3.812
40236W        W13304  11.647  14.186   4.111
40237W        W13305  28.673  24.192  10.762
40238W        W13306   6.734  25.515  13.024
40239W        W13307  30.746  15.736   0.191
40240W        W13308  14.800  44.872  14.982
40241W        W13309  22.975  30.234  12.027
40242W        W13310  33.953  41.961   0.206
40243W        W13311   3.725   7.191   3.650
40244W        W13312  24.412  29.889  12.067
40245W        W13313  21.792  35.580   1.421
40246W        W13314   4.951  43.823  12.638
40247W        W13315  24.527  15.446  11.601
40248W        W13316  13.303  40.358   0.690
40249W        W13317  34.734  22.041  11.310
40250W        W13318  11.579  44.446  11.000
40251W        W13319  27.661   4.960   3.791
40252W        W13320  35.823  15.648  13.001
40253W        W13321  20.591  15.282   3.244
40254W        W13322   9.344  22.691  11.908
40255W        W13323  35.580  15.481  12.524
40256W        W13324  34.093  25.521   4.805
40257W        W13325  39.849  42.933  13.983
40258W        W13326  44.323  29.635   4.543
40259W        W13327  41.027  10.304  10.289
40260W        W13328  44.847  23.710  14.314
40261W        W13329   9.899  27.092  12.370
40262W        W13330  30.026  40.490   2.473
40263W        W13331  26.227  36.492   3.155
40264W        W13332  35.056  19.560  14.251
40265W        W13333   2.052  28.754   0.809
40266W        W13334  39.987   8.933  12.554
40267W        W13335  33.897  29.837  13.389
40268W        W13336  38.393  18.240   3.932
40269W        W13337  18.534  25.350  10.603
40270W        W13338  38.917  42.812  11.633
40271W        W13339  13.387   4.615  12.512
40272W        W13340  16.536  22.894  11.993
40273W        W13341   3.713   1.705  12.070
40274W        W13342  11.165  20.494  12.817
40275W        W13343  35.631  21.655  11.071
40276W        W13344  34.038   9.473   2.304
40277W        W13345   6.636   1.418   3.401
40278W        W13346  42.994  20.489  10.732
40279W        W13347  21.776  31.548   3.935
40280W        W13348  41.344  27.120   0.367
40281W        W13349  39.374  12.762  13.892
40282W        W13350  36.887  15.538  13.956
40283W        W13351  29.679  24.719   2.276
40284W        W13352  38.061  27.203  14.202
40285W        W13353  42.229  19.104   2.397
40286W        W13354  27.190  13.370   1.336
40287W        W13355  39.367  10.856  13.001
40288W        W13356   1.690  24.793   2.668
40289W        W13357  35.019  18.802  12.408
40290W        W13358  41.559  36.256  12.012
40291W        W13359   9.247  39.899  12.950
40292W        W13360   7.303  27.672   1.728
40293W        W13361   5.648   3.039  14.676
40294W        W13362  37.499  13.647   4.679
40295W        W13363  17.830  34.642  12.024
40296W        W13364  10.678  37.567  12.908
40297W        W13365  39.978  42.001   4.685
40298W        W13366  15.190  15.465  11.853
40299W        W13367   9.332  18.491   4.677
40300W        W13368  21.790  35.351  11.920
40301W        W13369  12.203  21.155   0.292
40302W        W13370  42.584  23.669  13.634
40303W        W13371  18.997  38.088   1.757
40304W        W13372   0.734   1.071  14.411
40305W        W13373  25.492   8.508  11.143
40306W        W13374  14.770   3.449   2.000
40307W        W13375   2.225  29.074  10.655
40308W        W13376  28.180  14.285   1.297
40309W        W13377  18.281  38.968   0.874
40310W        W13378  32.406  35.787  14.988
40311W        W13379  26.142  37.404   9.968
40312W        W13380  12.993  39.047   4.461
40313W        W13381  22.518  10.721  14.917
40314W        W13382  37.224  40.955  12.099
40315W        W13383  12.852  17.567  11.463
40316W        W13384  26.625   4.122  11.087
40317W        W13385   2.079  42.011   4.131
40318W        W13386   1.469  34.081  14.106
40319W        W13387  19.266   4.765  10.689
40320W        W13388  15.977  27.009  13.473
40321W        W13389  24.255  39.344   4.027
40322W        W13390   4.196   0.569  11.589
40323W        W13391   0.987  11.666  12.945
40324W        W13392   8.323  34.912   1.357
40325W        W13393  22.404  33.628  13.466
40326W        W13394  20.799  36.413  13.901
40327W        W13395  16.509   6.825  14.875
40328W        W13396  43.483   1.461  14.330
40329W        W13397  12.950  34.839  11.579
40330W        W13398  14.751   8.123  13.035
40331W        W13399  25.710  39.731  10.242
40332W        W13400   2.465  14.338   2.787
40333W        W13401  34.634  20.455   1.888
40334W        W13402   2.856  39.745  10.711
40335W        W13403   8.437  17.595  12.024
40336W        W13404  17.135  18.582  12.809
40337W        W13405  32.574   3.491   4.221
40338W        W13406  21.937  18.604  10.257
40339W        W13407  23.184  38.425   1.580
40340W        W13408   4.415   1.918   4.140
40341W        W13409   8.088  14.607   1.745
40342W        W13410  22.036  33.847   0.330
40343W        W13411  26.951  35.497   2.467
40344W        W13412   3.762  24.964  12.516
40345W        W13413  41.426  13.432   9.494
40346W        W13414  22.229  23.270  12.456
40347W        W13415   7.607  27.593   1.323
40348W        W13416  17.491  11.197  11.580
40349W        W13417  27.683  27.066  14.049
40350W        W13418  12.216  12.346  14.347
40351W        W13419  24.858   4.916  12.503
40352W        W13420  27.215  20.950   4.607
40353W        W13421  13.836  21.201  14.863
40354W        W13422   9.360  31.983   5.106
40355W        W13423   4.443  14.874  12.903
40356W        W13424  21.490  31.594  10.709
40357W        W13425  35.357  33.338   4.627
40358W        W13426  12.669  23.938  12.875
40359W        W13427   2.703  43.952  12.443
40360W        W13428   7.775  22.731   3.162
40361W        W13429  26.903  39.559   0.348
40362W        W13430  20.572  43.757  11.124
40363W        W13431  33.925  15.465   0.817
40364W        W13432   9.368  12.351   1.473
40365W        W13433   9.904  39.133  14.426
40366W        W13434  28.565  11.877   2.894
40367W        W13435  40.993  30.392   1.290
40368W        W13436  39.958  24.519  10.946
40369W        W13437  30.400  18.507  13.726
40370W        W13438   0.366  10.363   3.451
40371W        W13439   2.927   7.040  14.876
40372W        W13440   5.958  38.371  11.966
40373W        W13441  27.956  26.700   4.174
40374W        W13442  17.366  44.842   2.796
40375W        W13443  20.776  43.402  14.883
40376W        W13444  13.113  26.909   0.864
40377W        W13445   2.591  38.410   3.510
40378W        W13446  19.429  12.129   0.455
40379W        W13447  25.719   4.489  14.045
40380W        W13448  24.442  30.559   0.222
40381W        W13449  33.981   8.757   0.784
40382W        W13450   3.388   1.534   0.512
40383W        W13451  12.660  43.795  12.394
40384W        W13452  21.525  19.983   0.501
40385W        W13453   7.408  15.841   0.522
40386W        W13454  42.461  43.340   1.760
40387W        W13455  10.783   3.725   4.024
40388W        W13456  36.613  34.135   4.672
40389W        W13457  18.032  25.483   4.601
40390W        W13458  33.847  13.784  10.964
40391W        W13459  17.372  32.948   3.147
40392W        W13460  19.757  34.954  14.007
40393W        W13461  20.738   5.730   3.683
40394W        W13462  19.022  22.178  13.872
40395W        W13463  37.108  12.305  12.102
40396W        W13464  16.568   9.192   2.632
40397W        W13465   2.870  20.573   3.344
40398W        W13466  39.249  42.362  14.745
40399W        W13467  21.108  43.721   5.086
40400W        W13468  18.287  18.125   1.936
40401W        W13469  28.141  28.425   1.748
40402W        W13470  29.147   4.479  11.314
40403W        W13471  22.593  14.287   3.800
40404W        W13472   0.697  19.567  13.356
40405W        W13473  41.794   6.656   0.659
40406W        W13474  40.060  35.913   4.575
40407W        W13475  16.583  24.286  12.463
40408W        W13476  11.206  23.922  12.831
40409W        W13477  24.597  19.815   2.499
40410W        W13478  38.553   9.809  14.901
40411W        W13479  22.584  12.093   4.502
40412W        W13480   5.413   1.219   0.757
40413W        W13481  20.548  16.245   3.198
40414W        W13482  31.461   6.526  13.048
40415W        W13483  37.288  31.012  11.638
40416W        W13484  17.323  23.247  12.980
40417W        W13485  41.434   1.430  13.003
40418W        W13486  41.854   9.727   0.960
40419W        W13487  16.890  26.729  12.226
40420W        W13488  43.807  23.054  12.467
40421W        W13489  38.035  27.959   4.743
40422W        W13490  25.463  10.638   3.809
40423W        W13491  37.963  12.355  14.044
40424W        W13492  36.040  29.535   3.152
40425W        W13493  14.649   1.994  11.181
40426W        W13494  35.364  25.541  13.391
40427W        W13495  41.776  35.378   4.190
40428W        W13496  21.644  29.995   0.242
40429W        W13497  24.460  37.457  14.554
40430W        W13498   3.044  38.316  11.143
40431W        W13499  11.318  24.912   4.712
40432W        W13500  34.952  37.569  12.882
40433W        W13501  21.486   6.692  12.586
40434W        W13502  40.779  26.487  12.837
40435W        W13503  30.135  26.182   4.385
40436W        W13504  22.676  18.831   2.434
40437W        W13505  22.915  38.552   0.263
40438W        W13506   6.431  21.777  12.037
40439W        W13507  35.689  34.618   2.861
40440W        W13508  13.781  20.585   3.255
40441W        W13509  25.567  40.585   2.263
40442W        W13510  34.470  21.275  11.702
40443W        W13511  29.362  21.707  12.887
40444W        W13512  44.539  39.398   2.346
40445W        W13513   1.750  35.959   2.876
40446W        W13514   6.427  29.257  11.995
40447W        W13515  36.772  32.299  11.495
40448W        W13516  27.607   9.163   0.455
40449W        W13517  43.456  33.598  11.627
40450W        W13518   8.641   5.472  14.004
40451W        W13519   1.410  44.462  14.814
40452W        W13520  23.684   1.387   4.112
40453W        W13521  13.624   1.985  14.312
40454W        W13522  23.452  38.735   2.773
40455W        W13523  25.961   4.413   2.430
40456W        W13524   5.931  22.327   2.243
40457W        W13525  43.223  14.326  13.022
40458W        W13526  21.254  21.697  13.684
40459W        W13527   5.009   8.287  11.473
40460W        W13528   3.672  40.230  11.297
40461W        W13529  13.427   1.786  14.755
40462W        W13530  22.961  24.134  14.497
40463W        W13531   5.225  29.912  14.939
40464W        W13532  44.470  19.715  10.575
40465W        W13533  10.440  21.594   4.925
40466W        W13534  44.058  37.458  10.687
40467W        W13535  10.900  20.966  13.953
40468W        W13536   9.888  43.429   3.331
40469W        W13537  15.858  29.932   4.123
40470W        W13538  22.985  27.700  14.815
40471W        W13539  11.794  33.510   0.869
40472W        W13540  34.136  29.836  14.285
40473W        W13541  16.665  28.430  14.115
40474W        W13542  43.446   0.804  13.502
40475W        W13543   9.140  32.318  11.103
40476W        W13544  32.038   9.708  12.859
40477W        W13545   5.352   8.082  11.790
40478W        W13546  43.020   0.578   2.808
40479W        W13547  33.398  40.213  13.440
40480W        W13548  36.491  20.695  13.435
40481W        W13549  30.732   1.252   2.498
40482W        W13550   5.272  34.466   3.022
40483W        W13551  26.107   5.203   1.758
40484W        W13552  26.073   6.351   4.190
40485W        W13553  34.608   0.432  13.512
40486W        W13554  41.068  19.442   1.069
40487W        W13555   2.844  10.566   4.930
40488W        W13556  28.630  10.964  13.988
40489W        W13557  32.187  12.632   0.975
40490W        W13558  32.220   7.655  11.131
40491W        W13559  33.025  19.137  11.897
40492W        W13560  35.401  38.416  10.820
40493W        W13561   8.304   3.998   2.855
40494W        W13562  18.007  40.961   1.152
40495W        W13563  41.451  27.518  12.283
40496W        W13564  30.633   9.246  13.246
40497W        W13565  10.753  44.197  14.626
40498W        W13566  30.951  31.206   3.958
40499W        W13567   6.303  39.582   1.047
40500W        W13568  32.792  13.597  14.226
40501W        W13569  43.181   8.801   0.970
40502W        W13570  16.451  24.059  12.038
40503W        W13571  19.069  25.940   3.724
40504W        W13572  35.072   3.857   4.200
40505W        W13573  24.445   0.531   1.814
40506W        W13574  36.998  37.858  12.343
40507W        W13575  16.751   1.798   1.856
40508W        W13576   8.241  44.431   1.925
40509W        W13577  36.304  37.912  12.478
40510W        W13578  15.676  43.183  11.683
40511W        W13579  27.722  17.477   2.297
40512W        W13580  18.676  32.074  13.888
40513W        W13581   2.312  28.835   2.096
40514W        W13582  35.863  14.004  11.547
40515W        W13583  29.159  16.702  14.064
40516W        W13584   2.287  40.478   0.366
40517W        W13585  18.801  40.431   4.583
40518W        W13586  44.669  21.798  11.016
40519W        W13587  36.038  12.565  11.531
40520W        W13588  39.027  40.778  11.572
40521W        W13589  14.617  21.573  12.253
40522W        W13590  32.201   4.862   0.914
40523W        W13591   7.497   4.291  12.869
40524W        W13592  19.283  31.498   1.680
40525W        W13593   1.865  11.773  14.434
40526W        W13594  27.164  14.255  12.981
40527W        W13595   2.349  24.205  13.950
40528W        W13596  28.508  29.991   4.659
40529W        W13597  25.611  32.152  11.648
40530W        W13598  42.892   4.789  11.908
40531W        W13599   9.808   7.946   3.820
40532W        W13600  40.521  17.489  11.592
40533W        W13601  35.173  44.384  12.945
40534W        W13602  43.965  17.383   2.346
40535W        W13603  23.525  36.611  14.330
40536W        W13604  17.563  38.860   1.912
40537W        W13605  10.417  33.153  14.956
40538W        W13606   0.832  15.506  12.997
40539W        W13607  41.425  37.888   4.592
40540W        W13608   5.807  31.930   1.813
40541W        W13609  24.061  28.446   0.880
40542W        W13610  31.032  19.683  13.919
40543W        W13611  37.244  36.451   4.585
40544W        W13612  26.610   8.854   2.760
40545W        W13613  10.187  21.242   4.600
40546W        W13614  23.963  42.975   1.369
40547W        W13615   3.686  12.283   3.945
40548W        W13616   4.572  11.800  13.872
40549W        W13617  40.908  17.421  14.924
40550W        W13618  29.951  21.128  11.503
40551W        W13619  41.490   1.464   3.720
40552W        W13620  24.959  24.939   2.702
40553W        W13621  18.639  17.165   4.504
40554W        W13622  37.635  41.786  11.538
40555W        W13623  40.927  40.836  10.742
40556W        W13624  10.156  35.598   3.438
40557W        W13625  13.811  41.890  11.169
40558W        W13626  37.983  14.765  14.378
40559W        W13627  23.446  40.487  11.465
40560W        W13628  23.984  29.559   1.033
40561W        W13629   7.394  43.218  14.034
40562W        W13630  29.688  16.580  12.134
40563W        W13631  26.261   4.809  11.996
40564W        W13632  34.044  20.695   3.559
40565W        W13633  20.479  38.490  14.799
40566W        W13634  29.421  42.986  13.033
40567W        W13635  40.320  18.177  12.081
40568W        W13636  29.819  37.985  13.327
40569W        W13637  27.595   1.946  12.589
40570W        W13638  18.579  11.096  12.398
40571W        W13639   3.789  20.678  10.941
40572W        W13640  18.872  43.063  10.008
40573W        W13641  10.819   2.661  11.145
40574W        W13642  22.519  38.438  11.809
40575W        W13643  44.717  38.109  14.976
40576W        W13644  11.356   3.823   2.947
40577W        W13645  25.002  19.674  11.945
40578W        W13646   8.706   3.293  12.081
40579W        W13647  18.653  18.711   1.286
40580W        W13648   1.493   6.147  12.055
40581W        W13649  37.636   8.960   0.490
40582W        W13650   3.310  19.370  14.902
40583W        W13651  28.143  38.814   0.731
40584W        W13652  16.027  20.210  11.898
40585W        W13653  35.716  30.746  11.462
40586W        W13654  19.323  11.124   3.573
40587W        W13655  33.631  20.380   3.459
40588W        W13656  15.571   5.159   0.863
40589W        W13657   1.744   1.291  13.010
40590W        W13658  17.269  25.301  11.102
40591W        W13659  12.585  33.481  12.948
40592W        W13660  42.951   3.642  14.255
40593W        W13661   8.296  12.836   4.625
40594W        W13662  29.985  35.883  13.463
40595W        W13663  27.944   7.108  11.460
40596W        W13664   9.687  37.450   0.938
40597W        W13665  11.117  26.983   4.126
40598W        W13666   6.452   6.091  14.567
40599W        W13667  27.198  32.807  14.406
40600W        W13668  17.243   4.146  12.089
40601W        W13669  36.675  25.975   0.484
40602W        W13670  38.973  11.351  14.042
40603W        W13671   6.203  13.224   2.214
40604W        W13672  18.065  31.385   0.343
40605W        W13673  18.894  18.500  14.761
40606W        W13674  29.175   5.399  14.550
40607W        W13675   5.664  37.612   3.167
40608W        W13676  29.566  24.659   4.495
40609W        W13677   3.974  19.830   1.269
40610W        W13678   0.453  21.770  12.443
40611W        W13679  32.677  21.732  11.052
40612W        W13680  35.495  10.211  11.352
40613W        W13681  21.147   3.489   3.291
40614W        W13682  10.653  36.491   3.373
40615W        W13683  32.492  21.544  10.585
40616W        W13684   6.155  32.592   2.328
40617W        W13685   0.940  29.164  10.638
40618W        W13686   5.154  39.985  12.034
40619W        W13687  27.502  38.346   0.450
40620W        W13688   7.453  41.286   4.653
40621W        W13689  14.697  19.370   1.406
40622W        W13690  27.253  30.900   1.504
40623W        W13691   8.681  22.797  12.541
40624W        W13692   1.517   1.998   1.856
40625W        W13693  20.862  11.693   4.184
40626W        W13694  43.273  21.827  13.269
40627W        W13695  13.898  41.054   1.709
40628W        W13696   7.788  41.132   1.212
40629W        W13697   1.997  23.712  10.600
40630W        W13698   5.165  29.704   0.783
40631W        W13699  27.701  23.252   4.458
40632W        W13700  27.789   0.474  12.387
40633W        W13701  13.757  17.799   0.562
40634W        W13702   5.445  33.639   2.354
40635W        W13703  11.879  41.720   1.213
40636W        W13704  21.102  23.929   3.356
40637W        W13705  39.849  29.992  14.524
40638W        W13706   8.462   1.536   1.370
40639W        W13707  43.198  36.611   0.991
40640W        W13708   2.600   0.260   4.186
40641W        W13709   0.999  11.598  12.085
40642W        W13710   8.372  10.475  11.841
40643W        W13711  28.483   4.421  10.772
40644W        W13712  10.198  18.255   0.484
40645W        W13713  36.700  36.129  10.995
40646W        W13714  10.791  34.113   4.638
40647W        W13715  23.276  17.495  10.212
40648W        W13716  39.625  26.684  14.822
40649W        W13717  37.664  27.181   4.645
40650W        W13718   6.807  33.335   4.900
40651W        W13719  20.573  42.012  12.060
40652W        W13720  19.320  34.509   1.753
40653W        W13721  30.071  27.241   1.789
40654W        W13722  38.882  34.977  12.529
40655W        W13723  40.307  27.941   3.330
40656W        W13724  32.369  16.592   3.284
40657W        W13725  21.866  25.602   3.473
40658W        W13726   6.808  10.031  14.246
40659W        W13727   5.777  24.728   2.362
40660W        W13728  11.590  31.954  11.114
40661W        W13729  35.583  30.060  10.914
40662W        W13730  38.820   5.290   1.897
40663W        W13731  22.709   6.224   3.169
40664W        W13732  34.579  41.406   3.190
40665W        W13733   5.301  24.209  13.034
40666W        W13734  23.702  12.303  10.578
40667W        W13735  43.287  34.820  10.700
40668W        W13736  33.816  26.538   1.257
40669W        W13737  36.551  38.885   2.386
40670W        W13738  10.339  29.922   3.157
40671W        W13739  27.711  37.852  13.366
40672W        W13740  10.256  33.113   3.353
40673W        W13741  28.674  42.559  11.685
40674W        W13742   1.826  25.513  10.710
40675W        W13743  37.350  44.741  11.725
40676W        W13744   8.422  10.825  14.320
40677W        W13745  27.113   0.904   2.429
40678W        W13746   9.671  33.000  13.517
40679W        W13747  20.978  31.540   2.737
40680W        W13748  36.605  43.927   3.370
40681W        W13749  15.557  13.467   0.536
40682W        W13750  23.589   1.427   0.354
40683W        W13751  28.647  12.429  11.701
40684W        W13752  33.942  25.529  13.450
40685W        W13753   4.205  32.937   1.403
40686W        W13754   9.227  26.417  14.108
40687W        W13755  39.944  23.249   3.915
40688W        W13756  32.102  41.441   1.726
40689W        W13757  19.208  33.681  12.990
40690W        W13758   6.376  21.557  12.944
40691W        W13759  39.985  42.037   0.870
40692W        W13760  29.431  19.210  11.124
40693W        W13761  24.242  23.246   1.354
40694W        W13762  37.984  30.701   0.974
40695W        W13763  40.598  19.524   1.281
40696W        W13764   3.476  36.931  13.928
40697W        W13765  34.846   1.430   3.149
40698W        W13766   2.466  23.035   1.881
40699W        W13767  33.219   4.155   4.841
40700W        W13768  41.530   7.966   2.664
40701W        W13769  19.284   7.703   4.570
40702W        W13770  44.358  39.381   0.799
40703W        W13771   4.878  32.942  13.365
40704W        W13772   7.420  31.514   0.802
40705W        W13773  26.532  22.119  11.981
40706W        W13774   4.742   1.719  12.547
40707W        W13775  38.360  27.583   2.710
40708W        W13776  10.323  24.524  12.942
40709W        W13777   8.420  12.636   0.430
40710W        W13778   2.869  29.308  14.676
40711W        W13779  19.485  17.762   2.018
40712W        W13780  40.448  13.094   4.859
40713W        W13781  21.722  31.490   3.375
40714W        W13782  17.098  34.522   4.166
40715W        W13783  44.050   9.049   2.842
40716W        W13784  29.333  40.079  10.598
40717W        W13785  38.268  36.826  13.386
40718W        W13786  34.344  10.653  14.386
40719W        W13787  16.329   6.278   0.275
40720W        W13788  14.843  21.056  10.067
40721W        W13789  25.764   1.250   2.425
40722W        W13790  28.997   8.978  13.559
40723W        W13791  14.163  17.699  14.436
40724W        W13792  23.258  40.596  13.616
40725W        W13793  44.454  13.601   3.689
40726W        W13794   6.105   8.212   3.652
40727W        W13795  21.005   3.901   1.462
40728W        W13796  22.099  43.397   0.557
40729W        W13797  36.941  37.374   2.405
40730W        W13798  40.414  18.769   2.710
40731W        W13799  39.855  34.458   3.648
40732W        W13800  44.457  39.565   3.845
40733W        W13801  31.171  32.381   0.278
40734W        W13802  16.501  44.209   0.328
40735W        W13803  28.077   4.868   2.006
40736W        W13804   1.953   5.258   3.187
40737W        W13805   7.229  38.905   1.242
40738W        W13806  44.862  29.900   3.239
40739W        W13807  40.972  34.331  11.876
40740W        W13808  44.737  27.242  11.125
40741W        W13809  11.299  20.152   0.452
40742W        W13810   2.936  41.614   4.427
40743W        W13811  30.087  14.384   3.801
40744W        W13812  36.039  24.950   1.872
40745W        W13813  22.071   6.715   4.270
40746W        W13814  34.362   5.685   0.816
40747W        W13815  31.251  20.762  12.467
40748W        W13816   5.803  19.560   4.387
40749W        W13817  10.781   2.476   2.375
40750W        W13818  27.414  33.079  14.788
40751W        W13819  37.983   3.144  14.426
40752W        W13820   3.921   7.481   3.243
40753W        W13821  40.447  34.010  13.608
40754W        W13822   8.723  30.880   4.495
40755W        W13823  17.673   0.942  11.482
40756W        W13824   9.108  25.264   4.616
40757W        W13825  10.799  37.993  13.800
40758W        W13826  11.137  32.377   0.248
40759W        W13827  28.054  23.035  11.412
40760W        W13828  39.064  13.344   0.028
40761W        W13829   8.608  30.608  12.508
40762W        W13830  20.538  10.894   1.174
40763W        W13831  43.043   3.361   3.114
40764W        W13832  34.653  21.661   3.108
40765W        W13833   7.937  43.958   0.407
40766W        W13834  32.156   2.210   1.395
40767W        W13835  37.864  38.366  11.302
40768W        W13836  36.168  14.349  11.291
40769W        W13837  15.121  20.098   4.108
40770W        W13838   1.240   9.366   2.372
40771W        W13839  40.501  38.425  13.022
40772W        W13840  26.521  19.629  11.132
40773W        W13841   0.864  35.893  10.522
40774W        W13842   2.221   6.473  11.367
40775W        W13843  42.803  33.612   4.233
40776W        W13844  13.337  23.903  13.397
40777W        W13845  32.616  44.799   4.641
40778W        W13846  39.043  29.663  10.312
40779W        W13847  22.074  35.053   0.208
40780W        W13848  33.056  17.084   4.965
40781W        W13849  20.018  11.851  14.286
40782W        W13850  30.661  24.119  12.379
40783W        W13851  21.720  17.062  10.505
40784W        W13852  29.637   0.459  14.798
40785W        W13853  28.447  20.524  14.178
40786W        W13854  27.392   3.769   4.331
40787W        W13855  22.393  33.763   2.625
40788W        W13856  18.057  15.655  10.503
40789W        W13857  15.601  25.226  10.785
40790W        W13858  21.080  23.214   0.854
40791W        W13859  20.958  32.689  11.572
40792W        W13860  21.754  19.689   0.908
40793W        W13861  24.618  18.713   3.206
40794W        W13862   6.839  27.795   1.906
40795W        W13863   5.407  17.700  10.625
40796W        W13864  10.818  44.346  11.466
40797W        W13865  14.835  25.779   2.267
40798W        W13866  36.747  28.972  14.385
40799W        W13867  35.313  38.943   0.888
40800W        W13868  34.597  36.904  13.494
40801W        W13869  32.088  12.607   2.908
40802W        W13870   4.232   8.896  14.000
40803W        W13871  22.214  43.750   2.382
40804W        W13872  44.750  27.595   1.920
40805W        W13873  20.695  25.164  13.970
40806W        W13874  37.879  39.528  10.535
40807W        W13875  39.136   4.280   0.992
40808W        W13876  35.023  16.138  14.879
40809W        W13877  13.580  27.486  10.782
40810W        W13878  19.215  30.673  13.159
40811W        W13879  41.826  12.897  12.089
40812W        W13880   1.979   1.513   4.173
40813W        W13881  35.370  39.811   2.438
40814W        W13882  33.130   9.412  11.655
40815W        W13883  42.085  15.019  12.983
40816W        W13884  40.862   3.020  11.639
40817W        W13885  41.208  39.969  11.153
40818W        W13886  11.194  22.156   3.672
40819W        W13887  37.383  17.637   4.606
40820W        W13888   4.067   7.839   0.417
40821W        W13889  12.113   5.894   4.192
40822W        W13890  28.975  37.858  12.475
40823W        W13891  38.222  31.027   4.109
40824W        W13892  20.229  11.634   3.019
40825W        W13893  12.725  25.239  11.037
40826W        W13894  26.923  11.733   2.432
40827W        W13895  10.116  44.941   4.089
40828W        W13896  42.003  30.737   1.304
40829W        W13897  25.004  14.402   2.742
40830W        W13898  23.167  21.505   2.058
40831W        W13899  26.096   4.151  10.604
40832W        W13900  36.344  21.482   1.930
40833W        W13901  16.640  14.389   4.156
40834W        W13902  39.485  38.079   4.779
40835W        W13903   9.241  34.758   0.982
40836W        W13904  35.902  15.799  10.996
40837W        W13905  12.729  32.049  12.628
40838W        W13906  39.037   6.639   0.948
40839W        W13907  25.809  18.427  11.142
40840W        W13908  10.062  22.040  12.580
40841W        W13909  29.221  37.420  12.443
40842W        W13910  16.792  28.580  12.474
40843W        W13911  32.028  42.943  10.174
40844W        W13912  15.128  33.529   1.498
40845W        W13913   8.349  15.159   4.711
40846W        W13914  16.824  17.174  13.830
40847W        W13915   5.326  34.517  11.610
40848W        W13916  19.754   6.641   4.104
40849W        W13917  17.780  38.598   4.707
40850W        W13918  16.463  43.893  11.899
40851W        W13919  15.661  41.512  12.915
40852W        W13920  26.430  44.998   1.592
40853W        W13921  26.893  22.100   1.365
40854W        W13922   7.871  25.039  13.361
40855W        W13923   0.072  34.949   0.319
40856W        W13924  15.678  40.984  12.887
40857W        W13925  19.556  44.280   4.413
40858W        W13926  23.546   8.077   1.381
40859W        W13927  40.871  39.568  11.120
40860W        W13928  24.070  18.491   2.315
40861W        W13929  43.830  14.594  11.449
40862W        W13930   0.247  26.976   3.652
40863W        W13931   8.381  41.598  10.255
40864W        W13932  42.896  25.318  11.059
40865W        W13933  12.200  31.891  10.362
40866W        W13934   5.939   7.479  11.900
40867W        W13935  34.256   2.371  12.062
40868W        W13936  38.397  35.928   4.131
40869W        W13937  32.566  29.579   0.857
40870W        W13938  26.298  33.486  12.114
40871W        W13939  24.516  21.627   4.419
40872W        W13940  16.639   9.187  13.058
40873W        W13941  41.073  37.246   3.702
40874W        W13942  26.279  21.949   2.903
40875W        W13943  27.739   3.248   2.744
40876W        W13944  44.800   8.598   0.954
40877W        W13945  44.548  43.542  12.173
40878W        W13946  27.580  44.246  13.805
40879W        W13947  37.048  21.308   0.318
40880W        W13948   9.737   2.730  13.797
40881W        W13949  23.010  19.526  10.640
40882W        W13950   5.280   5.424   1.725
40883W        W13951  40.582  28.546  10.837
40884W        W13952  31.490   8.242  11.090
40885W        W13953  26.672  39.308   3.899
40886W        W13954  10.168  19.155   2.346
40887W        W13955  33.798  24.045   3.749
40888W        W13956  18.359  34.505  12.155
40889W        W13957  21.074  40.599   3.200
40890W        W13958  41.693  32.781   0.768
40891W        W13959  16.280  16.703   0.827
40892W        W13960  20.098   1.654   3.223
40893W        W13961  27.534  22.542  14.311
40894W        W13962  17.821  21.771   1.155
40895W        W13963  31.417   6.890   0.080
40896W        W13964   9.305  29.985  12.097
40897W        W13965  17.351  20.119   0.078
40898W        W13966  19.251   5.398   3.412
40899W        W13967  19.525  21.949   3.575
40900W        W13968  44.897  18.278   0.389
40901W        W13969  42.144   1.495   3.324
40902W        W13970   3.779   0.307  11.379
40903W        W13971   7.862  32.386  11.638
40904W        W13972  16.584  27.489  13.840
40905W        W13973  25.795  34.156  11.194
40906W        W13974  11.104   2.280   1.602
40907W        W13975  37.383  24.701  11.013
40908W        W13976   8.475  31.635  13.421
40909W        W13977  44.401  17.798  12.056
40910W        W13978  40.997  27.678   3.251
40911W        W13979  33.373   6.783   3.211
40912W        W13980   9.665  14.728   1.704
40913W        W13981   2.426   8.681   4.505
40914W        W13982  13.525   6.496  11.126
40915W        W13983  32.117  22.333  13.506
40916W        W13984   7.158   0.763  14.377
40917W        W13985  40.001  35.562   2.731
40918W        W13986  31.076  28.193   0.711
40919W        W13987   7.072  11.867  14.933
40920W        W13988  20.079  38.915  12.096
40921W        W13989  40.722  15.687   1.636
40922W        W13990  29.447   1.790  14.520
40923W        W13991   0.201  22.665   0.666
40924W        W13992  23.878  27.110   0.208
40925W        W13993  11.543  35.946  13.617
40926W        W13994  25.060  29.967  12.445
40927W        W13995  15.404   0.235   2.351
40928W        W13996  40.642   6.021   5.161
40929W        W13997  10.231  41.831  11.691
40930W        W13998  12.340  34.188   2.687
40931W        W13999  27.114   1.177   4.174
40932W        W14000  26.385   2.281   5.144
40933W        W14001   6.394  37.091   3.002
40934W        W14002   3.093   7.493   0.419
40935W        W14003  25.615  28.364   2.906
40936W        W14004  35.704  38.845   3.364
40937W        W14005  44.761  15.582   4.639
40938W        W14006  40.258  15.691  11.443
40939W        W14007  11.303  44.194  11.375
40940W        W14008  27.198  17.141   0.366
40941W        W14009   8.823  13.526  12.039
40942W        W14010  39.527   5.284   2.388
40943W        W14011  30.233  17.250  14.803
40944W        W14012   5.358  19.784   3.808
40945W        W14013   6.897  23.034  12.190
40946W        W14014  17.076   4.760  10.974
40947W        W14015   7.693  14.945   1.686
40948W        W14016  22.242   8.348  13.585
40949W        W14017  18.336  39.485   1.143
40950W        W14018  33.926  14.489   1.770
40951W        W14019  40.771  25.542  10.685
40952W        W14020  16.276  42.751   2.412
40953W        W14021  23.922  26.332   5.254
40954W        W14022   4.202  30.377  14.320
40955W        W14023   5.273  36.951  13.294
40956W        W14024  24.210  35.494  11.962
40957W        W14025  10.017  22.548  12.673
40958W        W14026  30.567  44.122   4.235
40959W        W14027  17.297   2.291   0.702
40960W        W14028  15.594   2.446   0.742
40961W        W14029   0.825   3.805   4.439
40962W        W14030   6.870  33.953  13.354
40963W        W14031  35.448  11.832   3.359
40964W        W14032  28.512  13.540  12.493
40965W        W14033  26.197  21.794   1.728
40966W        W14034  26.761  39.504  14.811
40967W        W14035  34.057  17.303   1.300
40968W        W14036  20.054   1.873  13.818
40969W        W14037  36.064  10.294   2.238
40970W        W14038   6.821   2.041  11.663
40971W        W14039   4.410   6.889  14.413
40972W        W14040  29.063  28.045  13.667
40973W        W14041  37.585   5.680   1.361
40974W        W14042  13.673  11.151  14.016
40975W        W14043  22.203  39.439  12.021
40976W        W14044  39.437   4.288  10.791
40977W        W14045  14.338  10.808  13.445
40978W        W14046  35.061   3.814   1.625
40979W        W14047  12.824  30.077   4.169
40980W        W14048   3.043  25.975   2.827
40981W        W14049  28.918   0.738  12.483
40982W        W14050  36.873   3.444  13.865
40983W        W14051  43.615  29.578  12.518
40984W        W14052   0.705  37.096   4.544
40985W        W14053  29.397  21.150  13.022
40986W        W14054   2.498  27.080  10.865
40987W        W14055  14.894  10.202  13.739
40988W        W14056  34.324   9.226  12.846
40989W        W14057  11.598  32.045   3.701
40990W        W14058  11.311  19.683   9.609
40991W        W14059  40.135   3.195   5.004
40992W        W14060  39.494  27.358   4.287
40993W        W14061  16.133  17.085  12.051
40994W        W14062  17.796   8.381  13.090
40995W        W14063  27.637  11.701   4.933
40996W        W14064  15.493  32.580   2.179
40997W        W14065  43.778  22.433  13.123
40998W        W14066  39.977  44.373   1.408
40999W        W14067  25.498  29.790  14.752
41000W        W14068   6.809   9.686   0.203
41001W        W14069  38.249  30.225   0.754
41002W        W14070   2.384   8.399   1.311
41003W        W14071  13.407  32.682  11.279
41004W        W14072  34.368   4.889  11.416
41005W        W14073  24.739  44.405  12.030
41006W        W14074  37.060  15.497  10.371
41007W        W14075  19.013  27.696   4.643
41008W        W14076  20.415  40.075   4.216
41009W        W14077  29.335   6.216  10.852
41010W        W14078  30.359  22.745  14.422
41011W        W14079  14.248  34.449  11.511
41012W        W14080  29.170  19.620   3.393
41013W        W14081  13.065  26.149  10.835
41014W        W14082   8.850  41.474   4.672
41015W        W14083  20.743   8.367   3.297
41016W        W14084  13.044  22.014  13.465
41017W        W14085   6.925  28.576   1.400
41018W        W14086  30.203  40.951  11.813
41019W        W14087   1.983  36.946   1.786
41020W        W14088  10.297  33.326   3.833
41021W        W14089   3.868  36.061  10.706
41022W        W14090  27.144  30.097   1.954
41023W        W14091   8.174  26.614   1.383
41024W        W14092  27.879  23.478  11.143
41025W        W14093  27.082   6.175   0.957
41026W        W14094  28.644  30.516  13.593
41027W        W14095  26.496  40.479  12.310
41028W        W14096  17.426   8.444  14.799
41029W        W14097  29.252  12.727  13.101
41030W        W14098  15.152  25.240   2.713
41031W        W14099  37.448  36.484  12.085
41032W        W14100  39.687   1.922  10.160
41033W        W14101  38.736  22.985  14.335
41034W        W14102  29.449  28.952   2.455
41035W        W14103  13.612  20.018  13.782
41036W        W14104  12.782  19.568  13.028
41037W        W14105  14.764  34.008  12.501
41038W        W14106  39.350  30.414   4.602
41039W        W14107  24.331  44.520  13.914
41040W        W14108  10.854  32.646   2.737
41041W        W14109  32.424   9.436   3.627
41042W        W14110  33.978  13.017   0.892
41043W        W14111  12.321  40.846   0.866
41044W        W14112  36.048  26.071  14.944
41045W        W14113  22.908  38.881  13.089
41046W        W14114  30.036  31.764  14.911
41047W        W14115   2.506  21.612  11.666
41048W        W14116  14.214  44.170   1.903
41049W        W14117   7.848  12.824  12.715
41050W        W14118  21.819  35.833  12.148
41051W        W14119  11.314   0.909   1.641
41052W        W14120  44.231  11.295  11.679
41053W        W14121  14.870  38.474  12.885
41054W        W14122  41.389   9.000   2.892
41055W        W14123  16.702   8.785  13.886
41056W        W14124  16.795   7.557   3.555
41057W        W14125  27.877  38.003  11.587
41058W        W14126  22.716  29.470   4.556
41059W        W14127  11.156  17.665   3.156
41060W        W14128  21.633  20.503  14.676
41061W        W14129  31.907   1.474   0.850
41062W        W14130  44.450  39.402   2.872
41063W        W14131  30.186  31.092   2.015
41064W        W14132   1.396  25.544   3.718
41065W        W14133  36.809  34.747   0.994
41066W        W14134  20.169  31.418   2.245
41067W        W14135  21.735  13.494  10.979
41068W        W14136  33.053  21.464   1.738
41069W        W14137  41.747  25.686   3.742
41070W        W14138  22.246  13.640  13.493
41071W        W14139  40.919  44.720  13.734
41072W        W14140  19.590  19.571  14.358
41073W        W14141   7.174   5.705   1.763
41074W        W14142  43.842  34.886   2.633
41075W        W14143  24.528  31.431   2.892
41076W        W14144  25.122   3.806   3.687
41077W        W14145  29.196  13.730   2.880
41078W        W14146  28.387  43.371  14.405
41079W        W14147  25.075   2.990   1.083
41080W        W14148  27.501  17.302   1.873
41081W        W14149   8.747  27.602   2.730
41082W        W14150   9.352  30.100   3.493
41083W        W14151  16.100  42.216   4.595
41084W        W14152  25.671  15.030  11.562
41085W        W14153   6.728  31.971   0.225
41086W        W14154  18.513  37.757  12.587
41087W        W14155  23.099   9.145  10.778
41088W        W14156   0.045  27.257  11.538
41089W        W14157   6.227  20.661  13.362
41090W        W14158   4.303  37.819   2.356
41091W        W14159  16.000  24.084  12.840
41092W        W14160   9.626   4.060  11.163
41093W        W14161   4.492  38.028   4.625
41094W        W14162   6.300  17.283  12.351
41095W        W14163  31.644  11.325  13.268
41096W        W14164  20.034  41.292  12.161
41097W        W14165  28.465  44.844   1.780
41098W        W14166  11.098   3.817   1.479
41099W        W14167  31.943  29.611   4.181
41100W        W14168  18.819   3.170  13.427
41101W        W14169  40.318  28.041   0.980
41102W        W14170   7.182  13.103  10.834
41103W        W14171  23.581  43.699  11.568
41104W        W14172   3.471  44.137   5.064
41105W        W14173  16.134  41.535  14.269
41106W        W14174  44.550  14.299   4.178
41107W        W14175   6.649  44.043  12.454
41108W        W14176  40.537  13.293  13.477
41109W        W14177  33.520  12.545  12.566
41110W        W14178  21.563  22.068   4.664
41111W        W14179  23.004  44.390  10.328
41112W        W14180   4.432  39.480  14.913
41113W        W14181  19.163  30.978  10.870
41114W        W14182   8.635  24.699  10.629
41115W        W14183   7.926  39.467   2.373
41116W        W14184   5.240  43.962   4.492
41117W        W14185  26.142  44.341  12.250
41118W        W14186   1.267  37.625   1.165
41119W        W14187   4.497  43.567   1.249
41120W        W14188  35.330  16.738  11.683
41121W        W14189  31.220  39.277   1.261
41122W        W14190  32.258  44.268   0.118
41123W        W14191  41.631  41.324  11.202
41124W        W14192  40.024  30.104   0.029
41125W        W14193  27.267  30.819  14.303
41126W        W14194  22.075  32.917   0.228
41127W        W14195  26.719  19.526  10.625
41128W        W14196  32.497  27.686   0.334
41129W        W14197  10.056  31.289   3.242
41130W        W14198  11.247  44.066  12.031
41131W        W14199  36.064  34.312   2.023
41132W        W14200  36.170  43.057  14.925
41133W        W14201   9.284   0.528  13.483
41134W        W14202  28.883  33.130  11.134
41135W        W14203  29.235   4.901  11.609
41136W        W14204  39.304  25.490   0.779
41137W        W14205   0.908  21.585  12.551
41138W        W14206  33.494  29.133   3.189
41139W        W14207   8.137  31.541   1.582
41140W        W14208  29.602   2.459  10.728
41141W        W14209  10.410  25.227   3.167
41142W        W14210  31.955   3.864   0.876
41143W        W14211  41.396  36.773  14.488
41144W        W14212  27.928  10.217  12.516
41145W        W14213  35.193  11.691   2.913
41146W        W14214  16.030  16.767   3.697
41147W        W14215  39.304  37.000   0.458
41148W        W14216  44.352  31.232  12.063
41149W        W14217   8.846  10.470   3.295
41150W        W14218  27.251  20.052  11.608
41151W        W14219   3.329  41.559  13.410
41152W        W14220  29.954  28.146  13.442
41153W        W14221  12.847   1.354  10.478
41154W        W14222  28.682   6.950   3.264
41155W        W14223  15.976  34.422   1.354
41156W        W14224  35.147  13.767  14.426
41157W        W14225   3.444   1.879   1.667
41158W        W14226  30.951  13.193   2.862
41159W        W14227  36.623  28.201  12.958
41160W        W14228  42.335   8.263  10.888
41161W        W14229  27.047  17.776  12.868
41162W        W14230   3.685  22.986   2.661
41163W        W14231  35.532  39.133  14.896
41164W        W14232  39.350  19.258  12.434
41165W        W14233  14.920  38.278   1.336
41166W        W14234  43.357  34.964  11.578
41167W        W14235  12.271  15.485  12.312
41168W        W14236   9.108  19.245  13.410
41169W        W14237  44.541  38.539  11.961
41170W        W14238  20.167   3.997   1.355
41171W        W14239  38.920  28.322   1.216
41172W        W14240  13.415  41.379   1.297
41173W        W14241  41.783  29.009  14.434
41174W        W14242   7.282  21.478   3.260
41175W        W14243   3.388  27.138  11.467
41176W        W14244   8.785   5.293   2.345
41177W        W14245  33.073  26.850   0.853
41178W        W14246   8.218  16.283  12.312
41179W        W14247  27.691  25.535   2.821
41180W        W14248  23.216  26.704  14.440
41181W        W14249  39.958  14.001  13.791
41182W        W14250   5.333  35.485   3.126
41183W        W14251  41.530  13.315  10.414
41184W        W14252   1.095  31.386   4.175
41185W        W14253   0.013  28.484   2.363
41186W        W14254  27.712  19.534  10.964
41187W        W14255   3.715  33.338   4.605
41188W        W14256  39.570  33.984   4.720
41189W        W14257   1.486  19.638  13.081
41190W        W14258  29.708  19.740  12.250
41191W        W14259  35.361   9.293  14.841
41192W        W14260   5.995  20.617  14.405
41193W        W14261   5.531  14.332  13.489
41194W        W14262  18.651  36.398  14.292
41195W        W14263  17.224  14.531   3.225
41196W        W14264   2.862  42.103   0.232
41197W        W14265  30.080  41.632  12.001
41198W        W14266   0.459   3.876   2.689
41199W        W14267   4.718   1.295   1.491
41200W        W14268  44.808  40.387  14.896
41201W        W14269  41.428  32.755   0.302
41202W        W14270  36.446  19.746   4.108
41203W        W14271  26.094   2.830   0.695
41204W        W14272  37.965  21.613   3.597
41205W        W14273  13.735  39.471   4.733
41206W        W14274  17.973  40.562  13.009
41207W        W14275  32.658  36.837   0.425
41208W        W14276  39.090  16.812  11.532
41209W        W14277  41.296  25.742  11.413
41210W        W14278   9.444  42.528  14.009
41211W        W14279  39.352   9.374   1.171
41212W        W14280   9.821  40.630   2.187
41213W        W14281  42.420  39.153   4.172
41214W        W14282   1.367  22.272   3.093
41215W        W14283  27.996   3.960   3.520
41216W        W14284  32.481   0.251  14.210
41217W        W14285  38.790  29.934   1.390
41218W        W14286  20.010  34.500  13.326
41219W        W14287  21.671   9.640   1.289
41220W        W14288   1.282  42.906   1.825
41221W        W14289  16.754  14.646   3.426
41222W        W14290  18.362   6.276  12.242
41223W        W14291  22.389  17.380   4.059
41224W        W14292  24.948  35.644  12.487
41225W        W14293   8.154  21.183  14.514
41226W        W14294   0.430  35.355   4.054
41227W        W14295  28.205   3.152  12.252
41228W        W14296   1.562  29.729  14.310
41229W        W14297  42.580  38.106  12.931
41230W        W14298  38.567  28.484   3.286
41231W        W14299  17.813  22.900   0.328
41232W        W14300  40.999  43.982   3.611
41233W        W14301  13.701  27.138   2.357
41234W        W14302  43.029  15.743   4.100
41235W        W14303  18.683  16.070   0.994
41236W        W14304  28.874  19.370   2.627
41237W        W14305  41.500   6.238   2.268
41238W        W14306  31.227  33.150   2.900
41239W        W14307  19.130  32.070  13.091
41240W        W14308  41.492   2.130   4.239
41241W        W14309  16.531   8.914   3.829
41242W        W14310  34.886   8.605   0.381
41243W        W14311  21.678  26.997   1.501
41244W        W14312  40.272  23.147   1.705
41245W        W14313   0.330  11.568  10.973
41246W        W14314  30.554  22.066   4.001
41247W        W14315  35.880  15.887  14.343
41248W        W14316   2.865  20.629  10.406
41249W        W14317  24.982  34.122   0.734
41250W        W14318  15.665  16.377  10.103
41251W        W14319  18.435  35.345   0.755
41252W        W14320  42.650  40.011  11.907
41253W        W14321  21.534   6.718   2.756
41254W        W14322  14.198   1.489  13.313
41255W        W14323  38.867   5.795   1.905
41256W        W14324  21.489   5.716   1.263
41257W        W14325  36.459  26.110  12.198
41258W        W14326  22.130  10.388  12.591
41259W        W14327  30.944  21.717  14.011
41260W        W14328  10.051   9.224  11.717
41261W        W14329  10.019   6.098   2.705
41262W        W14330  22.817  23.540  14.089
41263W        W14331  17.686  38.132   3.731
41264W        W14332  24.245  39.495   0.927
41265W        W14333  33.863  39.199   2.343
41266W        W14334  44.839  14.310  14.860
41267W        W14335   9.657  11.071   0.289
41268W        W14336  31.160  40.044   9.967
41269W        W14337  29.136  11.283  12.383
41270W        W14338  36.420   4.158   4.014
41271W        W14339  34.942  17.580   0.844
41272W        W14340  25.457  30.034   4.566
41273W        W14341  28.038  15.705   2.230
41274W        W14342   3.518  21.137  11.005
41275W        W14343  10.815  17.097  10.958
41276W        W14344   8.850  16.299  11.206
41277W        W14345  44.303  33.466  11.328
41278W        W14346  36.797  19.581  14.949
41279W        W14347   7.962  41.669  14.484
41280W        W14348   0.899  44.767  12.668
41281W        W14349  24.204  43.995  12.834
41282W        W14350  24.181  31.537  12.937
41283W        W14351   3.888  11.909   4.568
41284W        W14352   2.833  30.586   4.535
41285W        W14353  21.179  31.167   3.244
41286W        W14354   3.363  40.555  11.882
41287W        W14355   8.263  13.016  14.386
41288W        W14356  39.056  24.217  13.874
41289W        W14357   8.014  34.470  14.365
41290W        W14358  36.517  42.227   4.092
41291W        W14359  24.856  36.603  11.720
41292W        W14360  42.981  36.286  10.276
41293W        W14361  40.831  18.124  12.120
41294W        W14362  34.894  29.045  11.160
41295W        W14363   3.728  36.240  11.993
41296W        W14364  39.634   0.229  12.538
41297W        W14365  11.320  27.665  14.894
41298W        W14366  44.301  14.079  10.749
41299W        W14367  40.965  44.942   4.133
41300W        W14368  37.300  32.177  12.929
41301W        W14369  43.019  10.461  11.917
41302W        W14370  35.425  35.126   1.061
41303W        W14371   0.916  37.096   0.337
41304W        W14372  25.548  23.055  11.106
41305W        W14373  15.833   1.482   4.182
41306W        W14374  43.386  38.369   2.643
41307W        W14375  43.168  29.196  12.090
41308W        W14376  28.617   3.901  14.317
41309W        W14377   4.260  29.042   2.378
41310W        W14378  27.686   8.873   2.771
41311W        W14379   1.859  22.149   2.872
41312W        W14380  36.516   7.996   3.618
41313W        W14381  40.064  39.976  11.492
41314W        W14382  16.214  40.372   0.255
41315W        W14383  21.001  17.325   4.283
41316W        W14384  26.182  35.522  12.922
41317W        W14385  44.076  19.264   4.618
41318W        W14386  43.056  40.570  11.282
41319W        W14387   4.917  40.633   3.210
41320W        W14388  36.977  13.823  12.018
41321W        W14389  39.504  12.763  11.882
41322W        W14390   7.833  33.649   3.974
41323W        W14391   8.404  38.387   2.401
41324W        W14392  34.692  25.063   2.890
41325W        W14393  33.921  17.779  11.027
41326W        W14394  27.412  19.893   0.529
41327W        W14395  13.624  14.168  11.192
41328W        W14396  26.911  30.068   4.578
41329W        W14397   4.254  36.999   2.685
41330W        W14398  15.006  26.931  10.992
41331W        W14399  11.348  15.759   4.116
41332W        W14400   0.500  22.134  11.999
41333W        W14401  36.458  17.818   3.351
41334W        W14402  29.700  28.931  13.507
41335W        W14403  33.653   7.019   1.298
41336W        W14404   9.683  44.359  13.791
41337W        W14405  31.258  44.556   5.085
41338W        W14406   6.199   0.836  12.212
41339W        W14407  21.093   0.042  11.000
41340W        W14408   6.940   7.025   2.766
41341W        W14409  14.240  34.998   1.769
41342W        W14410  27.098  17.318   3.847
41343W        W14411  26.378  38.524   1.338
41344W        W14412  29.132  18.586   4.210
41345W        W14413  27.705  20.322   0.447
41346W        W14414  28.448  25.723  12.585
41347W        W14415  39.001  42.304   2.319
41348W        W14416  22.020  25.164  10.718
41349W        W14417  11.297  16.433   4.996
41350W        W14418  27.588  15.449  11.931
41351W        W14419  41.886   0.748  10.910
41352W        W14420  27.896  35.046  14.271
41353W        W14421  14.622   1.924   3.203
41354W        W14422  39.730  31.068  12.804
41355W        W14423  38.922   6.248   2.142
41356W        W14424  36.442  29.976  11.598
41357W        W14425  32.590  44.982  11.871
41358W        W14426   8.540   9.038  13.019
41359W        W14427  28.976  44.858   4.100
41360W        W14428  18.317  27.995   2.308
41361W        W14429  35.436  37.978  14.895
41362W        W14430  33.346   8.296  14.363
41363W        W14431  15.845  23.644  12.494
41364W        W14432  22.632   6.884  12.094
41365W        W14433   8.290  12.847  11.794
41366W        W14434  17.966  37.503   0.385
41367W        W14435  33.024   0.838   2.958
41368W        W14436  18.084  22.510  10.944
41369W        W14437  41.575   6.868  13.175
41370W        W14438  33.911   9.405   0.017
41371W        W14439  11.851   5.302   1.813
41372W        W14440  28.771  16.797  12.022
41373W        W14441   0.871  34.901   0.852
41374W        W14442   0.259  31.471   4.559
41375W        W14443   2.798  40.784   1.794
41376W        W14444   8.313  42.886  10.647
41377W        W14445  20.139  14.133  14.544
41378W        W14446  13.893  31.077   1.428
41379W        W14447  37.204  36.894   9.939
41380W        W14448  21.716  30.677  12.552
41381W        W14449   6.680   4.913  12.024
41382W        W14450  42.612  14.750  11.128
41383W        W14451   3.274   0.935  13.547
41384W        W14452  18.550  21.267   1.766
41385W        W14453  44.017  13.800  12.623
41386W        W14454  10.647  10.746  12.528
41387W        W14455  15.347   5.435  14.782
41388W        W14456  35.060  15.295   2.194
41389W        W14457  10.199   1.596  14.899
41390W        W14458  31.142  35.615  14.835
41391W        W14459   8.786  29.944   0.358
41392W        W14460  39.236  19.206  11.577
41393W        W14461   5.211  38.986  13.441
41394W        W14462  10.345  35.520   1.463
41395W        W14463  39.307  10.906  11.440
41396W        W14464   7.054  36.006  10.666
41397W        W14465  38.258  12.758   4.427
41398W        W14466  23.031  42.456   4.307
41399W        W14467  20.580   7.595  14.019
41400W        W14468  35.544  23.717  12.962
41401W        W14469  13.922   7.346   2.126
41402W        W14470  11.188  37.399  14.831
41403W        W14471  30.996   2.177  10.664
41404W        W14472  20.650  12.986   3.772
41405W        W14473   7.318  21.507  12.905
41406W        W14474  31.305   7.422  13.045
41407W        W14475  37.996  25.710  10.583
41408W        W14476  22.469  41.581  13.953
41409W        W14477  15.229   4.456  13.878
41410W        W14478   9.718  25.730   0.511
41411W        W14479   7.796  28.948   4.131
41412W        W14480  43.214   2.376   3.384
41413W        W14481  29.601   4.186   4.280
41414W        W14482  31.439  24.004  14.414
41415W        W14483   1.410  38.456  11.630
41416W        W14484  29.625  44.238   2.179
41417W        W14485  29.943  37.006  12.140
41418W        W14486  22.292  12.894   4.152
41419W        W14487  38.130   9.099   2.315
41420W        W14488   2.238   6.919   0.354
41421W        W14489  17.206  39.383   0.482
41422W        W14490  42.323  35.898  13.933
41423W        W14491  26.921   3.917  14.043
41424W        W14492  40.678  36.745   4.719
41425W        W14493  20.039  34.897   2.904
41426W        W14494   3.158   8.009   0.384
41427W        W14495   2.805  18.034   1.253
41428W        W14496  31.544   0.184   4.352
41429W        W14497   3.963  27.454   2.122
41430W        W14498  36.637  11.582  12.366
41431W        W14499  27.635   4.379  11.189
41432W        W14500  36.404  44.548   3.796
41433W        W14501  40.938  15.771   4.024
41434W        W14502   6.209  17.812  13.159
41435W        W14503  34.984   3.713  13.739
41436W        W14504  40.047  15.842  10.044
41437W        W14505  20.306  17.279  11.615
41438W        W14506  25.448  31.918   2.168
41439W        W14507   0.125   5.241   3.725
41440W        W14508   2.361  26.654  12.556
41441W        W14509  31.543   2.624  13.298
41442W        W14510  40.810  31.850   4.030
41443W        W14511  22.224   5.918  13.433
41444W        W14512   1.669  14.801  12.561
41445W        W14513  20.178  31.306   3.196
41446W        W14514  28.565  26.002  11.228
41447W        W14515  14.249  23.949   4.240
41448W        W14516   6.665  22.745   2.400
41449W        W14517   7.202   5.161  12.475
41450W        W14518  19.748  33.601  12.925
41451W        W14519  17.011  11.206  11.768
41452W        W14520   7.392  27.665  10.592
41453W        W14521  38.763  35.453  14.284
41454W        W14522  27.527   7.717   3.979
41455W        W14523  11.725  11.305   4.598
41456W        W14524  26.693  44.557   1.312
41457W        W14525  29.529  35.103  13.511
41458W        W14526   1.210  16.142   3.708
41459W        W14527  25.053  31.952  13.015
41460W        W14528  20.544  20.076  11.082
41461W        W14529  24.068  41.510  11.206
41462W        W14530  24.277  35.539  11.070
41463W        W14531   0.790  33.176   4.031
41464W        W14532  42.538   3.175   3.260
41465W        W14533  19.136  15.276  14.835
41466W        W14534  28.441   2.507   4.190
41467W        W14535  43.014  14.979   1.896
41468W        W14536  15.981  11.638   1.359
41469W        W14537  18.337  16.050   4.751
41470W        W14538  14.705  38.512  10.623
41471W        W14539  26.596  11.903  12.061
41472W        W14540  39.069  32.897  14.019
41473W        W14541  37.045  13.838  12.880
41474W        W14542  36.089  10.911   4.340
41475W        W14543  11.627   6.664  12.022
41476W        W14544  20.518  24.476  11.675
41477W        W14545  44.414  31.091  11.587
41478W        W14546   8.795  18.176   1.081
41479W        W14547   2.704  22.986  14.415
41480W        W14548  39.035  25.816  12.976
41481W        W14549  29.563  21.570   3.396
41482W        W14550  32.107  19.602   0.074
41483W        W14551   5.335  37.015   0.233
41484W        W14552  18.774  33.163   4.102
41485W        W14553   9.246  14.314  12.539
41486W        W14554  18.597  34.560  10.306
41487W        W14555   2.332  38.360  10.592
41488W        W14556  30.301  26.319  12.345
41489W        W14557  36.803  14.106  13.247
41490W        W14558  23.059  36.489   4.592
41491W        W14559  23.787   3.826   1.813
41492W        W14560  21.985  32.181  12.000
41493W        W14561   4.306  18.024  13.948
41494W        W14562  36.111   9.715  12.962
41495W        W14563  29.623  17.553  10.745
41496W        W14564  14.841  11.332  11.504
41497W        W14565  36.885  16.076   2.298
41498W        W14566   3.260  18.959  10.638
41499W        W14567  15.103  23.315   1.569
41500W        W14568  35.547  24.078  14.472
41501W        W14569  36.635  31.492  12.034
41502W        W14570  36.390  22.735  12.215
41503W        W14571  25.085  27.612   3.487
41504W        W14572  33.846  35.902  10.774
41505W        W14573  40.311  25.306  14.934
41506W        W14574  36.847   6.376   4.104
41507W        W14575  13.782  31.468  10.932
41508W        W14576  36.997  25.700  11.622
41509W        W14577   8.750  16.725   1.837
41510W        W14578  19.260  40.353   1.406
41511W        W14579   7.816  31.943   4.669
41512W        W14580   1.234  15.406  10.997
41513W        W14581  14.339  17.270   3.827
41514W        W14582  27.709  37.517  12.416
41515W        W14583   0.005  22.993  11.572
41516W        W14584  16.594  36.602   3.647
41517W        W14585  44.745   5.391   1.495
41518W        W14586   0.852   7.768  10.352
41519W        W14587   1.447   7.927  14.913
41520W        W14588   5.317  17.707  13.130
41521W        W14589  26.913  36.080  12.472
41522W        W14590   6.742  43.704   0.856
41523W        W14591  20.183  27.631   3.136
41524W        W14592  44.666  29.501   4.901
41525W        W14593   9.366  42.569   1.415
41526W        W14594  42.484   0.350  12.090
41527W        W14595  29.120   4.910  13.766
41528W        W14596  15.377  10.822   4.628
41529W        W14597  28.421  34.674  10.740
41530W        W14598   3.202  39.428  13.914
41531W        W14599  43.414   4.267  14.270
41532W        W14600   6.152  21.794   3.931
41533W        W14601   7.145  25.134  14.483
41534W        W14602  21.216   2.106   4.127
41535W        W14603  27.330  27.060   1.863
41536W        W14604  12.414  35.629  13.955
41537W        W14605  21.455  33.008  11.847
41538W        W14606  21.739  34.853  11.960
41539W        W14607  23.093  36.493  13.599
41540W        W14608  16.899  29.546   4.515
41541W        W14609  32.339  12.428   3.855
41542W        W14610  26.696  38.912   0.194
41543W        W14611  19.974  13.922   3.257
41544W        W14612  30.882  30.365  13.867
41545W        W14613  30.110  36.531   0.754
41546W        W14614  40.805  44.335   2.060
41547W        W14615   8.465  25.435  14.667
41548W        W14616  12.519   3.435   3.877
41549W        W14617  25.609  44.307  11.053
41550W        W14618  25.472  20.264   0.947
41551W        W14619  16.825  29.502  12.455
41552W        W14620   9.179  37.886  12.859
41553W        W14621   3.244  12.866  12.187
41554W        W14622  39.418  38.707  14.294
41555W        W14623  40.043   9.226   3.660
41556W        W14624   3.253  37.076   0.320
41557W        W14625   5.149  20.840  14.304
41558W        W14626  17.901   1.234  14.867
41559W        W14627  16.659  19.054  13.874
41560W        W14628   1.018   5.443   2.266
41561W        W14629   9.008  20.087  13.315
41562W        W14630  17.855  32.551  14.813
41563W        W14631  41.440  19.657   1.419
41564W        W14632  41.976  44.690   4.225
41565W        W14633  31.822  16.579   3.777
41566W        W14634  36.208  16.659  14.784
41567W        W14635  40.883  44.146   3.128
41568W        W14636   7.211  11.275   0.534
41569W        W14637   4.453  39.408   2.680
41570W        W14638   4.305  35.382   1.793
41571W        W14639  34.018  43.277   0.237
41572W        W14640   1.510  41.396   1.207
41573W        W14641   0.290  31.004  11.370
41574W        W14642  10.886   1.337  12.434
41575W        W14643  18.805  15.994  11.911
41576W        W14644  23.774  17.670  13.852
41577W        W14645  31.469   3.893   2.814
41578W        W14646  24.116  17.322   0.536
41579W        W14647  26.537  23.925  12.828
41580W        W14648  19.054  31.043  11.377
41581W        W14649  39.506  23.980   2.140
41582W        W14650  12.787  30.601  12.980
41583W        W14651  16.041  26.047   2.703
41584W        W14652  36.969   8.407  10.678
41585W        W14653  18.941  22.518  11.448
41586W        W14654  25.603  27.469   4.691
41587W        W14655   5.174   5.592  13.344
41588W        W14656   0.310  39.845   1.780
41589W        W14657  30.159  35.128   2.672
41590W        W14658  34.481  29.977  11.131
41591W        W14659  37.340   1.734  13.494
41592W        W14660   2.443   4.696   5.031
41593W        W14661  23.279   9.586  13.597
41594W        W14662  31.700   5.240  12.467
41595W        W14663   2.234  22.329   4.185
41596W        W14664  41.874   8.649   3.353
41597W        W14665   9.347   2.976   2.351
41598W        W14666  27.352   2.001  10.581
41599W        W14667   3.928  21.427   4.855
41600W        W14668   7.246  35.798  11.102
41601W        W14669  17.774  41.477   3.243
41602W        W14670   4.189  17.642   0.856
41603W        W14671   5.909  44.610   0.618
41604W        W14672  19.580  32.368  11.095
41605W        W14673  41.703  42.448   0.400
41606W        W14674  37.780  15.204  13.735
41607W        W14675  20.465  17.228   1.396
41608W        W14676  29.825   4.516   2.412
41609W        W14677  11.715  29.193   3.343
41610W        W14678   7.768  25.944  11.827
41611W        W14679  25.677  18.944  11.135
41612W        W14680  24.185  44.544   0.474
41613W        W14681  29.180  35.553  13.604
41614W        W14682  35.129  11.371   0.793
41615W        W14683  35.415  41.827   1.353
41616W        W14684  33.966  30.971   2.915
41617W        W14685  42.938  25.140   2.268
41618W        W14686  30.077  28.998  13.881
41619W        W14687  34.413  20.864  10.781
41620W        W14688  16.661  16.054   4.760
41621W        W14689  15.585  14.051   1.469
41622W        W14690  25.884   7.228   1.412
41623W        W14691  36.096  37.290   1.730
41624W        W14692  44.716  41.094  12.429
41625W        W14693  44.600   4.956  11.231
41626W        W14694  14.879  34.599  12.185
41627W        W14695  17.691  25.120   3.781
41628W        W14696   4.517   7.392  14.372
41629W        W14697  32.009  36.108  10.917
41630W        W14698   3.236   7.382   3.740
41631W        W14699  12.690  37.784   4.190
41632W        W14700  37.089  42.454   3.285
41633W        W14701   9.765  19.003  13.868
41634W        W14702  20.944  18.795  11.276
41635W        W14703  39.065  13.614  12.890
41636W        W14704  18.784   1.345   3.135
41637W        W14705  40.770  43.363   0.243
41638W        W14706  35.535  10.092   4.423
41639W        W14707  10.371  18.301   1.945
41640W        W14708  24.691  29.185   3.459
41641W        W14709  21.709  41.479   2.219
41642W        W14710  43.265  28.103   3.120
41643W        W14711  20.925   5.367   4.544
41644W        W14712  21.491   2.419  14.389
41645W        W14713  28.520  35.818   3.161
41646W        W14714  15.771  19.272   1.830
41647W        W14715  42.035  44.307  12.961
41648W        W14716  22.755  19.809   3.665
41649W        W14717  36.385  12.796  13.512
41650W        W14718  31.038  24.092  11.538
41651W        W14719   1.969  40.112   4.070
41652W        W14720  21.093  11.393   3.276
41653W        W14721   7.962  43.527   2.604
41654W        W14722   9.438  40.343   4.567
41655W        W14723  42.339  36.569   2.415
41656W        W14724  10.374  39.418  10.677
41657W        W14725  28.031  35.513   4.669
41658W        W14726   8.885  34.364  13.897
41659W        W14727  38.132   0.805   1.113
41660W        W14728  13.613   9.185   2.800
41661W        W14729  37.931  32.637   4.680
41662W        W14730   2.050  43.177   4.634
41663W        W14731  43.907   5.968   1.652
41664W        W14732  43.059  11.889   0.067
41665W        W14733  20.161   8.217   1.184
41666W        W14734  40.728   3.351  12.001
41667W        W14735  25.862  20.232   4.271
41668W        W14736  14.398   5.465  11.067
41669W        W14737  28.246  14.110   1.855
41670W        W14738  35.200  30.815  11.432
41671W        W14739  43.941  18.307  14.054
41672W        W14740  16.209  16.087  14.000
41673W        W14741  29.631  20.003   4.604
41674W        W14742  41.986   3.257  14.156
41675W        W14743  20.069  30.604   5.092
41676W        W14744  38.525  38.464  12.434
41677W        W14745  14.263  31.378  10.680
41678W        W14746  31.166  21.525  11.247
41679W        W14747   2.708  32.589   0.200
41680W        W14748  11.309  41.510  12.511
41681W        W14749  29.475   1.781  10.325
41682W        W14750  42.232  34.804  12.973
41683W        W14751  43.900   4.732   3.219
41684W        W14752  11.915  24.128   1.275
41685W        W14753  43.343  42.736   1.126
41686W        W14754  41.518  15.263   1.827
41687W        W14755  11.770  38.903   3.668
41688W        W14756  19.301   6.121  12.270
41689W        W14757  41.556  31.651  12.100
41690W        W14758  43.018  37.022  12.092
41691W        W14759  19.322   7.933  11.063
41692W        W14760  32.115  29.830  12.610
41693W        W14761   2.254  30.571   2.796
41694W        W14762   4.939  34.646   1.263
41695W        W14763  44.903  10.148   4.183
41696W        W14764  40.929  41.969  14.643
41697W        W14765  40.092   9.653  14.865
41698W        W14766  35.377  16.493  12.669
41699W        W14767  39.321  42.467  11.639
41700W        W14768  40.100  17.647  14.292
41701W        W14769  20.812  20.740   0.321
41702W        W14770   2.340  19.969  10.738
41703W        W14771   7.665  34.552  11.033
41704W        W14772  26.463   0.388   2.367
41705W        W14773   7.094  10.216   4.708
41706W        W14774  32.981  27.141  13.432
41707W        W14775   8.328  24.156  11.183
41708W        W14776  41.377  37.533  13.890
41709W        W14777  41.976  11.579  11.224
41710W        W14778   8.178  11.199   1.448
41711W        W14779  18.241   6.379   3.199
41712W        W14780  14.978  26.643   3.684
41713W        W14781   7.897  28.872   2.642
41714W        W14782   6.241  38.834   5.119
41715W        W14783   1.825  31.197   3.225
41716W        W14784  14.844  26.273   3.354
41717W        W14785  35.246   4.340  12.182
41718W        W14786   9.603   1.650  13.545
41719W        W14787  15.020  24.670  12.026
41720W        W14788   9.201  42.300   1.841
41721W        W14789   7.048  40.754  11.063
41722W        W14790  41.533  39.810  14.539
41723W        W14791  38.609   3.559   5.001
41724W        W14792  21.733  15.649  13.289
41725W        W14793  16.135  22.733  13.076
41726W        W14794  18.019  27.926   4.734
41727W        W14795  43.193  17.435   3.693
41728W        W14796  26.986  23.147   2.857
41729W        W14797  30.883   0.281   2.118
41730W        W14798   2.763  24.580   4.212
41731W        W14799   4.397  24.887   1.386
41732W        W14800  26.653  36.352  14.481
41733W        W14801  24.585   3.250   2.461
41734W        W14802  13.655   7.915   4.945
41735W        W14803  14.300  12.819  14.092
41736W        W14804   0.426   4.242   1.165
41737W        W14805   2.297  37.579   4.480
41738W        W14806  16.536   2.652  14.306
41739W        W14807  29.853   5.250   1.868
41740W        W14808  29.970  14.850   3.643
41741W        W14809   2.139  32.500  14.978
41742W        W14810  32.422  11.276   4.268
41743W        W14811  42.948  43.384   0.985
41744W        W14812  23.206  36.539   4.061
41745W        W14813  38.996   2.445  11.563
41746W        W14814  25.564  19.495  11.169
41747W        W14815  17.416  14.264  10.977
41748W        W14816  20.225  32.071   2.958
41749W        W14817  38.808  30.417  11.985
41750W        W14818   2.003  16.117  12.578
41751W        W14819   6.659  43.325  14.539
41752W        W14820  28.655   9.319  12.202
41753W        W14821  40.786   0.452  13.595
41754W        W14822  43.735  17.601   0.223
41755W        W14823  12.688  16.116   2.870
41756W        W14824  11.245  39.802   4.861
41757W        W14825  16.676  40.603   3.239
41758W        W14826  39.089  37.403   1.352
41759W        W14827  43.579  39.714   2.685
41760W        W14828  34.675  37.847   2.320
41761W        W14829  24.963  20.673  11.503
41762W        W14830  19.070  43.220  12.561
41763W        W14831   0.810   0.154   0.454
41764W        W14832  29.077  14.178   0.396
41765W        W14833  35.594  19.331  11.172
41766W        W14834   0.956   9.745   1.297
41767W        W14835   4.768  16.759  12.935
41768W        W14836   1.777  32.340  13.522
41769W        W14837  12.645  28.484   0.359
41770W        W14838  39.156  42.972   9.982
41771W        W14839   3.957  33.153  14.414
41772W        W14840  40.911  30.034  13.395
41773W        W14841  34.198   7.214   3.186
41774W        W14842  31.202   2.217   2.831
41775W        W14843  15.760  24.108  14.102
41776W        W14844  16.665  32.709  11.683
41777W        W14845  44.812  34.453  12.056
41778W        W14846  29.351  18.706  10.594
41779W        W14847  13.683  32.803  13.054
41780W        W14848   2.035  36.746   3.902
41781W        W14849   3.453  32.476  10.876
41782W        W14850   5.188  41.317   0.982
41783W        W14851  40.934  27.484   3.761
41784W        W14852  30.004   5.815  11.459
41785W        W14853  37.436  25.432   3.544
41786W        W14854  15.801  35.467  14.279
41787W        W14855  20.734  12.730   3.311
41788W        W14856  41.999  25.607  14.529
41789W        W14857  22.026  33.275  10.811
41790W        W14858  30.236  25.250  12.407
41791W        W14859  28.494  42.903  11.349
41792W        W14860  15.390   6.433  10.728
41793W        W14861  37.392  15.822   3.946
41794W        W14862   1.692  34.552  10.659
41795W        W14863   8.408  11.090   4.069
41796W        W14864   4.665  37.835   0.433
41797W        W14865  38.908  43.496  14.865
41798W        W14866   5.646  43.103   0.345
41799W        W14867  23.330  37.524  12.004
41800W        W14868  19.819   7.067   2.875
41801W        W14869  12.131  30.072  12.578
41802W        W14870   8.776  34.518  12.450
41803W        W14871  26.221  14.541  10.507
41804W        W14872  22.827  34.847   0.851
41805W        W14873  17.855  40.493   0.953
41806W        W14874   1.098  23.081   1.920
41807W        W14875  15.044  40.860   3.353
41808W        W14876  17.562  28.449  14.199
41809W        W14877  35.235  17.292   2.314
41810W        W14878  30.052  21.344   2.370
41811W        W14879   0.958  24.884   0.353
41812W        W14880   6.120   1.455  11.587
41813W        W14881   2.154  41.574  11.059
41814W        W14882   3.908   8.590   1.231
41815W        W14883  21.379  38.568   1.453
41816W        W14884  34.394  35.600   0.634
41817W        W14885  27.079  13.565  12.233
41818W        W14886  10.387  36.520  12.164
41819W        W14887   3.785  23.937   3.264
41820W        W14888  23.824  37.625  11.760
41821W        W14889  10.485   3.343  10.225
41822W        W14890  19.571  43.303  10.988
41823W        W14891   8.146   0.023   3.062
41824W        W14892  40.936   8.692   2.944
41825W        W14893  19.648  35.854  11.442
41826W        W14894  17.024   5.634  12.085
41827W        W14895  18.750  25.243   2.409
41828W        W14896   2.889   7.303   3.342
41829W        W14897  16.769  23.076  10.707
41830W        W14898  33.608  12.276  12.099
41831W        W14899  37.052  33.355  11.078
41832W        W14900  36.895  42.840  13.600
41833W        W14901  10.321  16.688   1.426
41834W        W14902  23.262  22.687   0.824
41835W        W14903  14.024  39.491  10.966
41836W        W14904  15.263  36.350  10.530
41837W        W14905  37.863  43.044  13.365
41838W        W14906  23.763  27.367  13.866
41839W        W14907  30.996  24.885  10.709
41840W        W14908  29.256  35.174  13.950
41841W        W14909  16.486  38.958  11.395
41842W        W14910  21.610   9.733  13.474
41843W        W14911  21.236  42.495   3.214
41844W        W14912  41.443  27.919   3.306
41845W        W14913  31.497   6.942  11.564
41846W        W14914  27.220  20.831   2.080
41847W        W14915  11.092  24.141   0.815
41848W        W14916  27.594  25.392  11.027
41849W        W14917   6.393  18.150   1.141
41850W        W14918  25.419  39.054   0.631
41851W        W14919   3.308  12.220  14.386
41852W        W14920  33.211  30.973  13.931
41853W        W14921   9.399  29.673   1.231
41854W        W14922  22.800  17.669   4.744
41855W        W14923  38.097  44.593  11.135
41856W        W14924  15.536  14.354  13.349
41857W        W14925  38.111  21.127  11.213
41858W        W14926  29.465  36.872   4.723
41859W        W14927   2.803  25.097  13.784
41860W        W14928  17.232  22.117  11.276
41861W        W14929  26.187   5.015  13.551
41862W        W14930  35.073  38.007   3.218
41863W        W14931  37.938  37.627   0.341
41864W        W14932  12.833  26.552  10.442
41865W        W14933  41.091  35.869  14.396
41866W        W14934  42.813  10.759  11.563
41867W        W14935  35.315   9.088   4.430
41868W        W14936   0.858  42.713   3.190
41869W        W14937  23.345   5.462   0.656
41870W        W14938  20.269  22.733  11.808
41871W        W14939  31.952  43.724   2.213
41872W        W14940   5.311  37.491   0.809
41873W        W14941  24.185  21.700   0.512
41874W        W14942   1.173  44.278   0.512
41875W        W14943  31.962  25.558   3.592
41876W        W14944  40.874  32.345   1.172
41877W        W14945   9.433  23.587  12.370
41878W        W14946  41.295  24.509  11.096
41879W        W14947  14.234  18.013   2.251
41880W        W14948  28.526  13.786   3.261
41881W        W14949  35.128  23.575   4.735
41882W        W14950   0.802  42.350   0.971
41883W        W14951   7.721  17.251  10.635
41884W        W14952  34.792  22.494   4.052
41885W        W14953  39.999   9.645   1.788
41886W        W14954  44.512  20.597  10.766
41887W        W14955  28.907  14.391   5.143
41888W        W14956  18.981  26.079  12.792
41889W        W14957  30.080  44.195   3.955
41890W        W14958  22.549   3.612  10.665
41891W        W14959  22.026  18.510   1.693
41892W        W14960  12.614  11.156  11.882
41893W        W14961  18.305  14.206   3.400
41894W        W14962  38.337   5.752   1.841
41895W        W14963  19.682  19.371  13.348
41896W        W14964  10.239  41.859   3.866
41897W        W14965  37.941  17.857   2.936
41898W        W14966  19.284  29.043   2.754
41899W        W14967  43.038  29.484  13.896
41900W        W14968  10.455  32.667  13.441
41901W        W14969   2.458  37.998   1.787
41902W        W14970  41.517  39.986  10.710
41903W        W14971  31.478  37.301  13.935
41904W        W14972  11.745  36.069   1.820
41905W        W14973   0.977  14.231  11.597
41906W        W14974  11.661  27.943  11.008
41907W        W14975  27.205  14.673  13.493
41908W        W14976  25.132  19.211  13.163
41909W        W14977  26.661  40.975  10.845
41910W        W14978   6.160  11.860   5.152
41911W        W14979  33.101  11.178  14.450
41912W        W14980  22.220  30.568   0.470
41913W        W14981  14.617  43.579  14.885
41914W        W14982  28.104   8.907   3.571
41915W        W14983  12.303   4.001   3.619
41916W        W14984  12.321   2.413  11.173
41917W        W14985  28.290  42.191  13.361
41918W        W14986  13.604  35.323  14.728
41919W        W14987  27.943  44.733   1.844
41920W        W14988  36.001  27.996   4.577
41921W        W14989   0.372  14.712   1.427
41922W        W14990   9.699   5.778   0.451
41923W        W14991   8.351  41.096  12.891
41924W        W14992  36.834  31.507   0.780
41925W        W14993  34.830  44.511  13.893
41926W        W14994  42.425  22.181  11.472
41927W        W14995  23.942  35.342  12.392
41928W        W14996  13.580  25.619  14.180
41929W        W14997   9.398   3.763  10.571
41930W        W14998  11.943  26.987   3.688
41931W        W14999  22.132  14.070  14.385
41932W        W15000  16.221  28.607  13.866
41933W        W15001  37.304  24.190   3.522
41934W        W15002  34.666  13.914   3.260
41935W        W15003  34.345  31.222   3.697
41936W        W15004  40.527  17.703  14.771
41937W        W15005  30.481  26.588   3.256
41938W        W15006   8.207  38.514  11.083
41939W        W15007  42.894  33.944  13.836
41940W        W15008  12.745  29.044   2.859
41941W        W15009  40.496  41.151  11.617
41942W        W15010  10.165  27.148  13.876
41943W        W15011   7.042  10.285   1.359
41944W        W15012  27.301  27.049   4.713
41945W        W15013  34.365  42.722   1.297
41946W        W15014  38.042   1.971   3.519
41947W        W15015  38.670   2.857   4.681
41948W        W15016  29.517  24.491  11.363
41949W        W15017  27.083  16.839   3.658
41950W        W15018  15.584  14.684  13.806
41951W        W15019  29.242  26.970   0.814
41952W        W15020   3.340   9.630   1.779
41953W        W15021  25.233  43.407   1.247
41954W        W15022   5.856   8.710  14.047
41955W        W15023  26.726  37.918   4.720
41956W        W15024  27.227  37.123  12.408
41957W        W15025  36.084  40.043   0.180
41958W        W15026  25.907  30.002  12.081
41959W        W15027  20.300  31.443  11.569
41960W        W15028  39.492   1.241  13.489
41961W        W15029   4.323  41.520  14.572
41962W        W15030  33.160   7.746   0.189
41963W        W15031  29.731  25.209   0.919
41964W        W15032  15.179  17.815  12.161
41965W        W15033   2.702  38.447   4.679
41966W        W15034  25.632  36.162  12.304
41967W        W15035  41.028  13.648  11.154
41968W        W15036  31.562  35.119   4.645
41969W        W15037  20.957  18.748   1.730
41970W        W15038  10.275  25.590   1.216
41971W        W15039  11.966  18.654   1.942
41972W        W15040  25.160   3.663   1.986
41973W        W15041  39.227  37.976  11.414
41974W        W15042  36.131  21.364   0.491
41975W        W15043  33.635  38.762  10.592
41976W        W15044  24.761  15.732   4.304
41977W        W15045  15.726  28.083   4.131
41978W        W15046   9.268  12.123  12.819
41979W        W15047   9.174   9.677   3.475
41980W        W15048  30.423  44.674   1.059
41981W        W15049  23.526  11.732  11.239
41982W        W15050  12.092  40.835  13.324
41983W        W15051  13.771  34.089   1.201
41984W        W15052  44.326   6.737   2.852
41985W        W15053   4.168  42.302  11.665
41986W        W15054  40.751  10.909  10.595
41987W        W15055  19.117  28.578   2.636
41988W        W15056  28.480  17.161   3.155
41989W        W15057   2.178  43.970  14.409
41990W        W15058  22.644  34.523  13.754
41991W        W15059   6.833  12.139   2.720
41992W        W15060  22.483  32.027  12.949
41993W        W15061  13.142  32.006  12.017
41994W        W15062   9.064  11.901  11.474
41995W        W15063   1.617   9.381  14.696
41996W        W15064  27.025  38.498   2.333
41997W        W15065   0.253   0.548   0.468
41998W        W15066  17.272  21.961  11.761
41999W        W15067  23.702   6.668   3.574
42000W        W15068  29.268  20.469   3.388
42001W        W15069  29.591  31.897   3.693
42002W        W15070  35.619  27.530  12.465
42003W        W15071  20.242  14.545   2.651
42004W        W15072   7.236  36.830  13.281
42005W        W15073   9.800  33.963  13.559
42006W        W15074   7.567  11.893  13.077
42007W        W15075  14.801   7.194   4.345
42008W        W15076   1.302   3.459   1.633
42009W        W15077  30.683   2.906   1.399
42010W        W15078  28.112   1.933   1.439
42011W        W15079   8.057  12.676   3.752
42012W        W15080   5.975  16.402   1.400
42013W        W15081   5.587  31.392   1.927
42014W        W15082  13.272  14.112   5.100
42015W        W15083  31.272   0.904   4.958
42016W        W15084  33.571  12.038  12.549
42017W        W15085  44.039   3.760  11.849
42018W        W15086  42.961  20.601   3.245
42019W        W15087   1.411  19.300   3.033
42020W        W15088   1.742  16.207  13.023
42021W        W15089  34.849  43.025  13.546
42022W        W15090   6.136  44.279  12.493
42023W        W15091  37.482  28.429   4.044
42024W        W15092  11.050   0.503  11.117
42025W        W15093  28.891  31.623   0.406
42026W        W15094  31.378   3.451   1.359
42027W        W15095  22.102   1.552   1.942
42028W        W15096  15.797  33.516  14.848
42029W        W15097  12.156  32.625  13.876
42030W        W15098  28.864  34.072   4.329
42031W        W15099  31.057  41.359   3.736
42032W        W15100   2.206  36.872  13.840
42033W        W15101  35.786   3.475   0.338
42034W        W15102  14.590  36.020   3.838
42035W        W15103   0.370  13.618  14.000
42036W        W15104   5.229  15.151  13.824
42037W        W15105   4.278  44.557  11.923
42038W        W15106  43.835  24.802   0.797
42039W        W15107  33.913  37.605  11.641
42040W        W15108   7.047  44.257   3.144
42041W        W15109  31.506   2.186  11.414
42042W        W15110  31.994  40.355   4.991
42043W        W15111  33.148  24.871  12.161
42044W        W15112  17.697  27.502   4.924
42045W        W15113  26.204  18.960   0.710
42046W        W15114  44.966  19.264   1.221
42047W        W15115   5.855  43.101   3.659
42048W        W15116  15.718  39.406   2.142
42049W        W15117  11.643  42.542   3.788
42050W        W15118  42.613   1.709  12.420
42051W        W15119  15.684  14.285   5.030
42052W        W15120   1.220  28.037   3.164
42053W        W15121  36.656   0.710   2.284
42054W        W15122  33.044  22.268   2.758
42055W        W15123   8.730  44.416   1.796
42056W        W15124  23.487  23.785   0.843
42057W        W15125  24.123  37.870   0.342
42058W        W15126  41.805  19.842  14.289
42059W        W15127   4.336  23.130  14.723
42060W        W15128  41.059  44.282   0.229
42061W        W15129  28.607  44.485  10.645
42062W        W15130  14.249  24.205   0.928
42063W        W15131  12.648   5.379  12.403
42064W        W15132   6.215  10.457  11.482
42065W        W15133   3.844  22.221  10.717
42066W        W15134  32.413  40.818   0.354
42067W        W15135  32.612  36.910   1.912
42068W        W15136  10.726  21.415  12.984
42069W        W15137  20.350  37.317  10.840
42070W        W15138  42.290  14.258   4.621
42071W        W15139  37.468  41.736  13.572
42072W        W15140  16.604   1.446   3.115
42073W        W15141  19.191  14.356   4.282
42074W        W15142   4.469   3.998  10.789
42075W        W15143  14.266  32.461   1.416
42076W        W15144  28.357  35.442  11.165
42077W        W15145  30.343  18.448   2.261
42078W        W15146  42.888  13.237   0.492
42079W        W15147  41.399   6.197  14.348
42080W        W15148  20.762   1.500   5.523
42081W        W15149  13.273  23.195  11.872
42082W        W15150  40.548   2.287   3.962
42083W        W15151  43.987  27.487   0.900
42084W        W15152  12.169  27.209   4.100
42085W        W15153  11.534  40.617  11.928
42086W        W15154  13.062   9.696   4.597
42087W        W15155  32.511   8.224   4.650
42088W        W15156  40.533   6.905  11.055
42089W        W15157  35.321  23.773   3.238
42090W        W15158  31.210  40.549  11.651
42091W        W15159   6.632  25.983  14.311
42092W        W15160  41.783   6.267  12.401
42093W        W15161  12.881   1.952   2.740
42094W        W15162  36.166   6.449  11.907
42095W        W15163   5.168  37.474   4.933
42096W        W15164  22.108  15.621   4.507
42097W        W15165  44.711  35.478   1.712
42098W        W15166   1.248  24.073  10.698
42099W        W15167  21.316  30.450  10.653
42100W        W15168  33.859   5.486   3.739
42101W        W15169  10.422  43.240   3.265
42102W        W15170   6.405  10.067   0.938
42103W        W15171  28.555  11.808  10.861
42104W        W15172  28.144   9.955  12.071
42105W        W15173  16.565  44.217   1.711
42106W        W15174  20.212   9.199   2.138
42107W        W15175  16.292  35.586  14.110
42108W        W15176  34.695   7.693  12.048
42109W        W15177  22.966  22.503   2.422
42110W        W15178   4.866   6.058  11.933
42111W        W15179  18.611   7.879   0.186
42112W        W15180  41.949  42.875  12.412
42113W        W15181  25.217   5.900  11.028
42114W        W15182  14.579  44.745   3.785
42115W        W15183   4.263  12.271   4.663
42116W        W15184   3.903  35.917   4.666
42117W        W15185  14.059  26.660  12.514
42118W        W15186   3.469  14.220   2.832
42119W        W15187  34.456  23.963  12.088
42120W        W15188  42.084  34.829  14.523
42121W        W15189  27.931  34.542  14.973
42122W        W15190   2.131   9.121  13.055
42123W        W15191  21.306  18.602   0.442
42124W        W15192  25.255   8.981   0.828
42125W        W15193  10.330  22.504   3.726
42126W        W15194  21.054  22.611  14.294
42127W        W15195  21.515  25.520  11.155
42128W        W15196  23.304   3.924   3.314
42129W        W15197  19.037  29.037  14.380
42130W        W15198  34.408  13.662  14.737
42131W        W15199  32.475  37.881   0.755
42132W        W15200  27.539  32.529   1.071
42133W        W15201  32.091   5.134   4.360
42134W        W15202  27.048  25.904  13.052
42135W        W15203  42.460  17.774  13.865
42136W        W15204  41.645  10.722  14.684
42137W        W15205  35.629  10.860   3.876
42138W        W15206   8.570  15.071  12.629
42139W        W15207  31.650  18.116  14.499
42140W        W15208  25.111  40.446  14.833
42141W        W15209  22.180  26.207   0.921
42142W        W15210  22.242  17.782  14.814
42143W        W15211  42.274  32.631   4.184
42144W        W15212  36.888  36.506   1.279
42145W        W15213  35.546  24.992  14.252
42146W        W15214  12.065   6.771   2.880
42147W        W15215  10.816  42.281  14.011
42148W        W15216  44.141  28.927   1.512
42149W        W15217  12.883  29.534   1.188
42150W        W15218  32.669  41.404  14.929
42151W        W15219  38.552  27.665   1.690
42152W        W15220  43.403  15.146   2.319
42153W        W15221  19.714  29.782  10.306
42154W        W15222  17.614  21.529  12.388
42155W        W15223  22.472  14.985  11.043
42156W        W15224   4.270  32.338  13.918
42157W        W15225   7.598   1.806  10.702
42158W        W15226  14.608   5.889  10.610
42159W        W15227  42.504  38.119  14.970
42160W        W15228  32.735  38.949  12.681
42161W        W15229  25.009  28.086   0.299
42162W        W15230   9.729  10.585  11.537
42163W        W15231   7.774   5.777  12.144
42164W        W15232  38.855  12.297   4.109
42165W        W15233   4.377  23.704   4.213
42166W        W15234   6.010  42.555   0.943
42167W        W15235  31.000  14.066   2.359
42168W        W15236  41.067  19.574   0.050
42169W        W15237   5.785   3.010   1.678
42170W        W15238  36.657  16.600  13.945
42171W        W15239  24.549  10.177   1.005
42172W        W15240  37.331   2.329  12.852
42173W        W15241  39.068  27.779  12.091
42174W        W15242  23.439  20.332  10.755
42175W        W15243  28.633  20.212   1.267
42176W        W15244  12.151   9.936  13.094
42177W        W15245   5.503  38.484   2.248
42178W        W15246  16.471  27.721   2.242
42179W        W15247  36.427  13.564  12.462
42180W        W15248  30.109  23.215   1.876
42181W        W15249  36.667  17.729   0.200
42182W        W15250  44.334  25.810   2.459
42183W        W15251  33.387  10.708  11.796
42184W        W15252  33.749  19.713   5.004
42185W        W15253  15.199  20.034   0.504
42186W        W15254  37.540  18.023  11.592
42187W        W15255  25.898  36.003  10.842
42188W        W15256  35.184  14.083  11.099
42189W        W15257   7.622  13.398  11.538
42190W        W15258   0.982  27.189   0.839
42191W        W15259  32.503  42.980   0.898
42192W        W15260  34.150  31.993   0.444
42193W        W15261  32.606  16.711   0.756
42194W        W15262  22.534  26.716   1.326
42195W        W15263  30.541  32.814   0.813
42196W        W15264  13.656  10.147  10.435
42197W        W15265   8.337   9.207   0.354
42198W        W15266  26.671  33.057   3.900
42199W        W15267  33.061   0.295   0.998
42200W        W15268   5.402  12.875  11.725
42201W        W15269  16.251   4.904  11.582
42202W        W15270  16.477  19.783  10.581
42203W        W15271   9.727   8.322   0.379
42204W        W15272  42.626  22.013   3.357
42205W        W15273  34.945  29.899  13.363
42206W        W15274  13.480   7.856  12.976
42207W        W15275  16.250  32.999  11.735
42208W        W15276  23.367  12.735  14.744
42209W        W15277   0.963   1.337  14.887
42210W        W15278  15.359  17.513  12.547
42211W        W15279  18.587  44.944   2.619
42212W        W15280   9.985  36.918   4.404
42213W        W15281  13.320   3.862   3.834
42214W        W15282   7.839   4.826  13.817
42215W        W15283  42.839  19.831  11.230
42216W        W15284   5.203  36.413  13.334
42217W        W15285  13.115   3.612  12.564
42218W        W15286   8.207  23.048  13.488
42219W        W15287  43.662  10.348   4.583
42220W        W15288  14.679   4.833  14.880
42221W        W15289  17.659   9.121   3.177
42222W        W15290   3.764   4.512  14.065
42223W        W15291  40.264  27.526  11.392
42224W        W15292  21.980   2.227  10.398
42225W        W15293  10.304  38.887  11.760
42226W        W15294  32.034  12.367   4.272
42227W        W15295  21.972   9.353  13.450
42228W        W15296  10.434  17.724  12.029
42229W        W15297  23.706  28.914  14.078
42230W        W15298  43.491   0.977  14.519
42231W        W15299   9.794  41.790  11.119
42232W        W15300  26.096   9.781  10.709
42233W        W15301  13.556  16.021   4.216
42234W        W15302  28.142  21.744   2.741
42235W        W15303  34.529  31.937  12.567
42236W        W15304  33.856  34.579   1.086
42237W        W15305   0.727  28.654  14.983
42238W        W15306  35.169  26.285  11.091
42239W        W15307  13.320  35.536   3.599
42240W        W15308  40.918   6.301  14.535
42241W        W15309  23.598  22.754  12.044
42242W        W15310  33.986  42.195   4.423
42243W        W15311   1.832  44.235   3.105
42244W        W15312  19.252  43.347   3.647
42245W        W15313  37.871   4.544   3.259
42246W        W15314  25.728  39.077   4.306
42247W        W15315  17.779   9.728   2.799
42248W        W15316  32.182   7.697  11.933
42249W        W15317  13.082  40.510   4.608
42250W        W15318  29.983  20.149  14.506
42251W        W15319  17.165  37.195   3.743
42252W        W15320  15.308  32.247   1.697
42253W        W15321  32.524  30.898   4.175
42254W        W15322  41.457   7.336  13.640
42255W        W15323  40.338  28.678   2.339
42256W        W15324  26.181  36.369  11.128
42257W        W15325  11.405  28.564   2.717
42258W        W15326  11.316  40.909   0.346
42259W        W15327  19.757  25.623  11.589
42260W        W15328  40.328  24.013  12.714
42261W        W15329  17.496  17.513  11.122
42262W        W15330  35.624   3.219  12.523
42263W        W15331  44.260  41.459   0.106
42264W        W15332   4.327  20.494   0.838
42265W        W15333  41.964  10.196  11.410
42266W        W15334   0.306  43.241  11.445
42267W        W15335  43.606   7.013   1.814
42268W        W15336   1.123  15.262  14.120
42269W        W15337  37.958   1.832   0.206
42270W        W15338  11.421  37.397   3.611
42271W        W15339  44.337   4.180   1.162
42272W        W15340  43.535  19.734   5.394
42273W        W15341  12.271  24.935   4.388
42274W        W15342  41.081   6.698  10.250
42275W        W15343  42.930  12.856  13.146
42276W        W15344  32.936   8.143  14.883
42277W        W15345  42.625   4.954  13.854
42278W        W15346   0.928  33.511   0.173
42279W        W15347  10.677   3.181  14.082
42280W        W15348  36.511  16.298   0.528
42281W        W15349   5.380  21.279  11.904
42282W        W15350  23.111  18.187   3.593
42283W        W15351  16.861   8.763  13.359
42284W        W15352  43.736  13.708  14.467
42285W        W15353  12.161   8.294   0.492
42286W        W15354  28.602  20.753  11.412
42287W        W15355  28.167   6.784   0.432
42288W        W15356   4.880  29.227   3.777
42289W        W15357  39.103  21.727  14.827
42290W        W15358  33.917  40.948  12.473
42291W        W15359  32.149  39.776  11.189
42292W        W15360   1.886  22.736   4.199
42293W        W15361  27.141  25.059  11.902
42294W        W15362  26.106   5.659   3.231
42295W        W15363   1.291  40.044   0.887
42296W        W15364   2.810   8.369  12.886
42297W        W15365  44.368  19.505  14.136
42298W        W15366  25.073   6.919   4.026
42299W        W15367   0.032  42.313  14.905
42300W        W15368   6.352  27.392  11.637
42301W        W15369  32.666   9.206   0.016
42302W        W15370  31.217   0.391   4.732
42303W        W15371  37.526  38.405   4.746
42304W        W15372   0.480  34.572  14.192
42305W        W15373  36.559  33.342   3.408
42306W        W15374  28.978   6.164   3.685
42307W        W15375  15.725  16.672  11.092
42308W        W15376  15.888  11.925  12.555
42309W        W15377  31.539  21.743   1.811
42310W        W15378   1.467  10.835  12.902
42311W        W15379   2.660   9.734   4.733
42312W        W15380  39.881  25.513   0.257
42313W        W15381  36.180  41.558   3.074
42314W        W15382  23.216  18.020  13.423
42315W        W15383  21.542  27.140   0.517
42316W        W15384  23.727  30.523   2.785
42317W        W15385  27.749   3.712   0.305
42318W        W15386   2.222  35.624  11.519
42319W        W15387  16.476  40.458   1.736
42320W        W15388   4.743  38.006   3.314
42321W        W15389   5.053  44.983   2.775
42322W        W15390  41.955  37.856  11.660
42323W        W15391  32.710  20.015  13.275
42324W        W15392  10.141  24.311  12.314
42325W        W15393   5.002  31.569  13.501
42326W        W15394   3.300   4.917  14.246
42327W        W15395  11.128  32.446  11.211
42328W        W15396  35.357   7.577  14.467
42329W        W15397  18.621  44.505   3.894
42330W        W15398  34.319  23.894  13.011
42331W        W15399  29.150  44.765   2.327
42332W        W15400  40.321  14.682   1.830
42333W        W15401   1.126  35.979  11.008
42334W        W15402   1.195  34.468  10.729
42335W        W15403  43.777  16.167   2.324
42336W        W15404  18.530  19.252  10.672
42337W        W15405  13.236  37.746   4.375
42338W        W15406  29.663  29.575   1.329
42339W        W15407  17.245  22.237  13.573
42340W        W15408  34.106  12.428   4.169
42341W        W15409  25.994  11.112   1.741
42342W        W15410  32.917   4.807   3.290
42343W        W15411  40.244  27.079  11.132
42344W        W15412   0.943  13.249   1.300
42345W        W15413   1.071  42.796  11.710
42346W        W15414   2.694   3.477  14.326
42347W        W15415  31.207  11.548  10.312
42348W        W15416  25.035  17.852  12.502
42349W        W15417  24.758  24.010   1.790
42350W        W15418  44.007  38.553   2.475
42351W        W15419   8.678  44.037   0.862
42352W        W15420  29.406  29.170   4.562
42353W        W15421  30.092  23.584   4.170
42354W        W15422  18.810  42.820  10.481
42355W        W15423  27.154  17.029  13.921
42356W        W15424  17.617  24.842   1.749
42357W        W15425  23.486  19.615   0.499
42358W        W15426  18.767   2.554   4.920
42359W        W15427  15.522   1.689  10.605
42360W        W15428  31.956  42.764   2.322
42361W        W15429  10.063  28.576  12.528
42362W        W15430  32.030  38.066  14.821
42363W        W15431  15.030  26.040   0.695
42364W        W15432  17.822  40.753   4.733
42365W        W15433   5.920   1.376   0.853
42366W        W15434  36.500  18.895  12.567
42367W        W15435   6.880  26.623  11.161
42368W        W15436  19.198   5.736   2.162
42369W        W15437   0.039   0.933   2.010
42370W        W15438  25.517   2.149   3.222
42371W        W15439  15.303  41.161   0.981
42372W        W15440  14.674  29.534   4.594
42373W        W15441  32.951  25.416   3.310
42374W        W15442  33.698  26.611   2.234
42375W        W15443  21.260  25.415  10.728
42376W        W15444   6.391  11.246  13.002
42377W        W15445  20.035  29.511  12.992
42378W        W15446  32.423  20.169  11.611
42379W        W15447   0.398  19.551   1.252
42380W        W15448   2.840  29.503   4.367
42381W        W15449  25.197  13.848   1.847
42382W        W15450  30.443  21.313  14.610
42383W        W15451  44.925   3.737   4.241
42384W        W15452  13.753  11.941   3.101
42385W        W15453  27.495  23.015  14.547
42386W        W15454   2.739  31.972  10.790
42387W        W15455  42.341  20.448  11.964
42388W        W15456  29.174  39.776  14.314
42389W        W15457  42.003  19.737   3.182
42390W        W15458   7.673  28.514  10.747
42391W        W15459  23.433   9.466   1.735
42392W        W15460  35.208   2.906  13.739
42393W        W15461  24.058  24.496   2.813
42394W        W15462  33.344  43.425   2.444
42395W        W15463  29.638  34.401   0.298
42396W        W15464  24.457   2.164  13.592
42397W        W15465  18.069  29.520  13.877
42398W        W15466  18.265   3.686  12.362
42399W        W15467   5.998  19.064   1.020
42400W        W15468  37.423  25.996   3.600
42401W        W15469  38.266   6.393  12.901
42402W        W15470   0.423   8.319   1.752
42403W        W15471  17.280   8.946  11.538
42404W        W15472   7.173  27.021  10.575
42405W        W15473   9.847  21.074   2.198
42406W        W15474  40.825  43.970  10.448
42407W        W15475  17.576  32.494   2.970
42408W        W15476   4.831  20.388   1.826
42409W        W15477  14.162   2.423  12.987
42410W        W15478   4.290   9.326  11.156
42411W        W15479   2.943   8.746   2.711
42412W        W15480  40.341  10.449  14.848
42413W        W15481  29.513   4.868   9.998
42414W        W15482  20.999  27.259  10.450
42415W        W15483  39.423  12.258  10.527
42416W        W15484  35.370   6.755  12.264
42417W        W15485   6.454  27.181   0.874
42418W        W15486  27.257  23.699  12.878
42419W        W15487  42.291  13.154   4.316
42420W        W15488   6.998  16.737   1.796
42421W        W15489   7.417   5.279   4.666
42422W        W15490  33.158   6.908  11.514
42423W        W15491  36.523  28.154   4.563
42424W        W15492   2.207   4.995   1.032
42425W        W15493  28.667  35.540   3.589
42426W        W15494  26.567   4.481   1.336
42427W        W15495  29.690  16.710  11.120
42428W        W15496  30.535  22.439   3.617
42429W        W15497  15.876  28.768   0.311
42430W        W15498  35.941  13.691   1.511
42431W        W15499  15.757  43.875   2.247
42432W        W15500  40.506  15.753  10.997
42433W        W15501  21.613   4.373  12.807
42434W        W15502  13.077  25.630   0.322
42435W        W15503  43.736  22.717   1.883
42436W        W15504  20.649  15.268   0.935
42437W        W15505  17.078  36.586   3.434
42438W        W15506  19.191  42.824   3.605
42439W        W15507  13.089   0.375  12.387
42440W        W15508  37.308   7.623   1.893
42441W        W15509   4.418  25.527  11.205
42442W        W15510  43.229   7.708   4.035
42443W        W15511  11.412  24.019  13.686
42444W        W15512   8.365  16.717  12.079
42445W        W15513  19.231   5.724   2.689
42446W        W15514  32.888   7.770   3.284
42447W        W15515  40.308  34.907  11.660
42448W        W15516  15.138  33.165   4.863
42449W        W15517  23.609   1.997  12.033
42450W        W15518  30.589  39.464   4.699
42451W        W15519   6.977  40.340   4.693
42452W        W15520  24.125  10.562   4.717
42453W        W15521  31.126  40.403   3.757
42454W        W15522   7.635  13.885   1.231
42455W        W15523  31.956  27.553   1.891
42456W        W15524  36.862  36.580   0.775
42457W        W15525   7.686  11.999  12.589
42458W        W15526   8.353   1.354  12.917
42459W        W15527  19.305  22.083  13.420
42460W        W15528   1.291   4.927   2.263
42461W        W15529   5.052  11.737  12.957
42462W        W15530  21.258  15.684   1.148
42463W        W15531  28.325  43.883   4.776
42464W        W15532  40.298  25.566  12.929
42465W        W15533  12.575  30.218   3.227
42466W        W15534   6.563  12.419   0.445
42467W        W15535  36.289  15.306   2.769
42468W        W15536  26.521   0.581   1.088
42469W        W15537  32.885  33.538   3.418
42470W        W15538  33.696  15.876  13.503
42471W        W15539  29.809  27.769   3.711
42472W        W15540   9.751  14.073  12.575
42473W        W15541  16.349   7.012  12.923
42474W        W15542  10.597  30.395   2.602
42475W        W15543  19.815  27.589  11.069
42476W        W15544  36.896  34.155   2.656
42477W        W15545  27.910  30.633   3.200
42478W        W15546   1.208  10.775   1.176
42479W        W15547  29.477  25.597   4.536
42480W        W15548  38.679  13.597   3.588
42481W        W15549  23.106  41.349  10.932
42482W        W15550   5.713   4.155  11.064
42483W        W15551   3.307  35.387  10.442
42484W        W15552  34.641   0.737  14.581
42485W        W15553  18.250  39.904   2.920
42486W        W15554  25.583   0.247  11.654
42487W        W15555  44.478  21.464  12.369
42488W        W15556  22.576  42.295   3.011
42489W        W15557  23.012  25.760  14.391
42490W        W15558   0.407  44.976   3.339
42491W        W15559  24.256  26.183  11.091
42492W        W15560  25.591   1.659  13.472
42493W        W15561  34.867  36.844  13.987
42494W        W15562  11.322  20.851   0.767
42495W        W15563   5.382  36.522   0.030
42496W        W15564   5.443  11.403  11.633
42497W        W15565  43.844  21.499   4.211
42498W        W15566  25.952   0.315   3.070
42499W        W15567  22.973  26.874   4.142
42500W        W15568  36.472  20.228  13.075
42501W        W15569  36.342  18.297  14.374
42502W        W15570   5.274  18.564  13.738
42503W        W15571  10.599  30.585   1.025
42504W        W15572  26.266  21.578  13.046
42505W        W15573   5.930  23.283  10.689
42506W        W15574   8.658  38.768   3.725
42507W        W15575  22.550  35.437   0.482
42508W        W15576  33.844  27.555  11.185
42509W        W15577  15.146  41.922  11.431
42510W        W15578  32.303  14.288   0.719
42511W        W15579  34.419  23.637   2.357
42512W        W15580  19.345  44.857   1.352
42513W        W15581   4.364  14.131  13.796
42514W        W15582  44.228  35.099  10.714
42515W        W15583   5.701   5.893   3.612
42516W        W15584  37.941  37.139   4.056
42517W        W15585  14.767  40.607  14.724
42518W        W15586   1.678  32.941   2.920
42519W        W15587  23.104  42.460   3.785
42520W        W15588   1.858  38.625  11.877
42521W        W15589   1.705  12.106  14.786
42522W        W15590  14.037  18.702  13.897
42523W        W15591  18.232  24.697   4.885
42524W        W15592  10.787  17.101   5.265
42525W        W15593  38.854  33.999   2.438
42526W        W15594  25.096  36.596  10.756
42527W        W15595  37.255  34.877   2.208
42528W        W15596  15.787  32.964  10.504
42529W        W15597  30.398  41.757  12.397
42530W        W15598  14.577   7.154   4.835
42531W        W15599  26.141  10.063  12.884
42532W        W15600   7.571   7.906  12.420
42533W        W15601   5.868   6.285   3.921
42534W        W15602  32.931  39.071   0.002
42535W        W15603  13.704  22.507  11.992
42536W        W15604  23.124  42.940  11.329
42537W        W15605  20.738  39.878  14.254
42538W        W15606  25.104  18.057  11.949
42539W        W15607  30.994  15.159  14.563
42540W        W15608   0.677  19.295  13.947
42541W        W15609  44.689  19.135   0.804
42542W        W15610  36.553  21.391   3.809
42543W        W15611   6.871  36.433   1.469
42544W        W15612  13.813  16.013   3.771
42545W        W15613   7.804  18.658  11.333
42546W        W15614  32.573  42.355   0.300
42547W        W15615  11.876  42.867   0.698
42548W        W15616   6.858  32.500   2.774
42549W        W15617  41.493  39.312  11.981
42550W        W15618  38.021  14.337  10.609
42551W        W15619   4.632  22.709   5.173
42552W        W15620   3.803  38.351   2.140
42553W        W15621  13.295  31.639  14.277
42554W        W15622  25.428  11.666  12.526
42555W        W15623  35.388   6.213   4.109
42556W        W15624  16.429  25.554   3.751
42557W        W15625  28.659  13.844   4.630
42558W        W15626  43.292  42.785   1.651
42559W        W15627   2.543  40.235   1.297
42560W        W15628  17.297  33.065  14.330
42561W        W15629  43.930   3.355  11.050
42562W        W15630  22.002  19.732   3.202
42563W        W15631  18.117  32.046   3.732
42564W        W15632  39.958  27.170   4.528
42565W        W15633  12.110  26.978  12.457
42566W        W15634   0.956   9.664  12.487
42567W        W15635  18.549  13.590   2.449
42568W        W15636  19.807  41.523  13.444
42569W        W15637  15.196  24.777  14.297
42570W        W15638  32.639   4.607   0.829
42571W        W15639  27.328  33.628  12.953
42572W        W15640   2.088  43.420  11.991
42573W        W15641  40.394  26.102   3.219
42574W        W15642  23.113  25.605   1.031
42575W        W15643  35.156  11.092   3.732
42576W        W15644  31.580  15.321  14.744
42577W        W15645  35.881  11.919  14.359
42578W        W15646  35.189  43.847   3.408
42579W        W15647   5.676  23.584   0.199
42580W        W15648  18.830   0.263   0.914
42581W        W15649   6.536  25.747  13.446
42582W        W15650  30.643  33.913   4.090
42583W        W15651  20.833  37.069   3.784
42584W        W15652  40.306  29.093  14.507
42585W        W15653  15.477  14.484  14.300
42586W        W15654  16.295  11.421  14.448
42587W        W15655  12.133  42.312  11.216
42588W        W15656  35.329   5.394   2.768
42589W        W15657  40.882  39.074   1.794
42590W        W15658   3.672  41.028  11.608
42591W        W15659  35.463  16.110  10.730
42592W        W15660  17.434  15.870   0.108
42593W        W15661  20.217  26.645  12.184
42594W        W15662  30.329  32.413   3.447
42595W        W15663  33.927  15.258   1.285
42596W        W15664  11.771   3.237  13.273
42597W        W15665  42.735  35.920   0.701
42598W        W15666  29.492  25.188  14.064
42599W        W15667   6.898  19.069  14.915
42600W        W15668  37.880  17.678   1.268
42601W        W15669   2.492  42.926   4.547
42602W        W15670  22.611  25.274   3.554
42603W        W15671   9.639  34.096   1.885
42604W        W15672  22.392  29.152  14.076
42605W        W15673  23.232  32.475  12.163
42606W        W15674  35.982  11.132  12.811
42607W        W15675  43.790   0.584   1.206
42608W        W15676  14.602  31.392  13.553
42609W        W15677  11.552  24.516   0.406
42610W        W15678  10.886  13.718  14.349
42611W        W15679   0.386  38.323   1.727
42612W        W15680  30.205   1.265  12.482
42613W        W15681  17.052  34.983  11.230
42614W        W15682   7.265  40.437   1.349
42615W        W15683   6.773  29.538  13.612
42616W        W15684   8.397  16.196  11.843
42617W        W15685   9.844  37.613   4.327
42618W        W15686  16.070   3.911   1.185
42619W        W15687  39.403   0.360   1.450
42620W        W15688  10.157  17.606  12.504
42621W        W15689  16.106  44.692  14.822
42622W        W15690  20.237  41.502  14.994
42623W        W15691  23.497  23.136   0.121
42624W        W15692  41.486  39.524   3.225
42625W        W15693   1.211  10.784   1.693
42626W        W15694  41.973   3.873   4.113
42627W        W15695   2.852   6.794   3.074
42628W        W15696   2.209  15.367   4.138
42629W        W15697  16.605  43.753  13.954
42630W        W15698   5.648  37.484   4.154
42631W        W15699  18.609  44.232  11.833
42632W        W15700  20.504   8.294  13.928
42633W        W15701  42.764  33.810  11.423
42634W        W15702   7.223  33.825  10.501
42635W        W15703  27.738  35.273  11.797
42636W        W15704  21.268   3.624   0.957
42637W        W15705  11.373  35.999   2.888
42638W        W15706  11.274  27.225   1.801
42639W        W15707  29.585  12.070   2.275
42640W        W15708   5.233   0.635  13.373
42641W        W15709  39.739  31.403   1.050
42642W        W15710  31.627  17.707  12.859
42643W        W15711  40.371  44.758   0.823
42644W        W15712  26.560  36.057  13.115
42645W        W15713  40.896   6.248   1.412
42646W        W15714  24.662  26.330  13.978
42647W        W15715   8.125  37.332  13.534
42648W        W15716   6.043  23.551   0.551
42649W        W15717  33.605  31.513  10.786
42650W        W15718  14.702  15.133   3.106
42651W        W15719  39.464  26.401   4.707
42652W        W15720  13.189  40.970  11.490
42653W        W15721  23.257  29.677  14.497
42654W        W15722   0.001  41.884   3.766
42655W        W15723  25.638  20.153  12.357
42656W        W15724  14.091   3.019   4.219
42657W        W15725   0.208  43.347  13.578
42658W        W15726  18.392  15.759   1.899
42659W        W15727  38.359  44.533  12.338
42660W        W15728   7.697  14.139  12.440
42661W        W15729  17.584  43.862   4.110
42662W        W15730  11.241  20.352  10.968
42663W        W15731   8.216  22.704   2.449
42664W        W15732  34.084  29.332  14.368
42665W        W15733  15.287  16.059   0.630
42666W        W15734  23.031  32.926  10.731
42667W        W15735  36.478  26.535   2.195
42668W        W15736  12.712   5.154  11.935
42669W        W15737  13.842  28.916  14.808
42670W        W15738  39.585  17.048  10.137
42671W        W15739  25.720  37.800   1.755
42672W        W15740   8.850   2.711   1.694
42673W        W15741  27.059  44.879   2.245
42674W        W15742  38.305  11.857   3.157
42675W        W15743  22.539  27.923   0.808
42676W        W15744  28.585   3.705   2.220
42677W        W15745  30.034  22.641   1.764
42678W        W15746  22.152  28.752   4.603
42679W        W15747  44.320   8.232  14.577
42680W        W15748  38.007   4.887  13.644
42681W        W15749  30.182   9.667   2.242
42682W        W15750  14.215   1.788   2.930
42683W        W15751   3.114  21.226   5.003
42684W        W15752  37.090   7.071   2.289
42685W        W15753   2.958   6.516   1.339
42686W        W15754  25.939  39.895   2.676
42687W        W15755  20.707  41.278  12.955
42688W        W15756  28.368  22.345  10.742
42689W        W15757  41.847  40.311  12.002
42690W        W15758  26.987  20.220   2.818
42691W        W15759   3.418  28.046  12.786
42692W        W15760  41.023  41.696  13.355
42693W        W15761  29.659   2.257  13.324
42694W        W15762  40.920  15.904  12.198
42695W        W15763  27.827  31.747   0.424
42696W        W15764  29.188  10.169  12.916
42697W        W15765   3.614   8.236   3.676
42698W        W15766  22.980  20.818  12.506
42699W        W15767  33.937  14.529  14.429
42700W        W15768  29.149  30.369  11.242
42701W        W15769  43.036  13.226   2.859
42702W        W15770  16.456  34.639  12.022
42703W        W15771  20.633   0.688  10.387
42704W        W15772  34.419  25.073   1.839
42705W        W15773  29.087  42.820  14.641
42706W        W15774  25.688  30.965  13.393
42707W        W15775  31.654  35.912   4.283
42708W        W15776  16.123   5.946  11.641
42709W        W15777  28.065   8.793  14.297
42710W        W15778  23.505   7.273  14.798
42711W        W15779  22.530  35.750   2.722
42712W        W15780  43.855  40.327  13.014
42713W        W15781   5.668  36.269   3.733
42714W        W15782  15.446  11.574   1.449
42715W        W15783  34.504  43.439  10.687
42716W        W15784  11.106  39.926  13.389
42717W        W15785  20.997   6.204   2.360
42718W        W15786  11.731  37.275   4.185
42719W        W15787  12.608   8.159  13.869
42720W        W15788   2.884  11.240  10.563
42721W        W15789   8.854  14.158   1.770
42722W        W15790   7.176  22.052   1.951
42723W        W15791  34.474  24.481  12.182
42724W        W15792  15.100  15.913   5.077
42725W        W15793  43.203   4.666   2.809
42726W        W15794  28.727  38.999  11.105
42727W        W15795  42.121  36.350  10.709
42728W        W15796  36.498  23.631   4.623
42729W        W15797  17.090  43.292   3.670
42730W        W15798   1.139  37.273  13.300
42731W        W15799  10.447  21.641  11.105
42732W        W15800  40.989  44.600   2.903
42733W        W15801  20.241  26.715   4.608
42734W        W15802  13.376  30.650   0.174
42735W        W15803  19.943   5.436   1.294
42736W        W15804  14.390  20.778  14.099
42737W        W15805  27.550  44.399   4.759
42738W        W15806  36.082  31.693  11.594
42739W        W15807  29.352  35.391  11.337
42740W        W15808  23.483  37.686  10.500
42741W        W15809  28.055   6.278   3.103
42742W        W15810  21.017  43.295   3.817
42743W        W15811   1.387   8.258   0.398
42744W        W15812  12.070  32.924   1.065
42745W        W15813   9.504  44.804  14.790
42746W        W15814  12.386  29.515   3.675
42747W        W15815  15.063   6.425  13.274
42748W        W15816  24.629   8.450   2.436
42749W        W15817   9.395  17.537   2.689
42750W        W15818  30.982  24.481  12.561
42751W        W15819  20.319   6.225   0.774
42752W        W15820  14.905  27.650   0.952
42753W        W15821  15.178  36.272   1.361
42754W        W15822   3.289   1.735  14.020
42755W        W15823  44.239  37.494   4.248
42756W        W15824  24.594  37.623   1.292
42757W        W15825  15.684  15.608   4.763
42758W        W15826  31.858  42.027  14.214
42759W        W15827  25.285   7.642  12.343
42760W        W15828  31.907   0.943  14.023
42761W        W15829  18.594   5.920   3.690
42762W        W15830  34.892  13.557   4.972
42763W        W15831   0.955  38.541   0.008
42764W        W15832  12.204   2.315   1.286
42765W        W15833   1.519  33.132   2.160
42766W        W15834  39.028  31.094   0.378
42767W        W15835  23.993  28.584   3.821
42768W        W15836  28.429  17.282   1.779
42769W        W15837   9.832  27.120  10.844
42770W        W15838  10.263   3.391  12.873
42771W        W15839  30.973   7.372   3.369
42772W        W15840  42.490   5.283  13.006
42773W        W15841  31.365  23.131   1.368
42774W        W15842  16.047  11.251  13.758
42775W        W15843  28.090  31.211  13.071
42776W        W15844  38.953  27.737   5.067
42777W        W15845  14.986  41.394   3.548
42778W        W15846  16.066   1.147  14.336
42779W        W15847  14.362  31.614   2.860
42780W        W15848  37.520  14.390  11.170
42781W        W15849  13.336  29.786  10.598
42782W        W15850  21.980  44.220   2.388
42783W        W15851  24.778   8.749  14.050
42784W        W15852  41.359   0.752   4.347
42785W        W15853  26.089  24.093  12.316
42786W        W15854  27.195  18.986  13.483
42787W        W15855  35.445  13.068  13.407
42788W        W15856   8.865  39.553   3.331
42789W        W15857  24.457  30.697  13.476
42790W        W15858  28.992  22.136  14.000
42791W        W15859  10.111  16.323   2.116
42792W        W15860   2.165   4.178  12.020
42793W        W15861  15.167   7.800   3.845
42794W        W15862  40.467   2.268   3.425
42795W        W15863   2.822   1.061   4.575
42796W        W15864  13.262  31.646   4.473
42797W        W15865  42.492   9.446  12.392
42798W        W15866  29.369   1.486   0.275
42799W        W15867  32.691   3.010  12.003
42800W        W15868  38.847   8.577   2.396
42801W        W15869   5.643   7.345   4.495
42802W        W15870  13.651   6.400   3.076
42803W        W15871  31.142  35.518  13.800
42804W        W15872  41.363  44.895  13.571
42805W        W15873  40.632  41.623  11.459
42806W        W15874  39.432  21.683  12.446
42807W        W15875  23.613  28.524  12.940
42808W        W15876  27.148  40.432  10.755
42809W        W15877  14.387   5.376   2.678
42810W        W15878  13.139  31.582   0.839
42811W        W15879  28.181   5.472  13.838
42812W        W15880  24.130  44.849   0.032
42813W        W15881  39.518  34.572   0.005
42814W        W15882  24.592  10.855   3.824
42815W        W15883  41.786  41.762   2.231
42816W        W15884  35.075  26.710   1.854
42817W        W15885  27.155   9.258   3.763
42818W        W15886  12.187  22.184   4.549
42819W        W15887  40.430  38.129   3.830
42820W        W15888  29.037  15.831  11.129
42821W        W15889   4.965  33.980   2.903
42822W        W15890  32.412  13.771  14.515
42823W        W15891  27.439  22.179   2.392
42824W        W15892   7.683   9.860   0.418
42825W        W15893  37.620  12.035   2.368
42826W        W15894  33.785   4.364   4.262
42827W        W15895  40.920  21.720   3.885
42828W        W15896  28.492  13.182  14.762
42829W        W15897  19.727  22.679   4.799
42830W        W15898  13.828   4.387  14.491
42831W        W15899   1.416   9.809  14.953
42832W        W15900   7.339  15.642  10.628
42833W        W15901  25.969  20.158   1.149
42834W        W15902  26.015  25.400   4.289
42835W        W15903  28.574   2.073  11.573
42836W        W15904   9.849   4.715  11.902
42837W        W15905  33.245  18.776   3.287
42838W        W15906   1.879  12.884  11.078
42839W        W15907  24.981   4.484   1.728
42840W        W15908  16.020  21.069   2.176
42841W        W15909  15.564   2.806  13.283
42842W        W15910  39.047   3.381   3.272
42843W        W15911  39.050  31.736   1.013
42844W        W15912   4.243   4.313  13.966
42845W        W15913  17.863  43.714   1.736
42846W        W15914  41.730  33.508   3.843
42847W        W15915  40.258  12.745  12.467
42848W        W15916  21.348  37.062  12.529
42849W        W15917  23.283  38.867  11.194
42850W        W15918  32.550  12.104   2.346
42851W        W15919   1.665   9.698  10.555
42852W        W15920  43.356   7.957   1.715
42853W        W15921  39.411   2.830   2.480
42854W        W15922   8.617  11.358   0.252
42855W        W15923  18.762   7.490   4.514
42856W        W15924  41.544   3.916   2.756
42857W        W15925  30.678  42.612  12.469
42858W        W15926  29.993  40.423  13.534
42859W        W15927   1.956   0.315  10.449
42860W        W15928  16.939  21.730  11.068
42861W        W15929  30.780   5.848  12.074
42862W        W15930  43.514  20.714  11.959
42863W        W15931  40.788  30.007  14.315
42864W        W15932  25.673   2.186  13.519
42865W        W15933   4.121  17.606   2.921
42866W        W15934  34.063  41.400  11.750
42867W        W15935   2.342  13.278  12.793
42868W        W15936   7.568   1.952   4.239
42869W        W15937  35.068   7.872   0.831
42870W        W15938  30.188  26.052  10.901
42871W        W15939   3.031  26.411   2.367
42872W        W15940  40.283  25.676   4.781
42873W        W15941  26.643  15.126  13.095
42874W        W15942  27.935  16.083  10.943
42875W        W15943  28.031  40.508  10.985
42876W        W15944  11.345   2.414  14.681
42877W        W15945  39.477  25.663  12.302
42878W        W15946  44.859  10.260  12.123
42879W        W15947  41.351  15.183  12.033
42880W        W15948   4.130   0.659  13.798
42881W        W15949   0.188  31.415  11.077
42882W        W15950  42.960   5.792   1.836
42883W        W15951  34.157  28.932   2.100
42884W        W15952  24.129   8.278  14.739
42885W        W15953  32.085  18.086   0.467
42886W        W15954  17.568  25.927   2.698
42887W        W15955  41.885   6.339   1.420
42888W        W15956  24.508  20.261  14.022
42889W        W15957  41.972   4.270   1.208
42890W        W15958  22.665   2.468  11.967
42891W        W15959  39.357  40.664  12.376
42892W        W15960   1.516  25.496   2.331
42893W        W15961   0.902  15.290   0.325
42894W        W15962   7.248   0.539   0.914
42895W        W15963  16.615  37.113   3.740
42896W        W15964  30.636   9.556  12.835
42897W        W15965  42.277  28.460   1.820
42898W        W15966  15.905   4.888  13.811
42899W        W15967  31.015  41.868  12.203
42900W        W15968  39.444  24.342   2.763
42901W        W15969  39.829  19.065   2.793
42902W        W15970   4.157  39.129   2.371
42903W        W15971  21.190   2.180   3.610
42904W        W15972   4.337  36.912  14.419
42905W        W15973  24.473  33.045  13.967
42906W        W15974  13.234   6.923  11.903
42907W        W15975  15.216  33.820  12.664
42908W        W15976  44.760   9.599  12.909
42909W        W15977  22.605  43.521   4.821
42910W        W15978  16.141  21.979  11.620
42911W        W15979  24.554  11.837   3.646
42912W        W15980  37.578  21.165  14.198
42913W        W15981  37.456  19.257  13.342
42914W        W15982  35.526  10.792   1.101
42915W        W15983  41.215  19.524  13.763
42916W        W15984  31.036  17.800  13.093
42917W        W15985  28.687   9.144   2.415
42918W        W15986  29.370   3.354  10.774
42919W        W15987  40.954  21.830   0.719
42920W        W15988  33.524  44.959  14.123
42921W        W15989  25.245  20.071  13.580
42922W        W15990  27.775   8.328  10.696
42923W        W15991   6.314  38.419  14.217
42924W        W15992  29.941  22.404   0.775
42925W        W15993  28.086   9.321   4.415
42926W        W15994  27.188  44.093  10.752
42927W        W15995  19.174  26.748  11.153
42928W        W15996  42.259   5.392   1.637
42929W        W15997  44.941  42.385   3.137
42930W        W15998  42.700  38.647  11.967
42931W        W15999  28.662   1.355   1.866
42932W        W16000  17.977  42.742   1.834
42933W        W16001  17.714  39.805   2.769
42934W        W16002  33.397  27.064   2.918
42935W        W16003   6.264  39.793  12.361
42936W        W16004  38.030  27.656  11.501
42937W        W16005   5.389  44.645   0.519
42938W        W16006   5.555  14.426   0.150
42939W        W16007  35.105  41.922  11.034
42940W        W16008  36.113   6.745  11.515
42941W        W16009  31.849  42.402  11.901
42942W        W16010  25.236  23.705  14.943
42943W        W16011  35.160   2.824  14.299
42944W        W16012   2.990  35.962  13.048
42945W        W16013  37.431  10.706  10.602
42946W        W16014  13.037  41.369   3.543
42947W        W16015  28.610  33.757   3.242
42948W        W16016  34.074   9.286   3.712
42949W        W16017   4.946  26.370  12.030
42950W        W16018  30.431  13.184   1.542
42951W        W16019   9.422   9.219   2.371
42952W        W16020  14.615  24.040   0.592
42953W        W16021   5.835  35.371   3.197
42954W        W16022   6.507  24.981   2.185
42955W        W16023  43.224  13.159  14.775
42956W        W16024  15.191  22.316   3.299
42957W        W16025  39.384  17.777   0.014
42958W        W16026  40.417  23.460   1.234
42959W        W16027   3.908  25.026  13.806
42960W        W16028  14.927  41.793   1.344
42961W        W16029  39.366  16.552   0.856
42962W        W16030  13.676   1.637  13.356
42963W        W16031  15.522  38.288  11.442
42964W        W16032  15.548   1.831  11.614
42965W        W16033   6.911  35.486   1.512
42966W        W16034  31.462  28.170   1.064
42967W        W16035  22.611  26.837   3.054
42968W        W16036  40.343  36.468  11.158
42969W        W16037   9.821  42.526   3.443
42970W        W16038  33.996  28.598   0.481
42971W        W16039  36.087  13.304  14.381
42972W        W16040  32.524  32.169  12.411
42973W        W16041  43.197  12.237  14.671
42974W        W16042  28.922  13.852  12.361
42975W        W16043  43.564  36.530  10.726
42976W        W16044  37.324  40.939  13.902
42977W        W16045   4.252  11.119  12.008
42978W        W16046  32.925  30.456   3.277
42979W        W16047  32.061  33.131   2.878
42980W        W16048  36.002  17.152   1.393
42981W        W16049   0.320  41.964   2.471
42982W        W16050  26.126   5.720   2.384
42983W        W16051  12.485   4.835   5.109
42984W        W16052   3.874   2.944   2.923
42985W        W16053  38.819   3.629  14.502
42986W        W16054  21.453  39.016  11.185
42987W        W16055  11.700  17.603  11.130
42988W        W16056  40.593  38.534   1.308
42989W        W16057  35.117  40.851   0.808
42990W        W16058  12.244  29.210   1.705
42991W        W16059   6.179  12.818   3.652
42992W        W16060  15.738  35.451   3.172
42993W        W16061  22.131  24.183  12.590
42994W        W16062  13.325  11.643  14.941
42995W        W16063  31.705   0.736   2.370
42996W        W16064  23.164  15.788   1.214
42997W        W16065   0.544  12.407  11.994
42998W        W16066   7.212  30.610  14.379
42999W        W16067  42.268  43.008   3.591
43000W        W16068  21.249  13.993  13.077
43001W        W16069  12.550  20.250  10.838
43002W        W16070   9.308  11.978  11.963
43003W        W16071  38.535  22.299   0.328
43004W        W16072  26.558  37.985   4.224
43005W        W16073  30.546   6.440   0.326
43006W        W16074   7.397   0.930  13.155
43007W        W16075  42.348  37.040   1.813
43008W        W16076   3.965  41.422  11.444
43009W        W16077  17.745  19.637  11.984
43010W        W16078  11.868   4.238  10.478
43011W        W16079  14.223  30.685   1.854
43012W        W16080  24.558  24.953   1.039
43013W        W16081  28.140  24.591   1.833
43014W        W16082  43.734   4.892  10.983
43015W        W16083  42.968  17.918  13.118
43016W        W16084  36.101  40.437   4.320
43017W        W16085  43.244  26.720   0.266
43018W        W16086  29.574  22.252   3.072
43019W        W16087  41.767   5.234   2.176
43020W        W16088  30.927  19.892   1.859
43021W        W16089   1.245  33.516  11.204
43022W        W16090  16.074   2.897  12.571
43023W        W16091   6.864  43.272   1.201
43024W        W16092   8.358  42.228   4.635
43025W        W16093  28.565  32.601   1.157
43026W        W16094  44.330  32.609   2.716
43027W        W16095   3.785  44.158   2.417
43028W        W16096   8.281  39.263   4.129
43029W        W16097   7.876   1.940  13.307
43030W        W16098  31.639  10.432   2.117
43031W        W16099   2.320   1.731   0.999
43032W        W16100  22.717  19.116  14.446
43033W        W16101   3.866  12.897   2.704
43034W        W16102  17.382   8.071   0.740
43035W        W16103  33.927  35.652   4.674
43036W        W16104  42.978  16.272   2.798
43037W        W16105  36.625   2.867   1.925
43038W        W16106  31.202  37.993   1.825
43039W        W16107  43.015  39.542   3.098
43040W        W16108  23.689  35.075   3.885
43041W        W16109  23.708   3.993   0.312
43042W        W16110  18.792  18.035   0.018
43043W        W16111  16.377  44.426  10.566
43044W        W16112  34.209   4.425  11.056
43045W        W16113  10.122  15.014   1.701
43046W        W16114  18.817  44.936   1.350
43047W        W16115  35.306  22.543  13.260
43048W        W16116  23.522  17.304   2.133
43049W        W16117  34.368   9.738   3.723
43050W        W16118  16.922   3.755  11.440
43051W        W16119   1.071  21.710   1.338
43052W        W16120  34.903  37.037  11.722
43053W        W16121   5.447  33.931  13.614
43054W        W16122  24.314  35.993  12.087
43055W        W16123  36.357   5.845   0.326
43056W        W16124  37.526  40.963  12.518
43057W        W16125   2.202  19.178  12.128
43058W        W16126   1.845  24.679   1.779
43059W        W16127   9.718   8.904  14.286
43060W        W16128  22.787  19.554  10.181
43061W        W16129  31.143  37.862  13.545
43062W        W16130  21.947  20.065   0.212
43063W        W16131  27.161  39.120   0.403
43064W        W16132   9.635   1.895  11.635
43065W        W16133   4.957  11.572  10.402
43066W        W16134   8.646  39.805  12.903
43067W        W16135   7.105   8.425   3.862
43068W        W16136  36.102  29.646  10.665
43069W        W16137  28.031  25.605  12.864
43070W        W16138  29.894  44.793   4.667
43071W        W16139  35.006  17.502   2.764
43072W        W16140  11.093   4.894   1.235
43073W        W16141  35.677  12.482   3.226
43074W        W16142  21.117  19.546  12.477
43075W        W16143  18.086  13.786  11.918
43076W        W16144  20.157  37.341   4.191
43077W        W16145   1.324   7.122  12.824
43078W        W16146  26.291   1.321  13.814
43079W        W16147  30.306  37.962   1.338
43080W        W16148  36.434  22.937  14.985
43081W        W16149  25.493   1.730  12.597
43082W        W16150  25.067   0.740   2.331
43083W        W16151  26.375  38.017   1.440
43084W        W16152  41.365   8.642   3.243
43085W        W16153  32.955  35.941  14.293
43086W        W16154  26.960   2.349  10.545
43087W        W16155  39.541  43.736  13.413
43088W        W16156  36.468   3.294  11.520
43089W        W16157  28.879   6.000   0.304
43090W        W16158  16.740  27.593   2.865
43091W        W16159   7.674  32.413  13.348
43092W        W16160  25.793  20.827  14.558
43093W        W16161   9.926  33.995  11.153
43094W        W16162   2.699  20.219  11.031
43095W        W16163  17.679   4.043  14.129
43096W        W16164  23.695  27.510   4.106
43097W        W16165   1.394   4.790  11.990
43098W        W16166  41.442   1.178   2.694
43099W        W16167  13.770  44.924   1.778
43100W        W16168  24.645  37.800   0.344
43101W        W16169   2.249   3.366   1.767
43102W        W16170  10.185   2.748   1.320
43103W        W16171   8.215  13.237   3.709
43104W        W16172   6.626  40.010  12.071
43105W        W16173  42.801  22.260  10.213
43106W        W16174  36.303  25.192   1.509
43107W        W16175   7.982  26.966  14.160
43108W        W16176  37.107   1.920   0.047
43109W        W16177  23.057  42.182  14.886
43110W        W16178  15.222  15.806   1.794
43111W        W16179  24.091  16.976  12.285
43112W        W16180  40.860  39.632  13.333
43113W        W16181  33.905  21.542  10.351
43114W        W16182  39.753  22.293   3.654
43115W        W16183  19.440   2.470  13.568
43116W        W16184  23.879   1.590  10.160
43117W        W16185  24.851  33.176   1.888
43118W        W16186  17.190  10.962  13.352
43119W        W16187  25.675  30.872  11.188
43120W        W16188  10.061  19.705   2.326
43121W        W16189  44.804  38.537   4.643
43122W        W16190  43.451  33.749   1.584
43123W        W16191   0.454  25.472  12.806
43124W        W16192  37.093   8.760  11.051
43125W        W16193  27.054   3.378   3.398
43126W        W16194   7.023  31.712   9.857
43127W        W16195  13.680   7.444   4.585
43128W        W16196  42.617  17.857   2.763
43129W        W16197   5.833  29.845  14.367
43130W        W16198  39.850   2.069   4.709
43131W        W16199  36.912  10.434  13.456
43132W        W16200  19.953   6.753  12.683
43133W        W16201  23.469  16.989  13.420
43134W        W16202   2.850   1.184   4.066
43135W        W16203   3.221   0.390  13.563
43136W        W16204  29.493  35.187  14.814
43137W        W16205   7.903  24.976   0.824
43138W        W16206  28.979  42.758   2.944
43139W        W16207  38.535  42.370   3.685
43140W        W16208  23.974   7.975   3.400
43141W        W16209  21.443  41.867   0.451
43142W        W16210  13.751   8.291  12.890
43143W        W16211  21.807  23.930   0.460
43144W        W16212   9.525  37.428  13.449
43145W        W16213  24.237  14.608   1.408
43146W        W16214  17.051  42.422   4.595
43147W        W16215  35.089  18.233  10.756
43148W        W16216  16.059   0.317  11.183
43149W        W16217  29.870  37.339   0.355
43150W        W16218   2.056  13.242  10.689
43151W        W16219  21.267  12.152  14.426
43152W        W16220  31.625  16.356   0.375
43153W        W16221   4.126  32.616  14.997
43154W        W16222  16.197   1.058  12.189
43155W        W16223  36.779  29.379   0.185
43156W        W16224   0.145  42.265   2.097
43157W        W16225   2.972  19.212  10.991
43158W        W16226  30.418  30.033   2.263
43159W        W16227  18.728  22.162   0.789
43160W        W16228  28.688   8.604  14.895
43161W        W16229  23.274  38.320   3.626
43162W        W16230   3.006   6.245   4.287
43163W        W16231   5.507  23.207   1.361
43164W        W16232  12.805  38.607  14.346
43165W        W16233  30.169  36.377  12.565
43166W        W16234  32.476  28.584  14.810
43167W        W16235  18.703  11.309   2.962
43168W        W16236   2.398  43.996   0.553
43169W        W16237  42.738  44.910  14.007
43170W        W16238   4.475  37.318   1.809
43171W        W16239  37.051   5.961  13.974
43172W        W16240  28.696  19.515   3.546
43173W        W16241   0.204   2.391  14.729
43174W        W16242  14.394  12.354   1.475
43175W        W16243   3.305  27.215   0.744
43176W        W16244  38.244   7.139  13.126
43177W        W16245  27.247  39.316  13.365
43178W        W16246  26.623  33.380   2.748
43179W        W16247  26.136  11.764  11.871
43180W        W16248  31.626  13.945   2.883
43181W        W16249  31.059  21.005  12.034
43182W        W16250   8.851  27.635  14.264
43183W        W16251  31.359  36.885  14.799
43184W        W16252  10.249   8.988   4.502
43185W        W16253   9.576   2.266  13.906
43186W        W16254  39.971  14.694   2.315
43187W        W16255  35.996  28.276  13.323
43188W        W16256  28.893  13.286  11.588
43189W        W16257   3.619  26.579  11.774
43190W        W16258  34.639  37.210   5.061
43191W        W16259  26.706  37.871  14.335
43192W        W16260  17.353   3.164   0.058
43193W        W16261  43.167  37.247  11.140
43194W        W16262   2.820   0.714  13.411
43195W        W16263   3.321  10.265  10.973
43196W        W16264  42.527   9.372   0.892
43197W        W16265  22.480  35.811  14.224
43198W        W16266  33.380  32.125   4.510
43199W        W16267  22.541   4.380  11.815
43200W        W16268  39.895  29.694  11.175
43201W        W16269   4.794  11.869  14.879
43202W        W16270  32.621  32.482   1.264
43203W        W16271  20.565  36.885  12.989
43204W        W16272  33.922  18.110   2.666
43205W        W16273  22.530  25.556  11.105
43206W        W16274  32.929  42.276  12.920
43207W        W16275  18.511  29.672  12.067
43208W        W16276   4.199  15.698  14.314
43209W        W16277  40.351  26.506  10.176
43210W        W16278  28.466  13.372   3.588
43211W        W16279   9.791  13.723  12.175
43212W        W16280  34.364   3.967  11.253
43213W        W16281   6.642  30.001  11.542
43214W        W16282  32.084   1.575   0.371
43215W        W16283  13.850  33.484   2.064
43216W        W16284   0.540  43.555  13.909
43217W        W16285  22.355  15.055  12.679
43218W        W16286  27.044   4.772  11.491
43219W        W16287   1.207   7.655   2.336
43220W        W16288  24.620  16.122   1.200
43221W        W16289   6.425   0.314   1.491
43222W        W16290  12.525  21.436  12.540
43223W        W16291  37.592  16.003   1.908
43224W        W16292   7.262  21.385  10.315
43225W        W16293   3.384  44.326  11.472
43226W        W16294  39.622   7.309   4.933
43227W        W16295  34.471  40.977  13.832
43228W        W16296  26.996  10.155  12.726
43229W        W16297  31.086  39.596  11.128
43230W        W16298  35.042  25.750   2.883
43231W        W16299  31.133  25.630   4.857
43232W        W16300   2.661  30.262  13.999
43233W        W16301  35.079  27.015  11.415
43234W        W16302  25.643  17.376   2.934
43235W        W16303  12.854  43.927   1.934
43236W        W16304   0.872   6.187   4.238
43237W        W16305  31.923  42.625  10.956
43238W        W16306  38.196  20.060  12.041
43239W        W16307   1.913  15.340  10.601
43240W        W16308  33.639  12.562  10.849
43241W        W16309  36.124  31.433  12.065
43242W        W16310   0.564   1.805   1.824
43243W        W16311  44.733  21.787   1.790
43244W        W16312  29.995   7.519  12.130
43245W        W16313   3.701  33.868  11.065
43246W        W16314   7.233   1.325  11.262
43247W        W16315  15.886  32.107  10.879
43248W        W16316  10.132   1.630  11.620
43249W        W16317   7.858  19.820   3.804
43250W        W16318  25.181  32.444  13.181
43251W        W16319  23.530  20.089   0.734
43252W        W16320  25.197  31.894  10.658
43253W        W16321  42.248   8.168   2.185
43254W        W16322   3.136  42.925  10.351
43255W        W16323  23.759  10.180   0.531
43256W        W16324  44.439  36.097   4.449
43257W        W16325  15.406   3.828  10.798
43258W        W16326  41.183  26.972   3.812
43259W        W16327  21.075  20.700  13.898
43260W        W16328  24.558   0.672   3.360
43261W        W16329  17.190   6.838  12.388
43262W        W16330   7.248  26.939   2.345
43263W        W16331  32.087  13.103   0.765
43264W        W16332   4.950  12.177   3.920
43265W        W16333  30.444  22.978   3.713
43266W        W16334  23.470  37.578  11.387
43267W        W16335  30.660   7.834  11.976
43268W        W16336  21.632  38.599   4.531
43269W        W16337  32.433   0.558   4.148
43270W        W16338   9.277  15.103   2.476
43271W        W16339  19.736  35.195   2.404
43272W        W16340  14.996   6.737   3.642
43273W        W16341  20.163  35.043   3.765
43274W        W16342   8.662  30.703   0.926
43275W        W16343  18.240  33.953  14.026
43276W        W16344   9.830  16.576  13.890
43277W        W16345  28.386  44.566  14.903
43278W        W16346   1.610  17.693  11.477
43279W        W16347   9.342  44.158   1.326
43280W        W16348  19.735  44.692  11.639
43281W        W16349   3.359  42.931   2.837
43282W        W16350   8.173  28.420   2.591
43283W        W16351  22.651   7.337  10.856
43284W        W16352  31.433  10.333  12.629
43285W        W16353   8.417   6.659   4.599
43286W        W16354  10.350  36.806   1.950
43287W        W16355  15.817  29.347  13.736
43288W        W16356  44.500  18.250  11.211
43289W        W16357  36.535  24.728   0.025
43290W        W16358  15.718  12.251  11.916
43291W        W16359  44.019  42.426   3.196
43292W        W16360  42.642  22.670   2.801
43293W        W16361   3.391  16.570  11.977
43294W        W16362  41.565  28.748  11.272
43295W        W16363  11.400  39.530  13.589
43296W        W16364   3.729  41.930   2.791
43297W        W16365  31.429  44.710   3.617
43298W        W16366  14.679   0.919   1.943
43299W        W16367  25.159   5.876  12.424
43300W        W16368  12.333  42.758  14.059
43301W        W16369  20.250  36.856  14.360
43302W        W16370  25.601  18.817  11.977
43303W        W16371  11.373   8.828  11.577
43304W        W16372  11.771  44.291   0.720
43305W        W16373  14.570   6.924  14.821
43306W        W16374   1.318   4.293   4.440
43307W        W16375   6.192  16.805   0.756
43308W        W16376  15.594  30.191   2.592
43309W        W16377  10.219  39.095  14.855
43310W        W16378  24.595  34.093   3.674
43311W        W16379  18.157  43.609  10.648
43312W        W16380  29.626  13.544  11.990
43313W        W16381  43.944  42.342   4.173
43314W        W16382  27.477  41.839   1.913
43315W        W16383  11.372  39.008   2.072
43316W        W16384   1.817  15.388   0.885
43317W        W16385  16.912  13.661  13.543
43318W        W16386  26.541  23.191  13.173
43319W        W16387  35.356  34.903  14.424
43320W        W16388  21.478  16.429   4.552
43321W        W16389  21.011  39.940  12.825
43322W        W16390   6.339  15.169  14.404
43323W        W16391  10.582   9.667   0.733
43324W        W16392  43.051  34.926  11.149
43325W        W16393  11.386   3.244   4.714
43326W        W16394  25.597  44.312   2.179
43327W        W16395  14.252  35.427   2.485
43328W        W16396  22.995   0.748   0.048
43329W        W16397  17.598  31.077   2.888
43330W        W16398  19.330  19.107  10.746
43331W        W16399  19.202   7.693  12.805
43332W        W16400   4.857   3.056   9.771
43333W        W16401  22.422  26.440  11.095
43334W        W16402  35.609  16.300  11.715
43335W        W16403  13.888  28.407  14.858
43336W        W16404  25.027  13.213   0.702
43337W        W16405  12.196  30.821   3.842
43338W        W16406  35.080   4.969  10.914
43339W        W16407  12.462  42.491   4.114
43340W        W16408   1.692  36.555   3.302
43341W        W16409  31.120  27.488  11.516
43342W        W16410  38.960  18.358   4.792
43343W        W16411  28.009   0.766  12.722
43344W        W16412  36.668  42.981   1.473
43345W        W16413  30.897  17.646  14.610
43346W        W16414  10.743  13.305  13.790
43347W        W16415  21.555  15.866  10.220
43348W        W16416  27.297   5.211  11.631
43349W        W16417  40.369   3.321  11.503
43350W        W16418   2.803  21.846  11.071
43351W        W16419  12.132  23.512  13.184
43352W        W16420  37.020  21.990  14.359
43353W        W16421   2.509  15.076  11.932
43354W        W16422  34.930  36.425   3.593
43355W        W16423  20.367   8.900   0.329
43356W        W16424  35.658  13.312  10.637
43357W        W16425  24.837  39.887   5.036
43358W        W16426  18.653  44.270   2.402
43359W        W16427   0.214  36.896   4.613
43360W        W16428  13.187  26.519  12.695
43361W        W16429  42.010  11.769  14.985
43362W        W16430  32.257  28.011  13.011
43363W        W16431  34.615  36.767  14.434
43364W        W16432  42.317   6.068  10.479
43365W        W16433  34.040  33.067   5.216
43366W        W16434  32.588  22.594   2.769
43367W        W16435   5.437  43.365  11.962
43368W        W16436  37.356  17.269  12.436
43369W        W16437  16.852  40.882  14.005
43370W        W16438  13.432  29.532   1.194
43371W        W16439  21.288  26.407   4.961
43372W        W16440  34.535  26.028  12.526
43373W        W16441  41.847  31.626   3.655
43374W        W16442  11.293  34.673  12.047
43375W        W16443   0.043  15.192  12.569
43376W        W16444  22.002  22.168   3.167
43377W        W16445  10.223   4.261   0.754
43378W        W16446  15.802  29.555  11.542
43379W        W16447   2.281  31.705  12.967
43380W        W16448  34.328  15.222  14.037
43381W        W16449  28.091  34.308   1.264
43382W        W16450  16.143   6.254   0.830
43383W        W16451   0.287  15.676   2.619
43384W        W16452  10.610  30.572  13.265
43385W        W16453  17.459  22.171   4.172
43386W        W16454  44.167   5.648   2.291
43387W        W16455   0.234   3.143  11.476
43388W        W16456   8.775  34.401   2.878
43389W        W16457  11.649  37.518  12.027
43390W        W16458  17.537  43.755   2.155
43391W        W16459  22.850  42.158   3.433
43392W        W16460  26.311  32.348   1.394
43393W        W16461  25.316  30.047   2.169
43394W        W16462  25.995  41.485   2.093
43395W        W16463   0.304  16.691   0.901
43396W        W16464  29.456  18.790   2.282
43397W        W16465   9.879  44.784  10.450
43398W        W16466   8.922   7.386  14.836
43399W        W16467  19.465  40.978  13.430
43400W        W16468  36.920  38.114   1.948
43401W        W16469  24.731  40.714  12.500
43402W        W16470  14.342  24.076  11.876
43403W        W16471  17.142  29.282   0.934
43404W        W16472  31.144   5.989  13.559
43405W        W16473  37.112   0.153  10.471
43406W        W16474  11.569  39.089  10.146
43407W        W16475   8.192   6.531   0.883
43408W        W16476  29.560  39.477  11.395
43409W        W16477  44.317  13.680   2.651
43410W        W16478  23.533  24.710  12.376
43411W        W16479  24.082  27.382  12.548
43412W        W16480  34.088   6.806   1.488
43413W        W16481  17.129  40.477  13.612
43414W        W16482  27.373   9.302   2.767
43415W        W16483  33.880  19.488  11.407
43416W        W16484  15.590  30.681  14.972
43417W        W16485  12.627   1.031   2.929
43418W        W16486  23.178  14.677   2.438
43419W        W16487   9.848  25.798   2.825
43420W        W16488  25.450  16.502   3.249
43421W        W16489  11.565  10.695  12.519
43422W        W16490  39.705   3.293  12.012
43423W        W16491  15.110  42.092  13.523
43424W        W16492  40.423  27.733  10.527
43425W        W16493   3.950  22.135   3.615
43426W        W16494  36.095  43.540   4.119
43427W        W16495  13.193  36.973   3.789
43428W        W16496  24.805  10.517   2.281
43429W        W16497  34.677  28.589  11.260
43430W        W16498  10.928  21.111   1.249
43431W        W16499   9.877  15.705   1.257
43432W        W16500   6.293  10.227  10.412
43433W        W16501   2.529   8.277  14.421
43434W        W16502  19.213  33.456   1.247
43435W        W16503   2.226  34.119   4.069
43436W        W16504  19.857  17.495   0.969
43437W        W16505  16.776  41.442  10.485
43438W        W16506   0.007  39.633   2.221
43439W        W16507   2.359  30.415   2.311
43440W        W16508  21.908  18.749   4.957
43441W        W16509  43.921  28.624  10.826
43442W        W16510  32.000  21.479   4.122
43443W        W16511  26.007  40.804   3.722
43444W        W16512  44.358  11.598  14.828
43445W        W16513   5.403  30.643   2.392
43446W        W16514  32.892  21.984   4.118
43447W        W16515  23.591  13.306   4.240
43448W        W16516   5.754  17.031   0.654
43449W        W16517  19.231  24.636  14.401
43450W        W16518  34.278  11.102  12.606
43451W        W16519  32.816  18.558   4.205
43452W        W16520  35.038  15.549   0.848
43453W        W16521  14.651  21.911   4.049
43454W        W16522  13.764   3.238   0.825
43455W        W16523   8.609  18.648   1.237
43456W        W16524  27.762  13.155  13.927
43457W        W16525  30.348  40.805   4.704
43458W        W16526   9.426  41.551  12.476
43459W        W16527  27.368  22.384   4.043
43460W        W16528  32.179  11.377  14.793
43461W        W16529   3.323  23.711   3.133
43462W        W16530  38.330  43.889  11.197
43463W        W16531  16.833  21.934  10.570
43464W        W16532   8.229   7.839  14.251
43465W        W16533  42.437  23.676   4.794
43466W        W16534  37.865  14.928  11.527
43467W        W16535  34.664  35.976  14.471
43468W        W16536   3.218   1.354   4.435
43469W        W16537  17.155  44.777   1.386
43470W        W16538  40.411  16.628  10.458
43471W        W16539  39.436  23.227   3.774
43472W        W16540  13.011   0.497   4.165
43473W        W16541  26.257  16.354  11.598
43474W        W16542  38.928  11.373  14.992
43475W        W16543  26.736  23.048  11.220
43476W        W16544  23.336  32.878  11.640
43477W        W16545  37.955  29.563   4.857
43478W        W16546  27.527  28.618  13.591
43479W        W16547  42.516  13.206  13.487
43480W        W16548  10.400  28.143  13.589
43481W        W16549  24.760  43.740  11.149
43482W        W16550  21.037  33.553   2.689
43483W        W16551  21.079  30.422   4.544
43484W        W16552  42.346  35.887   0.325
43485W        W16553  30.245   1.198  14.017
43486W        W16554   2.350  30.325   9.882
43487W        W16555  18.043  10.884   1.480
43488W        W16556  35.863  12.794  13.512
43489W        W16557  33.204  14.276   4.444
43490W        W16558  35.323  29.228  13.639
43491W        W16559  15.345   7.173  11.120
43492W        W16560  16.572  41.882  10.679
43493W        W16561  18.752   6.799   3.237
43494W        W16562   3.432   9.852  12.335
43495W        W16563  28.069  40.570  10.451
43496W        W16564  34.917  11.188   4.594
43497W        W16565  14.329  35.036  11.331
43498W        W16566   7.453  16.317  11.485
43499W        W16567  41.972  20.635   3.180
43500W        W16568  41.429  37.640  11.123
43501W        W16569  26.044  28.607   2.757
43502W        W16570  24.173  40.054  11.476
43503W        W16571  21.580  22.511  14.067
43504W        W16572  28.717  23.007  12.676
43505W        W16573  14.760   3.875  11.948
43506W        W16574  41.238   7.434  12.394
43507W        W16575  27.773  35.282   5.057
43508W        W16576  32.663  42.341   1.892
43509W        W16577  21.231  20.777   1.390
43510W        W16578  37.072  27.981   4.691
43511W        W16579  32.588  22.678   0.302
43512W        W16580  17.752  15.219   4.682
43513W        W16581  28.140  27.907  12.615
43514W        W16582  22.625   9.359  14.536
43515W        W16583  36.692  19.939   1.788
43516W        W16584  32.108  28.042  14.730
43517W        W16585  17.196  21.211   0.894
43518W        W16586  17.821   2.378  11.632
43519W        W16587  33.884  39.074   4.151
43520W        W16588  36.042  15.164  13.011
43521W        W16589  39.939  44.385  11.938
43522W        W16590  38.398   7.778  11.314
43523W        W16591  44.782  36.102   2.344
43524W        W16592  29.738   1.972   4.455
43525W        W16593  34.158  26.642  13.036
43526W        W16594   7.321  38.120  10.739
43527W        W16595  17.858  32.845   0.457
43528W        W16596  43.343  20.587   1.666
43529W        W16597  25.033  42.545   3.831
43530W        W16598  32.252  14.393  10.396
43531W        W16599  29.122  16.699  14.581
43532W        W16600  32.153  29.735   4.645
43533W        W16601  44.763   9.525  10.714
43534W        W16602  36.098  21.095   2.887
43535W        W16603  24.919  12.405   4.695
43536W        W16604  37.535  24.056   1.370
43537W        W16605  35.892  21.343  13.627
43538W        W16606  24.759  32.618   0.933
43539W        W16607  13.261  30.732  12.320
43540W        W16608  26.919  38.529   1.329
43541W        W16609  13.345  36.168   2.757
43542W        W16610  34.387  10.666   0.809
43543W        W16611   7.727  27.014   0.492
43544W        W16612   3.202  31.511  11.875
43545W        W16613   4.290   3.685   1.472
43546W        W16614  22.004   6.126  11.953
43547W        W16615   2.004  24.510   3.633
43548W        W16616   1.717  10.362  11.180
43549W        W16617   6.945  33.636   2.261
43550W        W16618  24.601  30.578   2.235
43551W        W16619  31.194  21.473   2.901
43552W        W16620  36.513  40.771  13.527
43553W        W16621  38.962  27.477  12.514
43554W        W16622   2.916  31.041   2.463
43555W        W16623  31.528  23.226  11.529
43556W        W16624   2.258  29.963  13.905
43557W        W16625  43.345  24.229   3.582
43558W        W16626  14.242   8.476  13.807
43559W        W16627   3.192  29.187   4.146
43560W        W16628  39.051   0.899  13.542
43561W        W16629  28.486  38.627   3.030
43562W        W16630   3.273  35.985  14.463
43563W        W16631   9.176  42.069  13.991
43564W        W16632  30.060  21.757  12.419
43565W        W16633   8.799  36.115  10.740
43566W        W16634  31.464   9.823   3.830
43567W        W16635  21.293  15.809  14.806
43568W        W16636  31.973   4.208   1.688
43569W        W16637  18.037  25.965   3.526
43570W        W16638  41.929  22.749  11.158
43571W        W16639  33.432  15.400  13.044
43572W        W16640  38.514  34.848   1.512
43573W        W16641  26.765  16.693  12.039
43574W        W16642  30.602   2.274  11.596
43575W        W16643  37.372   6.917   4.010
43576W        W16644   7.848  30.937  13.483
43577W        W16645  36.710  14.690  10.557
43578W        W16646  39.783  24.035   4.452
43579W        W16647  17.294  21.420  11.963
43580W        W16648   0.832  43.947   3.574
43581W        W16649  33.117   6.456   0.839
43582W        W16650  42.093   9.820   3.970
43583W        W16651  33.553  31.241   4.101
43584W        W16652  38.595  24.509   2.391
43585W        W16653   5.603   9.179   1.914
43586W        W16654  20.712  26.697   4.401
43587W        W16655  43.063  15.307  14.631
43588W        W16656  15.564  35.326   1.118
43589W        W16657  20.200  31.947  11.566
43590W        W16658   9.096  14.943  11.251
43591W        W16659   3.012  15.714   0.022
43592W        W16660  11.712  30.051   1.662
43593W        W16661  33.396  27.638   3.260
43594W        W16662  38.353  42.499   2.644
43595W        W16663  24.162  35.454   2.238
43596W        W16664  14.845  18.261  14.424
43597W        W16665  37.554  36.339  13.069
43598W        W16666  24.579  27.548   4.663
43599W        W16667  33.883  31.289  13.484
43600W        W16668   4.548  31.226   0.433
43601W        W16669  32.229  16.820   1.818
43602W        W16670  39.850   9.140  13.601
43603W        W16671  27.475   2.783   2.724
43604W        W16672  38.985   7.478  13.541
43605W        W16673  42.242   2.932   1.720
43606W        W16674   9.927   2.497  14.322
43607W        W16675  43.112  19.518  10.907
43608W        W16676  41.085  25.221  12.393
43609W        W16677  21.605  40.854  12.772
43610W        W16678  40.136  41.274  14.185
43611W        W16679  41.123   8.633  12.018
43612W        W16680   6.785   9.706  12.477
43613W        W16681   1.351  12.587   4.623
43614W        W16682  13.692  39.279  10.617
43615W        W16683  36.010  27.684  11.570
43616W        W16684  42.067   5.253   4.124
43617W        W16685  23.054  24.240   4.354
43618W        W16686   1.713  10.449   2.741
43619W        W16687   8.079  15.567  11.065
43620W        W16688  38.558  38.862  14.759
43621W        W16689  17.546  10.644  10.572
43622W        W16690  39.004  17.221   1.149
43623W        W16691  14.671  35.653   2.196
43624W        W16692   5.049   5.738   2.872
43625W        W16693  28.985  41.011  13.087
43626W        W16694  12.499  28.200  12.549
43627W        W16695  15.618  21.061   1.367
43628W        W16696   1.808   9.189  10.578
43629W        W16697  18.272  39.907   0.029
43630W        W16698  43.756  37.891  10.695
43631W        W16699  22.524  19.552   3.292
43632W        W16700  26.924  10.846   3.721
43633W        W16701  28.985   0.550   0.441
43634W        W16702  41.187  27.352   4.605
43635W        W16703  33.572  39.078  12.370
43636W        W16704  29.530  33.849   3.665
43637W        W16705  41.422  16.740  14.033
43638W        W16706  42.039  38.052   1.462
43639W        W16707  16.541  39.284   1.356
43640W        W16708  20.445   8.241   2.305
43641W        W16709  28.570  26.510   0.409
43642W        W16710   9.172  15.798   0.389
43643W        W16711  22.277  28.402  12.456
43644W        W16712  11.592  35.650   3.773
43645W        W16713  38.317  25.892  12.520
43646W        W16714  11.386  40.549   3.704
43647W        W16715  12.124  44.323  11.135
43648W        W16716  12.669  13.305  13.943
43649W        W16717   6.828  25.958   3.123
43650W        W16718   6.117  23.645   2.412
43651W        W16719   2.493  15.567  12.075
43652W        W16720   9.133  39.399   9.699
43653W        W16721  24.758  13.547  11.576
43654W        W16722  22.224  30.074   3.143
43655W        W16723  27.992  33.352   4.017
43656W        W16724  37.858  11.122   0.784
43657W        W16725  28.134   1.920   2.838
43658W        W16726  19.656  20.798  14.800
43659W        W16727  11.696   5.670   3.290
43660W        W16728  44.693  32.036  12.098
43661W        W16729  41.510  44.439  11.806
43662W        W16730  34.815  33.838  14.811
43663W        W16731  19.655  40.066  13.122
43664W        W16732   1.378  36.659  12.169
43665W        W16733  24.001  43.069  13.698
43666W        W16734  26.138  42.762  12.856
43667W        W16735  30.503   3.410  12.436
43668W        W16736  18.143  22.941   0.830
43669W        W16737  21.376  40.469   0.397
43670W        W16738  24.691  42.276  13.440
43671W        W16739  33.689  10.188   3.941
43672W        W16740  16.573  16.828  14.989
43673W        W16741  35.589   9.729  12.179
43674W        W16742  17.796  22.785  11.849
43675W        W16743  16.785  22.214  11.001
43676W        W16744  30.632  11.681   3.768
43677W        W16745  31.813  35.037  14.303
43678W        W16746  29.558  29.080  11.231
43679W        W16747  36.304  37.512   2.657
43680W        W16748  35.435   5.740  11.178
43681W        W16749  40.796  26.098  11.870
43682W        W16750  12.600  18.711   5.040
43683W        W16751  22.977  21.169   4.058
43684W        W16752   3.851  30.876   2.210
43685W        W16753  15.075  26.604   2.121
43686W        W16754  25.465  39.335  14.725
43687W        W16755  17.214  23.770   3.195
43688W        W16756   7.321   4.972   0.894
43689W        W16757  18.642  44.833  14.566
43690W        W16758   6.809  36.386   0.434
43691W        W16759   1.313  17.226  10.754
43692W        W16760  11.439  19.252   0.331
43693W        W16761  22.017  24.476   2.784
43694W        W16762  31.914  33.406   1.891
43695W        W16763  21.349  16.726  11.141
43696W        W16764  22.550  27.247  11.523
43697W        W16765  39.770  25.595   1.746
43698W        W16766   2.877  44.407   2.208
43699W        W16767  16.796  44.513   2.094
43700W        W16768  38.676   1.726   2.752
43701W        W16769  33.697  32.707  14.882
43702W        W16770  15.731  36.787   3.164
43703W        W16771   8.297  30.690   1.333
43704W        W16772  32.091  34.350  10.122
43705W        W16773  10.504   6.208  11.556
43706W        W16774  37.331  14.628   1.496
43707W        W16775  28.935  15.740   0.888
43708W        W16776  23.547  37.069  12.046
43709W        W16777  24.525  17.590   0.219
43710W        W16778   0.392   1.372  12.929
43711W        W16779  18.794  36.645   3.850
43712W        W16780  18.187   4.962  14.514
43713W        W16781   6.145  10.937  11.649
43714W        W16782  34.038  10.907  13.014
43715W        W16783  24.669   3.721  11.516
43716W        W16784   4.509  38.406  13.494
43717W        W16785  22.919  41.295  14.021
43718W        W16786  34.967  23.188  11.906
43719W        W16787  34.948  32.891  14.637
43720W        W16788  34.707  15.196  12.540
43721W        W16789  40.940   8.703   1.471
43722W        W16790  35.966   5.222   0.925
43723W        W16791  23.595  20.535   1.001
43724W        W16792  35.518   7.629  13.937
43725W        W16793  33.440  23.603   4.535
43726W        W16794   2.238   2.332  10.717
43727W        W16795  14.174   1.729   3.979
43728W        W16796   8.322  39.773   4.153
43729W        W16797  24.073  36.458   1.199
43730W        W16798  10.203  38.966   3.572
43731W        W16799  25.758  19.734   3.537
43732W        W16800  15.185   7.947   0.746
43733W        W16801  31.673  21.035   2.274
43734W        W16802  36.118  29.208  13.100
43735W        W16803  34.883  10.680   1.889
43736W        W16804  41.453  42.824  12.780
43737W        W16805   0.444   4.826   2.646
43738W        W16806  37.606  36.675   0.187
43739W        W16807  25.995  41.874  12.132
43740W        W16808   3.397  41.058  13.415
43741W        W16809  31.619  11.372   3.816
43742W        W16810  25.166   1.570   1.316
43743W        W16811  31.566  14.406  11.478
43744W        W16812  14.644  29.609  10.135
43745W        W16813  17.411  25.317   2.634
43746W        W16814  35.849   1.502  12.038
43747W        W16815  11.215   2.835   2.846
43748W        W16816  22.106  20.978  11.599
43749W        W16817   1.281  26.506  14.124
43750W        W16818  17.492  15.760   3.717
43751W        W16819  14.525  20.858  13.077
43752W        W16820   4.920  39.904  10.749
43753W        W16821  32.382  34.965  13.982
43754W        W16822  27.000  42.577  14.304
43755W        W16823  31.511   0.911  11.369
43756W        W16824  26.774   6.644  11.067
43757W        W16825  37.620  14.727  13.956
43758W        W16826  22.083  30.158  11.989
43759W        W16827  31.392  21.423   0.990
43760W        W16828  14.649   9.444  13.889
43761W        W16829  28.210  10.853   1.416
43762W        W16830  38.125  39.524   4.367
43763W        W16831  25.033  26.099   4.607
43764W        W16832  22.765  35.948   3.540
43765W        W16833  16.657  34.885  10.680
43766W        W16834  18.048   9.936   1.367
43767W        W16835  42.531  28.294  13.622
43768W        W16836  31.008  17.104   2.910
43769W        W16837  29.537  38.581  10.708
43770W        W16838   4.985  37.395   0.362
43771W        W16839   2.789  40.227  12.048
43772W        W16840  42.803  41.844  14.357
43773W        W16841  30.076  15.730  14.338
43774W        W16842  30.121   3.260  12.083
43775W        W16843   6.794  43.560  14.059
43776W        W16844  27.006  35.078  11.612
43777W        W16845  22.843   7.278   4.612
43778W        W16846  36.125  11.551  12.472
43779W        W16847  28.920  30.064   2.638
43780W        W16848  14.245   9.731  13.297
43781W        W16849  40.514  17.849   0.276
43782W        W16850   6.390  37.933   3.177
43783W        W16851  41.271  40.158   4.105
43784W        W16852  11.575  31.529   3.416
43785W        W16853  14.738  19.894   0.269
43786W        W16854   4.658  16.200  10.766
43787W        W16855  17.354  24.303  11.088
43788W        W16856  37.847  15.282  12.433
43789W        W16857   3.522   8.959  12.894
43790W        W16858  17.697  11.128  13.402
43791W        W16859  41.746   4.857  14.410
43792W        W16860  16.673  22.332  12.463
43793W        W16861  33.459  28.585  10.388
43794W        W16862  35.650  14.156   2.887
43795W        W16863  21.987   7.526   3.649
43796W        W16864  38.869  19.596  14.024
43797W        W16865  32.840   4.775  13.292
43798W        W16866  15.113  27.008  13.568
43799W        W16867  15.492  12.737  11.063
43800W        W16868  25.790   8.894   3.873
43801W        W16869  35.310  33.899  13.841
43802W        W16870  27.550   8.455  13.311
43803W        W16871  13.058  21.960  10.803
43804W        W16872  17.244  21.010  10.702
43805W        W16873  27.064  20.325  10.735
43806W        W16874   2.198   8.573  13.455
43807W        W16875  25.405  13.160   3.779
43808W        W16876  21.940  44.794   0.524
43809W        W16877   8.112  12.015  14.155
43810W        W16878   0.693  33.298   1.679
43811W        W16879  29.134  37.395  13.313
43812W        W16880  15.566  27.847  12.869
43813W        W16881  22.712  15.752   1.443
43814W        W16882  21.605  41.315   1.713
43815W        W16883  15.110   6.360   3.968
43816W        W16884   3.959  33.417  13.012
43817W        W16885  37.596  38.086  14.318
43818W        W16886  19.557   0.736  14.907
43819W        W16887  13.785  32.823   2.794
43820W        W16888  30.938  10.087   4.577
43821W        W16889  28.141   5.753  11.466
43822W        W16890  38.558  36.319   1.357
43823W        W16891   6.267  15.566   3.760
43824W        W16892  16.724  22.206   1.904
43825W        W16893   9.588  37.533   2.446
43826W        W16894  32.571  25.174   0.264
43827W        W16895  39.943   9.507   4.142
43828W        W16896  35.924  41.315   1.806
43829W        W16897   7.099   4.908  14.918
43830W        W16898   4.737  42.163   2.681
43831W        W16899   1.707   4.613   2.281
43832W        W16900  13.081  28.183   3.812
43833W        W16901  11.682  40.821  12.932
43834W        W16902  44.306   4.387  13.400
43835W        W16903  15.296  28.994  11.119
43836W        W16904  13.682  23.002  11.500
43837W        W16905  44.727  42.635   1.276
43838W        W16906  37.927   6.655  12.253
43839W        W16907  38.390  28.189  11.161
43840W        W16908   9.007   3.336  12.517
43841W        W16909   6.398  11.395   0.420
43842W        W16910   0.747  13.174  11.011
43843W        W16911  25.719   7.171  13.491
43844W        W16912  25.150  22.175  10.869
43845W        W16913  42.902  23.519  10.589
43846W        W16914  13.215  30.667  13.735
43847W        W16915  18.463   4.419   2.241
43848W        W16916   5.411  19.079   2.550
43849W        W16917  34.290   7.358   2.284
43850W        W16918  32.577  32.399   4.102
43851W        W16919  21.054  43.998  11.530
43852W        W16920  13.204  14.113   1.770
43853W        W16921  22.578  11.720  14.756
43854W        W16922  30.595  15.774  14.264
43855W        W16923  15.621   1.794  12.564
43856W        W16924  26.949   4.427   2.024
43857W        W16925  42.414  27.822  13.885
43858W        W16926   6.453  19.554  11.407
43859W        W16927   7.320  29.421  12.892
43860W        W16928  19.095  12.826   2.371
43861W        W16929  35.607  34.489   1.854
43862W        W16930  28.503   3.559  10.961
43863W        W16931  22.684  28.192  14.850
43864W        W16932   4.401  40.017   0.862
43865W        W16933  21.767  17.384  12.449
43866W        W16934  16.140   7.654  10.530
43867W        W16935  35.196  41.857   1.858
43868W        W16936  16.707   8.921   3.329
43869W        W16937  23.015  26.976  12.479
43870W        W16938  44.720   0.702   1.029
43871W        W16939  21.908  23.293   4.152
43872W        W16940  29.134  25.736   1.424
43873W        W16941   7.715  18.816  11.823
43874W        W16942  16.164  16.835   2.712
43875W        W16943  11.252  33.289  13.298
43876W        W16944  22.130  38.717   2.661
43877W        W16945  30.133  17.971  11.604
43878W        W16946  13.613  20.190  11.861
43879W        W16947   3.820  44.019   4.694
43880W        W16948  14.781  16.193   0.239
43881W        W16949  40.528  10.613   4.763
43882W        W16950   9.983  17.068   3.704
43883W        W16951  17.635  16.808   2.044
43884W        W16952  23.001  24.508  13.697
43885W        W16953  23.450   0.196   4.917
43886W        W16954  31.923   9.135   0.711
43887W        W16955  30.838   0.906  14.304
43888W        W16956  23.700   4.181  10.520
43889W        W16957  11.360  26.121   0.926
43890W        W16958  34.532  17.313   3.386
43891W        W16959  28.543   9.627  12.861
43892W        W16960  26.606   2.927   4.712
43893W        W16961   8.121  27.169  12.000
43894W        W16962  33.178  17.300   0.342
43895W        W16963  36.844  38.959   4.415
43896W        W16964  22.533  11.950  11.984
43897W        W16965   2.426  34.389   3.645
43898W        W16966  34.332   2.424  12.955
43899W        W16967   8.291   0.950   2.064
43900W        W16968  24.091  10.201  12.150
43901W        W16969   9.710  42.937   2.249
43902W        W16970  17.607  23.225   3.992
43903W        W16971  28.391   2.889  14.909
43904W        W16972   4.265  14.638   4.410
43905W        W16973  44.292  33.104   1.513
43906W        W16974  11.501  21.532  13.413
43907W        W16975  27.435  18.661   4.663
43908W        W16976   7.680   8.178   1.547
43909W        W16977  22.049  40.878   4.353
43910W        W16978   7.787  28.623  11.240
43911W        W16979  41.374  24.084   3.444
43912W        W16980  34.029  35.418  14.840
43913W        W16981   0.931  34.836  10.491
43914W        W16982  30.272  33.637  14.781
43915W        W16983  11.851  12.282   2.417
43916W        W16984  34.933  17.020   0.290
43917W        W16985  35.263  14.124   5.040
43918W        W16986  44.111  36.930   2.343
43919W        W16987  36.334  32.677  11.629
43920W        W16988  41.507  44.891  11.536
43921W        W16989  32.913   5.305   4.168
43922W        W16990  28.452  41.375  14.876
43923W        W16991   0.346  33.390   3.630
43924W        W16992  19.778  43.779  14.169
43925W        W16993  34.980  21.281   0.730
43926W        W16994  19.550  39.786   3.814
43927W        W16995   3.172  27.404   2.582
43928W        W16996  21.975   5.239  11.992
43929W        W16997  22.252   1.356  13.505
43930W        W16998  35.897  26.351   3.722
43931W        W16999  11.761  35.187   1.901
43932W        W17000  28.018  24.506   2.381
43933W        W17001  35.498   2.020  14.508
43934W        W17002   0.411   7.129   2.161
43935W        W17003  24.562  30.645   0.759
43936W        W17004  37.328  43.951  10.253
43937W        W17005  33.324  29.515  12.029
43938W        W17006  25.816  25.491  10.675
43939W        W17007   7.467  25.082  10.621
43940W        W17008  22.614  29.731   4.120
43941W        W17009  18.656  41.765  13.007
43942W        W17010  11.846  11.569   2.857
43943W        W17011  44.327  27.422  10.330
43944W        W17012  16.084  38.408  11.437
43945W        W17013  30.425  38.399   2.824
43946W        W17014  15.260  35.340  11.637
43947W        W17015  10.818  43.455  11.451
43948W        W17016   3.885  19.048  11.886
43949W        W17017  14.719  29.620  12.925
43950W        W17018   0.232  29.551   3.565
43951W        W17019  16.456  33.496   0.746
43952W        W17020  15.190  12.835   2.121
43953W        W17021  41.952   2.916   4.155
43954W        W17022  21.743  31.047  11.548
43955W        W17023  15.563  34.548   0.908
43956W        W17024  32.524  25.206  12.961
43957W        W17025  25.484  30.402  11.182
43958W        W17026  44.118  33.845   3.827
43959W        W17027  42.080  37.487   1.746
43960W        W17028  19.562   5.834  14.079
43961W        W17029   9.942  35.893   1.500
43962W        W17030  31.593  37.868  11.665
43963W        W17031  16.725  12.239   3.755
43964W        W17032   1.985  24.575   1.271
43965W        W17033  23.811  16.122   2.960
43966W        W17034  16.507  16.648   3.571
43967W        W17035  36.682  23.418   1.922
43968W        W17036   9.676  40.389   2.779
43969W        W17037  44.784  16.803  13.370
43970W        W17038   9.841  37.919   1.657
43971W        W17039  33.015  31.705   1.845
43972W        W17040  34.842  41.022  12.556
43973W        W17041  13.525  24.960  11.089
43974W        W17042  28.202  17.322   0.260
43975W        W17043  37.179  31.091   0.776
43976W        W17044  16.644   4.715   3.776
43977W        W17045   4.483   3.281  11.816
43978W        W17046   8.807   9.756   3.837
43979W        W17047  28.985  34.349   0.987
43980W        W17048  37.897  20.001   1.055
43981W        W17049  10.805  24.938  13.845
43982W        W17050   1.778  38.050  10.690
43983W        W17051  31.662  20.743   3.211
43984W        W17052  11.422  32.246  13.417
43985W        W17053  40.787   7.910  11.525
43986W        W17054   9.514   3.425  12.480
43987W        W17055  25.011  30.406   1.916
43988W        W17056  20.270  22.526  11.349
43989W        W17057  22.089  37.648  12.565
43990W        W17058  34.958  43.891   0.867
43991W        W17059  34.789  35.037   5.126
43992W        W17060   1.361  23.314  14.735
43993W        W17061  35.356  12.868  14.811
43994W        W17062  42.388  30.874   1.755
43995W        W17063  15.084   4.871  10.566
43996W        W17064  12.276  20.771   3.220
43997W        W17065  31.084  18.371   0.893
43998W        W17066  44.417  34.599   1.407
43999W        W17067  27.125  29.099   1.923
44000W        W17068  37.803  37.445  14.854
44001W        W17069  34.542  41.124  14.921
44002W        W17070   3.613  42.300  13.025
44003W        W17071  15.327  39.803   0.383
44004W        W17072  24.214  36.914   0.298
44005W        W17073  44.121  43.887   4.091
44006W        W17074  18.048  21.994   2.045
44007W        W17075   3.433  29.939   3.668
44008W        W17076  31.095  20.936  14.410
44009W        W17077  27.578   2.766  13.851
44010W        W17078  29.002  34.688  14.133
44011W        W17079   8.716  30.089  14.754
44012W        W17080  42.346  29.990  13.437
44013W        W17081  28.423   3.686  11.481
44014W        W17082  17.263   3.420  11.016
44015W        W17083  29.461   0.311  11.029
44016W        W17084  24.674   8.344   1.927
44017W        W17085  43.046  17.740  13.784
44018W        W17086  27.442  40.051   0.765
44019W        W17087  10.202   6.650  12.908
44020W        W17088  17.695  41.111   1.551
44021W        W17089   4.500  26.294  13.469
44022W        W17090  25.199  30.395   4.236
44023W        W17091   3.740  17.773   1.145
44024W        W17092  18.207  35.957   2.371
44025W        W17093  42.836  34.563  13.392
44026W        W17094  12.296   0.576   4.385
44027W        W17095  35.952  33.514  14.914
44028W        W17096  26.152  18.259  14.514
44029W        W17097  30.543  10.705  11.329
44030W        W17098  31.918  30.455  14.862
44031W        W17099  15.907   6.261   3.607
44032W        W17100  13.272  33.421   1.056
44033W        W17101  23.749  25.559   2.287
44034W        W17102  30.773   8.668  11.589
44035W        W17103  17.640   1.450  11.428
44036W        W17104   9.099   3.954  13.320
44037W        W17105  28.793  36.444  13.387
44038W        W17106   2.875  23.547   1.245
44039W        W17107  41.591  38.909   0.744
44040W        W17108  11.580  36.950   3.806
44041W        W17109  27.145  16.744   1.738
44042W        W17110  29.440  38.473   2.925
44043W        W17111  17.244  36.858  10.720
44044W        W17112   2.171   2.753   2.214
44045W        W17113  41.717  34.413   2.720
44046W        W17114  15.629  37.305  14.323
44047W        W17115   7.710  24.104   0.431
44048W        W17116   3.714  14.375   3.308
44049W        W17117  26.768  16.380  11.633
44050W        W17118   8.095  25.100   4.524
44051W        W17119  13.275  13.332  13.764
44052W        W17120  20.069   7.847  13.350
44053W        W17121  42.737  21.117  11.634
44054W        W17122   5.945  36.273   0.823
44055W        W17123  22.775  25.475   3.117
44056W        W17124   0.380  44.932   4.672
44057W        W17125  39.279  23.566  11.175
44058W        W17126  29.097  35.450  10.515
44059W        W17127  22.152  23.606  14.348
44060W        W17128  44.352   6.392  14.504
44061W        W17129   6.686  42.297   4.672
44062W        W17130  31.522  36.044   0.573
44063W        W17131  14.212  32.129  14.737
44064W        W17132  18.249  44.737   3.463
44065W        W17133  24.022   8.723   4.859
44066W        W17134   6.767  31.600  11.234
44067W        W17135  35.560  22.273   3.521
44068W        W17136  40.771  30.996   1.899
44069W        W17137  23.374  41.390   1.137
44070W        W17138  28.600  23.234  14.454
44071W        W17139  44.044  33.375  14.771
44072W        W17140  15.201  12.349   2.257
44073W        W17141  42.964  22.303  12.959
44074W        W17142  30.940  34.343  13.438
44075W        W17143  16.521  36.912  12.003
44076W        W17144   3.795   5.155  12.856
44077W        W17145  18.989   7.222   3.039
44078W        W17146  44.733  29.684   1.833
44079W        W17147   4.008  35.923  11.438
44080W        W17148  17.001  43.448   3.168
44081W        W17149  17.762  42.859  12.096
44082W        W17150  29.056  18.312  13.975
44083W        W17151  30.484  31.869  13.415
44084W        W17152   7.594  40.123  12.107
44085W        W17153   2.935  15.120  12.632
44086W        W17154  22.605  17.122   0.030
44087W        W17155  24.688  12.687   1.352
44088W        W17156  21.162  16.290  12.920
44089W        W17157  20.091  10.409  14.359
44090W        W17158  33.888  28.292  13.711
44091W        W17159  11.278  41.868  11.013
44092W        W17160   0.040  43.359  12.213
44093W        W17161  12.604  41.925  11.365
44094W        W17162  33.782   1.988   3.156
44095W        W17163  31.707  42.448   1.983
44096W        W17164  32.009  39.863  12.604
44097W        W17165  38.845  43.073  14.423
44098W        W17166  30.179   9.771   0.564
44099W        W17167  34.421  35.411  13.151
44100W        W17168  17.800  29.487   3.237
44101W        W17169  44.058  15.661   4.141
44102W        W17170  32.209  33.769  11.408
44103W        W17171   0.455  38.000  11.533
44104W        W17172  17.515   0.299  14.709
44105W        W17173  30.430  10.255   4.746
44106W        W17174  16.883  32.983   3.318
44107W        W17175   6.098  21.335   5.039
44108W        W17176  33.810   0.085  13.420
44109W        W17177  37.308  33.591  12.455
44110W        W17178  18.104  32.581   3.705
44111W        W17179   5.862  23.899  13.821
44112W        W17180  17.817   8.355  11.087
44113W        W17181  25.663   6.321  11.503
44114W        W17182   5.314  16.342   2.815
44115W        W17183  44.665  28.009   3.269
44116W        W17184  11.125  11.723   2.285
44117W        W17185  24.625  39.307  14.494
44118W        W17186   0.847  16.185   1.284
44119W        W17187  17.813  14.795   1.491
44120W        W17188  23.436  20.237  13.786
44121W        W17189  36.435   3.820  10.699
44122W        W17190  26.425  27.380   1.247
44123W        W17191  40.935   0.233  11.161
44124W        W17192   0.930  23.916   4.129
44125W        W17193  32.929   5.437   0.840
44126W        W17194  14.806  44.029   3.242
44127W        W17195  13.736  28.533  13.070
44128W        W17196  31.835  11.010   5.068
44129W        W17197   8.507  40.942   2.256
44130W        W17198   5.654  39.311   4.229
44131W        W17199  14.781  33.662  12.128
44132W        W17200  13.397  20.004   2.785
44133W        W17201  31.032   7.215  10.854
44134W        W17202  11.835  38.386   0.948
44135W        W17203  25.235   1.010  14.480
44136W        W17204  15.277  32.018   3.248
44137W        W17205  36.236  29.404  11.995
44138W        W17206   9.655  17.559   0.394
44139W        W17207   5.876  12.965  12.685
44140W        W17208  15.049  14.522  11.048
44141W        W17209  14.005   4.666   4.559
44142W        W17210  27.435   0.556  14.764
44143W        W17211  39.088  29.900  12.057
44144W        W17212   2.355  22.956  13.493
44145W        W17213  21.826   8.870   3.967
44146W        W17214  13.211   5.419  10.505
44147W        W17215  25.512  15.809  10.879
44148W        W17216   7.008  40.334   0.308
44149W        W17217  23.720   1.783  10.686
44150W        W17218  43.237  38.828   2.885
44151W        W17219  24.010   5.184  10.770
44152W        W17220   2.305  13.205  13.357
44153W        W17221  11.296  25.856   1.378
44154W        W17222  28.886  29.546   2.720
44155W        W17223  37.968   4.356  13.538
44156W        W17224  37.530  21.148  13.689
44157W        W17225   5.213  42.749   2.219
44158W        W17226   5.336  25.441   4.452
44159W        W17227  10.710  16.760  14.232
44160W        W17228  19.220  33.343  10.338
44161W        W17229   3.860  44.368  12.582
44162W        W17230  18.546  11.519   4.571
44163W        W17231  40.560  33.599   1.285
44164W        W17232   0.907  39.623  13.554
44165W        W17233  16.241  25.479  14.484
44166W        W17234  37.365  21.523   0.682
44167W        W17235  13.295  30.199   3.841
44168W        W17236  43.063  24.007   1.767
44169W        W17237  42.370  23.136   0.375
44170W        W17238  44.752  41.924   3.319
44171W        W17239  23.310  29.001  14.972
44172W        W17240  44.787  41.009  13.856
44173W        W17241  37.971  30.395  10.119
44174W        W17242   1.970  12.391   3.719
44175W        W17243  12.305   1.529   0.447
44176W        W17244  36.494  14.093  14.576
44177W        W17245  16.248  29.122  12.033
44178W        W17246  10.544  33.611  11.811
44179W        W17247   5.765  12.309   0.129
44180W        W17248  29.204  22.187   3.828
44181W        W17249   8.145  43.609  11.194
44182W        W17250  16.280   9.730  14.950
44183W        W17251  32.671  22.668   0.813
44184W        W17252  10.669   3.318  14.951
44185W        W17253   4.672  43.761  11.211
44186W        W17254  38.358  10.291  14.832
44187W        W17255  31.079  25.311   2.157
44188W        W17256  23.403  11.327  12.392
44189W        W17257  17.324  27.061  10.698
44190W        W17258  19.130  36.284   0.038
44191W        W17259  31.975  41.051   4.495
44192W        W17260   8.032  43.604  12.893
44193W        W17261  28.524  29.180  12.507
44194W        W17262  25.542  16.097  14.140
44195W        W17263  32.570  15.162  14.832
44196W        W17264  43.123  33.349   0.789
44197W        W17265  23.603   1.554  14.846
44198W        W17266  18.968  44.021  10.612
44199W        W17267  10.912  36.963   3.404
44200W        W17268   1.472   3.693  14.935
44201W        W17269   4.828  40.466  12.138
44202W        W17270   0.705   5.446   0.946
44203W        W17271  17.754  36.453   2.051
44204W        W17272   9.065   3.163   1.873
44205W        W17273  22.167  16.618   1.875
44206W        W17274  14.355  34.576   3.642
44207W        W17275  17.313   0.718   2.166
44208W        W17276  10.411   2.636   3.058
44209W        W17277  30.909   9.671  10.593
44210W        W17278  38.068  31.226  12.910
44211W        W17279  13.721  25.051   1.464
44212W        W17280  37.241  38.062   0.267
44213W        W17281   3.388  32.051  10.554
44214W        W17282  10.705  35.372   2.789
44215W        W17283  41.872  17.225  14.858
44216W        W17284   5.740   7.291  13.262
44217W        W17285  10.743  14.187   0.823
44218W        W17286  25.718  10.371  12.931
44219W        W17287  10.198   5.927  13.531
44220W        W17288  24.515  26.114  14.420
44221W        W17289  32.978  26.232   3.149
44222W        W17290  20.018  14.376  13.581
44223W        W17291  29.958  30.922   2.914
44224W        W17292  36.273  13.787  13.370
44225W        W17293  14.873   3.323   4.200
44226W        W17294  10.638  44.298   4.579
44227W        W17295  43.843  26.412   3.693
44228W        W17296  39.694  25.979  12.635
44229W        W17297  18.673  32.154  10.702
44230W        W17298  13.004  43.745  12.781
44231W        W17299  43.785  32.161   0.921
44232W        W17300   1.474  22.597  13.175
44233W        W17301  42.444  24.916   2.269
44234W        W17302  34.483  39.900   4.166
44235W        W17303  18.100  40.774   0.218
44236W        W17304  44.851  36.100   4.137
44237W        W17305  37.708  35.643   3.368
44238W        W17306  11.873  15.799   3.363
44239W        W17307  11.116  29.485  11.569
44240W        W17308  29.247  25.476  12.732
44241W        W17309  34.679   4.076  13.976
44242W        W17310  31.152  32.961   2.413
44243W        W17311  30.745  40.916  10.969
44244W        W17312   5.718  11.142  11.979
44245W        W17313  27.617  23.001  14.046
44246W        W17314   3.943  18.677  14.278
44247W        W17315  25.413  15.076   0.307
44248W        W17316  26.555  17.419   4.540
44249W        W17317   7.856   0.271   0.697
44250W        W17318  12.116  31.453  12.442
44251W        W17319  21.615  18.775   2.257
44252W        W17320  24.831  34.740  13.470
44253W        W17321   3.954  17.682   2.122
44254W        W17322  31.539  35.895  10.716
44255W        W17323  42.486   2.839   4.010
44256W        W17324  29.504  43.487  13.012
44257W        W17325  30.627  34.905   2.415
44258W        W17326  26.283   0.487   1.514
44259W        W17327  38.294  14.630   1.169
44260W        W17328  42.565   1.784  14.959
44261W        W17329   9.744   6.710  13.140
44262W        W17330  33.662  18.411  11.027
44263W        W17331  26.115  34.208   4.752
44264W        W17332   7.182  22.785   0.309
44265W        W17333  43.716   7.823  13.918
44266W        W17334  28.936  27.046   4.755
44267W        W17335  44.254  42.451   1.220
44268W        W17336   6.419  34.599   3.370
44269W        W17337  37.600  32.589  13.091
44270W        W17338  38.194  24.182   3.279
44271W        W17339  38.794  14.100   3.426
44272W        W17340  22.546  31.008  11.995
44273W        W17341  17.024   7.226   4.708
44274W        W17342   0.847   3.380   3.101
44275W        W17343  13.655  31.506   0.677
44276W        W17344  19.291  19.741   2.421
44277W        W17345  11.701  10.167  13.074
44278W        W17346  33.442  21.783   1.510
44279W        W17347  40.109   7.242   0.794
44280W        W17348  18.643  20.751   3.821
44281W        W17349  41.866  19.534   1.697
44282W        W17350   9.377   3.722  14.307
44283W        W17351  24.156  16.480   1.026
44284W        W17352  24.423  11.731   4.703
44285W        W17353  42.439  30.572  12.091
44286W        W17354  19.529   0.326   3.286
44287W        W17355  33.492  30.466  11.257
44288W        W17356  40.441  15.182  13.024
44289W        W17357   1.019  14.256   3.738
44290W        W17358  13.756  28.410  12.170
44291W        W17359  23.703  29.935   0.454
44292W        W17360  11.800  18.079  12.084
44293W        W17361  28.208  41.089  12.443
44294W        W17362   0.760  16.722  13.559
44295W        W17363  22.294  21.064   2.308
44296W        W17364   6.247  40.324  12.400
44297W        W17365  24.996  30.427  12.676
44298W        W17366  25.126  34.967  11.887
44299W        W17367  21.790   6.214  13.456
44300W        W17368   2.724  42.035   4.612
44301W        W17369  27.735  35.964  10.725
44302W        W17370  33.134  37.031   4.086
44303W        W17371   3.249   1.700   3.722
44304W        W17372   4.391  33.534  12.519
44305W        W17373  38.783  33.926   4.310
44306W        W17374  18.286   3.213   2.692
44307W        W17375  38.326  30.165  13.584
44308W        W17376  24.416  28.157  13.917
44309W        W17377  31.350  32.799  13.895
44310W        W17378  18.379  15.024   1.456
44311W        W17379  43.505  37.386   2.029
44312W        W17380  30.406   5.221   0.763
44313W        W17381  30.988  26.440   4.021
44314W        W17382  40.507  38.999   0.818
44315W        W17383   0.359  37.409   3.168
44316W        W17384   0.972   2.768   1.705
44317W        W17385  31.590   9.917  12.845
44318W        W17386  33.514   1.832   0.023
44319W        W17387  44.163  33.537   4.616
44320W        W17388  28.626  21.639   2.919
44321W        W17389  10.268  22.043   3.052
44322W        W17390  28.312  33.557  12.002
44323W        W17391  26.788   1.740  12.366
44324W        W17392  11.594  42.379  11.163
44325W        W17393  19.997  24.007  11.988
44326W        W17394   5.155  22.848   1.453
44327W        W17395  22.667   6.445   5.158
44328W        W17396  22.963  14.198   3.223
44329W        W17397  22.182  40.547  14.773
44330W        W17398  26.670  33.498   0.831
44331W        W17399  22.868  37.437   0.794
44332W        W17400   0.678  15.084   3.276
44333W        W17401  30.489  31.174  10.748
44334W        W17402  32.550  13.738  12.483
44335W        W17403   4.371  13.677  11.560
44336W        W17404  40.467  18.857  11.050
44337W        W17405  42.837   1.335   4.168
44338W        W17406  34.308  18.032  14.506
44339W        W17407  44.368  29.820  10.757
44340W        W17408  44.815  20.238  11.164
44341W        W17409  25.050  17.127   3.623
44342W        W17410  13.148  37.315   4.987
44343W        W17411   1.163   8.778  13.393
44344W        W17412   0.052  12.284  12.061
44345W        W17413  33.149   9.964   0.467
44346W        W17414  29.230  22.968   0.212
44347W        W17415   8.851  32.009  14.739
44348W        W17416  25.055  12.363  11.867
44349W        W17417   3.368  21.076  12.563
44350W        W17418  27.699  16.831  14.827
44351W        W17419  44.126  26.795   2.287
44352W        W17420  34.590  41.480  12.977
44353W        W17421   6.470  16.205  11.233
44354W        W17422  30.619  23.280   1.736
44355W        W17423  26.024  44.794   1.816
44356W        W17424  37.763  33.086   9.628
44357W        W17425  14.596  34.445   0.776
44358W        W17426  41.457  28.623  14.328
44359W        W17427  40.780  14.102   4.086
44360W        W17428   1.451   0.002   1.634
44361W        W17429  30.506  25.684   3.222
44362W        W17430  19.628   6.808  11.421
44363W        W17431   8.152  43.118   2.863
44364W        W17432  42.076  19.521   5.018
44365W        W17433  42.946   6.830  12.068
44366W        W17434  42.052  13.876   3.311
44367W        W17435  38.601  24.935   4.572
44368W        W17436  14.542  20.055  13.462
44369W        W17437   6.440  36.487   1.746
44370W        W17438  37.478  21.300   4.052
44371W        W17439  16.563  25.623  11.539
44372W        W17440  13.676   2.399   3.615
44373W        W17441  13.359  39.326   3.206
44374W        W17442  32.320  34.133  14.485
44375W        W17443  19.330  36.197  13.052
44376W        W17444  42.778  24.954  13.805
44377W        W17445  36.154  29.579   1.817
44378W        W17446  13.049  21.301  12.968
44379W        W17447  29.919  23.166  10.560
44380W        W17448  28.623   0.065   0.838
44381W        W17449  41.872  41.843  13.774
44382W        W17450  19.307   8.209   3.111
44383W        W17451   4.380  28.906   0.396
44384W        W17452  28.595  14.600   1.292
44385W        W17453  11.262  14.296  12.790
44386W        W17454  42.981   2.952  10.618
44387W        W17455  12.393   3.641   3.201
44388W        W17456  36.005  22.167   2.086
44389W        W17457  29.599  44.965  13.912
44390W        W17458  18.132   5.269  11.394
44391W        W17459  16.705   8.108   2.789
44392W        W17460  12.780  24.422   1.719
44393W        W17461  37.988  34.525   1.579
44394W        W17462  38.872  26.530  11.461
44395W        W17463   9.084   3.131   3.716
44396W        W17464  29.590  31.256  11.121
44397W        W17465  18.747  27.775   2.618
44398W        W17466  15.708  19.681   2.811
44399W        W17467  35.401   4.707  12.548
44400W        W17468  12.768  42.004  10.887
44401W        W17469  44.565  28.258  14.395
44402W        W17470  40.269   8.222   1.788
44403W        W17471   3.755  34.320  11.518
44404W        W17472  10.060  33.832  13.093
44405W        W17473  21.668  34.912  11.100
44406W        W17474  35.647  12.267  12.937
44407W        W17475  42.440   7.302  10.944
44408W        W17476  25.092  27.605   4.788
44409W        W17477  11.215  18.572   3.060
44410W        W17478  26.983   3.895   3.327
44411W        W17479  18.020  10.392  14.456
44412W        W17480  34.535  32.331  10.235
44413W        W17481  21.250  35.968  14.479
44414W        W17482  22.220  37.641   2.843
44415W        W17483  29.204  22.020   0.370
44416W        W17484  31.297  13.593  11.641
44417W        W17485  36.437  28.039  14.841
44418W        W17486  29.437  20.516  10.702
44419W        W17487   0.943  10.242   1.795
44420W        W17488  37.894  38.875  13.575
44421W        W17489  19.464  23.140   0.873
44422W        W17490  36.015  18.089  13.763
44423W        W17491  43.486  14.742   4.747
44424W        W17492  39.410   3.532   1.964
44425W        W17493  34.162  11.174  10.902
44426W        W17494  21.569  13.133   2.390
44427W        W17495  28.633   5.208  13.789
44428W        W17496  11.072  28.217   1.842
44429W        W17497   2.899  40.728  12.018
44430W        W17498  13.349  43.188   2.802
44431W        W17499  26.137   7.075  11.579
44432W        W17500   3.859  25.721   3.878
44433W        W17501  42.243  12.813   2.742
44434W        W17502   6.433   2.459   0.801
44435W        W17503  31.196  16.307  14.853
44436W        W17504  33.929  42.454  11.201
44437W        W17505   1.508   7.186   0.854
44438W        W17506  24.518  16.835  13.017
44439W        W17507  23.695  27.648   1.275
44440W        W17508  37.397   3.209   2.208
44441W        W17509  18.017  28.699   0.215
44442W        W17510  41.352  36.811   0.364
44443W        W17511  16.094  16.700   1.324
44444W        W17512  37.597   2.344  10.982
44445W        W17513  31.656  32.370   0.437
44446W        W17514  33.575  21.594  10.751
44447W        W17515  22.854  13.845   3.901
44448W        W17516  21.504  29.891  11.154
44449W        W17517  26.776  36.886   1.805
44450W        W17518  42.426  21.329  13.246
44451W        W17519   9.688  36.959   1.718
44452W        W17520  27.554  25.229   1.381
44453W        W17521  33.323  43.868   2.717
44454W        W17522   5.722  20.048   4.118
44455W        W17523  43.424  26.426   1.383
44456W        W17524   8.286  16.640  11.591
44457W        W17525   5.815  38.029  13.735
44458W        W17526  42.757  20.781   3.727
44459W        W17527  42.730  31.967  11.541
44460W        W17528   9.946  19.524  11.168
44461W        W17529  22.461   8.894   3.245
44462W        W17530   5.446  18.198  11.848
44463W        W17531   4.659  38.331  11.459
44464W        W17532   2.162  33.899   0.576
44465W        W17533  40.945  16.562  10.181
44466W        W17534  18.391   3.626   0.829
44467W        W17535  23.074  43.825   1.769
44468W        W17536   2.977  32.447  10.711
44469W        W17537  44.416   2.823  12.535
44470W        W17538   7.968  27.443  14.376
44471W        W17539  14.160  30.179  13.459
44472W        W17540  18.535  12.091  12.588
44473W        W17541  44.998  34.889   2.349
44474W        W17542  21.089  38.502   4.558
44475W        W17543  24.980  20.804   3.827
44476W        W17544  37.800  35.136   4.271
44477W        W17545  31.313  18.561  11.547
44478W        W17546  41.208  24.449  14.884
44479W        W17547   0.794  32.712   3.832
44480W        W17548   4.688  10.585  13.084
44481W        W17549  33.232  19.256   1.012
44482W        W17550   8.368  17.143   3.912
44483W        W17551  35.026  11.275  14.446
44484W        W17552  11.631  14.237  13.803
44485W        W17553   4.279  44.751   3.892
44486W        W17554  18.240  27.375   3.817
44487W        W17555  33.539  16.577   1.260
44488W        W17556  11.163  37.429   3.168
44489W        W17557  42.053   3.666  12.144
44490W        W17558   8.286  19.536  14.017
44491W        W17559  20.743  19.237  11.535
44492W        W17560  37.407  35.753   1.261
44493W        W17561  13.167  15.803   5.068
44494W        W17562  35.059  39.446   0.919
44495W        W17563   9.381   2.637  12.978
44496W        W17564  12.620  17.704  13.461
44497W        W17565   6.367  18.025  12.327
44498W        W17566  32.814  35.904   3.718
44499W        W17567  32.570  10.177  12.998
44500W        W17568  25.952  20.329   1.775
44501W        W17569  43.393  26.947   1.343
44502W        W17570  40.683   5.474   5.081
44503W        W17571  37.232   7.568  10.653
44504W        W17572  35.503  22.580  13.767
44505W        W17573  42.061  39.284  13.865
44506W        W17574  13.204  15.670  12.877
44507W        W17575  31.642  28.972   5.043
44508W        W17576  44.769   3.419  12.155
44509W        W17577  37.876  18.783   0.409
44510W        W17578  33.953   7.576   2.652
44511W        W17579   5.529   3.721  10.524
44512W        W17580  12.718   6.714  12.655
44513W        W17581  16.188  42.089  14.166
44514W        W17582  22.259  37.848   3.323
44515W        W17583   1.479  32.100  12.960
44516W        W17584  35.556   8.409   1.157
44517W        W17585  25.544  36.485   2.201
44518W        W17586  44.004  17.227   0.464
44519W        W17587  20.615   6.608   3.836
44520W        W17588  27.003  38.821  13.787
44521W        W17589  24.092  16.064   0.708
44522W        W17590  31.987  21.352  13.302
44523W        W17591  15.752  26.146  10.322
44524W        W17592  31.368  23.509  12.534
44525W        W17593  20.297  36.446  12.904
44526W        W17594  33.281  14.681   4.775
44527W        W17595   2.377  20.156  13.893
44528W        W17596  25.225  21.611  14.102
44529W        W17597  40.051  33.656  13.350
44530W        W17598  38.376  31.722  11.195
44531W        W17599  35.897  31.855   3.119
44532W        W17600   5.083  11.319  12.637
44533W        W17601  11.522  41.761   1.897
44534W        W17602  25.448   4.925   0.893
44535W        W17603   0.923  17.720   2.861
44536W        W17604  24.522  44.475   0.868
44537W        W17605  19.772  43.061   4.932
44538W        W17606  44.610  38.923   4.041
44539W        W17607  38.480  44.447  11.852
44540W        W17608  20.229  15.603  12.421
44541W        W17609   9.407  44.815   0.714
44542W        W17610  36.447  15.575   1.728
44543W        W17611  35.380   6.631   3.775
44544W        W17612  30.983  22.324  10.636
44545W        W17613  35.594   2.732  14.006
44546W        W17614   1.272  32.448  13.318
44547W        W17615  24.066  42.089   3.528
44548W        W17616  27.159  41.221  11.094
44549W        W17617  14.548  35.864   3.343
44550W        W17618  39.888  28.215  13.437
44551W        W17619  30.888   4.713   3.183
44552W        W17620  24.337  27.535  11.126
44553W        W17621  13.957  29.013   2.179
44554W        W17622  28.732  17.595   3.334
44555W        W17623  33.155   4.532   0.270
44556W        W17624  24.514   4.281  13.877
44557W        W17625  18.174  25.883   4.018
44558W        W17626  20.289  23.497   2.398
44559W        W17627  12.270  35.640   0.253
44560W        W17628   3.092  34.821  14.909
44561W        W17629   1.795  27.189   4.496
44562W        W17630   9.206  29.023  14.574
44563W        W17631  31.179  30.991   0.862
44564W        W17632  44.491   4.910   1.942
44565W        W17633  10.756  28.475  13.891
44566W        W17634   4.896  15.035  11.865
44567W        W17635  31.761  17.084   5.184
44568W        W17636  29.801  21.534   1.465
44569W        W17637  31.455  35.198  12.147
44570W        W17638  18.977  33.876   1.536
44571W        W17639  30.610  35.049   0.497
44572W        W17640  14.452  11.563  10.758
44573W        W17641  14.837  23.039   4.449
44574W        W17642  12.277   3.614  12.096
44575W        W17643  27.065  27.619   2.154
44576W        W17644   8.774  13.686   4.119
44577W        W17645  33.352   4.075   0.516
44578W        W17646   9.346  29.096   2.842
44579W        W17647  14.862  29.876  14.204
44580W        W17648  14.955  26.899  14.331
44581W        W17649  31.623   4.734  12.612
44582W        W17650  24.762  12.686   4.068
44583W        W17651  14.287   1.551  13.841
44584W        W17652  40.154   9.222   2.316
44585W        W17653  28.501  20.708  13.229
44586W        W17654  20.139  35.258  10.255
44587W        W17655   1.811  23.664   1.943
44588W        W17656  18.177   1.236   2.412
44589W        W17657  30.501   8.918  11.227
44590W        W17658  22.038  41.246   3.720
44591W        W17659   2.503   4.695   0.161
44592W        W17660  27.332  33.596  12.045
44593W        W17661  35.004  10.459   2.346
44594W        W17662   2.263  12.841   3.661
44595W        W17663  30.405  40.572  13.260
44596W        W17664  41.585  25.272  12.283
44597W        W17665  33.510  36.982  11.632
44598W        W17666  34.700  32.821  10.305
44599W        W17667  21.607  31.998   4.123
44600W        W17668  15.022  23.586  10.991
44601W        W17669  29.386  43.805   0.949
44602W        W17670  25.085  33.332   2.321
44603W        W17671  37.659  17.640   0.232
44604W        W17672   4.809  42.929  13.429
44605W        W17673  31.523  27.118  14.370
44606W        W17674   3.297  38.283   2.355
44607W        W17675  13.008  17.058   4.950
44608W        W17676  16.271  16.788  13.432
44609W        W17677  12.138   8.681  11.090
44610W        W17678  27.660  38.885   0.418
44611W        W17679  22.993   1.147  11.573
44612W        W17680  24.466  26.943  11.651
44613W        W17681  44.425   3.320   1.340
44614W        W17682  38.017  38.394  14.296
44615W        W17683   1.864  12.764  10.589
44616W        W17684  29.881   2.018   3.281
44617W        W17685  18.310  42.809  11.220
44618W        W17686  15.556  29.125   0.122
44619W        W17687  20.737  20.808   1.860
44620W        W17688  44.421  34.607   4.402
44621W        W17689  40.775  30.210   2.844
44622W        W17690  18.615  15.351  13.481
44623W        W17691  30.504   7.858  14.431
44624W        W17692  12.157  22.760   3.185
44625W        W17693  38.407  40.589   1.234
44626W        W17694   3.973  44.945  12.054
44627W        W17695  19.914  37.888  13.184
44628W        W17696   5.318  27.467   4.621
44629W        W17697  42.196  27.762   1.266
44630W        W17698  28.422  40.902   4.736
44631W        W17699   7.765  30.624  11.961
44632W        W17700  30.415   3.383   0.384
44633W        W17701  13.585   3.429   3.699
44634W        W17702  39.103  21.085   3.286
44635W        W17703  23.181  36.585   3.550
44636W        W17704   5.825  21.318  12.542
44637W        W17705  17.869  43.496  14.677
44638W        W17706  44.034  36.774   3.803
44639W        W17707  31.685  22.734   1.459
44640W        W17708  38.808   0.786  14.542
44641W        W17709  15.230   3.402  14.885
44642W        W17710  27.260   9.774  12.463
44643W        W17711  31.953   6.178  14.231
44644W        W17712   3.802  25.536   0.624
44645W        W17713  16.590  38.051   1.873
44646W        W17714   0.755  44.382  12.360
44647W        W17715  38.108  30.084  12.322
44648W        W17716   5.733   7.061  11.128
44649W        W17717  18.350  12.099   2.849
44650W        W17718   1.486  44.289   0.924
44651W        W17719  40.374   6.809   0.498
44652W        W17720  41.956  19.259  14.924
44653W        W17721  16.936  13.192  12.348
44654W        W17722  26.185   3.120   3.418
44655W        W17723  18.981  21.603  13.114
44656W        W17724  36.998  12.231  13.216
44657W        W17725  13.347  13.360  14.319
44658W        W17726  31.888  20.721   3.684
44659W        W17727   2.508  23.719  10.531
44660W        W17728  43.052  11.774   3.690
44661W        W17729  24.152  22.145   3.771
44662W        W17730   3.318   5.978  14.120
44663W        W17731  28.014   7.769  12.012
44664W        W17732  30.950  27.077   4.666
44665W        W17733   3.432  31.211   2.289
44666W        W17734  21.716  37.364  10.644
44667W        W17735   4.255  36.682   5.011
44668W        W17736  14.573  28.142   2.220
44669W        W17737   8.417  41.855   1.778
44670W        W17738   2.100  15.806   0.720
44671W        W17739   8.430  34.221   3.871
44672W        W17740   8.201  14.201  12.314
44673W        W17741  10.301  31.360  10.317
44674W        W17742   3.943  14.720   4.862
44675W        W17743   8.019  36.835  12.665
44676W        W17744  27.193  44.449   1.977
44677W        W17745  10.273   8.272  13.910
44678W        W17746  13.356   0.857   4.199
44679W        W17747  26.055  17.546   4.815
44680W        W17748  23.636  16.739  12.429
44681W        W17749  40.448  23.561  12.971
44682W        W17750  24.173  25.967  12.424
44683W        W17751  17.282  23.808  11.174
44684W        W17752   1.975  24.183   3.224
44685W        W17753  10.422   7.584   1.283
44686W        W17754   9.091  33.821   0.021
44687W        W17755  36.281   7.412  11.190
44688W        W17756  28.553  15.213  12.754
44689W        W17757  11.670  43.899   2.565
44690W        W17758  33.874   8.209  13.573
44691W        W17759  30.417   4.212  11.457
44692W        W17760  43.281   4.417   3.729
44693W        W17761  10.706  24.452  13.271
44694W        W17762  22.463  26.948   4.588
44695W        W17763  39.007  33.851   0.395
44696W        W17764  20.313  19.648   2.676
44697W        W17765  14.174  26.643  13.388
44698W        W17766  11.141   8.793   3.196
44699W        W17767   4.455  10.881   3.221
44700W        W17768  29.606  43.353   1.863
44701W        W17769  43.018   7.822  12.655
44702W        W17770  23.699  32.049   3.641
44703W        W17771  17.240  15.308  11.211
44704W        W17772  28.194  32.431   2.304
44705W        W17773  29.705  36.530  14.278
44706W        W17774  11.300  27.660   2.729
44707W        W17775  41.937  26.229  13.912
44708W        W17776   0.816  23.148  10.731
44709W        W17777  13.369  43.298  13.534
44710W        W17778  28.672  12.209  10.380
44711W        W17779   0.269  30.501  11.574
44712W        W17780  31.800  14.140  13.846
44713W        W17781  36.958  39.259  14.418
44714W        W17782  22.513  20.206  13.472
44715W        W17783  22.683  36.358  14.901
44716W        W17784  35.170  23.790  14.238
44717W        W17785  27.170  28.551   1.448
44718W        W17786   4.313  44.544  10.617
44719W        W17787  32.093  40.505   1.365
44720W        W17788  33.533  44.077  12.516
44721W        W17789  19.590  28.546   3.363
44722W        W17790   0.531  39.298  12.037
44723W        W17791  23.962  27.110  11.661
44724W        W17792  33.800  22.268   4.078
44725W        W17793  14.554  43.321  14.423
44726W        W17794  30.030   1.174   1.374
44727W        W17795   3.712  13.366  14.883
44728W        W17796   4.036  27.618   1.639
44729W        W17797  15.391   2.998  12.763
44730W        W17798  12.910  33.556   3.263
44731W        W17799  34.997  14.534  13.372
44732W        W17800  44.356  33.412   3.732
44733W        W17801  39.962  19.808  12.073
44734W        W17802  16.327  28.604  11.313
44735W        W17803  28.502  22.984   3.468
44736W        W17804  43.792  26.041   3.300
44737W        W17805  31.641  19.958  12.480
44738W        W17806  22.037  12.146  11.999
44739W        W17807  10.597  17.751   3.294
44740W        W17808   1.308  33.086   0.213
44741W        W17809  33.867  31.900  12.430
44742W        W17810   6.803   1.064  11.417
44743W        W17811  12.772  40.904   4.793
44744W        W17812   6.585  27.950   3.665
44745W        W17813  13.834  23.007  14.777
44746W        W17814   9.263  13.594   4.230
44747W        W17815  37.008  39.599   2.379
44748W        W17816  36.569   0.453  14.835
44749W        W17817  41.426   2.461   3.834
44750W        W17818  16.891  21.104  12.893
44751W        W17819   6.104  12.206   2.319
44752W        W17820  17.637  29.992   4.249
44753W        W17821  38.001   2.936  13.153
44754W        W17822  40.322  38.992   2.796
44755W        W17823   6.476   3.032   0.391
44756W        W17824   1.931  18.983  14.375
44757W        W17825  30.178  10.195   2.317
44758W        W17826   7.473  19.219  12.206
44759W        W17827  37.566   4.522  14.321
44760W        W17828  40.200  36.777   4.534
44761W        W17829   1.554  13.897  14.447
44762W        W17830  19.752  23.853   3.370
44763W        W17831  29.395  36.540  14.902
44764W        W17832  16.334  23.902  11.166
44765W        W17833  32.422  35.585  11.457
44766W        W17834  40.033   0.947   1.108
44767W        W17835   1.404   2.256   2.317
44768W        W17836   5.389  26.447  13.866
44769W        W17837   0.324  41.772   4.163
44770W        W17838  34.443  35.583  13.847
44771W        W17839  24.094   3.206  13.291
44772W        W17840  17.908  19.939   1.184
44773W        W17841  27.036  15.701  14.937
44774W        W17842  17.813  43.819  11.438
44775W        W17843  35.310  20.025   2.251
44776W        W17844  31.672  28.616   0.805
44777W        W17845  17.151  20.636   0.534
44778W        W17846  19.025  32.546   3.588
44779W        W17847  44.527   7.218  11.064
44780W        W17848  12.838   6.424   4.402
44781W        W17849  24.723  11.627   1.287
44782W        W17850  16.292  26.758   1.313
44783W        W17851   1.927  39.830  12.466
44784W        W17852  23.738  13.852   4.161
44785W        W17853  10.801  26.799  11.420
44786W        W17854   4.161  12.235   4.148
44787W        W17855   6.683  32.910  11.155
44788W        W17856  33.097  16.381   1.476
44789W        W17857  44.806  28.589  11.869
44790W        W17858   6.431  29.182  12.890
44791W        W17859  40.831  14.673  11.609
44792W        W17860   7.875   2.168  10.466
44793W        W17861   7.226  31.973   2.199
44794W        W17862  17.271   7.228  13.497
44795W        W17863  14.880  41.344  12.286
44796W        W17864  17.243  41.806   2.223
44797W        W17865  37.527  12.130  10.480
44798W        W17866   0.190  28.937   0.784
44799W        W17867   6.674  31.632  13.977
44800W        W17868  41.524  30.083  11.590
44801W        W17869  17.269  15.357   0.934
44802W        W17870   7.616  16.965   2.701
44803W        W17871   6.161  10.692  14.557
44804W        W17872   1.534   0.560  14.078
44805W        W17873   6.134  24.669  13.879
44806W        W17874  31.562  34.061   3.587
44807W        W17875  41.234  18.344   1.128
44808W        W17876  10.199   0.447  14.960
44809W        W17877  11.668  38.779  12.554
44810W        W17878   4.499  33.580  13.574
44811W        W17879  26.550  36.474   4.687
44812W        W17880  22.747  29.436  13.746
44813W        W17881  33.954  22.646  14.017
44814W        W17882  30.606  31.709   1.762
44815W        W17883  10.143   5.668  14.569
44816W        W17884  21.207   1.789  12.569
44817W        W17885  21.744   5.948   4.199
44818W        W17886  24.506  40.708   3.761
44819W        W17887   6.672   8.420  11.028
44820W        W17888  17.160   9.851  14.702
44821W        W17889  37.597  25.530  12.152
44822W        W17890  13.156  38.204   2.390
44823W        W17891  33.994   6.446   4.733
44824W        W17892  22.724  13.448   1.788
44825W        W17893   3.751   2.461   2.770
44826W        W17894   1.203   6.930   0.463
44827W        W17895   4.635  17.723   0.037
44828W        W17896  29.978  35.354   1.271
44829W        W17897  25.537  11.240   1.514
44830W        W17898  25.384  18.948  14.834
44831W        W17899  27.649  21.558   1.961
44832W        W17900   9.149   8.596  11.062
44833W        W17901   8.955  33.890   4.746
44834W        W17902  40.999   3.321   0.665
44835W        W17903  24.592  31.858  10.114
44836W        W17904  11.185  14.076   1.077
44837W        W17905   5.647   1.948   0.294
44838W        W17906   0.300  21.266  12.369
44839W        W17907   0.467   1.765  12.554
44840W        W17908   1.698  28.912  12.920
44841W        W17909  17.751   8.826   4.693
44842W        W17910  23.454  21.086  14.796
44843W        W17911   1.014  37.263   0.861
44844W        W17912   0.363  27.667   1.455
44845W        W17913   6.451  30.106  14.001
44846W        W17914   2.427  32.159   4.522
44847W        W17915   8.839  17.318  14.366
44848W        W17916  37.925  37.501  13.752
44849W        W17917   4.277  18.165  13.034
44850W        W17918  23.487  11.088   0.241
44851W        W17919  15.059  14.160  12.348
44852W        W17920  21.139   3.763   0.400
44853W        W17921  25.283  38.315   2.454
44854W        W17922   8.933  40.938  14.038
44855W        W17923   5.246  12.337   2.391
44856W        W17924   7.142  30.911  11.094
44857W        W17925   4.797  39.506   0.268
44858W        W17926  18.684  35.103  11.918
44859W        W17927   4.272  12.438   3.352
44860W        W17928  31.214  34.494   3.793
44861W        W17929  17.733  13.387   1.291
44862W        W17930  35.521  26.465   2.299
44863W        W17931  18.963   9.138  10.700
44864W        W17932  33.455  18.261  14.082
44865W        W17933  41.817  40.462   3.284
44866W        W17934   2.031  12.622   3.248
44867W        W17935  19.777  28.192   4.548
44868W        W17936  14.662  19.838  11.563
44869W        W17937   8.912  23.449  11.163
44870W        W17938  27.710  41.928   3.211
44871W        W17939   4.411  30.674  10.732
44872W        W17940  16.806  23.677  14.608
44873W        W17941  12.815  10.591  12.052
44874W        W17942  26.267  26.993  10.656
44875W        W17943  10.727  28.028  12.622
44876W        W17944  39.886   4.314   4.148
44877W        W17945  42.726  44.138  11.045
44878W        W17946  13.978  11.807   2.059
44879W        W17947  11.251  11.755   0.884
44880W        W17948  42.526  27.241   2.881
44881W        W17949  39.090  40.996  14.306
44882W        W17950  43.773  36.014   2.225
44883W        W17951   1.475  30.416  11.084
44884W        W17952  20.313  40.290   1.364
44885W        W17953   1.477  35.043  13.944
44886W        W17954   4.072  19.533  14.492
44887W        W17955  41.735  14.079   0.941
44888W        W17956  25.148  39.900  14.090
44889W        W17957   3.223  42.650   3.254
44890W        W17958   5.659  40.267   4.441
44891W        W17959  36.470  17.123  13.905
44892W        W17960  44.496  41.014  14.925
44893W        W17961  33.374  36.801   1.294
44894W        W17962  29.203  14.294   4.183
44895W        W17963  20.163   5.742   0.666
44896W        W17964  41.777  14.601   2.747
44897W        W17965  41.378  40.530   4.592
44898W        W17966   0.364  41.191   3.762
44899W        W17967  38.604   8.680  11.458
44900W        W17968  30.166   3.583   4.082
44901W        W17969   5.394  16.319  12.374
44902W        W17970  37.336  29.173   3.651
44903W        W17971  14.163  37.439   0.430
44904W        W17972  44.474   7.211  13.876
44905W        W17973  44.987  42.738  12.282
44906W        W17974  28.373  21.329  14.411
44907W        W17975  18.449  35.623  13.230
44908W        W17976  17.670  23.987   4.509
44909W        W17977  40.671   2.892   3.312
44910W        W17978  14.845  16.500   3.570
44911W        W17979  13.648  26.302  12.457
44912W        W17980  39.553  32.703  13.999
44913W        W17981  30.048   3.582  13.506
44914W        W17982  29.928  30.625  12.827
44915W        W17983  39.569   4.078  14.845
44916W        W17984  31.256   4.167  13.947
44917W        W17985  40.555  34.941   3.129
44918W        W17986  22.412  23.191  12.941
44919W        W17987  44.786   5.141   3.350
44920W        W17988  29.510  36.063  13.103
44921W        W17989  40.478  16.432   4.207
44922W        W17990   0.724  27.059  13.639
44923W        W17991  18.626  36.916   0.909
44924W        W17992  29.673  11.199  11.278
44925W        W17993  31.947  26.670  10.529
44926W        W17994  29.092  18.674   0.581
44927W        W17995  36.607   3.068  11.087
44928W        W17996   5.687  11.243   1.465
44929W        W17997  26.646  35.675   5.029
44930W        W17998  21.999  18.229  11.089
44931W        W17999  26.618  30.853   3.596
44932W        W18000  30.827  18.592   2.302
44933W        W18001  16.179   6.273  10.828
44934W        W18002  27.455  43.991   2.042
44935W        W18003  37.083  21.649  11.008
44936W        W18004  29.587   0.894  12.899
44937W        W18005  27.283   3.810  12.235
44938W        W18006  25.772  31.022   1.742
44939W        W18007  40.002  12.181   0.328
44940W        W18008  40.539  40.175  11.524
44941W        W18009  26.941   8.322  12.526
44942W        W18010  36.632   6.806   1.472
44943W        W18011  32.519  10.855   1.724
44944W        W18012  24.113  29.200   9.893
44945W        W18013  21.683  39.034   4.813
44946W        W18014   1.534  36.220   2.000
44947W        W18015  14.058  31.981  13.872
44948W        W18016  24.931  16.185   2.209
44949W        W18017  41.485  13.739  11.918
44950W        W18018  17.543  44.949  11.551
44951W        W18019  39.570  10.500   2.762
44952W        W18020   7.411  35.514  11.535
44953W        W18021   3.783  30.876   0.025
44954W        W18022  23.004  18.686  14.381
44955W        W18023  18.096  27.135  12.581
44956W        W18024  29.955  10.836   4.526
44957W        W18025  17.288  22.341  14.986
44958W        W18026   3.913  26.998   2.377
44959W        W18027  35.624  44.895   0.971
44960W        W18028  13.185   9.355  12.902
44961W        W18029  19.043   3.475   2.328
44962W        W18030   7.596  14.002   3.890
44963W        W18031  29.395   5.191   1.668
44964W        W18032  42.106   9.997  12.043
44965W        W18033  42.990  29.631   3.258
44966W        W18034  15.751   6.600   0.835
44967W        W18035  41.686  38.802   4.637
44968W        W18036  37.560  32.527   2.356
44969W        W18037  19.500  35.003  11.584
44970W        W18038   8.182  41.605   4.121
44971W        W18039  41.879  13.945  11.627
44972W        W18040  41.527  30.314  12.533
44973W        W18041  18.312  18.376  12.059
44974W        W18042   3.746  41.178  10.444
44975W        W18043   1.209  21.732   2.169
44976W        W18044   1.226  41.740  10.957
44977W        W18045  15.110  15.600  12.811
44978W        W18046  30.731  27.728  14.433
44979W        W18047  44.999  20.034   3.249
44980W        W18048  36.691  17.288  14.351
44981W        W18049  14.922  18.604   1.846
44982W        W18050  29.673   1.378  13.726
44983W        W18051  40.052  34.955   3.446
44984W        W18052  31.670   1.539   2.667
44985W        W18053  32.864  27.745  11.639
44986W        W18054  43.949  26.281   1.912
44987W        W18055  16.771  30.344   1.862
44988W        W18056   6.705  20.106   2.332
44989W        W18057  39.845  31.047   1.927
44990W        W18058  36.613  13.793   2.310
44991W        W18059  24.721  41.935  11.510
44992W        W18060  12.847  34.912  11.084
44993W        W18061  11.776  28.169   2.127
44994W        W18062  38.361  22.591  11.077
44995W        W18063  41.011  13.275  10.295
44996W        W18064   6.070  32.995   2.637
44997W        W18065   6.066  10.899   4.086
44998W        W18066  11.401  10.734  14.247
44999W        W18067   7.020   8.172  13.996
45000W        W18068   3.492  20.250  10.922
45001W        W18069   1.648  20.702   3.762
45002W        W18070   6.289  15.708   2.384
45003W        W18071  40.877  39.124   4.917
45004W        W18072   0.693   8.193   3.952
45005W        W18073  13.138  42.574   0.258
45006W        W18074  38.411  37.360  13.382
45007W        W18075   4.689  38.634   1.604
45008W        W18076   3.308   5.436   0.317
45009W        W18077  43.103  32.368   4.531
45010W        W18078  33.231  19.638   2.830
45011W        W18079  11.394  21.743   4.303
45012W        W18080  15.580  32.622   4.235
45013W        W18081  24.227   6.005  13.474
45014W        W18082  20.168   1.062  11.236
45015W        W18083   4.119  22.490   0.340
45016W        W18084   0.882  11.828  14.497
45017W        W18085  38.993   1.754   4.129
45018W        W18086   3.431  34.365  13.536
45019W        W18087  32.817  41.445   4.886
45020W        W18088  44.371   0.695  13.976
45021W        W18089   2.450  43.773   1.009
45022W        W18090  36.503   7.280  13.811
45023W        W18091   8.404  20.509   0.904
45024W        W18092   2.496  40.822   0.035
45025W        W18093  41.995  23.221  14.492
45026W        W18094  41.437   0.849  12.346
45027W        W18095  39.358  30.735   2.645
45028W        W18096  15.613  25.252   2.940
45029W        W18097   5.251  38.739  12.481
45030W        W18098   2.690  39.075   0.091
45031W        W18099  16.730  16.090  10.645
45032W        W18100  38.000  42.939  11.520
45033W        W18101   6.215  26.654   4.089
45034W        W18102  29.059   8.989   3.170
45035W        W18103  15.273  13.671  13.495
45036W        W18104  31.146   1.777  12.926
45037W        W18105   8.223  28.051  14.095
45038W        W18106  30.383  18.234   1.386
45039W        W18107   8.280  38.221   4.161
45040W        W18108  23.705  40.014  11.632
45041W        W18109   0.915  33.386   1.181
45042W        W18110   0.861  18.327   0.428
45043W        W18111  13.587  41.443  13.599
45044W        W18112  23.112  43.473  11.516
45045W        W18113  34.985  43.954  14.040
45046W        W18114  29.616  14.293   3.543
45047W        W18115   7.096   1.948  10.780
45048W        W18116   8.269  24.748   0.113
45049W        W18117  19.131   5.823   0.675
45050W        W18118  13.847  23.736  13.392
45051W        W18119  39.119   6.120  13.125
45052W        W18120  33.002  15.622  12.294
45053W        W18121   3.189  37.338   4.088
45054W        W18122   3.883  18.153   5.330
45055W        W18123  39.986  20.719   1.863
45056W        W18124   4.283  39.560  11.198
45057W        W18125  22.244  16.804  14.498
45058W        W18126   8.185  37.034   0.915
45059W        W18127   7.142  29.926  14.792
45060W        W18128  20.176  25.882   1.286
45061W        W18129  31.987  39.012  13.768
45062W        W18130  41.732  11.867   2.235
45063W        W18131   8.820  23.501   1.009
45064W        W18132   2.014  18.698  13.901
45065W        W18133   7.655  21.682  12.416
45066W        W18134  21.120  25.733  14.522
45067W        W18135  38.314  23.583  13.924
45068W        W18136  40.576   1.905   4.598
45069W        W18137  34.501   6.375  14.055
45070W        W18138  23.749  25.258  14.348
45071W        W18139  10.602  40.878  11.072
45072W        W18140  43.794   1.432   4.273
45073W        W18141  33.551   2.204   0.939
45074W        W18142   1.127  19.751   3.813
45075W        W18143   5.945   7.698   4.787
45076W        W18144  35.821   8.851   0.667
45077W        W18145   1.246  26.653   0.059
45078W        W18146  43.887  16.695   1.465
45079W        W18147   3.225  11.206   0.364
45080W        W18148   7.605  21.237   3.610
45081W        W18149   0.359  35.031   1.576
45082W        W18150  12.083   2.470  12.942
45083W        W18151  12.125  39.885  11.133
45084W        W18152  22.568  24.179  13.801
45085W        W18153  41.882  15.282  13.808
45086W        W18154  10.125  18.253  12.895
45087W        W18155  32.580  40.990  11.886
45088W        W18156  41.081  11.019   1.751
45089W        W18157  33.611  37.790  14.156
45090W        W18158  14.110  13.199   4.630
45091W        W18159  39.410  28.031  14.290
45092W        W18160  18.470  36.440  11.620
45093W        W18161  20.067   9.483   2.525
45094W        W18162  14.407   8.120  13.449
45095W        W18163  15.870   8.172  12.514
45096W        W18164  29.694   0.263   4.544
45097W        W18165  14.844  20.603   0.028
45098W        W18166  39.289  41.550  12.101
45099W        W18167  28.617  29.539   2.265
45100W        W18168  18.308  30.186   0.856
45101W        W18169  33.296  14.096   0.791
45102W        W18170  39.485  11.151  11.034
45103W        W18171  24.122  33.643   2.392
45104W        W18172  38.782   6.739  12.070
45105W        W18173  27.169  27.690  13.374
45106W        W18174  27.027  21.970  13.328
45107W        W18175  42.611  32.545   3.783
45108W        W18176  16.186  22.689   1.494
45109W        W18177  24.624  29.586   0.347
45110W        W18178  10.955   6.785  13.408
45111W        W18179  24.605  14.371  11.921
45112W        W18180  38.573  26.147  11.221
45113W        W18181  31.414  38.485   2.921
45114W        W18182  25.038  29.630  14.991
45115W        W18183  17.417  32.335  13.998
45116W        W18184   5.119  39.545   0.669
45117W        W18185  20.972   8.449   0.848
45118W        W18186  12.863  35.812  11.206
45119W        W18187  22.213   3.476  14.968
45120W        W18188  13.048  16.684   0.457
45121W        W18189  10.602   5.651  10.941
45122W        W18190  30.618  35.894   4.091
45123W        W18191  20.171  12.286  13.980
45124W        W18192   7.810   6.045   0.319
45125W        W18193  33.494  34.438   2.856
45126W        W18194  32.509  33.639   1.233
45127W        W18195  41.514  31.580   4.227
45128W        W18196   2.176  24.142  13.047
45129W        W18197  25.041  38.627   4.594
45130W        W18198  40.196  19.040  12.722
45131W        W18199   7.362  26.383  11.099
45132W        W18200  42.475  36.529   3.665
45133W        W18201   7.327  20.223  12.122
45134W        W18202  17.570  44.444  11.640
45135W        W18203   8.073  42.999  14.710
45136W        W18204   8.554  20.679   3.228
45137W        W18205  27.237   0.016  11.104
45138W        W18206  40.469  42.371  11.193
45139W        W18207  10.957  30.078  14.467
45140W        W18208  41.408  42.540   2.245
45141W        W18209  43.160   2.748   2.584
45142W        W18210  44.353  12.601  14.537
45143W        W18211  37.097  35.068   0.702
45144W        W18212  22.590  13.162  14.695
45145W        W18213   7.742  40.568   3.101
45146W        W18214  25.102  24.955  13.358
45147W        W18215   1.968  32.866  11.910
45148W        W18216  22.138  10.413   4.607
45149W        W18217  22.231   0.768   0.514
45150W        W18218  10.434  41.018   1.459
45151W        W18219  36.504  41.334   4.121
45152W        W18220   0.914  30.528  14.492
45153W        W18221  34.452  10.274   4.523
45154W        W18222   5.154   1.981   2.711
45155W        W18223  25.725  12.870   0.473
45156W        W18224  21.059  23.483  13.377
45157W        W18225   2.277  38.380  12.540
45158W        W18226  41.423  24.429   2.161
45159W        W18227   8.715  38.059  11.100
45160W        W18228   4.930  13.120  14.570
45161W        W18229  20.779  20.303   3.192
45162W        W18230  20.177  37.675   3.789
45163W        W18231  27.155  44.326   2.471
45164W        W18232   8.412  17.164   4.821
45165W        W18233  32.361  22.155   0.335
45166W        W18234  41.937  30.667  13.273
45167W        W18235  43.261  23.148   2.245
45168W        W18236  43.296  13.072   0.754
45169W        W18237   5.729  39.236  10.646
45170W        W18238  30.456  34.067  14.505
45171W        W18239  40.374   5.096   2.904
45172W        W18240   4.670  16.171   1.747
45173W        W18241   6.405  11.287  11.269
45174W        W18242  24.571  19.172   1.356
45175W        W18243  10.747  25.804   2.852
45176W        W18244   5.351  19.380   1.153
45177W        W18245  13.130  39.034   0.317
45178W        W18246  36.006  13.659  12.913
45179W        W18247  28.054  42.847  13.099
45180W        W18248  13.628  19.674   3.159
45181W        W18249  19.946  18.863   0.864
45182W        W18250   4.890  11.348  10.867
45183W        W18251  43.467  11.501  12.473
45184W        W18252  20.053   8.269   1.940
45185W        W18253  23.810  33.658   0.268
45186W        W18254  14.288  22.187   2.851
45187W        W18255  10.558  16.735   0.964
45188W        W18256  22.140   1.715  13.134
45189W        W18257   7.226   3.823   4.508
45190W        W18258  23.342  30.519   4.151
45191W        W18259   4.913   5.460   2.445
45192W        W18260  19.968  39.969  11.106
45193W        W18261  13.619  38.969   2.175
45194W        W18262   9.815  20.853   2.756
45195W        W18263  42.182  25.772  11.842
45196W        W18264  25.068   8.897   2.835
45197W        W18265  35.900   5.161  11.595
45198W        W18266  21.058   6.497   2.764
45199W        W18267  37.871  10.283  12.109
45200W        W18268  27.472  14.294   0.605
45201W        W18269  22.964  32.983   0.142
45202W        W18270  20.243  29.398   3.133
45203W        W18271  29.318   4.446   1.734
45204W        W18272  10.886  33.701   2.897
45205W        W18273  40.733  30.968  12.882
45206W        W18274   6.186  39.347  10.984
45207W        W18275  22.580   4.760   3.072
45208W        W18276  33.480  36.169   1.922
45209W        W18277  34.605   3.405  12.835
45210W        W18278   1.848  19.642   3.153
45211W        W18279  39.770   5.792  13.262
45212W        W18280  20.739  14.046  12.999
45213W        W18281  38.608  35.862   4.610
45214W        W18282  27.140  35.046  13.323
45215W        W18283  22.100  28.926   4.115
45216W        W18284  17.774  40.357  11.942
45217W        W18285  11.069   0.717   4.592
45218W        W18286  20.841  29.988   3.298
45219W        W18287  41.959  16.082   0.804
45220W        W18288  33.743  22.197  12.387
45221W        W18289  36.591  15.853  14.254
45222W        W18290  21.686  37.311  13.539
45223W        W18291  41.774  38.435  13.420
45224W        W18292  30.540  30.691  10.901
45225W        W18293  29.153  29.484   3.743
45226W        W18294  10.897  12.820  13.609
45227W        W18295  16.488  39.652  14.368
45228W        W18296  43.231  30.621   2.591
45229W        W18297  23.987   4.683  12.523
45230W        W18298  26.185  33.477  11.613
45231W        W18299  30.357  12.600   2.244
45232W        W18300   1.750  35.469   4.850
45233W        W18301  22.676   4.286  12.316
45234W        W18302  43.751  10.423  14.494
45235W        W18303  21.271  37.356   3.827
45236W        W18304  24.959  12.233  10.255
45237W        W18305   4.214   9.264   0.980
45238W        W18306  28.928  13.489  13.336
45239W        W18307   4.237  23.279  11.071
45240W        W18308  14.866  34.385  13.219
45241W        W18309  22.200  15.740   1.912
45242W        W18310  25.984  33.169  11.060
45243W        W18311   4.325  40.356   0.487
45244W        W18312  22.696  33.593  14.910
45245W        W18313  28.098  25.574   0.212
45246W        W18314  44.391  19.210  12.180
45247W        W18315  38.248  36.421  12.532
45248W        W18316  33.130  35.076   3.178
45249W        W18317  30.051  16.827  12.921
45250W        W18318  18.747  15.897  13.276
45251W        W18319  34.436   4.283  14.756
45252W        W18320  12.043  44.375  10.041
45253W        W18321  36.624  37.066  10.534
45254W        W18322  39.825  26.614  11.463
45255W        W18323  10.342   3.919  10.507
45256W        W18324   1.030  12.805   1.049
45257W        W18325  38.447  29.887  12.688
45258W        W18326  16.888  38.031   4.845
45259W        W18327  33.148  19.286   5.244
45260W        W18328  19.655  18.358   2.842
45261W        W18329  16.308   0.530  12.148
45262W        W18330   7.840  40.522   3.591
45263W        W18331  41.000  34.583  12.884
45264W        W18332  24.529  26.269   2.102
45265W        W18333  23.578  39.051  12.567
45266W        W18334  11.648   5.851  12.791
45267W        W18335  28.301   9.225  14.113
45268W        W18336  21.526  28.111  13.280
45269W        W18337   8.762  40.532  14.303
45270W        W18338   6.355  35.597  13.738
45271W        W18339  31.833  30.120   0.908
45272W        W18340  43.351  43.083  11.671
45273W        W18341  22.195  32.835  11.029
45274W        W18342  42.544  28.104  14.320
45275W        W18343  30.718  40.985  11.841
45276W        W18344  29.662   5.985  11.149
45277W        W18345  21.661   0.622   4.554
45278W        W18346  19.247  44.424   1.735
45279W        W18347   8.413   0.086  14.808
45280W        W18348   8.756  32.371  11.423
45281W        W18349  22.153  40.748   2.446
45282W        W18350  36.871  42.037   0.658
45283W        W18351  42.295   3.307   4.173
45284W        W18352  43.452  23.669   1.684
45285W        W18353  43.057  17.147   3.243
45286W        W18354  39.368   8.783  14.275
45287W        W18355  32.703  41.446   1.723
45288W        W18356  35.343   1.421  12.099
45289W        W18357  28.211  14.775  11.311
45290W        W18358   6.698  10.410  13.364
45291W        W18359  12.146  29.911   3.419
45292W        W18360  29.915  13.617  10.656
45293W        W18361  22.644  39.768   3.280
45294W        W18362  29.137  11.304  10.644
45295W        W18363  37.928  41.970  13.479
45296W        W18364   9.408  11.111  11.153
45297W        W18365  34.793  26.110  11.383
45298W        W18366  20.585  30.655   2.794
45299W        W18367  40.343  33.007   2.185
45300W        W18368  36.622  27.546   3.128
45301W        W18369  29.423  25.945  12.610
45302W        W18370  28.471   4.133  14.786
45303W        W18371   7.282   8.160  14.985
45304W        W18372  39.691   3.807   4.128
45305W        W18373  44.446   4.487  14.415
45306W        W18374  17.240  22.226   2.761
45307W        W18375  40.550  26.349  11.084
45308W        W18376  15.684   3.249  14.449
45309W        W18377  28.179  29.443  11.193
45310W        W18378  29.125  24.097   3.800
45311W        W18379  36.030  38.133   2.356
45312W        W18380  39.531  20.761   1.292
45313W        W18381   5.080  34.369  14.882
45314W        W18382   3.891   9.199  11.948
45315W        W18383   1.470  29.222   0.333
45316W        W18384  28.728   9.437  11.083
45317W        W18385  41.166  22.531   1.919
45318W        W18386  33.057   3.221   4.961
45319W        W18387  44.843  24.226  13.544
45320W        W18388   7.435  34.444   3.673
45321W        W18389  21.312   1.099   2.250
45322W        W18390  25.901   5.274   2.281
45323W        W18391  31.081  11.240  12.425
45324W        W18392  44.961  12.070   0.909
45325W        W18393  27.039  23.138  14.772
45326W        W18394  21.039  22.104  13.116
45327W        W18395   4.742  26.261   3.661
45328W        W18396   9.364  10.611  13.648
45329W        W18397  25.350  34.800   1.789
45330W        W18398   7.883  42.017   4.029
45331W        W18399  16.456   9.301  12.526
45332W        W18400  44.705  23.593  10.312
45333W        W18401  21.586  16.328  11.633
45334W        W18402  10.727  18.767  11.590
45335W        W18403  42.639  11.795  10.676
45336W        W18404  35.664  40.877   1.721
45337W        W18405  20.723   6.792  12.177
45338W        W18406  31.323  34.621   4.299
45339W        W18407  16.531  40.601  14.831
45340W        W18408  32.854  41.076   0.308
45341W        W18409  27.015  23.763   4.211
45342W        W18410   0.999  23.991   2.375
45343W        W18411  29.580   7.958  12.797
45344W        W18412   0.852  10.369   3.202
45345W        W18413  22.784  44.049  12.893
45346W        W18414  43.938  18.498  14.907
45347W        W18415  18.771  34.030  13.864
45348W        W18416  36.257  43.385   5.033
45349W        W18417  20.819   0.366  11.708
45350W        W18418  41.454   2.032  14.319
45351W        W18419  16.566  34.023  11.786
45352W        W18420   3.888   2.436  10.887
45353W        W18421  10.703  36.359   4.842
45354W        W18422  23.910   1.119   2.938
45355W        W18423  38.051   4.872   0.007
45356W        W18424  31.095  31.097  14.424
45357W        W18425  41.513  15.892   0.978
45358W        W18426  30.157  16.552   0.410
45359W        W18427  35.051  19.214   1.812
45360W        W18428   4.102  16.997  14.001
45361W        W18429   5.668  38.775   3.293
45362W        W18430   3.655  16.266  10.318
45363W        W18431   1.458  12.094  11.047
45364W        W18432  20.326   3.714  14.458
45365W        W18433  34.266   2.964   3.719
45366W        W18434  38.474  41.924  12.384
45367W        W18435  21.642   7.918   3.592
45368W        W18436  17.592  29.517  10.759
45369W        W18437   2.383   8.316  13.912
45370W        W18438  38.972   6.122   4.757
45371W        W18439  37.343   9.198   1.769
45372W        W18440  22.219   3.451   2.532
45373W        W18441  38.537  33.052   3.438
45374W        W18442  10.276  15.858  11.557
45375W        W18443   5.746   4.448  13.532
45376W        W18444  29.680  43.758  11.063
45377W        W18445  35.072  31.131   0.744
45378W        W18446  36.914  28.237  10.730
45379W        W18447  22.599  42.013  14.690
45380W        W18448   7.409  23.659  13.775
45381W        W18449  40.408  12.488   1.661
45382W        W18450  12.357  36.846   3.314
45383W        W18451  33.816  21.287  13.428
45384W        W18452  44.830  30.316  12.980
45385W        W18453  33.557  30.013  13.745
45386W        W18454  15.169   8.222  13.958
45387W        W18455  26.964  39.162   4.934
45388W        W18456  34.870   8.897   0.896
45389W        W18457  43.801  10.662   4.181
45390W        W18458  34.364  36.573   4.264
45391W        W18459  22.932  27.615  11.967
45392W        W18460  29.525   3.170   5.218
45393W        W18461  25.510  26.153   2.312
45394W        W18462  13.811  21.202   2.715
45395W        W18463  26.005  18.519  12.969
45396W        W18464  12.154  21.530  11.900
45397W        W18465   6.729  33.461   3.077
45398W        W18466  42.393  43.481  10.805
45399W        W18467  16.478  18.762   3.365
45400W        W18468   0.818  35.089  14.802
45401W        W18469  10.225  12.924  10.466
45402W        W18470  37.882  27.104   2.156
45403W        W18471  22.438  25.483  12.004
45404W        W18472   3.750  34.687  12.401
45405W        W18473  24.172  15.716  13.406
45406W        W18474  17.619   8.764  12.794
45407W        W18475  44.629  33.366   4.687
45408W        W18476   8.201  36.337   0.214
45409W        W18477  39.917   6.911  12.610
45410W        W18478  10.680  25.561   0.391
45411W        W18479  41.280  19.984  11.117
45412W        W18480  27.175  33.055   4.616
45413W        W18481  16.959  43.402   4.827
45414W        W18482  43.436   3.786   1.962
45415W        W18483   4.902  38.391  11.000
45416W        W18484  36.020  19.131  14.734
45417W        W18485  24.324  18.779  10.396
45418W        W18486   8.438  11.787   0.503
45419W        W18487  44.840  38.767  14.418
45420W        W18488   4.615  33.010  13.807
45421W        W18489   2.339   6.193  13.496
45422W        W18490  12.285  21.234  10.658
45423W        W18491  11.325   2.252  12.591
45424W        W18492   3.432  37.181  11.910
45425W        W18493  19.540   1.485  14.425
45426W        W18494  21.813  19.638  12.109
45427W        W18495   2.301  21.941   2.686
45428W        W18496   5.100   6.981   0.782
45429W        W18497   4.501  12.238   2.808
45430W        W18498  21.344  25.623   4.113
45431W        W18499  13.557   8.253   1.850
45432W        W18500  11.621  13.616   1.249
45433W        W18501  22.075  33.004   2.939
45434W        W18502  21.478  11.730   1.256
45435W        W18503  20.505  41.604  10.532
45436W        W18504  38.238  40.923   2.399
45437W        W18505   9.315  25.443  12.820
45438W        W18506  12.348  10.779   4.228
45439W        W18507   4.487  41.939  11.418
45440W        W18508  26.833  15.288  10.909
45441W        W18509  42.778  29.068  13.437
45442W        W18510  25.276  33.016  14.383
45443W        W18511  26.177  36.928  11.721
45444W        W18512   6.497  27.439   0.410
45445W        W18513  28.303  31.537   3.206
45446W        W18514  24.291  31.660  12.000
45447W        W18515  27.870  29.152  10.799
45448W        W18516  23.557   2.025  13.748
45449W        W18517  37.152  15.271  11.169
45450W        W18518  30.677  33.812   3.207
45451W        W18519   1.808  43.180  13.070
45452W        W18520  40.793  11.744   3.241
45453W        W18521  41.838  28.140   1.168
45454W        W18522   5.512   2.615   1.426
45455W        W18523  27.627   3.317  12.977
45456W        W18524  42.953  11.288   3.474
45457W        W18525  10.194  14.665  12.011
45458W        W18526  24.626  13.143  11.136
45459W        W18527  13.685   9.935  11.900
45460W        W18528  17.229  23.476  12.501
45461W        W18529  28.530  15.299  13.342
45462W        W18530  14.185  30.350  11.534
45463W        W18531   2.386  12.423   0.830
45464W        W18532  40.341  34.644   0.406
45465W        W18533  27.261  39.366  14.727
45466W        W18534  16.111  41.236  13.008
45467W        W18535   9.329  29.573  14.815
45468W        W18536  42.582   8.640  12.113
45469W        W18537  34.418  29.131   3.722
45470W        W18538  21.175   3.335  14.515
45471W        W18539  28.099  26.076   3.193
45472W        W18540  17.637  17.089  13.185
45473W        W18541  16.789  15.742   3.975
45474W        W18542  12.242  30.988  12.674
45475W        W18543  12.854  31.025  13.898
45476W        W18544   2.894  33.367   4.210
45477W        W18545  41.586  19.689   4.963
45478W        W18546   1.783  13.380  11.093
45479W        W18547  30.600   3.290   3.292
45480W        W18548  28.617  31.915  12.003
45481W        W18549  20.565  41.316  10.954
45482W        W18550  29.188   0.074  13.595
45483W        W18551  25.069  11.614   0.813
45484W        W18552  12.403  10.148  14.541
45485W        W18553  15.123  30.219   1.769
45486W        W18554  19.186  28.885   3.295
45487W        W18555   9.426   2.337   4.928
45488W        W18556  12.291  19.762  14.784
45489W        W18557  40.328  42.906   3.770
45490W        W18558   8.926  10.115   1.790
45491W        W18559   5.952  10.199  13.861
45492W        W18560  24.329  10.537   9.994
45493W        W18561   8.758  29.655   3.795
45494W        W18562  37.677   1.240  14.880
45495W        W18563   5.897  10.131  12.017
45496W        W18564   3.964  12.220   0.233
45497W        W18565  16.608   2.223  12.338
45498W        W18566  42.707  32.242   1.808
45499W        W18567  38.227  35.395   4.113
45500W        W18568  15.884   3.452   4.229
45501W        W18569  25.034  21.591   4.251
45502W        W18570  35.366  25.201  13.803
45503W        W18571  30.825  40.455   3.298
45504W        W18572  43.511  29.970   3.724
45505W        W18573  42.084  15.155  14.253
45506W        W18574  26.670  40.080  13.911
45507W        W18575  17.144  35.079   4.897
45508W        W18576  31.333  16.781   3.843
45509W        W18577  25.520   8.441   1.346
45510W        W18578   6.882  33.434  13.372
45511W        W18579  37.535  26.357   0.825
45512W        W18580  23.665   0.537  14.766
45513W        W18581  13.541  31.980  13.948
45514W        W18582  38.178  27.266  13.366
45515W        W18583  16.896  29.094   2.351
45516W        W18584  30.102  42.627  13.841
45517W        W18585  34.387  17.506  13.285
45518W        W18586  30.007   3.347   2.705
45519W        W18587   0.519  24.485   4.253
45520W        W18588   7.837  28.902  14.433
45521W        W18589  36.228   9.261  11.656
45522W        W18590  44.466  22.171   3.701
45523W        W18591  30.028  39.564   0.784
45524W        W18592  13.059  41.293  11.079
45525W        W18593  10.575  26.761  10.120
45526W        W18594   8.884  43.386   2.868
45527W        W18595  42.990  43.509   4.552
45528W        W18596  20.293  13.811   2.417
45529W        W18597  20.494  40.892  13.465
45530W        W18598  28.096  12.559  13.502
45531W        W18599  33.218  19.786  12.475
45532W        W18600  38.537  40.195   3.486
45533W        W18601  10.659  41.083  12.812
45534W        W18602   1.691   1.556  11.085
45535W        W18603   7.766  39.761   4.572
45536W        W18604  18.198  35.516   0.337
45537W        W18605  38.616   0.962   1.301
45538W        W18606   4.231   3.731   2.381
45539W        W18607  10.299  32.808  11.681
45540W        W18608  27.500  35.066   0.217
45541W        W18609   9.392  18.076  10.468
45542W        W18610  26.144   4.336  14.292
45543W        W18611  41.821   4.736  11.352
45544W        W18612  26.992  30.449   2.396
45545W        W18613  34.467  21.945  13.023
45546W        W18614  37.027  38.306  14.364
45547W        W18615  28.922   1.296   0.498
45548W        W18616   9.230  33.284   1.505
45549W        W18617  37.432  13.571  12.679
45550W        W18618  28.940  11.771  12.400
45551W        W18619  33.878  18.304   1.272
45552W        W18620  18.646  19.450  12.186
45553W        W18621  21.415  18.120  14.686
45554W        W18622  16.237  30.044  11.054
45555W        W18623  21.877   3.512  13.890
45556W        W18624  26.682  28.033   3.308
45557W        W18625  40.467  14.547   0.614
45558W        W18626  28.926   8.387   2.460
45559W        W18627  27.697  40.054  12.994
45560W        W18628  36.837  44.807  11.714
45561W        W18629  26.005  32.919  13.950
45562W        W18630  44.458  41.886   3.779
45563W        W18631  37.937  22.292  11.075
45564W        W18632   2.302  27.561  14.547
45565W        W18633   5.780   3.208   2.894
45566W        W18634  25.524  36.917  10.726
45567W        W18635  35.824  35.912  11.552
45568W        W18636   7.484  13.277  13.998
45569W        W18637  25.357  14.326   1.943
45570W        W18638  26.475  40.279  13.491
45571W        W18639  23.038  25.221   3.854
45572W        W18640  40.339  18.773   1.793
45573W        W18641  31.576  32.850   4.138
45574W        W18642   2.899  41.105  11.129
45575W        W18643   6.171   3.385  11.088
45576W        W18644  31.221  27.698   4.611
45577W        W18645  21.050   4.257  14.073
45578W        W18646  14.906  31.276   4.274
45579W        W18647  36.777  16.382  12.478
45580W        W18648  22.528   0.728  13.793
45581W        W18649  20.583   7.718  11.631
45582W        W18650  40.303  25.382  10.948
45583W        W18651   4.751  17.192   4.538
45584W        W18652  12.328  19.461   0.699
45585W        W18653  16.750  18.267  14.298
45586W        W18654   7.750   5.468   2.915
45587W        W18655  42.996  23.097  12.006
45588W        W18656  37.830  19.088  14.466
45589W        W18657   0.951  18.596  10.705
45590W        W18658  34.125  25.443  11.287
45591W        W18659  20.255  36.601   3.659
45592W        W18660   9.265  24.839   4.875
45593W        W18661  34.960  13.983   2.355
45594W        W18662   8.887  44.935  10.893
45595W        W18663  23.212  10.676  10.543
45596W        W18664  30.929   4.486   0.872
45597W        W18665  19.341  25.155   4.739
45598W        W18666  37.536  14.834   4.032
45599W        W18667   8.740  38.443  11.814
45600W        W18668  20.198  31.080  11.204
45601W        W18669  36.889  44.549   0.639
45602W        W18670  37.790  16.777   4.852
45603W        W18671  18.257  12.616  11.380
45604W        W18672  19.201  40.827   3.325
45605W        W18673  20.603  35.572  13.816
45606W        W18674  35.567   0.111   3.613
45607W        W18675  39.559  38.078   1.792
45608W        W18676  33.388   0.725  10.282
45609W        W18677   7.296  35.533  12.575
45610W        W18678  14.577  32.144  11.584
45611W        W18679  31.961  21.028  11.155
45612W        W18680  18.140   3.687  10.610
45613W        W18681  20.509   1.170   2.438
45614W        W18682  28.624  31.381   0.779
45615W        W18683  44.967  32.361  14.475
45616W        W18684   6.724  36.151   4.626
45617W        W18685  23.525  12.602  13.752
45618W        W18686   2.436  37.835   3.863
45619W        W18687  11.047   4.881  13.406
45620W        W18688   7.881  19.057  12.978
45621W        W18689  12.730  40.868   3.728
45622W        W18690   8.297  41.064  11.213
45623W        W18691  19.706   6.296  13.865
45624W        W18692   7.580  31.404   4.031
45625W        W18693  30.099   3.752  13.010
45626W        W18694  38.381  15.276  12.882
45627W        W18695  40.436   6.645   2.972
45628W        W18696   7.213  28.121  11.506
45629W        W18697  44.290  25.895   1.330
45630W        W18698  29.462  12.513   3.866
45631W        W18699   4.180  19.997  14.259
45632W        W18700   2.849  12.567  11.019
45633W        W18701   5.065   9.814   1.276
45634W        W18702  21.770  19.945  10.776
45635W        W18703  29.060  10.727   2.661
45636W        W18704  15.791  33.054  13.110
45637W        W18705  28.726  42.829   0.638
45638W        W18706  30.561  11.209   3.944
45639W        W18707  25.653  28.059  10.433
45640W        W18708  10.864  37.059   2.249
45641W        W18709  27.010  26.380  10.611
45642W        W18710  19.228  31.980  14.133
45643W        W18711   4.953  12.685  13.386
45644W        W18712   4.414   0.941  12.039
45645W        W18713  11.377  16.305   4.118
45646W        W18714  31.033  37.013   3.633
45647W        W18715  19.963  10.774   2.038
45648W        W18716  35.032  16.384   4.545
45649W        W18717  12.127  33.185   2.743
45650W        W18718   5.138  25.363   2.578
45651W        W18719  23.063  25.205  10.794
45652W        W18720  24.512   4.288  11.983
45653W        W18721   4.198  26.430   1.228
45654W        W18722  24.729  32.085   0.793
45655W        W18723  18.233  44.411  13.878
45656W        W18724  22.071  14.039   2.115
45657W        W18725   9.402  13.736   1.327
45658W        W18726  31.212   6.937  12.789
45659W        W18727  22.750   4.748   1.209
45660W        W18728   8.865   8.741   0.390
45661W        W18729  35.130  12.273  12.973
45662W        W18730  40.472   7.431  10.263
45663W        W18731  38.990  30.625   0.154
45664W        W18732  35.894  21.662   2.183
45665W        W18733  11.173  27.095   0.941
45666W        W18734  18.011  13.274   4.236
45667W        W18735  13.670   4.797  13.461
45668W        W18736  43.206  17.370   0.885
45669W        W18737  31.132  31.031   1.730
45670W        W18738  23.956  41.830   0.975
45671W        W18739  14.124  16.790  13.352
45672W        W18740  35.584   2.939  13.393
45673W        W18741  35.199  42.315   1.239
45674W        W18742  29.787  37.014   3.058
45675W        W18743  32.436  15.558   3.288
45676W        W18744  39.994  23.612   0.364
45677W        W18745  14.100  11.667   4.337
45678W        W18746  34.588  31.539  12.955
45679W        W18747  36.844  12.832   1.418
45680W        W18748  10.495  22.148  14.747
45681W        W18749  32.900   9.800  12.573
45682W        W18750  29.613  27.596   2.695
45683W        W18751  42.009  25.587   3.299
45684W        W18752  31.592  31.660   0.802
45685W        W18753  13.873  37.448   3.817
45686W        W18754  30.563  44.636   3.275
45687W        W18755  34.318  38.956  12.935
45688W        W18756   4.326  24.977   2.799
45689W        W18757  43.076  28.055   5.156
45690W        W18758  39.312  43.009  12.866
45691W        W18759  18.272  22.399   1.798
45692W        W18760  16.242  27.455  12.129
45693W        W18761  23.001  28.478  13.807
45694W        W18762   8.127  20.186  13.502
45695W        W18763   0.133  17.455   2.287
45696W        W18764   5.020   7.578   0.873
45697W        W18765   6.656   1.304  13.347
45698W        W18766  40.745   4.633   0.339
45699W        W18767  35.574  13.148   1.866
45700W        W18768  32.154  40.635  13.036
45701W        W18769  17.538  35.451   3.627
45702W        W18770  10.625  42.637   4.650
45703W        W18771  17.740  17.348   1.442
45704W        W18772  16.022  29.877  13.439
45705W        W18773  34.983   3.189  11.624
45706W        W18774  31.773  28.905   2.361
45707W        W18775  40.884   1.147   9.668
45708W        W18776  20.521  34.701   2.880
45709W        W18777  23.675  10.927  10.690
45710W        W18778   2.308  31.358   3.353
45711W        W18779  35.603  20.707  13.250
45712W        W18780   0.908  32.975   2.011
45713W        W18781  21.687  18.586  13.839
45714W        W18782  21.030  11.601   2.392
45715W        W18783  40.458  34.702   3.756
45716W        W18784  12.216  11.082  11.497
45717W        W18785  22.594  43.571  10.419
45718W        W18786   0.849   3.739   4.964
45719W        W18787  33.577  32.218  13.982
45720W        W18788   0.453   3.974  12.937
45721W        W18789  23.552   4.867   4.988
45722W        W18790  16.223   0.979   3.671
45723W        W18791  35.333  37.870  13.067
45724W        W18792  39.931  14.341   1.758
45725W        W18793  35.958  16.797  12.477
45726W        W18794  42.448  25.482   3.708
45727W        W18795   3.314  21.067  13.557
45728W        W18796   0.366  37.453   1.268
45729W        W18797  22.289  44.468   2.773
45730W        W18798  40.107  26.251   4.397
45731W        W18799   9.050  37.938   3.811
45732W        W18800  44.551  15.028   1.424
45733W        W18801  42.553  27.090   1.946
45734W        W18802  22.972   6.411   0.862
45735W        W18803  10.639  10.044  12.516
45736W        W18804   6.406  38.025  11.544
45737W        W18805  17.616  22.057  13.878
45738W        W18806  27.863  20.889   2.854
45739W        W18807   6.855  40.473   1.019
45740W        W18808  22.609  37.491   4.166
45741W        W18809  40.535  24.635   0.431
45742W        W18810  39.955   2.294  10.954
45743W        W18811  35.790  20.744   3.651
45744W        W18812  33.952  39.826   1.396
45745W        W18813   1.964  33.008  12.975
45746W        W18814  39.518  37.112  12.346
45747W        W18815  26.618  24.009  10.471
45748W        W18816   1.034  28.265   2.240
45749W        W18817  30.314   0.267  11.615
45750W        W18818  17.495  31.431   1.627
45751W        W18819  42.825  19.556  11.697
45752W        W18820  16.101  42.713   0.919
45753W        W18821  19.740   4.778  10.379
45754W        W18822   4.804  42.735   2.713
45755W        W18823   4.735  10.842   2.762
45756W        W18824  37.111  17.465  13.477
45757W        W18825  26.523  41.284   1.347
45758W        W18826  23.527  19.568   2.835
45759W        W18827  13.419  39.426  13.497
45760W        W18828  34.530  12.198  13.949
45761W        W18829  11.901  41.746   4.118
45762W        W18830   2.328   3.208   4.131
45763W        W18831  28.743  34.638   4.062
45764W        W18832  12.089  33.419   2.275
45765W        W18833  36.614  17.394  13.385
45766W        W18834  27.387  24.046   4.624
45767W        W18835   3.989  21.518  11.516
45768W        W18836  34.632  21.060   2.828
45769W        W18837  19.476  24.558   1.438
45770W        W18838  38.593  38.918   0.770
45771W        W18839  15.678  36.514  11.897
45772W        W18840  40.802  43.095   1.003
45773W        W18841  34.857  44.409   4.526
45774W        W18842  31.557  12.117  12.601
45775W        W18843  11.243  31.419   1.723
45776W        W18844  22.320  20.059   3.445
45777W        W18845  26.973  34.538   3.411
45778W        W18846   1.264  43.099  10.558
45779W        W18847  44.224  14.089   4.524
45780W        W18848  16.529  22.471  12.926
45781W        W18849   8.325   5.974   1.962
45782W        W18850  23.223  39.920  11.475
45783W        W18851  44.419  38.904   4.539
45784W        W18852  32.460  16.018  13.737
45785W        W18853  30.478  19.122   4.121
45786W        W18854  37.758  37.424   3.657
45787W        W18855  16.320  10.347   2.741
45788W        W18856  13.849   6.347  10.719
45789W        W18857  37.931  12.911   2.040
45790W        W18858  13.033  42.420  10.728
45791W        W18859  23.929  20.638  14.476
45792W        W18860  38.610   5.920   4.471
45793W        W18861  24.552  19.868   3.036
45794W        W18862  10.140  36.052  13.621
45795W        W18863   2.346  29.416   4.155
45796W        W18864  39.791  16.293  11.710
45797W        W18865  11.238   9.932  13.007
45798W        W18866  39.418  24.534   4.541
45799W        W18867   6.793   6.311  10.788
45800W        W18868  24.314  15.799   2.673
45801W        W18869  35.565  20.599   1.717
45802W        W18870   9.306  26.214   1.777
45803W        W18871  42.282  36.193   3.337
45804W        W18872  26.722  13.170   4.249
45805W        W18873  12.924  15.250   3.340
45806W        W18874  13.353  16.463   0.811
45807W        W18875  34.101  14.233  12.404
45808W        W18876   0.590  28.583   1.487
45809W        W18877   1.846  29.526   0.544
45810W        W18878   5.780  30.138  12.408
45811W        W18879  33.102  43.731  12.088
45812W        W18880   5.743  15.648  13.067
45813W        W18881  33.813  11.749  12.112
45814W        W18882  13.497  32.425  14.770
45815W        W18883  36.828  29.975   0.393
45816W        W18884  37.588  44.518   2.703
45817W        W18885  43.040   1.273  14.532
45818W        W18886   5.703  13.238   2.357
45819W        W18887  27.795   9.724  12.410
45820W        W18888   5.851   3.347  10.668
45821W        W18889  32.646  29.864  11.896
45822W        W18890   7.128  33.337   1.805
45823W        W18891  30.285  32.123  14.482
45824W        W18892  39.609  15.495   3.918
45825W        W18893  38.359  44.808   0.240
45826W        W18894  13.152  28.777   0.279
45827W        W18895   4.648  42.483  11.478
45828W        W18896  15.253   9.787  13.597
45829W        W18897  11.698  21.778   1.988
45830W        W18898  17.393  22.808   2.915
45831W        W18899  44.396  22.467  10.855
45832W        W18900  16.268   8.204   0.505
45833W        W18901  41.914  11.194   4.156
45834W        W18902  35.579   3.652   3.210
45835W        W18903   7.434  16.307   1.380
45836W        W18904  36.964  41.811   2.666
45837W        W18905  24.952  42.267  14.716
45838W        W18906  26.568  24.250  12.447
45839W        W18907   4.413  39.836  13.910
45840W        W18908  22.275  25.037  12.911
45841W        W18909   2.256  31.341   0.412
45842W        W18910  23.035  40.387  12.632
45843W        W18911  36.399  23.012   0.494
45844W        W18912  15.544  42.546  11.121
45845W        W18913  28.349  26.251  11.616
45846W        W18914  12.321  26.273  12.921
45847W        W18915  14.349  36.377   5.123
45848W        W18916  15.767  12.380  13.975
45849W        W18917   8.367  41.379  11.602
45850W        W18918  19.488  34.142  11.835
45851W        W18919  33.074  16.341   3.285
45852W        W18920  15.399  22.186  14.840
45853W        W18921   2.175  31.568  12.147
45854W        W18922  15.523  43.296   4.610
45855W        W18923  24.223  23.085  11.258
45856W        W18924   0.817  21.873  12.952
45857W        W18925  31.913  32.410   3.320
45858W        W18926  20.890  23.578   0.060
45859W        W18927  16.689  25.124  11.596
45860W        W18928   0.455   9.363  14.347
45861W        W18929   7.730  20.255   0.939
45862W        W18930   1.305  32.128  10.810
45863W        W18931  20.573  30.152   3.709
45864W        W18932  15.471  19.988  14.448
45865W        W18933  27.911  16.831  14.363
45866W        W18934  36.295  16.632  13.133
45867W        W18935  43.049  16.095  11.548
45868W        W18936  41.058  10.183  14.969
45869W        W18937  29.921  23.470  14.505
45870W        W18938   2.034  24.108   0.998
45871W        W18939  15.108   1.551  14.365
45872W        W18940  14.478   5.969   5.105
45873W        W18941  12.197  30.544  14.659
45874W        W18942   8.445  23.169   1.273
45875W        W18943  38.589  16.617   2.891
45876W        W18944   6.544  28.993   2.775
45877W        W18945  43.042  39.084   2.229
45878W        W18946  28.493  17.479  13.010
45879W        W18947   5.607  14.575   4.186
45880W        W18948  18.628  24.858  10.805
45881W        W18949  36.546   9.286   2.236
45882W        W18950  26.611   9.316   0.746
45883W        W18951  23.985  18.671   0.771
45884W        W18952  18.334  25.340  11.139
45885W        W18953  31.659  32.712   4.631
45886W        W18954   5.011  31.933  11.867
45887W        W18955  23.383   9.758  11.932
45888W        W18956  29.513  35.836   0.497
45889W        W18957  22.929  44.336   5.057
45890W        W18958  23.284  11.394   2.451
45891W        W18959  10.712  10.341  10.216
45892W        W18960   5.849  34.855   0.816
45893W        W18961   5.740   3.208  12.485
45894W        W18962  22.738  40.408   4.261
45895W        W18963   9.066   9.383  12.102
45896W        W18964  31.006  13.150  14.325
45897W        W18965  28.632   8.625   4.661
45898W        W18966  16.706  38.004  11.020
45899W        W18967  16.819  38.613   3.678
45900W        W18968  28.063  18.080   1.753
45901W        W18969  20.795  28.072   0.795
45902W        W18970   4.436   9.721   0.861
45903W        W18971  39.564  32.892   4.191
45904W        W18972   3.961  25.492  10.918
45905W        W18973  26.415  36.706  14.862
45906W        W18974  15.293   2.998  10.613
45907W        W18975  11.439  17.036   3.717
45908W        W18976  16.905   7.971   0.872
45909W        W18977  23.670  26.985   4.076
45910W        W18978  41.794  34.541  10.635
45911W        W18979  17.908  14.752   2.521
45912W        W18980   7.604  22.737  14.973
45913W        W18981   6.245  19.507   2.062
45914W        W18982  19.611  35.968   1.287
45915W        W18983  14.048  28.977   0.265
45916W        W18984  11.330  20.291   3.239
45917W        W18985  21.541  17.811  11.758
45918W        W18986  22.638  40.754   0.287
45919W        W18987   7.450  43.847   2.810
45920W        W18988  43.214  25.936  14.277
45921W        W18989   3.338  27.242  10.956
45922W        W18990  18.075   4.824  10.788
45923W        W18991  28.683  26.107   4.045
45924W        W18992  33.074  26.173   0.315
45925W        W18993   8.291  25.335  13.442
45926W        W18994  23.098  15.720   3.274
45927W        W18995   3.313  31.557  14.912
45928W        W18996  18.591  13.768   3.456
45929W        W18997  10.940  25.571  12.579
45930W        W18998  26.510   6.789   0.271
45931W        W18999   1.864   6.963  12.027
45932W        W19000  25.563  37.033   3.449
45933W        W19001  44.832  38.624   2.367
45934W        W19002  20.102  18.050  14.074
45935W        W19003   0.557  31.912   4.502
45936W        W19004  40.019  11.790   4.879
45937W        W19005   8.907  31.051   0.610
45938W        W19006  30.960  20.203   1.445
45939W        W19007  15.270  39.516  11.909
45940W        W19008  14.074  31.028   0.310
45941W        W19009  43.330   8.692  11.656
45942W        W19010  11.677  24.733  12.796
45943W        W19011  25.707  31.084   0.806
45944W        W19012   7.722   3.825  11.857
45945W        W19013  12.119  25.653   1.832
45946W        W19014  29.161   3.458  12.486
45947W        W19015  10.775  16.593   4.189
45948W        W19016  38.261   7.416   4.914
45949W        W19017  18.532  10.383  11.596
45950W        W19018   7.506   0.059  12.021
45951W        W19019  44.385  16.788   1.778
45952W        W19020  37.478  22.706  13.014
45953W        W19021  25.666   0.829  11.745
45954W        W19022  19.871   6.042   1.943
45955W        W19023  12.136  27.950  11.206
45956W        W19024   4.731  28.256  12.452
45957W        W19025  37.015  12.765  12.950
45958W        W19026  20.180  43.031   0.255
45959W        W19027  35.594  19.980  11.462
45960W        W19028  15.072  16.513   0.530
45961W        W19029  25.048  33.914  14.872
45962W        W19030  10.895  43.227   4.031
45963W        W19031  31.547  22.191  13.088
45964W        W19032  34.256  33.521   2.828
45965W        W19033  36.658  39.722  14.418
45966W        W19034  10.665  42.266   1.722
45967W        W19035  42.947  31.693  10.465
45968W        W19036  22.740  30.120  11.600
45969W        W19037  42.310  26.210  12.944
45970W        W19038  40.000  38.507  12.927
45971W        W19039   8.244   2.324   2.731
45972W        W19040  40.777  12.688  10.266
45973W        W19041  34.881  22.888   1.802
45974W        W19042   5.961  11.396  11.582
45975W        W19043  33.347  26.621   0.349
45976W        W19044   5.782  13.851  14.340
45977W        W19045   8.433  12.836  13.422
45978W        W19046  28.396  10.150   3.789
45979W        W19047  41.348  11.823  13.465
45980W        W19048  19.695  27.964   0.032
45981W        W19049  16.214  20.242   0.397
45982W        W19050   1.465  35.121  12.480
45983W        W19051  27.909  41.227  14.040
45984W        W19052   9.790  36.411  13.482
45985W        W19053  16.874  44.880  11.094
45986W        W19054  11.321  20.462  13.302
45987W        W19055   9.057  44.412   0.810
45988W        W19056  41.415  23.076   0.222
45989W        W19057  26.396  14.188  12.040
45990W        W19058  10.844  30.556  11.087
45991W        W19059   8.376  34.489  11.544
45992W        W19060  10.740  23.723   0.765
45993W        W19061   9.745  13.895  11.207
45994W        W19062  35.551  44.380  10.527
45995W        W19063  27.986  15.186  14.331
45996W        W19064  43.984  25.721  10.707
45997W        W19065  29.740  25.449   4.071
45998W        W19066  41.171  37.342   1.457
45999W        W19067  14.038  40.126   0.897
46000W        W19068  20.505  14.995   1.363
46001W        W19069   4.981  37.409  11.475
46002W        W19070  36.928  13.777  14.540
46003W        W19071  15.735   8.585   2.383
46004W        W19072  26.456  11.617  14.529
46005W        W19073  12.913  28.585   0.829
46006W        W19074  10.720   6.284  10.591
46007W        W19075  27.196   0.517  11.276
46008W        W19076   9.771  31.744   4.711
46009W        W19077  30.908  25.397  10.611
46010W        W19078  38.926   8.310   3.754
46011W        W19079  25.494  40.346  13.816
46012W        W19080   3.694  16.163   3.728
46013W        W19081  23.798  42.552  11.993
46014W        W19082   9.257   1.737  14.436
46015W        W19083  37.244  33.072  14.229
46016W        W19084  37.976  44.502  14.362
46017W        W19085  44.448   2.459   2.786
46018W        W19086  32.732  11.191  11.367
46019W        W19087   1.720  32.863   3.676
46020W        W19088  44.706  12.204   1.826
46021W        W19089  37.314  44.460  14.921
46022W        W19090  23.623  17.038   1.704
46023W        W19091  39.593  22.784   3.987
46024W        W19092  30.607  10.083  12.901
46025W        W19093  26.908  42.421  13.818
46026W        W19094  15.632  18.660   4.806
46027W        W19095  41.896   2.167  12.305
46028W        W19096  25.004   9.448  11.097
46029W        W19097  13.144  16.532  14.003
46030W        W19098  22.795  43.936  11.964
46031W        W19099  17.882  41.686   0.755
46032W        W19100  11.627  40.377   1.308
46033W        W19101  14.735  21.247   1.665
46034W        W19102  41.999  38.089  11.198
46035W        W19103  41.060  36.018   1.408
46036W        W19104  13.219  44.981  14.114
46037W        W19105   2.689  33.093   2.845
46038W        W19106  28.520   6.654  11.597
46039W        W19107  22.695  27.914  14.437
46040W        W19108  41.236  40.912  14.397
46041W        W19109  39.319  30.447   0.950
46042W        W19110  20.485   2.373  12.464
46043W        W19111  12.067   1.537   4.066
46044W        W19112  37.133  27.639  11.390
46045W        W19113  26.481  27.848   2.866
46046W        W19114  10.948  41.359  14.001
46047W        W19115  34.391  21.101   0.493
46048W        W19116  18.521  19.677   4.607
46049W        W19117  22.158  14.862   4.052
46050W        W19118  24.767   3.732  12.045
46051W        W19119   9.262  15.093   1.556
46052W        W19120  41.391  17.720   4.892
46053W        W19121  41.330  27.590   2.350
46054W        W19122  15.737  32.970  12.533
46055W        W19123   3.785  12.154  10.977
46056W        W19124  41.311  14.214  12.007
46057W        W19125  42.614  38.428   4.078
46058W        W19126  32.392  35.106  10.261
46059W        W19127  13.286  27.304   0.449
46060W        W19128   3.422  17.924  11.676
46061W        W19129  32.993   9.668  12.080
46062W        W19130  31.858   4.772   3.321
46063W        W19131  42.309  25.692  12.856
46064W        W19132  15.210  31.257   4.720
46065W        W19133   6.761  23.918   1.983
46066W        W19134  13.253  16.038  11.915
46067W        W19135  22.795   9.421   3.899
46068W        W19136  12.602  17.996   1.407
46069W        W19137  23.276  40.932  10.582
46070W        W19138  24.693  17.835  14.768
46071W        W19139   1.777  22.558  11.400
46072W        W19140   0.772  33.729   1.903
46073W        W19141   9.586  21.998  12.424
46074W        W19142  14.364  31.481   0.230
46075W        W19143  44.236   5.303  11.383
46076W        W19144  19.063   9.414  14.822
46077W        W19145  41.264   7.712   1.310
46078W        W19146   4.794  37.514   3.563
46079W        W19147  24.979  10.543   3.598
46080W        W19148   6.125  37.856   2.398
46081W        W19149   8.936  14.528  10.279
46082W        W19150  14.421  23.701   0.936
46083W        W19151  12.502  10.351  13.847
46084W        W19152  17.251  18.429   1.894
46085W        W19153  21.053   7.459  11.534
46086W        W19154  39.863  36.576  13.055
46087W        W19155   9.910  37.534   3.826
46088W        W19156  41.042  19.047   3.169
46089W        W19157   4.258  36.834   0.444
46090W        W19158   2.919   0.448  11.203
46091W        W19159  23.617  22.438  14.569
46092W        W19160  19.521  21.599  10.779
46093W        W19161  37.048   5.196  13.496
46094W        W19162   8.880   6.502   3.113
46095W        W19163  34.510  19.473   4.150
46096W        W19164   7.065   1.816   1.543
46097W        W19165   3.730  17.678  12.460
46098W        W19166  15.036  39.773  10.532
46099W        W19167  26.100  37.394   0.466
46100W        W19168  26.392  36.891  11.207
46101W        W19169  23.262  21.448  11.970
46102W        W19170  16.561  15.667  12.875
46103W        W19171  16.807  19.074  12.146
46104W        W19172  28.624  34.931  14.740
46105W        W19173  29.443  37.491  12.897
46106W        W19174  36.507  33.137   4.721
46107W        W19175  29.261  36.426   4.907
46108W        W19176  43.739  23.769   0.794
46109W        W19177  12.600  18.650  10.492
46110W        W19178   8.148  26.741   3.338
46111W        W19179  16.116  18.809   0.050
46112W        W19180  30.505   3.318  14.469
46113W        W19181  38.321  36.343   0.876
46114W        W19182  41.584   3.302   2.273
46115W        W19183   6.783   9.476   0.668
46116W        W19184   6.506  10.855  12.045
46117W        W19185  15.106  38.817  10.799
46118W        W19186  28.904  19.626   0.377
46119W        W19187  33.209   3.752  14.163
46120W        W19188  29.542   0.564   4.937
46121W        W19189  26.546  35.686   0.007
46122W        W19190   2.402  33.782   4.977
46123W        W19191   9.927  41.250   9.867
46124W        W19192  41.467  17.072   1.523
46125W        W19193  41.490  34.570   0.923
46126W        W19194  11.273  40.350  11.108
46127W        W19195  14.103  27.220   0.865
46128W        W19196  12.533  44.343  14.434
46129W        W19197  16.218  42.210   0.983
46130W        W19198  40.521  11.808  13.732
46131W        W19199   8.651  42.375  12.956
46132W        W19200  25.120  35.632   1.818
46133W        W19201  13.628  40.828  13.010
46134W        W19202  20.095  14.676  11.653
46135W        W19203  31.572  17.580   2.397
46136W        W19204  26.253   9.268   1.694
46137W        W19205  31.675   5.262   1.184
46138W        W19206  30.818  17.650  11.433
46139W        W19207  38.262  20.977   0.879
46140W        W19208  10.747   4.245  11.556
46141W        W19209  20.686   0.430   4.550
46142W        W19210  14.143  29.669   4.555
46143W        W19211  19.142  13.219  14.392
46144W        W19212  43.079  13.274   4.281
46145W        W19213  16.880  34.939   2.029
46146W        W19214  44.314   9.869  12.465
46147W        W19215  15.275  27.838  14.580
46148W        W19216  16.044  42.740  12.606
46149W        W19217   7.793  17.585   3.189
46150W        W19218   3.674   8.443   0.801
46151W        W19219   5.766  27.485   3.892
46152W        W19220  32.533   1.952  11.115
46153W        W19221  14.353   7.189   1.347
46154W        W19222  25.020   6.789  12.589
46155W        W19223   2.406  40.431   4.690
46156W        W19224  32.546  28.955   3.128
46157W        W19225  33.047  27.183   1.262
46158W        W19226  40.054  20.960  13.967
46159W        W19227  42.216  26.832   3.815
46160W        W19228  24.227   1.297   4.906
46161W        W19229  43.026  25.935   2.782
46162W        W19230  17.606  10.607  13.535
46163W        W19231  40.476  16.621  14.881
46164W        W19232  26.503  28.998  13.109
46165W        W19233   8.883  14.900   2.766
46166W        W19234  27.200  29.374   4.099
46167W        W19235  37.418  14.256  13.893
46168W        W19236  29.231  11.018  11.075
46169W        W19237  25.609  40.066  12.645
46170W        W19238  27.207   8.237  11.556
46171W        W19239  12.674  37.876  10.754
46172W        W19240  16.155  27.372   0.471
46173W        W19241  38.707  35.171   0.012
46174W        W19242  43.236  36.372   4.078
46175W        W19243  26.688  17.204   0.298
46176W        W19244  13.360   2.007   3.411
46177W        W19245  24.333  16.395   1.516
46178W        W19246   3.627  22.685  10.679
46179W        W19247  17.515  36.734   4.085
46180W        W19248  32.345   2.488   0.418
46181W        W19249  43.147  27.111   2.069
46182W        W19250  43.462   0.540  14.811
46183W        W19251  34.664  14.138  13.382
46184W        W19252  27.498  14.274  14.415
46185W        W19253  11.244  36.706   2.188
46186W        W19254  22.676  15.587  14.983
46187W        W19255  41.863  27.799  11.762
46188W        W19256   1.156  30.402  10.694
46189W        W19257  40.800   6.942  10.622
46190W        W19258  31.998  31.032  12.687
46191W        W19259   0.898  42.956   3.870
46192W        W19260  10.703  18.770  10.225
46193W        W19261  28.961  20.085   3.256
46194W        W19262  23.094  29.175   2.351
46195W        W19263   1.491  43.007   1.353
46196W        W19264  14.540  23.168  12.371
46197W        W19265   6.180  29.768  14.926
46198W        W19266  35.374  33.413  10.677
46199W        W19267  31.438  22.837  13.771
46200W        W19268  32.360   7.350  10.604
46201W        W19269  44.332  12.612   1.322
46202W        W19270  41.012  35.383   4.703
46203W        W19271  20.431  20.993  11.000
46204W        W19272   9.304  27.435   1.296
46205W        W19273  37.615   5.693  11.715
46206W        W19274  41.765  43.404  12.080
46207W        W19275  23.928  31.520  12.501
46208W        W19276   8.684  26.737   1.341
46209W        W19277   2.798  40.129  11.131
46210W        W19278   0.921  41.970   3.620
46211W        W19279  39.648  17.764   0.466
46212W        W19280  10.493  41.600  12.126
46213W        W19281  41.292  30.364   0.872
46214W        W19282  20.467  35.583   3.717
46215W        W19283  26.014   4.411  12.821
46216W        W19284  33.563  21.130  14.575
46217W        W19285   2.836   1.468  14.024
46218W        W19286  29.185   3.495   4.760
46219W        W19287  31.910  13.088   3.706
46220W        W19288  22.930  20.084  13.819
46221W        W19289   9.556  17.526  13.531
46222W        W19290  43.500  31.593   2.833
46223W        W19291  10.178   8.761  14.091
46224W        W19292  40.336   6.769   5.557
46225W        W19293  26.757  12.955  12.847
46226W        W19294  33.797  17.166   2.225
46227W        W19295  44.361  27.978   2.610
46228W        W19296  21.057  35.491  14.515
46229W        W19297  20.786  15.762   0.961
46230W        W19298  25.745  19.399  14.009
46231W        W19299  26.878  39.010  10.746
46232W        W19300   3.659   7.198   2.901
46233W        W19301  28.169  20.019   4.682
46234W        W19302   0.066  41.834  12.902
46235W        W19303  39.685   9.853  11.655
46236W        W19304  29.818   5.261  13.519
46237W        W19305  19.320   9.274   3.554
46238W        W19306  35.239  11.296  12.483
46239W        W19307  41.905   4.795   3.589
46240W        W19308  44.351  40.901   4.192
46241W        W19309   8.351   0.025   0.789
46242W        W19310  13.537  14.644   2.032
46243W        W19311  42.943  39.491   4.847
46244W        W19312  39.268   9.725  13.866
46245W        W19313  37.088  44.666  13.322
46246W        W19314  43.773  12.503  11.881
46247W        W19315  40.331   4.568   2.938
46248W        W19316   2.800  40.984  13.893
46249W        W19317   6.821   4.599  13.915
46250W        W19318   5.933   3.425  12.914
46251W        W19319  22.328  31.096   3.146
46252W        W19320  32.822   9.339   1.899
46253W        W19321  14.173  12.286   0.797
46254W        W19322  26.197  37.329  12.477
46255W        W19323  17.294  15.330  13.830
46256W        W19324  28.626  21.162   3.164
46257W        W19325  33.081   7.859  14.460
46258W        W19326   5.042   4.369   3.729
46259W        W19327  43.343  37.900   3.436
46260W        W19328  14.708  23.982  13.823
46261W        W19329  33.325   7.017   2.221
46262W        W19330  25.787  43.109  13.012
46263W        W19331   1.469   4.308  13.133
46264W        W19332  15.773  43.744   4.530
46265W        W19333  13.860  29.091   3.214
46266W        W19334  20.509  41.455  12.080
46267W        W19335   2.269  29.603   3.682
46268W        W19336  44.996  42.365  12.655
46269W        W19337  22.747  34.084  11.506
46270W        W19338  10.592   8.783   4.117
46271W        W19339  32.887  24.069   3.443
46272W        W19340  35.174  11.921   4.139
46273W        W19341  18.594   6.982   4.535
46274W        W19342  42.503  31.785  12.874
46275W        W19343   0.954  36.420  10.579
46276W        W19344  22.039  26.016   1.389
46277W        W19345  25.635  37.589   2.604
46278W        W19346  16.083  15.554  14.903
46279W        W19347  11.140   3.929   0.287
46280W        W19348  16.127  42.265   3.687
46281W        W19349  32.886  23.140   0.830
46282W        W19350  41.887   1.167   1.837
46283W        W19351  38.853  13.387  11.659
46284W        W19352  14.583   7.937  12.593
46285W        W19353  29.038  29.947  12.033
46286W        W19354  10.866  26.648  13.465
46287W        W19355   9.494  42.369   2.469
46288W        W19356  30.851  39.903   3.926
46289W        W19357   5.679  35.056   2.333
46290W        W19358  44.500  36.986  13.324
46291W        W19359  30.150  41.599   0.013
46292W        W19360  41.916  22.719  14.160
46293W        W19361  17.707  41.460   0.321
46294W        W19362  16.849   7.808  12.333
46295W        W19363   8.335  37.136   0.316
46296W        W19364   1.063   5.227  11.967
46297W        W19365  39.006  21.186   4.683
46298W        W19366  40.996  44.832  14.277
46299W        W19367  39.702  15.260  10.716
46300W        W19368  25.660  33.626  14.863
46301W        W19369  37.354  21.123  11.856
46302W        W19370  35.616   4.611   1.867
46303W        W19371  11.830   6.913   0.828
46304W        W19372  40.774  37.363   4.096
46305W        W19373  17.829  41.923   4.849
46306W        W19374  20.069  39.929   2.856
46307W        W19375  39.600  16.720  11.451
46308W        W19376  32.353  26.504  10.206
46309W        W19377  25.984  36.951   3.137
46310W        W19378  29.891   3.145   4.084
46311W        W19379   5.953  17.750   1.735
46312W        W19380  31.155  36.557  10.785
46313W        W19381  18.650  37.444  14.450
46314W        W19382  25.099  25.115  14.924
46315W        W19383  13.217  13.336  12.358
46316W        W19384   8.687  10.801   0.966
46317W        W19385  24.184   0.701  10.451
46318W        W19386  26.023   9.857  11.566
46319W        W19387  41.990  20.700  12.977
46320W        W19388  11.412  13.378  13.004
46321W        W19389  20.598  38.924   2.434
46322W        W19390  13.948  43.005   1.769
46323W        W19391  39.105  41.203   1.321
46324W        W19392   7.363  15.340   0.349
46325W        W19393  26.523  16.066  12.818
46326W        W19394   5.047  32.322   3.362
46327W        W19395  10.063   3.472  10.509
46328W        W19396  15.277   1.201  10.668
46329W        W19397  44.451  42.302  13.999
46330W        W19398  23.129  26.106   1.730
46331W        W19399   5.734  13.427  12.447
46332W        W19400  17.184  37.815  14.842
46333W        W19401   3.003  36.462   3.866
46334W        W19402  26.413  30.143  13.908
46335W        W19403  31.714  18.970   5.048
46336W        W19404  23.992   0.264  13.469
46337W        W19405  42.427  31.068   4.586
46338W        W19406  21.585  21.547   4.728
46339W        W19407  16.066  25.749  11.576
46340W        W19408   4.913  28.597  12.108
46341W        W19409   9.959  18.140   3.145
46342W        W19410  11.854   1.035  14.790
46343W        W19411  37.989   9.283   0.298
46344W        W19412   1.870  32.206   3.255
46345W        W19413  41.422  35.098   3.689
46346W        W19414  38.007  21.047  11.718
46347W        W19415   1.734  18.542  10.950
46348W        W19416  12.724  28.257  14.466
46349W        W19417  36.467  26.252   0.885
46350W        W19418  15.838  31.649  12.040
46351W        W19419  27.648  19.648  13.083
46352W        W19420  18.418  17.874  12.904
46353W        W19421  33.890   3.798  12.912
46354W        W19422  32.699  30.943   0.828
46355W        W19423  43.747  16.696  14.384
46356W        W19424  37.227   9.410  14.027
46357W        W19425  17.263   2.946  12.613
46358W        W19426  28.472  11.852   0.030
46359W        W19427  22.088  23.723  11.854
46360W        W19428  13.343  27.265   3.630
46361W        W19429  15.839  39.981  10.642
46362W        W19430   1.088  25.671  14.029
46363W        W19431  35.574  33.310   3.257
46364W        W19432   5.214  29.350  14.982
46365W        W19433  35.756  11.108   0.372
46366W        W19434  42.002  14.418   0.351
46367W        W19435  33.470  43.789  13.413
46368W        W19436   9.625   4.414   0.784
46369W        W19437   5.303  43.106   1.838
46370W        W19438  33.577  13.078  13.403
46371W        W19439  41.070  41.018   3.303
46372W        W19440   0.901  39.463   2.692
46373W        W19441   0.389  41.900  10.393
46374W        W19442  41.327  33.014   4.737
46375W        W19443  11.795  43.837   4.581
46376W        W19444   7.137   2.968  12.859
46377W        W19445  35.401  40.423   4.951
46378W        W19446  34.220  27.239   2.547
46379W        W19447  43.986  11.990  11.945
46380W        W19448  27.513   1.505   4.205
46381W        W19449   8.482  20.267   1.370
46382W        W19450  32.871  44.016  13.934
46383W        W19451  35.422   9.157  12.023
46384W        W19452  11.339  10.302   0.461
46385W        W19453  18.239  12.893   2.624
46386W        W19454  21.909  29.135  12.236
46387W        W19455  13.247  18.120   2.492
46388W        W19456  41.450   4.539   3.665
46389W        W19457  13.112  43.974   3.153
46390W        W19458  11.203  31.577  12.864
46391W        W19459  31.056   1.172   1.659
46392W        W19460   4.174  32.615   2.724
46393W        W19461  25.475  13.507   3.423
46394W        W19462  39.272  13.345   2.391
46395W        W19463  33.096  36.344   3.684
46396W        W19464  21.802   1.420   1.175
46397W        W19465   3.975  41.915  11.298
46398W        W19466  41.876  32.841  12.024
46399W        W19467  28.556  43.853  11.860
46400W        W19468  24.690  36.124   4.765
46401W        W19469   9.467   3.321  13.891
46402W        W19470  25.652   9.461  12.212
46403W        W19471   2.530  10.304  13.870
46404W        W19472  19.840  17.708  12.598
46405W        W19473  19.617  11.792  10.738
46406W        W19474  24.638  16.045   1.773
46407W        W19475  14.360  28.535   2.752
46408W        W19476  21.694  13.666  11.473
46409W        W19477   5.699   9.672  11.010
46410W        W19478  17.789   4.204   1.498
46411W        W19479   1.826  34.998   2.687
46412W        W19480  21.966  25.006   2.754
46413W        W19481  40.518  38.608  11.593
46414W        W19482  30.417  32.927  11.219
46415W        W19483  22.168  16.268  14.242
46416W        W19484  11.298  38.596   0.776
46417W        W19485  25.817  18.573   2.109
46418W        W19486   2.841  36.115  12.090
46419W        W19487  23.674  20.303   5.101
46420W        W19488  17.536  42.358  10.955
46421W        W19489  19.742  20.140  11.596
46422W        W19490  23.952   3.541   3.846
46423W        W19491  18.057  21.477   2.909
46424W        W19492   8.909  14.796   1.301
46425W        W19493   4.906  21.053  11.947
46426W        W19494   3.360  38.353  14.516
46427W        W19495  38.472  42.716  14.326
46428W        W19496  38.125  35.142  13.243
46429W        W19497  30.536  16.180   3.133
46430W        W19498   5.992  40.573  12.000
46431W        W19499  23.236  25.311   2.337
46432W        W19500  32.647  31.558   4.719
46433W        W19501  28.103  22.712   2.922
46434W        W19502   8.111  10.730  12.848
46435W        W19503   9.288   8.639   1.750
46436W        W19504   8.918   7.695  11.966
46437W        W19505  37.288  28.584   1.856
46438W        W19506  41.832  36.480  14.958
46439W        W19507  39.488   8.200  12.553
46440W        W19508  41.399   9.807  13.262
46441W        W19509  30.381  13.673  13.428
46442W        W19510  20.162   1.794  11.848
46443W        W19511  42.064  13.100  12.555
46444W        W19512   7.729  19.512  10.127
46445W        W19513  16.861  12.919  14.780
46446W        W19514  28.832  23.739   3.595
46447W        W19515   6.458  15.122   2.451
46448W        W19516  43.790  31.882   4.028
46449W        W19517  41.473  12.272   1.182
46450W        W19518  24.056  23.723  13.805
46451W        W19519  23.593  25.750   0.857
46452W        W19520  43.886  18.310   0.406
46453W        W19521  38.829  28.374  12.552
46454W        W19522  13.626   1.416   0.399
46455W        W19523  21.082  10.877   3.229
46456W        W19524  34.528  20.631  12.150
46457W        W19525  35.431  44.269   1.751
46458W        W19526  44.428  34.044   4.572
46459W        W19527   8.427  24.009   1.856
46460W        W19528  20.248  39.543  11.098
46461W        W19529  31.969   1.496  14.029
46462W        W19530  36.399  14.902   4.092
46463W        W19531  38.408  30.129  11.358
46464W        W19532  23.975   3.039   1.747
46465W        W19533  31.500   7.158   3.402
46466W        W19534  20.046  27.018  13.473
46467W        W19535  24.213  17.636  14.799
46468W        W19536  31.960  28.133  11.725
46469W        W19537   5.841  16.596  14.666
46470W        W19538   2.707  11.391   3.764
46471W        W19539  22.065  31.128   1.748
46472W        W19540  44.323  17.298   4.391
46473W        W19541  34.361   0.001  12.004
46474W        W19542  32.721  16.171  12.968
46475W        W19543  44.033  44.786   1.931
46476W        W19544   1.258  29.946   1.952
46477W        W19545  18.156  44.519  10.992
46478W        W19546  23.061  15.385   0.291
46479W        W19547   8.798  23.662   4.821
46480W        W19548   4.914  41.838   0.793
46481W        W19549   4.957  15.641   1.152
46482W        W19550  40.529  12.183  14.104
46483W        W19551  31.893   6.787   4.164
46484W        W19552  29.438  44.245  13.326
46485W        W19553  27.605  26.008   4.874
46486W        W19554  39.699  39.449  10.909
46487W        W19555   8.245  20.020  11.681
46488W        W19556   0.632  41.964  13.408
46489W        W19557   5.336  18.635   1.748
46490W        W19558  20.471   6.830  12.636
46491W        W19559   8.636  22.174   0.380
46492W        W19560  29.470  31.132   2.520
46493W        W19561   1.721  29.391   1.521
46494W        W19562  19.688  30.118   3.443
46495W        W19563   6.615  15.584  14.270
46496W        W19564  30.508   8.681  12.036
46497W        W19565  26.623  22.644  13.096
46498W        W19566  23.082  29.477  14.937
46499W        W19567   8.338   9.763   1.022
46500W        W19568  43.436  21.882   4.147
46501W        W19569   8.522  11.106  13.467
46502W        W19570   9.438  32.994   3.987
46503W        W19571  10.792  29.371   2.305
46504W        W19572   8.884  21.425   4.508
46505W        W19573  20.555  36.825   2.582
46506W        W19574  10.044   5.405   0.280
46507W        W19575  39.426  25.560  12.791
46508W        W19576  11.897  26.934  13.477
46509W        W19577  28.393   3.711  13.862
46510W        W19578  21.276  28.260   3.750
46511W        W19579  34.497  27.935  11.575
46512W        W19580   1.434  38.551  12.558
46513W        W19581  22.446  17.266   1.449
46514W        W19582  26.099  20.425   0.655
46515W        W19583  18.008  30.114  12.472
46516W        W19584  39.803  11.216   3.682
46517W        W19585  21.334  22.056  10.472
46518W        W19586   3.171  12.164   2.842
46519W        W19587  17.382  16.191  11.438
46520W        W19588   3.093  16.544   2.684
46521W        W19589  22.460  24.077  10.308
46522W        W19590  30.862  37.840   1.019
46523W        W19591  26.603  12.191  11.625
46524W        W19592  33.508  37.848  12.686
46525W        W19593   1.795  34.333   4.604
46526W        W19594   2.533  17.031  12.958
46527W        W19595   0.483   2.975  13.049
46528W        W19596   2.805  29.911  13.110
46529W        W19597  15.106  29.964   0.391
46530W        W19598   8.075  42.168   2.625
46531W        W19599   3.948   6.260  10.646
46532W        W19600   0.526   5.312   4.674
46533W        W19601  42.728  26.660  12.757
46534W        W19602  20.927  24.238   0.893
46535W        W19603   0.460  41.434  10.704
46536W        W19604   8.709  19.813  11.579
46537W        W19605  18.605  43.246  10.701
46538W        W19606   7.748  12.047   4.556
46539W        W19607  38.090  35.861   4.547
46540W        W19608  43.749  15.898   1.871
46541W        W19609  35.512   3.399   3.634
46542W        W19610  19.815  31.060   0.777
46543W        W19611   7.619   7.385  12.455
46544W        W19612  20.037  32.446   4.640
46545W        W19613  31.014   7.610   1.215
46546W        W19614   9.215  38.860   4.945
46547W        W19615  29.119  41.533   4.648
46548W        W19616  18.231   0.692  13.986
46549W        W19617   9.861  32.414  10.725
46550W        W19618  32.029  38.817  12.372
46551W        W19619  17.506  27.486  12.577
46552W        W19620  10.874  39.642  10.736
46553W        W19621  19.671  35.679   2.549
46554W        W19622  17.662  32.790   2.192
46555W        W19623  25.965  25.144   3.798
46556W        W19624  22.599  16.282   2.201
46557W        W19625  41.011  38.591   0.303
46558W        W19626  37.497  20.050  11.589
46559W        W19627  23.989   6.964   3.231
46560W        W19628  17.169  38.768  10.117
46561W        W19629  21.468   9.869   3.210
46562W        W19630  36.316  10.747  12.913
46563W        W19631  30.399  21.028   3.718
46564W        W19632  18.208  34.496   1.219
46565W        W19633  26.051  26.248  14.290
46566W        W19634  36.869  10.650   3.274
46567W        W19635  43.735  29.570   2.651
46568W        W19636  32.948  25.806  10.756
46569W        W19637  11.817  41.830  12.037
46570W        W19638  27.540  23.876  12.359
46571W        W19639  20.528   7.683   0.799
46572W        W19640  25.718   8.648  11.751
46573W        W19641   0.873  18.180  13.933
46574W        W19642  13.970  31.612   1.536
46575W        W19643  44.944   1.718   4.010
46576W        W19644  38.521  43.480   0.738
46577W        W19645  40.484  23.676   3.304
46578W        W19646   3.154   9.334  13.987
46579W        W19647   0.540  20.603  13.602
46580W        W19648   8.506   0.097   2.531
46581W        W19649  39.725  44.803  14.211
46582W        W19650  10.158  33.323  11.656
46583W        W19651  32.015  12.111   1.695
46584W        W19652  35.479   6.961   2.813
46585W        W19653  30.395  16.611   2.283
46586W        W19654   0.976  39.389   1.138
46587W        W19655  23.017  10.523   2.241
46588W        W19656  39.410   2.165  10.521
46589W        W19657  40.611  35.586  12.440
46590W        W19658  18.645  16.059  13.754
46591W        W19659   2.797  33.396   2.171
46592W        W19660  28.393  29.561  10.745
46593W        W19661  30.950  20.425   4.533
46594W        W19662   5.125  42.476  11.205
46595W        W19663  17.972   2.690  10.708
46596W        W19664  41.941  23.280   4.179
46597W        W19665  17.876  44.775  13.827
46598W        W19666  40.975  10.646   1.000
46599W        W19667   4.337   0.805  14.252
46600W        W19668  28.272  17.527   2.236
46601W        W19669  25.127   4.368   1.246
46602W        W19670  24.623  10.163   0.466
46603W        W19671   1.819  10.880  14.416
46604W        W19672   7.997   4.156  13.070
46605W        W19673  27.779  10.129   3.213
46606W        W19674  39.542  37.476  13.575
46607W        W19675  12.803  19.093  13.274
46608W        W19676   0.472  42.349  11.164
46609W        W19677   6.236  12.311   1.436
46610W        W19678  35.638  29.495  11.411
46611W        W19679   2.260  40.218   1.822
46612W        W19680   4.247  44.012   1.840
46613W        W19681  36.962   4.838  13.936
46614W        W19682  22.215   9.364   2.234
46615W        W19683   4.599   5.320  11.253
46616W        W19684  33.756  18.904   3.309
46617W        W19685  35.533  10.355  12.854
46618W        W19686  43.845  44.749   0.337
46619W        W19687  38.000  33.604  13.426
46620W        W19688  14.797  36.807  11.614
46621W        W19689  40.921  29.517   3.458
46622W        W19690  28.021   6.878   2.358
46623W        W19691   5.855  21.079  11.995
46624W        W19692   5.280   6.092  13.323
46625W        W19693  22.941   6.230  11.080
46626W        W19694  17.307   6.143  13.101
46627W        W19695  37.347  31.618  13.343
46628W        W19696   6.898  11.354  12.860
46629W        W19697  11.306   8.769   4.596
46630W        W19698  40.274  22.779  13.726
46631W        W19699  33.327  40.337  14.803
46632W        W19700  31.081  35.008   5.023
46633W        W19701   0.829  15.775   0.482
46634W        W19702  29.873  11.739   0.664
46635W        W19703  25.951  29.912  13.918
46636W        W19704  10.327  36.591   4.591
46637W        W19705  25.511  25.197  13.960
46638W        W19706  30.681   3.416  11.215
46639W        W19707  20.959  37.973  12.905
46640W        W19708   0.832  31.322  12.205
46641W        W19709   6.117  29.990   1.394
46642W        W19710  25.681   2.371   3.657
46643W        W19711  36.839  15.073  14.146
46644W        W19712  27.971   9.886   4.603
46645W        W19713  16.388  10.359  13.867
46646W        W19714  16.066  31.521   3.369
46647W        W19715  34.170   7.446   1.768
46648W        W19716  22.978   2.042   4.505
46649W        W19717   7.590  36.719   2.916
46650W        W19718  29.510  31.350   1.220
46651W        W19719  15.384  20.656  10.715
46652W        W19720  19.483  15.258   3.891
46653W        W19721   1.349  16.596   2.441
46654W        W19722  27.598  42.345   2.756
46655W        W19723  33.387  23.228   2.717
46656W        W19724  26.757  18.365   4.159
46657W        W19725  42.949  40.578   1.528
46658W        W19726  29.184  27.114   1.309
46659W        W19727   2.484  31.998  12.023
46660W        W19728   1.906  38.560   1.334
46661W        W19729  39.722  35.078  14.992
46662W        W19730  10.910  14.939   3.095
46663W        W19731  29.424  21.275  11.155
46664W        W19732  33.121  44.552  13.326
46665W        W19733  14.025  36.468   4.158
46666W        W19734  11.403  20.591  13.792
46667W        W19735   4.386   5.184   3.852
46668W        W19736  12.816   7.251  14.096
46669W        W19737   5.583  22.478  10.161
46670W        W19738  32.071  37.137  11.190
46671W        W19739  22.508  25.936   2.283
46672W        W19740  40.563  21.267   3.714
46673W        W19741  16.881  23.123  11.208
46674W        W19742  37.146  21.819   0.287
46675W        W19743   5.842  12.682   0.472
46676W        W19744  15.611  10.280   1.875
46677W        W19745  15.801  21.325   0.977
46678W        W19746  40.967   6.614   1.767
46679W        W19747   7.246   8.257   0.891
46680W        W19748  42.531   7.447  14.961
46681W        W19749  27.185  32.116   3.888
46682W        W19750  19.263   1.116  14.664
46683W        W19751  26.282   1.716  13.222
46684W        W19752   1.262  24.247  11.181
46685W        W19753  11.711   0.050  12.719
46686W        W19754  21.976  40.835  13.104
46687W        W19755  24.973  30.329  13.429
46688W        W19756  35.383  15.628  11.121
46689W        W19757   4.912  16.326   3.616
46690W        W19758  34.383  29.502  13.793
46691W        W19759   2.740  10.708  10.669
46692W        W19760  23.496  43.857  13.537
46693W        W19761  38.432  30.439  14.522
46694W        W19762  32.348  33.365  11.131
46695W        W19763  24.587   3.233  13.476
46696W        W19764  41.527  19.610   0.898
46697W        W19765  36.496  10.167   1.915
46698W        W19766  41.102   3.889   4.319
46699W        W19767   8.415  16.698  13.641
46700W        W19768  36.537   3.106   1.459
46701W        W19769   9.089  27.150   2.754
46702W        W19770  36.034   6.596   2.788
46703W        W19771  11.695  38.067   4.609
46704W        W19772   9.129  13.754   3.662
46705W        W19773  24.252   6.352   2.676
46706W        W19774   1.714  10.763   1.761
46707W        W19775  20.114  15.580  14.829
46708W        W19776  32.910  11.501   4.171
46709W        W19777  14.375   4.575   4.228
46710W        W19778  25.786  34.632  10.994
46711W        W19779   7.904   5.298  13.538
46712W        W19780   9.287  35.970   0.020
46713W        W19781  24.540  27.617  14.051
46714W        W19782  17.489   1.820   0.693
46715W        W19783   7.297  25.547  13.870
46716W        W19784  13.063  35.949  13.814
46717W        W19785  28.739  16.418   2.845
46718W        W19786  27.721   5.292   1.824
46719W        W19787   3.973  20.588   2.216
46720W        W19788  11.871  18.098  11.114
46721W        W19789  43.556   7.944   4.390
46722W        W19790  20.645  32.704  14.368
46723W        W19791  15.475  26.436  12.261
46724W        W19792  44.718  34.937   2.782
46725W        W19793  30.122  40.094   2.823
46726W        W19794  24.263  14.737  13.623
46727W        W19795  20.127   7.446   4.060
46728W        W19796  28.102  28.081   0.841
46729W        W19797  44.920  22.114   3.437
46730W        W19798  30.172  27.962   2.465
46731W        W19799   3.861   8.682   0.302
46732W        W19800  30.916  35.584  11.485
46733W        W19801  17.451  11.725   1.320
46734W        W19802  25.121  16.997  12.184
46735W        W19803  11.888  36.035   2.910
46736W        W19804  40.850  42.774  11.590
46737W        W19805  40.564  40.858   4.064
46738W        W19806   6.386  31.551  14.401
46739W        W19807  44.008   4.297   4.590
46740W        W19808   7.141  42.488   1.854
46741W        W19809  14.358  21.808  14.025
46742W        W19810  26.491  27.487   0.253
46743W        W19811  18.169  22.149  11.301
46744W        W19812  19.359  21.669  12.076
46745W        W19813  25.941  28.913  10.663
46746W        W19814  33.643   1.748  12.403
46747W        W19815  26.004  21.212   2.277
46748W        W19816  14.174  27.083   3.086
46749W        W19817  13.241   6.688   4.680
46750W        W19818  21.813  25.119   1.365
46751W        W19819  40.906  38.132   4.561
46752W        W19820  40.456  29.564   0.343
46753W        W19821  27.290  38.056  13.611
46754W        W19822   7.371  34.311  10.645
46755W        W19823  33.929   7.854  10.519
46756W        W19824  10.715   1.947  10.613
46757W        W19825   1.332  34.474   4.408
46758W        W19826  29.028  36.406   2.705
46759W        W19827   7.679  11.175   2.409
46760W        W19828  43.654  44.578  11.064
46761W        W19829   0.454  31.006  10.362
46762W        W19830  34.667  30.565   3.275
46763W        W19831  42.313  23.571   1.672
46764W        W19832  36.323  33.853   4.146
46765W        W19833   8.361  16.081   4.626
46766W        W19834  13.167  11.287   0.873
46767W        W19835  19.961  11.983   3.262
46768W        W19836  34.217   7.358  13.261
46769W        W19837  14.291   1.138  11.017
46770W        W19838   8.476  25.162  10.886
46771W        W19839  17.773   9.425   0.206
46772W        W19840  12.768  32.137   3.289
46773W        W19841  43.123  14.159   2.868
46774W        W19842  17.213  17.331   4.623
46775W        W19843  34.767  19.306  12.074
46776W        W19844  22.668   6.967  14.375
46777W        W19845  23.552  38.812   3.664
46778W        W19846  14.730  16.821  10.990
46779W        W19847   8.456  15.002   1.284
46780W        W19848  38.967  33.415   5.057
46781W        W19849  30.391  24.802   3.319
46782W        W19850  37.663   9.971  11.765
46783W        W19851  42.588  38.273  13.825
46784W        W19852   5.437  24.317   4.799
46785W        W19853   5.763  31.486   4.443
46786W        W19854  13.666  31.651  11.481
46787W        W19855  34.605  39.407  11.641
46788W        W19856  22.087  17.178   2.449
46789W        W19857  17.633  12.256   4.214
46790W        W19858   3.001  41.815  12.568
46791W        W19859   1.261   7.170  12.012
46792W        W19860  36.480   8.340   1.041
46793W        W19861  14.642  25.962  11.080
46794W        W19862  34.053   7.383   0.274
46795W        W19863  21.315  11.272  10.837
46796W        W19864  30.371   4.910   0.329
46797W        W19865  13.129   8.102  12.583
46798W        W19866  42.528  15.406  11.514
46799W        W19867   2.180  19.798   0.735
46800W        W19868  44.227  17.263  10.668
46801W        W19869  44.875   6.544   5.014
46802W        W19870  34.065  36.002  12.208
46803W        W19871   0.456  23.033  10.376
46804W        W19872  26.688  14.612   0.249
46805W        W19873  25.937  11.361  11.022
46806W        W19874  25.575  37.508   5.095
46807W        W19875  29.889  14.684   4.180
46808W        W19876   2.414   9.401   1.641
46809W        W19877  24.895  22.561  13.517
46810W        W19878   9.953  40.307   1.789
46811W        W19879  11.117  26.056  14.414
46812W        W19880   7.954   1.348  14.867
46813W        W19881  36.602  15.468  13.300
46814W        W19882  33.585  28.655   0.807
46815W        W19883  42.206  30.097   2.495
46816W        W19884  41.610   3.932   4.502
46817W        W19885  10.582  24.655   0.287
46818W        W19886  34.861   2.921   0.381
46819W        W19887  10.632  19.113  13.560
46820W        W19888  14.355   9.822   4.097
46821W        W19889  27.016  40.083   1.839
46822W        W19890  41.824  35.974  14.826
46823W        W19891   8.733  25.173   0.912
46824W        W19892  43.147   8.303  14.726
46825W        W19893  26.597  21.475   3.266
46826W        W19894  36.428  20.876  12.212
46827W        W19895  10.880  41.946  14.420
46828W        W19896  24.534  32.102  13.047
46829W        W19897  13.264  37.883   4.859
46830W        W19898  29.513  14.617  10.590
46831W        W19899  21.147   3.221   1.905
46832W        W19900   1.992   1.663  10.680
46833W        W19901  31.425  13.208  14.009
46834W        W19902  43.892   9.127   1.976
46835W        W19903  16.172   6.675   4.429
46836W        W19904  26.276  36.854  12.638
46837W        W19905  12.211  44.756  11.409
46838W        W19906  14.680   2.486  12.926
46839W        W19907  22.984  39.551  10.359
46840W        W19908   3.304  22.666  13.088
46841W        W19909  12.284  19.259   3.122
46842W        W19910  41.860  40.769   4.580
46843W        W19911   1.382  21.736   4.481
46844W        W19912   5.730  38.566   1.322
46845W        W19913  24.722  32.642   1.964
46846W        W19914  17.308  32.814  13.849
46847W        W19915  13.389  16.160  14.309
46848W        W19916  33.097  33.726  11.726
46849W        W19917  32.320  22.145   2.214
46850W        W19918   6.258  22.223  13.835
46851W        W19919  32.764  28.119  10.532
46852W        W19920  44.789  18.588   1.611
46853W        W19921  23.567  25.592  12.343
46854W        W19922  37.686  15.675  14.830
46855W        W19923  29.500  40.514   3.961
46856W        W19924   7.703  21.590  11.080
46857W        W19925  22.076  42.814  12.832
46858W        W19926   2.790  26.235   1.517
46859W        W19927  10.369  36.157   1.415
46860W        W19928   3.151  13.436  12.004
46861W        W19929  24.406  41.296  14.936
46862W        W19930   3.242  36.770  13.460
46863W        W19931  10.316   3.167  11.484
46864W        W19932  11.279  25.919  12.420
46865W        W19933  37.317  36.817   1.188
46866W        W19934  19.105  11.718  10.644
46867W        W19935  41.078  15.243  10.526
46868W        W19936   2.383  37.606  13.136
46869W        W19937  29.527  22.467   1.862
46870W        W19938  15.359  44.674   4.607
46871W        W19939  30.370  16.046  11.538
46872W        W19940  22.160  15.911   4.070
46873W        W19941   2.324  16.126  10.921
46874W        W19942  23.529  36.306   0.796
46875W        W19943   7.174  15.822  14.079
46876W        W19944  17.827  41.478  14.404
46877W        W19945  27.591  21.051   1.798
46878W        W19946  32.097  28.428  12.771
46879W        W19947  41.024  15.452   2.598
46880W        W19948  18.138  35.908  13.878
46881W        W19949  15.612  16.257   1.879
46882W        W19950   5.169   0.985  10.783
46883W        W19951  41.362  39.520  10.452
46884W        W19952  33.497  28.761  14.906
46885W        W19953   7.361   4.310   2.312
46886W        W19954   9.170  19.781   3.187
46887W        W19955   5.234  43.046   2.641
46888W        W19956  40.768  32.780   0.824
46889W        W19957  13.116  37.934   3.392
46890W        W19958   1.693   8.632  14.280
46891W        W19959  16.009   1.728  11.835
46892W        W19960   5.393   6.316   4.683
46893W        W19961  16.548  44.990  14.829
46894W        W19962  42.628  21.035   1.345
46895W        W19963  29.605  44.014  14.550
46896W        W19964  44.959  34.792   1.296
46897W        W19965  17.630  39.218  10.686
46898W        W19966  20.056  13.471  12.683
46899W        W19967   3.547  13.597   3.768
46900W        W19968  44.927  24.462   3.397
46901W        W19969  26.568   0.827   0.654
46902W        W19970   1.296  11.687  14.183
46903W        W19971   1.376  12.873  14.810
46904W        W19972  41.443  27.344   3.034
46905W        W19973  32.712   7.830  11.092
46906W        W19974  30.953  41.886   3.240
46907W        W19975   4.582  15.491  13.098
46908W        W19976  38.967  34.621  14.867
46909W        W19977  34.476  29.669   3.660
46910W        W19978  38.030  30.039   1.338
46911W        W19979  44.318  20.467  11.222
46912W        W19980   8.379  38.224  13.553
46913W        W19981  30.523  42.753   4.819
46914W        W19982  17.848  14.394  14.370
46915W        W19983  14.257  27.240  12.518
46916W        W19984   9.933  15.109  13.907
46917W        W19985  40.337   5.670  10.752
46918W        W19986  22.785  23.466  13.558
46919W        W19987  32.062   7.631   2.350
46920W        W19988  20.690  41.003   0.015
46921W        W19989  31.392  40.374   0.903
46922W        W19990  11.122  41.990  13.030
46923W        W19991   6.153  36.711  11.190
46924W        W19992  37.358  38.416  13.008
46925W        W19993  34.828  21.555  11.441
46926W        W19994  18.508  14.123  12.875
46927W        W19995  16.865  24.265   0.952
46928W        W19996  42.397  12.787  13.847
46929W        W19997  30.907   7.905   3.303
46930W        W19998  14.589   5.988   3.291
46931W        W19999  35.467  39.258  14.378
46932W        W20000   5.289  39.545  12.924
46933W        W20001  13.543  17.225  12.639
46934W        W20002   8.317  19.311  11.173
46935W        W20003  29.050  36.015  13.376
46936W        W20004  26.553  22.841   1.310
46937W        W20005  19.288   4.780  12.082
46938W        W20006   0.437   2.795  12.549
46939W        W20007  20.314  12.275   4.987
46940W        W20008  12.147  34.438  10.659
46941W        W20009  27.914   6.241  12.058
46942W        W20010  25.550  20.021  11.146
46943W        W20011  15.494  24.815  11.292
46944W        W20012  13.315  29.122   2.806
46945W        W20013  35.965   1.374   1.272
46946W        W20014  37.191  26.069   1.438
46947W        W20015  20.837  21.892   2.238
46948W        W20016  35.408  44.861   3.192
46949W        W20017  42.686  41.158   2.257
46950W        W20018   1.746  18.599   3.258
46951W        W20019  12.822  34.639   4.139
46952W        W20020   4.524  15.280  14.359
46953W        W20021  40.858  12.132   3.614
46954W        W20022  14.197  18.815  10.755
46955W        W20023  18.536  44.830   0.929
46956W        W20024  10.483  11.231   1.877
46957W        W20025   8.833   8.265  12.629
46958W        W20026  37.788   8.354  11.938
46959W        W20027  12.629  40.759   0.297
46960W        W20028  27.668  39.239   2.815
46961W        W20029   0.696  41.142   1.463
46962W        W20030  21.140   4.828   3.655
46963W        W20031  18.175  21.196  13.447
46964W        W20032  33.383  22.703  14.259
46965W        W20033   9.743  29.257   1.182
46966W        W20034  22.599  29.012  11.623
46967W        W20035  20.523   0.288   3.360
46968W        W20036  34.966  18.702   3.267
46969W        W20037  12.327  40.843   2.365
46970W        W20038   2.268  22.840   2.900
46971W        W20039  41.380   5.755  11.996
46972W        W20040  12.128  33.523  13.372
46973W        W20041  25.571  26.946   0.798
46974W        W20042  30.503  40.255   0.749
46975W        W20043   1.944  44.788  13.975
46976W        W20044   1.479  11.092  12.456
46977W        W20045  42.938   7.966   4.627
46978W        W20046  43.333  22.667  12.989
46979W        W20047  20.034   9.748  11.639
46980W        W20048  24.904  26.191   2.861
46981W        W20049   7.900   0.114   4.611
46982W        W20050  25.430  10.583  11.588
46983W        W20051  11.822  15.628   4.375
46984W        W20052  15.175  21.521   1.829
46985W        W20053   8.103  22.039  14.526
46986W        W20054  38.942  25.966  10.647
46987W        W20055  17.004  31.693  12.891
46988W        W20056  32.882  15.621   4.115
46989W        W20057  44.852  19.240  13.505
46990W        W20058   2.268  27.560   2.328
46991W        W20059  41.800  33.615  11.594
46992W        W20060  39.669  27.183   2.933
46993W        W20061  26.415  25.005   2.764
46994W        W20062  18.653  16.600   0.949
46995W        W20063  33.502  15.553   1.433
46996W        W20064   7.328  11.747  10.668
46997W        W20065  31.066  43.936  10.666
46998W        W20066   7.837  26.197  12.819
46999W        W20067  39.669  16.131   2.644
47000W        W20068   5.271  29.185  13.228
47001W        W20069  35.859   1.875   1.160
47002W        W20070  39.891   4.822  14.001
47003W        W20071  37.578  39.091  14.375
47004W        W20072  35.014  33.685   2.297
47005W        W20073  23.151  11.342  13.586
47006W        W20074  25.515  37.017   5.340
47007W        W20075   9.853  12.360   1.681
47008W        W20076  38.021  18.519  14.677
47009W        W20077  41.433  16.319  14.432
47010W        W20078  14.157  15.775  12.453
47011W        W20079  18.666   8.108  14.425
47012W        W20080  13.697  20.203   4.218
47013W        W20081   0.902  36.603  13.808
47014W        W20082  37.887  11.074  13.172
47015W        W20083  13.844  44.940  12.542
47016W        W20084  30.413  42.564  10.713
47017W        W20085  23.092  36.442  12.494
47018W        W20086  12.989   5.000  12.407
47019W        W20087  21.711  34.062  13.020
47020W        W20088   7.603  16.141  13.992
47021W        W20089  40.785   8.845  10.735
47022W        W20090  32.859  20.513  13.052
47023W        W20091   7.897   2.183   3.455
47024W        W20092  39.524  38.913  11.000
47025W        W20093   9.812  30.458   2.162
47026W        W20094  41.774  23.742  13.962
47027W        W20095  30.245  41.009   2.351
47028W        W20096   0.807  19.730   0.971
47029W        W20097  28.343  25.034  11.215
47030W        W20098  30.001   3.501  14.431
47031W        W20099   4.173  35.232  13.044
47032W        W20100   2.211  43.847  13.545
47033W        W20101   7.747  25.223   2.782
47034W        W20102   2.950  40.076   4.385
47035W        W20103   6.106  19.507   9.845
47036W        W20104  41.430  44.074  13.561
47037W        W20105  22.555  41.921   2.624
47038W        W20106   9.137  18.591   1.243
47039W        W20107   3.368   9.953  11.400
47040W        W20108  42.834  13.885  14.368
47041W        W20109  30.592  41.307   2.711
47042W        W20110  14.706  37.047   4.792
47043W        W20111  19.990  20.828   2.311
47044W        W20112  18.729  21.108   0.728
47045W        W20113  20.910  11.350   1.068
47046W        W20114  21.038  40.272  11.527
47047W        W20115  14.085  36.964   3.789
47048W        W20116   9.384  11.626  11.098
47049W        W20117  39.524  36.326  11.373
47050W        W20118  12.774  12.137   5.044
47051W        W20119  26.158  33.443   0.871
47052W        W20120  32.531  39.652   2.167
47053W        W20121  36.459  16.292  14.489
47054W        W20122  33.201  15.798   4.539
47055W        W20123  32.034  16.009   0.377
47056W        W20124  12.201  21.626  14.054
47057W        W20125  30.470  33.370   2.879
47058W        W20126  36.552  19.915   2.284
47059W        W20127  36.496  12.788  11.610
47060W        W20128  12.874  22.689  11.384
47061W        W20129  23.687  43.848   1.108
47062W        W20130  30.990  19.957   0.477
47063W        W20131  20.319  39.971  13.370
47064W        W20132  24.158  29.857   3.471
47065W        W20133   9.598  37.997   4.586
47066W        W20134  29.626  44.008  12.871
47067W        W20135  15.610  18.778  12.154
47068W        W20136  20.763  42.738  11.245
47069W        W20137  19.095  39.771   3.410
47070W        W20138  23.595  10.776  14.365
47071W        W20139  43.482  23.476  12.549
47072W        W20140  14.518  12.268   3.749
47073W        W20141  26.085  41.946  11.626
47074W        W20142  10.245  18.796  13.788
47075W        W20143  43.969  38.035   0.433
47076W        W20144  14.225  37.179   2.418
47077W        W20145  26.075  37.241   2.714
47078W        W20146  16.496  23.956  12.854
47079W        W20147  23.222  41.941   3.738
47080W        W20148  26.416   9.795   0.855
47081W        W20149  29.546  12.700  12.164
47082W        W20150  34.072  36.284   0.297
47083W        W20151  19.103  42.320   0.321
47084W        W20152   8.393  37.301   4.604
47085W        W20153  31.149  41.013   1.866
47086W        W20154  18.064  20.539   1.458
47087W        W20155   0.481  33.621   1.350
47088W        W20156  29.115  17.689   5.241
47089W        W20157  36.078  25.613  11.731
47090W        W20158  11.714  33.636  11.178
47091W        W20159  30.951  27.053   0.040
47092W        W20160  28.922  37.841   0.384
47093W        W20161  33.567  34.701   2.359
47094W        W20162   0.326  18.588   1.644
47095W        W20163   3.192   3.322   2.633
47096W        W20164  26.048  42.361  11.959
47097W        W20165  21.896  16.984   9.853
47098W        W20166  38.851  14.785  10.969
47099W        W20167  28.133   9.820   1.503
47100W        W20168   4.767  43.293   3.997
47101W        W20169  26.933  43.799   4.584
47102W        W20170  30.382  44.929   2.015
47103W        W20171   3.774   0.415   3.600
47104W        W20172  13.427  44.330  11.441
47105W        W20173  37.931  21.354   0.999
47106W        W20174   9.416   1.110   0.047
47107W        W20175   5.539  15.098   2.308
47108W        W20176  12.079  43.865  13.804
47109W        W20177  31.696  21.304  13.794
47110W        W20178   8.733  10.347   2.382
47111W        W20179  22.175  26.888  11.012
47112W        W20180   3.673  23.091  13.055
47113W        W20181   2.001  26.133   2.852
47114W        W20182  15.595   0.716   0.500
47115W        W20183  33.536  32.280   5.045
47116W        W20184  29.807  35.716  14.392
47117W        W20185   1.764  24.642   3.164
47118W        W20186  33.338  30.080  12.388
47119W        W20187  44.689   7.762   1.844
47120W        W20188  10.650  10.478   1.914
47121W        W20189  23.913  40.011  13.460
47122W        W20190   1.532  28.112   0.326
47123W        W20191   7.533  43.003   2.893
47124W        W20192  21.705  35.476   4.134
47125W        W20193  31.910  24.324   1.107
47126W        W20194  34.036  28.633  14.970
47127W        W20195  41.006  34.374   1.029
47128W        W20196  22.086  16.236  10.597
47129W        W20197  16.085  17.587  13.080
47130W        W20198  21.112   4.597   0.037
47131W        W20199  31.122   8.133   1.097
47132W        W20200  19.076  33.103  14.975
47133W        W20201  12.598  32.878   1.004
47134W        W20202  41.740   6.563  14.176
47135W        W20203   3.782  39.788  11.060
47136W        W20204  24.968  26.985  11.569
47137W        W20205   1.529  21.652  11.451
47138W        W20206  13.759   7.359  10.779
47139W        W20207  42.576   6.971   4.074
47140W        W20208  43.978   7.952  13.448
47141W        W20209  13.218  29.456   4.156
47142W        W20210  41.604  39.511  13.868
47143W        W20211  20.450  35.713   4.573
47144W        W20212  20.198  27.090   2.803
47145W        W20213  22.673  30.361  10.140
47146W        W20214  29.773   6.498   0.835
47147W        W20215  30.199  15.752   3.076
47148W        W20216   5.742  22.960  12.883
47149W        W20217  26.018  28.755   1.741
47150W        W20218  19.632  10.744  13.123
47151W        W20219  41.764  20.029   1.678
47152W        W20220  25.525  43.199   5.078
47153W        W20221   3.772  35.609  13.893
47154W        W20222  19.657  16.081   4.143
47155W        W20223   8.705  15.067  13.917
47156W        W20224  36.975  17.120   2.398
47157W        W20225   9.182   2.354   1.964
47158W        W20226  11.847  29.072  13.828
47159W        W20227  16.595  25.457   2.365
47160W        W20228  11.713   2.322   2.292
47161W        W20229  11.610  27.207  10.440
47162W        W20230   5.511  22.997  10.732
47163W        W20231  25.621   8.914   2.734
47164W        W20232  24.305  41.750  12.931
47165W        W20233   7.473   1.037   4.199
47166W        W20234  29.456  12.753  11.666
47167W        W20235  32.198  28.668   0.943
47168W        W20236  23.581  39.862   3.382
47169W        W20237   6.380  15.762   3.288
47170W        W20238  28.365  34.847   0.780
47171W        W20239  42.391   0.782   0.318
47172W        W20240  13.364   2.895  11.543
47173W        W20241  21.016  28.542   0.910
47174W        W20242   7.614  23.640   0.695
47175W        W20243  31.628   7.895   0.498
47176W        W20244  28.950  33.298  14.987
47177W        W20245  16.119   0.825   1.337
47178W        W20246  27.937   0.291   4.854
47179W        W20247  17.352   3.850   1.891
47180W        W20248  16.989  18.346   2.351
47181W        W20249  31.001  22.783  12.565
47182W        W20250  13.659  37.861  11.521
47183W        W20251  30.810  21.430  12.212
47184W        W20252   1.814  31.934   3.768
47185W        W20253  29.625  39.822  13.842
47186W        W20254  20.083  16.547  14.913
47187W        W20255  32.849   6.466  11.547
47188W        W20256  37.916  14.079  11.047
47189W        W20257  10.241  43.514   1.936
47190W        W20258   2.580  32.656  14.721
47191W        W20259  12.044  40.514  12.017
47192W        W20260  10.211  35.972   0.584
47193W        W20261  18.785  10.734  12.691
47194W        W20262  30.558  41.034   3.168
47195W        W20263   7.235  22.245  13.419
47196W        W20264  16.419   5.383   2.441
47197W        W20265  16.705  39.027   3.972
47198W        W20266   5.999  16.623  11.970
47199W        W20267  16.670  12.320   1.265
47200W        W20268  26.883  33.714  11.122
47201W        W20269  17.607  24.502   0.309
47202W        W20270  31.890  44.420  13.556
47203W        W20271   3.609  16.836  13.824
47204W        W20272  38.529  35.578   3.739
47205W        W20273   7.543  38.978  12.956
47206W        W20274  27.979  29.985  11.167
47207W        W20275   6.292  26.563   2.628
47208W        W20276  39.929  33.149  13.303
47209W        W20277  13.736  19.209  12.365
47210W        W20278  24.599   8.661  13.014
47211W        W20279   1.586  42.794  10.841
47212W        W20280   7.195   6.235   1.903
47213W        W20281  35.344  41.055   0.372
47214W        W20282  10.426  16.048   0.769
47215W        W20283  21.636  29.949  13.864
47216W        W20284  43.742  19.543  11.571
47217W        W20285  15.611  11.649   0.970
47218W        W20286   8.647  20.758  13.806
47219W        W20287  34.936  29.126   1.163
47220W        W20288  38.295  18.712  10.714
47221W        W20289   4.402  43.055   1.856
47222W        W20290   6.451  44.360  11.237
47223W        W20291   4.992   0.073   3.293
47224W        W20292  25.371  14.444  14.726
47225W        W20293  41.638  33.570  14.004
47226W        W20294   9.161   4.182   0.759
47227W        W20295  28.027  11.607   1.785
47228W        W20296  28.456   0.516  13.980
47229W        W20297   2.736   1.245   1.258
47230W        W20298  38.948   3.775  12.804
47231W        W20299  17.156  34.569   0.343
47232W        W20300  15.211  43.328   3.759
47233W        W20301  34.210  28.014   0.886
47234W        W20302   5.791  11.864  10.717
47235W        W20303  29.995  23.055  14.199
47236W        W20304  29.951  36.876  12.637
47237W        W20305  24.028  40.241   0.266
47238W        W20306  43.406   5.593   4.551
47239W        W20307  42.311  21.493  11.918
47240W        W20308  24.029  38.509  13.172
47241W        W20309   6.861  22.285  13.023
47242W        W20310  10.675  19.277  11.574
47243W        W20311  42.819  24.805  12.908
47244W        W20312  10.832   2.325  14.564
47245W        W20313   9.211  15.795   1.853
47246W        W20314  11.401  42.884  13.097
47247W        W20315  22.746  20.956   3.303
47248W        W20316  40.980  27.757  14.033
47249W        W20317  44.238  43.851  12.868
47250W        W20318  15.641  24.115  10.538
47251W        W20319  24.407  28.669   2.197
47252W        W20320  19.065   8.215   2.646
47253W        W20321  19.071  29.732   2.030
47254W        W20322  34.627  33.457  11.024
47255W        W20323  22.191  36.591  14.260
47256W        W20324  44.290   2.609   3.660
47257W        W20325  27.697  36.784   3.736
47258W        W20326  38.017  16.913   4.012
47259W        W20327   8.884  22.950  11.157
47260W        W20328  17.921  12.215  14.427
47261W        W20329  26.071  43.568  13.243
47262W        W20330  11.113  11.366  10.611
47263W        W20331   2.255  14.193   0.154
47264W        W20332  22.215  17.672   2.638
47265W        W20333   6.338   3.733   4.265
47266W        W20334  14.366  40.433  14.438
47267W        W20335  10.383   6.812   2.414
47268W        W20336   0.408   9.410   3.246
47269W        W20337  17.677  18.247  11.599
47270W        W20338  20.669  11.038  14.423
47271W        W20339   4.946   1.869  14.070
47272W        W20340  24.487  20.606   1.625
47273W        W20341  18.269  10.137  13.567
47274W        W20342  28.179  22.563   2.426
47275W        W20343  13.840  25.710  11.166
47276W        W20344  39.050   8.697  11.147
47277W        W20345   5.071   1.409  13.850
47278W        W20346  39.902   6.654   0.656
47279W        W20347  44.875  40.474  12.878
47280W        W20348  28.412  10.272  13.435
47281W        W20349  20.861  22.060  14.493
47282W        W20350   4.201  30.050  14.720
47283W        W20351  11.350  27.102   0.453
47284W        W20352  42.016  21.740   4.412
47285W        W20353  28.444  26.107   3.597
47286W        W20354  19.308  17.564  11.121
47287W        W20355   8.626   0.314  11.145
47288W        W20356  42.766  29.151   3.373
47289W        W20357  24.106  22.969  12.147
47290W        W20358   5.223  36.573  12.855
47291W        W20359  11.682   7.680  13.716
47292W        W20360   9.407   1.153   4.117
47293W        W20361   3.972  23.888  10.326
47294W        W20362  44.106   7.157   2.621
47295W        W20363  40.350   4.390   2.164
47296W        W20364  28.006  25.999   1.686
47297W        W20365  24.272  41.086   3.488
47298W        W20366  21.476  17.924  13.093
47299W        W20367   9.892   4.619   3.591
47300W        W20368   1.564  28.878   1.388
47301W        W20369   2.123  39.384   0.856
47302W        W20370  37.621  14.075   3.858
47303W        W20371   0.247  18.590   3.432
47304W        W20372   7.759  28.785  13.642
47305W        W20373  11.159  15.217   2.312
47306W        W20374  27.550  35.858  14.120
47307W        W20375  23.564  15.310   2.297
47308W        W20376  44.438  41.384  10.713
47309W        W20377  10.650  35.948  10.915
47310W        W20378  14.779  28.123  12.925
47311W        W20379   2.983  32.343  14.790
47312W        W20380  35.048   6.487  11.291
47313W        W20381  25.131  38.393   0.946
47314W        W20382   3.416   1.992   2.894
47315W        W20383   9.436  31.540  12.102
47316W        W20384  31.032  28.903  10.593
47317W        W20385  22.685  16.663  14.794
47318W        W20386  30.678   2.370  13.920
47319W        W20387  19.286  29.958   0.782
47320W        W20388   7.260  11.794  11.653
47321W        W20389  43.082  30.911  12.713
47322W        W20390  36.102  42.844   2.726
47323W        W20391  35.382   0.865   0.918
47324W        W20392  39.860  12.236   4.044
47325W        W20393  31.639  28.699   1.880
47326W        W20394   0.327  26.050  13.335
47327W        W20395  44.399  11.153  13.829
47328W        W20396  12.310  43.323   2.180
47329W        W20397  20.979   0.382   1.944
47330W        W20398  44.229  13.183  11.960
47331W        W20399   8.666  43.926   4.448
47332W        W20400   7.287  31.121  14.367
47333W        W20401  35.921  31.555  12.548
47334W        W20402   6.651  42.954  11.583
47335W        W20403  30.038  14.524  10.622
47336W        W20404  35.933  24.670  11.125
47337W        W20405   4.526  37.525  12.648
47338W        W20406  20.971  42.367  12.068
47339W        W20407  37.576  16.274   0.542
47340W        W20408  43.096   1.946  10.094
47341W        W20409  31.460  43.818  13.771
47342W        W20410  28.173  28.051  10.977
47343W        W20411  42.795   0.333  14.281
47344W        W20412  42.932  21.704  12.427
47345W        W20413  39.305  12.814   2.444
47346W        W20414  30.009  11.391  13.149
47347W        W20415  40.584  18.295   1.769
47348W        W20416  33.989  19.682  11.868
47349W        W20417  26.125  41.310   0.223
47350W        W20418  13.218  36.889   3.274
47351W        W20419   4.029  32.387  13.191
47352W        W20420   6.508  42.353   3.643
47353W        W20421   2.251   3.990  13.005
47354W        W20422   8.109  34.400   4.227
47355W        W20423  43.740  24.093   2.046
47356W        W20424  24.539  15.578  13.781
47357W        W20425   9.925  13.319   2.321
47358W        W20426  27.957  37.251  11.199
47359W        W20427  43.123   0.243   3.635
47360W        W20428  12.965  25.634  13.840
47361W        W20429   7.709  28.294   2.327
47362W        W20430  32.296  35.067   1.468
47363W        W20431  11.291  25.121  13.888
47364W        W20432  10.254  18.596  11.627
47365W        W20433   6.162  16.806  12.465
47366W        W20434   4.202  41.824   4.632
47367W        W20435  30.819  12.269   2.684
47368W        W20436  12.441  13.613  14.600
47369W        W20437  31.120  10.380  14.883
47370W        W20438  32.090  30.173   4.350
47371W        W20439  36.629   9.883  14.540
47372W        W20440   3.770  27.333  13.941
47373W        W20441  44.479  22.793  12.822
47374W        W20442  25.637  13.696  13.105
47375W        W20443  41.564  23.712  13.472
47376W        W20444  43.204  38.950   4.558
47377W        W20445  39.947   1.528   0.420
47378W        W20446  40.438   8.184   3.733
47379W        W20447  36.667  26.721   0.916
47380W        W20448   0.726  37.451  12.524
47381W        W20449  16.250  21.332   4.145
47382W        W20450  22.162  41.956  11.484
47383W        W20451  24.530  23.758   4.099
47384W        W20452  40.445  18.017  11.585
47385W        W20453   0.885   8.324   0.545
47386W        W20454  23.662  44.065   2.409
47387W        W20455  42.882  40.308   4.693
47388W        W20456   3.256  35.052  14.400
47389W        W20457  13.855  31.185  11.571
47390W        W20458  16.184  23.608   2.262
47391W        W20459  16.501  15.648  10.678
47392W        W20460  43.492  44.274   2.917
47393W        W20461  29.033  11.503  13.384
47394W        W20462  34.634   4.248   0.401
47395W        W20463  20.292  34.613   0.753
47396W        W20464  21.291  20.151  10.683
47397W        W20465  25.241  28.615  14.022
47398W        W20466   4.964  10.791   3.211
47399W        W20467  17.311  24.585  13.412
47400W        W20468  35.832  18.298   0.313
47401W        W20469   2.749   9.469  11.032
47402W        W20470  30.936   0.397   2.622
47403W        W20471  40.819  26.492  11.493
47404W        W20472  16.139   9.318  12.941
47405W        W20473   8.229  28.730  13.880
47406W        W20474  16.773  27.158  11.464
47407W        W20475   1.666   1.268  10.626
47408W        W20476   3.882   7.270   1.501
47409W        W20477   4.860  26.008   1.484
47410W        W20478  35.415  15.293   4.304
47411W        W20479   0.817   6.353   3.352
47412W        W20480  17.057  17.584   4.199
47413W        W20481  30.541   6.756  14.905
47414W        W20482  35.106  22.111   3.735
47415W        W20483  27.585  29.535   0.040
47416W        W20484  15.378  31.021   1.245
47417W        W20485  14.805  39.486   0.026
47418W        W20486  16.716  36.315   4.063
47419W        W20487  10.358  39.451   3.326
47420W        W20488  26.815  30.185   0.184
47421W        W20489   4.178  44.957   2.344
47422W        W20490  14.799  17.029   3.637
47423W        W20491  27.107  21.154  14.971
47424W        W20492  27.370  28.094  10.588
47425W        W20493  31.458   6.873   1.828
47426W        W20494   2.229   5.631  14.228
47427W        W20495   0.206  12.776   1.445
47428W        W20496  35.454  44.908   0.506
47429W        W20497  44.741  34.578  10.738
47430W        W20498  12.225  27.945   2.284
47431W        W20499  35.287  44.367   3.297
47432W        W20500   9.109  14.336  13.354
47433W        W20501   3.720  14.302   2.159
47434W        W20502  14.072  39.206   0.661
47435W        W20503  21.618  37.961  14.339
47436W        W20504  29.444  38.042  10.713
47437W        W20505   0.016  28.035   1.707
47438W        W20506  34.948  42.965  11.434
47439W        W20507  23.807  21.698  11.158
47440W        W20508  21.059  33.997  11.049
47441W        W20509  11.130  20.295  12.323
47442W        W20510  17.017  28.609   2.514
47443W        W20511   5.803  31.453   0.375
47444W        W20512  39.687  14.881  12.679
47445W        W20513  25.537  18.317  11.989
47446W        W20514  39.158   2.059   5.482
47447W        W20515  20.125   5.971  11.525
47448W        W20516  36.575  36.317   2.221
47449W        W20517  16.127  31.126   1.850
47450W        W20518  39.578  33.055   2.687
47451W        W20519  36.063  37.907  12.023
47452W        W20520   1.332  23.723   0.662
47453W        W20521  20.056  30.391  14.412
47454W        W20522   8.986   3.474  11.470
47455W        W20523   2.501  43.072  11.926
47456W        W20524  21.983  33.409   1.736
47457W        W20525  33.225  12.121   4.776
47458W        W20526  16.834  32.140   2.398
47459W        W20527  38.912  18.124  11.681
47460W        W20528  14.676  25.808   3.221
47461W        W20529  32.516  27.664   2.749
47462W        W20530   7.390  37.943   3.356
47463W        W20531  22.140  36.187  13.925
47464W        W20532  14.233   7.211  10.449
47465W        W20533  29.705  33.613  13.485
47466W        W20534  17.115  44.793  13.432
47467W        W20535   8.803  41.265   2.637
47468W        W20536  20.202  11.825   0.859
47469W        W20537   4.766  14.124  12.956
47470W        W20538  29.438  19.532  13.977
47471W        W20539  27.948   4.368   4.160
47472W        W20540  19.311  12.182   3.813
47473W        W20541  19.059  39.983   3.887
47474W        W20542  41.848  42.590  14.362
47475W        W20543  26.027  37.343   3.836
47476W        W20544  10.843  32.426  12.498
47477W        W20545  44.459  15.404   2.388
47478W        W20546  41.783  38.521  11.383
47479W        W20547  44.495  12.061  14.595
47480W        W20548  10.381  19.268  12.911
47481W        W20549  32.703   0.703   2.409
47482W        W20550  32.458  44.301   4.703
47483W        W20551  33.592  42.351   0.310
47484W        W20552  41.346  17.786   1.987
47485W        W20553  38.854  29.266   3.204
47486W        W20554   7.200  23.921   3.857
47487W        W20555  34.269   8.442  13.916
47488W        W20556  31.454   9.273   0.529
47489W        W20557  24.060   6.682  14.278
47490W        W20558  17.152  34.065   0.265
47491W        W20559  20.702  21.298   1.700
47492W        W20560   6.837  12.953  11.626
47493W        W20561  17.169  14.604  10.682
47494W        W20562   9.186  16.164  13.312
47495W        W20563  20.248  37.673   1.351
47496W        W20564  19.745  38.519   2.708
47497W        W20565   9.168   8.403   2.702
47498W        W20566  27.947   3.378  14.492
47499W        W20567   4.693   2.476  13.383
47500W        W20568  30.007  21.295   3.296
47501W        W20569   8.233  41.957  13.468
47502W        W20570  17.558  30.770  14.338
47503W        W20571  41.815  29.490   4.078
47504W        W20572  26.228  22.514   0.385
47505W        W20573  13.815  41.180   2.816
47506W        W20574   5.867  27.496  11.504
47507W        W20575   0.976  42.070   5.042
47508W        W20576  30.079  16.526   4.655
47509W        W20577   7.359   4.699   1.356
47510W        W20578  30.071  19.504  11.925
47511W        W20579  43.969  14.592   4.983
47512W        W20580  18.663  26.502   2.198
47513W        W20581  22.530  19.290   2.210
47514W        W20582  30.610  42.967   0.962
47515W        W20583  12.057  39.123  12.004
47516W        W20584  17.092  39.823  12.054
47517W        W20585  21.083  31.050   1.897
47518W        W20586  39.533  21.587  10.394
47519W        W20587  35.886  13.584  14.778
47520W        W20588  41.730  41.788   3.270
47521W        W20589  38.184  24.975  13.389
47522W        W20590   3.528  36.057  11.569
47523W        W20591  42.467  39.801   2.238
47524W        W20592  40.321  13.731   9.950
47525W        W20593  35.322   5.918  13.397
47526W        W20594  14.009  20.724   2.677
47527W        W20595  26.416   1.340  14.888
47528W        W20596  40.890   6.413  10.641
47529W        W20597  22.142  30.408  12.456
47530W        W20598   5.310  17.727  11.652
47531W        W20599  42.518   9.964   3.664
47532W        W20600  28.728   1.608   0.851
47533W        W20601  23.198  21.167   1.662
47534W        W20602  22.950  12.793   3.594
47535W        W20603  36.144  25.243   0.200
47536W        W20604  21.862  22.684   0.271
47537W        W20605   0.142  17.696   3.673
47538W        W20606   3.673  18.281   3.328
47539W        W20607  22.967  42.847   2.371
47540W        W20608  29.079  37.147  14.742
47541W        W20609   9.205   9.611   0.675
47542W        W20610  29.565  42.398   0.671
47543W        W20611   2.588  12.183   1.525
47544W        W20612  32.005  43.809  10.233
47545W        W20613  33.083  42.482   3.806
47546W        W20614   7.648  38.258   1.612
47547W        W20615  13.469  32.935  11.759
47548W        W20616  13.973  34.893   5.038
47549W        W20617   7.969   7.818   1.363
47550W        W20618  18.274  23.922   3.913
47551W        W20619  17.090  42.217   1.936
47552W        W20620  21.211   0.391  12.853
47553W        W20621  11.005  21.640  13.387
47554W        W20622  13.696   1.710   2.339
47555W        W20623  22.633   3.998   4.788
47556W        W20624  29.934  44.222  11.122
47557W        W20625  32.945  21.281  12.495
47558W        W20626   2.106  21.425  10.693
47559W        W20627   9.413  14.557   4.229
47560W        W20628  10.873  34.606   4.594
47561W        W20629  33.454  27.433  14.951
47562W        W20630  38.858  32.081   0.459
47563W        W20631  17.827  24.645   3.162
47564W        W20632  40.905  11.188  14.787
47565W        W20633  36.390   9.435   4.113
47566W        W20634   7.370  44.544  12.012
47567W        W20635  40.553  37.129   3.621
47568W        W20636  28.999  27.876   0.958
47569W        W20637  28.966   9.537   4.561
47570W        W20638   3.047  10.138   0.928
47571W        W20639  18.793  38.948  12.931
47572W        W20640  42.479   4.132  11.678
47573W        W20641  43.016  28.527  11.528
47574W        W20642   5.998   3.853  10.723
47575W        W20643  27.878  33.029  12.614
47576W        W20644  42.426  33.517   2.582
47577W        W20645  11.445  32.806  10.578
47578W        W20646  26.960  41.317  12.500
47579W        W20647  19.578   9.388   2.356
47580W        W20648  32.818  38.840   0.870
47581W        W20649  12.817  40.299  13.447
47582W        W20650  37.800  40.934   2.655
47583W        W20651  22.728  21.978  14.268
47584W        W20652  44.291  11.830  13.425
47585W        W20653  40.781  16.185   3.242
47586W        W20654  26.059  10.511   3.716
47587W        W20655  16.868  19.575   4.888
47588W        W20656  25.952  20.692  11.642
47589W        W20657   0.727  10.156  11.847
47590W        W20658   9.293  44.635   3.030
47591W        W20659  43.741  25.702  14.663
47592W        W20660  12.782   8.395  14.446
47593W        W20661   1.694   4.326   3.173
47594W        W20662  22.787  35.365   0.950
47595W        W20663  27.040  38.987   3.727
47596W        W20664   1.773  20.013  14.513
47597W        W20665  33.262  43.469  11.266
47598W        W20666   7.591  17.989  12.054
47599W        W20667   7.384  40.339   9.961
47600W        W20668  38.556  27.636  12.053
47601W        W20669  41.449  12.695  13.748
47602W        W20670  35.450  17.817  14.297
47603W        W20671  34.403   3.217   3.259
47604W        W20672   4.000  29.081   2.838
47605W        W20673  36.966  23.031   2.837
47606W        W20674   5.479  43.477   3.605
47607W        W20675   0.586  18.986   1.835
47608W        W20676  23.338   0.198   5.504
47609W        W20677  30.104  29.984   0.214
47610W        W20678  34.382  30.653  14.355
47611W        W20679  11.017   8.525   1.399
47612W        W20680  26.933  36.824   3.101
47613W        W20681   9.335  20.178   4.657
47614W        W20682  18.166  23.055  14.005
47615W        W20683  40.116  40.488   2.618
47616W        W20684   6.199  38.757  10.993
47617W        W20685  34.098  19.571   1.922
47618W        W20686  40.600  15.153  11.655
47619W        W20687  12.632   1.319  11.493
47620W        W20688  28.900  20.293  14.837
47621W        W20689  32.432  42.708  12.479
47622W        W20690  29.830  14.244   0.781
47623W        W20691  40.863  18.339  12.582
47624W        W20692  11.134  32.613  14.180
47625W        W20693  11.080  15.763  11.394
47626W        W20694  35.027  16.169  12.858
47627W        W20695  24.619   2.327   3.621
47628W        W20696  42.093  39.991   4.078
47629W        W20697   8.750  30.607  14.907
47630W        W20698  13.674  29.968  12.238
47631W        W20699  44.198  18.220  14.499
47632W        W20700  37.980   1.898  10.913
47633W        W20701  12.231  26.443   2.288
47634W        W20702  34.622  15.256   0.340
47635W        W20703  28.154  20.821   1.010
47636W        W20704  35.635  42.583  11.135
47637W        W20705  24.146  34.151   2.255
47638W        W20706  28.100  12.115   2.848
47639W        W20707   6.310   8.952   5.087
47640W        W20708  43.387  39.570   4.562
47641W        W20709  27.600  13.258   4.714
47642W        W20710  30.895  42.942   5.122
47643W        W20711   7.505  20.664   2.947
47644W        W20712  35.479  23.676  11.152
47645W        W20713  20.961  21.993   3.271
47646W        W20714  17.689  11.132  10.750
47647W        W20715  44.988  15.332   0.097
47648W        W20716  38.086  28.723   1.531
47649W        W20717  22.701  29.336   1.244
47650W        W20718  26.614  31.968  14.913
47651W        W20719  32.446  44.872   0.399
47652W        W20720  41.379  39.473  13.394
47653W        W20721  31.603  23.152   3.284
47654W        W20722  26.916   8.430   2.776
47655W        W20723  39.226  44.478  13.850
47656W        W20724  27.004  15.135   3.143
47657W        W20725  36.798   0.430   0.847
47658W        W20726  24.173  32.524   4.867
47659W        W20727   7.863   5.757  13.815
47660W        W20728  24.679  40.933   2.001
47661W        W20729  38.414  15.836   3.208
47662W        W20730  29.164  34.939   4.125
47663W        W20731  33.612  25.504  12.040
47664W        W20732  16.827  23.444   3.267
47665W        W20733  18.849   8.686   1.801
47666W        W20734   7.883  24.890   1.788
47667W        W20735  21.208   4.018   3.250
47668W        W20736  22.189  38.057  14.680
47669W        W20737  32.848  35.030  13.758
47670W        W20738  24.579  30.960   2.623
47671W        W20739  27.199  19.467  13.297
47672W        W20740  41.436   9.986   2.659
47673W        W20741   4.842  19.137   3.282
47674W        W20742  12.008  41.886   1.722
47675W        W20743  28.908   8.702   1.662
47676W        W20744  20.337  28.055   3.425
47677W        W20745  40.797  10.420  10.752
47678W        W20746  38.788   0.402   4.258
47679W        W20747  28.703  22.499  11.137
47680W        W20748  39.892  35.666   0.821
47681W        W20749  25.564  13.431   1.824
47682W        W20750  33.906  10.030   1.186
47683W        W20751   9.137   3.288   0.360
47684W        W20752  30.080  18.249  10.727
47685W        W20753  33.552   9.713   2.289
47686W        W20754  43.079  16.086  10.711
47687W        W20755  33.025  17.532  14.885
47688W        W20756  25.401  10.689   0.887
47689W        W20757  22.142   0.851  13.430
47690W        W20758   5.093  21.269   3.679
47691W        W20759  41.969  12.767   2.310
47692W        W20760   7.324  21.213   1.104
47693W        W20761  36.419  15.855  11.610
47694W        W20762  25.577  24.645   4.607
47695W        W20763  17.765  14.006  14.685
47696W        W20764  35.081  26.249   2.094
47697W        W20765  37.837  37.475   1.834
47698W        W20766  11.807  29.140  10.318
47699W        W20767  44.893   9.750  12.416
47700W        W20768   4.970  10.646   1.372
47701W        W20769   0.852  36.939   3.768
47702W        W20770  21.295   1.928   1.806
47703W        W20771  44.462  38.568  13.743
47704W        W20772   7.818  14.426  12.850
47705W        W20773  29.154  11.366   4.342
47706W        W20774  39.911  22.074   1.430
47707W        W20775  34.834  10.650   4.594
47708W        W20776  26.685  42.277  13.357
47709W        W20777   1.216   6.327  13.924
47710W        W20778  11.591   8.925  12.485
47711W        W20779   2.287  24.748   3.268
47712W        W20780  39.861   4.862  13.462
47713W        W20781  14.779  21.906   3.078
47714W        W20782  29.964  12.268  13.593
47715W        W20783  11.211  19.285   5.003
47716W        W20784   8.899  25.629   3.768
47717W        W20785  28.642  38.942   0.916
47718W        W20786  39.558  20.082  14.981
47719W        W20787  31.600  36.058   3.169
47720W        W20788  15.122  35.338  10.715
47721W        W20789   2.226  12.062   1.169
47722W        W20790  19.206  14.709  11.570
47723W        W20791  33.600  23.088  14.572
47724W        W20792  24.692  31.155  13.545
47725W        W20793  36.882  30.991   2.742
47726W        W20794  44.939   9.094  10.923
47727W        W20795  12.948  30.568   1.896
47728W        W20796   8.823  17.073  13.541
47729W        W20797  42.709  44.733   0.971
47730W        W20798  41.334  31.503   4.715
47731W        W20799  15.275  18.423   2.673
47732W        W20800  23.882   8.766  11.971
47733W        W20801  27.678  21.213   4.643
47734W        W20802  20.678  21.251  11.350
47735W        W20803   6.787  44.687  13.120
47736W        W20804  15.290  20.539   0.364
47737W        W20805   7.198  26.597   3.746
47738W        W20806  43.976  24.505   1.206
47739W        W20807  29.562  41.761  13.544
47740W        W20808  23.095   4.858   3.054
47741W        W20809  38.999  22.774   2.631
47742W        W20810  42.506   6.865  12.630
47743W        W20811  13.087  13.737   3.170
47744W        W20812  39.736  26.957  11.084
47745W        W20813  32.539  25.964  14.353
47746W        W20814  39.221   8.410  14.954
47747W        W20815  36.146  13.345  10.435
47748W        W20816  17.133  31.662   4.914
47749W        W20817  16.878  39.859   0.259
47750W        W20818  16.778  41.208  13.593
47751W        W20819  12.166   4.251   1.710
47752W        W20820  16.432  30.665  12.590
47753W        W20821  16.751  34.362  10.628
47754W        W20822  12.022  39.635   4.249
47755W        W20823  22.116  14.918  14.023
47756W        W20824  32.501  44.301  14.166
47757W        W20825   1.328  18.254   3.288
47758W        W20826  21.431  24.768   1.416
47759W        W20827   9.059  23.180  12.414
47760W        W20828   0.200  37.619   0.809
47761W        W20829  38.969  21.587   3.282
47762W        W20830  16.752   9.263  12.106
47763W        W20831  19.944  12.112   0.469
47764W        W20832   9.360  20.788  14.877
47765W        W20833   1.929  11.378   4.934
47766W        W20834  22.945   5.369   4.713
47767W        W20835  33.275  22.107  12.588
47768W        W20836  39.577   2.029  14.338
47769W        W20837   3.513  23.571  13.466
47770W        W20838  32.536  20.176   4.368
47771W        W20839   8.926  28.762   2.413
47772W        W20840  20.403  22.110  11.675
47773W        W20841  22.475  14.032   4.226
47774W        W20842  22.657  40.988   0.744
47775W        W20843   4.864  13.643   2.151
47776W        W20844  44.849  43.012  11.037
47777W        W20845  26.582  11.390   0.537
47778W        W20846  26.105  40.994   2.247
47779W        W20847  33.568   7.826   4.477
47780W        W20848   3.118  28.055   2.265
47781W        W20849  15.337  32.696   1.447
47782W        W20850  18.242  35.857  10.663
47783W        W20851  14.742  41.635  10.750
47784W        W20852   0.721  21.756  11.067
47785W        W20853  33.782  15.155  11.618
47786W        W20854  30.222  35.924   4.895
47787W        W20855  44.416   8.859   3.143
47788W        W20856  14.876  13.211  13.018
47789W        W20857  39.518  28.755  11.515
47790W        W20858   5.629  31.082  14.839
47791W        W20859  26.265  16.636  12.070
47792W        W20860  11.941  27.804   0.360
47793W        W20861  11.858  43.394   4.343
47794W        W20862  15.299  16.127   0.112
47795W        W20863  23.576  22.357   0.474
47796W        W20864  39.470   1.679   9.769
47797W        W20865  12.846  12.648   4.797
47798W        W20866  38.030  19.601  12.213
47799W        W20867  16.343  41.397   0.759
47800W        W20868  42.049  31.057  12.490
47801W        W20869  42.819  27.404  12.127
47802W        W20870  41.510  23.583   3.266
47803W        W20871   8.633  13.744  12.494
47804W        W20872  40.174   5.174  13.766
47805W        W20873   5.186  44.802  11.595
47806W        W20874  34.440  11.079  12.073
47807W        W20875  34.892  12.139   4.510
47808W        W20876   5.006  19.110   0.418
47809W        W20877   9.147  29.884  10.671
47810W        W20878  35.519   6.969  10.675
47811W        W20879   4.394  42.870   3.387
47812W        W20880  17.558  21.344  13.406
47813W        W20881  39.339  18.207   0.387
47814W        W20882  21.421  23.319  12.989
47815W        W20883  32.804  15.610  14.707
47816W        W20884   4.932  42.423  11.904
47817W        W20885  19.010   5.224  10.717
47818W        W20886  16.987   1.932   0.933
47819W        W20887  18.169  18.547   0.914
47820W        W20888   5.019  31.043   2.913
47821W        W20889  10.951  13.182  12.805
47822W        W20890   0.342  26.906  13.327
47823W        W20891   8.673  33.500   4.549
47824W        W20892   3.970  18.057  13.433
47825W        W20893   9.135  44.257  12.533
47826W        W20894  11.200  16.724  11.443
47827W        W20895  22.081  40.999  12.573
47828W        W20896   1.026   8.309  12.606
47829W        W20897  22.563  14.788   3.745
47830W        W20898  11.944  30.220  11.430
47831W        W20899  25.869   7.915  10.664
47832W        W20900  35.875  13.436  13.471
47833W        W20901  44.228   4.249  11.134
47834W        W20902  37.174   8.986   4.271
47835W        W20903  15.900  23.821   0.888
47836W        W20904   8.562  30.932  11.007
47837W        W20905  18.455  12.793   1.868
47838W        W20906   2.443  25.395   2.339
47839W        W20907   6.260  18.463  14.314
47840W        W20908  18.570   5.759   1.350
47841W        W20909   4.079  26.296   0.245
47842W        W20910  36.069  26.218  14.381
47843W        W20911  34.321   2.712   4.731
47844W        W20912   6.285  29.921  12.444
47845W        W20913  38.096  19.187  12.941
47846W        W20914  19.936  20.705   1.165
47847W        W20915  34.613  36.368   4.661
47848W        W20916  20.105  38.309  10.728
47849W        W20917  37.901  10.025   3.302
47850W        W20918  25.959  10.541   0.189
47851W        W20919  15.080  15.690   1.287
47852W        W20920   1.808  43.763   3.379
47853W        W20921  43.294  22.172  10.977
47854W        W20922  18.221  15.864  14.938
47855W        W20923  40.121  43.984  14.921
47856W        W20924  42.704   0.336  13.337
47857W        W20925   3.893  36.673  14.552
47858W        W20926  31.520   8.384   4.953
47859W        W20927  36.452  38.989  13.088
47860W        W20928  11.601   0.722  14.450
47861W        W20929   8.464  44.568   3.257
47862W        W20930  16.973  16.327  14.513
47863W        W20931  11.639  33.701   2.340
47864W        W20932  33.540  41.597   3.812
47865W        W20933  43.485  23.610  12.035
47866W        W20934  32.785  40.194  10.144
47867W        W20935  19.023   6.275   3.934
47868W        W20936  12.609  21.299  14.433
47869W        W20937  23.605  42.758  12.509
47870W        W20938  24.550  34.948   0.699
47871W        W20939   4.302  19.452   1.738
47872W        W20940   3.571  19.559  14.420
47873W        W20941  10.324   9.484  13.561
47874W        W20942  26.687  44.900   4.604
47875W        W20943   2.971  28.172  12.522
47876W        W20944   4.135  32.563  12.221
47877W        W20945  34.679   9.682  14.004
47878W        W20946  21.251   9.727  12.564
47879W        W20947  40.491  29.303  11.498
47880W        W20948   2.230  17.737  13.367
47881W        W20949  17.621   4.892   4.705
47882W        W20950  44.681  24.188  14.927
47883W        W20951  26.824  33.882   1.174
47884W        W20952   6.525   2.991  11.537
47885W        W20953  27.108  19.641  14.607
47886W        W20954  33.664   5.430  12.558
47887W        W20955  42.779  40.945  11.081
47888W        W20956  16.111  42.690   1.910
47889W        W20957  24.488   4.772  14.431
47890W        W20958  30.875   8.436  14.550
47891W        W20959  43.966  15.027   4.676
47892W        W20960  22.805  42.051   4.043
47893W        W20961   1.040   1.230  12.108
47894W        W20962   4.275   8.816  13.491
47895W        W20963  28.417  14.015   0.455
47896W        W20964  15.743  13.119   2.763
47897W        W20965  17.699   8.810   1.770
47898W        W20966  28.628  29.243   0.826
47899W        W20967  11.900   1.899  14.928
47900W        W20968   1.050  16.890   4.212
47901W        W20969  22.712  21.555   1.007
47902W        W20970  13.334  44.081   1.845
47903W        W20971   3.338  13.707  10.789
47904W        W20972   5.131   7.263   4.581
47905W        W20973   7.746  31.892  12.537
47906W        W20974  29.941  42.869  11.441
47907W        W20975  30.725  33.054   0.323
47908W        W20976  36.001  19.282  11.501
47909W        W20977  42.125  39.878   4.600
47910W        W20978  38.804  14.789  10.465
47911W        W20979  31.863   0.939   0.985
47912W        W20980   7.716  11.081  13.013
47913W        W20981  28.469  32.852   4.716
47914W        W20982   6.200   7.156  10.940
47915W        W20983   4.395  42.385  10.672
47916W        W20984  23.141  33.392   1.591
47917W        W20985  29.529   9.977  11.456
47918W        W20986  24.023   7.209  14.396
47919W        W20987  37.337  22.440   1.162
47920W        W20988  32.985   9.132   2.775
47921W        W20989  23.225  29.406  11.576
47922W        W20990  32.013  18.226   2.926
47923W        W20991  20.192  11.737  13.794
47924W        W20992  26.859  32.957  12.518
47925W        W20993  40.980   8.895  12.462
47926W        W20994  40.827  32.908   4.659
47927W        W20995   8.216  30.524  13.469
47928W        W20996  39.938  18.115  11.542
47929W        W20997  10.911  39.225   1.850
47930W        W20998  10.298  12.304  11.615
47931W        W20999  37.851  37.995   4.951
47932W        W21000   7.762  14.644   2.158
47933W        W21001  39.540  44.707  12.552
47934W        W21002  42.861   3.815   0.261
47935W        W21003  28.507  28.859   0.445
47936W        W21004   1.450   2.684  12.967
47937W        W21005  27.583  43.735   2.963
47938W        W21006  15.410  16.448   0.952
47939W        W21007  39.734  15.042   3.638
47940W        W21008  42.323  27.625  14.460
47941W        W21009  35.344   4.688   5.094
47942W        W21010  28.905   7.466   1.978
47943W        W21011  36.282  18.620   2.850
47944W        W21012  10.084  23.738   2.411
47945W        W21013  27.362  28.680  14.821
47946W        W21014  19.600  32.935  14.820
47947W        W21015  42.618   5.793  14.401
47948W        W21016  12.369  30.357   4.106
47949W        W21017  25.560   4.435  13.096
47950W        W21018  36.253  33.612   1.634
47951W        W21019   1.882  35.813   0.453
47952W        W21020   8.633  37.144  13.412
47953W        W21021  37.331   4.761  14.985
47954W        W21022  19.672   2.937  14.399
47955W        W21023  41.980   3.135  11.597
47956W        W21024  19.506   4.840   5.067
47957W        W21025  34.689  13.118  14.113
47958W        W21026  19.926  12.613  14.294
47959W        W21027   4.425   8.316  11.546
47960W        W21028  28.609  30.050  12.908
47961W        W21029  29.849  20.475  11.031
47962W        W21030  40.961  16.432  14.853
47963W        W21031   8.735   9.457  11.030
47964W        W21032  20.312  39.175  14.362
47965W        W21033   5.019  21.290   2.363
47966W        W21034   7.133  27.034  14.352
47967W        W21035  26.934  34.952   1.824
47968W        W21036  33.371   4.439  12.551
47969W        W21037   7.227   2.126   1.168
47970W        W21038  18.510  22.956  13.600
47971W        W21039   8.141  41.975  14.041
47972W        W21040   6.454  36.524  14.873
47973W        W21041   3.224  12.097   3.797
47974W        W21042   1.357   1.915   3.249
47975W        W21043  12.379   2.222   0.806
47976W        W21044   2.631  13.997   1.964
47977W        W21045   3.167  41.809  13.864
47978W        W21046   1.136  28.153   4.160
47979W        W21047  42.455   1.329   3.767
47980W        W21048  34.009  27.588  12.160
47981W        W21049  27.011   6.732   2.206
47982W        W21050   7.202  14.269  12.018
47983W        W21051  12.666  44.371   1.772
47984W        W21052  35.538  21.213  14.588
47985W        W21053  30.250  11.475   0.387
47986W        W21054  26.416  16.652  13.511
47987W        W21055  11.715   4.699  13.875
47988W        W21056  27.062  12.703   5.401
47989W        W21057  21.429  34.547  13.493
47990W        W21058  33.391  31.826  14.929
47991W        W21059  27.952   2.058   0.200
47992W        W21060  23.565  31.570  13.556
47993W        W21061  13.854   4.462  13.950
47994W        W21062   5.461  30.749  10.709
47995W        W21063  15.117   4.825   2.158
47996W        W21064  15.393  15.057  11.634
47997W        W21065  40.584  44.956   2.815
47998W        W21066  17.098   8.936  12.916
47999W        W21067  24.603  43.963   0.749
48000W        W21068   7.677  18.209   4.553
48001W        W21069   6.830   3.234   3.566
48002W        W21070  33.564  23.899  10.617
48003W        W21071  22.774  25.052   0.496
48004W        W21072  33.766   2.868  14.214
48005W        W21073  11.369  36.900   3.163
48006W        W21074  23.668  10.653   0.771
48007W        W21075  22.737  15.935  10.814
48008W        W21076   2.600  10.281   3.247
48009W        W21077  19.087  34.484  10.543
48010W        W21078  29.843  35.078  13.942
48011W        W21079   7.214  29.159  14.239
48012W        W21080  35.607   7.883   0.810
48013W        W21081  31.132  40.857   2.440
48014W        W21082  33.489  36.210   0.730
48015W        W21083  13.314   3.322   2.204
48016W        W21084  12.587  15.732  14.483
48017W        W21085  13.589  28.118   2.951
48018W        W21086  38.536  40.284   4.026
48019W        W21087  24.777  24.548   2.363
48020W        W21088  25.751   9.375  12.968
48021W        W21089   8.748  12.923   3.104
48022W        W21090  18.933   6.321  14.386
48023W        W21091  37.352  20.102   0.355
48024W        W21092  33.997  40.027  14.518
48025W        W21093  27.016   7.805   0.500
48026W        W21094   2.766  40.603   4.369
48027W        W21095  27.128   8.697  14.413
48028W        W21096  16.575   0.243   2.750
48029W        W21097  10.451  12.643  11.138
48030W        W21098   9.182  25.090  12.434
48031W        W21099   2.777  42.458   0.983
48032W        W21100  34.537  15.905  14.501
48033W        W21101  44.789  11.813   1.338
48034W        W21102   0.600  28.876  11.975
48035W        W21103  23.506  14.721   4.613
48036W        W21104  43.220   0.369  13.347
48037W        W21105  36.572  21.745   4.299
48038W        W21106  10.096  35.141  14.838
48039W        W21107  12.752  10.155   1.422
48040W        W21108  19.631  14.029  12.891
48041W        W21109   7.692  19.719   3.329
48042W        W21110  36.876  16.315   1.839
48043W        W21111  28.524  34.695  13.884
48044W        W21112  12.818   6.529   1.801
48045W        W21113  39.843  40.981   0.973
48046W        W21114  20.114  31.610  14.405
48047W        W21115  23.398   6.396  14.910
48048W        W21116  42.145  26.422   3.491
48049W        W21117  21.017   3.485  11.351
48050W        W21118  43.622  41.093  12.978
48051W        W21119  23.189  29.140  11.131
48052W        W21120  10.751  21.543   4.522
48053W        W21121  44.344  36.055   3.945
48054W        W21122   4.735  22.616  12.744
48055W        W21123  38.402  14.240  11.067
48056W        W21124  32.828  44.021   2.759
48057W        W21125  33.959   4.677   2.786
48058W        W21126  17.199  30.468   2.764
48059W        W21127  15.632  28.149  11.502
48060W        W21128  34.150   0.279  13.779
48061W        W21129  44.924   3.876   2.727
48062W        W21130  41.325   9.272  12.007
48063W        W21131  12.402  12.260   3.300
48064W        W21132  13.371   2.491  11.211
48065W        W21133   2.058  40.701   5.025
48066W        W21134   2.156  13.754   0.416
48067W        W21135  26.849  28.515  11.180
48068W        W21136  40.774  14.292   2.359
48069W        W21137  15.671  31.455   4.603
48070W        W21138   8.179  12.112   1.280
48071W        W21139   1.049  30.936  12.532
48072W        W21140  28.816   7.907   2.720
48073W        W21141  10.195  35.650  14.764
48074W        W21142  11.162  28.519   0.354
48075W        W21143  26.979   4.492   2.526
48076W        W21144  36.344  42.498   3.687
48077W        W21145  21.128   4.678  12.047
48078W        W21146  34.648  32.560   2.815
48079W        W21147  27.601   0.501  13.336
48080W        W21148   9.347   1.810   2.049
48081W        W21149   2.854  31.486  13.550
48082W        W21150  38.119  31.811   4.177
48083W        W21151  40.439  29.590  11.913
48084W        W21152  23.191  10.830   1.226
48085W        W21153  36.435  10.347  12.117
48086W        W21154  23.545  44.558  10.508
48087W        W21155  33.880  35.134  11.926
48088W        W21156  11.776  41.712   5.024
48089W        W21157  42.119  41.162   1.353
48090W        W21158  41.844  32.125   1.890
48091W        W21159  29.979  34.764   0.429
48092W        W21160  24.409  20.224  10.657
48093W        W21161  20.273   2.893   1.971
48094W        W21162  41.589  21.950  11.121
48095W        W21163   5.385   3.460  14.519
48096W        W21164  30.882   7.734   4.141
48097W        W21165  17.112  22.660   0.346
48098W        W21166  29.042  21.280   4.985
48099W        W21167   3.983   5.898   1.706
48100W        W21168  32.025  43.533   2.911
48101W        W21169   7.914  14.871  11.526
48102W        W21170  24.429  24.472   3.207
48103W        W21171  28.342  23.556   0.956
48104W        W21172  30.292  20.178  11.133
48105W        W21173  10.859  44.890   0.915
48106W        W21174  26.735   8.062   1.986
48107W        W21175  27.071  35.104  10.813
48108W        W21176   4.908   6.914  13.076
48109W        W21177  42.776   8.718  10.866
48110W        W21178   9.882  14.786   2.209
48111W        W21179   1.664  36.641  14.297
48112W        W21180  35.010  14.888   4.146
48113W        W21181  22.184  39.016   1.302
48114W        W21182  32.637   3.902  11.883
48115W        W21183  25.447   2.823  11.514
48116W        W21184  22.896  24.142  12.038
48117W        W21185  29.567  18.230  14.273
48118W        W21186  28.194  11.537  13.476
48119W        W21187   7.312  25.940  12.083
48120W        W21188  30.689  14.928  14.188
48121W        W21189  29.271   1.415  13.366
48122W        W21190  38.920   6.609   4.594
48123W        W21191  32.646   8.302  10.570
48124W        W21192   3.474  35.146   4.391
48125W        W21193  33.497  24.205  12.467
48126W        W21194  10.331  20.306   4.118
48127W        W21195  23.077  12.265   0.890
48128W        W21196  43.933  37.272   4.721
48129W        W21197  23.726  12.176   1.137
48130W        W21198  16.551  11.348  11.950
48131W        W21199  36.536  13.381  11.617
48132W        W21200   5.367  44.929   4.689
48133W        W21201  22.133  28.251  13.869
48134W        W21202  29.881   8.455   0.871
48135W        W21203  33.485  27.278   0.973
48136W        W21204  36.890  24.879   3.160
48137W        W21205  14.536   5.725   2.283
48138W        W21206  33.103   9.033   0.393
48139W        W21207  23.726  42.382   1.886
48140W        W21208  20.484  21.288   4.247
48141W        W21209  11.704  37.840  14.254
48142W        W21210   7.990   7.678  11.178
48143W        W21211   9.577  25.782   2.356
48144W        W21212   7.899   7.089   3.267
48145W        W21213   3.986   0.493   4.065
48146W        W21214   3.866  25.610   1.829
48147W        W21215   8.902  23.736  12.524
48148W        W21216  24.159   3.857  10.644
48149W        W21217  30.238  34.600  10.772
48150W        W21218  32.843   6.727  14.992
48151W        W21219  29.102  31.764  11.689
48152W        W21220   3.078  36.492  10.415
48153W        W21221  14.197  14.659  14.659
48154W        W21222  41.063  20.189  14.891
48155W        W21223  26.000   0.944  14.072
48156W        W21224  37.083  38.820  13.571
48157W        W21225  27.846  15.855  12.116
48158W        W21226  20.146   4.828  13.043
48159W        W21227  34.096  36.327   3.546
48160W        W21228  14.542  12.208  11.372
48161W        W21229  30.448   7.955   4.342
48162W        W21230   1.674   6.911  12.502
48163W        W21231  36.939   2.875   5.010
48164W        W21232  17.831  13.830   0.980
48165W        W21233  41.303  13.261   0.490
48166W        W21234  42.913  17.702   2.371
48167W        W21235  16.165  10.332  11.481
48168W        W21236  40.224  34.671   2.786
48169W        W21237   0.824  20.829   2.344
48170W        W21238  32.481  35.422   3.700
48171W        W21239  21.189  26.733   2.879
48172W        W21240  40.353  15.440   2.955
48173W        W21241   3.782   9.798   2.633
48174W        W21242   6.209  31.894  13.937
48175W        W21243  19.502  27.169  11.117
48176W        W21244  42.973  37.576   1.393
48177W        W21245  24.984  38.893   0.877
48178W        W21246  44.874  29.673  12.239
48179W        W21247  15.627  27.130  11.515
48180W        W21248  43.887  29.699  14.923
48181W        W21249   4.699   4.895   9.744
48182W        W21250  35.885  40.903   1.242
48183W        W21251  29.142  41.505  14.308
48184W        W21252  25.103  39.041  10.435
48185W        W21253  26.981  42.814   4.744
48186W        W21254   4.354   3.421   3.290
48187W        W21255  30.599  33.541   0.182
48188W        W21256   8.616  43.256   0.480
48189W        W21257  26.977  21.227  12.884
48190W        W21258  12.326   8.721   2.925
48191W        W21259  26.912   0.407  14.419
48192W        W21260   4.859  44.050  12.174
48193W        W21261  15.186  36.271   4.670
48194W        W21262  10.681  18.266  10.322
48195W        W21263  29.572  14.646  12.206
48196W        W21264  19.558  10.191   2.612
48197W        W21265  14.294  41.718  11.473
48198W        W21266  34.127  38.728   2.377
48199W        W21267  42.069  30.905  11.130
48200W        W21268  19.015  33.495   0.748
48201W        W21269   3.133  12.646   1.534
48202W        W21270  29.125  16.492   3.560
48203W        W21271  31.909   3.028  11.123
48204W        W21272  10.073   7.670  12.879
48205W        W21273  20.644   9.019  14.127
48206W        W21274  41.909  12.405  11.988
48207W        W21275  23.519  25.887  10.853
48208W        W21276  32.422  25.751  14.784
48209W        W21277  44.005   4.739  11.813
48210W        W21278   4.136   5.807   0.836
48211W        W21279  42.499  30.838  11.613
48212W        W21280  30.493   4.332   1.829
48213W        W21281  42.456   7.229  13.994
48214W        W21282  26.592   3.930  10.600
48215W        W21283  31.017  30.274  11.612
48216W        W21284  19.839  30.929  14.034
48217W        W21285  43.131  10.240   4.526
48218W        W21286  30.968  35.136  12.425
48219W        W21287  31.637  20.103  10.630
48220W        W21288   2.854  16.583  11.652
48221W        W21289  14.828   1.823   4.523
48222W        W21290   2.925   3.348  11.000
48223W        W21291  12.130  28.926   2.121
48224W        W21292   7.300  15.967  11.065
48225W        W21293  15.071  34.431   1.023
48226W        W21294  23.074  11.646  10.982
48227W        W21295   9.228   8.234  12.205
48228W        W21296  27.928  21.751  14.661
48229W        W21297  40.505  39.739   2.320
48230W        W21298  33.134  36.483   2.791
48231W        W21299  16.092  30.372   4.183
48232W        W21300  41.160  36.665  11.000
48233W        W21301   0.429  26.394  14.161
48234W        W21302  25.167  23.804  12.565
48235W        W21303  21.499  18.761  13.336
48236W        W21304  15.143  37.813   1.491
48237W        W21305  18.450  40.697   1.201
48238W        W21306  42.273  43.452  12.084
48239W        W21307   3.905  42.370  10.432
48240W        W21308   4.819  17.527   1.569
48241W        W21309  29.386  33.009  12.686
48242W        W21310   2.885  42.615   0.350
48243W        W21311  36.937  15.925   4.158
48244W        W21312   5.906   3.011   2.166
48245W        W21313  29.096   9.169   4.240
48246W        W21314   7.627  21.258  14.557
48247W        W21315  42.985  44.862   3.255
48248W        W21316  10.885  29.039  14.187
48249W        W21317  12.314  31.717   4.173
48250W        W21318  38.852   7.530   3.406
48251W        W21319  35.287   5.227   4.135
48252W        W21320  21.287  31.218  11.666
48253W        W21321   2.839  34.702  12.207
48254W        W21322   2.812   2.732   0.281
48255W        W21323  19.704  27.938  11.500
48256W        W21324  30.489   6.653   0.828
48257W        W21325  23.728  42.727   3.283
48258W        W21326   6.327   4.593   3.726
48259W        W21327  34.088  41.339  12.987
48260W        W21328  19.023  19.850   0.434
48261W        W21329   2.838   0.561   2.731
48262W        W21330  11.267  13.343   0.547
48263W        W21331   6.483  15.488  14.795
48264W        W21332   1.538  26.754   5.082
48265W        W21333  21.203   9.200   0.461
48266W        W21334   9.853  11.365   2.442
48267W        W21335  15.115  35.920  14.720
48268W        W21336  33.151  33.482   5.022
48269W        W21337   1.717  14.712  11.589
48270W        W21338  44.888  37.306   2.936
48271W        W21339  17.942  12.181  12.754
48272W        W21340  25.965  31.668   3.794
48273W        W21341   9.440   2.345   2.990
48274W        W21342   2.909  25.107   0.445
48275W        W21343  17.331   7.429  13.004
48276W        W21344   2.977  20.666  14.489
48277W        W21345  39.279  29.603  13.836
48278W        W21346  28.012   7.322  10.974
48279W        W21347  24.559  15.152  10.482
48280W        W21348  26.821  23.390  13.618
48281W        W21349   6.733  22.317  13.572
48282W        W21350  35.943  30.422   1.930
48283W        W21351  10.522   9.271  10.703
48284W        W21352   4.699  13.653  10.619
48285W        W21353  35.285  31.630   5.266
48286W        W21354  28.685  16.584  14.224
48287W        W21355  43.699  23.918   3.813
48288W        W21356  26.836  31.629  13.112
48289W        W21357   3.000  34.667  11.025
48290W        W21358  32.407  24.444  14.282
48291W        W21359  16.636  22.836   4.297
48292W        W21360   3.972  20.741  13.484
48293W        W21361   2.339  23.652  11.017
48294W        W21362  36.820  18.466  12.006
48295W        W21363   0.447  32.362   3.699
48296W        W21364  17.508  11.175   0.798
48297W        W21365   4.727   5.922   3.225
48298W        W21366   9.970  41.470  12.475
48299W        W21367  32.585  43.975   0.460
48300W        W21368  33.507   4.152  12.959
48301W        W21369  11.833  23.935  13.403
48302W        W21370   0.403   4.294  14.125
48303W        W21371   1.327  22.108  13.064
48304W        W21372  30.446  22.517  13.923
48305W        W21373   2.163  33.555  10.985
48306W        W21374  15.827  22.986  13.402
48307W        W21375  33.987  24.022   0.465
48308W        W21376  34.091  26.678  10.767
48309W        W21377   8.103  24.128   4.279
48310W        W21378  39.818  31.945   4.935
48311W        W21379  13.739  17.854  12.522
48312W        W21380  32.175   4.314  10.201
48313W        W21381  34.783  40.954  13.426
48314W        W21382  39.592  12.228  11.774
48315W        W21383  23.138  14.259   3.716
48316W        W21384  12.357  39.522  12.167
48317W        W21385  37.560   2.464  13.373
48318W        W21386   1.974  40.669   1.924
48319W        W21387  35.061  24.278  14.134
48320W        W21388  35.588   9.733  14.655
48321W        W21389  21.215  10.135  11.751
48322W        W21390  32.158  39.893  12.004
48323W        W21391  15.218  16.701  11.193
48324W        W21392  19.766  28.709  12.659
48325W        W21393  37.013  35.962   3.941
48326W        W21394  29.116  23.338  11.200
48327W        W21395   6.737  11.446   4.546
48328W        W21396  43.360   6.913   0.845
48329W        W21397  24.026  35.123   3.258
48330W        W21398  26.242  38.628   2.252
48331W        W21399   0.127  39.096  14.031
48332W        W21400   7.165   1.373  12.466
48333W        W21401  42.918  26.726  11.370
48334W        W21402  33.033  23.965  14.943
48335W        W21403  35.154   8.805   4.040
48336W        W21404  13.820  35.118  11.178
48337W        W21405  16.723  25.970   1.377
48338W        W21406  20.152  38.399   0.198
48339W        W21407  29.010   7.183   4.636
48340W        W21408  40.493  27.285  14.969
48341W        W21409   9.429  26.553  14.560
48342W        W21410  21.663  18.912   9.905
48343W        W21411  27.702  15.788   3.049
48344W        W21412  37.271   0.450  13.654
48345W        W21413  19.927   5.799   4.779
48346W        W21414  34.945   9.318   2.272
48347W        W21415  30.510  20.515   3.667
48348W        W21416  21.824  16.221  13.868
48349W        W21417  35.060  20.020   4.503
48350W        W21418  43.792  17.553   4.149
48351W        W21419  44.902  30.437  14.806
48352W        W21420  38.665  32.538  13.044
48353W        W21421  13.220  22.578   0.088
48354W        W21422   6.270  24.132  10.602
48355W        W21423  26.175  44.163  11.065
48356W        W21424  40.297  30.267   1.761
48357W        W21425  21.130  34.915   3.632
48358W        W21426  26.110  33.445   2.658
48359W        W21427   4.978  14.564  12.053
48360W        W21428  42.898  39.776   1.838
48361W        W21429  42.790  41.767  13.298
48362W        W21430   8.382  17.690   1.478
48363W        W21431  13.431  18.685   4.124
48364W        W21432  23.030  44.759  13.112
48365W        W21433   8.195  25.975   4.426
48366W        W21434  34.336  17.746   3.200
48367W        W21435  17.579   3.014   3.242
48368W        W21436   8.884  34.787  13.144
48369W        W21437  40.853  13.551   5.509
48370W        W21438  14.294  21.019   1.805
48371W        W21439  36.858  15.235   4.786
48372W        W21440  16.337   0.976   3.141
48373W        W21441  35.236   4.709   4.161
48374W        W21442  25.015  35.582  13.863
48375W        W21443  26.956  33.202  11.161
48376W        W21444  23.286   3.303  10.460
48377W        W21445  44.606  11.306   1.319
48378W        W21446  11.869   4.589  11.942
48379W        W21447  32.933  31.177   0.439
48380W        W21448   8.164   9.363  14.386
48381W        W21449  18.292  30.579   0.046
48382W        W21450  39.338  41.914   2.267
48383W        W21451  15.091  29.012  12.420
48384W        W21452  18.136  26.184   1.313
48385W        W21453  19.960   5.950   3.286
48386W        W21454  20.272  34.967  12.061
48387W        W21455  21.560   8.911  10.658
48388W        W21456  40.813  39.280  11.524
48389W        W21457  16.368   6.248   2.379
48390W        W21458  20.796  33.734  10.597
48391W        W21459  24.018   2.419  11.162
48392W        W21460  39.963  17.142  14.412
48393W        W21461  26.109   9.959   5.268
48394W        W21462   0.771  11.105   0.724
48395W        W21463  18.208  13.128  11.417
48396W        W21464  42.682  44.476   3.427
48397W        W21465   1.284   6.341  11.040
48398W        W21466   3.625   8.213  13.472
48399W        W21467  34.462  30.137   3.076
48400W        W21468  42.561  38.801  11.040
48401W        W21469  22.198  37.920  12.106
48402W        W21470  13.825  42.874  11.518
48403W        W21471   3.424  31.939   1.513
48404W        W21472  15.091  30.919   0.310
48405W        W21473   1.972  34.814  13.063
48406W        W21474  31.766   7.275   4.453
48407W        W21475  36.923  15.234   0.003
48408W        W21476  14.585  31.155  14.027
48409W        W21477  37.822  40.795  13.827
48410W        W21478   2.851  22.971  11.959
48411W        W21479  41.778   4.710   4.073
48412W        W21480  29.257   5.424   2.654
48413W        W21481  37.886  40.497  10.925
48414W        W21482  36.494  26.220  12.693
48415W        W21483  12.125  34.924   1.354
48416W        W21484  14.050  42.808  14.196
48417W        W21485  10.675  35.584  13.554
48418W        W21486  19.748   2.416   0.818
48419W        W21487  11.756  16.383  10.639
48420W        W21488  11.222   1.885  10.765
48421W        W21489  42.416  33.446  14.505
48422W        W21490  41.294  43.342   1.578
48423W        W21491  10.859  33.173   2.811
48424W        W21492  29.864  38.842   3.302
48425W        W21493  21.153  29.567  13.099
48426W        W21494  42.540   1.500   4.776
48427W        W21495  28.721  22.465  13.436
48428W        W21496   7.107  12.359   2.288
48429W        W21497   0.571  31.880  13.830
48430W        W21498  19.525  37.575   4.916
48431W        W21499   5.392  44.275  11.093
48432W        W21500   4.014  20.949   2.601
48433W        W21501   0.826  30.783  14.942
48434W        W21502   5.895  17.910  14.520
48435W        W21503   3.371  10.753  12.392
48436W        W21504  18.233  28.873   4.772
48437W        W21505  29.068  24.724  11.487
48438W        W21506  44.215  24.911  10.982
48439W        W21507  11.141  16.133   2.157
48440W        W21508   0.293  13.216  13.675
48441W        W21509  20.705  17.169   1.863
48442W        W21510  30.042   6.948   0.762
48443W        W21511  29.632  18.004   4.557
48444W        W21512   8.325   1.128  11.721
48445W        W21513  31.436  32.670   0.798
48446W        W21514  43.580  35.863   1.284
48447W        W21515  22.289  34.167   4.580
48448W        W21516   8.568  33.568  14.368
48449W        W21517  22.699   0.652   1.321
48450W        W21518  31.454  10.945  14.568
48451W        W21519  40.732  25.069  12.056
48452W        W21520  35.984   7.866  13.439
48453W        W21521  13.832  30.493   1.414
48454W        W21522  32.098  15.873  14.072
48455W        W21523  15.267  43.806   3.539
48456W        W21524  21.475   7.761   0.910
48457W        W21525  15.226   1.137   0.276
48458W        W21526  17.013  33.711   3.656
48459W        W21527  20.239  44.737   2.317
48460W        W21528  35.552  19.973   4.652
48461W        W21529  14.771  30.971   2.011
48462W        W21530  11.430  37.472  13.395
48463W        W21531  27.003  13.525   1.800
48464W        W21532  42.307  15.264   4.111
48465W        W21533  13.240  41.350   0.430
48466W        W21534  43.403  34.497   2.655
48467W        W21535  14.653  17.751  12.001
48468W        W21536  14.336  30.761   0.774
48469W        W21537   8.291   7.637   1.708
48470W        W21538  41.947  10.214   0.820
48471W        W21539  17.547  44.786  14.798
48472W        W21540  19.703  29.365  14.919
48473W        W21541   4.600  17.640   4.292
48474W        W21542  34.520  35.331   1.227
48475W        W21543  23.910  18.374   1.511
48476W        W21544   1.586   5.645   0.909
48477W        W21545   9.694  30.665   0.822
48478W        W21546  24.773   9.898  11.119
48479W        W21547   2.707  44.256  14.420
48480W        W21548  18.025  17.247   0.922
48481W        W21549   6.653  26.623   4.466
48482W        W21550  14.347  12.377  13.832
48483W        W21551   3.249  24.134  12.134
48484W        W21552  22.093  22.451  11.522
48485W        W21553   1.773  24.008   0.544
48486W        W21554  14.301  32.623  14.914
48487W        W21555  34.272  40.805   0.292
48488W        W21556   8.363  26.707  11.974
48489W        W21557  40.225  32.999  11.009
48490W        W21558  24.142  29.057  13.748
48491W        W21559  12.749  39.673  10.736
48492W        W21560   2.720   8.164   0.924
48493W        W21561  35.185  26.550  12.894
48494W        W21562  34.415  12.552   4.608
48495W        W21563  14.549  43.054  14.873
48496W        W21564  44.382  32.914   4.608
48497W        W21565  41.035  23.173  12.187
48498W        W21566  42.230  25.493   0.969
48499W        W21567  31.914  17.393  11.090
48500W        W21568  23.699   5.696   2.256
48501W        W21569  16.711  40.323   0.419
48502W        W21570  28.520  31.654   1.228
48503W        W21571  38.745  44.313  13.918
48504W        W21572   1.852  30.005  13.569
48505W        W21573   0.089  40.330   4.352
48506W        W21574  30.819  12.658  14.464
48507W        W21575   5.958  25.023  10.616
48508W        W21576  25.649  11.182   5.209
48509W        W21577  15.590  21.691   3.678
48510W        W21578  42.198  32.881   1.790
48511W        W21579  37.057   3.654  14.510
48512W        W21580  19.272   5.687   0.179
48513W        W21581  21.986  14.131  13.528
48514W        W21582  22.325  20.094   2.446
48515W        W21583   5.680  30.620  11.147
48516W        W21584  21.734  43.572  14.800
48517W        W21585   6.860  41.723   2.422
48518W        W21586  13.129   1.428  14.539
48519W        W21587  25.835  43.929  11.364
48520W        W21588   5.765  15.129   3.554
48521W        W21589  16.556  10.125  11.109
48522W        W21590   5.372  20.849  14.774
48523W        W21591  14.301  29.536  11.024
48524W        W21592  25.086   2.471   2.368
48525W        W21593  20.985  42.059  13.958
48526W        W21594   1.173  11.323   2.851
48527W        W21595  36.014  23.787  11.485
48528W        W21596  36.390  29.389   1.403
48529W        W21597  12.752  38.530   2.249
48530W        W21598  32.957  25.455   2.773
48531W        W21599   8.627  11.215   3.588
48532W        W21600  33.426  18.056   1.277
48533W        W21601   4.882  26.380  13.851
48534W        W21602  13.678  15.245   2.684
48535W        W21603  11.865  35.097  12.628
48536W        W21604  35.080   0.772  13.341
48537W        W21605  31.847  30.050   1.749
48538W        W21606  17.802  15.773  13.456
48539W        W21607  42.693   0.534   4.507
48540W        W21608  14.066   1.539   4.457
48541W        W21609  27.217   2.796  14.246
48542W        W21610  13.760  41.404  14.491
48543W        W21611  12.771  44.734   3.379
48544W        W21612  32.536  32.762  11.577
48545W        W21613  18.874  40.747  14.758
48546W        W21614  34.106  17.550   4.608
48547W        W21615  17.670  37.876  14.538
48548W        W21616  31.066  18.714   0.509
48549W        W21617  35.986  34.295   5.346
48550W        W21618  26.513  25.526  14.998
48551W        W21619  39.039   1.520  11.532
48552W        W21620  29.777  39.438   2.286
48553W        W21621  32.632   6.286   1.009
48554W        W21622  43.535  17.606  14.285
48555W        W21623  19.044  24.645  12.897
48556W        W21624  40.428  15.665  14.954
48557W        W21625  27.685  16.165  12.510
48558W        W21626  22.110  11.291   1.837
48559W        W21627  39.618  38.362   0.426
48560W        W21628  24.120  43.988   0.507
48561W        W21629   3.162  26.422  14.027
48562W        W21630  42.137   3.188  12.580
48563W        W21631   3.787   5.745  11.277
48564W        W21632  18.708  16.311  12.896
48565W        W21633  38.474  28.600   4.310
48566W        W21634  41.971  34.371   0.744
48567W        W21635  29.369  37.967  14.756
48568W        W21636  21.472  43.948   3.615
48569W        W21637  25.340  17.245  11.230
48570W        W21638  12.176  36.445   2.693
48571W        W21639  43.442   2.453  14.047
48572W        W21640  36.308   1.299  11.967
48573W        W21641  33.641  11.368   0.751
48574W        W21642   6.381  23.870   2.797
48575W        W21643  32.232  23.195   2.471
48576W        W21644   7.258   4.735   0.422
48577W        W21645  37.356  21.722  10.564
48578W        W21646   5.456  34.892   1.755
48579W        W21647  25.631  43.474   4.265
48580W        W21648  21.105  37.424  14.423
48581W        W21649  39.471  25.877   2.580
48582W        W21650  13.371   5.263  13.185
48583W        W21651  40.971  18.713  11.117
48584W        W21652  39.089  29.547  13.340
48585W        W21653  20.236  40.348  12.012
48586W        W21654  17.593  10.878   3.949
48587W        W21655  36.941  38.561   2.250
48588W        W21656  38.962  26.231  13.246
48589W        W21657  13.266  10.150  14.491
48590W        W21658  15.122  42.630  13.413
48591W        W21659  32.750   4.315   1.239
48592W        W21660   6.882  29.461   4.376
48593W        W21661   9.004  17.702   1.797
48594W        W21662  36.277  21.060  12.657
48595W        W21663  15.805   5.194  11.459
48596W        W21664  22.584   6.746  10.718
48597W        W21665   9.997  44.452  10.985
48598W        W21666  20.027  10.344  13.839
48599W        W21667  41.962  29.388   1.844
48600W        W21668  39.555  11.832   4.477
48601W        W21669  18.867  38.856  14.300
48602W        W21670   8.326  11.883  11.918
48603W        W21671  40.840  31.831   0.444
48604W        W21672  28.055   5.775   3.855
48605W        W21673  18.264   2.435   0.282
48606W        W21674   5.254   2.930   0.940
48607W        W21675  22.252  16.504  12.413
48608W        W21676  19.064  42.063   1.706
48609W        W21677  18.644   4.446  14.274
48610W        W21678  18.718  36.092   2.310
48611W        W21679  23.165  27.589  11.046
48612W        W21680  11.332  26.985  14.331
48613W        W21681  27.094  40.860  14.079
48614W        W21682  32.910  25.913  12.079
48615W        W21683   7.321  32.917   2.038
48616W        W21684   0.377  19.112  12.578
48617W        W21685   9.794  25.876  13.611
48618W        W21686  11.546   1.883   3.254
48619W        W21687   2.031   1.258  14.953
48620W        W21688   8.818  23.432  13.113
48621W        W21689  22.329  12.182  12.838
48622W        W21690  20.545  32.945   1.263
48623W        W21691  15.332   5.400  11.554
48624W        W21692  12.685   0.920  10.726
48625W        W21693  35.014  16.761  12.376
48626W        W21694  31.066  22.115   2.657
48627W        W21695  27.696  22.266  13.499
48628W        W21696   0.289  40.465   1.401
48629W        W21697  16.867  17.151   2.429
48630W        W21698  14.651  31.108  13.130
48631W        W21699   0.946  14.153   4.994
48632W        W21700  26.101   6.844  12.033
48633W        W21701   6.257  18.141   0.140
48634W        W21702  12.569  26.218  10.738
48635W        W21703  32.911  12.762  11.166
48636W        W21704   2.437   8.281   4.833
48637W        W21705   3.693  24.009  11.605
48638W        W21706  25.443   6.915   4.601
48639W        W21707  25.732  40.771   1.792
48640W        W21708  44.705  34.093   0.735
48641W        W21709  14.814   2.421  13.771
48642W        W21710  39.434  31.885  13.010
48643W        W21711   8.378  39.603  14.724
48644W        W21712   1.948  36.588   2.189
48645W        W21713   9.865   7.426   1.807
48646W        W21714   4.943  36.035  10.410
48647W        W21715  28.108  39.133   0.272
48648W        W21716   5.673  13.833  13.274
48649W        W21717  32.080  35.041   1.960
48650W        W21718  18.958   3.274  12.495
48651W        W21719  31.936  10.387   1.686
48652W        W21720  12.055   2.840  11.059
48653W        W21721  16.844  37.304  13.461
48654W        W21722  22.932  38.006  14.680
48655W        W21723  13.562  24.238  12.502
48656W        W21724  22.977   4.285  10.967
48657W        W21725   9.875   0.889  11.009
48658W        W21726  13.785  34.030  13.954
48659W        W21727  12.687  43.080   0.001
48660W        W21728  32.907  28.993  10.990
48661W        W21729  13.019  44.487   4.618
48662W        W21730  21.140  14.350   4.056
48663W        W21731   5.690  40.005   2.627
48664W        W21732  33.828  17.706   2.312
48665W        W21733  26.696  12.218  14.321
48666W        W21734  29.120  10.250   4.184
48667W        W21735   1.273  29.408  14.884
48668W        W21736  39.729  12.425   3.578
48669W        W21737   8.822  16.525   4.208
48670W        W21738  21.695   0.462  12.619
48671W        W21739  30.753  41.400   4.163
48672W        W21740  40.347  38.062  12.398
48673W        W21741  27.510  33.413   3.812
48674W        W21742  25.592  20.942  10.155
48675W        W21743  20.531  34.163   3.699
48676W        W21744  30.517   8.961  13.642
48677W        W21745   3.000   7.745   0.861
48678W        W21746  29.631   5.214  11.615
48679W        W21747   2.026  20.606   2.270
48680W        W21748  11.233  36.279  13.900
48681W        W21749  34.249  43.950  12.906
48682W        W21750  31.386  11.710   0.040
48683W        W21751  33.144  43.023  13.819
48684W        W21752  31.240  16.736  11.405
48685W        W21753  10.820  10.174   4.172
48686W        W21754  38.951  44.373  12.068
48687W        W21755  17.159  19.998  13.150
48688W        W21756  21.055  39.412   4.418
48689W        W21757   0.343   6.109   1.398
48690W        W21758  10.865  29.091   1.859
48691W        W21759  42.136  20.181   2.925
48692W        W21760  29.053  30.921   3.309
48693W        W21761  24.476  24.421   1.892
48694W        W21762  18.221  11.886   2.393
48695W        W21763  43.315  38.943  14.658
48696W        W21764  37.838  27.945  14.878
48697W        W21765  10.201  20.525   2.807
48698W        W21766  19.116  27.012   3.547
48699W        W21767   0.298   7.242  12.021
48700W        W21768  17.908  29.436  11.183
48701W        W21769   2.047  32.641  10.785
48702W        W21770  39.477  26.807  10.659
48703W        W21771  35.574  38.938   1.333
48704W        W21772  31.141  27.487  10.645
48705W        W21773  21.974   6.168   3.420
48706W        W21774  20.826   4.448   4.082
48707W        W21775  24.682   5.284   4.217
48708W        W21776  18.501  30.894   3.289
48709W        W21777  15.003   4.440  14.799
48710W        W21778  33.612  34.363   3.880
48711W        W21779  34.039  30.031   3.764
48712W        W21780  41.404   9.232   3.913
48713W        W21781  32.110  15.640   2.714
48714W        W21782  21.507  18.451  12.919
48715W        W21783  12.093  20.968  11.149
48716W        W21784  21.418  17.666  14.304
48717W        W21785   1.866  39.588  13.413
48718W        W21786   1.048   5.301   4.726
48719W        W21787  10.199   1.353   0.922
48720W        W21788  33.512  36.404  13.378
48721W        W21789  35.440  38.474   0.649
48722W        W21790  17.327  39.962  10.204
48723W        W21791  11.339  17.894   4.682
48724W        W21792  25.340   0.677  10.964
48725W        W21793  29.504  29.826   4.550
48726W        W21794  12.267  40.903   4.641
48727W        W21795   0.288  44.528  13.305
48728W        W21796  11.100  35.430   0.765
48729W        W21797  26.738  14.538  10.455
48730W        W21798   9.171  27.923   0.665
48731W        W21799  14.036   0.401   2.761
48732W        W21800   0.463  26.964   0.785
48733W        W21801  18.024  26.996  13.440
48734W        W21802  30.146  31.470   1.671
48735W        W21803   2.274  35.533  14.135
48736W        W21804   1.949  17.177   1.452
48737W        W21805  35.445   7.877  11.565
48738W        W21806  28.967  44.850  10.568
48739W        W21807  40.444   5.700  10.239
48740W        W21808  27.930  14.557   4.176
48741W        W21809   7.726  12.125  13.515
48742W        W21810   6.108  33.806   4.323
48743W        W21811  11.637   5.994   2.403
48744W        W21812  36.761  12.754  14.870
48745W        W21813   3.887   9.806   3.145
48746W        W21814  12.316  37.914  13.469
48747W        W21815   1.035  39.346   1.680
48748W        W21816  32.779  43.245  11.326
48749W        W21817   3.768   7.422   5.070
48750W        W21818  25.530  35.623  14.012
48751W        W21819  13.770  32.052   3.346
48752W        W21820  28.703   3.500   3.838
48753W        W21821  11.760  12.927   1.808
48754W        W21822   1.950  37.621   0.398
48755W        W21823  39.952  15.424   1.325
48756W        W21824  29.467  31.000  10.695
48757W        W21825   9.414  36.879   2.357
48758W        W21826   1.235   9.197   4.467
48759W        W21827  19.067  22.001  10.654
48760W        W21828  36.324  41.302  10.961
48761W        W21829  20.676  21.015  11.812
48762W        W21830   1.713  21.175  11.580
48763W        W21831   9.733   8.310  12.430
48764W        W21832  39.556  21.595  13.361
48765W        W21833  11.139  32.888  11.998
48766W        W21834  21.901   7.263  13.353
48767W        W21835   5.177  35.770  11.701
48768W        W21836   5.788  39.231  14.999
48769W        W21837   7.288  17.529   0.897
48770W        W21838   0.454  23.102   0.504
48771W        W21839  26.119  31.265  13.383
48772W        W21840  37.964  21.247   4.735
48773W        W21841  21.029  14.970   3.149
48774W        W21842  33.852  21.916   2.175
48775W        W21843  22.032  13.051   3.590
48776W        W21844  23.589  33.643   2.832
48777W        W21845  44.940   9.589   0.836
48778W        W21846  27.972  31.857  14.201
48779W        W21847  43.909  35.360  14.899
48780W        W21848  35.028  13.238  13.148
48781W        W21849  34.256   1.793   3.242
48782W        W21850  25.226  22.983   2.773
48783W        W21851  33.869  13.569  11.883
48784W        W21852  35.047  13.718  12.380
48785W        W21853  29.479  18.508   4.584
48786W        W21854  43.854  41.015  12.525
48787W        W21855   9.733  42.270   2.922
48788W        W21856   1.842   2.662  10.559
48789W        W21857   1.968   8.436   4.668
48790W        W21858  40.933  34.589  14.024
48791W        W21859  36.131   9.043   1.488
48792W        W21860  23.429  21.088  12.347
48793W        W21861   5.426   4.724   3.593
48794W        W21862  11.835  15.727  12.932
48795W        W21863  15.087  20.087  12.268
48796W        W21864   4.719  36.074  13.968
48797W        W21865  17.352  44.205   1.275
48798W        W21866  39.859  38.150  11.977
48799W        W21867  26.524  17.208  10.440
48800W        W21868   7.392  12.298   1.864
48801W        W21869  15.561  15.706   0.313
48802W        W21870  20.453  13.296   2.363
48803W        W21871  27.504   6.892   2.248
48804W        W21872   3.646   1.031  10.752
48805W        W21873  11.678  20.162  13.080
48806W        W21874   8.276  31.698   3.287
48807W        W21875  37.543  10.304   4.686
48808W        W21876  13.494  26.434  14.129
48809W        W21877  28.178  27.143  11.948
48810W        W21878  29.133  23.990   3.256
48811W        W21879  11.782   0.934   5.109
48812W        W21880  20.075  11.229  11.069
48813W        W21881  43.033  44.886  14.427
48814W        W21882  31.649  30.041  12.770
48815W        W21883  43.211  29.551   3.717
48816W        W21884   9.662   8.583  12.887
48817W        W21885  41.774  20.716  11.123
48818W        W21886  42.214  27.269  12.987
48819W        W21887  22.035   8.647  10.660
48820W        W21888  31.503  14.832   0.186
48821W        W21889  38.307   6.812   2.918
48822W        W21890  22.003  32.040   4.465
48823W        W21891   2.547  13.292   3.623
48824W        W21892  19.431  35.239   2.866
48825W        W21893  11.151  27.235  13.908
48826W        W21894   2.959  38.051   1.905
48827W        W21895  18.626  16.981   2.736
48828W        W21896   6.559  14.765  14.176
48829W        W21897  18.011  16.471   0.436
48830W        W21898  22.800  34.183   3.737
48831W        W21899  43.991  14.823   0.692
48832W        W21900  29.045  34.221  13.286
48833W        W21901  14.254  10.614   3.697
48834W        W21902   3.716  36.951   3.281
48835W        W21903   3.275  34.021  12.126
48836W        W21904   5.421  42.116   4.028
48837W        W21905  27.430  27.427   0.771
48838W        W21906   8.158  17.130  11.791
48839W        W21907  23.500  39.620   2.808
48840W        W21908  41.844  22.056  10.689
48841W        W21909  23.211  30.837   2.634
48842W        W21910  19.691  21.496  12.465
48843W        W21911  14.762  38.221   3.044
48844W        W21912  11.073  10.337   3.744
48845W        W21913  36.487  28.031   0.985
48846W        W21914  38.350  35.125  14.365
48847W        W21915  23.410  28.486   1.763
48848W        W21916  34.949  11.643  14.103
48849W        W21917  18.117  31.885  12.022
48850W        W21918   3.784  30.928   0.905
48851W        W21919  17.914   2.618   3.363
48852W        W21920  37.943   1.698   0.714
48853W        W21921  15.628   2.922   2.467
48854W        W21922  41.777  11.184  14.944
48855W        W21923  14.620  16.874   1.404
48856W        W21924  15.346  11.966  11.718
48857W        W21925  35.392  32.160  14.551
48858W        W21926  39.900   1.406  11.833
48859W        W21927  28.098  40.003   2.671
48860W        W21928  43.428   1.644  13.855
48861W        W21929  16.272  33.962  14.081
48862W        W21930  23.094  10.226   3.641
48863W        W21931  41.346  17.717  13.127
48864W        W21932   8.282  21.181   4.797
48865W        W21933  40.750   5.920  11.631
48866W        W21934  42.940  15.253  12.555
48867W        W21935  17.033   7.265   0.423
48868W        W21936  39.928   4.400  12.501
48869W        W21937  42.877  27.191  14.372
48870W        W21938  20.946   5.919  13.486
48871W        W21939  42.893  36.564   1.424
48872W        W21940  37.127  13.278   4.662
48873W        W21941  18.065  31.677  10.911
48874W        W21942  13.692  19.640   2.626
48875W        W21943  12.809  15.598  14.952
48876W        W21944  44.423   8.915   4.074
48877W        W21945   3.550   3.818  13.508
48878W        W21946  42.698   8.803   2.575
48879W        W21947  41.005  20.044   4.437
48880W        W21948  33.022  24.758  13.579
48881W        W21949  33.520  34.024  11.848
48882W        W21950  23.683  30.546  12.880
48883W        W21951   4.210   4.264   2.204
48884W        W21952  13.776  15.824  13.056
48885W        W21953  38.322   1.432   3.146
48886W        W21954  20.104  41.404   3.302
48887W        W21955  24.164  26.941  13.393
48888W        W21956  33.147  35.373   0.984
48889W        W21957  11.564  27.066  14.979
48890W        W21958  16.208  19.653   3.596
48891W        W21959  25.545   3.828   2.343
48892W        W21960   2.359  34.549  12.369
48893W        W21961  44.824  19.306  11.220
48894W        W21962  29.132   2.818   3.402
48895W        W21963  38.612  18.048  12.964
48896W        W21964  24.094  17.707  11.166
48897W        W21965  40.894   5.198   1.740
48898W        W21966  34.646  28.925   2.283
48899W        W21967  35.882  43.506  13.937
48900W        W21968   4.800   3.532   4.780
48901W        W21969  22.178  41.851   0.921
48902W        W21970  41.387  19.551   1.934
48903W        W21971  43.383  34.382  13.521
48904W        W21972  19.962  14.336   4.632
48905W        W21973  32.311   7.173   3.305
48906W        W21974  41.951  23.086   0.044
48907W        W21975  14.455  27.110   1.226
48908W        W21976  33.478  36.967  10.627
48909W        W21977  21.790  23.624  13.956
48910W        W21978  17.155  20.243   2.867
48911W        W21979  14.824  16.576   2.775
48912W        W21980  18.112   6.799   3.994
48913W        W21981  44.967  17.163  14.209
48914W        W21982  20.639  21.528   2.570
48915W        W21983  20.372  15.836   1.274
48916W        W21984  11.094  39.381  14.769
48917W        W21985   7.247  12.294  11.365
48918W        W21986  20.241  37.288  14.966
48919W        W21987  25.520  28.994   0.434
48920W        W21988  19.097  36.471  12.416
48921W        W21989  17.551   7.706  14.403
48922W        W21990   0.350  12.584  14.263
48923W        W21991  15.112  35.411   2.404
48924W        W21992   3.665  30.674  11.191
48925W        W21993  16.588   4.986  10.941
48926W        W21994  20.955  28.248  11.515
48927W        W21995  29.425  21.794  12.010
48928W        W21996  40.355   6.795   4.735
48929W        W21997  16.163  35.866  13.481
48930W        W21998   3.406  16.488  12.875
48931W        W21999  27.058  33.161  12.058
48932W        W22000   4.664   1.938   4.604
48933W        W22001   3.909  35.134   0.031
48934W        W22002   6.719  25.556   0.821
48935W        W22003  43.698  31.452  13.478
48936W        W22004  42.831  25.667   2.286
48937W        W22005  31.529  13.648   4.165
48938W        W22006   0.750   2.978   0.336
48939W        W22007  23.534  39.352   3.636
48940W        W22008  40.798  18.328  13.350
48941W        W22009  16.279  11.397   1.805
48942W        W22010  12.858   6.002   1.885
48943W        W22011  35.178  41.511  14.183
48944W        W22012  39.559  30.907   0.986
48945W        W22013  24.248  34.049   1.737
48946W        W22014  17.705  17.801   1.177
48947W        W22015   6.792  32.098  13.797
48948W        W22016  39.586  12.726   1.975
48949W        W22017  31.373  30.451  12.975
48950W        W22018  23.478   0.881  12.967
48951W        W22019   6.686  19.073  10.547
48952W        W22020  40.216   6.709   9.835
48953W        W22021  15.922  26.246  11.561
48954W        W22022   4.493  14.721  11.949
48955W        W22023  23.759  32.007  12.485
48956W        W22024  19.586  34.168   4.316
48957W        W22025   0.131  34.911   3.757
48958W        W22026  20.519  15.285  13.371
48959W        W22027   4.477  43.687  12.104
48960W        W22028   7.082  39.080  10.700
48961W        W22029  27.481  39.376   1.448
48962W        W22030  20.555  30.421   3.261
48963W        W22031  44.154  30.939   3.913
48964W        W22032   5.408  16.669   0.532
48965W        W22033  14.826  35.096  11.518
48966W        W22034  18.358  14.629  11.202
48967W        W22035  13.697  35.878   3.010
48968W        W22036  30.569  37.761   3.873
48969W        W22037   9.169  18.118   3.731
48970W        W22038  42.776   7.821   2.313
48971W        W22039  23.933  43.613   2.321
48972W        W22040   2.943  18.700   1.850
48973W        W22041  28.443  13.509  11.633
48974W        W22042  10.055  36.303  10.611
48975W        W22043  38.908  17.454   5.238
48976W        W22044  35.889  34.049  14.776
48977W        W22045  35.198  16.990   2.732
48978W        W22046  12.982   8.588  12.623
48979W        W22047  20.657  14.296  10.677
48980W        W22048  28.738  31.417   4.552
48981W        W22049  40.437  33.457   1.932
48982W        W22050  36.454  40.513   2.016
48983W        W22051   3.883  31.522  11.970
48984W        W22052  23.662  21.111   1.934
48985W        W22053  37.219  12.101   4.227
48986W        W22054   6.478  44.272  11.733
48987W        W22055  33.205   4.306  11.110
48988W        W22056  21.496   5.451   2.513
48989W        W22057   9.329   6.100   0.230
48990W        W22058   2.299  10.070  13.454
48991W        W22059  25.616   5.471   3.185
48992W        W22060   4.925  38.076   0.799
48993W        W22061   3.912  25.251   2.210
48994W        W22062  13.271  32.914   1.228
48995W        W22063  24.896  17.842   1.321
48996W        W22064  20.604  13.734  13.407
48997W        W22065  15.633   6.221   4.531
48998W        W22066  40.507  21.000  11.988
48999W        W22067  43.498  36.123   3.679
49000W        W22068  28.474  39.107   3.904
49001W        W22069   4.862  10.350   0.914
49002W        W22070  15.400  40.949   4.575
49003W        W22071   7.322  38.085  11.458
49004W        W22072  26.722  15.109  13.952
49005W        W22073  39.259  40.940   2.366
49006W        W22074  10.287  28.085   3.241
49007W        W22075  27.842  30.105  13.432
49008W        W22076  24.676  17.821  12.116
49009W        W22077  38.406  24.758   4.103
49010W        W22078  27.903  43.125  12.650
49011W        W22079  27.267   8.817   4.073
49012W        W22080   3.903  29.968  12.067
49013W        W22081  26.405  19.621   1.250
49014W        W22082  23.664  40.181   4.796
49015W        W22083  37.166  26.732   0.826
49016W        W22084  33.452  21.917  14.015
49017W        W22085  14.158  32.208  13.387
49018W        W22086   7.282  26.089   3.669
49019W        W22087  36.997  11.722   3.940
49020W        W22088  26.071  27.749   0.971
49021W        W22089  23.725   7.150  13.905
49022W        W22090   5.727  34.977   3.542
49023W        W22091  16.154  14.216  14.324
49024W        W22092  21.144  36.085  13.316
49025W        W22093  14.226   1.266   1.786
49026W        W22094  19.646  44.088   2.921
49027W        W22095  29.971  35.010  14.944
49028W        W22096  11.372   6.012  13.911
49029W        W22097  31.643  31.417   3.172
49030W        W22098  44.679  24.128   1.119
49031W        W22099  30.967  21.119  11.546
49032W        W22100  37.900  14.779  12.442
49033W        W22101   5.778  12.073  13.936
49034W        W22102  33.521  26.158  12.646
49035W        W22103  29.968  29.486  11.698
49036W        W22104  41.555  35.253   0.359
49037W        W22105  20.427  21.124  12.627
49038W        W22106   3.122  40.648   2.702
49039W        W22107   7.371  28.177  14.055
49040W        W22108  35.070  44.265   0.027
49041W        W22109   3.799  41.491   4.665
49042W        W22110  20.609  41.747   1.788
49043W        W22111  10.209  23.204   3.283
49044W        W22112  40.282  39.834   1.666
49045W        W22113  28.914   6.720   3.746
49046W        W22114   6.741  20.208  12.836
49047W        W22115  19.741  11.645  11.883
49048W        W22116  29.433  13.211  13.283
49049W        W22117  23.725   7.106  12.863
49050W        W22118   4.548   6.366   2.250
49051W        W22119  32.287  37.908   1.246
49052W        W22120  22.481  18.074   4.813
49053W        W22121  28.103  35.610  13.030
49054W        W22122  44.462  16.402  13.451
49055W        W22123   3.829  33.008  12.072
49056W        W22124  32.610  41.806  13.581
49057W        W22125  13.470   6.829   1.385
49058W        W22126  43.276  22.950  11.585
49059W        W22127   0.942   4.163  14.389
49060W        W22128  25.180  14.711   3.553
49061W        W22129   8.374  34.423   2.543
49062W        W22130  22.211   8.706  14.388
49063W        W22131  26.654  36.947   4.392
49064W        W22132  20.772  21.059   4.610
49065W        W22133  42.807  12.573  13.614
49066W        W22134  20.704  19.299  10.685
49067W        W22135  19.125  42.520   1.272
49068W        W22136  15.098   5.695   0.422
49069W        W22137  12.365   8.190  11.113
49070W        W22138  15.372   5.466  14.255
49071W        W22139   3.286  30.268  12.903
49072W        W22140  27.727  18.983  12.752
49073W        W22141  18.595  32.083   0.267
49074W        W22142  18.521  16.777  11.396
49075W        W22143  13.280   9.113   1.471
49076W        W22144  35.043  33.140  12.620
49077W        W22145  27.053  42.706  13.414
49078W        W22146  19.701  41.068   4.865
49079W        W22147  32.089  10.980  12.162
49080W        W22148  15.829   5.651   0.888
49081W        W22149  37.446  40.751   3.351
49082W        W22150  14.643  17.159  13.925
49083W        W22151  38.040  24.007  12.517
49084W        W22152  25.744  41.504   4.970
49085W        W22153   6.928  22.537   1.982
49086W        W22154   1.849  33.015   1.523
49087W        W22155  18.564  43.261  11.219
49088W        W22156  24.036  26.614   0.039
49089W        W22157  19.800  23.094   2.827
49090W        W22158  25.767  28.646  11.110
49091W        W22159  24.692  27.112  11.033
49092W        W22160   4.790  15.226  10.867
49093W        W22161  16.071  32.480  12.505
49094W        W22162   7.599  15.231   1.251
49095W        W22163  38.512  26.365  13.451
49096W        W22164  17.387  35.001   3.878
49097W        W22165   6.223   7.101  13.407
49098W        W22166  30.506  25.692   4.605
49099W        W22167   5.922  21.773   0.565
49100W        W22168  33.588  41.466  13.031
49101W        W22169  33.948  30.948   3.922
49102W        W22170  18.621  26.054   2.804
49103W        W22171  44.907  12.893  12.920
49104W        W22172  21.379   6.124  11.889
49105W        W22173   4.928  31.380  14.378
49106W        W22174  22.197   2.267  11.881
49107W        W22175  36.827   8.313  13.758
49108W        W22176  38.880  40.034  11.065
49109W        W22177  16.154  13.149  13.507
49110W        W22178  11.594   0.506  13.485
49111W        W22179   2.757  14.212   4.405
49112W        W22180  25.431   9.816  14.395
49113W        W22181   4.300  14.558  14.989
49114W        W22182  11.374  28.680   3.665
49115W        W22183  16.138  10.787  13.997
49116W        W22184  15.769  24.553  12.326
49117W        W22185  15.102   3.514   4.635
49118W        W22186  43.571  13.351   4.147
49119W        W22187  38.770  18.135   2.785
49120W        W22188  17.801  10.418  14.975
49121W        W22189   4.528  38.771  13.939
49122W        W22190  40.444  20.525   2.087
49123W        W22191   5.405   4.973  14.082
49124W        W22192   8.294   0.448   3.834
49125W        W22193  28.643   7.209   0.762
49126W        W22194  20.125  24.023   0.413
49127W        W22195  13.594   6.823  10.667
49128W        W22196  17.517  19.084  13.914
49129W        W22197  40.102  10.453  11.165
49130W        W22198  31.370  35.173   1.806
49131W        W22199  15.792  23.513  13.384
49132W        W22200  16.550  20.204   4.491
49133W        W22201   1.016  10.724   2.451
49134W        W22202  38.057  39.342  13.732
49135W        W22203  38.390  43.500  14.733
49136W        W22204  10.667  42.292  11.094
49137W        W22205  38.083   8.056  11.624
49138W        W22206  38.962  38.797   1.453
49139W        W22207   4.160  16.876   4.501
49140W        W22208  23.468  18.601  10.233
49141W        W22209  31.926  21.366   5.085
49142W        W22210  19.786  10.509   1.637
49143W        W22211  23.073  37.555  14.500
49144W        W22212  25.323  39.901   5.222
49145W        W22213  34.914  33.013  11.538
49146W        W22214  13.372  14.126   1.281
49147W        W22215  12.060  39.376  11.209
49148W        W22216  26.441  17.210   2.197
49149W        W22217  13.300  25.728   4.668
49150W        W22218  11.632  18.504   0.978
49151W        W22219  18.404  22.753  10.061
49152W        W22220  39.597  26.412   4.183
49153W        W22221  17.638  32.457  11.471
49154W        W22222  28.040   6.713  11.767
49155W        W22223   3.149  40.441   4.073
49156W        W22224  31.408  25.600  14.896
49157W        W22225  32.160   2.043   0.250
49158W        W22226  41.404  32.075  10.798
49159W        W22227  31.474  32.899  10.601
49160W        W22228  12.399  43.025  12.853
49161W        W22229  17.153   5.076   0.057
49162W        W22230   9.019   5.474   1.222
49163W        W22231  29.407  40.384  12.120
49164W        W22232  31.884  37.059  11.999
49165W        W22233   4.602  32.449  14.974
49166W        W22234   3.800  20.005   4.565
49167W        W22235  32.916  20.643  10.633
49168W        W22236  13.878  10.245  12.732
49169W        W22237  24.738  24.082  12.509
49170W        W22238  18.140   2.044  13.351
49171W        W22239   7.426  41.079   4.183
49172W        W22240  37.424  14.241   2.290
49173W        W22241   0.728  40.083  13.296
49174W        W22242  25.675  11.203  11.607
49175W        W22243  41.075  43.811   1.574
49176W        W22244   5.671  28.454  11.122
49177W        W22245   6.839  34.699   4.015
49178W        W22246  12.630  17.194   4.101
49179W        W22247  42.664  37.027   3.644
49180W        W22248   9.257   4.205  12.878
49181W        W22249  32.914  21.320  13.341
49182W        W22250  36.892  16.128  10.676
49183W        W22251  27.514  25.024  14.568
49184W        W22252   9.846   5.322   2.230
49185W        W22253  41.392  37.986   1.609
49186W        W22254  38.570  34.486  13.872
49187W        W22255  22.570  25.394   1.667
49188W        W22256   8.504  21.757  10.719
49189W        W22257  21.242  22.079   4.255
49190W        W22258   4.231  29.112  12.089
49191W        W22259  16.813  16.296   3.246
49192W        W22260  25.254  15.337  11.559
49193W        W22261  37.046  15.114   3.235
49194W        W22262  36.608  26.557  11.831
49195W        W22263  36.560  17.745   2.847
49196W        W22264  24.492  25.044  11.442
49197W        W22265  41.415   5.887   0.379
49198W        W22266  33.002  27.089  12.437
49199W        W22267   5.304  27.729   2.169
49200W        W22268  39.640  24.022  12.001
49201W        W22269  20.864  19.705  11.231
49202W        W22270  24.982  27.367   3.937
49203W        W22271   0.295  37.295  14.421
49204W        W22272  32.056  27.130   0.948
49205W        W22273  36.125  11.574   5.019
49206W        W22274  29.361   9.825   4.348
49207W        W22275  23.209  28.881  11.579
49208W        W22276  40.327  37.065   4.082
49209W        W22277  44.117  23.065   2.612
49210W        W22278  31.701  42.755  13.995
49211W        W22279  42.812  18.341  12.863
49212W        W22280  19.098  37.257   4.881
49213W        W22281  40.983  42.508  12.876
49214W        W22282  13.095  39.451   1.768
49215W        W22283  33.679  16.374  13.341
49216W        W22284  22.566  22.662  10.555
49217W        W22285   0.456  30.909  11.851
49218W        W22286  11.136  35.921   0.921
49219W        W22287   9.302  34.996   2.412
49220W        W22288   1.286  18.101   0.230
49221W        W22289  28.218  43.016  10.522
49222W        W22290  25.639   6.643   4.203
49223W        W22291  44.876  11.381  14.036
49224W        W22292  11.255  33.892   4.672
49225W        W22293  17.493  17.865  12.822
49226W        W22294  40.916  31.595  13.326
49227W        W22295   6.193  18.102  10.543
49228W        W22296  42.838  37.884   0.952
49229W        W22297  26.556   8.828   1.835
49230W        W22298  37.879  18.996   2.289
49231W        W22299  21.657  27.599   0.313
49232W        W22300  24.244  26.983   0.985
49233W        W22301  19.653   1.294  12.853
49234W        W22302  38.168   0.782  11.935
49235W        W22303  42.391  21.794  12.339
49236W        W22304  15.042  30.738  12.499
49237W        W22305  40.553   1.109  14.353
49238W        W22306   7.434  13.560  11.071
49239W        W22307   9.743  38.408   0.951
49240W        W22308   5.272   4.524  13.876
49241W        W22309  39.105  29.155   1.343
49242W        W22310  38.170  22.410   0.920
49243W        W22311  22.063  20.503  11.753
49244W        W22312  41.184  28.680  11.601
49245W        W22313  29.454   0.373  13.273
49246W        W22314  25.652  39.398  14.222
49247W        W22315  35.433   6.679   1.960
49248W        W22316  35.538   5.892  10.703
49249W        W22317  10.377  44.875   2.303
49250W        W22318  26.421  28.074   4.737
49251W        W22319  16.672  32.632   2.905
49252W        W22320  26.239  33.052   0.461
49253W        W22321  24.526  12.713   4.547
49254W        W22322  27.155  32.042  13.882
49255W        W22323   5.938  28.998  12.057
49256W        W22324  21.764  36.866  10.474
49257W        W22325   3.859  17.604   4.871
49258W        W22326  36.908   8.143  14.682
49259W        W22327   6.362  27.211  12.137
49260W        W22328  21.997   7.177  13.852
49261W        W22329  34.299  22.754   1.266
49262W        W22330  36.505  32.092   1.800
49263W        W22331  39.638  36.615  14.587
49264W        W22332  11.111   9.436   1.894
49265W        W22333   6.648  33.031   2.666
49266W        W22334  15.646  17.300  12.145
49267W        W22335  40.807  38.700  14.815
49268W        W22336   2.971  38.981  14.002
49269W        W22337  17.576  30.171  14.307
49270W        W22338  44.948  19.292  14.475
49271W        W22339  23.011  23.882  14.936
49272W        W22340   6.143  43.008  11.559
49273W        W22341   3.245  43.569   1.714
49274W        W22342  17.677  37.043   3.657
49275W        W22343   1.838   4.216   4.585
49276W        W22344  10.003  11.687  14.430
49277W        W22345   5.974  38.315  13.311
49278W        W22346  36.833   6.938   0.742
49279W        W22347   1.291  13.216   0.842
49280W        W22348  15.583  43.475  14.865
49281W        W22349  28.514   5.006   0.244
49282W        W22350  34.023  33.988   0.432
49283W        W22351  11.634  20.699  12.957
49284W        W22352  29.638  20.219   0.331
49285W        W22353  38.893  21.821  11.077
49286W        W22354  40.795  28.189   2.733
49287W        W22355  15.162  14.807   4.699
49288W        W22356  24.240  32.271   0.868
49289W        W22357  20.078  20.658   1.716
49290W        W22358   6.896   2.151   1.973
49291W        W22359  26.090  12.799   3.289
49292W        W22360  14.577  30.944   0.327
49293W        W22361  11.619  44.285  14.271
49294W        W22362  15.599  32.074  13.806
49295W        W22363  11.662  16.072   2.245
49296W        W22364  40.685  14.313   1.861
49297W        W22365  39.429  43.982  11.983
49298W        W22366  10.555   0.825   0.991
49299W        W22367  17.630   2.454   1.997
49300W        W22368  26.490  13.267   0.694
49301W        W22369  38.562  22.738   2.899
49302W        W22370  43.458  10.184  11.997
49303W        W22371  24.512   2.446   4.108
49304W        W22372  29.048   7.449  13.408
49305W        W22373  16.996   8.997   2.852
49306W        W22374   8.413  11.671   1.428
49307W        W22375  10.682  31.408  12.416
49308W        W22376  29.628   5.635  12.013
49309W        W22377  26.158  14.694  11.510
49310W        W22378  21.279   0.243  12.375
49311W        W22379  33.381  27.359   1.980
49312W        W22380   8.694  15.526   3.274
49313W        W22381  17.373  26.289  14.236
49314W        W22382  18.792  28.061  11.509
49315W        W22383  28.215  26.494   1.879
49316W        W22384  23.855  43.905  11.044
49317W        W22385  43.428  26.425  14.308
49318W        W22386   4.690   8.396   2.338
49319W        W22387  27.082  34.779  11.214
49320W        W22388  27.069  10.371   1.342
49321W        W22389  36.199  41.633   2.154
49322W        W22390   8.423  11.609  13.565
49323W        W22391  19.729  22.678  12.070
49324W        W22392  18.699  39.675   0.287
49325W        W22393   5.547   6.525   3.117
49326W        W22394  28.868   3.221  10.771
49327W        W22395  40.084   1.313  14.422
49328W        W22396  27.193  11.676   2.870
49329W        W22397   0.026  33.291  11.577
49330W        W22398   8.729  33.973  10.658
49331W        W22399  36.548  44.944   1.045
49332W        W22400   5.587  10.226   2.334
49333W        W22401  41.897  17.858   1.310
49334W        W22402  31.911   7.307   4.957
49335W        W22403  23.229  36.933   4.388
49336W        W22404   7.437   9.782   3.994
49337W        W22405   7.490   4.397  10.658
49338W        W22406  21.995  20.051   3.895
49339W        W22407  20.509  22.175   1.350
49340W        W22408  16.684   5.881  14.734
49341W        W22409  13.602  41.118   3.364
49342W        W22410  31.573  39.467   1.930
49343W        W22411   1.254   9.198   0.027
49344W        W22412  18.792  34.985   0.740
49345W        W22413  26.315  23.529  13.612
49346W        W22414  26.420  21.298   0.515
49347W        W22415  16.061  38.625   3.227
49348W        W22416  41.001  40.817   2.813
49349W        W22417  22.338  21.990  13.401
49350W        W22418  38.605  13.208   4.658
49351W        W22419  21.598  33.586  11.534
49352W        W22420  19.525  29.567   1.860
49353W        W22421  20.699  27.524   0.859
49354W        W22422  15.404   3.668  11.412
49355W        W22423  28.811  17.827  11.246
49356W        W22424  12.325  26.943  11.980
49357W        W22425  34.966  13.920  12.968
49358W        W22426  36.527  34.562   0.200
49359W        W22427  18.452  40.388  14.916
49360W        W22428  10.207  31.124   2.310
49361W        W22429  38.487  19.750  10.453
49362W        W22430  20.984  23.008   3.427
49363W        W22431  24.032   8.800  14.850
49364W        W22432  22.434   4.465   2.642
49365W        W22433   0.421  39.989   2.254
49366W        W22434  31.070   8.474  14.062
49367W        W22435  13.195  41.621   1.703
49368W        W22436  43.455  40.222   2.814
49369W        W22437  34.709   3.141  12.408
49370W        W22438  19.338   6.646  14.059
49371W        W22439  29.006  32.848   0.829
49372W        W22440  21.216  43.957   3.168
49373W        W22441  34.929  35.864  12.404
49374W        W22442  28.926  20.329  10.567
49375W        W22443   6.189  11.317  14.942
49376W        W22444   9.258  43.289  10.688
49377W        W22445  23.628  42.926  14.038
49378W        W22446  37.805  28.591   1.934
49379W        W22447  37.870   5.917   3.805
49380W        W22448  14.299  34.896   0.823
49381W        W22449   7.718  12.167  14.451
49382W        W22450  37.149  39.820  14.455
49383W        W22451  44.227  44.472  12.439
49384W        W22452  12.012  35.574   3.293
49385W        W22453  44.190  19.080   0.743
49386W        W22454   6.842  36.240   1.938
49387W        W22455   8.614  30.455   1.869
49388W        W22456  44.474  21.912   4.145
49389W        W22457  42.438  14.012   4.201
49390W        W22458  42.418  42.844   0.510
49391W        W22459  31.357  36.882   4.025
49392W        W22460  18.674   1.143   0.443
49393W        W22461  17.001   3.233   0.442
49394W        W22462  10.407  19.258   3.267
49395W        W22463  37.322  18.929  14.515
49396W        W22464  13.090  35.441  13.122
49397W        W22465  25.951  32.512  12.750
49398W        W22466  11.865  43.033  11.528
49399W        W22467  44.406   1.990   0.275
49400W        W22468   0.007   0.310   0.858
49401W        W22469  24.126   7.846  12.166
49402W        W22470   7.817  16.831  10.324
49403W        W22471  31.093   0.422   4.198
49404W        W22472  18.575  44.356   3.394
49405W        W22473  21.144  16.025  11.822
49406W        W22474  27.974  42.507  11.879
49407W        W22475  38.713  42.564   0.764
49408W        W22476  38.332  23.062   1.894
49409W        W22477  25.168  16.078  12.880
49410W        W22478  10.171  41.876   5.256
49411W        W22479  17.344   4.733   9.838
49412W        W22480  43.711   2.901  11.179
49413W        W22481  12.137  44.534   0.283
49414W        W22482  24.921  34.771   4.301
49415W        W22483  39.332  19.830  14.082
49416W        W22484  12.583  17.707   4.195
49417W        W22485  17.615  42.164  13.928
49418W        W22486  36.339  27.004  12.076
49419W        W22487  26.912  12.272   0.229
49420W        W22488  28.451  24.696   4.454
49421W        W22489  29.995   8.742  14.434
49422W        W22490  41.919  15.958  13.066
49423W        W22491  37.114   2.513  10.743
49424W        W22492  39.543   7.904   5.066
49425W        W22493  35.821  34.393  12.520
49426W        W22494   5.829  14.507  12.302
49427W        W22495  27.394  25.042   1.843
49428W        W22496  31.114  23.999  12.564
49429W        W22497  14.125  26.962   2.067
49430W        W22498   7.366  23.485   4.114
49431W        W22499   6.415  30.822   2.532
49432W        W22500  34.104  21.063  12.993
49433W        W22501   7.422  12.708  11.090
49434W        W22502  29.471  13.140   0.834
49435W        W22503   8.661  44.754  14.389
49436W        W22504  11.808   2.078   3.678
49437W        W22505  28.835  33.451  14.235
49438W        W22506  44.357  36.061  10.298
49439W        W22507  38.338   0.818  14.338
49440W        W22508  18.431   0.843  12.609
49441W        W22509  16.008  26.854   0.364
49442W        W22510  15.218  42.871  13.921
49443W        W22511  23.989  19.075  14.049
49444W        W22512  20.328  29.662  13.842
49445W        W22513  42.979   4.489  10.636
49446W        W22514  20.617   2.402   0.314
49447W        W22515  16.148  29.671  14.359
49448W        W22516  17.180   0.904   1.274
49449W        W22517  15.129  40.877  14.989
49450W        W22518   1.873  36.438   4.687
49451W        W22519  43.278  17.216   4.573
49452W        W22520   5.247  31.564   4.343
49453W        W22521  39.752  21.222   1.814
49454W        W22522  34.628  24.121   2.439
49455W        W22523  27.381  10.705   1.076
49456W        W22524  32.883  22.002   3.177
49457W        W22525  34.973  31.886  12.863
49458W        W22526   1.354  39.287   3.451
49459W        W22527  24.914  40.019   2.802
49460W        W22528   8.015  31.439   2.424
49461W        W22529  26.069  37.763   2.818
49462W        W22530  22.583  27.596  14.039
49463W        W22531  16.601   1.753   1.382
49464W        W22532   0.805  27.363   2.338
49465W        W22533  13.699  36.504   1.814
49466W        W22534  13.328  35.506   2.945
49467W        W22535   8.670   6.248   0.835
49468W        W22536  20.610  39.870   1.462
49469W        W22537  20.682  18.795   2.309
49470W        W22538   8.265  39.786   3.249
49471W        W22539  20.716   4.927  14.955
49472W        W22540  41.324  32.560  13.067
49473W        W22541  34.069  30.103   0.271
49474W        W22542  20.541  19.012   4.151
49475W        W22543  19.510   0.604  12.016
49476W        W22544  21.756  44.501  10.506
49477W        W22545  26.487   3.013   2.336
49478W        W22546  39.887  29.980   0.917
49479W        W22547  41.876  44.038  14.862
49480W        W22548  19.498   4.738  12.534
49481W        W22549  30.465  41.027   0.262
49482W        W22550  44.677  12.355  11.504
49483W        W22551  25.170   9.221   1.878
49484W        W22552  15.642   5.369   3.374
49485W        W22553  43.784  16.986  10.628
49486W        W22554  30.559  36.831   3.770
49487W        W22555  40.390   9.600   0.742
49488W        W22556  39.565  30.930  13.732
49489W        W22557  32.387   8.879   1.925
49490W        W22558  12.813  27.728  13.205
49491W        W22559  44.952   4.506  11.558
49492W        W22560  31.490   6.837  14.541
49493W        W22561  17.150  26.563   1.751
49494W        W22562  14.612  35.797  14.824
49495W        W22563  24.146  35.508   1.715
49496W        W22564  30.966   8.649   2.246
49497W        W22565   1.075  27.160   2.722
49498W        W22566  42.076  33.323  11.189
49499W        W22567  28.878   7.891  10.677
49500W        W22568  41.635  14.840   4.752
49501W        W22569  34.890  33.588   1.798
49502W        W22570  37.985   0.808  13.970
49503W        W22571  41.955   8.820  12.516
49504W        W22572   0.316   3.654  11.476
49505W        W22573  19.138  18.107   4.380
49506W        W22574  22.221  11.341  14.753
49507W        W22575  42.325  24.603   1.827
49508W        W22576  11.581  19.029   2.261
49509W        W22577  42.747  19.073   2.417
49510W        W22578  24.180  42.035   4.522
49511W        W22579  27.624  19.149   4.658
49512W        W22580   1.654  41.876  10.700
49513W        W22581  23.812  37.383   1.875
49514W        W22582  19.420  17.036   0.281
49515W        W22583  21.519  40.038   2.797
49516W        W22584  35.130  17.821   1.360
49517W        W22585  14.540  32.144  13.996
49518W        W22586  29.580   9.387   4.438
49519W        W22587  42.311  35.431   1.206
49520W        W22588   9.129   6.407  12.561
49521W        W22589  35.846  33.918   1.701
49522W        W22590  26.651  38.405   0.838
49523W        W22591  23.128  25.555   4.600
49524W        W22592  38.914  43.358  13.059
49525W        W22593  32.314  10.959   2.654
49526W        W22594   0.233  34.984  14.343
49527W        W22595  25.332  18.657   1.182
49528W        W22596  16.248  36.272  14.754
49529W        W22597  36.643  28.932   1.412
49530W        W22598  41.543  27.513   1.887
49531W        W22599  17.058   8.867   3.704
49532W        W22600  18.128  35.388  13.953
49533W        W22601  25.104  31.425  11.419
49534W        W22602  35.960  20.720  14.946
49535W        W22603  33.431  14.653  14.465
49536W        W22604  31.372  38.883  11.545
49537W        W22605  29.029  24.580   4.508
49538W        W22606  13.718  20.726   4.157
49539W        W22607   0.307  10.592   1.267
49540W        W22608   1.350  35.534  11.697
49541W        W22609  19.085  32.989  12.617
49542W        W22610  16.782  23.633  11.251
49543W        W22611  17.772  19.535  13.809
49544W        W22612  41.298   4.862  12.475
49545W        W22613  10.592  14.363   2.306
49546W        W22614  18.293  16.543   4.545
49547W        W22615  23.338  30.620  11.975
49548W        W22616  42.055  28.562   3.799
49549W        W22617   1.228  14.777   2.751
49550W        W22618  29.481  28.522   2.726
49551W        W22619  24.529   6.905   3.298
49552W        W22620  27.482  26.084  13.343
49553W        W22621  25.091  23.231   4.716
49554W        W22622   9.201  40.263  14.372
49555W        W22623  26.467   3.645  11.158
49556W        W22624  11.592  21.162  11.201
49557W        W22625  17.691  17.321   0.395
49558W        W22626  43.825   7.783   1.594
49559W        W22627   5.197  37.525  12.785
49560W        W22628   9.143  11.351   4.496
49561W        W22629   8.163  33.150   2.829
49562W        W22630   9.325  30.112   2.056
49563W        W22631  41.872  40.841  11.172
49564W        W22632  44.435  44.816   4.574
49565W        W22633  10.676  31.034   4.943
49566W        W22634  29.206  42.973  12.483
49567W        W22635  42.458   5.451   0.167
49568W        W22636   2.927  15.542   4.748
49569W        W22637  21.596   6.962   5.099
49570W        W22638  11.077  38.384   2.180
49571W        W22639   1.403  38.971   1.230
49572W        W22640  25.688   1.932  14.905
49573W        W22641  27.973  11.082  13.425
49574W        W22642  33.452  13.224   3.168
49575W        W22643  15.641  29.821   4.600
49576W        W22644   8.787  31.710   0.934
49577W        W22645  13.530  36.055  11.938
49578W        W22646   5.411  16.769  12.086
49579W        W22647  33.920  32.487  10.704
49580W        W22648  41.901  37.682   4.516
49581W        W22649  39.846  37.396  14.989
49582W        W22650  15.175   6.481  12.418
49583W        W22651  31.090  12.825  10.689
49584W        W22652  17.826   9.196  13.682
49585W        W22653   5.811  30.708   3.802
49586W        W22654  21.116  33.047   2.767
49587W        W22655  42.624  16.190   5.109
49588W        W22656  12.611  39.954  14.340
49589W        W22657  15.810  10.590  12.646
49590W        W22658  41.959  30.231  14.914
49591W        W22659  17.621  41.948   3.851
49592W        W22660   5.333  27.631  13.481
49593W        W22661  11.759  34.286   3.607
49594W        W22662  32.091  29.321  12.462
49595W        W22663  43.925  40.755  12.078
49596W        W22664  24.050  28.171   4.616
49597W        W22665  33.781   4.825   4.540
49598W        W22666  39.368  25.303   0.300
49599W        W22667  21.923  39.090  11.400
49600W        W22668   4.720  21.702  10.174
49601W        W22669  41.322  26.399   1.215
49602W        W22670   2.676  18.490   3.242
49603W        W22671  13.831  33.998   0.695
49604W        W22672  38.070  28.672  11.584
49605W        W22673  17.147  40.719  10.886
49606W        W22674  39.238  44.554   3.680
49607W        W22675  32.918  34.960  12.406
49608W        W22676  13.872  18.049   3.825
49609W        W22677  27.039  40.740  11.152
49610W        W22678  17.581  41.267   2.196
49611W        W22679  14.019  21.684   2.696
49612W        W22680  41.299  26.560  12.837
49613W        W22681  43.539  16.349   1.679
49614W        W22682  34.876  28.609   0.397
49615W        W22683  41.803  40.397  10.891
49616W        W22684  29.471  37.849   4.993
49617W        W22685  12.153  26.517   4.571
49618W        W22686  32.019  29.663   2.685
49619W        W22687   2.249   2.480  14.553
49620W        W22688   4.431  42.847  14.774
49621W        W22689  18.308  23.698  11.990
49622W        W22690   0.307  21.656   0.935
49623W        W22691   7.944   0.987   4.465
49624W        W22692  38.526  18.330  12.011
49625W        W22693  21.993  26.068   4.262
49626W        W22694  33.394  22.806   1.538
49627W        W22695   6.140  33.768  12.566
49628W        W22696  25.624  43.204  12.151
49629W        W22697   3.904   3.276  12.938
49630W        W22698  41.333  21.215  12.437
49631W        W22699  24.617  29.070   1.541
49632W        W22700   0.271  17.328  14.974
49633W        W22701   5.602  29.028  14.888
49634W        W22702   9.560   5.270   0.364
49635W        W22703  40.098   9.739   2.756
49636W        W22704  37.622  11.907   1.585
49637W        W22705   1.213   0.250   1.236
49638W        W22706  33.055  27.608   2.822
49639W        W22707  28.592   7.701  13.508
49640W        W22708  12.097  10.369   0.969
49641W        W22709  43.043  30.956  12.200
49642W        W22710  20.697  41.432  14.703
49643W        W22711  14.793  38.583  14.858
49644W        W22712  30.937  11.516   3.391
49645W        W22713  23.699  38.341  14.877
49646W        W22714  37.803  32.381  14.279
49647W        W22715  38.309  17.956   1.429
49648W        W22716  15.091  16.595   0.003
49649W        W22717  36.439   7.655  12.467
49650W        W22718  39.248   8.973   0.824
49651W        W22719   6.016  41.175   3.322
49652W        W22720   5.670   6.298  12.416
49653W        W22721  17.320  28.809   3.876
49654W        W22722   6.560  31.895  12.808
49655W        W22723   5.679   9.684   3.962
49656W        W22724  13.112  35.452   0.505
49657W        W22725   2.719  10.928   2.081
49658W        W22726  35.479   1.662  11.659
49659W        W22727  44.548  39.316  13.377
49660W        W22728  37.756   4.447  14.886
49661W        W22729   8.853  15.709   3.782
49662W        W22730  37.930  40.962   4.124
49663W        W22731  13.627  11.420  14.461
49664W        W22732  19.263  10.601   2.808
49665W        W22733  29.584  40.499   4.474
49666W        W22734  42.350  38.474   3.618
49667W        W22735  18.041  33.357   2.706
49668W        W22736  41.563   5.908   1.742
49669W        W22737  17.556   1.022  14.487
49670W        W22738  15.769  44.926  10.985
49671W        W22739  22.987  13.298  11.299
49672W        W22740  23.512  18.525  13.339
49673W        W22741   9.447  39.671  14.947
49674W        W22742  40.815  37.751  11.658
49675W        W22743  26.136  29.577  11.938
49676W        W22744  15.698  36.269   3.189
49677W        W22745   2.891  33.621  11.473
49678W        W22746  10.148  34.078   5.055
49679W        W22747  42.697  25.794  11.170
49680W        W22748  22.024  43.273   2.315
49681W        W22749  20.653   2.886  14.890
49682W        W22750   2.941  14.535  13.974
49683W        W22751  17.873  39.905   0.380
49684W        W22752  39.490  43.074   4.094
49685W        W22753  23.477  24.103   4.656
49686W        W22754  35.884   7.692   3.632
49687W        W22755  28.889  16.814   3.222
49688W        W22756  25.062  16.822  11.445
49689W        W22757  42.811  31.556   3.650
49690W        W22758  22.009  31.916  11.127
49691W        W22759  25.762  23.135  11.570
49692W        W22760  42.167  30.618  10.311
49693W        W22761  39.868   9.743   2.289
49694W        W22762  22.094  36.438   0.284
49695W        W22763  39.660  29.564  14.769
49696W        W22764  37.841  10.460  11.557
49697W        W22765  18.952  33.419  12.344
49698W        W22766  42.427  10.411  11.478
49699W        W22767  38.997   1.421   3.731
49700W        W22768  20.839  11.606  14.825
49701W        W22769  23.550  36.169  11.366
49702W        W22770  32.252  44.024  11.056
49703W        W22771  21.277  33.871   1.024
49704W        W22772  13.606  27.544  12.872
49705W        W22773  24.669  36.885  10.555
49706W        W22774   2.855  20.086  12.817
49707W        W22775  32.542  10.884  11.006
49708W        W22776  42.874  20.545   0.781
49709W        W22777   0.811  39.391  12.487
49710W        W22778  41.436  23.963  12.935
49711W        W22779  42.981  22.214   1.857
49712W        W22780  27.863   2.950  14.818
49713W        W22781  12.684   6.600  13.525
49714W        W22782  23.639   7.379   1.656
49715W        W22783   2.657  35.532   1.855
49716W        W22784  28.572  29.180  11.620
49717W        W22785  26.041  42.633  10.986
49718W        W22786  11.439  29.692  12.073
49719W        W22787   6.177  35.272  12.324
49720W        W22788  16.339  40.831  13.933
49721W        W22789  30.249  42.326   2.693
49722W        W22790  16.772   3.559  10.701
49723W        W22791  21.252  14.684   1.199
49724W        W22792  11.141  14.746   4.446
49725W        W22793  27.418  14.655   0.950
49726W        W22794  37.800  12.343   1.787
49727W        W22795   9.634  27.501  12.557
49728W        W22796   1.058  10.726  11.551
49729W        W22797   0.424  11.366   2.073
49730W        W22798   0.403  19.343   4.604
49731W        W22799  41.797  34.135   0.313
49732W        W22800   0.248  10.295  11.634
49733W        W22801  27.208  30.465  11.137
49734W        W22802  14.165   6.604  13.453
49735W        W22803  34.456   4.245  12.086
49736W        W22804   4.210  36.294  14.269
49737W        W22805  27.519   5.882  14.844
49738W        W22806  32.092  41.531   4.764
49739W        W22807  22.100  11.022   2.779
49740W        W22808  12.556  32.197  10.145
49741W        W22809  33.410  28.926   0.420
49742W        W22810  25.681  23.480  12.542
49743W        W22811  24.472   9.937  10.705
49744W        W22812  25.050  28.869   1.789
49745W        W22813  24.368  29.367   0.768
49746W        W22814  11.804  34.214  12.455
49747W        W22815  25.557  10.887   1.880
49748W        W22816  37.190  11.710  13.428
49749W        W22817  24.720  24.597  11.595
49750W        W22818   2.852   1.415  14.938
49751W        W22819   8.598  14.184  13.328
49752W        W22820  27.496  44.281  14.319
49753W        W22821   7.325  14.263  14.477
49754W        W22822  44.379  31.847  10.609
49755W        W22823   5.894  13.640  10.929
49756W        W22824  34.419  28.398   0.231
49757W        W22825  27.066  14.883  10.681
49758W        W22826  32.452  28.263  14.399
49759W        W22827  11.643  12.633   3.419
49760W        W22828  23.397  17.190   5.031
49761W        W22829   3.830  33.503   0.050
49762W        W22830  40.303  20.200  11.246
49763W        W22831  38.896  17.642   1.464
49764W        W22832  12.361   9.623  14.580
49765W        W22833   3.928  19.672   3.198
49766W        W22834   7.103   9.282   1.793
49767W        W22835  21.273  26.718   1.715
49768W        W22836  11.144  28.573  12.537
49769W        W22837  22.120   9.266  14.461
49770W        W22838  28.151  14.726  12.179
49771W        W22839  14.191  11.812   5.296
49772W        W22840  28.519  44.042   2.293
49773W        W22841  27.241   5.004   4.147
49774W        W22842  35.736  17.265   3.276
49775W        W22843  15.500   1.494  11.062
49776W        W22844  36.597   7.704   3.206
49777W        W22845  42.042   4.556   4.878
49778W        W22846   2.940  14.789   2.166
49779W        W22847  40.982  35.168   2.117
49780W        W22848   0.005   1.302  11.577
49781W        W22849  24.487   0.298   2.687
49782W        W22850   0.205  39.816   2.676
49783W        W22851  27.631  31.919   1.896
49784W        W22852  22.722  35.860  10.695
49785W        W22853  15.612  22.556   4.117
49786W        W22854  21.547  26.508  13.888
49787W        W22855  43.325  29.541  12.938
49788W        W22856  30.532  40.389  12.449
49789W        W22857  22.821  36.788   0.485
49790W        W22858  39.246  37.127  11.136
49791W        W22859  24.033   6.761   4.532
49792W        W22860  41.976  13.690  11.193
49793W        W22861  40.485  39.331   3.194
49794W        W22862  31.911  22.709  11.594
49795W        W22863  36.904  11.054   1.619
49796W        W22864  35.374   9.895   2.712
49797W        W22865   9.823  18.330  10.576
49798W        W22866  25.053  35.501   0.750
49799W        W22867  24.506  20.311  13.141
49800W        W22868  15.830  39.429  12.044
49801W        W22869  38.615  14.302  10.593
49802W        W22870   1.802  43.509  11.116
49803W        W22871  30.492  32.690   1.876
49804W        W22872  42.964  34.961   3.156
49805W        W22873  10.656   7.207   4.579
49806W        W22874  41.970  41.170   4.888
49807W        W22875   5.531  29.644   4.188
49808W        W22876  13.142   9.322  10.747
49809W        W22877  23.187  20.500  11.967
49810W        W22878  37.444  44.089  12.548
49811W        W22879  27.128  34.736   2.972
49812W        W22880  19.053  30.811  10.238
49813W        W22881   7.728  16.089  14.822
49814W        W22882  16.567  18.188   0.264
49815W        W22883  12.702  42.430  11.159
49816W        W22884  25.118  11.224  12.693
49817W        W22885   0.948  27.060  13.164
49818W        W22886   7.811  24.003   2.759
49819W        W22887   5.474  44.787  14.408
49820W        W22888  11.360   7.346   3.048
49821W        W22889  41.434   3.429   0.926
49822W        W22890   7.167   0.001   3.730
49823W        W22891  40.399  27.868   2.812
49824W        W22892  39.365  16.994  10.613
49825W        W22893  27.174  31.551   3.225
49826W        W22894  44.516  17.411   2.393
49827W        W22895  29.863   9.414   0.332
49828W        W22896   6.807  30.408   1.306
49829W        W22897  34.403  39.852  14.789
49830W        W22898  23.043  17.166   3.353
49831W        W22899   8.805  38.620   0.787
49832W        W22900   6.830  43.210   0.135
49833W        W22901  44.007   7.639  12.561
49834W        W22902  27.699  31.528   4.089
49835W        W22903   8.209  23.549  14.824
49836W        W22904  41.875  35.338   3.685
49837W        W22905   2.391  17.399   4.155
49838W        W22906  40.949  27.180   3.111
49839W        W22907  44.837  27.545  12.057
49840W        W22908  21.702  33.114  13.275
49841W        W22909  38.961  12.672  11.061
49842W        W22910   2.321  41.128   1.429
49843W        W22911  34.848   3.365   0.033
49844W        W22912  33.167   0.217   2.302
49845W        W22913  37.280  11.588  12.068
49846W        W22914   3.143  25.925  13.215
49847W        W22915  35.483  29.270   4.456
49848W        W22916   4.071  26.049   2.052
49849W        W22917  40.890   4.311   2.174
49850W        W22918  43.646   0.759  10.599
49851W        W22919  17.616   1.809   0.188
49852W        W22920   6.940  38.701  11.929
49853W        W22921  43.315  22.568  13.903
49854W        W22922   9.369   7.595   1.750
49855W        W22923  35.442  40.290   1.902
49856W        W22924  16.716  16.168   4.247
49857W        W22925  37.156  24.770   0.918
49858W        W22926  20.622  15.389  11.520
49859W        W22927   9.754  37.951   2.182
49860W        W22928   7.113  27.130  11.467
49861W        W22929  25.960  16.630   3.631
49862W        W22930   6.861  12.345   1.816
49863W        W22931  25.895  27.070   3.379
49864W        W22932  13.626  33.092   1.819
49865W        W22933  18.316  35.526   2.638
49866W        W22934  39.426  33.929  11.530
49867W        W22935  13.830   3.941   3.891
49868W        W22936  42.649   1.236  13.632
49869W        W22937   8.648   0.041   3.034
49870W        W22938  25.541  41.959   3.878
49871W        W22939  19.628   7.072  10.628
49872W        W22940  20.586  15.774  13.758
49873W        W22941  17.888  22.912   3.675
49874W        W22942  19.106  10.873   2.405
49875W        W22943  37.388   8.069  10.577
49876W        W22944  33.203  40.077   3.179
49877W        W22945  16.518   1.797  12.617
49878W        W22946  36.582   2.885  13.459
49879W        W22947  25.906  15.363  12.630
49880W        W22948  40.198  17.963   3.084
49881W        W22949  40.660  15.853   2.636
49882W        W22950  11.729   3.173   0.219
49883W        W22951   0.937  25.479  14.495
49884W        W22952  19.467   6.358  13.409
49885W        W22953  11.828   9.763   0.306
49886W        W22954  30.249  43.861  13.319
49887W        W22955  19.171   0.265  14.067
49888W        W22956  16.503  36.073  14.260
49889W        W22957  41.545  12.814   3.353
49890W        W22958   8.662   3.103   0.419
49891W        W22959  44.457  13.734  11.134
49892W        W22960  33.857  19.833   2.286
49893W        W22961  23.561   5.121   2.853
49894W        W22962  39.478  21.328   2.255
49895W        W22963  11.942  19.400   2.211
49896W        W22964  33.586  42.501  11.584
49897W        W22965  14.318  20.370  13.795
49898W        W22966   7.966  39.504   9.763
49899W        W22967   8.187   8.192  12.987
49900W        W22968  24.075  16.826   9.945
49901W        W22969  39.371   4.343  13.256
49902W        W22970  13.183  17.758  12.512
49903W        W22971  12.219  35.565  13.469
49904W        W22972  23.443  30.865   1.867
49905W        W22973   0.402   7.653   2.186
49906W        W22974   4.458   4.110   1.146
49907W        W22975  33.634   5.681  14.661
49908W        W22976  20.551  28.686   0.748
49909W        W22977  17.847  12.459  13.988
49910W        W22978  43.447  33.912  12.527
49911W        W22979   4.895  18.180   2.722
49912W        W22980  17.281  14.080   4.101
49913W        W22981  24.496  24.444  11.163
49914W        W22982  37.578  43.730  10.657
49915W        W22983   0.918  40.131  11.134
49916W        W22984  39.898  40.460  10.753
49917W        W22985  16.350  14.663   1.548
49918W        W22986  22.630   3.251  12.570
49919W        W22987  17.124  38.354  14.875
49920W        W22988   0.755  33.185  14.363
49921W        W22989  40.954  30.054  14.838
49922W        W22990   0.731   4.790   1.285
49923W        W22991  39.745  28.667   4.852
49924W        W22992  32.536  10.058   1.364
49925W        W22993  44.750   2.972  14.276
49926W        W22994  33.977  11.401   1.149
49927W        W22995   0.031  38.635   4.187
49928W        W22996  20.296  41.378  13.425
49929W        W22997   9.938   1.258  13.327
49930W        W22998  26.014  35.173   4.211
49931W        W22999  41.366   0.277   4.141
49932W        W23000  29.901  24.222   4.388
49933W        W23001  11.301  27.918   3.186
49934W        W23002   1.072   7.476  13.480
49935W        W23003  23.694  18.605   0.301
49936W        W23004  18.112  22.635   3.180
49937W        W23005  17.089  25.635   4.877
49938W        W23006   8.886   7.901   4.821
49939W        W23007   6.269   4.961  11.685
49940W        W23008  33.957  41.743  11.382
49941W        W23009  23.278  19.514   5.539
49942W        W23010  31.637  11.914  14.092
49943W        W23011  37.547   2.271  12.317
49944W        W23012  10.185  29.634   4.129
49945W        W23013  28.322  41.495   4.210
49946W        W23014  26.641  13.648  11.953
49947W        W23015  14.161  36.887   0.958
49948W        W23016  23.796  43.650   0.246
49949W        W23017   8.928  43.235   2.371
49950W        W23018  42.224  18.095  11.478
49951W        W23019  26.529  43.319  10.998
49952W        W23020  41.880   0.382  12.960
49953W        W23021  26.024  40.265   4.694
49954W        W23022  37.990  21.317   1.828
49955W        W23023  24.065  10.216  10.873
49956W        W23024  30.629  12.768   2.782
49957W        W23025  11.201  32.418   0.779
49958W        W23026  16.733  44.331  11.884
49959W        W23027  39.894   2.725   1.188
49960W        W23028  37.806  17.931  11.052
49961W        W23029  11.929  29.485   4.622
49962W        W23030  33.643  34.461   1.931
49963W        W23031   4.753  14.348  11.102
49964W        W23032   1.191  19.293  14.794
49965W        W23033  11.805  16.294  13.618
49966W        W23034   0.796   3.375   1.648
49967W        W23035  43.816  14.817  12.335
49968W        W23036   3.383   8.406  10.697
49969W        W23037  37.117  11.891  11.141
49970W        W23038  20.217  27.878   0.141
49971W        W23039   6.210  30.395   2.711
49972W        W23040  25.130   2.941   0.523
49973W        W23041  35.676   9.781   0.764
49974W        W23042  18.577  12.728   3.642
49975W        W23043  20.546  37.513  13.528
49976W        W23044  11.886  31.648   3.828
49977W        W23045  44.028  37.475   3.236
49978W        W23046   1.486  20.593  10.770
49979W        W23047  40.270  42.073   1.955
49980W        W23048  21.812  27.426  14.411
49981W        W23049   4.666   9.123   2.766
49982W        W23050   1.047   2.781   3.765
49983W        W23051  30.386  23.771  14.278
49984W        W23052  40.386  43.442   2.051
49985W        W23053   3.513  12.727  14.525
49986W        W23054  23.561  17.647   1.725
49987W        W23055  16.561  38.837   0.454
49988W        W23056  31.610  10.894  11.990
49989W        W23057  33.348  24.003  12.994
49990W        W23058  20.320   1.570  13.413
49991W        W23059  40.528  26.521   2.901
49992W        W23060  23.415  38.800   4.950
49993W        W23061  34.159   6.768  11.510
49994W        W23062  22.213  40.025  14.933
49995W        W23063  36.632  15.460   3.155
49996W        W23064  37.916   8.375   0.856
49997W        W23065  14.019   1.787   0.552
49998W        W23066  37.592  10.695  13.408
49999W        W23067  30.631  30.495  12.554
50000W        W23068  11.118  26.693  13.943
50001W        W23069  30.748   7.433  14.582
50002W        W23070   7.418  23.742  11.988
50003W        W23071  15.546   3.643   2.865
50004W        W23072  25.201  29.859  13.403
50005W        W23073   0.845  29.978  12.152
50006W        W23074  25.952  33.179   4.394
50007W        W23075  32.206   5.950   2.833
50008W        W23076  15.129  21.133   1.159
50009W        W23077  12.614  29.573  11.502
50010W        W23078  19.489  11.749   3.294
50011W        W23079  15.903  19.735  12.129
50012W        W23080  16.051   0.200   2.738
50013W        W23081   1.493  30.201  12.879
50014W        W23082  25.441  24.457   0.937
50015W        W23083   5.203   5.184   0.381
50016W        W23084  14.650   1.244  13.489
50017W        W23085  10.138  22.848  10.758
50018W        W23086   7.901  33.396   3.530
50019W        W23087   5.696  44.822  11.611
50020W        W23088  25.479  32.958  13.884
50021W        W23089   0.289  43.735  11.546
50022W        W23090   2.222   0.252  12.336
50023W        W23091  23.986  41.610  14.955
50024W        W23092  32.967  26.996   3.632
50025W        W23093  35.865  44.426   2.532
50026W        W23094  44.941  15.836   0.252
50027W        W23095  21.712   4.183   3.316
50028W        W23096  31.129  19.836  14.978
50029W        W23097   7.702  39.933   9.900
50030W        W23098   4.676  39.030  13.520
50031W        W23099  38.648  23.999   2.471
50032W        W23100  27.435  39.565   0.471
50033W        W23101  26.529  26.522   1.075
50034W        W23102  22.595  27.757   1.292
50035W        W23103   8.753  13.192  14.257
50036W        W23104  29.648  29.523   3.551
50037W        W23105  34.653  38.741   2.523
50038W        W23106  33.775  19.360  12.415
50039W        W23107  32.415   4.475   1.790
50040W        W23108  15.618  21.251   1.858
50041W        W23109  10.657  25.802  13.000
50042W        W23110  39.973  19.251   2.303
50043W        W23111  42.791  11.282   0.900
50044W        W23112  39.501  38.847  14.774
50045W        W23113   6.761  44.906   1.615
50046W        W23114   1.316  33.998  10.523
50047W        W23115  41.408  31.992   1.667
50048W        W23116  20.237  20.655  12.426
50049W        W23117  18.209  10.726  14.791
50050W        W23118   9.641   5.848   3.208
50051W        W23119  17.599   0.323   0.761
50052W        W23120  43.882  10.839   1.394
50053W        W23121  34.064  24.704  13.875
50054W        W23122   0.655  23.525  10.309
50055W        W23123  28.488  34.008   1.802
50056W        W23124  17.668   3.931   2.306
50057W        W23125  24.769  14.575  11.490
50058W        W23126  33.088  22.840   0.455
50059W        W23127   5.491  13.744  12.098
50060W        W23128  42.994  36.183  11.597
50061W        W23129   6.687  28.258   1.750
50062W        W23130  30.881  38.971   1.731
50063W        W23131  31.970  44.177   3.146
50064W        W23132  14.107   9.276  10.582
50065W        W23133  14.156   9.552   1.210
50066W        W23134  14.566  34.427   0.244
50067W        W23135   3.750  31.063   3.054
50068W        W23136  32.406  12.808  12.472
50069W        W23137  17.313   7.728  10.669
50070W        W23138   7.434  18.765  13.808
50071W        W23139  41.460  19.439  11.642
50072W        W23140  12.598  17.179  12.179
50073W        W23141  12.146  24.588  10.811
50074W        W23142   7.464   9.698   0.853
50075W        W23143   9.457  43.296  11.812
50076W        W23144  34.534  28.460   1.249
50077W        W23145  12.428  23.056   0.371
50078W        W23146  14.404  36.849   3.374
50079W        W23147  39.666  20.299   2.229
50080W        W23148  26.352  38.580  12.118
50081W        W23149  38.336  14.745  10.709
50082W        W23150  30.370  29.094  14.287
50083W        W23151  44.520  34.881  12.070
50084W        W23152  42.750   1.392   1.649
50085W        W23153   5.302  11.325   1.147
50086W        W23154  36.074  25.576  14.762
50087W        W23155   5.897  40.366   2.275
50088W        W23156   2.825   0.565   1.801
50089W        W23157  44.466  33.580   1.530
50090W        W23158  42.239  42.034   0.910
50091W        W23159  17.699  24.682  12.891
50092W        W23160  28.279  17.389   5.457
50093W        W23161  43.322  36.880   1.952
50094W        W23162  27.595  36.621   1.332
50095W        W23163  18.299  38.434   3.804
50096W        W23164   3.285  12.611   3.811
50097W        W23165  21.241  29.798   2.826
50098W        W23166  36.819  32.196   3.282
50099W        W23167  18.758  15.856   4.182
50100W        W23168   7.701  26.695   2.270
50101W        W23169  33.472  12.763   1.498
50102W        W23170  39.886   5.506  12.826
50103W        W23171  29.401   6.339  11.935
50104W        W23172  37.631   7.927   4.181
50105W        W23173   2.677  20.076   3.383
50106W        W23174   0.503   9.847  14.536
50107W        W23175   3.428  41.499  11.483
50108W        W23176  23.218   6.888  14.997
50109W        W23177  32.057  36.459  12.539
50110W        W23178   6.234  42.389   0.363
50111W        W23179  41.714  19.488  12.088
50112W        W23180  25.984  19.534   0.344
50113W        W23181  23.171  26.043   3.359
50114W        W23182  41.790  16.842   4.557
50115W        W23183  36.557  42.048  11.230
50116W        W23184  44.257  15.693  14.730
50117W        W23185  13.790  19.554   0.592
50118W        W23186   5.180   5.971   0.820
50119W        W23187  41.680  34.920   5.123
50120W        W23188  10.806   1.936   4.721
50121W        W23189  17.810  19.349  14.871
50122W        W23190   4.868  18.417  10.747
50123W        W23191  12.077  15.757   2.884
50124W        W23192  13.235  27.036  14.050
50125W        W23193  36.183  33.429  11.092
50126W        W23194  28.261  14.300   0.054
50127W        W23195  34.087  28.963  11.904
50128W        W23196  16.787  30.123   2.350
50129W        W23197  25.769  31.619   2.425
50130W        W23198  34.391  33.962  11.888
50131W        W23199  16.353  16.711   4.573
50132W        W23200  13.765  32.073   2.459
50133W        W23201  23.986  40.349  10.679
50134W        W23202  16.007  35.806   2.303
50135W        W23203  26.252   9.625  11.172
50136W        W23204  14.123  40.770  11.935
50137W        W23205  17.022  44.367   0.351
50138W        W23206   8.954  11.610  11.891
50139W        W23207  14.814  11.265  10.991
50140W        W23208   2.336  23.692   2.480
50141W        W23209  30.209  19.574   4.304
50142W        W23210  16.244  37.830   1.131
50143W        W23211   6.595  41.310   2.631
50144W        W23212  42.480  16.581   3.503
50145W        W23213  19.224  12.075  13.005
50146W        W23214  12.294   9.372   1.388
50147W        W23215  20.169  29.981   0.719
50148W        W23216  12.890  20.687  14.032
50149W        W23217  24.702  38.381   0.019
50150W        W23218  36.166  14.686  13.956
50151W        W23219  25.712  41.047  14.995
50152W        W23220   0.794   1.942   2.275
50153W        W23221   0.832  42.773  13.084
50154W        W23222  39.459  34.953   2.633
50155W        W23223  38.531   5.085   2.392
50156W        W23224  36.472  24.905  12.938
50157W        W23225  29.382  18.765   1.430
50158W        W23226   8.316  37.331  13.030
50159W        W23227  36.044   8.258  10.678
50160W        W23228  28.453  11.851  14.503
50161W        W23229  44.348  40.408  11.619
50162W        W23230   5.180  21.203  12.856
50163W        W23231  37.857  37.133  13.398
50164W        W23232  35.681  31.960  10.683
50165W        W23233   9.910   1.021  12.478
50166W        W23234  36.510  18.451   1.243
50167W        W23235  15.370  33.921  13.943
50168W        W23236  10.205   0.975  12.978
50169W        W23237  24.129  35.102   0.939
50170W        W23238  13.850   8.233   0.849
50171W        W23239  32.347   6.392  10.683
50172W        W23240  23.933  11.366  12.444
50173W        W23241  44.933   2.502  11.150
50174W        W23242  29.135  32.135   1.661
50175W        W23243  15.515  35.117   0.236
50176W        W23244  35.007   0.008   0.766
50177W        W23245  43.057   6.703   0.362
50178W        W23246  26.196   7.926   3.266
50179W        W23247   1.876  23.559   1.436
50180W        W23248   3.572  36.580   1.826
50181W        W23249   3.356  13.155   4.704
50182W        W23250  32.528  24.052  12.635
50183W        W23251   4.513   2.111  11.175
50184W        W23252   9.761  18.731  14.378
50185W        W23253  41.440   2.733   2.927
50186W        W23254  40.967  20.741  11.990
50187W        W23255  33.759  13.216   3.708
50188W        W23256  34.350  24.101  14.934
50189W        W23257  43.442  34.507   4.029
50190W        W23258  12.178  13.291   0.352
50191W        W23259  22.608   8.007   4.958
50192W        W23260  15.714  27.910  13.899
50193W        W23261  38.559  29.473   3.777
50194W        W23262  24.581  32.444   4.563
50195W        W23263   5.426  43.300  13.797
50196W        W23264  18.734  20.147   2.683
50197W        W23265  30.028  17.358   0.875
50198W        W23266  24.462  39.540  10.653
50199W        W23267  13.590  43.239   0.829
50200W        W23268   4.956   9.651  12.932
50201W        W23269  44.453  21.664   1.359
50202W        W23270   4.364  28.587   2.614
50203W        W23271  20.054  16.997   2.733
50204W        W23272  18.700   5.790   2.773
50205W        W23273   9.767  32.571   1.411
50206W        W23274  26.137  38.924   3.563
50207W        W23275  23.283  22.665   2.824
50208W        W23276  18.508   2.707  10.693
50209W        W23277  27.263  36.819   1.951
50210W        W23278  43.819   5.746  10.509
50211W        W23279   4.903   3.519  13.457
50212W        W23280  13.568   9.325   0.505
50213W        W23281   0.818   8.924  10.207
50214W        W23282  23.694   0.556  11.864
50215W        W23283  13.570  21.303   3.683
50216W        W23284  20.992  17.240   1.438
50217W        W23285  15.925  14.161   4.576
50218W        W23286  12.356  20.047   4.589
50219W        W23287  21.538  20.583   4.782
50220W        W23288  43.910  41.540  12.971
50221W        W23289  34.540   3.280   2.360
50222W        W23290  39.320  44.000   1.360
50223W        W23291   7.238   7.768  13.027
50224W        W23292  23.130  23.736   4.824
50225W        W23293  44.961  32.426   3.824
50226W        W23294  38.831   0.860   4.504
50227W        W23295  33.010  40.319  10.901
50228W        W23296  12.290  13.624   1.883
50229W        W23297  41.429  28.887  14.799
50230W        W23298   4.377  33.170  11.397
50231W        W23299  41.378  32.394   1.982
50232W        W23300  10.909  43.080  12.919
50233W        W23301   9.197  32.730   1.503
50234W        W23302   4.479   1.241   2.101
50235W        W23303  20.789  38.624   1.711
50236W        W23304  12.148  40.437   1.481
50237W        W23305   9.114  27.655  11.220
50238W        W23306   7.375  36.049  11.546
50239W        W23307  24.150   0.901  14.482
50240W        W23308  14.991   6.763  13.875
50241W        W23309  31.949  44.877   4.210
50242W        W23310  40.611  32.059  11.049
50243W        W23311  25.991  18.140  12.126
50244W        W23312  38.471  32.570  10.880
50245W        W23313  20.258  21.532   1.659
50246W        W23314  10.620   3.940   2.268
50247W        W23315  44.236  25.187   2.288
50248W        W23316  21.945  13.690   1.738
50249W        W23317  11.441  37.529   4.547
50250W        W23318  24.159  20.257  11.097
50251W        W23319  43.825  23.694   3.076
50252W        W23320  19.095  28.036   3.940
50253W        W23321  15.646  33.672   4.105
50254W        W23322  44.904  43.357  14.850
50255W        W23323  25.795  14.829   0.611
50256W        W23324  12.642   4.030   1.740
50257W        W23325  33.553  42.539   4.143
50258W        W23326   3.321  25.463   4.743
50259W        W23327  15.588  13.357   3.329
50260W        W23328  34.049   3.445   3.717
50261W        W23329   8.567   9.843   4.288
50262W        W23330   1.772  26.076   1.507
50263W        W23331   7.727  11.410  10.731
50264W        W23332   6.758  16.020   4.132
50265W        W23333  32.587  25.468  11.987
50266W        W23334  36.998  26.369  12.582
50267W        W23335  20.058  15.859   4.464
50268W        W23336  18.717  41.783  10.482
50269W        W23337   8.232   8.222  10.711
50270W        W23338  16.075   7.003  12.483
50271W        W23339  44.989  24.338   4.203
50272W        W23340  29.060  10.839  13.750
50273W        W23341  22.114   0.018  13.908
50274W        W23342  41.840  43.700   4.203
50275W        W23343  16.225  17.771   1.316
50276W        W23344  34.332  39.077   1.053
50277W        W23345  18.046  37.877   1.380
50278W        W23346   2.358   3.489  13.754
50279W        W23347  23.933   8.885   1.747
50280W        W23348  27.188   3.086   3.006
50281W        W23349   0.701   5.254   1.886
50282W        W23350  33.801   5.882  13.422
50283W        W23351  30.957  18.650   4.545
50284W        W23352  16.157   5.655  12.112
50285W        W23353   7.248  33.606   3.145
50286W        W23354  42.343   1.182  11.552
50287W        W23355  12.319  39.634  13.061
50288W        W23356  44.939  37.664   3.330
50289W        W23357  30.191  10.910   3.674
50290W        W23358  18.267  31.015   4.602
50291W        W23359   6.794  27.649  11.104
50292W        W23360  10.957  22.204   0.859
50293W        W23361  18.003   0.468  10.523
50294W        W23362  14.256  33.158  13.724
50295W        W23363   1.755   5.635   4.036
50296W        W23364  43.392  19.733   2.279
50297W        W23365  36.767  30.888  11.582
50298W        W23366  20.077   5.499  14.723
50299W        W23367  42.225  20.904   2.813
50300W        W23368  21.819  19.742   5.126
50301W        W23369  30.658  29.873   1.430
50302W        W23370  14.009  25.865  12.072
50303W        W23371  17.530  10.657   1.752
50304W        W23372   8.328  28.997   1.303
50305W        W23373  31.566   9.915  13.372
50306W        W23374  44.407  12.885   0.782
50307W        W23375  17.148  26.293  11.927
50308W        W23376   3.708  27.442   2.580
50309W        W23377  42.058  14.152   2.809
50310W        W23378  12.388  31.064   0.879
50311W        W23379  36.675  27.519  11.634
50312W        W23380  14.702  37.517   0.241
50313W        W23381  14.855  32.128   4.520
50314W        W23382  15.266  31.719  13.009
50315W        W23383   0.806  36.419   1.648
50316W        W23384  43.342  40.816  13.368
50317W        W23385   0.687   7.862  14.840
50318W        W23386  35.543  32.479  10.361
50319W        W23387  16.308  10.760   3.090
50320W        W23388  12.718  12.841  11.685
50321W        W23389  18.868  23.758  12.822
50322W        W23390  11.588   7.187  12.029
50323W        W23391  25.391   5.244   2.255
50324W        W23392  18.892  29.055  12.412
50325W        W23393  20.060   0.355  14.102
50326W        W23394  44.492  44.537   4.153
50327W        W23395  42.267  24.163  12.374
50328W        W23396  34.612  28.263   3.035
50329W        W23397  20.539  32.220  13.535
50330W        W23398   6.720  12.245  13.502
50331W        W23399  21.612  44.235   4.625
50332W        W23400  11.213   3.223   3.280
50333W        W23401   2.886   4.405   0.956
50334W        W23402  24.764   0.449  13.956
50335W        W23403  35.345   8.884   1.142
50336W        W23404  14.722  43.440   2.752
50337W        W23405   7.932  12.152  12.120
50338W        W23406  11.195  44.859   1.300
50339W        W23407  21.121  12.774   3.763
50340W        W23408   4.924  33.850  13.496
50341W        W23409  15.135  22.451  12.154
50342W        W23410  20.710  32.569  12.025
50343W        W23411  11.741  14.228  11.490
50344W        W23412  42.019  17.829  14.255
50345W        W23413  24.042   2.338   4.714
50346W        W23414  41.039  42.480  11.995
50347W        W23415  32.716  25.316  14.774
50348W        W23416  24.100  23.281   4.790
50349W        W23417  24.194  25.674   3.655
50350W        W23418  16.161  23.752   4.113
50351W        W23419  37.360  23.110   4.472
50352W        W23420  27.393   7.298   3.666
50353W        W23421  34.316  43.954   1.836
50354W        W23422   7.275   4.769  12.984
50355W        W23423  30.617  36.348   4.335
50356W        W23424  25.431  10.926   3.331
50357W        W23425  38.045   4.486  14.035
50358W        W23426  18.136  10.624  11.857
50359W        W23427  43.253  25.150   4.558
50360W        W23428  44.755   6.188   0.854
50361W        W23429  23.124   9.475  14.484
50362W        W23430   3.861  10.291   2.823
50363W        W23431   9.454   2.807   1.878
50364W        W23432  43.534  19.279  10.715
50365W        W23433   5.163  42.516   3.807
50366W        W23434  24.435   8.766   1.704
50367W        W23435  22.962  37.867   3.747
50368W        W23436  32.062  11.735  11.343
50369W        W23437   2.775  42.912   3.133
50370W        W23438  26.098  35.333  12.004
50371W        W23439  13.731   5.347  10.552
50372W        W23440   7.111  37.408  14.355
50373W        W23441  32.151   6.346   1.260
50374W        W23442  22.221   4.757  12.045
50375W        W23443   5.764  28.081   2.790
50376W        W23444  18.286  41.632  14.563
50377W        W23445   2.374   0.806   2.654
50378W        W23446  40.278  42.553  14.908
50379W        W23447  31.561  37.373  11.486
50380W        W23448  32.083  39.230   2.969
50381W        W23449  30.077   0.492   4.175
50382W        W23450  26.046  22.687   1.317
50383W        W23451  23.336  31.995   2.965
50384W        W23452  36.898   8.202   3.893
50385W        W23453  39.043  36.646   2.751
50386W        W23454   6.355  35.265   4.147
50387W        W23455  40.968  41.203   4.237
50388W        W23456  13.807  41.002  13.881
50389W        W23457  42.498  42.024   1.903
50390W        W23458  36.406  42.021  13.958
50391W        W23459  14.984  35.115  14.363
50392W        W23460  18.355  27.788  13.037
50393W        W23461  39.082   8.223   1.171
50394W        W23462  33.217  13.238  11.236
50395W        W23463  42.003  16.478   3.627
50396W        W23464  25.993   9.833   2.830
50397W        W23465  27.019  14.860  11.565
50398W        W23466  32.562   6.322   0.504
50399W        W23467  41.795  41.408   0.765
50400W        W23468  14.827  14.558  10.597
50401W        W23469   0.653  34.074   0.456
50402W        W23470  33.857  21.181   0.520
50403W        W23471  29.764  27.227  14.892
50404W        W23472  33.996  19.550   4.098
50405W        W23473   6.320  17.026   3.671
50406W        W23474  14.697  44.798  13.012
50407W        W23475  24.966  37.567   4.625
50408W        W23476  38.357   8.750  14.290
50409W        W23477  17.089  29.634  10.804
50410W        W23478  16.038  33.644  12.053
50411W        W23479  12.561  11.174  13.213
50412W        W23480  19.997  39.339  10.674
50413W        W23481  43.535  21.228   3.324
50414W        W23482  32.411  14.763   1.451
50415W        W23483  35.408  10.887   0.058
50416W        W23484  38.062   3.832  14.864
50417W        W23485   5.827  33.109  12.880
50418W        W23486  19.586   0.664   5.548
50419W        W23487  27.577  36.866  13.027
50420W        W23488   9.856  32.303   3.214
50421W        W23489  41.974   5.317  14.400
50422W        W23490   4.699  25.164  14.375
50423W        W23491  22.600  21.490   4.238
50424W        W23492  43.843   6.140   4.276
50425W        W23493  35.045   1.861   4.141
50426W        W23494   8.892  21.895  10.383
50427W        W23495  15.307  10.681  13.548
50428W        W23496  24.750  41.062  13.917
50429W        W23497  11.812  24.273  14.878
50430W        W23498  41.567  43.345   0.772
50431W        W23499  33.193  13.259  12.541
50432W        W23500  15.230  21.226   3.166
50433W        W23501  34.612  34.422   2.919
50434W        W23502  24.261  26.566  14.564
50435W        W23503  13.731  42.364   4.489
50436W        W23504  24.683  37.547  11.313
50437W        W23505   3.437   6.307  13.303
50438W        W23506  27.930   5.785   1.045
50439W        W23507  20.657  24.768   4.278
50440W        W23508  10.267   5.828   0.482
50441W        W23509  10.257  35.295   5.245
50442W        W23510  19.589   5.880  13.570
50443W        W23511  16.979  16.503   3.742
50444W        W23512  28.767  11.606   2.452
50445W        W23513  35.514  23.667   1.847
50446W        W23514  22.492  34.892  12.479
50447W        W23515  36.003  16.616  11.602
50448W        W23516  34.584  42.908  10.694
50449W        W23517  35.847   9.428  14.998
50450W        W23518  38.169  26.364   0.862
50451W        W23519  28.379  29.074   4.626
50452W        W23520  39.383  16.731  14.860
50453W        W23521  11.662  29.232   4.186
50454W        W23522  21.140  42.305   3.700
50455W        W23523  29.548  15.350   2.658
50456W        W23524   7.972   1.468  11.953
50457W        W23525  23.045  36.921  13.293
50458W        W23526  28.587  30.570  14.094
50459W        W23527  31.612  44.035  13.325
50460W        W23528  40.909  41.318  10.551
50461W        W23529  22.492   5.225  11.997
50462W        W23530  25.932  16.249  12.005
50463W        W23531  44.539  33.496  11.776
50464W        W23532   9.821  20.495   1.157
50465W        W23533  24.650   3.847   4.665
50466W        W23534  16.092  25.016   3.650
50467W        W23535  19.353  16.650  13.573
50468W        W23536  13.375  31.053  11.591
50469W        W23537   9.458  14.155  13.005
50470W        W23538  31.311  22.998   2.302
50471W        W23539  44.868  44.680  14.132
50472W        W23540  35.437  25.555   0.459
50473W        W23541   0.412  11.908  11.917
50474W        W23542  17.712  20.361  14.804
50475W        W23543  43.213   3.863   2.422
50476W        W23544   1.959  37.012   0.993
50477W        W23545   6.216  24.893   2.605
50478W        W23546  25.887  12.304   4.704
50479W        W23547  28.065  18.649  12.535
50480W        W23548   6.827  15.052   3.303
50481W        W23549  43.325   9.129  12.033
50482W        W23550  20.509  19.775  13.462
50483W        W23551  22.940  23.144  13.132
50484W        W23552  18.224  25.984  14.783
50485W        W23553  14.084  38.971  11.648
50486W        W23554  15.811  12.146  14.844
50487W        W23555  10.883  30.622   2.973
50488W        W23556  20.174   9.941   0.523
50489W        W23557  39.993  24.496   3.133
50490W        W23558  38.417  17.720  14.783
50491W        W23559  25.385  17.050   0.407
50492W        W23560   1.950  14.124  12.437
50493W        W23561  27.987  30.118   2.410
50494W        W23562  39.511  16.685  13.941
50495W        W23563  28.932   3.933   4.630
50496W        W23564  25.143   6.428   3.704
50497W        W23565  21.039  33.044  14.388
50498W        W23566  28.111   9.758   0.262
50499W        W23567  39.339  28.062  10.551
50500W        W23568  13.767  21.019   4.599
50501W        W23569  43.691  21.074   1.432
50502W        W23570  39.898  31.632   1.907
50503W        W23571  12.788   1.838   3.601
50504W        W23572  38.653  38.848   3.390
50505W        W23573  28.703  29.570   3.953
50506W        W23574  11.105   1.941   2.798
50507W        W23575   1.728  14.634   1.361
50508W        W23576  23.027  22.736  13.461
50509W        W23577  39.000  16.283   4.616
50510W        W23578  20.678  35.974   2.478
50511W        W23579  31.029  18.773  13.571
50512W        W23580   4.840   4.336   2.783
50513W        W23581  21.161  22.258   2.391
50514W        W23582   7.416  19.826  10.954
50515W        W23583  18.378  34.644   0.729
50516W        W23584   3.902  27.449  13.016
50517W        W23585  21.734   1.975  11.100
50518W        W23586  12.303  10.250   3.306
50519W        W23587  28.477  28.787   3.683
50520W        W23588   4.397  32.842   2.291
50521W        W23589  28.692  16.034  10.528
50522W        W23590  27.462  36.438  10.729
50523W        W23591  19.290  41.727  12.257
50524W        W23592  24.205  37.376  10.997
50525W        W23593  33.852  41.496  14.302
50526W        W23594  18.465   5.252  13.345
50527W        W23595   0.462  12.862   0.440
50528W        W23596  30.467  15.809   2.477
50529W        W23597  25.590  38.379  14.446
50530W        W23598  25.858   1.414   4.626
50531W        W23599  42.548  27.979   2.232
50532W        W23600  32.642   3.726   0.048
50533W        W23601  36.102   7.321  10.680
50534W        W23602  38.245  36.369   4.482
50535W        W23603  25.392  31.937  13.415
50536W        W23604  40.434   0.499   1.774
50537W        W23605   0.556  29.592  12.445
50538W        W23606  34.117  24.061   2.447
50539W        W23607  41.246   8.246  14.553
50540W        W23608  40.335  43.419   2.560
50541W        W23609  23.571  18.760  14.293
50542W        W23610  29.913  17.325  12.985
50543W        W23611   0.117  33.636  13.926
50544W        W23612  39.044   2.524   3.747
50545W        W23613   4.802  40.425  10.696
50546W        W23614  32.854   8.239  13.490
50547W        W23615  18.492  31.021   1.696
50548W        W23616  33.818   8.782  10.684
50549W        W23617  23.220   0.445   1.404
50550W        W23618   9.756  12.148  14.404
50551W        W23619  23.234   6.946  14.042
50552W        W23620  23.201  28.082   0.970
50553W        W23621  42.302  33.538   4.045
50554W        W23622   1.236  40.675  14.510
50555W        W23623  32.308   8.310  14.256
50556W        W23624  44.732  35.862   3.681
50557W        W23625  40.563  24.023   4.132
50558W        W23626  23.165  25.979  12.589
50559W        W23627  29.251  36.046   4.025
50560W        W23628  35.072  34.039   3.706
50561W        W23629  31.530   8.821   4.628
50562W        W23630  11.549  36.205  11.024
50563W        W23631  36.934  25.241   1.763
50564W        W23632  44.441  15.116  12.993
50565W        W23633  43.435  34.269   3.569
50566W        W23634   4.995  19.211  11.957
50567W        W23635  39.406  21.764  13.828
50568W        W23636  37.511  12.086  12.363
50569W        W23637  15.796  30.818  14.372
50570W        W23638  36.344  32.953   3.139
50571W        W23639   6.407  25.204   1.731
50572W        W23640  39.899   4.400   3.181
50573W        W23641  36.070  10.410  14.406
50574W        W23642  21.586   1.690   3.170
50575W        W23643  27.284  34.524  13.095
50576W        W23644  35.463   6.163   1.819
50577W        W23645  16.735   6.158   3.894
50578W        W23646  24.010  11.918   3.714
50579W        W23647  32.179  15.248   0.850
50580W        W23648  36.602   3.463  14.326
50581W        W23649  33.494  41.532  14.681
50582W        W23650  25.960  40.179  13.604
50583W        W23651  18.227  24.207   2.692
50584W        W23652  13.248   1.972   4.493
50585W        W23653  32.474  20.740   2.019
50586W        W23654  37.114   5.738  11.650
50587W        W23655  24.987   0.405   2.722
50588W        W23656  38.331  26.350  14.370
50589W        W23657  13.174   1.847  13.472
50590W        W23658  33.198  18.941  13.864
50591W        W23659   3.265  14.647  14.356
50592W        W23660  18.631  29.972  14.344
50593W        W23661  42.035  14.308  13.457
50594W        W23662  31.919   5.793   0.450
50595W        W23663  32.017  14.625   2.630
50596W        W23664  21.532  25.194   4.296
50597W        W23665  15.595   1.816  13.607
50598W        W23666   1.892  42.381  10.738
50599W        W23667  20.030  35.051   1.475
50600W        W23668  42.863  37.992  10.671
50601W        W23669  37.138  29.028  12.974
50602W        W23670  35.422  42.950  13.573
50603W        W23671  14.281  43.811  11.024
50604W        W23672   2.494  44.045   2.292
50605W        W23673   1.946  38.968   3.566
50606W        W23674  18.127   1.912   0.290
50607W        W23675   2.031  15.624  14.204
50608W        W23676  19.483  40.248  13.975
50609W        W23677  19.168   8.154  12.997
50610W        W23678  29.425  24.652  14.164
50611W        W23679   4.426  39.905   1.804
50612W        W23680  37.770  40.073  12.476
50613W        W23681  43.908  32.475   1.394
50614W        W23682   7.033  33.382   2.687
50615W        W23683   7.819  19.651  10.661
50616W        W23684  35.333  26.996  13.667
50617W        W23685  12.674  29.116  13.354
50618W        W23686  23.944  26.573   3.386
50619W        W23687  16.269  11.747   4.166
50620W        W23688  27.688  11.601   1.346
50621W        W23689  29.613  13.599  14.941
50622W        W23690  20.807   6.764   1.362
50623W        W23691   7.159  32.121   3.802
50624W        W23692   6.733  36.583  11.223
50625W        W23693  34.590  39.049  12.018
50626W        W23694  24.459  16.020   0.293
50627W        W23695  21.732   4.776   2.181
50628W        W23696  19.808  22.256  13.462
50629W        W23697  42.517  33.111   4.275
50630W        W23698  20.712   8.267  11.970
50631W        W23699  17.103  38.839   3.198
50632W        W23700  13.507   2.145  10.819
50633W        W23701   9.155  18.558  14.549
50634W        W23702  40.475  31.608   3.654
50635W        W23703  36.437   6.712   1.016
50636W        W23704  14.548  44.452  10.813
50637W        W23705  19.375  32.646   3.199
50638W        W23706  30.046  16.085   4.116
50639W        W23707  40.893  40.448   1.236
50640W        W23708  11.311  21.079   0.300
50641W        W23709  36.578  27.013   1.339
50642W        W23710   5.334  15.852  13.366
50643W        W23711  23.002  19.059  14.025
50644W        W23712   8.695  30.176   3.708
50645W        W23713  41.369  28.057  11.072
50646W        W23714   6.091  20.977   3.618
50647W        W23715  22.804   7.366  13.161
50648W        W23716  25.353   4.797  12.478
50649W        W23717  24.550  30.162   3.163
50650W        W23718  14.661  10.223  12.079
50651W        W23719  19.933  35.129  13.425
50652W        W23720  34.564   1.722  12.578
50653W        W23721  26.770  42.580  14.991
50654W        W23722  35.118   7.095   2.209
50655W        W23723  11.949  39.960   2.726
50656W        W23724   0.731  11.269  12.740
50657W        W23725  11.663  24.069   1.713
50658W        W23726  41.757  11.658   4.395
50659W        W23727   3.157  32.852   5.028
50660W        W23728  11.259  21.998  10.736
50661W        W23729  37.027   6.456  12.369
50662W        W23730  10.750  19.617   3.427
50663W        W23731  14.103   7.781   4.728
50664W        W23732  37.273  16.987   4.960
50665W        W23733  41.172  15.647  11.809
50666W        W23734  35.279  34.229   4.592
50667W        W23735  41.397  41.172   3.896
50668W        W23736  26.780  21.619   4.684
50669W        W23737  11.862  34.954   0.898
50670W        W23738   3.431  15.730  10.935
50671W        W23739  23.292  34.572   0.918
50672W        W23740  23.786  13.891  12.972
50673W        W23741  10.436  21.035   1.342
50674W        W23742  18.111  18.669  10.424
50675W        W23743  11.819  44.857   3.217
50676W        W23744  17.933  40.355  14.932
50677W        W23745  36.408  34.403  13.124
50678W        W23746  42.901   6.402   2.177
50679W        W23747  11.233  12.151   1.256
50680W        W23748  25.197  25.326  11.814
50681W        W23749  18.083   1.174  12.796
50682W        W23750  14.127  30.191   4.644
50683W        W23751  33.412   8.662   3.223
50684W        W23752  24.599  15.739  11.196
50685W        W23753  10.160  38.251   2.386
50686W        W23754   2.390  26.872   0.993
50687W        W23755  40.400  19.550  12.003
50688W        W23756   6.651   5.019  13.515
50689W        W23757  29.423  18.624  13.747
50690W        W23758  10.194  42.067  12.149
50691W        W23759   6.291   1.275   0.453
50692W        W23760  19.650  11.121   0.158
50693W        W23761   6.579  25.684   4.051
50694W        W23762  28.017  20.923  13.222
50695W        W23763  22.755  30.670   1.894
50696W        W23764  33.933   9.155  11.095
50697W        W23765  40.709  32.591   4.265
50698W        W23766  15.282  31.575  10.661
50699W        W23767  21.627   3.778  12.523
50700W        W23768  27.622   3.209  10.207
50701W        W23769  29.179   6.806  14.411
50702W        W23770  19.264  13.986  11.089
50703W        W23771   2.818   7.698  10.725
50704W        W23772  20.696  20.752  13.241
50705W        W23773  20.443   4.025  14.871
50706W        W23774  26.416  27.036   3.306
50707W        W23775  30.207   4.482  12.957
50708W        W23776  10.433  15.919  14.927
50709W        W23777  40.764  16.746   0.936
50710W        W23778  12.633  38.375  11.595
50711W        W23779   6.345   7.928  13.179
50712W        W23780  26.458   9.808  14.536
50713W        W23781  25.914  16.752   3.122
50714W        W23782  25.311  43.811   2.471
50715W        W23783  11.677  41.860   0.767
50716W        W23784  30.071  36.470   4.202
50717W        W23785   2.239  43.921   3.623
50718W        W23786   0.314  30.432  12.429
50719W        W23787  26.536  17.401   3.123
50720W        W23788  38.379   0.472  12.325
50721W        W23789  10.218  24.404  14.524
50722W        W23790  11.524  18.904   5.183
50723W        W23791  20.657   3.221  14.419
50724W        W23792   3.225  42.841  10.859
50725W        W23793  39.338  24.996   4.265
50726W        W23794  16.124   4.781   1.243
50727W        W23795  19.562  44.565  12.125
50728W        W23796  38.452   0.119   5.007
50729W        W23797  28.446  22.629  11.587
50730W        W23798  30.983  27.694  11.080
50731W        W23799  36.397   6.785  13.992
50732W        W23800  29.985  28.233   2.029
50733W        W23801   9.814  43.911   2.129
50734W        W23802   0.291  26.625  11.002
50735W        W23803  12.073  35.938  12.506
50736W        W23804  26.207   5.025  12.472
50737W        W23805   0.582  17.579   4.571
50738W        W23806  30.084  40.791   3.326
50739W        W23807  19.548   7.661   0.829
50740W        W23808  41.540  13.742   2.410
50741W        W23809   1.442  42.527  11.971
50742W        W23810   4.768   6.337  11.039
50743W        W23811   3.981  19.479  12.574
50744W        W23812  23.745   2.667   1.308
50745W        W23813   9.642  42.637   1.830
50746W        W23814  34.571  24.490  10.788
50747W        W23815  34.896  12.758  10.824
50748W        W23816  18.013  25.303  14.397
50749W        W23817  38.512  39.424   1.424
50750W        W23818  24.047  23.611   0.739
50751W        W23819  17.760  31.916  12.734
50752W        W23820   9.099  21.102  12.587
50753W        W23821  24.309  37.904  13.521
50754W        W23822  22.087  20.144  11.365
50755W        W23823  42.233  36.889   0.314
50756W        W23824   3.633  17.151  11.114
50757W        W23825  28.061   9.237   0.219
50758W        W23826  39.054  36.456   1.303
50759W        W23827  16.183  24.934   1.733
50760W        W23828  37.868  37.657   4.090
50761W        W23829  21.101  27.453   2.220
50762W        W23830  36.436  16.448   4.015
50763W        W23831  22.167   7.856   1.338
50764W        W23832  16.757   3.913  14.900
50765W        W23833  44.392  32.313  13.478
50766W        W23834  43.859  26.687  10.983
50767W        W23835  27.899  42.986   4.501
50768W        W23836  34.307  20.602  13.120
50769W        W23837  14.163  36.332   0.943
50770W        W23838  23.993  11.200   3.175
50771W        W23839  16.549  17.866  11.976
50772W        W23840  20.890  24.920   1.285
50773W        W23841  40.031  11.618   1.022
50774W        W23842   1.960  29.057   0.330
50775W        W23843  37.779  34.425  12.026
50776W        W23844  34.385   8.156   4.157
50777W        W23845   1.904  19.990   4.835
50778W        W23846  20.557  29.462   0.050
50779W        W23847  30.483  21.709  14.293
50780W        W23848  35.997  38.138   1.347
50781W        W23849  42.577  29.475  13.666
50782W        W23850  42.432  24.528  13.739
50783W        W23851  33.005  39.257   2.194
50784W        W23852  44.254  43.358  12.579
50785W        W23853  26.520  10.098   4.970
50786W        W23854   0.426  31.484  13.495
50787W        W23855  11.812  30.370   1.287
50788W        W23856  38.570  44.330   2.726
50789W        W23857  40.405  26.733   3.913
50790W        W23858  40.319  34.204   3.672
50791W        W23859  25.919  11.787  12.786
50792W        W23860  44.849  30.812  11.563
50793W        W23861  15.671  42.081   2.651
50794W        W23862  21.973   5.968   4.788
50795W        W23863  12.523  14.024   0.827
50796W        W23864  19.471  28.104   1.801
50797W        W23865   3.368  24.097  13.588
50798W        W23866  32.533  26.236  11.431
50799W        W23867  15.286  32.699   3.792
50800W        W23868  23.465  42.435   2.750
50801W        W23869   4.358  21.789   2.744
50802W        W23870  39.073   6.157   4.257
50803W        W23871  30.538  20.705   0.482
50804W        W23872  39.543  32.122   2.669
50805W        W23873  26.643   4.375  14.107
50806W        W23874  34.914  40.437   3.645
50807W        W23875  40.692  37.016   3.130
50808W        W23876  36.451  35.758   2.146
50809W        W23877   1.796  23.084   3.813
50810W        W23878  26.102  39.675   3.138
50811W        W23879  41.014  17.644   3.384
50812W        W23880  42.219  18.098   4.447
50813W        W23881  23.015   8.330  14.975
50814W        W23882  44.503  15.097   4.675
50815W        W23883  33.308  40.932   0.506
50816W        W23884  19.744   2.669  14.825
50817W        W23885  35.949  34.717  12.130
50818W        W23886  35.635  37.972  14.411
50819W        W23887  44.013   7.316  11.034
50820W        W23888  30.127   4.984  12.963
50821W        W23889   4.912  35.840  11.274
50822W        W23890   7.462  10.311  11.639
50823W        W23891  10.679  12.376  13.805
50824W        W23892  43.758  30.633   2.665
50825W        W23893  11.109  29.970  11.758
50826W        W23894  41.312  40.548   3.121
50827W        W23895  12.625  37.376   3.000
50828W        W23896  31.333  14.201  14.766
50829W        W23897  24.726   0.221  12.687
50830W        W23898  39.288   8.780   3.732
50831W        W23899   3.073  10.743  11.066
50832W        W23900  43.496  27.618  10.990
50833W        W23901   5.888   3.394  14.358
50834W        W23902   0.316  23.103  12.334
50835W        W23903  25.812  29.542  13.120
50836W        W23904  16.391  15.114  11.663
50837W        W23905  40.522  37.031   2.215
50838W        W23906  19.106  14.766  10.734
50839W        W23907  44.966  11.262   1.819
50840W        W23908  22.329  37.057   4.366
50841W        W23909   4.677  15.485  11.719
50842W        W23910  32.900  21.789  12.493
50843W        W23911  25.510  30.409   1.236
50844W        W23912  17.794  16.561  11.302
50845W        W23913  41.541  22.537  14.459
50846W        W23914   0.423  15.210   2.813
50847W        W23915  18.283   1.416  12.142
50848W        W23916   3.448  25.429   3.692
50849W        W23917   8.281  34.847   2.000
50850W        W23918  41.842  32.012  14.432
50851W        W23919  13.668  17.087   2.365
50852W        W23920   9.143  22.453   4.504
50853W        W23921  34.155  24.390   2.833
50854W        W23922  37.586   8.701  12.639
50855W        W23923  43.922  42.248  14.046
50856W        W23924  11.304  18.574  11.617
50857W        W23925  31.617  41.440   4.453
50858W        W23926  15.606  10.807  13.959
50859W        W23927  24.904   7.887   1.763
50860W        W23928  34.670  27.491   1.304
50861W        W23929   3.443   9.236   4.761
50862W        W23930  37.575  32.064  11.552
50863W        W23931  15.094  34.590  11.183
50864W        W23932   2.455  32.615  14.241
50865W        W23933  44.923  16.868   1.813
50866W        W23934  15.178  30.725   1.796
50867W        W23935  35.367   4.808   3.676
50868W        W23936   2.921   9.766  13.284
50869W        W23937   6.866  25.241  13.839
50870W        W23938   8.472  26.229   0.867
50871W        W23939  21.182  20.166  13.866
50872W        W23940  15.473  36.408   0.484
50873W        W23941  13.655   8.271   2.776
50874W        W23942   8.932  22.110   0.867
50875W        W23943  29.552  10.510   0.099
50876W        W23944  19.309  25.279  11.175
50877W        W23945  44.301  32.900  14.854
50878W        W23946   0.344  39.523   3.897
50879W        W23947  34.712  14.142   2.799
50880W        W23948  38.816  27.634  12.970
50881W        W23949   4.385   3.469  10.826
50882W        W23950  29.612  19.649   2.604
50883W        W23951  22.678  22.972  12.026
50884W        W23952  38.121   8.612   4.134
50885W        W23953  35.626  31.509   3.394
50886W        W23954  17.370  41.826  14.933
50887W        W23955  20.137  23.681   1.898
50888W        W23956  39.592  28.918  10.612
50889W        W23957  36.015  13.511  11.434
50890W        W23958  33.244  20.780  14.338
50891W        W23959  21.550  21.371  12.257
50892W        W23960  15.644  24.736   2.274
50893W        W23961  10.361  17.275   1.885
50894W        W23962  12.648  34.592  10.747
50895W        W23963  36.817   5.431  10.965
50896W        W23964   0.862  19.619   5.181
50897W        W23965   5.423   8.551  13.740
50898W        W23966  43.238   1.846   2.680
50899W        W23967   1.840   1.890  13.092
50900W        W23968   5.495  12.778   0.887
50901W        W23969  35.814  38.051  13.853
50902W        W23970   5.192   9.738  11.014
50903W        W23971  23.689  20.688  12.910
50904W        W23972  27.557  27.079  13.537
50905W        W23973   1.970  15.731   2.168
50906W        W23974   0.386   8.229   0.393
50907W        W23975  33.612  18.242  13.593
50908W        W23976  14.169   8.141   2.820
50909W        W23977  21.169   7.543  10.682
50910W        W23978   2.176  20.616  12.803
50911W        W23979  17.041  11.652  11.989
50912W        W23980  22.251   0.658   1.019
50913W        W23981  43.823  34.325  13.915
50914W        W23982  30.424  26.915  11.520
50915W        W23983  11.285  21.734  14.450
50916W        W23984   6.317   6.268  13.546
50917W        W23985  28.987   4.795   3.929
50918W        W23986   4.999  22.799   0.553
50919W        W23987  14.130  37.589  11.512
50920W        W23988  35.424  33.553   1.768
50921W        W23989  29.030  43.687   3.409
50922W        W23990   7.731   7.872  14.938
50923W        W23991  18.800  28.343   4.761
50924W        W23992  36.570  43.364  10.612
50925W        W23993   2.689  44.143   4.255
50926W        W23994  14.404  25.123  10.887
50927W        W23995   3.338   6.276  11.451
50928W        W23996  42.779  33.863   2.394
50929W        W23997  30.525   4.975  11.289
50930W        W23998   3.986  22.266  14.618
50931W        W23999   6.323  27.186  13.146
50932W        W24000  15.624  20.554  14.971
50933W        W24001  35.898   5.399  12.711
50934W        W24002  39.892  26.087   4.846
50935W        W24003  38.986  37.811  13.927
50936W        W24004  37.889   3.947  11.551
50937W        W24005  38.621  23.472   4.100
50938W        W24006  43.025   3.147   1.599
50939W        W24007   2.004  35.299   2.267
50940W        W24008  30.449  35.944  13.247
50941W        W24009   4.518   6.384   3.161
50942W        W24010  13.013  43.360  10.711
50943W        W24011   0.345  18.587  11.404
50944W        W24012  27.401  30.970   4.507
50945W        W24013  17.023  38.345   3.293
50946W        W24014  36.900   9.830  14.094
50947W        W24015   6.783  13.322   0.872
50948W        W24016  19.283  17.201  11.598
50949W        W24017  40.392  10.164  12.494
50950W        W24018  15.777  30.541   2.890
50951W        W24019  21.348  19.006  11.502
50952W        W24020   2.478  39.394   1.310
50953W        W24021   3.457  28.199  13.302
50954W        W24022   7.868  38.482  10.668
50955W        W24023  38.344  27.842  14.441
50956W        W24024  44.555  37.887  12.358
50957W        W24025  35.360  29.201   3.551
50958W        W24026  15.392  32.495  14.010
50959W        W24027  12.648  16.709  14.355
50960W        W24028   4.730  19.471   2.688
50961W        W24029  40.222  15.024   4.462
50962W        W24030   1.745  22.431  10.571
50963W        W24031  11.065  13.894  13.498
50964W        W24032  39.974  19.128  13.172
50965W        W24033   9.814  17.058   0.394
50966W        W24034  36.770  17.227  10.847
50967W        W24035  30.150  41.393   0.476
50968W        W24036  40.540  41.774  13.152
50969W        W24037  29.195  34.933   4.763
50970W        W24038  22.066  14.668   4.542
50971W        W24039  17.690  30.091  12.018
50972W        W24040  16.251  12.372  14.993
50973W        W24041  14.750  28.001  12.433
50974W        W24042  13.307  20.624  11.929
50975W        W24043  31.306  21.531  12.089
50976W        W24044   9.201   0.247   3.620
50977W        W24045   3.351   4.231  12.769
50978W        W24046  25.645   2.938  12.015
50979W        W24047  41.818  39.619  12.443
50980W        W24048   2.678   6.452  10.678
50981W        W24049  17.076  39.600   4.252
50982W        W24050   8.842  30.014   2.847
50983W        W24051  13.826  42.468   1.948
50984W        W24052  10.249  19.031  12.387
50985W        W24053  27.632   9.286  14.924
50986W        W24054  13.535  24.426  11.958
50987W        W24055   5.410  29.679  10.768
50988W        W24056  19.132  24.619   0.466
50989W        W24057  43.306  19.099  11.135
50990W        W24058  28.964  26.186   2.801
50991W        W24059   3.962  31.556  14.348
50992W        W24060   7.442  43.023   1.156
50993W        W24061  18.717   5.657  13.522
50994W        W24062  17.221  11.827   0.288
50995W        W24063  44.973   5.359  10.529
50996W        W24064   8.443   2.549   0.731
50997W        W24065  39.306  40.128  12.355
50998W        W24066  38.991  38.634  14.588
50999W        W24067  19.068  33.082   3.659
51000W        W24068   0.787  42.270  14.445
51001W        W24069  28.578  10.649  14.369
51002W        W24070  33.579   2.401  10.624
51003W        W24071   3.337  25.566  14.289
51004W        W24072   2.897  36.141  13.834
51005W        W24073   7.437  20.552  14.466
51006W        W24074  32.047  24.418  13.920
51007W        W24075  37.182  30.561  11.433
51008W        W24076   5.429   5.105   3.186
51009W        W24077  20.524   0.400  10.792
51010W        W24078  42.384  11.435   2.716
51011W        W24079   5.747  17.265   1.638
51012W        W24080   4.825  35.323  11.056
51013W        W24081  20.092  33.420   1.504
51014W        W24082  10.176   8.970   1.813
51015W        W24083  38.098  14.305  12.450
51016W        W24084   0.931   2.383   2.463
51017W        W24085  16.368  44.302   2.310
51018W        W24086  27.056  13.313  13.268
51019W        W24087   6.425  19.093   2.313
51020W        W24088  24.706  20.519   0.287
51021W        W24089  24.289  39.093   2.792
51022W        W24090  33.955  18.276  14.234
51023W        W24091  18.337  23.840   4.955
51024W        W24092   6.894  37.999   3.263
51025W        W24093  14.345  39.465   2.116
51026W        W24094   9.596  19.755  11.502
51027W        W24095  28.199  10.333  12.960
51028W        W24096   3.750  38.840   1.186
51029W        W24097  28.446   8.988  11.885
51030W        W24098   3.501  43.465  13.350
51031W        W24099   4.864  27.459   2.162
51032W        W24100  39.063  16.062  12.013
51033W        W24101  22.115   7.928  11.395
51034W        W24102  35.577  31.440  13.893
51035W        W24103  30.980  43.254  12.009
51036W        W24104  44.463  43.852  13.347
51037W        W24105  12.720  24.122  14.362
51038W        W24106  14.066  34.942   1.271
51039W        W24107  25.199  38.798   2.347
51040W        W24108  34.085  26.807   4.587
51041W        W24109  20.310  22.097  13.488
51042W        W24110  13.366  40.055  11.489
51043W        W24111   0.262  12.721   4.716
51044W        W24112  32.610   8.351  11.081
51045W        W24113  35.781  10.239   2.725
51046W        W24114   7.223  38.297  13.266
51047W        W24115  44.810   3.213   2.617
51048W        W24116  29.510  28.664   0.829
51049W        W24117  12.653  26.398   1.974
51050W        W24118   0.537  17.127   2.289
51051W        W24119   1.431   7.723   0.445
51052W        W24120   2.340  30.460  10.940
51053W        W24121  27.980  27.673  11.265
51054W        W24122  41.213  34.547   2.818
51055W        W24123  41.489   2.787  12.967
51056W        W24124  23.006  13.674   0.379
51057W        W24125  34.080   7.994  14.840
51058W        W24126  23.641   6.614  13.949
51059W        W24127  35.459  37.877  10.692
51060W        W24128  17.204  26.749   1.163
51061W        W24129  12.892  39.710   1.326
51062W        W24130  25.700  13.233  13.344
51063W        W24131  37.975  42.859  12.454
51064W        W24132  38.967  13.788  13.822
51065W        W24133   1.805  41.646   1.617
51066W        W24134  15.921   7.336  12.946
51067W        W24135   7.370  28.659   2.505
51068W        W24136  39.994  39.001   1.012
51069W        W24137  15.135  21.779  13.008
51070W        W24138  28.376  27.091  12.417
51071W        W24139  28.431  25.746   1.137
51072W        W24140  23.067   0.142  11.278
51073W        W24141  33.457  30.139   4.962
51074W        W24142  15.794  23.495   2.652
51075W        W24143  26.421  32.586  12.930
51076W        W24144   9.215   4.708   0.928
51077W        W24145  41.492  34.418  12.918
51078W        W24146  36.547  31.077  11.159
51079W        W24147  34.884  20.075  10.592
51080W        W24148  29.403  19.821  13.086
51081W        W24149   6.453  29.188   3.234
51082W        W24150  26.457  20.477  12.515
51083W        W24151  41.959  40.101  12.513
51084W        W24152  31.073   4.996  13.415
51085W        W24153  14.616  26.860   3.995
51086W        W24154  31.109   8.768  12.804
51087W        W24155   7.328  15.581   2.833
51088W        W24156   6.498   9.983   2.300
51089W        W24157  24.100  32.409  11.683
51090W        W24158  18.018  10.606  13.214
51091W        W24159  21.212  34.029  14.469
51092W        W24160  40.961  15.746   3.052
51093W        W24161   3.684  37.508  13.916
51094W        W24162  25.443   8.642   4.193
51095W        W24163  10.893  17.171  11.454
51096W        W24164   4.174  25.495  14.648
51097W        W24165  16.172  10.197   3.224
51098W        W24166  26.191  16.613   0.802
51099W        W24167   0.040  39.536   1.474
51100W        W24168  27.192  18.840  12.975
51101W        W24169  28.669  36.561   2.301
51102W        W24170   2.839   7.268  12.045
51103W        W24171  17.122  22.490   3.231
51104W        W24172  44.294  22.964  10.937
51105W        W24173  27.727  15.460   2.636
51106W        W24174  12.749  28.207   3.327
51107W        W24175  19.025  42.930   2.037
51108W        W24176   3.726   2.027  13.862
51109W        W24177  38.437   9.614  10.690
51110W        W24178  27.180  26.491  12.199
51111W        W24179   1.233  35.075  14.404
51112W        W24180  30.378   9.700  10.581
51113W        W24181   8.807   5.327  14.925
51114W        W24182   3.756  34.230  14.887
51115W        W24183  41.067   8.342   5.105
51116W        W24184  26.647  38.830   4.689
51117W        W24185  36.047   0.733  12.486
51118W        W24186  40.663  30.487  14.856
51119W        W24187  10.368  42.680   5.113
51120W        W24188  20.673  18.780  10.645
51121W        W24189   6.127  10.843   2.665
51122W        W24190  22.680   6.856   0.250
51123W        W24191  28.157  27.950  13.927
51124W        W24192  14.634  14.035   1.732
51125W        W24193  22.442  31.714  12.484
51126W        W24194   2.545   6.416   3.720
51127W        W24195  13.843  25.632  14.758
51128W        W24196  29.929  38.082   4.615
51129W        W24197  37.860  17.174  11.567
51130W        W24198  37.775  23.818  10.970
51131W        W24199  12.877  31.021  11.583
51132W        W24200  29.948  35.582   4.083
51133W        W24201   7.602  30.985  13.965
51134W        W24202  10.601   4.139  12.032
51135W        W24203  22.259  28.257   2.891
51136W        W24204  13.715  23.989   2.846
51137W        W24205   2.266  38.409  13.980
51138W        W24206  42.238  38.256  12.523
51139W        W24207  38.060  30.075  10.517
51140W        W24208  34.113   5.742  13.851
51141W        W24209   3.412  17.643  14.241
51142W        W24210  29.097  12.091   1.319
51143W        W24211   8.809   9.954  14.807
51144W        W24212   3.394  27.570   0.350
51145W        W24213  39.327  27.182   1.145
51146W        W24214  19.205   5.919  11.399
51147W        W24215  21.751  26.497   1.754
51148W        W24216   8.244   7.171   4.539
51149W        W24217   1.291   9.781  10.899
51150W        W24218  24.069  29.997  14.191
51151W        W24219  26.622  34.695  14.837
51152W        W24220   0.476  21.544  10.665
51153W        W24221   0.874  39.336  10.738
51154W        W24222  14.615  17.267  14.837
51155W        W24223  19.864  21.226   3.656
51156W        W24224  40.505  30.596   1.286
51157W        W24225   9.682  19.138   0.145
51158W        W24226  28.123   5.019   4.973
51159W        W24227  41.885  44.196   4.300
51160W        W24228  26.780  40.545   4.448
51161W        W24229   9.828   5.396  12.089
51162W        W24230  10.331  28.740  12.954
51163W        W24231  28.162  19.814  13.069
51164W        W24232   8.439  12.337  13.874
51165W        W24233  15.138  33.882  14.811
51166W        W24234  37.077  31.218  13.004
51167W        W24235  30.598  14.319  10.763
51168W        W24236  38.300   7.854  14.475
51169W        W24237  36.006   5.678  10.742
51170W        W24238  25.859   6.783   0.712
51171W        W24239  24.698   9.296  11.935
51172W        W24240  14.314  31.935  12.065
51173W        W24241  12.113  22.156   0.296
51174W        W24242  18.781  34.527  11.298
51175W        W24243   7.976   3.921   4.765
51176W        W24244  42.531  43.726   0.292
51177W        W24245  27.015   3.541   2.266
51178W        W24246  14.282   2.473  13.896
51179W        W24247  38.239  24.954  12.573
51180W        W24248  16.129  26.914   3.627
51181W        W24249   2.716  41.519  13.882
51182W        W24250  25.220   6.337   1.721
51183W        W24251  21.578  23.015  13.919
51184W        W24252  22.516  15.854  14.248
51185W        W24253  20.524  39.464  13.972
51186W        W24254  15.662   3.196   3.835
51187W        W24255   7.172  43.380   2.855
51188W        W24256  39.447   2.934  12.321
51189W        W24257   7.862   2.242  12.899
51190W        W24258   7.029   0.940  13.904
51191W        W24259  21.043  33.104   1.315
51192W        W24260  38.972   5.150   4.507
51193W        W24261  14.437  27.751  11.620
51194W        W24262   9.891   6.369   1.820
51195W        W24263  21.191  17.011  11.531
51196W        W24264  31.878   2.518   4.502
51197W        W24265  35.669  42.985   0.020
51198W        W24266  29.931   3.882  11.106
51199W        W24267  22.497   0.313  14.168
51200W        W24268  34.939  16.807   1.280
51201W        W24269  11.769   4.292  14.863
51202W        W24270  25.566  24.009   4.207
51203W        W24271   9.839  16.058  11.762
51204W        W24272  20.107   7.931   3.216
51205W        W24273   2.816  39.032  14.600
51206W        W24274  27.963   0.951   3.696
51207W        W24275  23.740  14.847   4.157
51208W        W24276   2.662  11.098  11.005
51209W        W24277   6.172  12.815  10.584
51210W        W24278   9.090   8.452   4.087
51211W        W24279  43.944  16.150   1.424
51212W        W24280  15.888  17.473  12.591
51213W        W24281   1.826  39.491  10.906
51214W        W24282  40.668  34.162  14.058
51215W        W24283   3.971  20.428  12.327
51216W        W24284  38.755  35.316   3.364
51217W        W24285  27.249  43.085  11.579
51218W        W24286  42.301  17.309  13.013
51219W        W24287  14.022  16.770   4.108
51220W        W24288  31.859   5.919   3.287
51221W        W24289  13.441  41.963  11.554
51222W        W24290  11.186  20.950  13.103
51223W        W24291  41.483   4.402  14.395
51224W        W24292  40.913   3.388   1.182
51225W        W24293  19.764  26.066   4.873
51226W        W24294   9.443  21.617  13.419
51227W        W24295  27.001  29.692  11.547
51228W        W24296  37.775  20.690   0.950
51229W        W24297  24.079   5.891   3.104
51230W        W24298   3.785  44.382   3.374
51231W        W24299  43.164  39.493  14.811
51232W        W24300  44.466   3.295  13.872
51233W        W24301   8.634  11.270  10.781
51234W        W24302  21.048  16.029   3.183
51235W        W24303  24.367  17.893   2.793
51236W        W24304  20.045   8.230  13.005
51237W        W24305  14.310  31.585   1.969
51238W        W24306   9.645   7.172   1.387
51239W        W24307  30.082  10.696   2.640
51240W        W24308   0.553  26.954  11.986
51241W        W24309  18.810  14.835  12.546
51242W        W24310  34.426  17.248  14.990
51243W        W24311  19.097  10.340   2.404
51244W        W24312  43.912   1.858  10.512
51245W        W24313  35.686   9.288  11.550
51246W        W24314   1.094  26.097  11.119
51247W        W24315  40.325  27.141   0.445
51248W        W24316  30.744  12.428   4.109
51249W        W24317  28.155  19.183  12.475
51250W        W24318   7.948   3.422  12.626
51251W        W24319  12.505   7.249   2.276
51252W        W24320  41.032  12.902  13.987
51253W        W24321  41.858  15.200  12.043
51254W        W24322  11.587  17.588   4.355
51255W        W24323   8.740  26.848  10.297
51256W        W24324  10.910  32.895  13.269
51257W        W24325  14.587  13.252   2.633
51258W        W24326  15.295  39.537   3.778
51259W        W24327  40.318  19.743  10.481
51260W        W24328  38.010   6.821  12.764
51261W        W24329  38.008   4.480   4.524
51262W        W24330  42.639  12.664  12.759
51263W        W24331  18.589  35.585  14.967
51264W        W24332  43.025  14.469   1.893
51265W        W24333  20.325  43.284  11.602
51266W        W24334   9.578   3.198   3.566
51267W        W24335  16.222  32.891  14.624
51268W        W24336  14.201  24.285   4.631
51269W        W24337  31.563  31.206   1.933
51270W        W24338  34.580  10.289  11.734
51271W        W24339   0.770  30.760  10.686
51272W        W24340  23.027  42.865  10.357
51273W        W24341  25.564  41.279   1.881
51274W        W24342   9.098  43.771  14.609
51275W        W24343  12.167  12.123   1.765
51276W        W24344   4.898  17.272  12.945
51277W        W24345  30.067  26.573  14.017
51278W        W24346  22.732  22.981   4.436
51279W        W24347  15.580   0.997  11.040
51280W        W24348  21.505   7.270  13.685
51281W        W24349  38.858  19.810   3.224
51282W        W24350  25.704  28.358   1.684
51283W        W24351  37.883  40.284  12.932
51284W        W24352  23.629  24.629   4.626
51285W        W24353  34.429  18.643   3.184
51286W        W24354  40.550  11.630  11.029
51287W        W24355  19.720  14.344  12.347
51288W        W24356  31.622  12.584  11.528
51289W        W24357  36.947  23.660   0.568
51290W        W24358  25.735  42.547   3.205
51291W        W24359  43.442  14.146  14.400
51292W        W24360  32.155  25.713  13.403
51293W        W24361   3.266  32.189   4.320
51294W        W24362  44.493  31.625  12.952
51295W        W24363  36.393  39.517   3.067
51296W        W24364  25.077  37.480   1.400
51297W        W24365  23.945  18.725  10.060
51298W        W24366  21.498  41.004   4.507
51299W        W24367  30.816  30.024  13.439
51300W        W24368  25.773  12.726  11.354
51301W        W24369   9.027  30.314   5.262
51302W        W24370  19.489  29.840  14.895
51303W        W24371  38.008  12.572  13.053
51304W        W24372  12.062   3.435   1.244
51305W        W24373   4.353  15.553   4.422
51306W        W24374  29.052  41.061  14.092
51307W        W24375  28.553  15.590   2.303
51308W        W24376   8.804  12.696   4.664
51309W        W24377  43.517  26.140   0.876
51310W        W24378  10.838  36.864   4.787
51311W        W24379  10.439  24.326   5.162
51312W        W24380  17.255   4.787  10.449
51313W        W24381  23.661  24.399  10.884
51314W        W24382   9.916  33.008  13.997
51315W        W24383  11.233  43.239   0.037
51316W        W24384  12.911  44.472  10.666
51317W        W24385   2.672  28.015   3.152
51318W        W24386  20.046  17.704  12.110
51319W        W24387   6.196  35.084   4.604
51320W        W24388   7.281  33.855  11.017
51321W        W24389   1.944  14.127  14.746
51322W        W24390  35.045  22.281   2.783
51323W        W24391   5.412  32.797  12.912
51324W        W24392  29.989  22.847   1.264
51325W        W24393  10.367  32.465  10.837
51326W        W24394  35.565  11.829  14.754
51327W        W24395  23.587   5.170  11.093
51328W        W24396  30.485  16.988   1.591
51329W        W24397   3.756  16.215  14.963
51330W        W24398  16.730  19.979   1.288
51331W        W24399  43.488  14.759   4.227
51332W        W24400  13.069  11.763  10.267
51333W        W24401  28.095  17.132  10.291
51334W        W24402  23.987  16.658  11.493
51335W        W24403  19.681   0.749  10.734
51336W        W24404  39.411  33.933   0.733
51337W        W24405  36.403   8.172  12.522
51338W        W24406   7.277  41.251   1.005
51339W        W24407  20.768  39.765  13.243
51340W        W24408  27.211  19.769   3.808
51341W        W24409  15.771  40.418  14.316
51342W        W24410  20.176  37.667   2.286
51343W        W24411  25.025  32.961   4.060
51344W        W24412  26.909  29.595   1.834
51345W        W24413  21.082   1.548  12.065
51346W        W24414   5.979  24.175  11.213
51347W        W24415  29.637  10.137  10.453
51348W        W24416  11.831  13.191  10.869
51349W        W24417  44.386  27.023   2.876
51350W        W24418  40.438  15.261  11.176
51351W        W24419  32.473  34.408  10.835
51352W        W24420  43.926  13.678   3.884
51353W        W24421  36.908   3.245   3.369
51354W        W24422  13.086   0.774   3.751
51355W        W24423   4.325  26.188   0.772
51356W        W24424  20.728   7.413   0.380
51357W        W24425  36.586  37.841   4.929
51358W        W24426   4.145  44.498   2.585
51359W        W24427  42.572  30.504  14.995
51360W        W24428   2.935  35.794  14.808
51361W        W24429  42.235  35.720   3.142
51362W        W24430  33.334  20.241   1.478
51363W        W24431  12.786   7.931  14.798
51364W        W24432  44.803  44.304  14.492
51365W        W24433  17.803  18.259  13.506
51366W        W24434  16.552   3.006   2.470
51367W        W24435  41.963  30.111   4.564
51368W        W24436   5.426  12.787   4.259
51369W        W24437   2.399  18.969  10.672
51370W        W24438  23.073  10.737   3.754
51371W        W24439  27.173   4.197   3.707
51372W        W24440  19.885  29.085  14.473
51373W        W24441  22.206   4.209   1.316
51374W        W24442   8.682   4.287  14.475
51375W        W24443  19.007  25.013  14.955
51376W        W24444  20.114  20.043  13.236
51377W        W24445   6.738   8.229   4.200
51378W        W24446  28.625  29.519   4.448
51379W        W24447  28.675  41.276  13.422
51380W        W24448  14.090  39.487  14.810
51381W        W24449  16.566  38.868   4.790
51382W        W24450  21.134  34.846   2.616
51383W        W24451  14.828  36.640  10.449
51384W        W24452  11.723  40.740  14.715
51385W        W24453  17.335  16.865   3.792
51386W        W24454  31.758  39.068   4.976
51387W        W24455  20.828  13.525  11.808
51388W        W24456  12.762  22.603   1.970
51389W        W24457  33.954  20.940   5.013
51390W        W24458   1.987  18.685   3.711
51391W        W24459  40.141  13.913  11.541
51392W        W24460   3.851   7.294  13.495
51393W        W24461  43.711   9.065  13.444
51394W        W24462  29.872  12.741  14.482
51395W        W24463  14.903  35.363  14.811
51396W        W24464  14.141  12.272   2.893
51397W        W24465  42.779  17.034  11.585
51398W        W24466   3.228   4.975   4.669
51399W        W24467  16.426   4.924   0.826
51400W        W24468  27.025   3.358  14.807
51401W        W24469   2.428  38.640  12.095
51402W        W24470   9.843  10.376  11.062
51403W        W24471  22.549  38.852  14.939
51404W        W24472  32.419   8.610  12.949
51405W        W24473   5.392  43.316  10.670
51406W        W24474   3.681  16.341  13.865
51407W        W24475  44.372  18.152   0.462
51408W        W24476  44.263  28.901  11.195
51409W        W24477  44.812  27.683   1.385
51410W        W24478   1.955  36.089   3.324
51411W        W24479  12.142   4.282   4.071
51412W        W24480  33.021  36.370  12.579
51413W        W24481  27.593   0.574  11.574
51414W        W24482  16.871  28.139   2.835
51415W        W24483  39.317  42.488  10.698
51416W        W24484   3.622  11.696  12.535
51417W        W24485   6.925  42.805   0.453
51418W        W24486   9.890   1.378  12.820
51419W        W24487   1.463  20.691   0.047
51420W        W24488  20.293  31.180  14.203
51421W        W24489  38.535  12.287   4.521
51422W        W24490  10.178   3.255   1.344
51423W        W24491  17.971  12.653   1.819
51424W        W24492  13.840  23.458   4.892
51425W        W24493  33.109  33.861  11.076
51426W        W24494   7.696  11.232   1.268
51427W        W24495  16.164  27.231   4.928
51428W        W24496   8.376  30.708   3.236
51429W        W24497  29.291   6.221   0.770
51430W        W24498  42.307  24.224   0.496
51431W        W24499  31.583  19.591  14.808
51432W        W24500  18.538  22.511   0.404
51433W        W24501  31.439  14.728  12.466
51434W        W24502  19.615  16.851   3.670
51435W        W24503  26.437  30.606  11.597
51436W        W24504  17.393   1.031  12.832
51437W        W24505  29.642  32.024   1.640
51438W        W24506  43.442  28.889   0.943
51439W        W24507  26.577  41.358   1.872
51440W        W24508   8.613  36.085   1.781
51441W        W24509  35.472  36.552  11.218
51442W        W24510  25.225  31.411   4.293
51443W        W24511  24.007  25.217   3.451
51444W        W24512   9.654  35.451  10.923
51445W        W24513   3.005   9.682   0.189
51446W        W24514  17.579   3.546  11.575
51447W        W24515  13.546  12.556  11.268
51448W        W24516   7.393   0.027   0.817
51449W        W24517  18.808   7.403  12.018
51450W        W24518  27.122  30.383   1.464
51451W        W24519  38.601  34.443   4.227
51452W        W24520   9.345  18.709  14.079
51453W        W24521   8.822  41.327   3.665
51454W        W24522  29.239  36.708   3.680
51455W        W24523  36.663  30.046   2.711
51456W        W24524  38.449  36.572   2.194
51457W        W24525  40.701  16.273  13.992
51458W        W24526   9.216  42.526  14.929
51459W        W24527  24.021  16.869  12.778
51460W        W24528   1.798  42.527  11.222
51461W        W24529  17.033  43.216   2.316
51462W        W24530  11.170   2.898   0.967
51463W        W24531  28.599  13.305   0.868
51464W        W24532  25.808  10.378  13.850
51465W        W24533  35.895  19.533  13.947
51466W        W24534  31.486  17.140   3.208
51467W        W24535  34.126  21.699  13.424
51468W        W24536  35.570  40.509   0.405
51469W        W24537  25.686   7.149   4.997
51470W        W24538  18.527   2.763   2.794
51471W        W24539  23.437   3.239  12.836
51472W        W24540   5.853  26.052   1.896
51473W        W24541  33.761  32.158   4.101
51474W        W24542  30.735  13.655   1.437
51475W        W24543   8.375  16.167  11.334
51476W        W24544  36.044  27.986   0.244
51477W        W24545  28.441  29.544  13.870
51478W        W24546  22.411  30.589   5.076
51479W        W24547   8.208  38.957  11.841
51480W        W24548  40.110  24.739   1.388
51481W        W24549  22.469   2.226  10.562
51482W        W24550  12.724  22.462  13.400
51483W        W24551  18.655  27.484  13.800
51484W        W24552  13.300  30.163  11.530
51485W        W24553   7.450  25.151   1.940
51486W        W24554  37.567  27.483   2.289
51487W        W24555  30.871   9.223   3.613
51488W        W24556  39.354  11.248   1.421
51489W        W24557   4.081  12.307   1.784
51490W        W24558  23.969  39.069  11.422
51491W        W24559  28.608  27.075   1.208
51492W        W24560  27.420  26.569   4.137
51493W        W24561  30.443   6.465  14.463
51494W        W24562  28.109   2.002  12.534
51495W        W24563  13.232   7.680  14.614
51496W        W24564  14.106  12.557  12.127
51497W        W24565  10.108   8.283   4.185
51498W        W24566  36.584  38.667   0.776
51499W        W24567  44.264  41.859  14.785
51500W        W24568  10.253  32.273   3.734
51501W        W24569  11.873  41.459   0.463
51502W        W24570   3.760   5.246   0.128
51503W        W24571  37.297   2.456   4.209
51504W        W24572  30.852  16.223  11.465
51505W        W24573  11.776   1.094   3.845
51506W        W24574  16.392   2.149  13.053
51507W        W24575  36.974  27.101   2.586
51508W        W24576   9.767  30.365   1.244
51509W        W24577  44.560  42.424  13.495
51510W        W24578  15.081  20.599   4.221
51511W        W24579  21.996  31.865   0.376
51512W        W24580  13.903   5.711   3.816
51513W        W24581  14.908   5.362  11.078
51514W        W24582  19.010   1.554  14.600
51515W        W24583   7.003   2.811   3.260
51516W        W24584  26.370   3.559   1.388
51517W        W24585  15.081  14.045   3.347
51518W        W24586  44.186  18.641   5.006
51519W        W24587  41.434  43.947   1.195
51520W        W24588   6.342  24.060   2.256
51521W        W24589  20.079  15.387  13.069
51522W        W24590  15.348  28.204   1.037
51523W        W24591  41.908   0.543   0.373
51524W        W24592  43.233  17.683   0.287
51525W        W24593   7.557   1.085  14.545
51526W        W24594  33.980  44.594  13.390
51527W        W24595   4.692  42.746  10.999
51528W        W24596  19.225   6.673   0.374
51529W        W24597  44.866   0.478  11.187
51530W        W24598  13.168  36.877  11.220
51531W        W24599  39.237   0.261   2.822
51532W        W24600  31.453   6.894   0.596
51533W        W24601  24.639   7.590   4.024
51534W        W24602  35.875  23.248   0.860
51535W        W24603  25.170  23.979   1.304
51536W        W24604   0.671  23.593   2.368
51537W        W24605   2.386  20.710   4.166
51538W        W24606  38.049  43.418   0.521
51539W        W24607  19.765  10.289   0.737
51540W        W24608   7.203  27.685  13.997
51541W        W24609  36.607  24.503  11.589
51542W        W24610  43.356  34.620   3.173
51543W        W24611  28.393  27.084   2.748
51544W        W24612   5.354  24.050  13.533
51545W        W24613  30.919  34.644   4.673
51546W        W24614  17.659  30.624   0.735
51547W        W24615  31.236  20.478   3.161
51548W        W24616  20.813  16.217   2.753
51549W        W24617  21.540  24.250   4.168
51550W        W24618  19.775  11.713  12.813
51551W        W24619   0.968  41.129   3.190
51552W        W24620  41.697  22.495   1.949
51553W        W24621  25.610  17.099   1.337
51554W        W24622  41.569  30.812   0.002
51555W        W24623  10.407   1.426   4.149
51556W        W24624  38.313  33.432   3.143
51557W        W24625   9.888   1.861  13.911
51558W        W24626   8.600  26.802   2.296
51559W        W24627  38.775  38.560   5.019
51560W        W24628  19.322  23.588   1.386
51561W        W24629   1.739   5.131  14.610
51562W        W24630  37.863  25.550   4.153
51563W        W24631  25.092  29.614   4.601
51564W        W24632   5.960  42.357  12.056
51565W        W24633  26.017  31.387  10.472
51566W        W24634   9.762   5.848  12.305
51567W        W24635  20.541  22.956   2.407
51568W        W24636  14.772   6.458   3.183
51569W        W24637  37.601  38.037   3.717
51570W        W24638  31.921  41.624  13.358
51571W        W24639  11.193  21.607  11.865
51572W        W24640   3.258  27.461  14.019
51573W        W24641   6.617   8.326   3.711
51574W        W24642  37.794  14.923   2.838
51575W        W24643   6.644  24.700  13.699
51576W        W24644  11.228  13.374   2.762
51577W        W24645  32.187  29.108  13.854
51578W        W24646  43.932  15.253   2.270
51579W        W24647  34.019  44.419   1.813
51580W        W24648   7.864  21.819   3.648
51581W        W24649  34.912  13.096  12.046
51582W        W24650   9.231  41.266  10.408
51583W        W24651   5.428   9.047  10.346
51584W        W24652  25.958   7.906   3.746
51585W        W24653   7.169  19.712   3.289
51586W        W24654  38.279  20.706  13.160
51587W        W24655  39.805  38.504  11.141
51588W        W24656   2.332  24.167  10.999
51589W        W24657  40.011  36.149  13.674
51590W        W24658  15.217   6.718   1.221
51591W        W24659  12.039  31.424   2.376
51592W        W24660   8.760  25.133   3.659
51593W        W24661   9.130   7.690  13.007
51594W        W24662  29.701  32.104  13.017
51595W        W24663  22.526  28.660  10.137
51596W        W24664  22.744  19.686  13.486
51597W        W24665  29.459  44.788   3.853
51598W        W24666  25.214  43.472  11.117
51599W        W24667  29.844  11.124   2.822
51600W        W24668  22.711  43.137  10.687
51601W        W24669  10.181  35.152  12.913
51602W        W24670  28.975   7.914   2.231
51603W        W24671  29.908   5.789   0.053
51604W        W24672   9.436  27.086  14.603
51605W        W24673  23.948  22.080   0.240
51606W        W24674  33.082  24.130   2.400
51607W        W24675  33.723  34.473  11.650
51608W        W24676  41.468   9.913  11.123
51609W        W24677  20.757  24.598   4.778
51610W        W24678  29.620   2.270  11.627
51611W        W24679  11.103  11.055  14.901
51612W        W24680  26.519  19.148  10.896
51613W        W24681  39.036  29.039  11.464
51614W        W24682  37.630   8.768  11.152
51615W        W24683  34.374  37.190   1.700
51616W        W24684  15.836  36.968  11.675
51617W        W24685  32.213  14.257  12.577
51618W        W24686   8.410  43.610   2.841
51619W        W24687   6.856  39.155   1.640
51620W        W24688  37.779  33.624  11.582
51621W        W24689  17.174  13.686   2.125
51622W        W24690   7.881  37.455   1.020
51623W        W24691   9.167   6.912  14.787
51624W        W24692  31.098  34.495   3.284
51625W        W24693   4.201   0.867   1.856
51626W        W24694   0.363  41.097  13.557
51627W        W24695  28.541  12.654  11.247
51628W        W24696   8.719  26.027   0.454
51629W        W24697   7.303  29.831  11.974
51630W        W24698  41.596  44.871  12.049
51631W        W24699   1.948  38.850   4.065
51632W        W24700   5.527  18.238   3.805
51633W        W24701   7.719  39.316   0.422
51634W        W24702  15.532   0.215   3.755
51635W        W24703  42.813  18.974  12.545
51636W        W24704   1.879  26.739  12.940
51637W        W24705   8.654  41.435   2.114
51638W        W24706  21.291  30.668   1.598
51639W        W24707  44.184  21.120  12.640
51640W        W24708  29.964  41.029  13.929
51641W        W24709  40.249  35.369   3.180
51642W        W24710  39.209   8.004  13.651
51643W        W24711  26.611  33.963  12.493
51644W        W24712  26.186  20.173  12.218
51645W        W24713  29.870   4.238  12.155
51646W        W24714  33.885  28.112   4.196
51647W        W24715  26.588   1.567   1.344
51648W        W24716  10.868  38.394   3.583
51649W        W24717  29.542  25.994   1.742
51650W        W24718  15.651   2.239   0.253
51651W        W24719  38.655  19.243   4.668
51652W        W24720  16.552  25.996   2.700
51653W        W24721  34.096  15.568  13.391
51654W        W24722  16.203  41.337   3.526
51655W        W24723  23.145   0.928  12.556
51656W        W24724  37.397  19.275  13.857
51657W        W24725   7.609  34.130  14.865
51658W        W24726  41.595  40.402  11.357
51659W        W24727  42.938  12.128   1.320
51660W        W24728  37.215  34.716  10.416
51661W        W24729  32.557  40.846  13.451
51662W        W24730   5.318   6.292  11.973
51663W        W24731  29.492   0.520   2.716
51664W        W24732  32.957  26.249  13.479
51665W        W24733  15.519  33.606   0.952
51666W        W24734  35.045  24.136  14.626
51667W        W24735  23.007  11.200   4.049
51668W        W24736  36.414  13.730  10.672
51669W        W24737   4.177  41.886  13.059
51670W        W24738  11.623  39.424   5.030
51671W        W24739  15.401  22.217  12.994
51672W        W24740  23.669  22.871   0.547
51673W        W24741   2.009   2.290   4.542
51674W        W24742  15.872  23.062   4.198
51675W        W24743  42.496  14.423   1.247
51676W        W24744  15.592  13.891   0.050
51677W        W24745  21.651  13.765  13.361
51678W        W24746  39.475  35.557  14.961
51679W        W24747   4.114  13.831  11.969
51680W        W24748  10.275  14.564   2.891
51681W        W24749   5.473  19.570  11.562
51682W        W24750  33.884  30.679  10.996
51683W        W24751  23.018  41.323   3.199
51684W        W24752  35.576  11.581   4.297
51685W        W24753  24.126  20.073   3.266
51686W        W24754  40.097  12.773   1.990
51687W        W24755   8.225  27.372  14.981
51688W        W24756  15.138  20.231   3.197
51689W        W24757  11.298  29.072   2.658
51690W        W24758  19.452  37.988  10.772
51691W        W24759  30.222  22.175  11.595
51692W        W24760  43.053  27.490  14.877
51693W        W24761  40.056  12.753   4.384
51694W        W24762   0.928  17.322   0.312
51695W        W24763   6.819  40.295  12.919
51696W        W24764   3.914  25.068   0.762
51697W        W24765   3.755   3.284  10.624
51698W        W24766  15.116  22.577  13.985
51699W        W24767  31.463   8.083   1.484
51700W        W24768  22.782  42.748   4.677
51701W        W24769  40.820  18.533  13.851
51702W        W24770  14.652  35.181   4.291
51703W        W24771  31.537  34.029  10.851
51704W        W24772  36.883   7.160   4.911
51705W        W24773  38.977   1.369   0.369
51706W        W24774  27.612  31.761  14.873
51707W        W24775  43.021   0.018   0.219
51708W        W24776  16.327  20.576  10.766
51709W        W24777  16.902   5.424   0.341
51710W        W24778  30.177   4.325   4.736
51711W        W24779  11.901   3.312   4.619
51712W        W24780  21.584  21.948   2.322
51713W        W24781  17.344  44.595   3.509
51714W        W24782  11.338   2.555  11.117
51715W        W24783  39.334  40.873   0.769
51716W        W24784   4.453  38.639  11.105
51717W        W24785  19.235  25.201   3.319
51718W        W24786  33.596  14.093   4.725
51719W        W24787   5.934   4.924   3.372
51720W        W24788  18.226  16.364   3.470
51721W        W24789  18.006   8.582  14.867
51722W        W24790  14.115  30.701   4.668
51723W        W24791  42.396  20.635   4.686
51724W        W24792  25.838   8.195  13.278
51725W        W24793  28.302  16.312  13.443
51726W        W24794  14.360  37.451   1.430
51727W        W24795  44.403   9.265  11.000
51728W        W24796   9.725  18.150   1.294
51729W        W24797   4.131  16.959  11.206
51730W        W24798  40.943  33.985  14.479
51731W        W24799  23.773  27.572   2.617
51732W        W24800  25.167  11.298  14.723
51733W        W24801   8.076   6.232  12.044
51734W        W24802  16.134  22.647   4.152
51735W        W24803   0.543  41.850  14.271
51736W        W24804  11.555  36.423   2.648
51737W        W24805  14.896  41.802  12.525
51738W        W24806  15.773  17.563   1.200
51739W        W24807  35.895   4.403  13.461
51740W        W24808  12.353  12.290   0.419
51741W        W24809  11.808   1.814   1.869
51742W        W24810  40.002  15.863  10.951
51743W        W24811  43.553  21.329  14.301
51744W        W24812  22.732  37.922   4.741
51745W        W24813   4.463  26.261   1.729
51746W        W24814  17.026  35.238   3.578
51747W        W24815   7.160  29.405  11.169
51748W        W24816  22.108   5.690  13.889
51749W        W24817  41.348   7.997   0.502
51750W        W24818  20.943  13.040   2.371
51751W        W24819   6.168  22.106   1.770
51752W        W24820  12.216  25.754  12.904
51753W        W24821  24.413   2.021  10.982
51754W        W24822  40.894  38.096  12.900
51755W        W24823   8.463  10.951  12.494
51756W        W24824  28.214   5.980   2.484
51757W        W24825   8.803  41.884  10.187
51758W        W24826   4.086  30.429   0.060
51759W        W24827  40.502  41.071   3.595
51760W        W24828  25.594  32.718  13.041
51761W        W24829  34.613  32.057   9.802
51762W        W24830  35.014  30.663  10.180
51763W        W24831  18.967  38.021  11.570
51764W        W24832  29.665  31.982   0.233
51765W        W24833  20.198  12.893  13.941
51766W        W24834  22.702  23.492   4.614
51767W        W24835  24.992   3.103   1.569
51768W        W24836  34.421   1.338   3.424
51769W        W24837  37.489  31.220   4.523
51770W        W24838  25.425  16.332   2.236
51771W        W24839  39.171   3.301   0.296
51772W        W24840  29.056  11.548   4.813
51773W        W24841  12.331  13.223   2.252
51774W        W24842  20.688   8.263  10.918
51775W        W24843   7.754  26.487  10.016
51776W        W24844  32.023  21.263  15.000
51777W        W24845  18.563   7.469  11.575
51778W        W24846   5.617  16.457  12.889
51779W        W24847  26.653  30.568   2.773
51780W        W24848  34.371  25.524  14.370
51781W        W24849  23.988  31.505   3.768
51782W        W24850  13.930  22.434   2.422
51783W        W24851  32.849  28.121   0.341
51784W        W24852  26.239   8.432   3.274
51785W        W24853  43.816  44.768   4.349
51786W        W24854  31.857  11.143   3.094
51787W        W24855   6.652  38.868  12.798
51788W        W24856  40.420  25.732  11.898
51789W        W24857  42.325  44.447   0.753
51790W        W24858   8.910  13.603   1.419
51791W        W24859   1.382  27.642  10.664
51792W        W24860   7.488  27.887  11.879
51793W        W24861   6.268  14.810  12.559
51794W        W24862  22.044  39.844   2.742
51795W        W24863  42.917   8.674   1.988
51796W        W24864  29.051   6.562   1.934
51797W        W24865  39.409  38.664  12.466
51798W        W24866  23.581  21.966  14.346
51799W        W24867  29.453  20.346  14.286
51800W        W24868  18.111   2.916   4.374
51801W        W24869  24.254   9.860  11.205
51802W        W24870   0.018   3.726  13.097
51803W        W24871  43.350  37.779   4.331
51804W        W24872  24.095  10.184  14.571
51805W        W24873  39.023   3.210   0.798
51806W        W24874  32.119  27.522   4.275
51807W        W24875  32.704  13.224  12.512
51808W        W24876   7.412  44.569  10.590
51809W        W24877   0.306   3.358  11.024
51810W        W24878  17.657  33.459   3.385
51811W        W24879  43.522  16.222   2.786
51812W        W24880  35.827  27.926   3.270
51813W        W24881  25.816  16.862   1.758
51814W        W24882  31.523  24.769   3.952
51815W        W24883   0.035  43.036   4.243
51816W        W24884  14.371  20.315   1.229
51817W        W24885  41.298  33.410   3.067
51818W        W24886  15.106  18.686  12.936
51819W        W24887  21.425  18.090   4.558
51820W        W24888   0.411  31.457  14.533
51821W        W24889  36.492  16.374   3.364
51822W        W24890  16.562  17.940  12.981
51823W        W24891  35.882   5.454  12.049
51824W        W24892  40.495  44.521  12.584
51825W        W24893  18.634  29.247  14.022
51826W        W24894   4.012  19.238  10.504
51827W        W24895  22.978  29.598   3.803
51828W        W24896  16.227  40.547  11.212
51829W        W24897  21.952  18.058   4.696
51830W        W24898  21.068  42.774   3.841
51831W        W24899  37.474  21.105   0.980
51832W        W24900  19.547  23.259  13.318
51833W        W24901   5.815  14.676   1.840
51834W        W24902  38.549  31.856   3.708
51835W        W24903   5.951   1.125  10.332
51836W        W24904  17.028  10.282   0.463
51837W        W24905   6.315  22.557  10.419
51838W        W24906   2.180   9.521   4.822
51839W        W24907  36.169  40.294   3.809
51840W        W24908   7.585  22.754  11.480
51841W        W24909  28.755   0.034   3.228
51842W        W24910  34.244  21.850  14.379
51843W        W24911  33.410   7.376  11.613
51844W        W24912  19.189  30.964   2.303
51845W        W24913  32.728   3.433  11.152
51846W        W24914  12.847   2.431  11.199
51847W        W24915  22.322  16.990  11.101
51848W        W24916   0.053   1.799   1.905
51849W        W24917  35.694   6.601   0.545
51850W        W24918  32.172  41.838  13.843
51851W        W24919  37.451  20.270   1.098
51852W        W24920   6.935   5.361  10.507
51853W        W24921  14.621  20.580  12.635
51854W        W24922  31.968  43.386  11.672
51855W        W24923  16.073   8.929  14.686
51856W        W24924  27.507  41.304  10.014
51857W        W24925   4.425   3.877  13.762
51858W        W24926  43.427  38.732  10.732
51859W        W24927  43.819   9.392  13.863
51860W        W24928   5.744  15.418   1.345
51861W        W24929  44.719  18.786  11.122
51862W        W24930  34.959   7.762   4.572
51863W        W24931  12.601  26.104  12.196
51864W        W24932   9.064  36.008   3.841
51865W        W24933   9.862  24.745  12.941
51866W        W24934   2.211  37.209   1.387
51867W        W24935  16.706   0.171   4.558
51868W        W24936  27.076  41.522   4.032
51869W        W24937  36.412  13.605   0.762
51870W        W24938  25.024   1.973  12.460
51871W        W24939   9.447  32.116   2.522
51872W        W24940   9.253   8.707   4.514
51873W        W24941  37.725  23.952   3.241
51874W        W24942  37.156  21.264   2.191
51875W        W24943   7.692  40.910  11.963
51876W        W24944   0.287  37.887  13.631
51877W        W24945  12.687  41.044   3.231
51878W        W24946  15.676  44.760   0.531
51879W        W24947   2.934   5.976  10.687
51880W        W24948  31.555  28.426  12.826
51881W        W24949   7.025  31.584   4.115
51882W        W24950  25.256  37.432   3.283
51883W        W24951  16.641  33.352   3.654
51884W        W24952   3.198   5.663  11.603
51885W        W24953  26.445   3.031  13.980
51886W        W24954  21.603  24.269   1.299
51887W        W24955  41.352  21.110   0.921
51888W        W24956  13.211  18.730  14.952
51889W        W24957   9.059  36.824  11.623
51890W        W24958  28.611  16.196   3.301
51891W        W24959  39.066   5.887   1.095
51892W        W24960  27.087  33.204   2.608
51893W        W24961   9.940  27.941  13.433
51894W        W24962   3.308  40.526   4.563
51895W        W24963  36.888   0.451  12.353
51896W        W24964  36.440   4.983   2.729
51897W        W24965   4.008   1.673   3.218
51898W        W24966  43.671   7.004   2.361
51899W        W24967  15.073  40.797   2.845
51900W        W24968   0.305   6.450   3.296
51901W        W24969  15.594  18.678  10.716
51902W        W24970  26.773  25.264  13.206
51903W        W24971  44.374  14.069  13.979
51904W        W24972  18.691  15.433  14.598
51905W        W24973  22.452  13.726   4.658
51906W        W24974  23.572   5.476   1.543
51907W        W24975  30.465  23.395  11.214
51908W        W24976  21.349  27.283   3.632
51909W        W24977  38.099  23.633  10.610
51910W        W24978   7.475  25.770  12.566
51911W        W24979  41.022  17.203   2.298
51912W        W24980  14.751  19.449  14.012
51913W        W24981  26.530  35.057  10.710
51914W        W24982  27.180   5.267   4.594
51915W        W24983  41.170  26.631   0.303
51916W        W24984  22.991  13.398   2.409
51917W        W24985   5.810   7.445  14.242
51918W        W24986  20.011  39.457  14.054
51919W        W24987  39.104  42.198   0.630
51920W        W24988  14.753  38.931   2.755
51921W        W24989   6.702  29.729  14.997
51922W        W24990   7.262  13.102   1.197
51923W        W24991  29.130  44.940   1.094
51924W        W24992  37.165  15.654  14.783
51925W        W24993  20.599   7.872  13.574
51926W        W24994   7.662  17.127  11.650
51927W        W24995  28.904  23.632  12.307
51928W        W24996  40.870   2.919   1.420
51929W        W24997  27.204  37.629  12.483
51930W        W24998  36.839   0.807  14.327
51931W        W24999  17.215  39.392  14.932
51932W        W25000  26.639   3.655   0.917
51933W        W25001  39.359  10.962   2.783
51934W        W25002  23.273   5.721  12.870
51935W        W25003  41.985  15.819  10.103
51936W        W25004  15.000  42.693   5.024
51937W        W25005  31.393  44.494  13.468
51938W        W25006  37.352   4.039  13.468
51939W        W25007  14.659  29.972   1.741
51940W        W25008  12.305  40.104  11.575
51941W        W25009  21.624   3.415  13.470
51942W        W25010  19.236  37.115   3.775
51943W        W25011  19.276  37.633   1.742
51944W        W25012  28.131  32.864  14.327
51945W        W25013   7.265  37.065   1.719
51946W        W25014   5.213  18.132   3.106
51947W        W25015  21.269  23.964  11.025
51948W        W25016  38.477  42.281  12.017
51949W        W25017  22.128   5.171   0.413
51950W        W25018  11.235  37.534   4.081
51951W        W25019  40.460  22.452   2.127
51952W        W25020  31.288  28.471  12.302
51953W        W25021   2.505  10.234  10.780
51954W        W25022  29.132  12.572   0.005
51955W        W25023  40.758   9.917  10.784
51956W        W25024  44.316  31.336  10.600
51957W        W25025  28.129  41.948  10.500
51958W        W25026  41.306  32.976   3.340
51959W        W25027  10.220  36.253   4.207
51960W        W25028  30.926  25.516   4.368
51961W        W25029  21.114  42.868  13.891
51962W        W25030  29.591   3.974   2.441
51963W        W25031   7.482   8.823  12.458
51964W        W25032   9.828   4.286   2.173
51965W        W25033  29.650  22.501   1.377
51966W        W25034  19.544  17.026  14.397
51967W        W25035  23.926  38.384  11.815
51968W        W25036  21.204  15.416   4.067
51969W        W25037  23.162  32.330  14.888
51970W        W25038  36.544  19.224  14.266
51971W        W25039  11.868   2.430  13.419
51972W        W25040  35.544  19.708  12.967
51973W        W25041  18.158   7.323  14.755
51974W        W25042  24.606  29.642   3.231
51975W        W25043  41.429  41.012   4.402
51976W        W25044  33.018   9.652   2.929
51977W        W25045  12.382   6.358  11.690
51978W        W25046   7.344   0.562  11.855
51979W        W25047   7.178  21.792   2.423
51980W        W25048   2.242   5.847   2.274
51981W        W25049  26.777  44.754  11.124
51982W        W25050  43.887  14.599   1.612
51983W        W25051  39.823  10.111  12.919
51984W        W25052  25.973   8.300  12.245
51985W        W25053  18.778  14.155   4.672
51986W        W25054  21.313   8.859   0.836
51987W        W25055  16.165  19.559  14.581
51988W        W25056  38.410  18.784   2.745
51989W        W25057  32.102  23.054   1.972
51990W        W25058  15.747  36.831   4.115
51991W        W25059  21.578  36.506   4.403
51992W        W25060   8.763   0.326   1.544
51993W        W25061   1.783   6.394   4.557
51994W        W25062   6.906  30.945   2.649
51995W        W25063  21.685   4.338   3.818
51996W        W25064   7.146   9.321   4.154
51997W        W25065  37.330  19.554   4.565
51998W        W25066  13.714  35.531   2.199
51999W        W25067   5.471  39.458  13.386
52000W        W25068  39.956  17.984   0.081
52001W        W25069  10.949  27.445   0.553
52002W        W25070   4.855   8.411   1.409
52003W        W25071   2.902  28.068   4.234
52004W        W25072  16.732  11.115  14.322
52005W        W25073  24.158  12.267  13.508
52006W        W25074  16.741  34.313  13.593
52007W        W25075  34.041  12.166  12.348
52008W        W25076  15.642  24.963  14.078
52009W        W25077   1.740  42.748  12.325
52010W        W25078  10.684  35.945   4.199
52011W        W25079  21.200   0.293  14.316
52012W        W25080   0.795  42.008  12.137
52013W        W25081   9.268  37.606   1.270
52014W        W25082  17.334  28.027   0.384
52015W        W25083  33.650  17.814   0.879
52016W        W25084   6.829  16.560   3.160
52017W        W25085  42.234  30.987   4.112
52018W        W25086  10.231  28.281  10.029
52019W        W25087  15.848  44.024  11.156
52020W        W25088  31.432  17.721   4.454
52021W        W25089  32.818  38.465  13.385
52022W        W25090   0.972  14.109  10.747
52023W        W25091  14.532  31.826  10.687
52024W        W25092  10.935  11.661   1.324
52025W        W25093  34.932  15.024   2.634
52026W        W25094  19.231  40.629  14.260
52027W        W25095  11.867  23.198   1.217
52028W        W25096  11.786  24.028  14.402
52029W        W25097  10.719  41.504   0.893
52030W        W25098  37.500  17.692   3.741
52031W        W25099  28.571  36.882  13.115
52032W        W25100   9.133  28.667  12.542
52033W        W25101  28.140  37.136   4.965
52034W        W25102  14.650  30.069  11.875
52035W        W25103  20.765   2.289   0.870
52036W        W25104  24.515  22.301   2.259
52037W        W25105  13.312   8.879  10.278
52038W        W25106  25.609  22.459   1.911
52039W        W25107  39.827  42.308   2.999
52040W        W25108  29.410  12.631   0.859
52041W        W25109  10.805   8.199   1.893
52042W        W25110  41.111   0.151  10.250
52043W        W25111  40.714  28.700   2.709
52044W        W25112  23.639  16.654  10.140
52045W        W25113  19.072  34.532   2.197
52046W        W25114  36.825  28.438   1.403
52047W        W25115   9.230  40.969  14.944
52048W        W25116   9.220  35.292   1.014
52049W        W25117  43.400  14.761  12.006
52050W        W25118  30.431  38.965  12.397
52051W        W25119  43.800  26.566  12.575
52052W        W25120   6.142  30.920  11.120
52053W        W25121  21.657  13.716  12.845
52054W        W25122  15.101   6.169  11.986
52055W        W25123   5.107  43.368  11.116
52056W        W25124  40.833  44.277   1.517
52057W        W25125  32.556  36.549  12.473
52058W        W25126  35.453  30.527   2.784
52059W        W25127   7.666  14.580  13.320
52060W        W25128  32.486  21.260   3.341
52061W        W25129  15.840  28.905  11.088
52062W        W25130  44.041  42.346  13.534
52063W        W25131  20.924  40.761  11.531
52064W        W25132  32.406  11.147  10.574
52065W        W25133  22.696  30.464  13.818
52066W        W25134  10.591   7.339   2.380
52067W        W25135   5.623  30.011   1.308
52068W        W25136   7.365  23.051  13.103
52069W        W25137  17.094  35.590   3.194
52070W        W25138  15.556  40.070   0.853
52071W        W25139  18.487  11.373  11.036
52072W        W25140   6.659  41.965  14.920
52073W        W25141   2.701  42.015  10.713
52074W        W25142  40.567  10.664  13.060
52075W        W25143  39.484   8.640  10.870
52076W        W25144  30.120   7.252  12.564
52077W        W25145  12.307  43.008   0.388
52078W        W25146  14.266  25.609   1.005
52079W        W25147   4.389  21.261   2.763
52080W        W25148  44.527  11.962   0.164
52081W        W25149  40.575   0.418   3.717
52082W        W25150  30.111  27.590   1.420
52083W        W25151   0.817  32.223  10.606
52084W        W25152   7.756  27.870  13.880
52085W        W25153  10.764   8.745   4.604
52086W        W25154  31.442  13.797   2.423
52087W        W25155  33.830  35.956   2.614
52088W        W25156  12.339  11.845  14.508
52089W        W25157   5.964  20.052  11.891
52090W        W25158   7.814  44.691  12.258
52091W        W25159  18.890  15.683   1.931
52092W        W25160  13.723  20.646  10.617
52093W        W25161  34.940  26.346   0.778
52094W        W25162   8.160   8.175   1.782
52095W        W25163   1.986   8.950  11.000
52096W        W25164  40.346  18.246   2.672
52097W        W25165  30.428  28.295   1.229
52098W        W25166   2.324  12.284  13.956
52099W        W25167   6.745   8.964  13.093
52100W        W25168  11.601  39.373  14.860
52101W        W25169  34.557   4.818  10.920
52102W        W25170  44.555   9.666   3.731
52103W        W25171  20.169  38.488  13.378
52104W        W25172  33.489  29.658   2.238
52105W        W25173   0.155  24.164   1.366
52106W        W25174  31.843   8.996  12.393
52107W        W25175   5.282   2.780   4.543
52108W        W25176  30.532   3.019   0.030
52109W        W25177   7.600  15.915   1.681
52110W        W25178  37.011  44.256  12.915
52111W        W25179  30.373   6.365   3.873
52112W        W25180  20.984  13.002  11.069
52113W        W25181  19.732  40.022  12.608
52114W        W25182  16.861  33.074  14.025
52115W        W25183   6.666   9.526  14.280
52116W        W25184  31.636  15.089   4.042
52117W        W25185  42.458  40.810  10.434
52118W        W25186   4.782  24.718   0.119
52119W        W25187  24.629   8.427  10.770
52120W        W25188  26.438   5.867  13.422
52121W        W25189   6.161  30.071   4.672
52122W        W25190   4.549  41.490  10.687
52123W        W25191  37.311   7.829   2.375
52124W        W25192  17.531   4.582   4.245
52125W        W25193   3.329   3.012   0.340
52126W        W25194  23.621  20.143  12.232
52127W        W25195  29.550   0.407  12.005
52128W        W25196  18.439  34.626   3.075
52129W        W25197  34.031  30.698  11.925
52130W        W25198  11.933   1.353  10.395
52131W        W25199  17.261   3.361   4.401
52132W        W25200  11.421  22.216  12.268
52133W        W25201  44.099  13.346  13.331
52134W        W25202  10.207  35.140   3.235
52135W        W25203  22.987  18.334  14.764
52136W        W25204  35.615  27.463   3.162
52137W        W25205  32.409  34.224  11.308
52138W        W25206   2.248  29.155  13.040
52139W        W25207  27.404  19.565   1.442
52140W        W25208   7.317  38.960   4.899
52141W        W25209  32.431  13.703  10.995
52142W        W25210  43.914  20.157  14.060
52143W        W25211  32.097  37.464  10.805
52144W        W25212   4.478  28.070  13.603
52145W        W25213  16.358  12.276  13.492
52146W        W25214  28.216  35.822   0.024
52147W        W25215  26.584  33.533  14.319
52148W        W25216  42.757  30.487   1.734
52149W        W25217  32.382  28.754  14.207
52150W        W25218  31.390   3.683  13.505
52151W        W25219  34.529  10.827   1.317
52152W        W25220  33.615   0.142   4.481
52153W        W25221  12.918  17.149   2.782
52154W        W25222  21.756  28.686  12.475
52155W        W25223  37.253  44.191   2.152
52156W        W25224  29.459  34.167  14.881
52157W        W25225  43.850  19.000  14.887
52158W        W25226  21.218  28.062  11.920
52159W        W25227   5.204  11.116   2.623
52160W        W25228  31.011   4.104   3.276
52161W        W25229  26.563  31.572   1.768
52162W        W25230  26.463  44.380  10.700
52163W        W25231  41.875  35.386   0.871
52164W        W25232  15.995  32.470   2.228
52165W        W25233  39.027  35.396  11.559
52166W        W25234  11.408  21.254   1.165
52167W        W25235   7.109  39.617   1.723
52168W        W25236  21.443  15.204   0.457
52169W        W25237  22.191   9.901   2.291
52170W        W25238  36.178   5.952  12.027
52171W        W25239  39.294  14.673  11.219
52172W        W25240   0.358   1.025   3.309
52173W        W25241  20.291  14.697   0.350
52174W        W25242   9.822  25.264  14.346
52175W        W25243  35.599  37.004  10.929
52176W        W25244  14.511  16.764   4.226
52177W        W25245  25.421  21.558  13.576
52178W        W25246  11.439  18.373  11.153
52179W        W25247  30.491  29.697   0.946
52180W        W25248  26.195   4.938  13.030
52181W        W25249  30.396  15.283  11.986
52182W        W25250   6.419   8.819   4.539
52183W        W25251  17.235   4.714   5.114
52184W        W25252  42.846   2.778   4.371
52185W        W25253  27.589  32.309   4.634
52186W        W25254   8.460  34.785   4.085
52187W        W25255  43.479  30.651  12.972
52188W        W25256  11.200  20.587  11.488
52189W        W25257   0.838  10.422   5.040
52190W        W25258  44.720  14.002   0.296
52191W        W25259  32.304  34.570  14.748
52192W        W25260   3.887  44.285  13.102
52193W        W25261  37.914   6.891  13.775
52194W        W25262  34.380  34.134  14.881
52195W        W25263  14.214  20.953  12.677
52196W        W25264  12.716  20.501   3.131
52197W        W25265  13.558  37.768  10.568
52198W        W25266   2.786   3.205  13.785
52199W        W25267  42.829  32.694   4.205
52200W        W25268  11.895  11.795  11.969
52201W        W25269   0.355  26.278   3.144
52202W        W25270  39.541  28.523  12.003
52203W        W25271  29.278  25.990   3.247
52204W        W25272  42.310   4.707   2.119
52205W        W25273  36.676   4.966  14.381
52206W        W25274  31.336  23.496   2.160
52207W        W25275  15.848  33.904   3.616
52208W        W25276  36.444  37.048  11.069
52209W        W25277   7.795  44.648  13.109
52210W        W25278  15.827  29.587   0.253
52211W        W25279   7.834  24.998   0.289
52212W        W25280  30.122   6.449  13.883
52213W        W25281  39.894   9.789  10.775
52214W        W25282  26.924  34.995   2.547
52215W        W25283  28.110   3.655   1.611
52216W        W25284  37.495  40.455   1.850
52217W        W25285  22.040  26.226   0.415
52218W        W25286   2.927   2.588   4.279
52219W        W25287  23.057  27.497   1.270
52220W        W25288  42.363  25.948  13.819
52221W        W25289  35.423  15.828   0.017
52222W        W25290  41.452  20.234  10.698
52223W        W25291   4.260  16.136  11.149
52224W        W25292  14.604  33.987  14.445
52225W        W25293  20.837  34.554  14.855
52226W        W25294  43.968  26.174  12.191
52227W        W25295  14.378   3.702  11.598
52228W        W25296   7.666  27.086  12.685
52229W        W25297  41.846  25.013  14.879
52230W        W25298  31.656  15.831   2.719
52231W        W25299  23.662  44.349   3.354
52232W        W25300   9.524   4.438   3.938
52233W        W25301   6.373  18.079   1.663
52234W        W25302  27.691  32.540  12.690
52235W        W25303   4.016  25.428  12.551
52236W        W25304   9.689  43.032  10.560
52237W        W25305   2.014   8.769   1.473
52238W        W25306  12.331  44.947   3.236
52239W        W25307   1.351  14.086   4.565
52240W        W25308  33.934  12.345  12.792
52241W        W25309   6.940  30.541  11.593
52242W        W25310  25.244  42.053  11.030
52243W        W25311  11.774  28.630   1.864
52244W        W25312  23.785  12.464   0.158
52245W        W25313   7.761   2.346   0.042
52246W        W25314  40.002  10.541  13.937
52247W        W25315   1.973   4.129   2.230
52248W        W25316  24.162   0.009   1.413
52249W        W25317   9.123  27.958  13.840
52250W        W25318  12.161  43.663   3.188
52251W        W25319  30.634  14.742  13.313
52252W        W25320  18.025  25.024  12.114
52253W        W25321   1.912  19.586   4.074
52254W        W25322  23.478  37.036  12.995
52255W        W25323  37.020  42.319   2.660
52256W        W25324  10.392   4.016   4.961
52257W        W25325  11.641  18.088   1.296
52258W        W25326  28.656  10.691  11.910
52259W        W25327  19.632  27.663   3.813
52260W        W25328  35.497  42.056  12.830
52261W        W25329   8.762  12.222   2.723
52262W        W25330   6.638  19.785   1.873
52263W        W25331   1.406   9.322  13.107
52264W        W25332  41.356   9.049   4.656
52265W        W25333   8.865  44.818  11.891
52266W        W25334  21.788  31.672  13.339
52267W        W25335  33.816  38.462  13.665
52268W        W25336  19.769   3.972   2.239
52269W        W25337  40.717  35.866  11.623
52270W        W25338  28.812  24.420   4.076
52271W        W25339  24.785   1.401   1.702
52272W        W25340  42.958  10.652  14.024
52273W        W25341  27.670  34.324   0.377
52274W        W25342  10.169  38.984   4.589
52275W        W25343  26.359  10.623  10.613
52276W        W25344  40.501  19.110  13.143
52277W        W25345  35.873  34.452   0.584
52278W        W25346  34.782  16.001   0.787
52279W        W25347  20.352  34.497  14.731
52280W        W25348  31.878  37.034  14.748
52281W        W25349  23.455  11.927   3.708
52282W        W25350  41.607  35.088   3.183
52283W        W25351  40.925   6.820   2.656
52284W        W25352  18.769  14.693   1.289
52285W        W25353  39.042   2.730  12.030
52286W        W25354  25.694  37.083  14.284
52287W        W25355  17.521   6.613   0.670
52288W        W25356   1.179   6.771  10.778
52289W        W25357  24.624  19.093   4.594
52290W        W25358   0.037   0.720   2.946
52291W        W25359  15.759  41.293   0.103
52292W        W25360  16.373  10.108  11.939
52293W        W25361   3.936  43.242   1.990
52294W        W25362  30.843  14.350   0.834
52295W        W25363  22.762  36.861  12.429
52296W        W25364   1.268  11.258  14.965
52297W        W25365  18.334  41.545   3.260
52298W        W25366  33.874  13.366   2.876
52299W        W25367  13.128  20.431   2.812
52300W        W25368  36.284   9.406   1.808
52301W        W25369   8.879  30.976  14.227
52302W        W25370   1.842   3.284   4.220
52303W        W25371  23.606  14.530  14.283
52304W        W25372  15.624   9.249   4.168
52305W        W25373  35.369  21.067   1.526
52306W        W25374  36.065  19.614   0.719
52307W        W25375   4.255  35.984   1.462
52308W        W25376   9.517  19.602   0.339
52309W        W25377  44.845  22.467  11.546
52310W        W25378  22.673  39.298  12.226
52311W        W25379  24.664   4.484   0.469
52312W        W25380  14.088  40.502   4.621
52313W        W25381  20.097   1.351  13.820
52314W        W25382   5.946  12.869   1.844
52315W        W25383  30.007   5.970   3.385
52316W        W25384  23.181  35.798   1.475
52317W        W25385  14.941  22.843  10.142
52318W        W25386   2.158  12.492   1.423
52319W        W25387  32.020  43.183  13.844
52320W        W25388  25.507  42.422   3.644
52321W        W25389  12.384  40.325   2.330
52322W        W25390  11.911  24.979  14.449
52323W        W25391  28.670   8.954   0.514
52324W        W25392  44.978  40.541  10.910
52325W        W25393  39.866  28.528  13.894
52326W        W25394   6.215   7.613  14.983
52327W        W25395  33.153  42.735  12.936
52328W        W25396  22.769  35.493   1.448
52329W        W25397  10.275  12.131  11.133
52330W        W25398   9.570  38.519   1.473
52331W        W25399  10.056  36.487  12.554
52332W        W25400  40.858   0.569   3.296
52333W        W25401  13.083  33.898  11.391
52334W        W25402  20.561   5.803  13.827
52335W        W25403  27.146  27.619  11.203
52336W        W25404  39.084  24.746  13.879
52337W        W25405  31.039  38.935   4.550
52338W        W25406   0.909  44.922   4.897
52339W        W25407   4.022  32.565   4.121
52340W        W25408   3.959   6.507   4.053
52341W        W25409  12.251  22.031  11.854
52342W        W25410  32.382  22.209  13.077
52343W        W25411  30.091   2.468  11.566
52344W        W25412  18.237  11.161   1.925
52345W        W25413  38.643   1.736  12.017
52346W        W25414  28.580  20.091  14.481
52347W        W25415  40.474  40.993   1.781
52348W        W25416   0.964   7.228   4.070
52349W        W25417  20.545   8.774  13.677
52350W        W25418  29.866  32.891  12.535
52351W        W25419  14.767   2.923  12.005
52352W        W25420  41.033   5.597   3.737
52353W        W25421  30.392  34.088   0.066
52354W        W25422  43.944  13.593   4.418
52355W        W25423  37.767  18.374   2.986
52356W        W25424  41.730  29.545  11.517
52357W        W25425  30.842  43.456   1.041
52358W        W25426  23.809  44.699   1.733
52359W        W25427  26.029   1.821   0.288
52360W        W25428   8.185  24.019   1.380
52361W        W25429  43.713   1.002   0.004
52362W        W25430  18.313  40.522  12.609
52363W        W25431  29.860  22.376  13.025
52364W        W25432  38.068  28.588  10.652
52365W        W25433  26.000  39.992   9.864
52366W        W25434   0.742  44.975   2.748
52367W        W25435  15.732  34.925  10.550
52368W        W25436  27.620  14.559   2.390
52369W        W25437  15.042  17.100   1.740
52370W        W25438  17.313  17.177  14.030
52371W        W25439  35.638  17.831   1.486
52372W        W25440   3.952  31.590   3.186
52373W        W25441  13.809  44.783  13.035
52374W        W25442  38.572  10.776  14.884
52375W        W25443  25.286  14.538   1.447
52376W        W25444   5.864   6.107  11.134
52377W        W25445  21.316  44.298   0.239
52378W        W25446  39.059  15.075   3.278
52379W        W25447  18.944  31.345   0.220
52380W        W25448   9.212  13.011   2.838
52381W        W25449  22.293  12.473   0.372
52382W        W25450  16.340  28.575   3.655
52383W        W25451  25.695  43.980   4.426
52384W        W25452  23.928  13.755   3.683
52385W        W25453  39.724  30.852  11.980
52386W        W25454   5.282   2.591   2.298
52387W        W25455  43.401   6.910  12.889
52388W        W25456  30.122   2.746   3.840
52389W        W25457   5.693   0.579   2.924
52390W        W25458   8.297   8.367  14.316
52391W        W25459  26.464  43.631  14.857
52392W        W25460   8.247  18.212  14.793
52393W        W25461   2.783  10.630   3.594
52394W        W25462   0.312  10.198  14.222
52395W        W25463  34.817  24.614  13.144
52396W        W25464  39.667  13.100   1.216
52397W        W25465   8.285  16.960   1.390
52398W        W25466  28.438  34.211   4.080
52399W        W25467  14.129  43.997  11.502
52400W        W25468  10.630   3.873   4.495
52401W        W25469  42.406  29.370  10.560
52402W        W25470  20.768  38.365   0.812
52403W        W25471  17.165   7.753   0.334
52404W        W25472  11.763  15.036  11.202
52405W        W25473   8.299   2.179  10.768
52406W        W25474  38.280  29.682  11.861
52407W        W25475  15.845  10.533   3.046
52408W        W25476  35.875  44.877  14.734
52409W        W25477  27.291   2.598   3.169
52410W        W25478  27.245  22.535   3.545
52411W        W25479  31.576  10.789   1.722
52412W        W25480  26.157  15.293  13.997
52413W        W25481  37.664  21.166   1.461
52414W        W25482  30.017  32.621   3.083
52415W        W25483   8.847  27.133   4.555
52416W        W25484  28.739  33.883  13.676
52417W        W25485  22.115   2.878   1.939
52418W        W25486  39.100  32.439   4.975
52419W        W25487  21.922  18.185  13.018
52420W        W25488  43.880  33.101   4.549
52421W        W25489   6.840  40.812  13.009
52422W        W25490  20.019  33.416   2.757
52423W        W25491  13.027  31.987  13.053
52424W        W25492  34.969  36.845   0.272
52425W        W25493  26.746   1.218  12.391
52426W        W25494  16.880  33.165  10.777
52427W        W25495  21.648  10.087  11.496
52428W        W25496  28.073   2.308   0.633
52429W        W25497  26.220   9.815  10.157
52430W        W25498  20.009  31.456  13.858
52431W        W25499  13.963  27.598   2.624
52432W        W25500  21.656   3.114   1.799
52433W        W25501  12.660  10.241  10.626
52434W        W25502   2.775  21.114  14.719
52435W        W25503  32.179  26.335  14.407
52436W        W25504   6.451  33.375  12.536
52437W        W25505  33.361  43.870   3.964
52438W        W25506  13.645   3.589  13.846
52439W        W25507  31.129  12.733   3.180
52440W        W25508  12.180  19.751   3.083
52441W        W25509  32.206  20.034  13.249
52442W        W25510  29.060  33.270  11.655
52443W        W25511  26.598  42.704   1.504
52444W        W25512  39.861   0.994  11.537
52445W        W25513  12.261  15.837   1.350
52446W        W25514  11.111  41.388  13.492
52447W        W25515  17.471   2.741   0.859
52448W        W25516   9.362  12.831   1.164
52449W        W25517  22.631  30.622   0.119
52450W        W25518  30.846   8.920   3.191
52451W        W25519  20.647  41.087   0.533
52452W        W25520   9.129   6.193   4.215
52453W        W25521  44.776  36.591  14.950
52454W        W25522  34.076  20.171   3.594
52455W        W25523  13.249  18.519   2.873
52456W        W25524  44.404  10.213  14.719
52457W        W25525  36.174  36.837  14.841
52458W        W25526  34.054  31.892  14.256
52459W        W25527  18.323  35.493  12.756
52460W        W25528  44.034  40.259   1.983
52461W        W25529  11.509   4.669  13.404
52462W        W25530   2.968  23.479   3.403
52463W        W25531  32.447  20.960  11.354
52464W        W25532  26.509  29.664  10.754
52465W        W25533  44.958  40.291  11.360
52466W        W25534  24.128  27.691   3.864
52467W        W25535  44.988  31.448  12.842
52468W        W25536  25.512  33.566   2.627
52469W        W25537   8.134  28.325  10.940
52470W        W25538  34.388  22.481   4.619
52471W        W25539  22.256  16.658   2.387
52472W        W25540  13.604  39.270   0.887
52473W        W25541  40.842  13.877  13.831
52474W        W25542  30.610   9.331   0.833
52475W        W25543  40.746  13.753  13.346
52476W        W25544  39.075  22.193   4.635
52477W        W25545  32.847  24.613   2.305
52478W        W25546  41.371  25.988   3.006
52479W        W25547  39.423  25.186   1.659
52480W        W25548   2.561  43.198  14.080
52481W        W25549  31.207  43.322   1.468
52482W        W25550  17.458  44.286  10.760
52483W        W25551  37.353  18.481  12.129
52484W        W25552  14.292   2.690   1.974
52485W        W25553  31.983  17.951  10.234
52486W        W25554  17.229   6.288   3.841
52487W        W25555  19.704   2.039  13.475
52488W        W25556  17.543   3.816   2.803
52489W        W25557  35.136  24.553  11.664
52490W        W25558  19.116  22.969  12.606
52491W        W25559   3.787  16.833   4.159
52492W        W25560  21.336   5.835  14.304
52493W        W25561  37.847  12.790   1.485
52494W        W25562  35.428  42.792  14.591
52495W        W25563  11.268  43.331   3.648
52496W        W25564   3.414  35.884   3.134
52497W        W25565   9.680  13.260   2.784
52498W        W25566  43.669  18.586  12.930
52499W        W25567   2.296  11.277  12.590
52500W        W25568  29.923  38.061  14.190
52501W        W25569  21.039   1.921  13.905
52502W        W25570  11.625  27.875  14.480
52503W        W25571   4.017  38.345  10.971
52504W        W25572   3.149  10.749   1.627
52505W        W25573   4.996  30.443   3.325
52506W        W25574  27.707  22.285   4.916
52507W        W25575  39.392  42.459   1.508
52508W        W25576  32.372  38.935   3.254
52509W        W25577  41.331  32.208   4.236
52510W        W25578  22.986   5.137   0.399
52511W        W25579  31.023  20.508   0.529
52512W        W25580   9.544  13.458  14.855
52513W        W25581  10.289  40.311  11.702
52514W        W25582  16.841   9.873   3.669
52515W        W25583  12.735  41.371   1.657
52516W        W25584  42.566  34.908   0.376
52517W        W25585  13.674  30.320   0.931
52518W        W25586  41.316  11.173  10.822
52519W        W25587  40.358  31.275   3.274
52520W        W25588   3.972  41.295   2.283
52521W        W25589   5.916  20.206   0.293
52522W        W25590  43.547  29.137  11.733
52523W        W25591  25.741  27.074   2.301
52524W        W25592   0.178   4.726  13.081
52525W        W25593  30.113  17.733   1.930
52526W        W25594  20.526  44.011  11.564
52527W        W25595  22.882  24.677   4.126
52528W        W25596  19.313  21.175  13.068
52529W        W25597   1.360  27.908  12.678
52530W        W25598   0.765  37.445   2.840
52531W        W25599   5.047  33.176   3.608
52532W        W25600  20.029   1.337   2.493
52533W        W25601  35.140  32.617   2.671
52534W        W25602  23.391  39.646   9.962
52535W        W25603   7.758  31.417   1.225
52536W        W25604  41.892  22.769   2.381
52537W        W25605  37.243  21.251   3.160
52538W        W25606   8.310  18.182   2.755
52539W        W25607   7.375  27.931  13.560
52540W        W25608  33.221  15.719  13.412
52541W        W25609  41.552  22.556   3.785
52542W        W25610  25.115  37.597  12.556
52543W        W25611  19.620   1.477   2.221
52544W        W25612  37.502  39.454   0.257
52545W        W25613  37.466  24.979   3.809
52546W        W25614  34.513  15.280   0.852
52547W        W25615   2.696  27.612   1.208
52548W        W25616  23.240   1.735  13.413
52549W        W25617  30.930   9.203   2.206
52550W        W25618  17.313  25.920  11.589
52551W        W25619  11.751  12.419   1.918
52552W        W25620  19.077  30.464   0.640
52553W        W25621  19.283  25.533  12.477
52554W        W25622  16.782   2.722  11.912
52555W        W25623  12.772  17.165  13.532
52556W        W25624  39.710  26.250  14.540
52557W        W25625  31.063  21.000   3.244
52558W        W25626  35.082  28.180   1.153
52559W        W25627   2.409  30.357   0.255
52560W        W25628  17.156  39.903   1.216
52561W        W25629   9.240  27.172  11.126
52562W        W25630   3.551  35.419  10.896
52563W        W25631   1.866  25.549  12.097
52564W        W25632  28.173   5.773   2.010
52565W        W25633  18.827  12.906   3.241
52566W        W25634  26.141  27.483  12.511
52567W        W25635  40.255  22.266   3.713
52568W        W25636   7.124   0.911  12.208
52569W        W25637  32.619  28.511   4.578
52570W        W25638  23.710  33.828  12.456
52571W        W25639   6.436   0.901  10.268
52572W        W25640  16.647  17.095  11.476
52573W        W25641  14.643  28.183   0.264
52574W        W25642  25.264  32.297  12.686
52575W        W25643  41.018  30.166  12.496
52576W        W25644  36.071  38.014   3.332
52577W        W25645  38.377   6.031   0.493
52578W        W25646  37.941  36.656  12.180
52579W        W25647  11.623  38.020   0.642
52580W        W25648  18.276  13.708   0.729
52581W        W25649  25.735  11.207   2.995
52582W        W25650  34.543  43.338   0.248
52583W        W25651  41.966  11.694   0.894
52584W        W25652  18.686  31.160   2.358
52585W        W25653  11.714  37.003  12.064
52586W        W25654   6.272   2.426   1.331
52587W        W25655  19.375  34.350   0.714
52588W        W25656  37.069  31.459   3.702
52589W        W25657   7.237  15.225  12.812
52590W        W25658  29.748  44.473  10.704
52591W        W25659  33.714  37.076   2.920
52592W        W25660  20.309  13.093  14.886
52593W        W25661  23.436  24.231   3.364
52594W        W25662   1.293  19.690   1.725
52595W        W25663  11.128  38.393  10.578
52596W        W25664   6.947   4.719  12.557
52597W        W25665  44.281  20.810  11.601
52598W        W25666  37.019  36.932   4.721
52599W        W25667   4.682  20.367  13.141
52600W        W25668  40.108  38.127  13.255
52601W        W25669   4.756  34.545  13.087
52602W        W25670  20.584  24.000  14.894
52603W        W25671   5.257  12.816   2.234
52604W        W25672  30.586  13.345   1.060
52605W        W25673  37.823   2.848   0.678
52606W        W25674  19.586  31.244  12.972
52607W        W25675  31.348  24.519   3.531
52608W        W25676  40.474  11.789   5.187
52609W        W25677  36.378  10.767  12.384
52610W        W25678  33.922   3.019   3.343
52611W        W25679  29.836  30.047   1.180
52612W        W25680  30.956  39.662  11.682
52613W        W25681   4.529  15.865   1.330
52614W        W25682   6.451   4.218   2.184
52615W        W25683  37.409  35.890   2.249
52616W        W25684  38.054  43.882   2.368
52617W        W25685  26.096  23.992   2.331
52618W        W25686   5.137  25.790   2.925
52619W        W25687  18.648  21.260   4.116
52620W        W25688  36.599  14.131   0.992
52621W        W25689  42.760  36.844   0.802
52622W        W25690  43.297  40.071  12.039
52623W        W25691  25.220   3.418  14.237
52624W        W25692  36.863  13.794  11.442
52625W        W25693   8.639  33.311  13.335
52626W        W25694   4.793   6.402   2.696
52627W        W25695   5.958  44.324  11.674
52628W        W25696  29.489  21.532   2.370
52629W        W25697   3.948   6.748   1.380
52630W        W25698  10.414  37.319  13.665
52631W        W25699  16.661  11.888  12.812
52632W        W25700  13.303  38.628  11.733
52633W        W25701  42.511  28.464  11.576
52634W        W25702  16.999   0.306  14.832
52635W        W25703  37.941  13.754  14.424
52636W        W25704   2.043  40.112   1.347
52637W        W25705  42.409  16.303   4.093
52638W        W25706  23.702  34.356   4.519
52639W        W25707  31.430   9.310  12.082
52640W        W25708  28.556  33.648   4.189
52641W        W25709   1.318  26.541   1.759
52642W        W25710  23.779   5.716  12.785
52643W        W25711  27.483  30.238   2.347
52644W        W25712   4.384  22.387   3.507
52645W        W25713  43.012  11.437  11.874
52646W        W25714  23.766  39.146   2.754
52647W        W25715  26.479   6.951  10.726
52648W        W25716  18.645   4.646  11.991
52649W        W25717  43.357  11.206  14.733
52650W        W25718  13.392  14.603   0.668
52651W        W25719  11.478  11.709   0.361
52652W        W25720  44.927  18.511   4.054
52653W        W25721  38.401  17.200   3.760
52654W        W25722  42.684  13.068   3.952
52655W        W25723  20.205   5.280  13.794
52656W        W25724   1.406  32.414   1.507
52657W        W25725  21.026  36.092  12.470
52658W        W25726  30.573   1.042  11.122
52659W        W25727   2.321  28.333   2.165
52660W        W25728  22.717  15.777  10.069
52661W        W25729  10.057  17.562  13.461
52662W        W25730  26.033  32.104   2.042
52663W        W25731  38.828   7.478   2.698
52664W        W25732  28.216   8.623  10.758
52665W        W25733  30.224  17.773   3.248
52666W        W25734   1.287   0.468   3.175
52667W        W25735   7.461  39.339   5.223
52668W        W25736  18.121  36.622   1.718
52669W        W25737  25.017  20.702   1.540
52670W        W25738   1.834  15.286   2.476
52671W        W25739  39.087  30.945  10.491
52672W        W25740   5.978  32.470  11.121
52673W        W25741  12.289  20.696   2.292
52674W        W25742  37.537  22.105   1.948
52675W        W25743  36.877  39.215   1.467
52676W        W25744  43.763  40.074  11.099
52677W        W25745  42.765   6.829  14.895
52678W        W25746  25.992   0.523  10.778
52679W        W25747   9.429  22.010   4.522
52680W        W25748  26.238   6.001   3.604
52681W        W25749   4.283   9.815  14.315
52682W        W25750  25.686  25.179  12.451
52683W        W25751  35.904  12.797   4.963
52684W        W25752  19.005  11.365   2.496
52685W        W25753   1.303  35.467   3.329
52686W        W25754  24.565  23.968   0.227
52687W        W25755   6.690   9.682  10.915
52688W        W25756  34.454  17.240  13.986
52689W        W25757  21.825  33.101   0.870
52690W        W25758  23.203  10.176  10.711
52691W        W25759  26.179   3.660  10.742
52692W        W25760  10.270  21.728   4.422
52693W        W25761  28.433   7.671  11.609
52694W        W25762  35.094   1.893  11.952
52695W        W25763  11.451   1.387  13.338
52696W        W25764  41.348  12.901   1.813
52697W        W25765   5.834  37.047  14.474
52698W        W25766   3.374  18.913   5.031
52699W        W25767   2.442  35.152   2.480
52700W        W25768  23.956  19.551  13.205
52701W        W25769  30.311  15.820  12.842
52702W        W25770   9.930  25.009   3.898
52703W        W25771  35.849   5.943  12.627
52704W        W25772  16.202  11.388  11.533
52705W        W25773  35.264  39.457  11.146
52706W        W25774  40.764  22.745  12.070
52707W        W25775  17.690  19.838  10.751
52708W        W25776  43.516   1.754   3.111
52709W        W25777  12.470  35.327  11.110
52710W        W25778  27.439  23.667   3.657
52711W        W25779  24.602  36.502   1.271
52712W        W25780   2.842  22.754  13.359
52713W        W25781  33.012  37.990  13.446
52714W        W25782  37.115  34.718   1.412
52715W        W25783  28.716  21.495   0.864
52716W        W25784  11.158  13.750  12.066
52717W        W25785  15.563  36.898   2.208
52718W        W25786  16.668  23.426   2.409
52719W        W25787   9.334   2.673   0.979
52720W        W25788  29.650   5.296  10.310
52721W        W25789  21.300  10.775   0.665
52722W        W25790  42.893  11.436  14.856
52723W        W25791  35.372   1.728  10.721
52724W        W25792  25.918  15.702   1.524
52725W        W25793  14.188  29.354  11.511
52726W        W25794  11.004   3.555   2.276
52727W        W25795  39.641  44.936  12.082
52728W        W25796  12.827  43.307  12.558
52729W        W25797  32.516  15.308   1.850
52730W        W25798  11.045  25.247  13.461
52731W        W25799  18.452   5.095  12.126
52732W        W25800  30.740  33.843  13.402
52733W        W25801  21.260  39.343   0.379
52734W        W25802   3.761   1.474   2.808
52735W        W25803   5.662   2.671   3.598
52736W        W25804  38.511  16.071   1.829
52737W        W25805  18.941   5.129  11.975
52738W        W25806   5.335  10.606  14.824
52739W        W25807  43.916   8.769  10.427
52740W        W25808  16.625  21.861  14.515
52741W        W25809  30.098   0.738   3.707
52742W        W25810  18.688  10.864  14.052
52743W        W25811  15.126  27.197   4.800
52744W        W25812  40.544  20.763  13.895
52745W        W25813  15.664   3.421  12.727
52746W        W25814  10.811   6.743   1.793
52747W        W25815  17.708  14.612   0.392
52748W        W25816  37.268  44.775  14.497
52749W        W25817  38.795   9.272   1.133
52750W        W25818  13.349  33.840   1.388
52751W        W25819  17.700   3.974  13.624
52752W        W25820   9.183   4.776   4.636
52753W        W25821  28.138  31.526  12.518
52754W        W25822  39.780  29.031  14.455
52755W        W25823   1.090   3.111  12.123
52756W        W25824  34.206   5.222  13.854
52757W        W25825  22.685  24.013   4.683
52758W        W25826   7.170  24.703   2.809
52759W        W25827   5.381  19.808  13.605
52760W        W25828  35.791  41.308   4.619
52761W        W25829  14.799   4.503   3.905
52762W        W25830  30.067  27.456   2.327
52763W        W25831   4.230  38.509   1.853
52764W        W25832  32.052  35.469  13.078
52765W        W25833  19.628  20.369  12.053
52766W        W25834   8.713  27.276  12.965
52767W        W25835  20.221  24.550  14.082
52768W        W25836  11.642  36.460  12.926
52769W        W25837  37.379  37.040   2.943
52770W        W25838  20.586  35.637  14.350
52771W        W25839  33.349  11.655   5.064
52772W        W25840  44.167  21.989   2.318
52773W        W25841   4.919  15.339  12.277
52774W        W25842  44.352  10.124  12.010
52775W        W25843  37.321  13.610  11.625
52776W        W25844  11.121  27.939   1.394
52777W        W25845   9.725  31.624  13.795
52778W        W25846  14.822  16.229  14.293
52779W        W25847  28.369   2.308   3.437
52780W        W25848  42.088  21.127   3.265
52781W        W25849  43.808  36.192  12.026
52782W        W25850  27.817  32.562   2.659
52783W        W25851   4.330  18.935   1.785
52784W        W25852  41.512   4.255   4.120
52785W        W25853  14.077  19.615   4.660
52786W        W25854  16.372  22.453   0.778
52787W        W25855  12.577  24.603   3.237
52788W        W25856  38.426   4.000  12.083
52789W        W25857  12.684  25.008   0.806
52790W        W25858  35.034  41.356   4.065
52791W        W25859  41.769   6.814   1.144
52792W        W25860  43.897  29.067  14.248
52793W        W25861  34.059  25.294  12.118
52794W        W25862  22.132  18.627  12.883
52795W        W25863  28.607  11.867   0.588
52796W        W25864  11.415  41.153   2.711
52797W        W25865  28.126  11.313  14.387
52798W        W25866   4.505   2.375  14.822
52799W        W25867  39.172  44.893   1.472
52800W        W25868  16.975  40.431   1.904
52801W        W25869  21.605  43.532  12.833
52802W        W25870  28.563   6.242   3.298
52803W        W25871   5.178   6.809  13.863
52804W        W25872  28.932  39.852  10.860
52805W        W25873  16.246  24.512   4.754
52806W        W25874  42.874  14.089  11.770
52807W        W25875  31.233  31.434  13.495
52808W        W25876  24.576  22.694   1.918
52809W        W25877  35.467  22.717  11.134
52810W        W25878  42.465  26.579   4.799
52811W        W25879   0.019  19.542   2.070
52812W        W25880  30.534  34.954  11.965
52813W        W25881  39.676  22.145  11.985
52814W        W25882  41.825  42.895   3.813
52815W        W25883   6.713  23.261  11.203
52816W        W25884   2.956  39.476  14.372
52817W        W25885  34.538  28.197   1.775
52818W        W25886  15.351  12.216  10.960
52819W        W25887  31.828   0.756   4.967
52820W        W25888  37.401  27.138   1.875
52821W        W25889  25.685  20.166  13.324
52822W        W25890  38.788  21.850   0.389
52823W        W25891  25.668   4.508   1.965
52824W        W25892  35.360  32.805   3.364
52825W        W25893  38.959  21.009  10.727
52826W        W25894   5.214  33.488  12.303
52827W        W25895  42.427  12.658   0.839
52828W        W25896   3.771  16.313   0.498
52829W        W25897  11.481  14.075  12.388
52830W        W25898  28.082   4.826   1.515
52831W        W25899  44.386  19.554   0.627
52832W        W25900   0.553  43.807   2.321
52833W        W25901  44.467  35.687   2.599
52834W        W25902  22.772  40.575  14.480
52835W        W25903   9.701  41.490   1.859
52836W        W25904  29.621  35.459   1.841
52837W        W25905   8.328  38.099  12.312
52838W        W25906  36.844   9.475   0.830
52839W        W25907  21.141  37.509   4.306
52840W        W25908  18.130   7.324   3.675
52841W        W25909  12.151  22.363   4.062
52842W        W25910   8.599  11.682  11.533
52843W        W25911  16.532  40.507  12.566
52844W        W25912  20.626  17.789   0.306
52845W        W25913  17.818  16.645  10.759
52846W        W25914   5.757  36.366  11.118
52847W        W25915  25.395  10.879  10.263
52848W        W25916  11.565   9.188   1.879
52849W        W25917  11.807  10.041   3.321
52850W        W25918  30.709  11.417   0.761
52851W        W25919  18.219  29.195   4.339
52852W        W25920  10.480  13.272   3.098
52853W        W25921  14.188  10.050  12.008
52854W        W25922  21.196  24.364   3.636
52855W        W25923  43.847  15.239  13.053
52856W        W25924  28.037  40.265   3.105
52857W        W25925   9.196   9.321  14.397
52858W        W25926  11.694  14.593  14.599
52859W        W25927  29.433  15.346   1.260
52860W        W25928  19.126  37.800   2.720
52861W        W25929  12.145   7.924  13.777
52862W        W25930  44.238   7.784  13.887
52863W        W25931  44.027  22.063  13.938
52864W        W25932  22.102  30.429   4.316
52865W        W25933  33.044  44.067  13.462
52866W        W25934  12.244  22.116  13.871
52867W        W25935  44.711  26.761  14.782
52868W        W25936  15.968  29.934  14.816
52869W        W25937   4.319   2.517  10.616
52870W        W25938  17.055   0.867  10.643
52871W        W25939  22.084  24.726   1.923
52872W        W25940  38.774  33.195   4.649
52873W        W25941  32.438  35.810  11.000
52874W        W25942  11.975  14.011   9.785
52875W        W25943  42.148  20.050  12.796
52876W        W25944  10.740  31.115   2.933
52877W        W25945  31.552  37.351   1.187
52878W        W25946  39.479   5.891   0.770
52879W        W25947   5.772  26.297  13.151
52880W        W25948  19.147  33.844  13.518
52881W        W25949   7.176  37.505   5.035
52882W        W25950  26.479  44.505   5.313
52883W        W25951  42.920   1.882  13.325
52884W        W25952  10.885  26.002   0.648
52885W        W25953   5.794   1.438   0.288
52886W        W25954  44.775  24.603  11.455
52887W        W25955  25.701  13.347   4.160
52888W        W25956  23.448   4.729  14.317
52889W        W25957  42.859  36.521   2.311
52890W        W25958  37.649  33.396  14.601
52891W        W25959  41.823  41.276   1.776
52892W        W25960  15.205  18.055  14.059
52893W        W25961   8.769  34.149  14.391
52894W        W25962  10.876  42.490  14.469
52895W        W25963  32.456  27.005  12.382
52896W        W25964  39.000   6.931  11.449
52897W        W25965   0.321  38.822  13.619
52898W        W25966   2.819  38.824   4.336
52899W        W25967  42.320  28.858  10.545
52900W        W25968  42.326   5.463   3.264
52901W        W25969  14.257  14.049   2.445
52902W        W25970  41.235  32.011   4.839
52903W        W25971  21.637  35.102   4.490
52904W        W25972  40.535  13.864   3.265
52905W        W25973  43.874  16.656   2.450
52906W        W25974   0.768  25.840  13.629
52907W        W25975   6.456  33.932   2.756
52908W        W25976  28.345  30.135  13.335
52909W        W25977  41.322  10.282  14.494
52910W        W25978   8.805  19.792   2.727
52911W        W25979  20.763  12.051  11.261
52912W        W25980  32.908  35.502  11.639
52913W        W25981   4.277   5.943  14.203
52914W        W25982  12.283  12.906  11.992
52915W        W25983  36.660  30.992   0.758
52916W        W25984  24.539  22.567   3.398
52917W        W25985   6.957  25.097  10.739
52918W        W25986  35.959  24.579  12.118
52919W        W25987  13.691  39.418   2.813
52920W        W25988  42.563  15.235  14.412
52921W        W25989   8.086  13.277  13.466
52922W        W25990  16.077  19.296   1.334
52923W        W25991  29.540  41.544  10.499
52924W        W25992  41.648  32.603   3.359
52925W        W25993   6.128  38.935   1.209
52926W        W25994  39.474   8.471   2.032
52927W        W25995   0.787  25.999  13.114
52928W        W25996  19.009  39.394   0.591
52929W        W25997   1.314  40.421   4.018
52930W        W25998  12.834  16.843   1.897
52931W        W25999  25.271  22.627  10.554
52932W        W26000  29.486   0.510   0.330
52933W        W26001  31.092  23.146  10.439
52934W        W26002  13.624   2.388  13.023
52935W        W26003  20.540  23.231   3.344
52936W        W26004  27.596   1.293  12.057
52937W        W26005  28.683  35.509  13.468
52938W        W26006  13.585  10.752  10.983
52939W        W26007  12.421  30.434  11.401
52940W        W26008  22.491   3.873  11.919
52941W        W26009  37.332   2.897  10.345
52942W        W26010  41.326  43.721  10.644
52943W        W26011  39.337   1.483   2.242
52944W        W26012  28.145  13.945  11.036
52945W        W26013  44.395   4.206  13.898
52946W        W26014   7.550   0.979  11.061
52947W        W26015  11.867  27.720   1.811
52948W        W26016   3.908   0.754  10.414
52949W        W26017   7.401  23.744   2.562
52950W        W26018  33.949  14.151   3.225
52951W        W26019  18.050  28.036   1.880
52952W        W26020  44.944  10.583  10.896
52953W        W26021  12.429  27.882  12.149
52954W        W26022  35.391  23.098   3.700
52955W        W26023   4.652  26.883  12.593
52956W        W26024  13.599  11.687   1.662
52957W        W26025   0.453  33.088   2.333
52958W        W26026  12.199  38.972  11.522
52959W        W26027   3.356  40.651   0.177
52960W        W26028   5.820  22.515  14.468
52961W        W26029  42.309  32.490  12.324
52962W        W26030  41.995  40.915  14.850
52963W        W26031  42.149  39.908  12.065
52964W        W26032   4.401  35.946   3.766
52965W        W26033   6.327  16.740   1.247
52966W        W26034  37.885  15.690  13.854
52967W        W26035  35.879  19.067   4.823
52968W        W26036  41.249   1.672  13.973
52969W        W26037   2.723  36.409   4.334
52970W        W26038   6.393  22.103  12.914
52971W        W26039  10.381  40.648  12.526
52972W        W26040  25.762   3.278   1.883
52973W        W26041  42.829   8.682  10.365
52974W        W26042  40.880  24.260   0.478
52975W        W26043  37.170  13.439  13.680
52976W        W26044  11.247  43.964  14.434
52977W        W26045   4.746  25.428  11.989
52978W        W26046  44.116   9.933   1.303
52979W        W26047  34.217  32.072  10.682
52980W        W26048  40.814  25.958  11.374
52981W        W26049  16.131   5.817   0.482
52982W        W26050  26.326   5.054  14.814
52983W        W26051  20.788  33.499   3.140
52984W        W26052  42.738  23.142   2.207
52985W        W26053  21.155  16.505  14.369
52986W        W26054  13.365  36.387   2.254
52987W        W26055  38.792  12.005   3.228
52988W        W26056  26.946  15.662   3.244
52989W        W26057  21.590  13.467  11.946
52990W        W26058  34.352  14.612   2.206
52991W        W26059  29.588  22.676  14.932
52992W        W26060   9.264   4.000  11.913
52993W        W26061  15.537  26.064   2.806
52994W        W26062  40.365  11.895  11.432
52995W        W26063  14.206  32.885   0.871
52996W        W26064  23.195  10.628  13.829
52997W        W26065  27.558  22.578  12.765
52998W        W26066  18.277  11.340   1.429
52999W        W26067  27.828  13.569   2.457
53000W        W26068   3.800  44.944  14.050
53001W        W26069   7.764  20.329  14.821
53002W        W26070  19.988   8.762  12.942
53003W        W26071  17.000  13.348  14.526
53004W        W26072  22.241  15.683   3.618
53005W        W26073  34.515  16.238   4.587
53006W        W26074   5.350  11.831   1.266
53007W        W26075  22.544  30.892   1.468
53008W        W26076   6.856  36.957  14.259
53009W        W26077   2.163  22.711  10.717
53010W        W26078   0.120  43.765  10.432
53011W        W26079   2.683  25.930   4.166
53012W        W26080  27.497  13.335  13.530
53013W        W26081  23.722  18.754   3.247
53014W        W26082  37.449  29.008   3.175
53015W        W26083   4.783  18.728  11.950
53016W        W26084  25.833   6.106   2.259
53017W        W26085  42.792  41.438  12.896
53018W        W26086   2.773   2.308   1.293
53019W        W26087  20.071  12.873   3.217
53020W        W26088  44.972   0.843  12.647
53021W        W26089  31.513  17.622   3.448
53022W        W26090  38.647  17.825  12.489
53023W        W26091  27.459   0.128   3.574
53024W        W26092  14.759  21.594  13.755
53025W        W26093  11.715  37.447  13.893
53026W        W26094   9.747   7.895   0.907
53027W        W26095  25.989  40.467  10.554
53028W        W26096  29.046  11.023  11.956
53029W        W26097  13.299  38.312   0.897
53030W        W26098  15.129   9.384   2.789
53031W        W26099  40.811   3.752   0.441
53032W        W26100  19.599  11.652   0.251
53033W        W26101  20.277  14.882  11.176
53034W        W26102  26.234  12.079  13.439
53035W        W26103  14.806   9.584  11.579
53036W        W26104  22.843  44.948   4.677
53037W        W26105   2.766   3.815  12.096
53038W        W26106  43.724   4.359  11.065
53039W        W26107  31.642  32.094  11.176
53040W        W26108  19.296  30.928   4.551
53041W        W26109  33.356  19.510  12.053
53042W        W26110  17.256   1.349  10.674
53043W        W26111  27.550  12.215   4.789
53044W        W26112   1.834  44.895  11.691
53045W        W26113  42.435  44.588   2.617
53046W        W26114  14.701  26.130  12.870
53047W        W26115  14.338   6.176  14.960
53048W        W26116  26.425  42.319  12.890
53049W        W26117  25.546  14.172  11.878
53050W        W26118  40.501  30.175  12.416
53051W        W26119   1.419  31.552  14.908
53052W        W26120  13.763   0.784  13.114
53053W        W26121  35.567   2.927  12.069
53054W        W26122  31.620   7.277  14.824
53055W        W26123  16.311  44.881   3.080
53056W        W26124  43.760  34.457  12.132
53057W        W26125  10.733  35.834   1.237
53058W        W26126  18.963   5.798   3.214
53059W        W26127   0.361  25.407   0.940
53060W        W26128  35.885  17.885  11.127
53061W        W26129   7.222  12.783   1.935
53062W        W26130  25.481  20.500   4.584
53063W        W26131   2.448  24.773   4.580
53064W        W26132  31.031  21.149   1.348
53065W        W26133   8.209  37.909   1.439
53066W        W26134  40.208  15.220   4.942
53067W        W26135  15.178  41.877  10.929
53068W        W26136  20.512   1.027  14.754
53069W        W26137  34.384  15.230   1.835
53070W        W26138  34.972  10.426   3.212
53071W        W26139  30.871   1.860  10.231
53072W        W26140   4.651  42.814  10.488
53073W        W26141  11.206   4.757   2.702
53074W        W26142  17.344  14.217  14.262
53075W        W26143   4.270  33.577   0.753
53076W        W26144  30.064  19.962   1.477
53077W        W26145  28.599  12.863  14.109
53078W        W26146  44.384   6.188  14.975
53079W        W26147  26.192  42.570  13.334
53080W        W26148  25.418  28.349   3.739
53081W        W26149  33.080  19.052  11.398
53082W        W26150  24.658  38.990   2.295
53083W        W26151  10.712   0.355   3.676
53084W        W26152  32.494  29.906   2.270
53085W        W26153  42.861  30.287  10.802
53086W        W26154  32.718  30.368  11.949
53087W        W26155  24.884   4.465   4.787
53088W        W26156  16.372  16.847   1.724
53089W        W26157   0.395   7.823   3.132
53090W        W26158  30.945  36.134  10.574
53091W        W26159  42.754  29.192  12.465
53092W        W26160  22.520  34.260  11.974
53093W        W26161   4.914  19.151   4.742
53094W        W26162  37.375  40.743   4.222
53095W        W26163  40.812  38.473  14.336
53096W        W26164  14.777  13.470  13.464
53097W        W26165  37.141  43.947   3.389
53098W        W26166  15.949  36.054   0.428
53099W        W26167  14.786   4.449   1.327
53100W        W26168  24.600  15.807  11.964
53101W        W26169  11.613   8.697  11.118
53102W        W26170   4.424  15.703   1.847
53103W        W26171  40.275   8.588   0.901
53104W        W26172  38.355  40.167  13.132
53105W        W26173  44.920  32.372   4.843
53106W        W26174  10.778  10.145  13.060
53107W        W26175  32.419  26.194  13.550
53108W        W26176   5.444  44.656  13.350
53109W        W26177   3.896   3.730  14.780
53110W        W26178  25.224   4.766  11.981
53111W        W26179  12.899  25.078   2.214
53112W        W26180  31.858  39.644  11.612
53113W        W26181  40.951  29.093  11.417
53114W        W26182  33.175   3.527  11.383
53115W        W26183   9.826  40.018   0.004
53116W        W26184  15.773  11.942  11.110
53117W        W26185  40.784  18.405   4.241
53118W        W26186  33.587  29.925  12.806
53119W        W26187  13.867   8.721   2.785
53120W        W26188  38.979  15.215   1.164
53121W        W26189  24.775  39.393   0.957
53122W        W26190  43.965   2.379  13.959
53123W        W26191  10.248  18.478   2.820
53124W        W26192  42.256  13.669  10.395
53125W        W26193   1.753  44.925  11.187
53126W        W26194  26.690  36.213   5.138
53127W        W26195  31.121  31.775   0.136
53128W        W26196  27.865  26.732   0.951
53129W        W26197  21.599  41.436  11.131
53130W        W26198   0.919  43.731   3.121
53131W        W26199  25.042  44.447   2.900
53132W        W26200  12.665  26.983   4.164
53133W        W26201  19.988  27.560  10.518
53134W        W26202  30.426  35.032  10.589
53135W        W26203  31.191  33.814   0.052
53136W        W26204  30.909  23.043   2.680
53137W        W26205  35.181  13.977   2.872
53138W        W26206  17.036   2.809  13.559
53139W        W26207  16.595   0.721   1.854
53140W        W26208   6.526  20.688  12.948
53141W        W26209  14.218  16.230   0.444
53142W        W26210  21.047  26.004   0.622
53143W        W26211  44.275  41.715   1.640
53144W        W26212  13.884  15.073  11.805
53145W        W26213   2.767  40.256   1.777
53146W        W26214  13.324   0.912  13.364
53147W        W26215   2.913  36.033  10.631
53148W        W26216   2.226  15.652  12.511
53149W        W26217  26.917  30.579   5.095
53150W        W26218  24.983  41.069  11.017
53151W        W26219  18.666  10.690  12.010
53152W        W26220   8.608  18.815   0.371
53153W        W26221  30.924  29.096   2.315
53154W        W26222  41.343  37.263  14.387
53155W        W26223  10.880  41.840   1.287
53156W        W26224  10.549   8.347   2.806
53157W        W26225   0.413   6.334  12.447
53158W        W26226  30.182  42.666   0.080
53159W        W26227  42.080  31.430  12.924
53160W        W26228  37.342  28.660  13.328
53161W        W26229  29.729  36.042   4.257
53162W        W26230  35.804  22.632  13.339
53163W        W26231  15.740   3.234  11.472
53164W        W26232  10.307  43.751  13.938
53165W        W26233  13.381  37.374  12.544
53166W        W26234  11.913  17.537  12.921
53167W        W26235   6.620   4.718   2.449
53168W        W26236  27.965  17.585   1.814
53169W        W26237  20.000  36.512   2.179
53170W        W26238  18.364  23.652  12.945
53171W        W26239  24.893  11.640  11.412
53172W        W26240  19.779  30.533  14.860
53173W        W26241  39.012  24.652   2.125
53174W        W26242  37.496  23.331  12.357
53175W        W26243  24.309  44.020  13.338
53176W        W26244  15.795   7.982  10.812
53177W        W26245   3.523  27.723   2.173
53178W        W26246  13.167  37.877   3.893
53179W        W26247  19.754  38.672  13.641
53180W        W26248  20.190  26.135  12.000
53181W        W26249   0.286  13.317  10.797
53182W        W26250  29.576  30.231  12.797
53183W        W26251  21.853  25.575   4.146
53184W        W26252  32.906   7.281  11.770
53185W        W26253   4.851  22.432   3.204
53186W        W26254  23.202  41.379  13.590
53187W        W26255   0.935  38.930   1.388
53188W        W26256  26.049  35.347   3.730
53189W        W26257   6.355   5.152   0.749
53190W        W26258  37.776   5.476  10.921
53191W        W26259   1.876   5.232  11.771
53192W        W26260  15.729  18.968   2.258
53193W        W26261   0.816  33.666   2.783
53194W        W26262  16.779   2.243   2.811
53195W        W26263   9.491   4.266  10.690
53196W        W26264  31.186  20.349   4.059
53197W        W26265  35.880  14.009   2.340
53198W        W26266  19.247  16.020  13.918
53199W        W26267  35.171  39.019  13.337
53200W        W26268  26.040  17.132   2.662
53201W        W26269  28.521   4.775  13.478
53202W        W26270  38.860  31.187  14.298
53203W        W26271  42.962  32.650  14.400
53204W        W26272   4.365  11.899   0.186
53205W        W26273  14.298  39.266  13.111
53206W        W26274  17.711  37.461  11.906
53207W        W26275  10.235  11.934   0.383
53208W        W26276   4.373  29.033  11.024
53209W        W26277   9.231  27.511  10.737
53210W        W26278  25.390   7.159  12.567
53211W        W26279   4.915   4.907  13.799
53212W        W26280  29.515   9.294   3.943
53213W        W26281  24.297   3.907  12.837
53214W        W26282   1.882  24.602  10.623
53215W        W26283  15.067  39.543  11.415
53216W        W26284  41.332   8.755   3.724
53217W        W26285  38.100   5.165  14.568
53218W        W26286  39.596   4.497   3.742
53219W        W26287  27.916  41.418  10.413
53220W        W26288   1.379  16.070   4.593
53221W        W26289  15.240   9.341   1.162
53222W        W26290  25.397  17.566   3.356
53223W        W26291  43.303   2.716   1.894
53224W        W26292  38.813  28.960   2.361
53225W        W26293  20.815   4.785   0.539
53226W        W26294  26.594  17.121   2.688
53227W        W26295   3.729  32.830   1.239
53228W        W26296   4.258  22.722  12.978
53229W        W26297   7.892  44.795  10.724
53230W        W26298  17.819  44.344  12.623
53231W        W26299  28.533  13.598  13.021
53232W        W26300  31.449  13.417   2.772
53233W        W26301  34.883  31.058   4.366
53234W        W26302   4.182   7.968   3.102
53235W        W26303  31.473  41.161   1.255
53236W        W26304  16.175  11.977  14.501
53237W        W26305  33.313   4.637   4.649
53238W        W26306  35.477  15.103   1.007
53239W        W26307   7.472  29.587  11.549
53240W        W26308  30.138  44.129  12.889
53241W        W26309  31.916  11.883  12.337
53242W        W26310  15.195   3.764   4.177
53243W        W26311  42.249   2.830  11.229
53244W        W26312  24.992   4.447   3.382
53245W        W26313  26.678  40.576  11.774
53246W        W26314   8.910  39.873   2.813
53247W        W26315  36.463  28.210  12.076
53248W        W26316   8.774   5.859  13.366
53249W        W26317  25.422  28.109  13.801
53250W        W26318   3.215  38.272  13.592
53251W        W26319   0.413  30.905   1.831
53252W        W26320   1.242   5.717  12.997
53253W        W26321  20.518  35.082  11.421
53254W        W26322  26.614  37.563  11.705
53255W        W26323  26.660   5.441   1.280
53256W        W26324  41.480  30.817   3.687
53257W        W26325  42.804  38.735   3.695
53258W        W26326  31.505  27.602  12.178
53259W        W26327  31.181   1.853   4.391
53260W        W26328  18.614   8.179  10.721
53261W        W26329  36.077  36.416   4.073
53262W        W26330   5.462  15.363  13.414
53263W        W26331  19.350   3.235  11.077
53264W        W26332  32.524  24.121  12.128
53265W        W26333   3.685   3.654   3.969
53266W        W26334   1.459   3.390   3.902
53267W        W26335  37.080  43.892   1.138
53268W        W26336  42.793  16.564  10.667
53269W        W26337   4.200  36.558  12.922
53270W        W26338  40.327  37.976   2.080
53271W        W26339  44.470  18.549  13.220
53272W        W26340  10.095  40.076  13.370
53273W        W26341   0.009  33.108  14.971
53274W        W26342  12.388   5.303   4.937
53275W        W26343  13.746  39.253  11.362
53276W        W26344  21.549  21.321  13.467
53277W        W26345   1.505  22.191  11.107
53278W        W26346  44.641  33.877   3.713
53279W        W26347  20.023  43.391  14.421
53280W        W26348  36.518  25.177   2.989
53281W        W26349  42.842  34.889  12.018
53282W        W26350  15.468  30.056  14.963
53283W        W26351  42.295  42.670  11.617
53284W        W26352  29.880  12.596  11.450
53285W        W26353   9.191  37.327   2.187
53286W        W26354  13.989  23.497  12.952
53287W        W26355  21.297  36.296  13.769
53288W        W26356  24.224  37.822  12.482
53289W        W26357  40.951   7.573  12.841
53290W        W26358  37.327  32.692  10.251
53291W        W26359  25.723  12.008   5.094
53292W        W26360   1.350  42.059  13.926
53293W        W26361   7.626  19.891   4.747
53294W        W26362  33.352   6.719  14.951
53295W        W26363  20.663  11.667   3.291
53296W        W26364  13.752  28.542  14.017
53297W        W26365  26.123  34.874  14.785
53298W        W26366  39.040  29.690   3.752
53299W        W26367  18.473  22.595  14.538
53300W        W26368  42.535  21.670  11.489
53301W        W26369  34.578   8.235   3.670
53302W        W26370  27.178  19.136  14.513
53303W        W26371  43.266  22.664  12.056
53304W        W26372  19.736   1.836  11.197
53305W        W26373  10.840   3.295   0.948
53306W        W26374  29.131  21.066   1.829
53307W        W26375  26.174  30.164   1.905
53308W        W26376  32.336  30.084   0.888
53309W        W26377  27.993  22.242  10.383
53310W        W26378  27.253  25.466  13.290
53311W        W26379  11.727  19.384   4.942
53312W        W26380   2.272  35.097   2.949
53313W        W26381  33.259  12.816  13.720
53314W        W26382   4.201   8.727  14.904
53315W        W26383  25.642   7.439   2.874
53316W        W26384  33.905  37.557  14.891
53317W        W26385  19.527  10.723  11.631
53318W        W26386   4.932  11.355   4.729
53319W        W26387  27.988  37.601   3.512
53320W        W26388  19.524  22.246  13.894
53321W        W26389  22.592  11.429   0.558
53322W        W26390  11.752   2.072   9.954
53323W        W26391  23.502   5.314  12.051
53324W        W26392  44.786  33.778   1.148
53325W        W26393  32.391  16.083   3.305
53326W        W26394  28.481  26.573  11.178
53327W        W26395  23.693  21.084   0.366
53328W        W26396  28.940  37.476   1.260
53329W        W26397   5.940  38.912   1.706
53330W        W26398   1.936  22.462  12.533
53331W        W26399  14.923  17.612   2.750
53332W        W26400   2.426  24.933  13.467
53333W        W26401  18.380   1.614   0.635
53334W        W26402   7.262  36.803  11.045
53335W        W26403   2.138  20.351  14.454
53336W        W26404  35.913  15.731   3.427
53337W        W26405  19.742   9.179   4.820
53338W        W26406   8.784  20.305   2.605
53339W        W26407  37.855   8.754   5.038
53340W        W26408  36.438  25.572   4.853
53341W        W26409  20.497  36.910   4.134
53342W        W26410  13.292   0.723   2.361
53343W        W26411   0.936  10.774  12.934
53344W        W26412  16.016  23.416  14.916
53345W        W26413  21.099  27.134  14.464
53346W        W26414  30.896  35.338   1.130
53347W        W26415  25.962  31.638   2.912
53348W        W26416  36.842  11.871  12.003
53349W        W26417  19.265  27.363  14.953
53350W        W26418   6.191  27.440  13.968
53351W        W26419  34.069  25.027   2.224
53352W        W26420  22.638  10.211   4.601
53353W        W26421   6.757  20.028  11.399
53354W        W26422   5.260  28.644   2.604
53355W        W26423  20.310  20.157   4.605
53356W        W26424   2.835  40.475   3.660
53357W        W26425  34.893   7.447  12.912
53358W        W26426  39.834  14.490  13.656
53359W        W26427   0.737  22.636  10.920
53360W        W26428  28.172  20.960  10.696
53361W        W26429   9.273  18.524   9.968
53362W        W26430  32.673  29.459  11.222
53363W        W26431  41.592   5.784   2.764
53364W        W26432  10.252  19.068  11.865
53365W        W26433  40.630   6.199  13.452
53366W        W26434  19.558  41.905   1.862
53367W        W26435  15.855   0.936   3.325
53368W        W26436  22.097  39.948  11.827
53369W        W26437  22.971   7.928  13.134
53370W        W26438  23.223  41.127   4.205
53371W        W26439  35.578  41.803   3.854
53372W        W26440   0.406  39.803  11.974
53373W        W26441  15.923  43.605   1.671
53374W        W26442   1.708  37.091  10.563
53375W        W26443  18.690   3.345  14.024
53376W        W26444  29.553  14.383   0.379
53377W        W26445  36.258  34.783  10.529
53378W        W26446  22.794  20.036   3.227
53379W        W26447  40.798  21.000   4.132
53380W        W26448  38.954  36.924   2.296
53381W        W26449  40.447  42.961  13.045
53382W        W26450  38.886  42.451   4.062
53383W        W26451  36.119  40.961   4.859
53384W        W26452  10.044   3.681  12.475
53385W        W26453  15.030  36.244  10.076
53386W        W26454  36.010  34.879  11.469
53387W        W26455  25.919  15.531   2.031
53388W        W26456   3.195  33.360   3.773
53389W        W26457  24.239   7.223  12.817
53390W        W26458  43.396  13.668   3.729
53391W        W26459  43.461   3.132   2.800
53392W        W26460  41.896  11.165  11.533
53393W        W26461  29.907  41.971  12.322
53394W        W26462   9.062  31.871   2.784
53395W        W26463   7.753  12.567   4.669
53396W        W26464  30.396  16.610   3.393
53397W        W26465   2.198   9.333  13.960
53398W        W26466  25.695  39.397  12.533
53399W        W26467  18.434  21.724  11.290
53400W        W26468   8.828  44.334  12.102
53401W        W26469  23.808  19.165   0.905
53402W        W26470   5.166  21.598   1.530
53403W        W26471  43.291  26.642   2.304
53404W        W26472  21.784   2.923  12.309
53405W        W26473  12.725   0.384   2.574
53406W        W26474  42.496  17.616  14.382
53407W        W26475   7.872   8.661  14.345
53408W        W26476  43.809  15.609  10.509
53409W        W26477  14.693  42.894  11.115
53410W        W26478  19.756  21.577   3.280
53411W        W26479  25.393  36.886  13.905
53412W        W26480  34.023   6.381  13.249
53413W        W26481  11.175  38.815  12.322
53414W        W26482  28.273  41.773   0.919
53415W        W26483  37.944  16.698  14.331
53416W        W26484   1.940  30.528  11.256
53417W        W26485  25.756   2.443   0.792
53418W        W26486  17.233  35.943   2.336
53419W        W26487  30.733  28.468  11.664
53420W        W26488  31.197  33.480   2.398
53421W        W26489  11.837  40.542   4.628
53422W        W26490   4.995  22.236  10.819
53423W        W26491  23.069   7.833   1.368
53424W        W26492   1.254  13.624   3.286
53425W        W26493  10.864   6.135  13.820
53426W        W26494  26.896   4.907   3.301
53427W        W26495  15.777   2.857   4.897
53428W        W26496  22.496  14.798   0.879
53429W        W26497  27.420  13.225   3.822
53430W        W26498  20.719  26.070  12.669
53431W        W26499   5.510  31.496  13.511
53432W        W26500  21.536  21.287   4.288
53433W        W26501  27.698  44.769  11.159
53434W        W26502  39.519  43.300   4.838
53435W        W26503  34.551  38.435   0.733
53436W        W26504  33.439  26.864   1.885
53437W        W26505  29.770  34.540  11.569
53438W        W26506  42.705  33.520   3.722
53439W        W26507  35.819  21.538   0.861
53440W        W26508  28.659  18.826   2.794
53441W        W26509  18.267  23.777   3.381
53442W        W26510  27.902  37.272   3.908
53443W        W26511  37.906  22.903  14.043
53444W        W26512   2.472  19.784   1.172
53445W        W26513  23.282   3.823   1.789
53446W        W26514   3.871  38.813  11.130
53447W        W26515  11.372  12.907   4.380
53448W        W26516  39.343  43.739   3.204
53449W        W26517  18.794  20.332  12.421
53450W        W26518   9.623   3.474   0.541
53451W        W26519  17.841   6.486  13.888
53452W        W26520  43.152  41.024   0.767
53453W        W26521  29.924  32.569   0.771
53454W        W26522  21.191  34.131   1.455
53455W        W26523  36.518   6.323   0.205
53456W        W26524  18.416  29.628   4.748
53457W        W26525  31.010   7.451  12.097
53458W        W26526  23.988  17.198   2.402
53459W        W26527  26.700  16.611   2.778
53460W        W26528   8.947  34.362  10.371
53461W        W26529  19.127  19.492  14.922
53462W        W26530  32.437   8.172  12.068
53463W        W26531   4.814  19.073  12.425
53464W        W26532   0.258  42.293  14.409
53465W        W26533  40.631  30.136   4.123
53466W        W26534  35.257  21.285  11.088
53467W        W26535  19.795   5.266  11.061
53468W        W26536  43.445  15.559   9.977
53469W        W26537  34.378  37.515  11.409
53470W        W26538  30.475  29.189   0.833
53471W        W26539  16.432  33.383  13.467
53472W        W26540  42.083   0.420   4.527
53473W        W26541  44.570  29.995  12.550
53474W        W26542  42.967   8.818  13.515
53475W        W26543  27.187  34.485   1.770
53476W        W26544   9.700  35.410  12.963
53477W        W26545  30.404  28.410   2.286
53478W        W26546  36.571  13.019  12.472
53479W        W26547  21.397  24.745  11.534
53480W        W26548  10.362   3.185   2.916
53481W        W26549  42.715  17.756   3.658
53482W        W26550  24.189  39.559  14.638
53483W        W26551  34.759  40.091  10.289
53484W        W26552  17.043  18.780  11.339
53485W        W26553  39.410  29.744  11.558
53486W        W26554   8.910  31.424   1.930
53487W        W26555  15.525  16.799  14.771
53488W        W26556  26.939  23.362   1.646
53489W        W26557  32.610   9.916   0.512
53490W        W26558  44.345  42.902  13.452
53491W        W26559  15.682   4.888   4.300
53492W        W26560   8.803  37.643   0.949
53493W        W26561  16.222  16.557  12.078
53494W        W26562   7.842  41.294  14.805
53495W        W26563  28.550   1.444  10.681
53496W        W26564  42.163  41.068   0.542
53497W        W26565  10.631   1.676  14.306
53498W        W26566  11.397  43.122   5.077
53499W        W26567  35.150  20.539   2.036
53500W        W26568  40.708  16.313   2.354
53501W        W26569  24.234  12.193  11.620
53502W        W26570  12.688   4.190   4.301
53503W        W26571  24.603   9.366   4.702
53504W        W26572   5.639  18.347  14.551
53505W        W26573  39.453  34.210  13.742
53506W        W26574  39.041  23.157  12.971
53507W        W26575  16.750  38.446  12.611
53508W        W26576  44.310  36.993  10.401
53509W        W26577  41.356  15.832   2.726
53510W        W26578   8.766  10.606   1.921
53511W        W26579  36.894  10.121   1.452
53512W        W26580   3.396  25.313  12.432
53513W        W26581  37.312   3.287   3.727
53514W        W26582  33.565  44.830  11.703
53515W        W26583   7.269  10.355  11.086
53516W        W26584  28.882  36.612  14.770
53517W        W26585  10.865   4.289   4.704
53518W        W26586   0.371   8.684  10.960
53519W        W26587  14.187  25.115  13.567
53520W        W26588  27.714  10.341   0.704
53521W        W26589  36.406  30.168  12.475
53522W        W26590  31.394  21.647  14.427
53523W        W26591  41.286  24.965   3.239
53524W        W26592   5.424  22.160   2.332
53525W        W26593  26.210  33.883   4.341
53526W        W26594  33.496  16.800  11.604
53527W        W26595   1.281  44.431  10.607
53528W        W26596  29.408  17.634   3.661
53529W        W26597  14.820  14.093   2.912
53530W        W26598  20.259  12.268  14.506
53531W        W26599  40.883  32.923  14.038
53532W        W26600  22.156  35.577  14.567
53533W        W26601  17.279  16.132   3.093
53534W        W26602   8.321  36.947  14.402
53535W        W26603  17.372  36.104   2.805
53536W        W26604  36.736  13.412   5.015
53537W        W26605   4.420  38.296   0.442
53538W        W26606   1.313  30.539  14.844
53539W        W26607  44.447  22.677   9.991
53540W        W26608  23.111  12.301   3.467
53541W        W26609  41.872  21.236  14.789
53542W        W26610   1.241   2.514  14.003
53543W        W26611  41.318  38.648  11.165
53544W        W26612  44.190  24.100   3.764
53545W        W26613  16.824  33.588   4.541
53546W        W26614   0.800  28.915  12.796
53547W        W26615  30.911   5.345   4.010
53548W        W26616  30.970  27.445   0.384
53549W        W26617  22.149   6.057   2.439
53550W        W26618  21.201   5.826  14.799
53551W        W26619  34.364  15.117  10.516
53552W        W26620   3.622  29.985  13.826
53553W        W26621  23.514  21.808   3.307
53554W        W26622  38.852   1.718  11.105
53555W        W26623  27.738  10.461  14.237
53556W        W26624  36.841  40.618  10.971
53557W        W26625  25.023  19.221  12.569
53558W        W26626  21.043  36.353   3.175
53559W        W26627  11.696  34.417  11.868
53560W        W26628  16.220  21.478   3.187
53561W        W26629  31.651  44.408   2.806
53562W        W26630  43.261  44.451   4.282
53563W        W26631   1.389  11.845  10.550
53564W        W26632  12.573  21.234  12.050
53565W        W26633   1.242   3.863   4.132
53566W        W26634   7.268  26.453  14.838
53567W        W26635  29.710  27.089   1.411
53568W        W26636  27.666   1.727  14.941
53569W        W26637  29.392  29.447   2.643
53570W        W26638   6.295   1.931  14.154
53571W        W26639  19.056  11.992   3.333
53572W        W26640  18.433  20.172  11.672
53573W        W26641  37.500  12.580  13.884
53574W        W26642  10.222  15.747   3.619
53575W        W26643   7.189  43.257  11.066
53576W        W26644  14.824  10.712   4.498
53577W        W26645  33.854   9.761   3.672
53578W        W26646  34.945  28.720  10.464
53579W        W26647  26.174  15.107   1.890
53580W        W26648  17.206  19.751  10.553
53581W        W26649  19.100  28.914  12.866
53582W        W26650   5.004  39.488  14.356
53583W        W26651  37.097  14.738  14.959
53584W        W26652  15.046  33.477   2.018
53585W        W26653  26.058  32.589   0.245
53586W        W26654  25.269  27.567   4.314
53587W        W26655  38.310   6.303  12.357
53588W        W26656  10.832  23.700  14.208
53589W        W26657   0.370  29.086  12.389
53590W        W26658   6.805  43.917   3.695
53591W        W26659  42.773  35.098   1.815
53592W        W26660  31.042  43.277   2.369
53593W        W26661   7.131   7.699  11.609
53594W        W26662  26.629  28.905   2.779
53595W        W26663   3.240  11.519   2.398
53596W        W26664  14.166  10.124  10.600
53597W        W26665  35.068  35.560   2.939
53598W        W26666  37.218  32.099   4.971
53599W        W26667  10.849  26.913   1.891
53600W        W26668  32.123   5.101  11.552
53601W        W26669  14.149  16.324   1.908
53602W        W26670  21.608  42.899   1.686
53603W        W26671  21.938   7.011  11.673
53604W        W26672  37.763  10.330   1.179
53605W        W26673  26.904   1.351   0.094
53606W        W26674  14.761   4.289  14.035
53607W        W26675   2.451   7.120   3.041
53608W        W26676  26.001  35.965   0.447
53609W        W26677  26.536  28.673   4.099
53610W        W26678  39.318  33.904  13.331
53611W        W26679  10.178  11.152  13.061
53612W        W26680  17.311  16.202  12.846
53613W        W26681  11.172  21.633   1.905
53614W        W26682  34.992   0.501  12.397
53615W        W26683   1.713  40.345   0.980
53616W        W26684  41.313  39.460  14.827
53617W        W26685  41.471  17.685   0.073
53618W        W26686  12.476   0.642  13.370
53619W        W26687  10.225  43.372   3.753
53620W        W26688   5.450  32.042  13.460
53621W        W26689   4.867  34.616   3.293
53622W        W26690  19.151  29.920  14.324
53623W        W26691  24.939   5.669  14.320
53624W        W26692  18.526  10.556  14.425
53625W        W26693  28.540   3.408  11.963
53626W        W26694   1.462  31.038  14.839
53627W        W26695  12.511  35.096  10.666
53628W        W26696  23.212  23.016  12.704
53629W        W26697  12.696   5.352  10.411
53630W        W26698  23.757   7.814   2.664
53631W        W26699  24.246  35.989   3.567
53632W        W26700  36.498   8.867   2.858
53633W        W26701  30.699  15.933  10.224
53634W        W26702  28.066   0.920  14.067
53635W        W26703   7.384  41.548  12.074
53636W        W26704   6.847  39.515  14.865
53637W        W26705  10.583   2.953  14.594
53638W        W26706  43.434  35.112   3.339
53639W        W26707   6.214  11.555   3.318
53640W        W26708  38.404  24.944  13.860
53641W        W26709  25.519  26.952   3.014
53642W        W26710  39.920  40.056   4.380
53643W        W26711  44.506  25.595  10.673
53644W        W26712  14.383   9.161   0.940
53645W        W26713  12.641  25.612   4.596
53646W        W26714  37.565  26.464  13.179
53647W        W26715  39.941   9.254  11.947
53648W        W26716  26.590  32.349   3.247
53649W        W26717  21.821  16.906  11.057
53650W        W26718  17.794  41.805   4.334
53651W        W26719  39.940  27.991  11.536
53652W        W26720  34.082  12.864  10.788
53653W        W26721   5.493  20.484   0.377
53654W        W26722  21.084  31.924  12.958
53655W        W26723  21.145  43.529   2.406
53656W        W26724   1.586  29.518  13.442
53657W        W26725   9.362   7.394   2.664
53658W        W26726  21.868   7.721  14.472
53659W        W26727  32.544   2.799  11.534
53660W        W26728  13.407  21.666  12.830
53661W        W26729  23.603  33.425   1.860
53662W        W26730  27.519  16.574   1.393
53663W        W26731  38.012  15.786   4.535
53664W        W26732  28.530  12.887   2.873
53665W        W26733  26.649  15.736   0.288
53666W        W26734  27.055  24.414  13.462
53667W        W26735  16.872  15.623   1.641
53668W        W26736   5.838  41.345   2.865
53669W        W26737   3.817  26.241  10.417
53670W        W26738  32.219   9.151  13.453
53671W        W26739  17.869  22.586  10.024
53672W        W26740  27.971  43.774  11.119
53673W        W26741  30.680  43.128  12.549
53674W        W26742   8.651  41.035  12.469
53675W        W26743   3.383  32.636   0.813
53676W        W26744   2.751  20.258  13.283
53677W        W26745   3.849   1.480  10.900
53678W        W26746  32.585  27.682   4.082
53679W        W26747   9.204  21.780  14.832
53680W        W26748  18.927  16.119   0.218
53681W        W26749   2.019  25.939  11.313
53682W        W26750   4.359  20.216   1.255
53683W        W26751   9.789  28.701   1.068
53684W        W26752  20.276  28.110   2.916
53685W        W26753  40.011  32.544  14.183
53686W        W26754  16.368  42.644   2.913
53687W        W26755   5.806  24.645   1.293
53688W        W26756   2.900  37.978   0.330
53689W        W26757  23.877  23.083   3.834
53690W        W26758  42.360   7.796   3.556
53691W        W26759  36.094  11.741   2.811
53692W        W26760  14.842   7.807  14.265
53693W        W26761  22.007  40.054  13.248
53694W        W26762  28.151  10.700   4.175
53695W        W26763   0.232  22.582   1.164
53696W        W26764  40.951  22.604   3.297
53697W        W26765  37.924  35.672  10.649
53698W        W26766  42.087  31.149  11.587
53699W        W26767   8.196  16.233   4.168
53700W        W26768  22.077  13.063   2.202
53701W        W26769  41.779   2.401   1.468
53702W        W26770  17.646  26.659   3.802
53703W        W26771  28.586  33.958  14.938
53704W        W26772  20.117   0.722  10.281
53705W        W26773  18.661  15.267  10.460
53706W        W26774  27.370  31.933   0.298
53707W        W26775  21.283  24.771  14.564
53708W        W26776  28.092  27.484   0.257
53709W        W26777   5.430  10.242   4.780
53710W        W26778   0.955  38.438   2.638
53711W        W26779   6.006   2.731   4.023
53712W        W26780  17.322  20.825  13.997
53713W        W26781   9.873  20.608  13.464
53714W        W26782  39.899  10.701   0.795
53715W        W26783  25.180  22.482  11.946
53716W        W26784  18.669   8.594   2.373
53717W        W26785  11.100   5.756  11.131
53718W        W26786  33.858   2.455  13.930
53719W        W26787  11.100  21.152  12.633
53720W        W26788  35.597   4.427  13.038
53721W        W26789  31.631  29.911  14.486
53722W        W26790  30.713  28.550   0.871
53723W        W26791  21.545   1.265  13.826
53724W        W26792   0.411  15.055  11.316
53725W        W26793   9.914  15.195  10.780
53726W        W26794   3.228   6.332   0.099
53727W        W26795  19.588  33.551  10.684
53728W        W26796  19.959  19.633  11.712
53729W        W26797  14.455  35.147  13.594
53730W        W26798  14.757  12.121  14.830
53731W        W26799  10.046   6.853   5.077
53732W        W26800   1.238  25.610  11.050
53733W        W26801  27.770  38.462   1.742
53734W        W26802  33.547  30.001   1.389
53735W        W26803   4.640   3.746   3.674
53736W        W26804   5.794  11.892   0.784
53737W        W26805  41.481  22.727  11.446
53738W        W26806  19.548  36.133   2.739
53739W        W26807  41.445  15.654  11.381
53740W        W26808   4.862  17.017  14.678
53741W        W26809  19.169  20.996  10.625
53742W        W26810  25.200  40.099   3.611
53743W        W26811  32.318  28.620  13.680
53744W        W26812  12.831  23.142  12.173
53745W        W26813   6.780  17.984   4.351
53746W        W26814  22.642   5.144  14.756
53747W        W26815  32.809   8.361   4.245
53748W        W26816   5.446  19.073   2.036
53749W        W26817  41.251  22.684   2.892
53750W        W26818  37.398  18.593   4.527
53751W        W26819  22.832  17.570   4.253
53752W        W26820  24.049  31.687   4.682
53753W        W26821   5.861   0.569  12.583
53754W        W26822  44.403  28.669  13.470
53755W        W26823   8.739  20.519   4.244
53756W        W26824  35.075  21.581   2.776
53757W        W26825  35.332  19.142   2.267
53758W        W26826  35.083  38.294  11.229
53759W        W26827  14.039  38.042  11.248
53760W        W26828   0.061  19.337  10.743
53761W        W26829  29.616  31.576   2.272
53762W        W26830  42.795  37.477  13.334
53763W        W26831  38.599  36.900   2.664
53764W        W26832   3.808   9.966   4.185
53765W        W26833  28.035  12.729   5.030
53766W        W26834   5.399  30.696  14.523
53767W        W26835  19.870   4.854  13.518
53768W        W26836  33.656  34.074  10.917
53769W        W26837   5.492   2.109   2.312
53770W        W26838  31.629  31.825  14.405
53771W        W26839  13.105  39.397  14.972
53772W        W26840   5.253  20.446   3.183
53773W        W26841   3.340  40.402  14.199
53774W        W26842  40.307  19.738   1.642
53775W        W26843  22.181  17.276   5.295
53776W        W26844  43.944   1.783   0.455
53777W        W26845  23.526  29.438   0.821
53778W        W26846  23.987  18.731   2.791
53779W        W26847  29.978  34.649   2.543
53780W        W26848   8.878  20.979   3.504
53781W        W26849  14.389  11.163   2.247
53782W        W26850  25.953  31.911   4.247
53783W        W26851  12.164   6.714  12.069
53784W        W26852  19.511  19.639  10.775
53785W        W26853  36.505  41.066   2.857
53786W        W26854  16.994   5.160  10.673
53787W        W26855  21.972  36.546  11.663
53788W        W26856  44.538  22.832  11.373
53789W        W26857  38.206  43.915   4.639
53790W        W26858  37.072  40.146  10.827
53791W        W26859  38.949  16.792   0.692
53792W        W26860   9.159   5.962  11.165
53793W        W26861   2.398  28.689   1.214
53794W        W26862   6.987  43.420   2.345
53795W        W26863  20.568   9.897  13.870
53796W        W26864   4.778   6.336   5.005
53797W        W26865  18.610  32.459   0.648
53798W        W26866  11.734  33.988  11.546
53799W        W26867   4.683  42.454  12.623
53800W        W26868  16.124  42.805   3.755
53801W        W26869   8.623  42.881  12.805
53802W        W26870  27.641   9.652  13.250
53803W        W26871   4.170  16.460  13.967
53804W        W26872  11.145  26.745  11.031
53805W        W26873  12.851  40.006  13.886
53806W        W26874  28.439  18.479  12.896
53807W        W26875  11.236   6.495  13.863
53808W        W26876  32.473  27.647  13.371
53809W        W26877  12.570  10.220   3.735
53810W        W26878  11.734  33.529  10.301
53811W        W26879  22.771  25.629  10.656
53812W        W26880  11.616  18.305  10.676
53813W        W26881  20.095  34.115   2.252
53814W        W26882  19.981  11.330  14.828
53815W        W26883  11.293  44.420  12.396
53816W        W26884  39.152  41.702   1.178
53817W        W26885  26.658  15.657   2.702
53818W        W26886  13.559  41.383   4.709
53819W        W26887   5.661  24.222   3.861
53820W        W26888  42.794  33.356  12.612
53821W        W26889  14.514   0.303  13.799
53822W        W26890   2.314  17.240  10.335
53823W        W26891  17.030   9.243  10.742
53824W        W26892  30.276  35.518  14.503
53825W        W26893  38.678  31.376   3.611
53826W        W26894  34.386   9.741   4.557
53827W        W26895  18.621  16.850   4.087
53828W        W26896   5.653   4.624   3.075
53829W        W26897  23.169  37.024  10.649
53830W        W26898   4.233  41.279   0.549
53831W        W26899  16.304  37.343   1.918
53832W        W26900  15.246  39.283  14.885
53833W        W26901  34.554  23.029  11.128
53834W        W26902   6.819   6.791  12.572
53835W        W26903  33.066   0.774   4.236
53836W        W26904   3.920  24.630  10.648
53837W        W26905  34.347  17.298   2.924
53838W        W26906  31.895   9.143   4.454
53839W        W26907  28.093   8.367   3.585
53840W        W26908   9.394  39.481   4.239
53841W        W26909  26.279  28.293   0.176
53842W        W26910  44.357  41.293  13.157
53843W        W26911  33.303  31.728   1.412
53844W        W26912  15.812  25.773   0.292
53845W        W26913  43.351   3.308  13.998
53846W        W26914  15.859  37.052  13.901
53847W        W26915  11.829  32.864  10.926
53848W        W26916  25.631  34.735   0.655
53849W        W26917  20.270   7.075   2.647
53850W        W26918  35.000  34.928  11.146
53851W        W26919   0.744  39.643  14.049
53852W        W26920  15.452   2.771  11.504
53853W        W26921   6.164  22.326  12.497
53854W        W26922  16.782  32.644   0.861
53855W        W26923   0.085  29.611  14.343
53856W        W26924   7.852  15.147   4.481
53857W        W26925  24.585  10.167  12.008
53858W        W26926  27.920  44.735  13.127
53859W        W26927  38.951   2.800  12.981
53860W        W26928  17.281  43.085   4.105
53861W        W26929  30.150  35.536  13.977
53862W        W26930  41.274  37.514  11.625
53863W        W26931  41.234  29.378   0.694
53864W        W26932  28.565  33.402  13.813
53865W        W26933  42.016  19.357   1.225
53866W        W26934   6.186  39.291  13.262
53867W        W26935  35.000  22.166  12.160
53868W        W26936  26.916  12.193   9.879
53869W        W26937  17.869  11.405  11.963
53870W        W26938  31.125  24.015   1.697
53871W        W26939  35.637  36.862   4.093
53872W        W26940   7.140   1.916  12.048
53873W        W26941  15.948  10.922  14.879
53874W        W26942  20.977  33.592  13.542
53875W        W26943  39.972   8.504  11.579
53876W        W26944  39.069  10.628   3.107
53877W        W26945  37.965  41.885   4.189
53878W        W26946  37.317   3.229  13.837
53879W        W26947   3.001  32.999   0.946
53880W        W26948  33.863  13.766  13.218
53881W        W26949  28.618  40.643   3.852
53882W        W26950  26.955  31.015   4.775
53883W        W26951  10.236   7.180   2.746
53884W        W26952  24.022  43.363  11.601
53885W        W26953  40.676  19.160  12.656
53886W        W26954  13.639  38.966   4.960
53887W        W26955  10.873  30.404  11.928
53888W        W26956  17.770   7.710   1.484
53889W        W26957  21.618  21.632   1.874
53890W        W26958  16.094  26.966   2.663
53891W        W26959  16.464  25.031  12.026
53892W        W26960  28.933  33.665   1.326
53893W        W26961  41.428  41.734  14.022
53894W        W26962  41.556  14.182   3.677
53895W        W26963   0.953  35.732  11.438
53896W        W26964  29.817  12.565   2.960
53897W        W26965  13.343  17.248   4.535
53898W        W26966  13.773  11.755   1.184
53899W        W26967  40.265  25.563  14.494
53900W        W26968   1.478  44.781   1.158
53901W        W26969  22.127  22.668  12.899
53902W        W26970   9.974  16.116  14.036
53903W        W26971  39.894  17.760  13.260
53904W        W26972   0.721  19.028  11.204
53905W        W26973   1.807  39.945   2.559
53906W        W26974  38.980  23.638   4.613
53907W        W26975  37.482   4.841  12.290
53908W        W26976  21.113   2.642   1.206
53909W        W26977   3.020  44.470   1.681
53910W        W26978  42.540  33.106  10.993
53911W        W26979   2.378  24.171   4.988
53912W        W26980   4.003  24.892   4.323
53913W        W26981  28.492  34.424  11.185
53914W        W26982  22.227  35.996   3.646
53915W        W26983  32.420  18.716  10.697
53916W        W26984  26.199  43.330  11.427
53917W        W26985  19.179  44.733  14.435
53918W        W26986  23.266   8.553   3.652
53919W        W26987  14.963   0.833  10.461
53920W        W26988  39.073  10.584  14.363
53921W        W26989   8.244  17.724   0.449
53922W        W26990  21.521  28.283   2.158
53923W        W26991  16.157   6.740   2.416
53924W        W26992   0.469  37.020   2.194
53925W        W26993  30.902  33.904   4.553
53926W        W26994   5.264  32.457  14.090
53927W        W26995  14.851   5.327  14.880
53928W        W26996   9.937   4.944  14.195
53929W        W26997  22.088   6.286  10.956
53930W        W26998  27.941  41.260  14.964
53931W        W26999  26.538  43.254  10.476
53932W        W27000  32.523  33.133  10.704
53933W        W27001   5.421  20.176  11.071
53934W        W27002  13.500   6.895  14.031
53935W        W27003   7.670  20.977  13.574
53936W        W27004  35.054  40.264  13.184
53937W        W27005  43.846  20.136   2.901
53938W        W27006  24.196  31.921   0.430
53939W        W27007  21.704  37.863   1.799
53940W        W27008  43.810  18.600  11.669
53941W        W27009  40.208   3.339  11.978
53942W        W27010  21.917  17.814  14.324
53943W        W27011  35.858  44.432  10.948
53944W        W27012  35.111   0.677   4.900
53945W        W27013  14.668  36.072  14.407
53946W        W27014  30.025  32.884  10.762
53947W        W27015  38.335  32.530   0.864
53948W        W27016   6.194  10.558  12.441
53949W        W27017  22.061   3.884  12.236
53950W        W27018  31.530  24.260  11.832
53951W        W27019  32.415   7.362  12.443
53952W        W27020  11.967   9.156   0.302
53953W        W27021  11.457   4.410  10.192
53954W        W27022  26.669  21.457  13.384
53955W        W27023  27.644   0.058   2.144
53956W        W27024  38.531  23.170   1.422
53957W        W27025  21.207  19.561   0.981
53958W        W27026  11.641  16.792   4.734
53959W        W27027  30.720  22.034   1.411
53960W        W27028  10.368   6.952   1.902
53961W        W27029  12.888  32.093  11.132
53962W        W27030  42.393  31.168   1.285
53963W        W27031  31.209  17.850   0.001
53964W        W27032   8.981  25.156   4.123
53965W        W27033  38.509   8.843  13.361
53966W        W27034   3.925  21.538   3.809
53967W        W27035  11.145   7.759   3.285
53968W        W27036  26.960  18.359  11.063
53969W        W27037  29.172  29.858  14.259
53970W        W27038  18.670  41.151   3.338
53971W        W27039  15.026  33.977   3.817
53972W        W27040  31.400   7.666  12.390
53973W        W27041  13.242  32.377   1.837
53974W        W27042   5.600  24.450   2.784
53975W        W27043  26.871  25.286   4.135
53976W        W27044  35.496  27.546   2.674
53977W        W27045  27.091   4.670  13.336
53978W        W27046  16.473  36.082  12.974
53979W        W27047  22.510  41.162   1.476
53980W        W27048   6.361   0.470   0.957
53981W        W27049  36.422  32.392  14.365
53982W        W27050  10.241   6.834  13.809
53983W        W27051   4.864   3.413  14.385
53984W        W27052  34.429  18.643   1.180
53985W        W27053  22.025  22.164  13.010
53986W        W27054  37.437  31.445   1.446
53987W        W27055  15.714  32.153  12.167
53988W        W27056   6.691   5.777   0.900
53989W        W27057  41.419   7.898  14.125
53990W        W27058  37.347  27.619  14.252
53991W        W27059  31.604  29.965   0.014
53992W        W27060  41.846   4.734   2.313
53993W        W27061  41.528  33.947   4.346
53994W        W27062   7.522  24.666  11.613
53995W        W27063  28.952  22.586  12.926
53996W        W27064  11.105  21.821  11.414
53997W        W27065  37.564   0.451  10.545
53998W        W27066   3.752   4.805  14.480
53999W        W27067  10.698  20.287  12.652
54000W        W27068  27.184  16.562  10.990
54001W        W27069  17.218  37.960  11.094
54002W        W27070  10.732  30.375   3.971
54003W        W27071   6.948  33.849   1.794
54004W        W27072   3.756   8.875  11.538
54005W        W27073  23.580  11.841   2.492
54006W        W27074   6.701  10.144  10.685
54007W        W27075  23.534   7.366   2.850
54008W        W27076  23.968   1.351  12.159
54009W        W27077   0.468  36.378   0.340
54010W        W27078  35.775  32.034  12.796
54011W        W27079  19.562  15.681   4.597
54012W        W27080   8.680  38.939  11.606
54013W        W27081  17.534  17.717   3.924
54014W        W27082  32.308  35.933   3.674
54015W        W27083  19.731   1.946  12.180
54016W        W27084  21.103  35.931   2.822
54017W        W27085  10.897   9.148   1.286
54018W        W27086  21.087  18.589  12.177
54019W        W27087   7.607  35.067   4.537
54020W        W27088  43.964   7.609   1.123
54021W        W27089  19.847  17.093   2.176
54022W        W27090  44.507   5.404  10.968
54023W        W27091  20.579  20.685   3.591
54024W        W27092  28.887  44.014  12.662
54025W        W27093  28.713  29.511   3.213
54026W        W27094  42.993  31.904   0.421
54027W        W27095  31.642  11.396  14.730
54028W        W27096  40.338  43.359   4.562
54029W        W27097  39.160  42.869  14.778
54030W        W27098  18.757   5.495  14.038
54031W        W27099  38.678  28.604  14.697
54032W        W27100  30.715  41.870  11.422
54033W        W27101   4.301  44.772   4.405
54034W        W27102  17.741  17.967  14.441
54035W        W27103  35.833  39.976  14.732
54036W        W27104  29.540  34.074  13.300
54037W        W27105  13.199  26.040  12.459
54038W        W27106  29.114   2.067  13.948
54039W        W27107  25.675  35.655  12.136
54040W        W27108  20.594  18.262  10.600
54041W        W27109  37.315   6.626   1.694
54042W        W27110  43.655  10.887  13.316
54043W        W27111  19.230  15.197   4.796
54044W        W27112  21.087   2.924  14.187
54045W        W27113  15.827  39.635   0.870
54046W        W27114  40.461   9.857  13.395
54047W        W27115  22.480  11.783   1.461
54048W        W27116   4.198  36.448  11.469
54049W        W27117  19.102   5.978  13.356
54050W        W27118  37.165  31.425  10.013
54051W        W27119  22.194  27.492   1.526
54052W        W27120  13.152  43.840  10.871
54053W        W27121  38.880  37.749  12.593
54054W        W27122  44.974  35.087   3.252
54055W        W27123  34.528  27.091  13.249
54056W        W27124   9.188  32.996   1.956
54057W        W27125  12.825  40.956   0.787
54058W        W27126  24.065  18.487   4.101
54059W        W27127   9.737   3.659   0.055
54060W        W27128  26.292  32.997   2.902
54061W        W27129   3.907  38.362  13.306
54062W        W27130   7.660  44.833   3.780
54063W        W27131  25.941  30.790   2.490
54064W        W27132  22.113  43.349  14.055
54065W        W27133  31.301  37.073   2.652
54066W        W27134  24.093  35.140  10.768
54067W        W27135  35.693  17.104   2.787
54068W        W27136  44.763  21.559  11.928
54069W        W27137  18.187  25.985  11.121
54070W        W27138  37.882   8.197  10.422
54071W        W27139  43.432  32.944  14.255
54072W        W27140  33.967  27.380  12.636
54073W        W27141   4.713  35.920  11.944
54074W        W27142  31.205  25.038   3.123
54075W        W27143  32.696   5.307   1.293
54076W        W27144  41.775  15.660  10.543
54077W        W27145  21.317  37.299  13.931
54078W        W27146   6.865  41.467  12.331
54079W        W27147   4.330  15.090  14.930
54080W        W27148  13.271  19.028   5.045
54081W        W27149  20.038  35.533  14.325
54082W        W27150   7.716  27.986   1.724
54083W        W27151  31.942  13.324   4.204
54084W        W27152  43.290  30.172  12.049
54085W        W27153   0.722   1.276   3.608
54086W        W27154  24.078   1.104   4.274
54087W        W27155  35.126   4.360   3.546
54088W        W27156  41.926   0.296  11.162
54089W        W27157   6.863  42.471  11.547
54090W        W27158  30.388  21.007   0.052
54091W        W27159  30.777  18.130  14.931
54092W        W27160  42.299   7.739   0.336
54093W        W27161  10.139   2.756   2.649
54094W        W27162   9.754   8.830   1.000
54095W        W27163  18.121   7.594  13.416
54096W        W27164   5.800  37.503   2.141
54097W        W27165  22.791   8.311  13.777
54098W        W27166  19.513   8.048   2.442
54099W        W27167   3.944   5.778  10.804
54100W        W27168  27.142  39.636  11.221
54101W        W27169   0.852  21.235  11.838
54102W        W27170  28.634  11.208   4.999
54103W        W27171   0.951  22.854  13.921
54104W        W27172  33.086  26.252   4.239
54105W        W27173   0.839   6.387  10.683
54106W        W27174  19.361  41.275   2.764
54107W        W27175  13.596  19.766   0.166
54108W        W27176  18.074   1.930   1.820
54109W        W27177  26.454  14.208  14.420
54110W        W27178  41.468  30.539  12.983
54111W        W27179  14.166  43.797   0.404
54112W        W27180  34.043  20.413   3.127
54113W        W27181   9.851  23.513  13.394
54114W        W27182  40.054  26.635  11.940
54115W        W27183  25.483  20.061  12.842
54116W        W27184  40.508  33.328  11.273
54117W        W27185  12.117  16.630   5.507
54118W        W27186   9.737  44.756  13.368
54119W        W27187  30.239  30.655   4.151
54120W        W27188  32.476  19.230  14.943
54121W        W27189  24.758  17.248   4.653
54122W        W27190   7.665  14.709   4.842
54123W        W27191  40.988  43.563  11.019
54124W        W27192  30.132   3.836  10.637
54125W        W27193  27.754  28.686  11.627
54126W        W27194  12.676  17.699  10.996
54127W        W27195  34.408  42.050   2.408
54128W        W27196  14.474  11.768   3.593
54129W        W27197  27.005  29.411   0.475
54130W        W27198   9.247   8.894  12.049
54131W        W27199  34.898  18.389   1.304
54132W        W27200  37.476  26.849  12.285
54133W        W27201  27.550  24.215   2.486
54134W        W27202  40.316  30.586  12.055
54135W        W27203  44.420  32.699   1.227
54136W        W27204  22.701  11.634   4.110
54137W        W27205  43.460  11.200  12.002
54138W        W27206   5.122   0.933   3.719
54139W        W27207  16.821   0.477  14.384
54140W        W27208  32.408  17.340   1.829
54141W        W27209  23.197   8.734  10.485
54142W        W27210  28.541  16.786   0.911
54143W        W27211  23.579  42.998  12.065
54144W        W27212  32.964  22.959  10.913
54145W        W27213  30.910  27.844   4.110
54146W        W27214   5.763  33.642  13.003
54147W        W27215   8.608  16.685   3.769
54148W        W27216   3.203  41.297  13.841
54149W        W27217  37.525  37.289  12.880
54150W        W27218  43.151  37.467   3.094
54151W        W27219  19.529  10.336   0.266
54152W        W27220  43.897  42.910   0.477
54153W        W27221   5.329   8.189   4.355
54154W        W27222  28.629  42.373   2.841
54155W        W27223  27.390   6.375  12.070
54156W        W27224   8.189  38.964  12.842
54157W        W27225  29.973   8.379  11.939
54158W        W27226  22.013  32.154   0.817
54159W        W27227  26.367  14.130   4.690
54160W        W27228  36.650  33.620  11.244
54161W        W27229  19.679  36.182  13.419
54162W        W27230  23.221  32.938  13.398
54163W        W27231  15.779   3.531  10.075
54164W        W27232  35.561  38.264   1.640
54165W        W27233  44.985  36.379   4.598
54166W        W27234  13.805  35.515  10.827
54167W        W27235  19.564  21.562   3.907
54168W        W27236  10.409  36.811  12.744
54169W        W27237   6.729  13.479  10.719
54170W        W27238  37.462  25.523   4.500
54171W        W27239   7.623   4.400  14.393
54172W        W27240  13.199   1.010  12.877
54173W        W27241  22.830  33.839  12.421
54174W        W27242   1.877  32.965   0.495
54175W        W27243  39.774  23.020  14.521
54176W        W27244   9.575  36.769  11.538
54177W        W27245  16.248  23.471   0.849
54178W        W27246  12.102   9.357  12.001
54179W        W27247  11.694  17.075  10.205
54180W        W27248  27.789  35.937   1.948
54181W        W27249   6.219  24.581  11.401
54182W        W27250  10.046   1.334   2.271
54183W        W27251  18.563   0.642   1.699
54184W        W27252   0.427  38.895   3.165
54185W        W27253   3.258  29.611  13.910
54186W        W27254  22.136  41.924   1.828
54187W        W27255   0.403  22.016   3.195
54188W        W27256  15.832   7.925   5.063
54189W        W27257  33.081  39.864  13.983
54190W        W27258  42.063  35.545  12.381
54191W        W27259  29.929  43.573   0.990
54192W        W27260  21.036   1.320   1.001
54193W        W27261  30.991   0.779   2.024
54194W        W27262  38.136   8.103   2.936
54195W        W27263   5.913  14.241   4.482
54196W        W27264   1.289  35.417   0.422
54197W        W27265  17.069   6.772   0.496
54198W        W27266  14.236  29.843  11.638
54199W        W27267  33.441  28.623  10.913
54200W        W27268  20.595   9.882   1.774
54201W        W27269  23.806  20.839   4.228
54202W        W27270  10.595  30.106  11.619
54203W        W27271  23.889  42.398   0.384
54204W        W27272  11.115  23.709  14.916
54205W        W27273  38.700  39.403   0.929
54206W        W27274  42.503  23.305   1.252
54207W        W27275  13.275  32.113   3.162
54208W        W27276  37.855  38.898   4.617
54209W        W27277   3.318  16.125   2.204
54210W        W27278  32.285  37.825  12.030
54211W        W27279  18.504  44.725   0.040
54212W        W27280  15.326  23.336   3.313
54213W        W27281  30.468  14.683  13.796
54214W        W27282  30.961  26.984  10.627
54215W        W27283  38.343  13.864  12.422
54216W        W27284  10.390   5.285  14.356
54217W        W27285  13.917  38.910  14.565
54218W        W27286  34.676   4.742  14.707
54219W        W27287  21.219  28.682  11.631
54220W        W27288   6.753  15.629  13.760
54221W        W27289  25.592  14.107  12.794
54222W        W27290  43.750  21.878   0.282
54223W        W27291  29.487   9.325   4.919
54224W        W27292  13.586  26.471   3.208
54225W        W27293  15.173  42.922   4.595
54226W        W27294   3.375  23.409   1.210
54227W        W27295  10.725  26.503   1.505
54228W        W27296  22.281  21.063   1.748
54229W        W27297   9.809   1.776  13.100
54230W        W27298  19.592   9.139  11.124
54231W        W27299  20.140  42.412  14.489
54232W        W27300   3.029  19.209  13.379
54233W        W27301  20.317  44.282   0.643
54234W        W27302  28.944  38.313   2.265
54235W        W27303  17.643  28.558  11.223
54236W        W27304  44.447  27.665   0.737
54237W        W27305   7.470   1.474   1.682
54238W        W27306  15.209   7.321  10.582
54239W        W27307  30.289   2.865  14.532
54240W        W27308  25.482  42.088   2.491
54241W        W27309  16.185  44.085   3.264
54242W        W27310  15.831   9.781  13.481
54243W        W27311  29.552  13.320   4.723
54244W        W27312  23.434  39.910   5.166
54245W        W27313  28.041  24.131  12.550
54246W        W27314   3.242   8.416  12.147
54247W        W27315  37.459  30.967   1.676
54248W        W27316  15.892  41.385   1.116
54249W        W27317   8.240  30.313  12.693
54250W        W27318  30.832  42.767  11.886
54251W        W27319  25.925  28.515  12.404
54252W        W27320   4.146  19.042  12.336
54253W        W27321  44.351  26.132   3.857
54254W        W27322  23.546   5.769  12.344
54255W        W27323  25.557  22.978   1.966
54256W        W27324  21.160  18.604  10.725
54257W        W27325   4.556  32.097   0.694
54258W        W27326  29.760  14.715  11.043
54259W        W27327  38.510  39.740  12.262
54260W        W27328  34.979  38.074   4.137
54261W        W27329  28.617  21.208   0.253
54262W        W27330  24.270  43.484  12.953
54263W        W27331  11.245  40.403  13.080
54264W        W27332  40.064  18.583  12.518
54265W        W27333  32.811  38.039   1.158
54266W        W27334  24.289   5.280   1.925
54267W        W27335  38.207   7.375  11.586
54268W        W27336  25.463  20.822  11.573
54269W        W27337  28.473  33.830   2.291
54270W        W27338  31.715  30.924  11.250
54271W        W27339   7.915  13.150   1.696
54272W        W27340   4.317  39.291   3.168
54273W        W27341  13.435  43.972  12.945
54274W        W27342  21.158   7.761   1.315
54275W        W27343  23.658  21.100   1.419
54276W        W27344   1.984  35.355   3.854
54277W        W27345  18.660  13.262  14.236
54278W        W27346  35.080  41.113  14.903
54279W        W27347  42.862  18.567   4.559
54280W        W27348  21.613   5.468  14.529
54281W        W27349  32.060  33.976   2.530
54282W        W27350  23.132   0.948  14.539
54283W        W27351   5.812   3.474   1.439
54284W        W27352  20.679   6.320  13.696
54285W        W27353  27.706  15.332   3.828
54286W        W27354  19.117  16.246   4.128
54287W        W27355  31.389  25.704  11.530
54288W        W27356   8.889   9.825  12.839
54289W        W27357  26.237   8.844  13.929
54290W        W27358  27.467  10.508   3.324
54291W        W27359  18.679  21.404  13.467
54292W        W27360  33.884   6.826   3.348
54293W        W27361  41.231  20.016   1.731
54294W        W27362  10.854   5.639   1.889
54295W        W27363  16.132  19.792   1.409
54296W        W27364  44.618  34.386   3.632
54297W        W27365  35.806  28.468   0.323
54298W        W27366  19.813   7.343   0.516
54299W        W27367  44.209   0.847  12.147
54300W        W27368  30.097  25.642   1.215
54301W        W27369  16.263   1.475   3.858
54302W        W27370  43.490  26.174   2.896
54303W        W27371  28.965   6.354   1.247
54304W        W27372  40.970  43.015  12.867
54305W        W27373   5.257  35.346   4.692
54306W        W27374  43.752  11.177  11.569
54307W        W27375  32.392   7.161  11.087
54308W        W27376  28.590  37.820   1.980
54309W        W27377  43.723  19.781   3.726
54310W        W27378  34.994  38.237   0.492
54311W        W27379  43.107   0.801   4.288
54312W        W27380  39.385  28.553   1.129
54313W        W27381  28.156  19.680   3.061
54314W        W27382  20.642  16.267   1.129
54315W        W27383  19.658  26.951  14.038
54316W        W27384  37.621  23.212   0.289
54317W        W27385  18.594  17.957  12.121
54318W        W27386  20.276   5.765   2.114
54319W        W27387  32.889  22.717  11.488
54320W        W27388  38.264  43.334   3.721
54321W        W27389   3.365  18.477  10.761
54322W        W27390  29.506  11.349  11.993
54323W        W27391  39.531   9.212   3.549
54324W        W27392  28.666  21.710  14.130
54325W        W27393   3.246  42.989  13.470
54326W        W27394  15.653   6.287  14.511
54327W        W27395  34.667  27.414  14.432
54328W        W27396  39.600   1.961   3.175
54329W        W27397   3.921  40.901   4.401
54330W        W27398  15.688  34.992   2.955
54331W        W27399  29.317  23.171  11.970
54332W        W27400  16.144  14.738   1.070
54333W        W27401  32.143  19.031  14.158
54334W        W27402  39.262  26.129  12.345
54335W        W27403  18.208  27.877  14.862
54336W        W27404   2.699  31.527  12.071
54337W        W27405  29.998  32.067   4.690
54338W        W27406  14.580  34.963  11.961
54339W        W27407   1.527   8.915   1.645
54340W        W27408   3.882  15.400   3.272
54341W        W27409  21.524   5.356   2.005
54342W        W27410  33.856   9.939  14.958
54343W        W27411  44.887  18.339   3.174
54344W        W27412  31.831   5.678  13.944
54345W        W27413  43.024  25.922   1.729
54346W        W27414   0.487   4.503   2.248
54347W        W27415  34.017  20.745  12.579
54348W        W27416   5.503  19.180  11.945
54349W        W27417  10.117  31.217   1.371
54350W        W27418  31.441  19.219  13.556
54351W        W27419  14.993  36.371  12.938
54352W        W27420  24.263  29.011   3.715
54353W        W27421  21.386  25.677   2.650
54354W        W27422  44.496  29.168   3.853
54355W        W27423  10.192  22.738  12.224
54356W        W27424  26.136  40.021  10.364
54357W        W27425  30.582   5.775  13.122
54358W        W27426  10.694  40.164   0.168
54359W        W27427  14.845  23.117   4.992
54360W        W27428  17.128   4.407   3.279
54361W        W27429  15.106   4.287  12.996
54362W        W27430  24.434  23.136   0.829
54363W        W27431  16.757  42.858   2.587
54364W        W27432  27.007  28.589   1.922
54365W        W27433  44.265   5.681  14.019
54366W        W27434  12.704  30.597   0.024
54367W        W27435  13.088  22.173  14.356
54368W        W27436  26.511   7.125   4.549
54369W        W27437  20.815  13.390   1.999
54370W        W27438  37.394  25.013  10.610
54371W        W27439  10.632  14.096   4.053
54372W        W27440  36.778  39.958   4.713
54373W        W27441  40.489  20.028  12.176
54374W        W27442  21.271  27.995  14.029
54375W        W27443  27.138   8.727  11.575
54376W        W27444  23.791  35.808  12.142
54377W        W27445  19.756  33.279   4.032
54378W        W27446  19.236  13.498  10.983
54379W        W27447  29.017  28.570  12.344
54380W        W27448  26.223  27.323  11.077
54381W        W27449  42.434  37.415  10.668
54382W        W27450   9.059  35.137  13.495
54383W        W27451  35.470  19.523  12.491
54384W        W27452  39.951  25.924  14.903
54385W        W27453   5.414  38.722  13.964
54386W        W27454  27.597  29.164   3.316
54387W        W27455  40.334  18.295  13.974
54388W        W27456  36.327  13.245  12.076
54389W        W27457   2.169  41.204   5.007
54390W        W27458  29.485  21.156   3.094
54391W        W27459  10.122  21.850  11.629
54392W        W27460  23.178  37.521   4.051
54393W        W27461  13.877  24.117  11.126
54394W        W27462  33.476  36.547  10.317
54395W        W27463  44.185  36.021   0.367
54396W        W27464  42.120  34.978   1.380
54397W        W27465  39.818  35.665   1.818
54398W        W27466  42.469   4.137  10.627
54399W        W27467  17.168  33.199   4.565
54400W        W27468   7.697  41.953  13.626
54401W        W27469  14.326  15.871   3.737
54402W        W27470  24.558  21.287  14.850
54403W        W27471  35.752  31.489   5.506
54404W        W27472  42.419  37.271  12.874
54405W        W27473  19.490   2.350  12.396
54406W        W27474  26.077  20.681  11.142
54407W        W27475  22.297  22.611   0.567
54408W        W27476   6.368  28.242   3.282
54409W        W27477  14.518  42.604  12.364
54410W        W27478  34.649  15.010   2.211
54411W        W27479  22.172  35.179   4.253
54412W        W27480  10.673  36.808   2.932
54413W        W27481  34.365  30.955   0.203
54414W        W27482  42.535   2.207  13.436
54415W        W27483   6.653  16.962  12.539
54416W        W27484   5.256  31.106   2.223
54417W        W27485   9.154  24.634   2.817
54418W        W27486  26.205  40.722  10.942
54419W        W27487   0.305  30.614   0.234
54420W        W27488   0.639  30.077  12.612
54421W        W27489  42.889  39.861  12.545
54422W        W27490   3.277  15.504  10.372
54423W        W27491  38.829  23.181   1.904
54424W        W27492  44.252  16.786   2.784
54425W        W27493  13.546  42.359  12.524
54426W        W27494  25.132  25.458   3.772
54427W        W27495  38.091  37.869   3.631
54428W        W27496  42.910  27.135   0.270
54429W        W27497   7.624  40.243  13.469
54430W        W27498  29.883  17.263  13.817
54431W        W27499  14.093   3.242   3.727
54432W        W27500   3.276   7.294   0.961
54433W        W27501  38.963  13.831   1.769
54434W        W27502  37.952  30.747  12.895
54435W        W27503  44.942  41.377  14.916
54436W        W27504  38.665  30.883  13.910
54437W        W27505  10.686   8.346  12.310
54438W        W27506   7.872  17.511  12.008
54439W        W27507  32.702  20.772   3.347
54440W        W27508  37.360  29.284   4.937
54441W        W27509  36.344  28.057  11.597
54442W        W27510   8.700  19.603   4.353
54443W        W27511  18.689  42.242   1.256
54444W        W27512  39.769  19.028   1.462
54445W        W27513  41.267   3.703  14.945
54446W        W27514   4.229  10.246  13.504
54447W        W27515  29.431  20.616  12.451
54448W        W27516  29.433  39.554   2.738
54449W        W27517  15.491  25.198   5.018
54450W        W27518  12.303  32.452  10.525
54451W        W27519   1.444   7.952   1.865
54452W        W27520  30.126  10.332  12.984
54453W        W27521  36.987  26.238   0.923
54454W        W27522  21.952  40.869   0.938
54455W        W27523   1.399  23.201  11.941
54456W        W27524  11.138  44.112  13.928
54457W        W27525  15.121  15.310   3.945
54458W        W27526  40.108  10.361   4.597
54459W        W27527  23.694  29.985  14.578
54460W        W27528  26.532  42.237   1.175
54461W        W27529  25.415  36.373  12.838
54462W        W27530  27.924   7.377  12.965
54463W        W27531   4.823  13.898  12.450
54464W        W27532  29.256  22.520   0.463
54465W        W27533  28.892  34.841   0.788
54466W        W27534  13.706  40.518   0.998
54467W        W27535  20.709   9.899   1.225
54468W        W27536  38.324  17.076  14.310
54469W        W27537  26.756  32.836  13.253
54470W        W27538  31.964  21.442   1.869
54471W        W27539  30.247  32.458   1.173
54472W        W27540  27.011   6.730   0.168
54473W        W27541  13.132  10.702  11.192
54474W        W27542   1.470  17.047  14.432
54475W        W27543  35.455  18.003  12.416
54476W        W27544  33.084   6.284  14.797
54477W        W27545  40.775  35.972   0.976
54478W        W27546   9.654  19.241  14.310
54479W        W27547   6.488  27.023   2.705
54480W        W27548  15.809  34.206   0.606
54481W        W27549   9.504  35.918  13.019
54482W        W27550   0.321   4.914  10.704
54483W        W27551  27.037   7.047  11.633
54484W        W27552  31.375  10.022   1.202
54485W        W27553  18.495  16.124   2.916
54486W        W27554   1.063  30.130   0.025
54487W        W27555  14.772   6.957   3.240
54488W        W27556  41.705  16.152   5.057
54489W        W27557  41.776  32.467   4.061
54490W        W27558  27.207  36.343  11.157
54491W        W27559  31.003  35.381   0.645
54492W        W27560  22.169  37.183  13.647
54493W        W27561  39.214  23.834  14.768
54494W        W27562  20.565  13.249   3.299
54495W        W27563  41.845  17.031  12.063
54496W        W27564  33.103   3.271   0.361
54497W        W27565  21.739  44.857  13.272
54498W        W27566   1.046  32.615  11.799
54499W        W27567   7.483   5.506   1.309
54500W        W27568   1.630  25.985  10.943
54501W        W27569  35.195   2.979  12.448
54502W        W27570  35.455   3.848   4.563
54503W        W27571  32.373  42.360  14.807
54504W        W27572  42.946  32.108  10.137
54505W        W27573  29.356   2.367  11.196
54506W        W27574  43.221  14.261  12.139
54507W        W27575  20.257   2.254   2.763
54508W        W27576  21.289  39.726  12.429
54509W        W27577  38.329   6.553  11.914
54510W        W27578   1.510  12.652   3.296
54511W        W27579  24.066   2.273  12.054
54512W        W27580  31.217   9.179  13.469
54513W        W27581  13.597   8.293  10.856
54514W        W27582  12.964  34.419  10.365
54515W        W27583  32.843  44.794  12.345
54516W        W27584  44.375  22.086   4.619
54517W        W27585  18.939  32.474   1.939
54518W        W27586  19.299  10.247   3.977
54519W        W27587  27.033  36.821  13.979
54520W        W27588   1.601   1.997  11.326
54521W        W27589   6.431   5.918   4.150
54522W        W27590  25.522   7.969   2.948
54523W        W27591   8.117  12.628   1.453
54524W        W27592  28.597  14.807  10.974
54525W        W27593  14.722  32.917  13.715
54526W        W27594  17.562  12.401  11.061
54527W        W27595   7.419  20.592   4.798
54528W        W27596   1.359   3.724   0.711
54529W        W27597  14.246  29.724   1.956
54530W        W27598   1.456  39.458   1.373
54531W        W27599  12.863  27.132  11.130
54532W        W27600  21.882  17.870  12.142
54533W        W27601  42.318   3.148  14.971
54534W        W27602  35.303  27.542  11.138
54535W        W27603   3.444  41.518   2.681
54536W        W27604  43.401  23.811  13.528
54537W        W27605  32.727  18.740   3.323
54538W        W27606  25.252  27.398  11.681
54539W        W27607   5.770  19.774  11.040
54540W        W27608   4.755  26.234   0.457
54541W        W27609  24.037  38.666  12.663
54542W        W27610  36.324  24.237   3.021
54543W        W27611  29.427  15.539  10.482
54544W        W27612  33.864  16.659   4.079
54545W        W27613  12.823   2.909   1.665
54546W        W27614  24.726   3.606  14.946
54547W        W27615  23.685   3.170   1.340
54548W        W27616  24.497  10.929  10.297
54549W        W27617  17.596   0.437  11.299
54550W        W27618  33.412  36.707   3.172
54551W        W27619  42.409  20.995  12.856
54552W        W27620  16.834   5.838  13.324
54553W        W27621  39.378  41.311   5.013
54554W        W27622  18.951   6.484  13.503
54555W        W27623  10.235  16.174  12.071
54556W        W27624  24.611   7.126   2.803
54557W        W27625  32.014  14.209   1.708
54558W        W27626  37.551  30.082  14.954
54559W        W27627  16.338  33.505  11.625
54560W        W27628  13.262  16.221   0.370
54561W        W27629  34.733  23.530   0.169
54562W        W27630   9.792  28.078   2.913
54563W        W27631  27.612  31.424   0.784
54564W        W27632  18.702  39.849  10.505
54565W        W27633  37.809   6.663   2.741
54566W        W27634  42.533  10.257  14.940
54567W        W27635   4.816  11.249   3.374
54568W        W27636  21.108   2.940  12.808
54569W        W27637  27.459  20.562   2.961
54570W        W27638  22.058   3.296  11.664
54571W        W27639  10.359  26.410   2.423
54572W        W27640  12.349  21.740   2.334
54573W        W27641   2.867  22.228   2.353
54574W        W27642   4.866  12.090   5.177
54575W        W27643  35.378   0.391   4.250
54576W        W27644  42.993  38.091   1.401
54577W        W27645  18.539  25.793  11.438
54578W        W27646   3.677  10.213  11.707
54579W        W27647  42.435   9.630  11.930
54580W        W27648   8.805   3.374  13.499
54581W        W27649  12.383  30.273  13.797
54582W        W27650  40.745  41.107  14.427
54583W        W27651  17.251  28.180   2.363
54584W        W27652   6.290  32.877  12.974
54585W        W27653  13.220  42.047   0.215
54586W        W27654   8.943  25.688  13.479
54587W        W27655  29.519   4.380  14.111
54588W        W27656  27.511  15.500  13.078
54589W        W27657  22.539  37.451   4.669
54590W        W27658  33.257  20.021  11.992
54591W        W27659   4.648   8.119   3.708
54592W        W27660  12.159  24.322   3.511
54593W        W27661  31.470  14.106  14.247
54594W        W27662   4.829   4.939   2.420
54595W        W27663   0.228  15.615  13.831
54596W        W27664  40.837  14.247   0.808
54597W        W27665  38.889   8.665  11.996
54598W        W27666   1.278  28.928  12.603
54599W        W27667   2.980   6.854   0.975
54600W        W27668  19.825   4.749   3.291
54601W        W27669  28.993   3.391   3.415
54602W        W27670  22.400   8.893  12.056
54603W        W27671   7.822  14.262  14.070
54604W        W27672   9.918  32.963   0.924
54605W        W27673  17.305  32.601   0.687
54606W        W27674  29.531   3.157   2.785
54607W        W27675   3.032  27.808   5.059
54608W        W27676   1.232  40.822   2.356
54609W        W27677  13.150  19.148   1.784
54610W        W27678   5.350  40.440  11.929
54611W        W27679  14.476   9.964  13.947
54612W        W27680  27.616  11.075   3.405
54613W        W27681  30.897   2.391   1.333
54614W        W27682   9.232  41.636   5.457
54615W        W27683   6.206  21.522  11.586
54616W        W27684  11.746   8.931   2.282
54617W        W27685  30.543  17.988   1.809
54618W        W27686  23.235  18.764  14.901
54619W        W27687  30.613  10.420  14.989
54620W        W27688  31.038  14.964  13.642
54621W        W27689   4.443  25.133   0.910
54622W        W27690  33.471  15.186  12.129
54623W        W27691  26.049  31.916  10.470
54624W        W27692  20.776  30.492  14.110
54625W        W27693   4.791  21.682   3.882
54626W        W27694  33.173  39.025  10.620
54627W        W27695   2.404   8.894   4.040
54628W        W27696   9.894  31.435   3.817
54629W        W27697  21.254  16.885   4.377
54630W        W27698   1.286  10.141  10.286
54631W        W27699  18.178  39.454  11.214
54632W        W27700  31.538  18.504   2.870
54633W        W27701  14.322  20.343   2.928
54634W        W27702  35.114  41.047   2.928
54635W        W27703  28.102  31.465   4.650
54636W        W27704  26.772  37.127   1.277
54637W        W27705  13.826   3.851   4.934
54638W        W27706  35.873  12.359   4.057
54639W        W27707  44.827  25.121  12.591
54640W        W27708  34.928  24.096  10.723
54641W        W27709   6.320   3.838   0.978
54642W        W27710   6.239  33.410  13.003
54643W        W27711   4.638  13.842  11.089
54644W        W27712   1.238  29.577   3.673
54645W        W27713  38.625   6.281   4.081
54646W        W27714  31.446  39.443   2.826
54647W        W27715   4.369  14.454   4.868
54648W        W27716  32.022  13.792  12.522
54649W        W27717  15.263  28.329  14.699
54650W        W27718  42.592   7.867   0.909
54651W        W27719   6.297   4.393  12.387
54652W        W27720  10.201  44.058   4.230
54653W        W27721  27.749  22.785   0.462
54654W        W27722  33.477  37.448  11.402
54655W        W27723  36.059  32.411  11.986
54656W        W27724  44.007  39.293  14.576
54657W        W27725  39.007   4.785   0.814
54658W        W27726  21.576  27.435  13.939
54659W        W27727  30.874  23.254   2.199
54660W        W27728  35.568  31.351   1.211
54661W        W27729  19.259  41.889   4.350
54662W        W27730  44.542   5.385  13.071
54663W        W27731  29.678  29.204  13.057
54664W        W27732  27.668  44.799   0.394
54665W        W27733  44.414   1.011   0.248
54666W        W27734  13.519  39.088   4.444
54667W        W27735  11.628  24.166   0.821
54668W        W27736  33.141  32.976   3.309
54669W        W27737   3.194  32.102  14.020
54670W        W27738   6.712   7.798   1.290
54671W        W27739  18.284   2.475   4.126
54672W        W27740  28.221  22.365  13.477
54673W        W27741  28.503  32.583   1.673
54674W        W27742  22.945   0.659  12.961
54675W        W27743  35.089  26.631  14.370
54676W        W27744  37.741  36.401  12.592
54677W        W27745  35.313  19.653   1.886
54678W        W27746  16.253  43.917   4.600
54679W        W27747  11.827  43.756   0.632
54680W        W27748  33.001   2.969  12.436
54681W        W27749  43.527  29.152   2.883
54682W        W27750  40.731  30.948   3.097
54683W        W27751  42.948  23.609  14.510
54684W        W27752  38.509  24.625  12.319
54685W        W27753  27.764   2.914  12.135
54686W        W27754   0.017  36.167   0.139
54687W        W27755  12.208  31.200   0.423
54688W        W27756  28.544  17.118   4.614
54689W        W27757  19.370  21.373   1.892
54690W        W27758  20.669  14.321   0.517
54691W        W27759  25.542  25.051  11.564
54692W        W27760  31.535   0.917  14.855
54693W        W27761   8.385  37.429   1.692
54694W        W27762  14.607  29.014   4.774
54695W        W27763   0.848  12.371  14.003
54696W        W27764  24.122   0.805   4.717
54697W        W27765  24.572  16.661   5.890
54698W        W27766  25.933  30.882  10.547
54699W        W27767  35.455  18.526  11.535
54700W        W27768  35.007   3.395  10.773
54701W        W27769   6.704  19.805   0.184
54702W        W27770  43.269  32.003  11.659
54703W        W27771  37.342  25.433   2.246
54704W        W27772  22.056  19.513  10.656
54705W        W27773  20.637  44.407   2.366
54706W        W27774  38.961  17.600  12.897
54707W        W27775  27.009  28.018   3.706
54708W        W27776  36.514  16.779   2.490
54709W        W27777  38.500  44.447  14.361
54710W        W27778   0.869  33.237   0.640
54711W        W27779   1.469  23.470  14.261
54712W        W27780  14.031   6.450  11.180
54713W        W27781  30.827  41.810  10.915
54714W        W27782  32.626  18.134  14.229
54715W        W27783   6.677  33.639   1.407
54716W        W27784   5.734  31.257  12.404
54717W        W27785  20.820  39.398   2.723
54718W        W27786   6.245  28.619  10.953
54719W        W27787  13.654  35.919  10.547
54720W        W27788   9.178   9.589  14.841
54721W        W27789   9.947   1.997   4.317
54722W        W27790  38.822  32.712   3.723
54723W        W27791  41.302  20.788   0.202
54724W        W27792  23.732  16.757   0.843
54725W        W27793  35.076  39.428   2.650
54726W        W27794  33.370   6.928  12.464
54727W        W27795  19.162  28.995  11.964
54728W        W27796  38.807  23.206   2.846
54729W        W27797  33.611  20.748  11.811
54730W        W27798  14.658  17.081   0.826
54731W        W27799  25.608   6.291  13.754
54732W        W27800  31.496   6.433   0.312
54733W        W27801  41.211  25.566   4.366
54734W        W27802  39.361  19.724  11.427
54735W        W27803  16.061  23.661  14.072
54736W        W27804  10.879  30.326   2.172
54737W        W27805  28.783  24.541  12.872
54738W        W27806  22.673   8.878  13.421
54739W        W27807  21.541  41.782  10.709
54740W        W27808  31.756  29.372   1.274
54741W        W27809  24.383  19.792  13.889
54742W        W27810  32.468  42.339   3.729
54743W        W27811  17.146  19.000  13.509
54744W        W27812   8.000  18.198  13.931
54745W        W27813   7.608   9.879  11.901
54746W        W27814  25.286  40.501  11.916
54747W        W27815  10.082  23.734   4.192
54748W        W27816  14.326  36.339  11.723
54749W        W27817  25.483  34.982  14.356
54750W        W27818  32.910  28.075   1.259
54751W        W27819  14.749  37.023   0.392
54752W        W27820  44.948  21.706  12.937
54753W        W27821  10.748  38.927  11.098
54754W        W27822  41.968  16.604  13.875
54755W        W27823  16.274  38.502   2.207
54756W        W27824   3.939  33.805   1.448
54757W        W27825  28.942   5.968  12.566
54758W        W27826  37.337  10.322  11.536
54759W        W27827  41.292   6.407  12.384
54760W        W27828  34.247  41.886  13.067
54761W        W27829  36.029  27.762   2.803
54762W        W27830  11.192  27.974  12.369
54763W        W27831  43.924  38.573   0.448
54764W        W27832  24.141  25.458  14.073
54765W        W27833  26.948  30.412  14.355
54766W        W27834  44.952  10.655   0.480
54767W        W27835   1.223  41.708  10.420
54768W        W27836  27.045  22.792  14.373
54769W        W27837  36.377  35.064   4.845
54770W        W27838   3.922   5.160  11.973
54771W        W27839  22.545  17.295   2.249
54772W        W27840   9.813  16.875   0.914
54773W        W27841  30.672  23.777   1.693
54774W        W27842  37.084  43.767  13.129
54775W        W27843   5.820  44.706   4.567
54776W        W27844   9.359  19.964   1.435
54777W        W27845  39.484  25.469   4.564
54778W        W27846  44.724  15.569  12.406
54779W        W27847  17.571  37.538  11.427
54780W        W27848  35.642  40.881   0.781
54781W        W27849  21.976  39.835  12.803
54782W        W27850  39.143   1.842  11.929
54783W        W27851   8.439  41.867  10.750
54784W        W27852  42.377  31.106   0.409
54785W        W27853  18.074  24.387   4.472
54786W        W27854  12.931  26.217   3.873
54787W        W27855  42.337   8.454  12.520
54788W        W27856  29.158  16.164   0.728
54789W        W27857   1.710  41.322   0.744
54790W        W27858   7.645  29.411   0.836
54791W        W27859  32.827  40.361   0.008
54792W        W27860  11.343  15.776  13.085
54793W        W27861  10.421  14.799  12.459
54794W        W27862  10.161  25.139   0.916
54795W        W27863  25.110  13.354  11.959
54796W        W27864  29.157   5.724  13.850
54797W        W27865  10.086   8.090   1.305
54798W        W27866  10.101   5.769  10.875
54799W        W27867  33.293  30.615   5.143
54800W        W27868  39.570  28.949  13.976
54801W        W27869  21.623  29.905  12.075
54802W        W27870  10.707  14.392  13.990
54803W        W27871   5.242   6.735   1.247
54804W        W27872  12.577  36.453   0.856
54805W        W27873  33.980  36.322  12.621
54806W        W27874  33.624  11.121  14.344
54807W        W27875  18.656  28.229   4.217
54808W        W27876  26.221  42.787   4.150
54809W        W27877  15.850  39.876   0.423
54810W        W27878   1.263  42.527   1.267
54811W        W27879   5.362  24.958  11.421
54812W        W27880  22.278  25.657   4.427
54813W        W27881   5.894   3.692  12.450
54814W        W27882  32.565  41.105  12.389
54815W        W27883  30.157   3.308   2.215
54816W        W27884  36.371  35.189   2.057
54817W        W27885   3.035   2.997   1.748
54818W        W27886  15.110  32.149   2.161
54819W        W27887  34.363  39.606  12.044
54820W        W27888  44.838  16.327  13.109
54821W        W27889  36.507   8.349  10.895
54822W        W27890  16.010  42.608  14.892
54823W        W27891  23.229  35.900  12.888
54824W        W27892  15.119  37.854   4.699
54825W        W27893  34.035  19.898   3.157
54826W        W27894  24.614  27.198  13.449
54827W        W27895   2.596  37.568  10.099
54828W        W27896  32.592   6.861  14.278
54829W        W27897   2.816  19.570  11.728
54830W        W27898  31.877  26.079  13.635
54831W        W27899  42.634   6.508  11.606
54832W        W27900  29.885  25.762  13.475
54833W        W27901  17.273  26.137  10.666
54834W        W27902  19.294   2.972  13.546
54835W        W27903  42.805  35.921  12.020
54836W        W27904  37.025   2.748  14.586
54837W        W27905  27.188  33.882   4.933
54838W        W27906   2.725   6.974   2.109
54839W        W27907  37.582  17.088  11.135
54840W        W27908  36.946  37.452  10.650
54841W        W27909  18.157  10.906  14.264
54842W        W27910  42.318   9.787   3.181
54843W        W27911  40.386  12.412  11.450
54844W        W27912  36.962  16.148  14.785
54845W        W27913   6.226  40.097   0.690
54846W        W27914  12.371   3.241  11.000
54847W        W27915  14.572  36.415  13.295
54848W        W27916  35.555   8.969  13.351
54849W        W27917  15.593   6.267  13.999
54850W        W27918   7.934  37.348  10.662
54851W        W27919  19.554  14.715  14.993
54852W        W27920  40.229  12.417  14.895
54853W        W27921   4.776  13.886   4.645
54854W        W27922  39.413  24.085   4.815
54855W        W27923   2.909  24.089   1.339
54856W        W27924  14.901   3.433   2.572
54857W        W27925   3.767   1.208  12.340
54858W        W27926  44.847   9.379  11.543
54859W        W27927  35.922  15.554  11.454
54860W        W27928  10.822  31.452   3.729
54861W        W27929   8.323   8.607  11.147
54862W        W27930  31.171  14.178  11.703
54863W        W27931  38.910  33.023  12.982
54864W        W27932   5.938  42.832   4.638
54865W        W27933  23.641  27.178  13.397
54866W        W27934  33.242  23.697   4.054
54867W        W27935  23.097  10.018   2.285
54868W        W27936  14.327  31.697   3.882
54869W        W27937  25.992   4.835   4.217
54870W        W27938   5.213  36.459   2.900
54871W        W27939  29.379  44.448   2.745
54872W        W27940  35.275  35.747  10.979
54873W        W27941   2.508   7.381  12.441
54874W        W27942  37.828   1.671   1.277
54875W        W27943   7.798  25.786  11.348
54876W        W27944  43.307  20.105   1.902
54877W        W27945  13.092   6.799   2.700
54878W        W27946   6.068   8.394  10.683
54879W        W27947  31.819  10.647  12.474
54880W        W27948  27.019  28.269  11.600
54881W        W27949   3.486  23.181  11.329
54882W        W27950  37.635  28.135  13.995
54883W        W27951  42.794  10.128   4.063
54884W        W27952  27.057   4.331   1.254
54885W        W27953   7.073   5.101  11.259
54886W        W27954  40.550  21.499   4.173
54887W        W27955   9.369  24.286   3.738
54888W        W27956  17.268  34.144   2.529
54889W        W27957  35.142   6.713  10.403
54890W        W27958  35.567  26.504   3.352
54891W        W27959   6.973  34.782   2.748
54892W        W27960  21.138  14.791  10.944
54893W        W27961  43.477  19.440  14.442
54894W        W27962  40.809  19.511   3.217
54895W        W27963   3.384   1.216   3.579
54896W        W27964   0.381  33.085  11.900
54897W        W27965  41.746  10.673   3.323
54898W        W27966  19.104   1.858   4.805
54899W        W27967  26.515  11.233  10.253
54900W        W27968  32.562  15.343   3.753
54901W        W27969  24.110  25.099   5.412
54902W        W27970  28.544  14.292  14.648
54903W        W27971  27.500  21.456   1.460
54904W        W27972  37.308   0.970  14.554
54905W        W27973  16.011  26.279  14.464
54906W        W27974  27.536  33.559  13.438
54907W        W27975   0.283  39.528  10.698
54908W        W27976   0.749  18.802   2.338
54909W        W27977   8.683  30.664  10.570
54910W        W27978   2.790  42.301  12.536
54911W        W27979   2.369  30.028  10.630
54912W        W27980  28.875  37.823   2.987
54913W        W27981  20.525  41.969   2.705
54914W        W27982  42.080  22.728  14.680
54915W        W27983  19.790  13.536  13.108
54916W        W27984   2.303   7.615  12.976
54917W        W27985   6.120  28.960   1.116
54918W        W27986   0.919  40.784  12.365
54919W        W27987  30.663   2.811  12.890
54920W        W27988  43.488  43.728   1.461
54921W        W27989  44.027  36.126   1.239
54922W        W27990  14.745  43.773   3.700
54923W        W27991  31.065  13.738  14.949
54924W        W27992  22.733  32.960  12.480
54925W        W27993  25.259  38.368   3.232
54926W        W27994  41.026  11.283   4.912
54927W        W27995  26.441  31.920   4.200
54928W        W27996  13.143   5.775   0.177
54929W        W27997  31.144  25.971   4.194
54930W        W27998  18.827   3.990   0.620
54931W        W27999   3.765  23.675  11.173
54932W        W28000  24.459  10.707  13.342
54933W        W28001  16.554  29.963   0.560
54934W        W28002  23.565  42.785  13.534
54935W        W28003   1.919  10.918   4.664
54936W        W28004  19.486   8.792   4.429
54937W        W28005   8.270  13.702   3.970
54938W        W28006  30.433  14.661  11.667
54939W        W28007  34.526   4.372   3.726
54940W        W28008  41.036  39.867   3.599
54941W        W28009   7.382  21.229  11.956
54942W        W28010  44.530  36.591  10.769
54943W        W28011   6.964  24.716   0.434
54944W        W28012  43.307  43.938  14.817
54945W        W28013  10.744  36.926  13.584
54946W        W28014  37.827  31.844   3.190
54947W        W28015  10.627  40.027  14.274
54948W        W28016  44.210  37.075  11.872
54949W        W28017   2.857  39.944  11.620
54950W        W28018  17.240  30.453  14.593
54951W        W28019  26.796  44.002  11.525
54952W        W28020  39.702  17.495   3.720
54953W        W28021  15.905  21.490   1.480
54954W        W28022  11.455  29.099  11.516
54955W        W28023  10.170  40.868  14.490
54956W        W28024   8.201  40.550  11.116
54957W        W28025  30.683  41.564   1.800
54958W        W28026  44.381  21.734   4.998
54959W        W28027  36.198   8.903   2.375
54960W        W28028  23.171  19.227   3.794
54961W        W28029  30.568  30.242   2.754
54962W        W28030  10.814  28.882  12.280
54963W        W28031  27.920  38.011   3.184
54964W        W28032   2.508  12.701   4.074
54965W        W28033  34.460   7.185   4.092
54966W        W28034  27.166   2.091  12.336
54967W        W28035  25.488  39.539  11.514
54968W        W28036  36.398   4.880   0.906
54969W        W28037  41.830  31.947   4.071
54970W        W28038  14.141   2.585   0.986
54971W        W28039  33.803   8.270   4.941
54972W        W28040  11.671  43.456   3.328
54973W        W28041   9.638   2.321  12.001
54974W        W28042  21.891  39.423  13.991
54975W        W28043  12.542  21.286  11.108
54976W        W28044  18.077  26.079  12.296
54977W        W28045  12.524  43.878  12.898
54978W        W28046  18.287  10.405   1.430
54979W        W28047  32.006  27.174  10.562
54980W        W28048  20.206   4.808   4.626
54981W        W28049  19.804  39.414   2.355
54982W        W28050  23.086  31.805  14.998
54983W        W28051  10.961  13.725   0.751
54984W        W28052  15.732  43.423  12.140
54985W        W28053  29.632  29.745  12.002
54986W        W28054  40.201  15.412  10.753
54987W        W28055  44.791  18.363  10.788
54988W        W28056  23.490   2.207   4.693
54989W        W28057  39.456   3.488  12.410
54990W        W28058   9.839  23.576   3.230
54991W        W28059  32.174  37.372   4.637
54992W        W28060  28.654  10.158   2.347
54993W        W28061  36.042  29.945   2.181
54994W        W28062  29.936   0.440  13.461
54995W        W28063  23.026  43.275  14.068
54996W        W28064  15.272   7.238   1.170
54997W        W28065  27.068   9.835   3.673
54998W        W28066  43.230  15.944   1.848
54999W        W28067  28.123   7.231   3.660
55000W        W28068   4.400   1.229  11.196
55001W        W28069  41.514  18.302   2.891
55002W        W28070  28.395  20.766   2.886
55003W        W28071  25.166   6.817  14.925
55004W        W28072  30.978  17.717  13.629
55005W        W28073   1.055  21.257   3.661
55006W        W28074   8.177  42.099  11.137
55007W        W28075  14.660   2.275   0.279
55008W        W28076   7.822  41.969  10.148
55009W        W28077  14.923  23.595   0.789
55010W        W28078  13.434  17.317   3.710
55011W        W28079  35.147  24.923   4.768
55012W        W28080  44.297  22.867   4.277
55013W        W28081  34.455   3.737   0.254
55014W        W28082  28.563  28.762  13.506
55015W        W28083  22.013  38.707  13.450
55016W        W28084  41.952  29.991  12.480
55017W        W28085  13.186  14.632   1.669
55018W        W28086  28.589  14.725  12.568
55019W        W28087  17.744  22.363   2.895
55020W        W28088  37.427  32.690  12.611
55021W        W28089   1.417   2.170  12.988
55022W        W28090  34.419   3.646   0.770
55023W        W28091  37.585   4.960  10.956
55024W        W28092  36.584  30.161  13.867
55025W        W28093   1.777  26.618   2.672
55026W        W28094  16.164  44.271  14.522
55027W        W28095  38.069  23.741   2.448
55028W        W28096  14.805  21.254   2.681
55029W        W28097  38.820  30.367   1.666
55030W        W28098   4.744  33.560  10.546
55031W        W28099   4.537  44.397  10.173
55032W        W28100  44.790   6.773  10.940
55033W        W28101  23.709   1.772  14.235
55034W        W28102   7.502  35.398  12.033
55035W        W28103  12.584  19.292  14.546
55036W        W28104  30.114  25.061   4.089
55037W        W28105  18.756  14.445  11.671
55038W        W28106   8.438  43.949  13.638
55039W        W28107  25.058  34.020  10.637
55040W        W28108  29.015   9.839   2.554
55041W        W28109  38.488  24.575  12.847
55042W        W28110  18.705  28.681   3.907
55043W        W28111   0.849  30.492  12.376
55044W        W28112  21.898  11.661   2.239
55045W        W28113  38.311  27.102   3.138
55046W        W28114  10.427  37.422  12.435
55047W        W28115  26.745  36.899   4.927
55048W        W28116  23.086   1.777   0.020
55049W        W28117   6.831  11.554  10.678
55050W        W28118  13.394  39.465  12.044
55051W        W28119  32.431   3.475  12.113
55052W        W28120  21.459  20.137  14.994
55053W        W28121  28.386  17.003  14.359
55054W        W28122  41.946  25.611  10.636
55055W        W28123  28.433  38.925  11.549
55056W        W28124  16.277   1.911   3.593
55057W        W28125  38.810  25.447  14.850
55058W        W28126  41.227  12.209  14.763
55059W        W28127  15.869  18.120  14.478
55060W        W28128  29.506   7.263  12.189
55061W        W28129  23.627  35.831  13.948
55062W        W28130  11.284  24.096  14.200
55063W        W28131  27.502   2.388   1.843
55064W        W28132  26.989  18.108   2.392
55065W        W28133  16.726  32.515   1.370
55066W        W28134  31.995  27.871  13.422
55067W        W28135  44.445  15.887  13.300
55068W        W28136  30.633  31.135  14.913
55069W        W28137   2.699  23.751  13.974
55070W        W28138  23.005  16.180  11.188
55071W        W28139  10.139   8.441  12.121
55072W        W28140  14.267  30.409  12.915
55073W        W28141  11.727  18.249  11.584
55074W        W28142  44.056  17.278  13.623
55075W        W28143   8.810  13.271   4.429
55076W        W28144  22.234  29.630   0.371
55077W        W28145   3.788   1.550   3.653
55078W        W28146   9.288  10.630  12.077
55079W        W28147  19.636   1.454  12.359
55080W        W28148  20.132  40.877   3.292
55081W        W28149   1.487  18.873   3.644
55082W        W28150   1.877   2.236   1.130
55083W        W28151  41.902   7.284   0.910
55084W        W28152   6.627  41.507   4.235
55085W        W28153  42.762  29.622   2.798
55086W        W28154  27.871  26.523   3.238
55087W        W28155  22.065   1.457  14.470
55088W        W28156   6.345   9.711   0.565
55089W        W28157  15.867  19.593  13.450
55090W        W28158   9.026  12.597  12.021
55091W        W28159   8.109  44.603   3.865
55092W        W28160  40.534  13.205  12.578
55093W        W28161   0.265  32.865  10.900
55094W        W28162  15.274   9.911  11.631
55095W        W28163  31.590   2.983   3.147
55096W        W28164  21.226  11.951   3.354
55097W        W28165  25.538   2.201  11.386
55098W        W28166  37.870  18.559  10.972
55099W        W28167  44.972  41.409   4.001
55100W        W28168  35.127  12.719   3.689
55101W        W28169  32.208  21.504  11.029
55102W        W28170  33.125  28.089  11.399
55103W        W28171  16.627  23.415   1.215
55104W        W28172  26.566  30.456  13.446
55105W        W28173  24.657  39.281  12.626
55106W        W28174  44.794  20.174  10.650
55107W        W28175  19.525  15.755  12.840
55108W        W28176  18.131  34.047  14.978
55109W        W28177  20.750  44.853   3.243
55110W        W28178  17.023  41.139  14.463
55111W        W28179  31.613  34.896   1.216
55112W        W28180  24.956  13.083   2.347
55113W        W28181   3.843   5.936  13.926
55114W        W28182  12.074  36.272  11.033
55115W        W28183  19.458   0.169   5.126
55116W        W28184  24.902   1.180   2.631
55117W        W28185  20.878  44.496   4.124
55118W        W28186  10.331  44.371  12.201
55119W        W28187   9.806   6.922  10.691
55120W        W28188  13.093   1.203   3.056
55121W        W28189  28.933  33.553   0.443
55122W        W28190   4.451  33.202  12.884
55123W        W28191  17.124   3.069   4.829
55124W        W28192  24.946  39.374   4.101
55125W        W28193  13.997  28.099   4.358
55126W        W28194  42.264   1.310  12.427
55127W        W28195   5.768  37.098   3.202
55128W        W28196   8.474  24.460   1.348
55129W        W28197  26.438  15.088  14.405
55130W        W28198  28.180   5.340   1.201
55131W        W28199  37.861   5.327   1.047
55132W        W28200  14.291   8.376  11.683
55133W        W28201  13.137  33.841   3.693
55134W        W28202  39.514  25.003   4.784
55135W        W28203   5.726  25.293  14.467
55136W        W28204  44.445  32.101  11.653
55137W        W28205  13.319  15.460   2.366
55138W        W28206   7.656   3.879  13.361
55139W        W28207  41.606  12.869  11.202
55140W        W28208  14.299  23.968  10.877
55141W        W28209  27.600  10.227   1.213
55142W        W28210  24.547  36.261   0.261
55143W        W28211  28.012  43.334   0.861
55144W        W28212  39.381  36.501  10.519
55145W        W28213   2.836  26.648  13.534
55146W        W28214   0.832  38.562  11.214
55147W        W28215  15.599  29.067  12.425
55148W        W28216   3.585  35.572   2.736
55149W        W28217   3.307   8.711   1.939
55150W        W28218  33.042  40.549   1.820
55151W        W28219   2.698  36.200  10.193
55152W        W28220  13.112  39.956  12.438
55153W        W28221  21.005  18.172   0.441
55154W        W28222  15.786   3.890  12.863
55155W        W28223  38.810  14.848   3.651
55156W        W28224  32.245  24.975  11.136
55157W        W28225  15.387  17.504   1.689
55158W        W28226  42.719  17.507   0.775
55159W        W28227   4.102  26.629   1.699
55160W        W28228   3.276  13.464   2.294
55161W        W28229  39.018  16.557   4.159
55162W        W28230   5.780  40.430   1.747
55163W        W28231  41.527  27.685   4.781
55164W        W28232  43.556  11.710   0.946
55165W        W28233   7.626  12.718   1.604
55166W        W28234   5.284  29.108   2.370
55167W        W28235  26.470  20.425   3.163
55168W        W28236   2.102  25.051   4.282
55169W        W28237  37.555  44.908  12.190
55170W        W28238  10.470   9.981  13.449
55171W        W28239  30.180  21.491   0.014
55172W        W28240  18.751  36.591   2.454
55173W        W28241  28.407  36.436  13.852
55174W        W28242  18.458  37.521   3.774
55175W        W28243  18.885   7.304  12.886
55176W        W28244  39.451  37.798   2.205
55177W        W28245  17.315  23.137   0.336
55178W        W28246   2.322  10.778  13.877
55179W        W28247  42.383  44.453   4.439
55180W        W28248  27.019  25.922  10.373
55181W        W28249   4.250  41.028  13.642
55182W        W28250  34.878  19.691   0.199
55183W        W28251  30.696  16.547   0.384
55184W        W28252   0.001   2.217  11.564
55185W        W28253  22.102  35.208   1.241
55186W        W28254  37.887   2.918   0.144
55187W        W28255  21.247  38.164  12.092
55188W        W28256   7.755   8.436  12.795
55189W        W28257  43.679  39.754  11.962
55190W        W28258   3.673  37.617   1.635
55191W        W28259  33.501  37.426  10.388
55192W        W28260  44.320  34.856   1.839
55193W        W28261  22.603  12.945   1.816
55194W        W28262   5.744  23.771  13.325
55195W        W28263  39.864  22.042  13.773
55196W        W28264  40.871  37.540   1.875
55197W        W28265  32.132   6.733  12.817
55198W        W28266  23.672  41.998   0.071
55199W        W28267  18.105   1.397   1.913
55200W        W28268  31.835   6.492  11.508
55201W        W28269  39.439  20.980   3.739
55202W        W28270  28.037  26.515  12.038
55203W        W28271  34.198  44.866  12.503
55204W        W28272  22.909  27.135  14.130
55205W        W28273  24.013  36.925  11.187
55206W        W28274  17.774  24.340   1.785
55207W        W28275  21.511  31.974  12.054
55208W        W28276  27.600  40.535   3.228
55209W        W28277   5.354  13.121  12.177
55210W        W28278  38.091  34.636   5.134
55211W        W28279  26.009  40.554  13.950
55212W        W28280  14.144  34.413  11.003
55213W        W28281  21.225   5.636   0.806
55214W        W28282  36.628  31.853   4.187
55215W        W28283   8.370  32.297  12.517
55216W        W28284  28.682  34.483   0.450
55217W        W28285  43.819   9.662  12.598
55218W        W28286   2.210  42.081  12.873
55219W        W28287  33.459  39.560  10.907
55220W        W28288  18.180  43.299  14.306
55221W        W28289  18.163  41.331   1.496
55222W        W28290  43.295  20.996  12.814
55223W        W28291  39.873  33.881   0.428
55224W        W28292  13.085  43.249   0.835
55225W        W28293  16.698  35.562  14.905
55226W        W28294  38.369  32.851  12.169
55227W        W28295  39.182  32.121  14.662
55228W        W28296   7.128  14.712  14.909
55229W        W28297   9.503  11.491  11.976
55230W        W28298  25.981  37.422  14.008
55231W        W28299   2.202   5.513  10.994
55232W        W28300  17.856  23.868  11.156
55233W        W28301  34.388  26.276  11.088
55234W        W28302  18.159  32.159   1.877
55235W        W28303  39.907  30.962  11.498
55236W        W28304  17.323   0.583  14.268
55237W        W28305  19.255  34.346  13.571
55238W        W28306  42.337  35.412   4.149
55239W        W28307  28.138  32.170   1.869
55240W        W28308  13.232  24.605  10.617
55241W        W28309  43.313  26.375  11.527
55242W        W28310   9.731  34.140  10.710
55243W        W28311  20.746  15.103  11.111
55244W        W28312   4.365  31.690   4.069
55245W        W28313   6.900   0.634   3.081
55246W        W28314  16.582  16.018  12.423
55247W        W28315   5.274  31.771  10.603
55248W        W28316  44.963  44.705   3.261
55249W        W28317  25.646  26.238  13.039
55250W        W28318  26.054  22.210   4.718
55251W        W28319   3.938  10.759  12.484
55252W        W28320  24.878  27.550  14.539
55253W        W28321  12.491   7.262   3.689
55254W        W28322  42.270  19.746   1.454
55255W        W28323  13.293  10.617   4.736
55256W        W28324   1.946  11.135  12.177
55257W        W28325  40.046   4.154   0.706
55258W        W28326  18.768  33.228   0.372
55259W        W28327  17.037  34.316   0.788
55260W        W28328  13.681  41.077  11.666
55261W        W28329   0.546   7.297   4.373
55262W        W28330  28.680  13.489   2.233
55263W        W28331  15.100  23.022  12.192
55264W        W28332  10.830  20.154  13.559
55265W        W28333   1.261  17.301  11.518
55266W        W28334  13.837  24.761  13.324
55267W        W28335  15.665  28.599   4.129
55268W        W28336  16.859   9.393   2.240
55269W        W28337  31.654   3.003   1.416
55270W        W28338   5.289  12.197   4.874
55271W        W28339  41.600  30.132  14.097
55272W        W28340  11.577  12.174   0.872
55273W        W28341  19.031  21.490  10.611
55274W        W28342  37.434  10.262   0.771
55275W        W28343  42.428  13.535   5.933
55276W        W28344  15.275  28.849  14.783
55277W        W28345  13.115  37.529   3.017
55278W        W28346  37.848  33.112  11.587
55279W        W28347  27.611  25.015   4.542
55280W        W28348   2.569  35.570   2.784
55281W        W28349   6.382  23.747  13.767
55282W        W28350  25.707  17.591  11.183
55283W        W28351   9.798  44.510  14.270
55284W        W28352   7.837   7.726   2.447
55285W        W28353  11.715  14.808  10.721
55286W        W28354  43.083  12.885  12.584
55287W        W28355  16.290  17.609   2.032
55288W        W28356   3.745   1.490  13.908
55289W        W28357  44.064   4.252   2.421
55290W        W28358  39.746  28.132   0.972
55291W        W28359   0.856  20.543   4.863
55292W        W28360  42.401  21.008   4.086
55293W        W28361  17.410  32.613  12.092
55294W        W28362  10.169  13.359  12.186
55295W        W28363  41.327  37.483   3.339
55296W        W28364   8.110  12.607   2.391
55297W        W28365  11.912  15.627   2.184
55298W        W28366  41.377   8.371  12.362
55299W        W28367  23.633  15.783   3.321
55300W        W28368  35.577   6.209  13.000
55301W        W28369  13.074   8.914   4.146
55302W        W28370  10.165  30.681   1.313
55303W        W28371  30.503  22.639  11.948
55304W        W28372  21.474  34.476   4.025
55305W        W28373   9.329  19.056   1.403
55306W        W28374  38.920   5.983   2.906
55307W        W28375   4.562  37.705  13.478
55308W        W28376  24.636  37.926   4.298
55309W        W28377  43.244   5.981  14.663
55310W        W28378  33.414  35.401   0.279
55311W        W28379   9.218  19.784  11.153
55312W        W28380  28.956  43.882   2.931
55313W        W28381  34.109  14.163   4.629
55314W        W28382   4.900   7.734   4.668
55315W        W28383  28.908  11.851   3.269
55316W        W28384   8.153  32.505  12.073
55317W        W28385  16.395   9.870   1.765
55318W        W28386  31.112   0.320  14.916
55319W        W28387   8.106  27.050   2.927
55320W        W28388  28.696   5.545   3.334
55321W        W28389  12.268  21.202   2.334
55322W        W28390  28.658  28.087   4.223
55323W        W28391  29.360  29.568   0.188
55324W        W28392   6.370  21.091  10.755
55325W        W28393   2.278  16.054   0.270
55326W        W28394  23.556  41.507   0.246
55327W        W28395  22.579  12.706  13.976
55328W        W28396  15.635   1.987  12.089
55329W        W28397  11.684  36.887  12.597
55330W        W28398  27.421  14.524   4.178
55331W        W28399  35.986   3.910   4.189
55332W        W28400   0.389  42.264   2.883
55333W        W28401  32.395  16.216   0.751
55334W        W28402  36.237  14.054  12.577
55335W        W28403   1.295  38.846  12.971
55336W        W28404  44.312  42.673   5.089
55337W        W28405   4.518  43.890   2.998
55338W        W28406  37.471  31.037  14.847
55339W        W28407  14.766  43.235   1.228
55340W        W28408  33.524  19.771  11.633
55341W        W28409  40.059  10.966  11.145
55342W        W28410  40.861  24.131  13.593
55343W        W28411  15.412   1.310  11.530
55344W        W28412  43.023  28.221  14.573
55345W        W28413  19.228  13.202   1.999
55346W        W28414  32.986  23.537  13.108
55347W        W28415  13.241   3.339  11.260
55348W        W28416  30.982  35.033   3.363
55349W        W28417   2.323  44.753   0.696
55350W        W28418  36.951  43.926  11.643
55351W        W28419  31.641   9.414   2.380
55352W        W28420  34.858  34.186   0.263
55353W        W28421  37.336   2.857  12.963
55354W        W28422  16.605  11.332  11.023
55355W        W28423  12.084  13.665  10.947
55356W        W28424  10.874  19.522  10.866
55357W        W28425  18.078   7.640  11.610
55358W        W28426  30.615  41.754  11.919
55359W        W28427  21.673  24.728  13.784
55360W        W28428  15.652  19.003  14.290
55361W        W28429   8.262  40.280   4.152
55362W        W28430  36.460  27.958  10.678
55363W        W28431   5.853  14.407  13.921
55364W        W28432  19.601  36.133   4.334
55365W        W28433   9.502  32.077   1.697
55366W        W28434   5.850  36.135  13.274
55367W        W28435  24.658  30.920  14.026
55368W        W28436   8.241  28.683   4.169
55369W        W28437  16.248   5.213  12.407
55370W        W28438  14.149  40.261   1.916
55371W        W28439  38.324  11.701  10.650
55372W        W28440   2.234   1.587   3.061
55373W        W28441  14.604   2.791  13.370
55374W        W28442  27.179  26.960  13.964
55375W        W28443  26.405  13.140   2.727
55376W        W28444  17.314   6.788   4.654
55377W        W28445  14.837   6.631  12.841
55378W        W28446  41.015  42.528   3.222
55379W        W28447  11.834  16.746  13.314
55380W        W28448  42.088  32.548  10.517
55381W        W28449   5.290  28.619   1.078
55382W        W28450  26.727   8.028   2.532
55383W        W28451  29.446  33.706  10.027
55384W        W28452  36.834  38.632   3.604
55385W        W28453  24.473  33.050  14.836
55386W        W28454  14.245  21.555   2.251
55387W        W28455  25.589  42.261  12.150
55388W        W28456  27.180  38.365   0.906
55389W        W28457  38.017  21.044   2.273
55390W        W28458   8.647   0.422  14.044
55391W        W28459   4.769  26.045  12.929
55392W        W28460  43.390  40.535  13.823
55393W        W28461  18.272  10.093   1.848
55394W        W28462  36.968   4.681  13.437
55395W        W28463  14.094  32.177   4.148
55396W        W28464   3.238  42.374   0.704
55397W        W28465  14.331  31.225   3.674
55398W        W28466  35.948  40.570  12.983
55399W        W28467  32.473  33.407   2.708
55400W        W28468  25.296  35.340  11.122
55401W        W28469  44.762   9.090   0.787
55402W        W28470  43.397  13.289  13.825
55403W        W28471  27.647  39.492   2.358
55404W        W28472  25.323  19.362  13.666
55405W        W28473  27.054  19.970  13.307
55406W        W28474   0.353  19.502   2.476
55407W        W28475  30.395  37.827  14.218
55408W        W28476  44.162  32.958   2.355
55409W        W28477  24.266  16.306   2.730
55410W        W28478  26.221   6.882   1.245
55411W        W28479  34.865  29.399   2.408
55412W        W28480  41.796  43.763  11.308
55413W        W28481  30.493  29.263  12.959
55414W        W28482  23.715   0.001   2.219
55415W        W28483   5.546   1.254  13.865
55416W        W28484  20.167   9.369   3.006
55417W        W28485  16.353  38.024  13.793
55418W        W28486  36.388  25.202  11.804
55419W        W28487  35.601   8.227   1.637
55420W        W28488  40.634  31.011  12.074
55421W        W28489   6.746   5.797  10.709
55422W        W28490  40.048   1.655  11.006
55423W        W28491   3.715  42.356  11.375
55424W        W28492  27.291  36.073   4.538
55425W        W28493  34.776  19.463   3.710
55426W        W28494  18.937   4.427  13.026
55427W        W28495   8.832  29.126  14.251
55428W        W28496  26.315   8.062  11.455
55429W        W28497  13.572   7.368   1.646
55430W        W28498  31.870  29.394  12.910
55431W        W28499  30.983  15.331   3.242
55432W        W28500  37.810  20.438   4.073
55433W        W28501  12.229  37.037  10.542
55434W        W28502  43.323  11.719   2.018
55435W        W28503  28.116  22.146   4.633
55436W        W28504   1.904   5.378   1.248
55437W        W28505  20.014  18.553  11.631
55438W        W28506  40.011  42.941   1.377
55439W        W28507   9.205  25.741  14.886
55440W        W28508  37.582  29.020   1.710
55441W        W28509   7.885  17.685   1.690
55442W        W28510   7.392  16.683  12.405
55443W        W28511  25.596  43.224  13.950
55444W        W28512  42.872   9.756  13.786
55445W        W28513   4.208  38.811  13.363
55446W        W28514   4.636   4.339   0.380
55447W        W28515  14.247  13.375  13.400
55448W        W28516  41.978   3.392   0.554
55449W        W28517  44.576  11.487   0.376
55450W        W28518  43.778  14.345   4.573
55451W        W28519  20.955  12.003   2.034
55452W        W28520   0.882  19.222  12.684
55453W        W28521  44.289  16.735  10.605
55454W        W28522  36.022   1.710   4.154
55455W        W28523  18.140  34.940   0.351
55456W        W28524  22.789   5.686   2.708
55457W        W28525   1.461  14.670  12.066
55458W        W28526  36.377  23.693  12.350
55459W        W28527   4.736  27.880  12.812
55460W        W28528  34.949   4.319   4.025
55461W        W28529   2.420  30.514  10.425
55462W        W28530   2.735  14.350   4.932
55463W        W28531  14.634  12.726  12.076
55464W        W28532  44.275  15.786   5.212
55465W        W28533  25.808  34.506  12.817
55466W        W28534  17.721  28.547  10.717
55467W        W28535  43.007  37.070   1.218
55468W        W28536  26.521  40.091   4.558
55469W        W28537  21.804   5.758   2.231
55470W        W28538  35.360  31.960   3.212
55471W        W28539  17.082   5.339   3.353
55472W        W28540   5.796  23.225   0.891
55473W        W28541  18.771   5.242  11.170
55474W        W28542   3.433  24.391   3.609
55475W        W28543  44.467  18.825   3.198
55476W        W28544  17.391   3.198  13.460
55477W        W28545  21.083  21.300   2.688
55478W        W28546  18.157  30.078   4.550
55479W        W28547  20.628  25.737  13.084
55480W        W28548  28.026  12.354   5.410
55481W        W28549  17.277  38.806  10.637
55482W        W28550  10.206  37.759  12.989
55483W        W28551  28.394  18.209   2.135
55484W        W28552  27.585  40.028  14.735
55485W        W28553  31.906  13.508  12.931
55486W        W28554  17.605  20.723   3.234
55487W        W28555   7.269  18.213   0.069
55488W        W28556  42.043   3.852  10.842
55489W        W28557  28.752  44.545  12.959
55490W        W28558  23.087   0.985   2.359
55491W        W28559  32.609  42.366  11.438
55492W        W28560   9.754  39.252  10.949
55493W        W28561  40.534   5.375  13.467
55494W        W28562  23.948  27.489  12.051
55495W        W28563  16.113  30.682   3.796
55496W        W28564  22.513   5.109   3.709
55497W        W28565  19.812  38.855   4.944
55498W        W28566  33.868  41.436   4.556
55499W        W28567  31.641  37.905   3.914
55500W        W28568  37.443   4.841   3.389
55501W        W28569  24.226   3.763   0.694
55502W        W28570  33.921   1.901  11.022
55503W        W28571   0.765  26.003   2.244
55504W        W28572  25.599   1.890  13.956
55505W        W28573  20.375  36.534  11.471
55506W        W28574   0.479  25.629   1.418
55507W        W28575   4.399  17.533  11.599
55508W        W28576  19.146  34.060   1.998
55509W        W28577  27.967  14.314   3.719
55510W        W28578  18.214  11.807   0.532
55511W        W28579  42.101  40.580  14.462
55512W        W28580  30.596  11.382  14.971
55513W        W28581   8.628  14.592   4.478
55514W        W28582   8.551   5.795  14.899
55515W        W28583   4.006   3.257   2.270
55516W        W28584  30.144  36.332   2.130
55517W        W28585   7.716   3.028   4.647
55518W        W28586  29.114  22.993   4.690
55519W        W28587  39.388  25.122  10.623
55520W        W28588  38.337  19.194  14.379
55521W        W28589  14.695  26.749  11.442
55522W        W28590   8.376  43.169  11.076
55523W        W28591  34.528   6.017   2.859
55524W        W28592  35.945   4.673  10.716
55525W        W28593   8.260  26.035  14.001
55526W        W28594  24.886  10.599  12.087
55527W        W28595  14.288   2.055   0.952
55528W        W28596  17.234  39.021   5.069
55529W        W28597   5.397  15.210  12.607
55530W        W28598  26.730  27.250  10.537
55531W        W28599  40.459   4.481   0.802
55532W        W28600  20.723  20.839  12.326
55533W        W28601  36.432   8.901   1.892
55534W        W28602  31.264  15.555  14.337
55535W        W28603   1.219  27.898   1.228
55536W        W28604  42.355   9.471   3.630
55537W        W28605  31.601  36.480  10.527
55538W        W28606  22.438   6.679  11.637
55539W        W28607   3.928  30.184   3.621
55540W        W28608  15.852  27.933   2.775
55541W        W28609  44.711  41.859   4.728
55542W        W28610  38.506  24.633  11.802
55543W        W28611   0.030  16.454   2.558
55544W        W28612  33.101   1.208   1.197
55545W        W28613  37.530   6.987  12.010
55546W        W28614  30.638  44.095  13.565
55547W        W28615  40.382  11.310  10.612
55548W        W28616   3.733  28.078   1.581
55549W        W28617   7.648  40.010  13.927
55550W        W28618  42.890  35.431  11.166
55551W        W28619  42.736   1.212  11.114
55552W        W28620  10.240  14.272  13.778
55553W        W28621  31.530  39.122   2.317
55554W        W28622  12.043   9.344   1.860
55555W        W28623  34.151  41.095   3.186
55556W        W28624  44.359  29.000  12.566
55557W        W28625  22.253  21.974   1.838
55558W        W28626   7.393  18.469  10.625
55559W        W28627  28.160  40.264   1.399
55560W        W28628  19.478   7.257   3.235
55561W        W28629  33.503  11.557  13.528
55562W        W28630  21.470   6.009   4.638
55563W        W28631  26.548  26.149  14.371
55564W        W28632  15.155  19.175   1.212
55565W        W28633   1.644  41.011  11.913
55566W        W28634  17.756  26.592  14.717
55567W        W28635  30.682  16.729  14.013
55568W        W28636   1.755  22.033  14.384
55569W        W28637   1.349  18.440  12.183
55570W        W28638   7.598  25.303   3.280
55571W        W28639  18.204  14.308   2.894
55572W        W28640   0.585  38.856  14.067
55573W        W28641  25.395  16.534   0.389
55574W        W28642  38.420  24.085  14.113
55575W        W28643   1.991   6.556   0.083
55576W        W28644  22.554  12.954  12.096
55577W        W28645  17.814   0.728  12.736
55578W        W28646  23.934  30.055   0.936
55579W        W28647  22.246   4.712   1.321
55580W        W28648  31.604  30.665   1.886
55581W        W28649  12.466  13.574   4.898
55582W        W28650   8.436  20.197  10.813
55583W        W28651  14.888   5.119  11.515
55584W        W28652   2.864  29.001  10.872
55585W        W28653  17.396  22.756   3.785
55586W        W28654   4.228   0.745   4.903
55587W        W28655   5.639  10.234   3.376
55588W        W28656  23.952  17.262   5.144
55589W        W28657  38.490  26.108  13.003
55590W        W28658  12.792   1.806   2.217
55591W        W28659  34.450  41.474  13.978
55592W        W28660  28.540  42.920  12.011
55593W        W28661  39.972  19.123   4.052
55594W        W28662  15.845  30.125  10.658
55595W        W28663   8.666   3.307   3.381
55596W        W28664  20.621   4.755   3.690
55597W        W28665  25.938  30.508  14.466
55598W        W28666   0.984  25.740   4.772
55599W        W28667  28.923   0.896   2.679
55600W        W28668  30.019   0.034  13.136
55601W        W28669  16.790  27.303   2.411
55602W        W28670  39.942  38.752   0.554
55603W        W28671   0.427  11.160  14.335
55604W        W28672   5.391   5.866   4.372
55605W        W28673   0.845  29.091   5.402
55606W        W28674  23.753  34.709   2.805
55607W        W28675  18.272  10.672  12.345
55608W        W28676  17.151  28.695  14.465
55609W        W28677  28.112   7.273  14.875
55610W        W28678  23.457  12.849   3.600
55611W        W28679  10.564  19.751   1.763
55612W        W28680  20.293  37.483   4.688
55613W        W28681   5.144   9.376   1.002
55614W        W28682  16.189  26.524   0.852
55615W        W28683  15.030  10.221   4.543
55616W        W28684  41.551  30.446  11.192
55617W        W28685  39.165  27.959  10.044
55618W        W28686  23.281  25.601   3.569
55619W        W28687   9.649  43.766  11.953
55620W        W28688  38.314  44.562   3.119
55621W        W28689  39.637  20.539  11.845
55622W        W28690  17.367  19.082  10.256
55623W        W28691   7.833  15.542  12.259
55624W        W28692  10.858  34.298   0.230
55625W        W28693  28.345  10.258   2.780
55626W        W28694  43.732  28.009  11.946
55627W        W28695  15.122  39.033   3.605
55628W        W28696  36.170  10.655  13.965
55629W        W28697   6.405  23.092  10.626
55630W        W28698  37.913  25.107  14.801
55631W        W28699  26.948   7.241   3.101
55632W        W28700  18.767  24.239  12.563
55633W        W28701  10.684   1.818  12.453
55634W        W28702  43.079  35.924   1.098
55635W        W28703  43.439  11.303   3.708
55636W        W28704  37.742  31.206   0.825
55637W        W28705  40.947   0.057  13.296
55638W        W28706   1.741  23.729   3.280
55639W        W28707  41.041   8.118  11.132
55640W        W28708  41.752   6.291   2.830
55641W        W28709  28.661  35.582  14.499
55642W        W28710  22.227  11.897  12.414
55643W        W28711  33.535  33.887   3.689
55644W        W28712  23.112  17.552   2.994
55645W        W28713   9.702  36.924  14.735
55646W        W28714  42.493  30.176   3.885
55647W        W28715  16.123   1.526   4.855
55648W        W28716  37.874  24.078  11.399
55649W        W28717   9.940  14.577  12.489
55650W        W28718  23.184  14.742  14.524
55651W        W28719  24.785  38.466   2.364
55652W        W28720   3.590   5.958   0.133
55653W        W28721  33.480  18.754   4.951
55654W        W28722  43.440  29.659  12.042
55655W        W28723   2.817  24.364  14.229
55656W        W28724   8.438  31.473   4.339
55657W        W28725   7.467   0.431   3.748
55658W        W28726  26.647  33.141   3.358
55659W        W28727  23.006  18.658   1.813
55660W        W28728  36.547   2.790  12.380
55661W        W28729  13.862  17.009   3.688
55662W        W28730   6.699  42.390   0.682
55663W        W28731  44.840   5.233   4.146
55664W        W28732  30.132  19.746  13.572
55665W        W28733   5.066  13.450  11.922
55666W        W28734   6.799  21.669   2.091
55667W        W28735  40.067  15.160  14.905
55668W        W28736  17.371  34.225   4.558
55669W        W28737  15.504  35.872  12.859
55670W        W28738  40.507   7.373  13.254
55671W        W28739   6.819  41.678   3.788
55672W        W28740  34.079   3.213   1.761
55673W        W28741  26.454  20.512  13.403
55674W        W28742  11.636  39.845   3.948
55675W        W28743  25.136  14.343  13.101
55676W        W28744  36.506  17.219   4.507
55677W        W28745  20.210   5.905   1.167
55678W        W28746  12.382   1.825   4.366
55679W        W28747  14.742  11.175  10.503
55680W        W28748  15.639  12.844   3.313
55681W        W28749  29.190  29.377  10.996
55682W        W28750  27.998   8.371  13.060
55683W        W28751  19.510   6.829   1.848
55684W        W28752   1.193  19.466   0.715
55685W        W28753  35.336  17.966   3.844
55686W        W28754   5.964  34.903   2.775
55687W        W28755  14.790  12.612  13.972
55688W        W28756  22.572   0.909   3.130
55689W        W28757   6.476  44.251   5.061
55690W        W28758   7.215  18.008  10.749
55691W        W28759  10.406   1.877  11.237
55692W        W28760  37.154  20.767   2.380
55693W        W28761  21.468  38.411   3.286
55694W        W28762  24.717  37.523  11.812
55695W        W28763  30.069  12.150   2.054
55696W        W28764  43.754  15.543  12.043
55697W        W28765  39.791  43.704   2.787
55698W        W28766  18.769  37.454  13.068
55699W        W28767   8.677  10.437  14.647
55700W        W28768  36.051  18.580  14.023
55701W        W28769  13.188  43.985  13.856
55702W        W28770   9.708   7.216  13.987
55703W        W28771  36.029  36.921  12.429
55704W        W28772  43.743   3.014   0.814
55705W        W28773   7.857  23.804  12.913
55706W        W28774   1.750  22.842  13.988
55707W        W28775  33.493   8.921   4.356
55708W        W28776  18.945  40.762   1.344
55709W        W28777  35.339   7.611   3.691
55710W        W28778   1.491  44.431  11.990
55711W        W28779   5.985   5.851   1.313
55712W        W28780  28.080   0.735  10.541
55713W        W28781  39.521  11.190  11.810
55714W        W28782   0.005  22.213  11.952
55715W        W28783  18.285  24.236   1.868
55716W        W28784   8.718  24.585   3.122
55717W        W28785  26.509  22.966   0.408
55718W        W28786  23.248  23.196  13.579
55719W        W28787  36.337  22.660   3.571
55720W        W28788  44.506  26.607   3.181
55721W        W28789  17.455  26.633  12.898
55722W        W28790  28.990   7.783   3.604
55723W        W28791  27.966  32.900  11.583
55724W        W28792  39.714  12.796  13.468
55725W        W28793  33.540   5.923   2.910
55726W        W28794  14.695  21.625  10.881
55727W        W28795  15.313   8.326  11.603
55728W        W28796  17.243   1.502  12.630
55729W        W28797  29.602  25.339  13.563
55730W        W28798  34.186   6.784  12.016
55731W        W28799   8.630  29.128  11.048
55732W        W28800   6.668   3.483   5.053
55733W        W28801   1.341  39.809   2.758
55734W        W28802  20.028   5.169   2.757
55735W        W28803  22.624  39.594   2.437
55736W        W28804  29.209   0.509   3.756
55737W        W28805  39.844  39.245   0.452
55738W        W28806  19.767  42.265  14.821
55739W        W28807  36.828   1.782  13.527
55740W        W28808  24.936  17.805   3.332
55741W        W28809  15.139  34.913   2.183
55742W        W28810  44.598  39.130  11.077
55743W        W28811  34.422  15.318  12.140
55744W        W28812  23.511  33.036  12.966
55745W        W28813   8.371  11.678  14.550
55746W        W28814  32.059  29.928   0.460
55747W        W28815  42.538  24.697   0.460
55748W        W28816   2.894  11.076   4.713
55749W        W28817  39.442  25.999   1.021
55750W        W28818  29.448  28.944  12.664
55751W        W28819  28.694  32.647  10.779
55752W        W28820  22.101  34.426  13.731
55753W        W28821  27.991  33.688   0.983
55754W        W28822  17.202  11.458  13.468
55755W        W28823  42.240  30.074  12.069
55756W        W28824  11.637  19.802  14.105
55757W        W28825   7.776   4.946   4.484
55758W        W28826  36.830  25.512   2.272
55759W        W28827  13.675  36.087   0.946
55760W        W28828  29.612  28.386  14.288
55761W        W28829  37.165  37.809  14.271
55762W        W28830  43.402  11.288   4.405
55763W        W28831  42.817  19.228   3.606
55764W        W28832  25.166  26.206   3.302
55765W        W28833  36.112  26.583   3.318
55766W        W28834  38.390  12.241  11.691
55767W        W28835  15.223   5.056   4.492
55768W        W28836   2.993  22.980  10.492
55769W        W28837  29.752  12.820  13.052
55770W        W28838  23.908  28.744   2.324
55771W        W28839  39.376   5.981   2.134
55772W        W28840  44.248   0.471  12.488
55773W        W28841   2.053   9.936  12.742
55774W        W28842   8.649  34.722  13.594
55775W        W28843  29.487  11.048   1.845
55776W        W28844  36.608   2.830   3.579
55777W        W28845  23.655  28.201  12.551
55778W        W28846   7.375  41.495  13.058
55779W        W28847   5.440   6.541   0.204
55780W        W28848  10.783  31.432  13.378
55781W        W28849  20.186  15.673  11.519
55782W        W28850  42.007  22.789  10.246
55783W        W28851  22.972   9.618  12.225
55784W        W28852  30.938  10.676   2.318
55785W        W28853  19.213  38.924  10.542
55786W        W28854  42.452  22.211  11.999
55787W        W28855  20.711  19.030   4.646
55788W        W28856   1.954  30.202  12.602
55789W        W28857  17.087  19.409  13.833
55790W        W28858  27.088  17.561  10.621
55791W        W28859  35.464   2.785   4.421
55792W        W28860   5.329  37.916  13.506
55793W        W28861  30.195  43.846  11.926
55794W        W28862  33.899  36.839  10.348
55795W        W28863   3.769  27.420  10.719
55796W        W28864   0.866  30.916  14.112
55797W        W28865   4.900  13.946   1.743
55798W        W28866  37.034  32.631  12.926
55799W        W28867  28.397   6.448  12.087
55800W        W28868   1.788  17.246  11.667
55801W        W28869  23.446  15.362   1.422
55802W        W28870  41.064   3.792   2.871
55803W        W28871   5.663   2.481   0.322
55804W        W28872  43.655   5.027  10.068
55805W        W28873   6.894   2.444  10.749
55806W        W28874  43.250  16.319  11.999
55807W        W28875  42.298  37.867  14.053
55808W        W28876  14.605  26.554   4.494
55809W        W28877  18.611  44.188   1.414
55810W        W28878  24.075   9.118  10.689
55811W        W28879  27.651  38.483  11.579
55812W        W28880  43.240  32.966  11.522
55813W        W28881  39.900  37.903   3.432
55814W        W28882  36.141  32.876  14.011
55815W        W28883  42.933  19.120  14.027
55816W        W28884  33.482  27.489   0.484
55817W        W28885  13.188  39.474   4.674
55818W        W28886  16.933  44.538  14.428
55819W        W28887  15.147  13.756  14.474
55820W        W28888   7.677  26.472   1.379
55821W        W28889  39.612   5.760   2.598
55822W        W28890  15.174  25.203   0.989
55823W        W28891  23.510  32.497   2.736
55824W        W28892  32.425  33.563   3.205
55825W        W28893  35.435  30.442   4.907
55826W        W28894   6.214  12.573  12.811
55827W        W28895  14.464  10.929  12.537
55828W        W28896  44.891  23.056   0.543
55829W        W28897  44.408  35.104   3.193
55830W        W28898  19.247  24.527   2.803
55831W        W28899  12.207  12.620   1.759
55832W        W28900  44.394   3.330   3.402
55833W        W28901  29.486  25.016   1.323
55834W        W28902  14.126   9.448  13.788
55835W        W28903   6.393   1.986  14.656
55836W        W28904  36.519  33.473  12.115
55837W        W28905  16.055  25.763   1.355
55838W        W28906  31.833  12.588   3.831
55839W        W28907   6.791   3.717  12.327
55840W        W28908   6.704   0.600  14.140
55841W        W28909   4.444  20.623  12.290
55842W        W28910  26.352   6.179   2.435
55843W        W28911  35.887  32.660  14.444
55844W        W28912  13.491  12.180  11.612
55845W        W28913  36.857  43.749   3.780
55846W        W28914  43.488  36.023  11.567
55847W        W28915  12.560  44.987   3.770
55848W        W28916   4.251  18.162   0.904
55849W        W28917  20.226  22.273   2.791
55850W        W28918  19.765  13.971   1.820
55851W        W28919  43.778  24.016   4.652
55852W        W28920  33.706  40.874   4.219
55853W        W28921  16.541   3.838  11.062
55854W        W28922  12.821   6.159  11.504
55855W        W28923   7.991   7.208   5.237
55856W        W28924  24.201   4.800   2.111
55857W        W28925   3.193  22.847   5.004
55858W        W28926  23.270  41.749   1.524
55859W        W28927  27.647  40.027  13.762
55860W        W28928   7.124  23.456   4.584
55861W        W28929  36.926  33.972  11.586
55862W        W28930  22.653  34.408   3.258
55863W        W28931  16.002  20.250   4.455
55864W        W28932  44.493   3.308   0.384
55865W        W28933  40.465   2.290  13.395
55866W        W28934  17.740  23.756   4.034
55867W        W28935  15.157  13.687   4.237
55868W        W28936  38.004  36.372   1.295
55869W        W28937  34.673  36.188   1.327
55870W        W28938  36.945  27.707   3.490
55871W        W28939  27.930  28.222   1.318
55872W        W28940  27.395  30.728   2.258
55873W        W28941  36.433   8.510   3.656
55874W        W28942  19.137  27.637  13.766
55875W        W28943   4.184   4.950  14.260
55876W        W28944   0.443  38.948   2.263
55877W        W28945   2.485  44.768   3.036
55878W        W28946  15.325   1.954  14.954
55879W        W28947   3.821  35.040   0.586
55880W        W28948  18.359  25.698  13.346
55881W        W28949  14.440  37.889   0.510
55882W        W28950  25.543  24.953   0.837
55883W        W28951  21.223  42.910   0.878
55884W        W28952  38.015  25.585   0.469
55885W        W28953  41.295  44.400  11.337
55886W        W28954  10.351  11.649  10.562
55887W        W28955  17.101  18.531  13.315
55888W        W28956  11.989   0.796  10.159
55889W        W28957   9.120   2.776   2.792
55890W        W28958   5.275  31.028  11.677
55891W        W28959  39.387   6.941   3.995
55892W        W28960   0.697  31.134  11.054
55893W        W28961  22.085  21.820  10.713
55894W        W28962   5.997  35.633   1.514
55895W        W28963  31.932  32.038  13.805
55896W        W28964  30.113  30.522   1.401
55897W        W28965  22.658  29.991   3.670
55898W        W28966  39.495   3.402  10.273
55899W        W28967  35.520  13.029  12.507
55900W        W28968  42.715  33.962  10.611
55901W        W28969  38.332   8.635   2.223
55902W        W28970  28.687  37.198   3.689
55903W        W28971  10.573  39.379  13.816
55904W        W28972   1.684  35.217   1.820
55905W        W28973  40.601  16.142   0.079
55906W        W28974  33.169  42.769   3.392
55907W        W28975  38.663  35.670   0.136
55908W        W28976  40.781   1.064  12.488
55909W        W28977  15.954   0.808   4.089
55910W        W28978  21.169  34.995  14.338
55911W        W28979  43.524   9.200   0.869
55912W        W28980   7.888   1.723   3.682
55913W        W28981  39.847   3.278  10.630
55914W        W28982   2.703  43.996   3.376
55915W        W28983  14.076   5.010   1.875
55916W        W28984  21.108   4.501   4.517
55917W        W28985  15.805  22.722   4.585
55918W        W28986   6.154  43.355   2.746
55919W        W28987   7.232  14.716   3.374
55920W        W28988  32.927  32.217  13.342
55921W        W28989   4.710  16.249  12.095
55922W        W28990  42.039  24.290   4.269
55923W        W28991  15.825  23.609   0.402
55924W        W28992  23.792   5.805   3.531
55925W        W28993  14.776  22.063   3.567
55926W        W28994  36.442   8.684  12.387
55927W        W28995  31.630  41.930   1.061
55928W        W28996  25.336  40.117  13.116
55929W        W28997  17.233  26.564  14.762
55930W        W28998   1.499   7.370   1.374
55931W        W28999  16.695  16.274  14.952
55932W        W29000  15.639  43.882  10.686
55933W        W29001  20.013   9.418  13.538
55934W        W29002  39.968  14.497   0.478
55935W        W29003  19.472  18.690   3.224
55936W        W29004  25.108  22.635   1.902
55937W        W29005   3.842  24.102   3.766
55938W        W29006  19.222  29.873  11.891
55939W        W29007  40.814  13.368  13.925
55940W        W29008   4.788  10.596  14.453
55941W        W29009  25.768  41.747  14.338
55942W        W29010  31.647  21.882   1.299
55943W        W29011   6.589  41.616   5.610
55944W        W29012   1.924  27.203  13.758
55945W        W29013  34.887  19.798   3.256
55946W        W29014  28.719  15.237   3.713
55947W        W29015   3.332  36.327  12.339
55948W        W29016  35.512  22.753   0.024
55949W        W29017  42.728  43.794   2.700
55950W        W29018  42.510  40.073   1.742
55951W        W29019   3.551  23.545   0.340
55952W        W29020   1.204  34.971   2.188
55953W        W29021   1.836  11.299  10.670
55954W        W29022  15.787  27.318   3.619
55955W        W29023  22.136  10.418   2.378
55956W        W29024  14.740   3.184  14.857
55957W        W29025   4.426  27.062  14.951
55958W        W29026  23.763   2.444   2.882
55959W        W29027  41.401  17.246  12.964
55960W        W29028  38.236  11.916  14.326
55961W        W29029  14.239  22.160   4.364
55962W        W29030  40.488  43.327  12.458
55963W        W29031  30.069  42.888   3.362
55964W        W29032  15.919  31.220  11.015
55965W        W29033  32.391  44.322  13.661
55966W        W29034  44.111  25.746  14.288
55967W        W29035  24.739  33.601  12.878
55968W        W29036   2.944  41.405   4.948
55969W        W29037  26.442  30.476  14.318
55970W        W29038   1.815  34.113  13.282
55971W        W29039  18.516  35.058   2.816
55972W        W29040  10.550  23.223   0.744
55973W        W29041  17.127  23.159   3.619
55974W        W29042  17.480   3.412  12.832
55975W        W29043  20.176  22.654   4.561
55976W        W29044   1.478  27.147  10.792
55977W        W29045   3.998  35.382   4.625
55978W        W29046  14.256  27.877   3.601
55979W        W29047  28.748  44.222   1.511
55980W        W29048   8.419  11.439  12.655
55981W        W29049  28.465   6.912   3.870
55982W        W29050   9.002   7.159  14.346
55983W        W29051  21.350  23.411  14.777
55984W        W29052  22.169  29.461   2.289
55985W        W29053  38.079  44.694   3.759
55986W        W29054  15.559  20.167  10.667
55987W        W29055  32.004  34.501  13.456
55988W        W29056   0.412  30.543  14.710
55989W        W29057  19.709  28.838   1.284
55990W        W29058  43.894  31.934   1.364
55991W        W29059  29.883  18.644  14.330
55992W        W29060  22.689  38.970   1.335
55993W        W29061  15.606  13.297   0.055
55994W        W29062  32.464  27.139  12.899
55995W        W29063  37.333  29.684  11.936
55996W        W29064  22.689  35.551   3.217
55997W        W29065  27.885  13.661  10.663
55998W        W29066  10.406  33.140  12.601
55999W        W29067  19.152   1.965  10.729
56000W        W29068  33.441  33.612  12.955
56001W        W29069  34.853  10.933   0.788
56002W        W29070  27.090  22.845   1.628
56003W        W29071  11.915  33.881   0.491
56004W        W29072  22.715   9.461   0.473
56005W        W29073  23.282   5.751   3.597
56006W        W29074  14.851  22.645   3.566
56007W        W29075  14.714  29.101   2.670
56008W        W29076  17.816   9.885  12.074
56009W        W29077  38.509  30.633  14.978
56010W        W29078  44.276  17.238   0.943
56011W        W29079  14.707  31.999   1.242
56012W        W29080  31.061  21.536   0.401
56013W        W29081  16.548  28.705   1.124
56014W        W29082  39.350   8.676  10.216
56015W        W29083   2.884   9.334  13.547
56016W        W29084  27.512  17.625  14.376
56017W        W29085  24.705  40.317   4.052
56018W        W29086  16.447  44.882   3.646
56019W        W29087  10.592  35.072  14.924
56020W        W29088   5.599   6.212  11.553
56021W        W29089  10.916  37.895   3.296
56022W        W29090  44.275   7.477   3.275
56023W        W29091  44.054  27.454  14.057
56024W        W29092  40.099  43.767  13.411
56025W        W29093  14.717  15.588  11.651
56026W        W29094  31.916  24.004  13.650
56027W        W29095  26.083   2.921   4.059
56028W        W29096  25.022  17.120  14.989
56029W        W29097  27.241  36.555   0.284
56030W        W29098  10.980  43.882  11.665
56031W        W29099  17.721  24.612  14.788
56032W        W29100   8.242   4.159  11.167
56033W        W29101  21.228  19.970  11.534
56034W        W29102  21.724  41.942  12.964
56035W        W29103   9.602  14.733   0.778
56036W        W29104  40.935   7.700  10.221
56037W        W29105  15.776   8.898  13.892
56038W        W29106  28.179  11.170  13.883
56039W        W29107  14.915   0.515   3.200
56040W        W29108  34.999  29.223  10.275
56041W        W29109  40.490  40.817   0.609
56042W        W29110  30.154  28.272   3.817
56043W        W29111  44.731  40.059   4.626
56044W        W29112  12.454  30.685   1.817
56045W        W29113  20.319  16.712  13.386
56046W        W29114  43.939   0.333   2.600
56047W        W29115  43.961  36.602  14.491
56048W        W29116   7.667  43.232  12.031
56049W        W29117  39.431  32.129   4.184
56050W        W29118  12.808  14.680   1.339
56051W        W29119  21.007  28.156  12.857
56052W        W29120   5.516  34.954   3.045
56053W        W29121  31.996  15.030   1.303
56054W        W29122  19.381  23.151  13.805
56055W        W29123   3.026   5.368   2.313
56056W        W29124  17.446  28.922   9.862
56057W        W29125   3.851   5.674   1.248
56058W        W29126   5.788  35.413   4.592
56059W        W29127  29.867   8.803   3.891
56060W        W29128  32.354  25.732  12.341
56061W        W29129  36.066  43.800  12.300
56062W        W29130  11.364  16.036  13.591
56063W        W29131   4.735  29.127  11.366
56064W        W29132  26.137  24.649   3.856
56065W        W29133  14.318  42.502  12.960
56066W        W29134  14.039   8.261  11.253
56067W        W29135  18.859  11.125   2.033
56068W        W29136  25.693  35.075   4.602
56069W        W29137  35.485  36.301   0.411
56070W        W29138  14.752  42.318  14.301
56071W        W29139  31.367  33.677   4.525
56072W        W29140   8.879   9.177   2.332
56073W        W29141   9.930  19.334  10.683
56074W        W29142  10.629  31.042   1.966
56075W        W29143   7.343  44.013   4.104
56076W        W29144  26.693  14.621  10.981
56077W        W29145  31.726   4.439   0.406
56078W        W29146  16.080  16.651   2.222
56079W        W29147  14.373  11.355  11.242
56080W        W29148   4.560  22.762  14.292
56081W        W29149   8.490  23.088   2.202
56082W        W29150  11.896  21.950   0.722
56083W        W29151  16.079  40.375  14.753
56084W        W29152  26.529  33.597   3.607
56085W        W29153   4.102  21.504   2.360
56086W        W29154  36.656  21.220   2.245
56087W        W29155  44.632  26.683   2.231
56088W        W29156  28.178  33.870  10.203
56089W        W29157  27.034  32.658   3.360
56090W        W29158   7.659   9.286  12.619
56091W        W29159   8.672  31.916   1.891
56092W        W29160  21.668   0.927  13.130
56093W        W29161  19.982  32.445   0.890
56094W        W29162  16.913  22.006   3.288
56095W        W29163  44.988   2.270   4.591
56096W        W29164  13.905  15.552   3.591
56097W        W29165  40.269  44.876   2.420
56098W        W29166  36.804   3.960  11.799
56099W        W29167  31.609  23.144  12.891
56100W        W29168   3.958  34.922  11.571
56101W        W29169  37.602  17.161   0.021
56102W        W29170  33.036  19.824   0.311
56103W        W29171  33.886  34.485   0.568
56104W        W29172  20.733  38.018   0.317
56105W        W29173  19.552   4.397  11.659
56106W        W29174  12.624  18.544   0.797
56107W        W29175  13.845  15.633   1.265
56108W        W29176  23.119   0.475   2.370
56109W        W29177  13.044  25.650  13.313
56110W        W29178  11.227  26.947   2.271
56111W        W29179   1.942  28.253   1.780
56112W        W29180  15.923  30.666  11.006
56113W        W29181  10.385  42.734   3.358
56114W        W29182  40.817  10.741   0.035
56115W        W29183  33.322   8.715  10.578
56116W        W29184  33.862  25.032   3.092
56117W        W29185  34.801  19.287  14.811
56118W        W29186   7.873   1.475  14.357
56119W        W29187  29.256  12.288  12.356
56120W        W29188   5.112  23.872   1.444
56121W        W29189  28.465   9.732   4.641
56122W        W29190  25.660  35.590   2.139
56123W        W29191  40.494  23.232  11.386
56124W        W29192  42.487  24.603  11.651
56125W        W29193   9.118  18.095  12.903
56126W        W29194   9.314  29.071   4.633
56127W        W29195  14.298  15.898  11.513
56128W        W29196   4.464  11.341  12.978
56129W        W29197  19.782   4.974  14.023
56130W        W29198   5.428  22.503   4.100
56131W        W29199  26.516  44.865   3.591
56132W        W29200  44.734  21.225   1.349
56133W        W29201  32.552  11.690  10.582
56134W        W29202  16.976  34.982  14.470
56135W        W29203  37.280  17.111  10.709
56136W        W29204   3.899  10.073  10.144
56137W        W29205  15.281  23.630   2.590
56138W        W29206  28.451  27.973  13.013
56139W        W29207  34.951   2.713   4.541
56140W        W29208   1.831   7.445  12.819
56141W        W29209  20.578   0.325  13.542
56142W        W29210  43.791   3.241   4.140
56143W        W29211   4.758   0.821   2.354
56144W        W29212  13.628  39.016   0.409
56145W        W29213  12.696  15.560   4.234
56146W        W29214  10.605  29.587  11.597
56147W        W29215  35.057  34.524  12.976
56148W        W29216  23.718  30.873  14.776
56149W        W29217  10.916  12.708  13.107
56150W        W29218   6.474  13.914  13.534
56151W        W29219  35.670  43.037  13.103
56152W        W29220   8.865   9.670  13.350
56153W        W29221  36.804  32.454   2.649
56154W        W29222  27.131  16.292   1.001
56155W        W29223  21.161  11.472  13.714
56156W        W29224   5.654  25.244  13.048
56157W        W29225   6.172  17.684  12.659
56158W        W29226  18.488  12.236   1.376
56159W        W29227   6.741  41.612  11.495
56160W        W29228  31.609  15.357  10.458
56161W        W29229  34.533   9.648   2.349
56162W        W29230   9.602  28.547  10.631
56163W        W29231  14.635   1.371  14.495
56164W        W29232   4.423  17.187  14.949
56165W        W29233  23.050  44.374  11.946
56166W        W29234  29.686  29.898  14.367
56167W        W29235  16.265  26.903  13.036
56168W        W29236  20.025  23.948   2.325
56169W        W29237  14.948   2.745  11.565
56170W        W29238  37.411   0.524  12.282
56171W        W29239  41.223  16.747   4.726
56172W        W29240  20.754   7.138   1.731
56173W        W29241  26.222  20.754  13.798
56174W        W29242  42.944  23.437   4.286
56175W        W29243  34.823  36.473   2.104
56176W        W29244   2.181  25.392   3.516
56177W        W29245   1.706   3.694   2.345
56178W        W29246  30.630   5.285  13.300
56179W        W29247  30.694  44.093  12.519
56180W        W29248  39.228   9.046   9.836
56181W        W29249  36.393   0.808   0.925
56182W        W29250  12.712  11.155  14.999
56183W        W29251  27.483  38.061  12.393
56184W        W29252  44.290  22.193   1.468
56185W        W29253   8.797  12.322  14.763
56186W        W29254  38.368  21.172  12.920
56187W        W29255  17.456   6.347  12.476
56188W        W29256  31.002   8.355   0.051
56189W        W29257  14.227  38.572   4.540
56190W        W29258  38.586  20.791   1.299
56191W        W29259  23.157  38.388   3.097
56192W        W29260  18.990  31.133   4.127
56193W        W29261  19.051  40.950   0.483
56194W        W29262  38.038  13.078  11.701
56195W        W29263   5.381  29.460   4.653
56196W        W29264  20.717  39.927  13.727
56197W        W29265  17.362  44.796  13.948
56198W        W29266   8.546  35.202  13.446
56199W        W29267  29.954   1.755   1.826
56200W        W29268  22.294   1.334  14.909
56201W        W29269  17.197  30.467  10.610
56202W        W29270   9.860  31.926  11.918
56203W        W29271   8.219   2.854   1.517
56204W        W29272  44.945   8.144  13.751
56205W        W29273  30.479   5.782   4.625
56206W        W29274  13.249  23.235   2.910
56207W        W29275  30.534  32.897  14.317
56208W        W29276  25.504   0.612  13.452
56209W        W29277  19.600  14.725   2.001
56210W        W29278  23.088  27.706   4.489
56211W        W29279   9.917   2.559   5.035
56212W        W29280  34.055  18.906  12.347
56213W        W29281  36.377  30.996   2.638
56214W        W29282  32.191  24.963   2.793
56215W        W29283  11.682   8.447   0.720
56216W        W29284  41.708  21.694  13.885
56217W        W29285  17.711  14.034  13.922
56218W        W29286  40.782  42.460  14.802
56219W        W29287  10.170   1.426  13.920
56220W        W29288  14.890   0.180   0.391
56221W        W29289  30.094   0.392  12.058
56222W        W29290  32.156  20.644  12.564
56223W        W29291  16.151   3.057   0.722
56224W        W29292   4.309  25.851  11.593
56225W        W29293   1.176  40.835   3.734
56226W        W29294  13.452  20.470   1.943
56227W        W29295  24.771  44.890   3.663
56228W        W29296  34.089  31.685   2.789
56229W        W29297  22.565  12.475   0.902
56230W        W29298  26.691  31.023  11.453
56231W        W29299  29.584  23.267  12.926
56232W        W29300   6.175  10.385   2.224
56233W        W29301  16.085  39.374   4.133
56234W        W29302  20.714  27.600   1.877
56235W        W29303  35.925  21.996   4.170
56236W        W29304   5.349  38.493   4.133
56237W        W29305  14.815   8.191   0.484
56238W        W29306  18.261  10.160  14.869
56239W        W29307  39.883  36.042  13.164
56240W        W29308  27.098   6.168   0.044
56241W        W29309  16.626  28.052  11.578
56242W        W29310  36.787  16.690   3.695
56243W        W29311  20.519  33.025  11.446
56244W        W29312   2.430  41.824   0.289
56245W        W29313  30.054  42.998   1.902
56246W        W29314  23.640   6.603  13.024
56247W        W29315   5.667  40.571  13.894
56248W        W29316  26.178  32.137   3.794
56249W        W29317  37.922  26.742  12.765
56250W        W29318  38.222  12.249  13.534
56251W        W29319  40.379  36.982   1.270
56252W        W29320  18.629  32.858   4.526
56253W        W29321  33.147  11.853  13.770
56254W        W29322  32.322  13.594  12.010
56255W        W29323  19.044  43.651   5.631
56256W        W29324  10.815  36.991  14.096
56257W        W29325  30.710  10.314   0.939
56258W        W29326  14.739  27.243   0.238
56259W        W29327  31.496   1.275  14.007
56260W        W29328  11.066  31.419   0.895
56261W        W29329  26.868  44.006   4.106
56262W        W29330  10.166   2.664  11.549
56263W        W29331  10.708  43.291   1.717
56264W        W29332  28.006  30.626  11.553
56265W        W29333  37.199  17.389  14.333
56266W        W29334   9.889  43.394   1.369
56267W        W29335  28.060  33.440  13.441
56268W        W29336   5.859  35.442  10.684
56269W        W29337  11.154  27.666  11.901
56270W        W29338  27.983  22.157  14.314
56271W        W29339   8.373   8.661   0.278
56272W        W29340  17.159  27.081   1.601
56273W        W29341  23.095   2.290  12.904
56274W        W29342  21.361   8.303  13.811
56275W        W29343  25.080  25.584  13.008
56276W        W29344  31.405   1.198   3.782
56277W        W29345  33.335  15.189   4.158
56278W        W29346  15.973  15.606  13.926
56279W        W29347  24.253  37.371  11.531
56280W        W29348  35.599  21.843   3.811
56281W        W29349  24.580  23.781  12.932
56282W        W29350   1.274  10.225   3.678
56283W        W29351  11.714  16.308   5.662
56284W        W29352   3.452  32.366  14.405
56285W        W29353  22.643  29.577   2.467
56286W        W29354   4.019  37.373  12.656
56287W        W29355   9.279  14.605   2.687
56288W        W29356  42.424  18.992  14.856
56289W        W29357   1.199  15.339   1.863
56290W        W29358   7.373  19.751  13.909
56291W        W29359  28.572  18.059  14.666
56292W        W29360  14.382  19.172   2.373
56293W        W29361  23.791  41.925  13.014
56294W        W29362   1.858  14.286   4.369
56295W        W29363   3.755   0.042   0.332
56296W        W29364  17.693   1.978   2.167
56297W        W29365  24.649  22.034  13.568
56298W        W29366  24.960  29.590   2.808
56299W        W29367  43.493  10.637   3.139
56300W        W29368  24.156  36.000  13.932
56301W        W29369  13.816  44.520   2.825
56302W        W29370   9.116  10.402   4.627
56303W        W29371  18.089  39.557  12.898
56304W        W29372  43.400   9.940  12.461
56305W        W29373   9.150  21.057   1.642
56306W        W29374  20.286  38.926   0.299
56307W        W29375  17.333  25.466  12.461
56308W        W29376  25.580  22.995  13.356
56309W        W29377   3.506   0.229   3.145
56310W        W29378   8.211  25.917   3.928
56311W        W29379   0.611   3.921  11.167
56312W        W29380  28.561  29.019   2.147
56313W        W29381  34.831  34.952   1.822
56314W        W29382  10.875  31.505   4.749
56315W        W29383  41.031  22.582  11.655
56316W        W29384   5.297  31.463  12.624
56317W        W29385  37.483  11.881  11.538
56318W        W29386  24.154  18.469   3.228
56319W        W29387  36.652  35.927  11.926
56320W        W29388  34.024  26.951  12.384
56321W        W29389  29.655  25.026  10.699
56322W        W29390   2.498  12.399   4.499
56323W        W29391   0.560   2.950   3.678
56324W        W29392   9.363  19.099   1.907
56325W        W29393  15.268  36.021  13.276
56326W        W29394  29.941  16.833   2.240
56327W        W29395  23.021  32.917  12.051
56328W        W29396  26.480   2.239  14.357
56329W        W29397  28.524  33.996   1.284
56330W        W29398  35.915  21.426   4.660
56331W        W29399  37.121   8.776  12.864
56332W        W29400  27.387  36.535   4.117
56333W        W29401  44.116  41.371   4.257
56334W        W29402  33.457  29.562  13.530
56335W        W29403  27.563  26.960  11.114
56336W        W29404  11.278  14.989  10.947
56337W        W29405   5.800  43.518  12.854
56338W        W29406  21.757  26.012  11.209
56339W        W29407  22.493  35.917  14.736
56340W        W29408   9.820  31.643  11.187
56341W        W29409  10.271  23.255   4.173
56342W        W29410  10.561  11.846  11.661
56343W        W29411  32.461  30.400  14.756
56344W        W29412  32.835  29.445  12.134
56345W        W29413   9.349  20.320   1.057
56346W        W29414   2.004   9.784  11.466
56347W        W29415  19.689  18.226  14.794
56348W        W29416  33.572   2.817  13.400
56349W        W29417  29.898   5.039   2.334
56350W        W29418  28.020  22.334  11.939
56351W        W29419  39.419   0.224   1.940
56352W        W29420  15.797   2.488   3.385
56353W        W29421  37.584  39.580  13.791
56354W        W29422  41.351  44.801   3.785
56355W        W29423  26.182   8.934  11.674
56356W        W29424   9.928  30.860   0.403
56357W        W29425  15.410  34.118   0.241
56358W        W29426  17.466  26.910  14.333
56359W        W29427  39.240  14.528  12.603
56360W        W29428   1.655  14.901   2.172
56361W        W29429  23.594  40.470   0.375
56362W        W29430  43.403  18.304  10.528
56363W        W29431  33.505  42.560  13.822
56364W        W29432  29.086  25.679   1.952
56365W        W29433  37.701  26.422  11.010
56366W        W29434  18.216  35.197  13.474
56367W        W29435   1.845  18.095   3.172
56368W        W29436   3.909  13.740  12.423
56369W        W29437   3.426  17.307   3.288
56370W        W29438   5.262   8.924  11.656
56371W        W29439  36.321  40.179   2.386
56372W        W29440  16.530  25.060  14.394
56373W        W29441   1.661  11.339  14.236
56374W        W29442   0.584  13.366   0.337
56375W        W29443  30.815  39.093   0.886
56376W        W29444  20.501  37.087  12.146
56377W        W29445  42.815  37.372   0.837
56378W        W29446  37.340  30.714   2.551
56379W        W29447  14.047  34.159   3.777
56380W        W29448   8.309  17.195  13.465
56381W        W29449  30.095  18.168  14.345
56382W        W29450  22.701   3.327  11.136
56383W        W29451  39.464   3.313  11.562
56384W        W29452  22.453  28.642  14.804
56385W        W29453  11.254  43.739   3.266
56386W        W29454  24.745  26.704   1.141
56387W        W29455  16.224  36.292  11.426
56388W        W29456  21.704  32.400   2.423
56389W        W29457   4.309   8.457  10.728
56390W        W29458  16.229   3.363  11.349
56391W        W29459  32.150  36.869  11.600
56392W        W29460   2.827  44.214   0.333
56393W        W29461  23.568  12.808   4.579
56394W        W29462   7.862   4.393  13.494
56395W        W29463  36.080  30.089  14.857
56396W        W29464  23.033  30.522   2.282
56397W        W29465  43.487  42.072   0.005
56398W        W29466  35.372  41.747  11.496
56399W        W29467   8.670  11.875   1.868
56400W        W29468  19.705  40.903   0.937
56401W        W29469  13.666  40.879  14.988
56402W        W29470   2.217  40.315   0.891
56403W        W29471  16.989   4.364  14.778
56404W        W29472  35.057  39.971   2.838
56405W        W29473  10.398  22.703  14.338
56406W        W29474  37.221  23.086  13.330
56407W        W29475   1.795  42.523   1.480
56408W        W29476  37.841   8.169  14.831
56409W        W29477  20.008  11.362   0.720
56410W        W29478  30.063   9.843   3.023
56411W        W29479  10.146  10.713   2.790
56412W        W29480  30.455  38.257   3.735
56413W        W29481  12.776   1.024  14.532
56414W        W29482  17.783  40.348   4.440
56415W        W29483  34.841  11.743  10.565
56416W        W29484   2.808  43.952  11.932
56417W        W29485  31.180  10.496   1.873
56418W        W29486  30.537  17.082   3.869
56419W        W29487  11.653   2.758  13.071
56420W        W29488  32.309   0.807  11.729
56421W        W29489  24.041  34.346   4.914
56422W        W29490   9.124  36.067  13.505
56423W        W29491  15.161  35.778   4.817
56424W        W29492  17.797  39.331   1.884
56425W        W29493  24.714  39.835   3.328
56426W        W29494  35.230   9.587   1.914
56427W        W29495   6.178  38.998   0.265
56428W        W29496  41.522  28.602   3.257
56429W        W29497  25.680  30.155   1.741
56430W        W29498   2.337  18.097   0.966
56431W        W29499   0.533  43.476   4.780
56432W        W29500  16.105  37.834   1.888
56433W        W29501  42.775  21.754   0.931
56434W        W29502  18.172  11.729   3.673
56435W        W29503  18.765   0.419   4.586
56436W        W29504   0.270   4.998   2.150
56437W        W29505  44.677  19.050  13.963
56438W        W29506  33.484  23.761  11.521
56439W        W29507   4.610  29.998   1.469
56440W        W29508   0.311  27.422  14.843
56441W        W29509   8.430   9.340   3.610
56442W        W29510  30.926  16.870   0.840
56443W        W29511   3.667  43.924  11.967
56444W        W29512  41.062  28.176  12.772
56445W        W29513  36.941  13.773   4.662
56446W        W29514  28.101  23.216   3.223
56447W        W29515   9.308  15.053   4.317
56448W        W29516  23.704   6.234   3.245
56449W        W29517   9.643  33.182  14.418
56450W        W29518  31.406  35.846   3.846
56451W        W29519  35.749  19.625   3.636
56452W        W29520  31.314  39.229   4.198
56453W        W29521  12.121  36.797   0.960
56454W        W29522   1.703  22.475   2.497
56455W        W29523  24.446  38.892   1.827
56456W        W29524  22.172  44.459  10.134
56457W        W29525  33.939  36.016   2.117
56458W        W29526  14.550  17.585  10.651
56459W        W29527   0.974  23.331  13.037
56460W        W29528  15.574   8.943  14.808
56461W        W29529  13.844   3.017   1.306
56462W        W29530   0.727  33.453  10.336
56463W        W29531   4.371  22.745   4.027
56464W        W29532  22.408  15.550   0.432
56465W        W29533  30.854   0.847   1.270
56466W        W29534   7.357  36.937   2.214
56467W        W29535  26.800  39.887  13.368
56468W        W29536   0.580   7.634  13.356
56469W        W29537  13.235   5.692  13.471
56470W        W29538  13.254   8.327  13.045
56471W        W29539  20.090  39.014   2.496
56472W        W29540  41.953  13.302  14.218
56473W        W29541  28.394  33.921  10.675
56474W        W29542  29.380  10.226   4.651
56475W        W29543  34.897  28.939   3.829
56476W        W29544  11.491  13.763   4.671
56477W        W29545  42.336  17.947   0.079
56478W        W29546  13.268  15.598   4.587
56479W        W29547  28.404   8.073  10.803
56480W        W29548  32.100  11.694   1.400
56481W        W29549  28.945  25.181   1.958
56482W        W29550  10.659  29.145   0.975
56483W        W29551  16.515  10.229   0.426
56484W        W29552  17.015  21.280   3.708
56485W        W29553   4.158   1.075  11.629
56486W        W29554  27.373  15.828   0.875
56487W        W29555  36.439  14.075   1.487
56488W        W29556  38.528   7.749   0.443
56489W        W29557  13.308   4.028   0.897
56490W        W29558  14.520  19.114   2.906
56491W        W29559   6.727  37.920  13.094
56492W        W29560  20.260  13.562   4.156
56493W        W29561  23.204  20.311   4.574
56494W        W29562  23.704  16.823   2.192
56495W        W29563   2.258   0.029  14.344
56496W        W29564  22.516  13.977   3.400
56497W        W29565   1.669  33.441  14.307
56498W        W29566  33.927  19.343   2.440
56499W        W29567  19.376  32.109   3.175
56500W        W29568   9.933   9.125   2.461
56501W        W29569  11.685  33.515  13.081
56502W        W29570  44.019  16.067  11.640
56503W        W29571  33.982  42.943  11.117
56504W        W29572  24.225  34.986  12.169
56505W        W29573  12.584  27.134  11.566
56506W        W29574   7.916  43.298   4.525
56507W        W29575  20.082  22.267  10.607
56508W        W29576  23.641  39.214  12.066
56509W        W29577  16.532   6.258  12.537
56510W        W29578  34.926  17.263   5.342
56511W        W29579  16.294   0.837   2.265
56512W        W29580  35.913   1.781  13.476
56513W        W29581  40.901  11.583  13.386
56514W        W29582  32.050  24.045   5.387
56515W        W29583  38.991  33.707   2.832
56516W        W29584  32.339   8.840  12.483
56517W        W29585  18.042  29.862   2.687
56518W        W29586  41.901  31.207   1.097
56519W        W29587   5.448  37.456  13.249
56520W        W29588   8.708  29.166  10.543
56521W        W29589  38.954  12.064   2.270
56522W        W29590  30.624  23.837   4.844
56523W        W29591   7.314  24.538  13.906
56524W        W29592   3.872   9.359  11.463
56525W        W29593  35.098   8.405   0.809
56526W        W29594  27.417  16.590  14.389
56527W        W29595  39.055  21.061   0.454
56528W        W29596  24.602  42.593  14.429
56529W        W29597   4.707  24.741  12.376
56530W        W29598  25.698  35.460   1.196
56531W        W29599  12.910   2.664  11.675
56532W        W29600  31.041  17.495  12.289
56533W        W29601  38.492  35.318   2.914
56534W        W29602  36.472  33.019   0.779
56535W        W29603  30.574  44.849  10.398
56536W        W29604  40.102  10.881   4.594
56537W        W29605  28.324  11.883   2.454
56538W        W29606  42.407  23.029   4.339
56539W        W29607  12.241  35.184   0.546
56540W        W29608  22.505  11.247  12.514
56541W        W29609  43.846  26.152   1.402
56542W        W29610  39.592   0.813  11.939
56543W        W29611  44.367  32.459   1.686
56544W        W29612   1.321  39.770   1.754
56545W        W29613  43.478   9.115  11.160
56546W        W29614  19.750  18.801  10.581
56547W        W29615  24.999   8.391   4.186
56548W        W29616  16.225  15.669  14.395
56549W        W29617  30.154  24.268  10.750
56550W        W29618   4.123  15.268  13.006
56551W        W29619  32.298   5.370   2.638
56552W        W29620  26.954  27.224   0.885
56553W        W29621  19.136  19.806  14.496
56554W        W29622  22.253  29.129  13.066
56555W        W29623  44.296   8.824   4.554
56556W        W29624   0.449  24.614   2.255
56557W        W29625  22.127   0.199  12.996
56558W        W29626  39.328   5.872  10.678
56559W        W29627  15.153  10.744  13.053
56560W        W29628   3.439  22.783  14.119
56561W        W29629  18.342  34.367   3.893
56562W        W29630   2.751   4.294  13.930
56563W        W29631  35.048  27.036   4.704
56564W        W29632  21.183  32.364   1.858
56565W        W29633  24.168  42.140   0.045
56566W        W29634  37.593  40.103  14.556
56567W        W29635   7.398   7.036  12.122
56568W        W29636  15.244  32.072   5.050
56569W        W29637  22.469   8.173   2.770
56570W        W29638  36.090   4.927  11.148
56571W        W29639  24.366  37.861  11.004
56572W        W29640  41.584  29.202  13.980
56573W        W29641   4.749  14.269   3.133
56574W        W29642   9.942  10.737   1.369
56575W        W29643   4.182   1.705   4.541
56576W        W29644  15.318  40.554  12.119
56577W        W29645  38.769  23.001   3.315
56578W        W29646  19.019  34.897   2.874
56579W        W29647  10.364  12.245   2.393
56580W        W29648  16.885  24.204   4.137
56581W        W29649  21.095  27.753   3.622
56582W        W29650  26.976  22.078   2.108
56583W        W29651  17.723  29.615   0.187
56584W        W29652  17.886   4.309   0.887
56585W        W29653  31.528  32.880  11.520
56586W        W29654  35.061  44.597   2.857
56587W        W29655  43.018  42.346   0.986
56588W        W29656   7.929  23.547   1.629
56589W        W29657   7.952   7.798   3.658
56590W        W29658  36.962   7.462  14.011
56591W        W29659  25.697   1.975   4.227
56592W        W29660   1.421  44.399   2.832
56593W        W29661  42.366  26.470  14.555
56594W        W29662  17.547   7.403   4.478
56595W        W29663  42.807  17.587   3.188
56596W        W29664  21.254  13.381   1.705
56597W        W29665  16.691  36.416   4.561
56598W        W29666  43.941   2.522   1.882
56599W        W29667  39.721   5.368   3.759
56600W        W29668  33.051   1.774  14.805
56601W        W29669  19.882  37.925  11.039
56602W        W29670  33.372  42.264  11.993
56603W        W29671  14.391  27.517   2.903
56604W        W29672  10.255  39.029   4.088
56605W        W29673  25.572  38.114  12.024
56606W        W29674  44.568  20.818  10.250
56607W        W29675   9.642  13.266  11.986
56608W        W29676  31.776   8.337  11.514
56609W        W29677  12.854  20.617  11.658
56610W        W29678  16.788  30.493  11.567
56611W        W29679   1.822   0.596  13.601
56612W        W29680  15.543  21.264  12.049
56613W        W29681  42.966  19.493  12.547
56614W        W29682  15.164  39.809   4.200
56615W        W29683  17.267  39.312  11.375
56616W        W29684  17.369   2.671  14.881
56617W        W29685  29.660  10.224   4.208
56618W        W29686  19.012  21.592   0.370
56619W        W29687  40.925  24.560   4.835
56620W        W29688   2.930  34.165  10.924
56621W        W29689  33.593  32.473  12.098
56622W        W29690  31.843  33.178  11.197
56623W        W29691   4.918  39.271   2.850
56624W        W29692  16.208  40.395   3.157
56625W        W29693  16.633   5.927  10.875
56626W        W29694   6.426   2.427  13.847
56627W        W29695  41.282  44.239   1.777
56628W        W29696   7.280  20.019   0.085
56629W        W29697  42.962  41.928   1.303
56630W        W29698  15.830  37.084  14.770
56631W        W29699  21.940  42.964  11.363
56632W        W29700  14.220  23.510   1.409
56633W        W29701  14.265  38.615  14.820
56634W        W29702  19.974  12.866   2.371
56635W        W29703   9.285  29.070  11.641
56636W        W29704   3.214  44.253   0.692
56637W        W29705  41.323  39.138   0.367
56638W        W29706  13.734  33.872   0.198
56639W        W29707  39.061  36.949  10.687
56640W        W29708  22.306  42.881   4.525
56641W        W29709  16.182  31.499  14.570
56642W        W29710  23.693  22.215  11.176
56643W        W29711  42.466  26.783   1.371
56644W        W29712  21.091   5.747  12.926
56645W        W29713   6.233   3.248   1.796
56646W        W29714  34.408  23.617   1.199
56647W        W29715  25.672  11.848  11.029
56648W        W29716   6.021   4.038  12.079
56649W        W29717  26.786  10.211   3.305
56650W        W29718  25.614  40.251  14.748
56651W        W29719  26.905   7.131   3.638
56652W        W29720   4.379  33.703  13.073
56653W        W29721  10.812  27.167  13.452
56654W        W29722  18.380  31.821   4.147
56655W        W29723  36.554   9.250  10.676
56656W        W29724  10.394  15.650   0.383
56657W        W29725   0.356  13.206   4.065
56658W        W29726  38.031   2.365  12.517
56659W        W29727   7.957  44.263  11.579
56660W        W29728   9.497  28.578   4.586
56661W        W29729  26.574   0.823   4.588
56662W        W29730  12.392  26.429  13.415
56663W        W29731  11.275   5.399   3.481
56664W        W29732  18.445   2.440  14.430
56665W        W29733  18.282  20.055   0.072
56666W        W29734  43.650   0.513   0.712
56667W        W29735  25.552   1.065  14.905
56668W        W29736  41.562   9.467   0.580
56669W        W29737  29.618  38.346  11.151
56670W        W29738  13.184  13.128  10.621
56671W        W29739  33.605  37.214   3.921
56672W        W29740  29.915  20.740   1.862
56673W        W29741  36.406  31.531   9.819
56674W        W29742  12.264  11.838   2.740
56675W        W29743  39.361   1.166  10.639
56676W        W29744   1.486  27.519   3.302
56677W        W29745   0.287  27.902   4.123
56678W        W29746  39.906  16.764  11.898
56679W        W29747  28.113  40.509   4.954
56680W        W29748  34.950  18.154   2.363
56681W        W29749  39.393   3.679  10.714
56682W        W29750  33.496  40.321  10.458
56683W        W29751  16.172  35.005   3.213
56684W        W29752   0.903  37.577  14.981
56685W        W29753  11.855  40.981   2.193
56686W        W29754  30.330  21.031  13.695
56687W        W29755   9.188  36.442  10.864
56688W        W29756  38.487  14.287  13.045
56689W        W29757  19.335   6.286  11.787
56690W        W29758  10.096  29.546  10.712
56691W        W29759   9.361   3.001  13.492
56692W        W29760   0.856  38.281  10.756
56693W        W29761  42.609   0.385  11.454
56694W        W29762   3.386  35.852  10.649
56695W        W29763  16.579   9.224  11.616
56696W        W29764  31.155  21.067  10.655
56697W        W29765  35.703  15.214   0.564
56698W        W29766  38.806  17.108  12.902
56699W        W29767  40.249   6.786   1.039
56700W        W29768  20.582  37.641   2.740
56701W        W29769  29.210  10.138  14.340
56702W        W29770  37.913  10.812  14.258
56703W        W29771   8.756  28.410   0.523
56704W        W29772  12.257   3.045   0.466
56705W        W29773  22.230  17.284   2.962
56706W        W29774   0.435  13.277   2.219
56707W        W29775   7.317  24.691  12.889
56708W        W29776  29.062  40.023  13.312
56709W        W29777  10.795  24.765  12.859
56710W        W29778  18.602  10.290  12.496
56711W        W29779  29.042  42.690  12.056
56712W        W29780  20.729  12.563   2.752
56713W        W29781  37.462  23.638  13.740
56714W        W29782  20.250  17.773   3.168
56715W        W29783  21.534  41.241  13.841
56716W        W29784  26.110  31.025  11.500
56717W        W29785  26.227  10.037   3.676
56718W        W29786  24.942  22.262  14.923
56719W        W29787   0.446  31.808   1.721
56720W        W29788  39.461   6.936   0.824
56721W        W29789  38.990  31.645  14.517
56722W        W29790  27.694  38.797  11.146
56723W        W29791  44.468  27.184   2.404
56724W        W29792  25.529  33.553   3.674
56725W        W29793  37.473  13.744   1.494
56726W        W29794  32.426  44.412   0.657
56727W        W29795  26.295   4.428  12.363
56728W        W29796   2.143  31.511   2.871
56729W        W29797  12.137  12.269  13.828
56730W        W29798  13.734  37.405  10.240
56731W        W29799  25.576  25.804  11.010
56732W        W29800  12.195   3.395   5.068
56733W        W29801  14.343  18.687  13.468
56734W        W29802  31.138   3.648   4.592
56735W        W29803  33.046  21.010  12.938
56736W        W29804  16.108   6.687   0.484
56737W        W29805   1.578  23.164   4.267
56738W        W29806  12.284  38.064   2.772
56739W        W29807  32.508  31.938  13.283
56740W        W29808  27.034  36.373  12.016
56741W        W29809  43.512  28.350  11.582
56742W        W29810  20.473  13.264  13.604
56743W        W29811   4.237   2.772   1.203
56744W        W29812  44.839  29.095  12.343
56745W        W29813  35.126   2.579   2.798
56746W        W29814  21.024  32.068  11.160
56747W        W29815   2.802  28.739   1.931
56748W        W29816   9.671  18.649   9.667
56749W        W29817  34.001   7.385   3.670
56750W        W29818  29.412   4.941  13.334
56751W        W29819  43.899  19.609   2.399
56752W        W29820  35.605   6.772   0.035
56753W        W29821  22.713  32.050   0.311
56754W        W29822  12.879  16.614   0.969
56755W        W29823  10.278   2.546  14.730
56756W        W29824  15.189  20.900  11.949
56757W        W29825  15.009  22.534   4.743
56758W        W29826   1.758   7.968   4.550
56759W        W29827  15.068  39.773   1.769
56760W        W29828  39.042   8.477   4.228
56761W        W29829  18.028  36.053   3.335
56762W        W29830  22.086  17.176  13.857
56763W        W29831  25.461  40.074  11.615
56764W        W29832  17.566  11.688   4.603
56765W        W29833  31.851  23.291  10.058
56766W        W29834   1.937   3.485   1.381
56767W        W29835  40.894  29.147   1.416
56768W        W29836   3.251  15.861   4.500
56769W        W29837  27.494  31.995  11.471
56770W        W29838  20.989  29.041   3.296
56771W        W29839   6.847  18.840   4.791
56772W        W29840   9.642   9.754   0.418
56773W        W29841  11.109  31.997   4.026
56774W        W29842   3.304  33.024  13.517
56775W        W29843  41.793  39.227  13.202
56776W        W29844   6.206  23.353  10.213
56777W        W29845   6.676   6.396  12.239
56778W        W29846  40.703  32.133  12.622
56779W        W29847  21.508   3.216  11.267
56780W        W29848  27.135  44.715   4.776
56781W        W29849  15.993  30.965   2.722
56782W        W29850  37.950  35.831   1.953
56783W        W29851  41.891  22.226   4.031
56784W        W29852  37.874  22.818  11.111
56785W        W29853  27.434  24.098   0.360
56786W        W29854   2.380  43.192   2.708
56787W        W29855  36.394  29.943   3.174
56788W        W29856  30.052  10.774  11.874
56789W        W29857  27.855   1.529  12.429
56790W        W29858  20.622  44.981  13.114
56791W        W29859  36.933   0.921   1.787
56792W        W29860  24.636  27.594   2.623
56793W        W29861  21.076  20.698  11.992
56794W        W29862  17.154  17.645  14.766
56795W        W29863  26.502  14.579   2.842
56796W        W29864  21.543  19.316   4.226
56797W        W29865  11.153  43.230  11.143
56798W        W29866  20.908   4.397  11.161
56799W        W29867  33.868   9.926  13.067
56800W        W29868  10.256  20.415  11.035
56801W        W29869  42.516  14.508   0.424
56802W        W29870  42.470  43.490   3.685
56803W        W29871  12.179  11.172   3.708
56804W        W29872  16.204  32.904  14.097
56805W        W29873   4.373  28.132  11.261
56806W        W29874  12.754  34.602   4.699
56807W        W29875  22.039   7.405  12.572
56808W        W29876  31.089  28.605  14.491
56809W        W29877  20.461  18.798  11.540
56810W        W29878  10.782  12.708   1.701
56811W        W29879  26.550  43.461  12.404
56812W        W29880  17.651  13.372   2.814
56813W        W29881  34.261   6.261   3.251
56814W        W29882  39.751  40.102  11.105
56815W        W29883  21.181  29.228  11.650
56816W        W29884  41.658  44.470  10.956
56817W        W29885  42.183   6.818   3.184
56818W        W29886  29.518  22.684   0.902
56819W        W29887  16.206  41.818   3.332
56820W        W29888   7.134  17.126   2.810
56821W        W29889  31.056  27.400  12.007
56822W        W29890  30.579  37.701   2.131
56823W        W29891  32.127  34.599  11.533
56824W        W29892  21.396  30.297   0.669
56825W        W29893   2.781   2.431   2.713
56826W        W29894  17.073  38.579   0.345
56827W        W29895  14.664  26.503  11.944
56828W        W29896  12.385   0.030   0.720
56829W        W29897   6.188   6.692   3.728
56830W        W29898  30.497  19.461  13.336
56831W        W29899  23.225   8.794   0.854
56832W        W29900   0.306  32.421  10.626
56833W        W29901  39.507  13.916   4.602
56834W        W29902  28.615  23.167   0.319
56835W        W29903  34.933  10.124   0.361
56836W        W29904  16.867  36.049   2.763
56837W        W29905  18.782  10.273  13.412
56838W        W29906  29.646   9.179  12.133
56839W        W29907   5.962  40.604   1.268
56840W        W29908   1.492   0.354   2.678
56841W        W29909  25.025  24.202   0.267
56842W        W29910  15.004  24.442  14.732
56843W        W29911  31.621  25.770  13.952
56844W        W29912  30.294  31.998  11.159
56845W        W29913   0.715  14.401   1.134
56846W        W29914  41.086  37.404   2.888
56847W        W29915  30.081   8.412   3.601
56848W        W29916  26.578  14.348   1.960
56849W        W29917  13.245  39.950   1.648
56850W        W29918  41.264   4.498   0.316
56851W        W29919  20.204   6.579  14.454
56852W        W29920  12.311  34.105  12.750
56853W        W29921  32.475  12.876   3.124
56854W        W29922   4.288  42.758   4.850
56855W        W29923  33.512  23.669  13.857
56856W        W29924  28.788   7.277   2.810
56857W        W29925   4.856  38.110   1.595
56858W        W29926  39.402  19.795   3.156
56859W        W29927  24.630   2.773   1.392
56860W        W29928  29.626  17.184   3.015
56861W        W29929  27.667  30.652   1.302
56862W        W29930  14.900  17.251  14.379
56863W        W29931  12.709  29.550   4.202
56864W        W29932  41.859  36.184  13.428
56865W        W29933  40.759  19.856   0.828
56866W        W29934   0.665  41.660   1.464
56867W        W29935  43.055  38.422  10.433
56868W        W29936  41.271  23.119   3.604
56869W        W29937  31.531  29.965   0.516
56870W        W29938  34.024   4.483  11.896
56871W        W29939  26.191   8.425  11.791
56872W        W29940  32.935   0.368   2.766
56873W        W29941   4.053  36.231  13.326
56874W        W29942   0.832  42.091  13.937
56875W        W29943   2.883  10.328   0.491
56876W        W29944   5.899  14.195   3.435
56877W        W29945  29.737   1.614  13.251
56878W        W29946  20.234   4.462  11.934
56879W        W29947  24.118  28.584  12.655
56880W        W29948  40.020   5.440  10.425
56881W        W29949  39.333  39.081   1.716
56882W        W29950   8.776  40.423  13.786
56883W        W29951  27.604  29.104  12.916
56884W        W29952  21.215  19.746   4.407
56885W        W29953  26.521   4.688  12.720
56886W        W29954   3.334  38.345   2.980
56887W        W29955  23.139  29.639   4.318
56888W        W29956  27.163  19.084  13.990
56889W        W29957  30.095  40.959  13.422
56890W        W29958  15.271  36.122  12.494
56891W        W29959  37.430   2.122  10.059
56892W        W29960   3.323  17.231   1.700
56893W        W29961  16.535   4.774  12.453
56894W        W29962   7.171  20.290   2.180
56895W        W29963  22.498  31.479  12.927
56896W        W29964  22.221  21.562   3.561
56897W        W29965  36.992  28.057  14.552
56898W        W29966  11.714  27.697   2.318
56899W        W29967  41.930   6.180   1.963
56900W        W29968  33.632   7.374  12.534
56901W        W29969  27.037   5.736  12.388
56902W        W29970  31.067   0.669   0.322
56903W        W29971  16.018  39.257   1.158
56904W        W29972  30.637  13.110  12.566
56905W        W29973  32.579  40.336  10.616
56906W        W29974  25.480  38.802  14.756
56907W        W29975  19.458  12.850  12.082
56908W        W29976   9.214  33.536   3.247
56909W        W29977   2.211  32.119   5.008
56910W        W29978  15.571  13.170  10.794
56911W        W29979  33.944  30.948   3.425
56912W        W29980  22.596   4.988   4.583
56913W        W29981  23.697  30.191  11.604
56914W        W29982  25.904  30.270   3.221
56915W        W29983  32.273  14.596   3.466
56916W        W29984  16.094   8.390  11.897
56917W        W29985  12.660   5.674  12.817
56918W        W29986  32.991  38.070  14.828
56919W        W29987   1.963  19.618  12.328
56920W        W29988   8.909  11.764  14.569
56921W        W29989  19.200   2.200  13.996
56922W        W29990  14.387  19.066  14.019
56923W        W29991  17.274  30.265   4.007
56924W        W29992   3.731  36.881   0.428
56925W        W29993  30.196  18.539  11.151
56926W        W29994  34.872  24.323   1.413
56927W        W29995   7.845  18.605  10.830
56928W        W29996  16.058   8.440   1.876
56929W        W29997  44.427  14.848   3.270
56930W        W29998  10.381  31.832  11.977
56931W        W29999  21.606  32.096   1.138
56932W        W30000  36.669  44.095  11.177
56933W        W30001  19.734  31.890  11.306
56934W        W30002  25.035  44.238   4.224
56935W        W30003  25.037  11.352   3.287
56936W        W30004   9.892  31.933   3.584
56937W        W30005  30.683  39.448  13.121
56938W        W30006  32.910   9.188   4.518
56939W        W30007  15.259  27.871  10.723
56940W        W30008   4.420  40.916   4.157
56941W        W30009   4.297  30.240   0.509
56942W        W30010   8.188  35.905  11.492
56943W        W30011  15.699  12.854  13.579
56944W        W30012  10.929  19.138   3.441
56945W        W30013   0.015  37.908  12.598
56946W        W30014  25.971   7.248  14.774
56947W        W30015  31.915   9.678   4.367
56948W        W30016  36.669  30.420  12.875
56949W        W30017   9.659  34.303   2.450
56950W        W30018  10.129  42.916  14.198
56951W        W30019  39.429  26.027   2.078
56952W        W30020  41.627  40.300   2.793
56953W        W30021  32.179  42.013   4.407
56954W        W30022   9.357  29.761  12.581
56955W        W30023   6.667  21.204  11.584
56956W        W30024  30.140  22.996   0.237
56957W        W30025  16.131  31.647   0.557
56958W        W30026   5.180  21.306   4.548
56959W        W30027   5.526   8.636  12.475
56960W        W30028  30.725   6.250  14.859
56961W        W30029  31.142  29.616  13.434
56962W        W30030  40.199  30.802   3.183
56963W        W30031  38.461  12.613   0.301
56964W        W30032  43.232   9.837   4.839
56965W        W30033  35.349  26.691   1.370
56966W        W30034  16.054   5.192   1.578
56967W        W30035  39.878  19.117   3.541
56968W        W30036  43.115  41.536  12.160
56969W        W30037  44.413   2.729  11.068
56970W        W30038  39.903  38.854  12.555
56971W        W30039  14.559  20.830   0.391
56972W        W30040  36.427  19.426  12.435
56973W        W30041   2.784  37.487  12.855
56974W        W30042  38.267  42.006   2.487
56975W        W30043   3.569  19.169  13.404
56976W        W30044  40.570  34.683  14.956
56977W        W30045  18.985   7.853  14.797
56978W        W30046  23.636  12.252  13.380
56979W        W30047   7.402  27.206   0.856
56980W        W30048   2.042  15.398  11.903
56981W        W30049  36.318   8.581  14.465
56982W        W30050   1.786   6.698  11.607
56983W        W30051  21.781  26.521  14.343
56984W        W30052  37.704  38.972   0.393
56985W        W30053  14.768  19.964  13.956
56986W        W30054  22.781  16.754   0.331
56987W        W30055   7.404  18.793  11.026
56988W        W30056   4.712  27.170  11.601
56989W        W30057  30.919  31.502   0.959
56990W        W30058   6.289  16.508  13.450
56991W        W30059   6.746  30.397  14.306
56992W        W30060   1.091  28.706   1.503
56993W        W30061  17.752   7.953   4.546
56994W        W30062  39.121  10.232   2.742
56995W        W30063  41.840  29.936  14.497
56996W        W30064  25.499  10.161  12.501
56997W        W30065   3.829  32.736   3.646
56998W        W30066  27.086  13.300  14.998
56999W        W30067  22.192  20.755   0.887
57000W        W30068   2.545  39.291  10.909
57001W        W30069   8.559  31.976   2.857
57002W        W30070  22.292  34.086   3.727
57003W        W30071  10.224  21.292  13.071
57004W        W30072  35.593  11.894   3.855
57005W        W30073   2.514   1.941   2.742
57006W        W30074  44.109   2.813  12.102
57007W        W30075  15.730  32.426   1.225
57008W        W30076   2.844  13.346  14.969
57009W        W30077  32.518  12.741   4.613
57010W        W30078  36.750  37.708   3.679
57011W        W30079  34.953   0.300   4.596
57012W        W30080  31.196  29.996   4.378
57013W        W30081   7.621  37.468  14.352
57014W        W30082  28.446  14.627  10.502
57015W        W30083   0.452  20.712   1.129
57016W        W30084  31.933  15.827   3.258
57017W        W30085  31.035  23.027  13.392
57018W        W30086  26.015  21.144  12.864
57019W        W30087   8.791   7.647  13.438
57020W        W30088   2.214   4.310   3.219
57021W        W30089  36.020   7.952   1.795
57022W        W30090  17.763  35.114   4.220
57023W        W30091  25.131   7.155  14.508
57024W        W30092  11.246  16.328   2.729
57025W        W30093  26.019   1.656  14.191
57026W        W30094  13.521   3.453  12.215
57027W        W30095  16.901  22.759  12.327
57028W        W30096  17.109  40.771  11.387
57029W        W30097   7.903  23.158  11.426
57030W        W30098  27.600   5.674   3.185
57031W        W30099  33.627  35.274   3.200
57032W        W30100  11.665  38.612   3.177
57033W        W30101  22.768  20.548   1.156
57034W        W30102  22.169  12.132   0.852
57035W        W30103  34.020   0.917   2.982
57036W        W30104  31.932  22.621  13.908
57037W        W30105   2.463  15.669   3.633
57038W        W30106  12.396  40.172   2.888
57039W        W30107  24.928  11.904   2.557
57040W        W30108  32.773  25.076  13.931
57041W        W30109  30.455   0.835   4.696
57042W        W30110  21.530  18.775  11.996
57043W        W30111  21.757  41.774   3.277
57044W        W30112  10.205  13.757  11.390
57045W        W30113   5.685   8.609  10.169
57046W        W30114  13.422  14.874   0.208
57047W        W30115  19.998  11.642  12.363
57048W        W30116  28.102  24.972   1.268
57049W        W30117   7.651  36.478  12.420
57050W        W30118  23.555  36.089   1.689
57051W        W30119  11.378  39.554  14.347
57052W        W30120   9.335  13.835  13.826
57053W        W30121  17.002  35.961  12.886
57054W        W30122  15.148  13.197  12.558
57055W        W30123  32.145  42.531  10.507
57056W        W30124  15.111  32.397   4.159
57057W        W30125  11.090  37.440   1.831
57058W        W30126  10.141  44.760   1.452
57059W        W30127  31.460  40.368  12.617
57060W        W30128  17.772  16.335   3.194
57061W        W30129  12.952   1.307   1.256
57062W        W30130  19.683  44.222  13.898
57063W        W30131   6.455  38.414   3.345
57064W        W30132  36.337  24.129   3.534
57065W        W30133  24.836  38.044  13.561
57066W        W30134   3.458  37.887   4.809
57067W        W30135  40.023  40.953  11.518
57068W        W30136  33.671  12.253   4.486
57069W        W30137  12.784   9.607   1.927
57070W        W30138  28.875  39.534   1.849
57071W        W30139  12.467   1.803  11.769
57072W        W30140  16.683   8.434   3.187
57073W        W30141  37.297  40.599   2.371
57074W        W30142  31.032  44.474  12.488
57075W        W30143  17.203  31.458  10.738
57076W        W30144   1.430  33.905  11.470
57077W        W30145  13.560  37.957   1.199
57078W        W30146   5.171   3.863  13.083
57079W        W30147  22.256  28.035   2.415
57080W        W30148  27.125   6.025   4.041
57081W        W30149  22.186   8.942  12.615
57082W        W30150  33.553  38.522  11.042
57083W        W30151  18.262  24.420  14.390
57084W        W30152  41.852   9.896   4.878
57085W        W30153   6.249   5.913  11.417
57086W        W30154   0.703   7.841   1.633
57087W        W30155  37.689  29.693  12.394
57088W        W30156  36.627   5.724  11.379
57089W        W30157  19.281  24.642   1.920
57090W        W30158  35.966  33.873  11.150
57091W        W30159  15.132  34.446   4.539
57092W        W30160  38.964  10.639  12.786
57093W        W30161  38.510  44.354  11.359
57094W        W30162  30.028  36.114   3.394
57095W        W30163  30.162  39.353  14.907
57096W        W30164  21.517  35.682   3.309
57097W        W30165  17.122   0.582   0.842
57098W        W30166   8.272   3.298  11.390
57099W        W30167   7.893  12.334   0.525
57100W        W30168  13.565  27.534  11.989
57101W        W30169   6.160  11.844  14.859
57102W        W30170  35.152  21.494   0.248
57103W        W30171   8.278   0.587  14.687
57104W        W30172  10.915   1.946  13.934
57105W        W30173   7.990  34.332  13.004
57106W        W30174   7.726  39.746   5.417
57107W        W30175  15.212  30.157   3.667
57108W        W30176  25.565  23.592  11.664
57109W        W30177  10.325   8.988  10.280
57110W        W30178  15.632  19.093  11.523
57111W        W30179  12.124  26.032  10.521
57112W        W30180  14.358  21.689   3.640
57113W        W30181   0.950  11.679  14.999
57114W        W30182   9.289  30.620   1.297
57115W        W30183  28.185  13.330   2.187
57116W        W30184  17.360   0.027  11.085
57117W        W30185  35.329  24.490  13.292
57118W        W30186  39.914  14.209  12.406
57119W        W30187  43.059   6.208   0.557
57120W        W30188  20.595  11.148   0.663
57121W        W30189  17.200   4.062   0.184
57122W        W30190  13.104   1.936  14.369
57123W        W30191  39.420  30.359  14.309
57124W        W30192  10.926  13.344   1.834
57125W        W30193  15.666  15.772   2.038
57126W        W30194  21.965  11.218   4.242
57127W        W30195  28.100   4.891   2.507
57128W        W30196  14.585  18.152   0.910
57129W        W30197  44.916  42.812   0.731
57130W        W30198  27.926  36.019   4.589
57131W        W30199  35.623   7.292  12.003
57132W        W30200  26.793  28.553   3.173
57133W        W30201  39.067  28.624   0.285
57134W        W30202  36.663  40.975   4.744
57135W        W30203   4.296   5.194   4.616
57136W        W30204  34.036  23.236  11.079
57137W        W30205  23.650   9.750   0.216
57138W        W30206  16.686   5.805   4.269
57139W        W30207  39.329  11.660  10.968
57140W        W30208  16.158  32.063  11.863
57141W        W30209   1.218  17.918  14.742
57142W        W30210  13.826  23.952   4.755
57143W        W30211  25.025  35.429   3.846
57144W        W30212  42.467  21.456  11.028
57145W        W30213  25.515  32.359  12.141
57146W        W30214  17.786  27.019   0.444
57147W        W30215  15.819   5.467   0.021
57148W        W30216  28.530  12.437   4.053
57149W        W30217  23.793  21.566   0.180
57150W        W30218  41.402  16.325  10.130
57151W        W30219  20.928  13.849  10.836
57152W        W30220   1.525  10.183  10.731
57153W        W30221   6.135  40.576   4.257
57154W        W30222   4.333  41.917  10.915
57155W        W30223  12.732   7.839  13.429
57156W        W30224  19.169  34.106   3.508
57157W        W30225  17.649  13.520   4.624
57158W        W30226   9.249   1.042  13.493
57159W        W30227  38.500  15.565   2.749
57160W        W30228  32.862  28.953   1.577
57161W        W30229  34.478  27.891   4.763
57162W        W30230   1.422   9.179  13.596
57163W        W30231  22.479  29.770   1.480
57164W        W30232  42.548  22.656   3.685
57165W        W30233   6.586  10.030   1.439
57166W        W30234  26.587  42.512   4.923
57167W        W30235  41.343  10.690   1.378
57168W        W30236  10.999  39.173   3.163
57169W        W30237  26.154  30.755  13.348
57170W        W30238  43.955  20.772   3.069
57171W        W30239  40.682  26.939   2.650
57172W        W30240  14.101  43.111  14.611
57173W        W30241  10.540   3.342   2.239
57174W        W30242  15.110  30.885  12.001
57175W        W30243   5.347  16.424   2.265
57176W        W30244   7.320  15.760   3.347
57177W        W30245  37.802  13.417   0.296
57178W        W30246  22.106  18.565   2.289
57179W        W30247  35.897  31.497  14.299
57180W        W30248  20.783  20.005   4.763
57181W        W30249  41.289  34.441   4.423
57182W        W30250   5.499  25.514  13.970
57183W        W30251  37.520  41.887  11.038
57184W        W30252  26.068  13.314  10.441
57185W        W30253  15.280  25.005   0.499
57186W        W30254   9.261  25.165   1.696
57187W        W30255  18.008  25.106   3.378
57188W        W30256  35.985   7.121   2.720
57189W        W30257   3.239   8.836  11.507
57190W        W30258   2.678   8.730  14.277
57191W        W30259   7.358   4.449   0.880
57192W        W30260  31.948   0.598   0.571
57193W        W30261  19.795  19.304  10.505
57194W        W30262  12.390   9.729   3.689
57195W        W30263  34.818  42.311   2.243
57196W        W30264  44.305  23.611  10.652
57197W        W30265  26.381  16.381   3.121
57198W        W30266  26.615  12.435   5.240
57199W        W30267  22.810  17.631  12.085
57200W        W30268  37.841   3.936   2.420
57201W        W30269  16.373  19.376   4.293
57202W        W30270   6.286  16.281  13.936
57203W        W30271  42.471  25.026   0.868
57204W        W30272  31.397   9.575   1.495
57205W        W30273  16.684  30.530  14.921
57206W        W30274  29.924  12.920   4.694
57207W        W30275   0.507  31.600   3.303
57208W        W30276  12.933  42.680   4.221
57209W        W30277  17.407   9.825   1.954
57210W        W30278  42.457  34.438   0.551
57211W        W30279  32.898   0.310   4.113
57212W        W30280  33.414   2.775   2.834
57213W        W30281   6.641  34.737  13.970
57214W        W30282   7.619  22.162  14.373
57215W        W30283  25.476  35.297   1.663
57216W        W30284  36.921  31.578   2.799
57217W        W30285   1.616   9.884  11.856
57218W        W30286   3.702  43.847   0.331
57219W        W30287  23.036  24.939  11.685
57220W        W30288  14.561   9.695  12.011
57221W        W30289  43.947  23.522  12.316
57222W        W30290   7.287  20.268   4.009
57223W        W30291  44.792  22.573  14.206
57224W        W30292   7.789   7.401  10.192
57225W        W30293  21.120  25.836  13.428
57226W        W30294  33.847  22.990   0.963
57227W        W30295   1.120  13.860   0.451
57228W        W30296  14.911  18.206   5.029
57229W        W30297  41.581  42.002  11.532
57230W        W30298  13.012  18.691   5.335
57231W        W30299  40.010  31.501  13.510
57232W        W30300   8.410   3.839  14.492
57233W        W30301   3.810  26.601   2.726
57234W        W30302  36.472  37.349   2.151
57235W        W30303  21.339   4.641   4.080
57236W        W30304   3.530  25.323   1.031
57237W        W30305  35.900   4.353  10.308
57238W        W30306  34.406  16.750  11.144
57239W        W30307  24.035   4.505   3.811
57240W        W30308  11.154  19.686   1.020
57241W        W30309  35.994  26.252  10.977
57242W        W30310  27.477   5.602   1.271
57243W        W30311  44.527  39.472  10.227
57244W        W30312  30.004  32.469   3.859
57245W        W30313  42.574  41.381   4.150
57246W        W30314  32.687  34.698  12.870
57247W        W30315  41.870  38.772   2.828
57248W        W30316  35.988  35.677   3.169
57249W        W30317  22.344  33.919  12.470
57250W        W30318  13.286  28.283   0.238
57251W        W30319  23.619  23.278   3.150
57252W        W30320   9.533   9.549   4.360
57253W        W30321   6.404  16.315  12.560
57254W        W30322  23.613  18.298   0.895
57255W        W30323  14.332  33.400  11.348
57256W        W30324  21.632  27.477   0.888
57257W        W30325  23.964   3.345  12.014
57258W        W30326   9.473   0.424  12.067
57259W        W30327  41.272  38.246  12.119
57260W        W30328  41.441  26.418   4.408
57261W        W30329  26.934  21.085   0.469
57262W        W30330   7.419  12.261  10.379
57263W        W30331  36.329   5.398  11.072
57264W        W30332  35.157  21.887   3.209
57265W        W30333  23.966  33.026  13.866
57266W        W30334  22.538  26.085  10.632
57267W        W30335  19.020  37.492   0.436
57268W        W30336   4.289   7.292   4.302
57269W        W30337  28.744  41.554   3.925
57270W        W30338  15.102   7.589  11.002
57271W        W30339  43.989  17.069   4.078
57272W        W30340   1.897  38.847   4.573
57273W        W30341  34.422  37.886  12.175
57274W        W30342  10.413  17.696  10.232
57275W        W30343  16.004  25.411  12.872
57276W        W30344  24.643   1.584   2.330
57277W        W30345   9.965  35.052  11.173
57278W        W30346  35.751   0.641  11.671
57279W        W30347   0.795  43.517  14.376
57280W        W30348  25.999  12.142  11.422
57281W        W30349  26.530   4.223  11.963
57282W        W30350  38.611  20.801   4.781
57283W        W30351  25.489   6.820   3.726
57284W        W30352   6.229  15.739   0.465
57285W        W30353  19.101  34.348   4.176
57286W        W30354  42.405   6.279   2.281
57287W        W30355  43.880  27.171   1.333
57288W        W30356  42.731  28.011   3.972
57289W        W30357  25.057  17.709  11.156
57290W        W30358  19.157  19.680   1.271
57291W        W30359  28.667   2.924  11.971
57292W        W30360  19.424   2.954   2.506
57293W        W30361  30.722  15.224   0.452
57294W        W30362   1.384   6.365  11.575
57295W        W30363  43.414  35.400   4.148
57296W        W30364  18.260   3.402  14.319
57297W        W30365  21.002   4.198   1.917
57298W        W30366  27.212   8.787   1.005
57299W        W30367  15.195  11.240   3.790
57300W        W30368  23.962   0.406  14.353
57301W        W30369  43.784  41.669  14.854
57302W        W30370  13.121   2.210  11.607
57303W        W30371  31.649  26.732   2.672
57304W        W30372  36.854   7.584  11.595
57305W        W30373  44.540  30.799   1.740
57306W        W30374  21.998   6.873   4.757
57307W        W30375  13.226   4.119  12.537
57308W        W30376   8.307  44.665   0.398
57309W        W30377   1.771  13.100   3.237
57310W        W30378  42.385  30.954  13.481
57311W        W30379  40.452  26.596  12.418
57312W        W30380   5.901  31.652   2.238
57313W        W30381  34.299  15.267  11.521
57314W        W30382   3.900  28.687  12.384
57315W        W30383  13.442  19.680  12.200
57316W        W30384   9.456   2.854   3.194
57317W        W30385  17.217  35.075   0.337
57318W        W30386  41.769  29.597   2.660
57319W        W30387  16.016  11.509  12.898
57320W        W30388  36.880  21.754  11.453
57321W        W30389  30.568  27.170  12.004
57322W        W30390  11.899  23.294  14.905
57323W        W30391  39.955  21.580  12.424
57324W        W30392  17.631  42.113   0.957
57325W        W30393  16.857  43.815  11.018
57326W        W30394  42.010  22.237  11.151
57327W        W30395  36.521  19.126  11.531
57328W        W30396  43.943   3.837  10.400
57329W        W30397  33.956  34.077   2.264
57330W        W30398  19.601  32.551  13.393
57331W        W30399  41.870  20.038  12.230
57332W        W30400  32.234  17.618   1.180
57333W        W30401   1.033  18.079  11.019
57334W        W30402  41.404  32.349  11.666
57335W        W30403  32.492  27.689  14.825
57336W        W30404   1.932  17.111  13.535
57337W        W30405   0.778  44.292   1.332
57338W        W30406  19.008   8.822   4.208
57339W        W30407  36.178  14.806  12.656
57340W        W30408   0.468  23.460   2.813
57341W        W30409  11.374  23.317   4.871
57342W        W30410  20.042  22.212   4.874
57343W        W30411   4.583  21.959  12.000
57344W        W30412  43.244  33.411   5.040
57345W        W30413  33.991  17.091   4.350
57346W        W30414  43.911   6.799   0.822
57347W        W30415   2.333  14.122   4.120
57348W        W30416  26.989   7.918   4.726
57349W        W30417  19.530   8.856   0.471
57350W        W30418   4.971   9.321   3.274
57351W        W30419  22.297   8.194   4.329
57352W        W30420   6.327  29.636  10.648
57353W        W30421  21.834  40.777  13.950
57354W        W30422  40.113   7.717   0.456
57355W        W30423   3.812  35.475   4.164
57356W        W30424  21.257  37.556  10.546
57357W        W30425  34.366   8.943  11.347
57358W        W30426  33.406  42.031  12.458
57359W        W30427   4.669   4.809   2.907
57360W        W30428  20.117  41.736   3.760
57361W        W30429  15.846   0.507   2.348
57362W        W30430  26.077   9.624   3.373
57363W        W30431  28.995  41.512  13.811
57364W        W30432   5.891  33.652  13.926
57365W        W30433   9.284  22.541   4.975
57366W        W30434  32.394  32.077  10.660
57367W        W30435  16.683  30.356  12.042
57368W        W30436  43.235  19.531  13.934
57369W        W30437  31.520  20.717  12.936
57370W        W30438   0.077  35.470  10.496
57371W        W30439  12.414   1.863  14.916
57372W        W30440   1.079  17.598   1.765
57373W        W30441  40.088   7.938  14.857
57374W        W30442  16.536  32.282   5.107
57375W        W30443  36.618  33.229   0.341
57376W        W30444  31.362  32.366   3.337
57377W        W30445  34.460  12.214   2.793
57378W        W30446  25.558   1.422  13.005
57379W        W30447  19.601  38.606  14.551
57380W        W30448  10.804  32.182  10.801
57381W        W30449  34.712   1.022  10.634
57382W        W30450  40.557  42.910  14.632
57383W        W30451  31.181   1.353   2.722
57384W        W30452  35.640  15.782   1.512
57385W        W30453  37.196  23.916   2.480
57386W        W30454  41.017  10.250   4.881
57387W        W30455   0.508  28.893  10.725
57388W        W30456  28.522  14.742  14.915
57389W        W30457  17.767  31.819   1.823
57390W        W30458  23.177  10.580   3.220
57391W        W30459  37.694  20.152  12.053
57392W        W30460   6.307   5.413  11.424
57393W        W30461  37.095  41.580  12.386
57394W        W30462  35.422  32.899   4.376
57395W        W30463  34.137  26.527  13.537
57396W        W30464  24.668  24.503   0.501
57397W        W30465  23.693  14.210  10.998
57398W        W30466  30.593  15.155  12.444
57399W        W30467   8.299  36.036  13.947
57400W        W30468  44.692   4.451  11.132
57401W        W30469  32.394  20.227   1.142
57402W        W30470   3.434  15.963  12.842
57403W        W30471  44.280  29.069   3.339
57404W        W30472  32.385  43.427   2.149
57405W        W30473  41.060  31.147  11.601
57406W        W30474  28.520  32.332   4.680
57407W        W30475   5.878  37.513  13.579
57408W        W30476   3.014   0.421  14.948
57409W        W30477   4.198  23.624   2.314
57410W        W30478  39.826  42.416  10.740
57411W        W30479  12.338   5.589   0.789
57412W        W30480  25.483  40.496  10.577
57413W        W30481  17.639  42.709  14.819
57414W        W30482  44.173   0.782  10.540
57415W        W30483   8.350  35.290   1.723
57416W        W30484  21.063  27.408  13.900
57417W        W30485  33.896  22.556   2.393
57418W        W30486  44.834  40.309   0.441
57419W        W30487   2.544  25.655  12.445
57420W        W30488  33.341  39.058   4.143
57421W        W30489   8.317  44.770  13.987
57422W        W30490  25.555  43.405   3.750
57423W        W30491  22.591  35.039   1.295
57424W        W30492  17.660  33.396   0.210
57425W        W30493  23.207  30.096   1.322
57426W        W30494  10.555  39.929  11.050
57427W        W30495   5.709  21.862  12.497
57428W        W30496  30.952  14.541  13.981
57429W        W30497   6.889  28.667  11.253
57430W        W30498  43.026  22.579  12.532
57431W        W30499  38.914   4.759  14.487
57432W        W30500   0.886  21.858  13.799
57433W        W30501  23.850  38.470  10.119
57434W        W30502  18.644  16.228   1.852
57435W        W30503  43.207   4.291  11.041
57436W        W30504   2.263   4.831   3.207
57437W        W30505   5.264  21.762   0.010
57438W        W30506  17.307  39.547   2.432
57439W        W30507  21.955  42.404  11.185
57440W        W30508  43.674  33.590  12.138
57441W        W30509  40.556  31.351  11.687
57442W        W30510   9.290  11.095  14.903
57443W        W30511   3.211  28.003  14.142
57444W        W30512   4.184  29.228   4.115
57445W        W30513   3.470  32.060  12.004
57446W        W30514  19.561  42.054   0.481
57447W        W30515   8.754   5.393   9.955
57448W        W30516  29.941  19.241  13.499
57449W        W30517  37.424   8.462   5.072
57450W        W30518  13.155  34.615  12.582
57451W        W30519  38.067  30.007  14.932
57452W        W30520  23.380  34.318   4.100
57453W        W30521  30.715   7.303   2.239
57454W        W30522  28.080  18.783  11.654
57455W        W30523  22.700   1.829  10.797
57456W        W30524  22.779  16.388   0.705
57457W        W30525   6.269   1.573   2.241
57458W        W30526  19.781  44.962   2.273
57459W        W30527  35.464   2.248   3.003
57460W        W30528   0.687  20.047  14.983
57461W        W30529  40.988  41.260  11.637
57462W        W30530  37.889  41.345   2.356
57463W        W30531  10.776  11.229  12.384
57464W        W30532   5.275  43.410   4.138
57465W        W30533  44.050  12.378  11.088
57466W        W30534   1.396   1.636   1.467
57467W        W30535  24.946  40.921  13.050
57468W        W30536  15.736  21.200   3.920
57469W        W30537  28.687  32.011  12.886
57470W        W30538  25.630  36.061  14.667
57471W        W30539  18.251  22.960   2.384
57472W        W30540  36.003  38.653   1.357
57473W        W30541  18.977  19.550  11.468
57474W        W30542   7.731  31.079   0.790
57475W        W30543   3.809  19.543  14.948
57476W        W30544  11.775  36.497  11.944
57477W        W30545   1.456   0.870   2.803
57478W        W30546  11.809  42.530  13.064
57479W        W30547   5.024   3.434   3.851
57480W        W30548   8.247   0.898  13.173
57481W        W30549   8.879   4.651   2.809
57482W        W30550  19.469  22.541  14.321
57483W        W30551  42.697  28.734   2.792
57484W        W30552  12.376  12.111  14.934
57485W        W30553  41.264   6.498  13.916
57486W        W30554  36.942  37.842   4.547
57487W        W30555  35.959  32.529   3.729
57488W        W30556   9.904   8.806   0.493
57489W        W30557  40.726  13.242  11.619
57490W        W30558  36.855  21.610   1.922
57491W        W30559  44.252  41.480  10.231
57492W        W30560  10.876  38.777   2.833
57493W        W30561  24.260  13.815   2.246
57494W        W30562  23.516   1.981  12.941
57495W        W30563   2.401  17.700   1.276
57496W        W30564  33.484  16.808   0.779
57497W        W30565  15.638  28.920   4.547
57498W        W30566  32.185  41.267  14.870
57499W        W30567  31.357  29.356  11.527
57500W        W30568  22.563   5.717  11.569
57501W        W30569  25.534  27.943   2.613
57502W        W30570  12.123  33.635  12.848
57503W        W30571  21.785  23.353  11.696
57504W        W30572  15.489  33.863  10.913
57505W        W30573  32.103  34.340   3.191
57506W        W30574  30.129  22.228   3.375
57507W        W30575  37.073  35.975  14.185
57508W        W30576  43.316  24.069   3.093
57509W        W30577  16.967  35.975  11.015
57510W        W30578  19.599  35.607   0.351
57511W        W30579  24.859   3.749   4.126
57512W        W30580  33.021   7.376   0.531
57513W        W30581  38.875  43.520   4.220
57514W        W30582  11.824  24.034  12.028
57515W        W30583  38.317   6.859  14.456
57516W        W30584  15.828   3.359  13.479
57517W        W30585  15.145   9.298   4.913
57518W        W30586  32.845   7.136  12.254
57519W        W30587   7.080  18.576  12.503
57520W        W30588  20.120   5.433  11.460
57521W        W30589  29.499   3.897   4.695
57522W        W30590   0.568  34.928   0.222
57523W        W30591  14.691  39.072   3.280
57524W        W30592  27.739   3.194   0.342
57525W        W30593  26.653  22.175  14.950
57526W        W30594  20.165  18.520  10.723
57527W        W30595  39.312  27.680  10.903
57528W        W30596  20.759  32.449   4.183
57529W        W30597  37.427   1.370  12.936
57530W        W30598  40.590  17.340   0.391
57531W        W30599  22.944  14.591   4.979
57532W        W30600  29.004   5.294  14.099
57533W        W30601   7.772  28.543   1.731
57534W        W30602  41.652  14.693   1.298
57535W        W30603  34.179  18.689  11.882
57536W        W30604  12.218  19.045  11.372
57537W        W30605  44.016  25.319  13.059
57538W        W30606  11.792  36.867  10.202
57539W        W30607  24.627  38.116  10.629
57540W        W30608  35.541  15.620   1.028
57541W        W30609  38.918  29.710   0.927
57542W        W30610  14.038  10.316  14.022
57543W        W30611  24.598  23.244  14.234
57544W        W30612  31.290  14.155  10.191
57545W        W30613  30.069  29.086   3.240
57546W        W30614  14.392   2.899  12.887
57547W        W30615  41.407  37.447  14.854
57548W        W30616  12.055   1.806   0.927
57549W        W30617  43.542  34.021   4.539
57550W        W30618  18.154  34.984   4.575
57551W        W30619  18.160  17.030   0.450
57552W        W30620  33.046  32.484   3.876
57553W        W30621   0.779  33.961  10.502
57554W        W30622  36.584  10.439   2.344
57555W        W30623  27.403  42.939  11.108
57556W        W30624  22.222  31.611   1.800
57557W        W30625  34.469  34.945   2.197
57558W        W30626  13.191  32.582  10.809
57559W        W30627  11.826  31.409   4.825
57560W        W30628  23.981  24.742  12.648
57561W        W30629  26.468  44.420   2.805
57562W        W30630  34.284  32.309   4.079
57563W        W30631   8.209  22.009   3.203
57564W        W30632   4.463   9.979  10.565
57565W        W30633  40.934   6.904   4.968
57566W        W30634  22.280  29.479  11.048
57567W        W30635  39.613  39.372  13.529
57568W        W30636  12.767  13.458  14.981
57569W        W30637  15.707  38.126   2.792
57570W        W30638  42.940  15.056   3.625
57571W        W30639  13.525  44.081   2.716
57572W        W30640   7.372  23.033   1.417
57573W        W30641  41.722  36.057  11.492
57574W        W30642  28.927   4.188  10.940
57575W        W30643  26.050  34.070  10.764
57576W        W30644   3.674  22.325  12.030
57577W        W30645  44.514  27.429  14.753
57578W        W30646   1.210  14.903   3.250
57579W        W30647  10.667  20.056   4.505
57580W        W30648  30.395  37.010  10.806
57581W        W30649  39.235  41.286   3.690
57582W        W30650  38.311  18.721  11.732
57583W        W30651  38.888   3.180   5.246
57584W        W30652  12.243   1.807   4.893
57585W        W30653   9.320  28.781   0.415
57586W        W30654   3.756  38.856   2.152
57587W        W30655  33.905  38.623  12.050
57588W        W30656  15.838  32.561  12.970
57589W        W30657  16.887   1.292   2.705
57590W        W30658  27.979  37.781   1.793
57591W        W30659  13.552   0.535   2.861
57592W        W30660  22.556  34.460   0.667
57593W        W30661  20.393  23.414  14.350
57594W        W30662  42.578  12.847   4.667
57595W        W30663   1.239   1.781   0.990
57596W        W30664  18.931  42.416   0.793
57597W        W30665  19.551   9.259   0.807
57598W        W30666  14.662   1.495  13.011
57599W        W30667  31.332   0.809  13.804
57600W        W30668  11.124  22.085   0.400
57601W        W30669   3.498  43.462   2.150
57602W        W30670  22.099  24.750   4.497
57603W        W30671  33.442  28.094  13.508
57604W        W30672  21.492  28.492  12.067
57605W        W30673  14.293  25.227   2.168
57606W        W30674  33.504   3.175   0.698
57607W        W30675  18.085   7.917  11.126
57608W        W30676   0.838  22.383  10.084
57609W        W30677  15.092   5.073  14.489
57610W        W30678  40.771  18.096   1.190
57611W        W30679   8.990  29.233   1.797
57612W        W30680  11.903  24.466  13.447
57613W        W30681   6.099  17.668  14.926
57614W        W30682  27.085  26.145   2.670
57615W        W30683  13.178  43.182   3.681
57616W        W30684  43.757  21.814  14.401
57617W        W30685   2.511  17.519   4.951
57618W        W30686  19.612  12.837   3.746
57619W        W30687  43.482  18.450  14.231
57620W        W30688  38.162   4.652   4.062
57621W        W30689  34.078  27.934   1.760
57622W        W30690  14.189  13.282  11.475
57623W        W30691  30.209   6.206   0.835
57624W        W30692  32.782  22.792  12.087
57625W        W30693   8.671  11.835   0.019
57626W        W30694  20.217   4.709  10.162
57627W        W30695  34.644  21.664  13.424
57628W        W30696  44.506  26.503  13.319
57629W        W30697  22.569  28.615   2.659
57630W        W30698  44.000   7.889  14.342
57631W        W30699  16.147   6.523   1.929
57632W        W30700  28.887  19.188  11.870
57633W        W30701  10.357  38.026   1.461
57634W        W30702  39.121  25.523   3.226
57635W        W30703  36.816   2.190   4.228
57636W        W30704   1.346  31.656   3.805
57637W        W30705  35.558   3.636   4.101
57638W        W30706   4.765  36.313  11.124
57639W        W30707  14.316  12.179   1.947
57640W        W30708   4.755  44.599  14.000
57641W        W30709  26.178  12.418   2.192
57642W        W30710  11.161  36.936   0.066
57643W        W30711   3.505   9.062   0.247
57644W        W30712   4.774  28.131  11.959
57645W        W30713  14.861   8.362  13.500
57646W        W30714  15.336  40.999   3.751
57647W        W30715  13.714  12.734   1.433
57648W        W30716   7.759  38.973   2.274
57649W        W30717  25.656   7.224  10.554
57650W        W30718   4.866   0.099   4.626
57651W        W30719   3.005  24.962   4.510
57652W        W30720   3.681  38.840  13.424
57653W        W30721  15.495  35.046  14.312
57654W        W30722  22.074  23.198  11.019
57655W        W30723  26.077  42.474   1.810
57656W        W30724  27.095  25.090   4.568
57657W        W30725  40.577  38.489   4.224
57658W        W30726  36.030  33.870   4.975
57659W        W30727  37.124   2.160  13.306
57660W        W30728  19.269  35.989  10.673
57661W        W30729  28.312  13.955  12.725
57662W        W30730  43.043  30.406   1.291
57663W        W30731  21.454  24.203   0.798
57664W        W30732  31.860   6.474  10.449
57665W        W30733  34.881  26.657   0.359
57666W        W30734   9.942  34.488   2.033
57667W        W30735  32.956   7.603   1.477
57668W        W30736  22.497   1.744   2.196
57669W        W30737  24.721  20.462   1.164
57670W        W30738  42.106   1.403   0.802
57671W        W30739  37.394  32.423   1.868
57672W        W30740  32.554  33.114  13.073
57673W        W30741  28.034  27.704   3.132
57674W        W30742  43.944  38.336  14.987
57675W        W30743   6.876  25.630   0.251
57676W        W30744   1.299   5.467  14.704
57677W        W30745  38.825  22.830  10.974
57678W        W30746  27.229  31.940   1.334
57679W        W30747  27.528  22.432  11.800
57680W        W30748  11.404  20.735  12.434
57681W        W30749   4.881  40.690   4.055
57682W        W30750   0.673  19.561   2.910
57683W        W30751  19.609  20.258  14.769
57684W        W30752  37.847   7.261  13.422
57685W        W30753  22.961   7.189   3.541
57686W        W30754  22.764   8.193   3.614
57687W        W30755  20.164  43.444  11.152
57688W        W30756  17.280  37.685   4.969
57689W        W30757  34.437  14.059  12.934
57690W        W30758  25.092  43.089  13.833
57691W        W30759   7.188  23.272   0.489
57692W        W30760   5.256  39.911  14.242
57693W        W30761  25.695  37.400  10.880
57694W        W30762  30.351  19.261  11.120
57695W        W30763  14.288  23.191   0.851
57696W        W30764  24.968  18.480   4.082
57697W        W30765  30.917   6.925   1.792
57698W        W30766  41.358  21.667  14.354
57699W        W30767  21.780   9.212  14.862
57700W        W30768  38.795  40.460   0.373
57701W        W30769  29.760  43.232   3.709
57702W        W30770  28.024  23.191   0.214
57703W        W30771  33.184  25.054  11.220
57704W        W30772  30.062  32.735  14.901
57705W        W30773  21.148   1.070   9.776
57706W        W30774  13.783  26.500   4.409
57707W        W30775  43.272   6.813  14.885
57708W        W30776   9.963  21.627   2.953
57709W        W30777  27.645   0.997  14.360
57710W        W30778  34.375  41.286  13.428
57711W        W30779  26.032   3.520  12.436
57712W        W30780   5.866  32.824   4.343
57713W        W30781  29.051   5.648   2.161
57714W        W30782  25.998  33.530   2.167
57715W        W30783  20.780  26.096  13.981
57716W        W30784  41.475  41.418  11.681
57717W        W30785  14.218  14.079   0.415
57718W        W30786  24.702  43.538   1.863
57719W        W30787  18.612  38.520   0.913
57720W        W30788  41.772  37.638   5.024
57721W        W30789  14.870  24.413  12.454
57722W        W30790  43.075  27.510   1.731
57723W        W30791   1.540  32.933  13.269
57724W        W30792  38.920  24.783  12.072
57725W        W30793  21.737  39.964   1.308
57726W        W30794  43.961   4.746  10.447
57727W        W30795  38.668  22.474  12.476
57728W        W30796   3.396  35.920   1.428
57729W        W30797  19.808  35.040   3.325
57730W        W30798  30.361  28.406  12.512
57731W        W30799  30.072  20.271   1.971
57732W        W30800  43.480  39.795  13.297
57733W        W30801  12.127  31.791   4.998
57734W        W30802  24.188  32.700  12.090
57735W        W30803  39.508  14.100  13.503
57736W        W30804  27.219   5.141   1.928
57737W        W30805  14.452  37.130  14.979
57738W        W30806  26.685  26.956   1.368
57739W        W30807  11.171  42.369  11.845
57740W        W30808   7.736  32.915  13.780
57741W        W30809  22.551  12.604   4.516
57742W        W30810  26.197  11.244  11.549
57743W        W30811  14.070  18.345  12.234
57744W        W30812  35.347  39.825   4.177
57745W        W30813  22.971  35.469   2.761
57746W        W30814   0.237  13.265   1.703
57747W        W30815  34.427  34.852   2.712
57748W        W30816  32.299  26.657   4.235
57749W        W30817  36.868  19.279   0.368
57750W        W30818  11.453  41.423  14.148
57751W        W30819  23.848  34.185   0.355
57752W        W30820  30.600  12.648   1.297
57753W        W30821  31.967  24.080   3.437
57754W        W30822  41.033   8.616  11.125
57755W        W30823  10.781  32.934  14.666
57756W        W30824  16.621  29.165   4.807
57757W        W30825  16.567  36.788   0.449
57758W        W30826   7.911  35.742   2.707
57759W        W30827  27.944  36.157   2.404
57760W        W30828  19.196  20.549  14.907
57761W        W30829   9.171  22.920  12.879
57762W        W30830   6.735  30.964  12.033
57763W        W30831  29.005  38.639   2.677
57764W        W30832   9.356  34.463  11.754
57765W        W30833  19.607   7.110   0.916
57766W        W30834  17.828  17.632  12.393
57767W        W30835   4.828  21.575   2.855
57768W        W30836   9.204   3.720  11.044
57769W        W30837   3.969   4.326  13.071
57770W        W30838  36.863  23.608   5.005
57771W        W30839  38.559   4.783  11.202
57772W        W30840  19.697  32.707  11.927
57773W        W30841  22.316   6.952  13.417
57774W        W30842   4.493  14.244  10.678
57775W        W30843  31.919  29.548  13.910
57776W        W30844  21.048  16.806  13.928
57777W        W30845   2.796  30.031   3.225
57778W        W30846  39.571  18.388   0.919
57779W        W30847  10.406  41.415   2.336
57780W        W30848  33.869  39.536  14.404
57781W        W30849  19.689  28.950  11.942
57782W        W30850  34.506   1.919  13.051
57783W        W30851  38.450  17.556  12.871
57784W        W30852  27.432  20.562   1.432
57785W        W30853  25.390  25.700  13.742
57786W        W30854   2.472  29.058  12.183
57787W        W30855  16.329   4.902  13.501
57788W        W30856  28.150  37.910  11.166
57789W        W30857  29.960   8.892   3.400
57790W        W30858  17.158  42.213   3.716
57791W        W30859  32.184   5.500  10.754
57792W        W30860  28.343  27.628  14.816
57793W        W30861  11.159  36.931   0.911
57794W        W30862  26.828  19.236  13.004
57795W        W30863  43.914  25.439   4.955
57796W        W30864  27.115  16.105  10.704
57797W        W30865  33.546  20.832   0.004
57798W        W30866  40.385   8.677  13.480
57799W        W30867  22.604   7.602   1.308
57800W        W30868   7.857  36.204   1.375
57801W        W30869  39.036   9.081   3.332
57802W        W30870  27.611  33.344   3.155
57803W        W30871   0.267  38.997   0.019
57804W        W30872  31.570  12.326  11.094
57805W        W30873  43.033  37.952  12.611
57806W        W30874   1.225  39.339  12.775
57807W        W30875  13.182  23.617   4.130
57808W        W30876  31.428  19.689   0.396
57809W        W30877   0.337  27.437  11.952
57810W        W30878  26.078   5.801   4.038
57811W        W30879  21.164  24.379   3.073
57812W        W30880  42.920  30.977  13.950
57813W        W30881  31.594   0.712  10.388
57814W        W30882  34.699  41.126  11.077
57815W        W30883  10.175  43.404  12.656
57816W        W30884   8.029  33.541   2.021
57817W        W30885  11.471  31.488  14.191
57818W        W30886  34.960  16.204  14.361
57819W        W30887  44.226  30.114   4.313
57820W        W30888  20.313  42.509   1.774
57821W        W30889  18.983  17.845   2.901
57822W        W30890   9.267   7.800  13.498
57823W        W30891  27.429  31.915  10.052
57824W        W30892  35.094  28.739  11.551
57825W        W30893  10.183  29.030  11.915
57826W        W30894   4.162  32.710  13.578
57827W        W30895  24.107  20.559   2.331
57828W        W30896   9.886   0.832   2.341
57829W        W30897  44.340  39.387   0.269
57830W        W30898  31.582  15.356   0.258
57831W        W30899  32.437  41.045   0.813
57832W        W30900  42.528  26.397  14.075
57833W        W30901  33.369  30.471  13.880
57834W        W30902   0.928  11.086   3.868
57835W        W30903  36.934  24.204   0.306
57836W        W30904  25.505  31.839  12.096
57837W        W30905  20.348  40.844  10.887
57838W        W30906  12.246  40.907  11.076
57839W        W30907   9.806  27.590   2.140
57840W        W30908   4.466   3.915  11.590
57841W        W30909  39.473  22.971  12.005
57842W        W30910  17.767  34.479  14.915
57843W        W30911  36.164   6.383   5.430
57844W        W30912   8.612  12.452   3.211
57845W        W30913  32.007  33.073  10.721
57846W        W30914  20.171  40.627  14.406
57847W        W30915  11.780  39.294   1.620
57848W        W30916   5.837   1.656  11.202
57849W        W30917  42.266   9.133  11.464
57850W        W30918  18.037  40.301   3.601
57851W        W30919   9.789  17.961  13.749
57852W        W30920  19.556  44.869  10.118
57853W        W30921  20.632   5.333  10.729
57854W        W30922  38.459   5.686   4.920
57855W        W30923  11.914  43.037   2.009
57856W        W30924   8.232  40.101  12.809
57857W        W30925  21.700  12.201   1.423
57858W        W30926  21.554  31.732   0.752
57859W        W30927  21.647  24.459   1.867
57860W        W30928  13.743  11.815   4.697
57861W        W30929   6.097  37.491  14.492
57862W        W30930   5.441  30.546  11.624
57863W        W30931   7.443  30.467  13.930
57864W        W30932  37.551  24.464   3.871
57865W        W30933  41.631  26.655  13.916
57866W        W30934  17.229   7.858   3.617
57867W        W30935  37.405  39.238  12.451
57868W        W30936  27.941  12.669  10.468
57869W        W30937  42.460  32.447  14.528
57870W        W30938   7.761   4.152   0.752
57871W        W30939  11.266  17.174  12.412
57872W        W30940  24.931  22.285   3.182
57873W        W30941  18.698  30.653  13.094
57874W        W30942  14.665  19.231  11.251
57875W        W30943  30.401  30.474   3.210
57876W        W30944  15.128  33.331  11.945
57877W        W30945  21.828  33.805   3.704
57878W        W30946  37.579  20.826  12.597
57879W        W30947  22.492  28.098   0.310
57880W        W30948  37.825  27.615  13.969
57881W        W30949  38.530   0.346  14.452
57882W        W30950  22.075  42.907   0.379
57883W        W30951  36.654   8.018   4.537
57884W        W30952  43.976  32.082  10.881
57885W        W30953  11.708   9.463   0.999
57886W        W30954  18.732  21.773   4.137
57887W        W30955  32.175  44.882  11.333
57888W        W30956  43.937  26.484   4.622
57889W        W30957   8.633  28.172   4.676
57890W        W30958  31.727  29.410   2.343
57891W        W30959  23.200  27.080  11.132
57892W        W30960  11.457  30.877  13.470
57893W        W30961   1.649  22.005  12.666
57894W        W30962  41.074  21.101   3.705
57895W        W30963  23.013  28.603   0.789
57896W        W30964  30.693  15.254   4.139
57897W        W30965  43.443  38.477  14.943
57898W        W30966  15.855  10.223   3.643
57899W        W30967  39.606  23.711   4.079
57900W        W30968   3.745  12.821  12.503
57901W        W30969  40.561  21.508  10.703
57902W        W30970  44.340  24.690   3.638
57903W        W30971  22.036  26.547   1.304
57904W        W30972  16.726  18.818  10.924
57905W        W30973  31.606  32.210   4.800
57906W        W30974  21.782  39.242   3.113
57907W        W30975  36.944  14.276  13.720
57908W        W30976  38.009  42.978   1.410
57909W        W30977  29.230  31.952  10.272
57910W        W30978   1.743  28.143  12.365
57911W        W30979  34.558  19.842  14.048
57912W        W30980  22.776  30.070   2.252
57913W        W30981  31.895   8.245  13.600
57914W        W30982   6.981  34.592  13.119
57915W        W30983  37.405  24.353   2.660
57916W        W30984  14.607  20.804   4.089
57917W        W30985  18.071  23.365  11.072
57918W        W30986   0.009   9.969   3.696
57919W        W30987  20.756  16.772   4.210
57920W        W30988  40.452  34.949   1.716
57921W        W30989  36.173  16.947   2.910
57922W        W30990  18.482  28.137  14.414
57923W        W30991  21.737  33.126  13.791
57924W        W30992  28.169  22.565   3.915
57925W        W30993  37.373  41.431  11.958
57926W        W30994   5.906   1.160  11.949
57927W        W30995  34.968   1.502  10.946
57928W        W30996   5.748   8.294   1.638
57929W        W30997   2.179   0.334  13.334
57930W        W30998  44.378  32.154  14.227
57931W        W30999   0.934  28.637   2.600
57932W        W31000  39.497  10.293  14.377
57933W        W31001  17.493   6.843   1.123
57934W        W31002  41.775  19.336  14.421
57935W        W31003  22.798  34.246   2.773
57936W        W31004  40.880  27.875   2.235
57937W        W31005  43.791  25.653   1.252
57938W        W31006  14.510  11.446   4.605
57939W        W31007  20.702  22.019   2.748
57940W        W31008  18.008  31.494  13.820
57941W        W31009   7.322  16.381  12.838
57942W        W31010  43.362  31.224  13.839
57943W        W31011  37.441   8.252  14.520
57944W        W31012  10.163  29.579  12.496
57945W        W31013  16.335  25.550  12.027
57946W        W31014  36.915  37.573   1.921
57947W        W31015  31.169  30.799  14.850
57948W        W31016   4.876  10.278  14.010
57949W        W31017  14.865  11.887  12.576
57950W        W31018  20.685  30.631   0.851
57951W        W31019   6.808   4.224  12.493
57952W        W31020  34.157  22.623  13.034
57953W        W31021  15.643  12.250  13.431
57954W        W31022  42.198  12.020   4.363
57955W        W31023   7.918  23.229   0.782
57956W        W31024  38.965  18.689   3.620
57957W        W31025   9.765  36.011  14.850
57958W        W31026  17.455   7.172   4.997
57959W        W31027  12.152   6.692  14.353
57960W        W31028   1.981  34.568   4.182
57961W        W31029  18.139  42.773  14.270
57962W        W31030  35.057   5.630  11.522
57963W        W31031  11.129  24.597   0.026
57964W        W31032  11.634  44.716   0.312
57965W        W31033  41.485  17.770   0.605
57966W        W31034  30.304  17.663  13.098
57967W        W31035   9.838  35.346   2.272
57968W        W31036  21.111  30.708  14.483
57969W        W31037  32.590  27.641  12.854
57970W        W31038   3.394  35.328  14.839
57971W        W31039   0.184  12.093   3.165
57972W        W31040  33.897   2.976   4.170
57973W        W31041  42.381  11.281  10.723
57974W        W31042  13.353  33.481  11.537
57975W        W31043  19.515   8.724  11.444
57976W        W31044  42.035  26.087  13.422
57977W        W31045   0.225  22.692   1.660
57978W        W31046  29.526  14.152  13.348
57979W        W31047  24.048   8.094  14.272
57980W        W31048  34.732  19.545  11.086
57981W        W31049  13.129  22.650   1.061
57982W        W31050   5.902   3.429  12.020
57983W        W31051  39.091  32.348   2.786
57984W        W31052  10.099  25.649   0.142
57985W        W31053   2.825  40.531   0.324
57986W        W31054  18.371  32.040   3.289
57987W        W31055  37.307  32.053  14.283
57988W        W31056  10.666   3.406   1.422
57989W        W31057  21.024   4.002   4.601
57990W        W31058  16.622  25.194  13.297
57991W        W31059  31.436  26.657   0.266
57992W        W31060  14.202  28.993  11.104
57993W        W31061  29.740  37.370  12.451
57994W        W31062   2.817  10.100  12.111
57995W        W31063  20.653  40.252  13.051
57996W        W31064   4.872  15.324   3.415
57997W        W31065  30.194  25.937   3.557
57998W        W31066  19.250  11.124  11.261
57999W        W31067  24.672  36.722   2.384
58000W        W31068  38.239  35.455   0.314
58001W        W31069  11.375  30.599   0.413
58002W        W31070   4.937  41.947  13.932
58003W        W31071  37.456  31.877   1.834
58004W        W31072  35.302   4.462  13.470
58005W        W31073  26.048   7.415   1.876
58006W        W31074   1.182  27.063   3.266
58007W        W31075  26.759   7.109   2.464
58008W        W31076  24.804   3.265   2.012
58009W        W31077  18.902  11.279   3.811
58010W        W31078  18.406  36.390   3.557
58011W        W31079   8.353  36.333  10.581
58012W        W31080  29.855  18.269   1.378
58013W        W31081  26.346  11.345   2.945
58014W        W31082  37.844  39.876   0.851
58015W        W31083   7.730   9.750  12.403
58016W        W31084  37.100  27.278  10.987
58017W        W31085  40.082  27.363   2.143
58018W        W31086  35.778  39.523   2.317
58019W        W31087  43.228  23.178  12.955
58020W        W31088   5.082   7.295  12.234
58021W        W31089  28.122  18.667  14.035
58022W        W31090   1.015  11.195  11.770
58023W        W31091  41.565  23.460  12.073
58024W        W31092  15.482   0.962   4.969
58025W        W31093  24.109  12.395  10.266
58026W        W31094   0.593  37.705  14.568
58027W        W31095  42.857   8.309  11.149
58028W        W31096  15.030  32.522  12.443
58029W        W31097   5.775  22.022  14.617
58030W        W31098   8.756  11.288   0.744
58031W        W31099  17.124  29.098   4.677
58032W        W31100  23.580  29.612  13.775
58033W        W31101   1.798  13.433  13.455
58034W        W31102  27.594  44.994  10.714
58035W        W31103  25.959  18.397  14.028
58036W        W31104  17.845   0.567  13.608
58037W        W31105  26.404  38.868  11.664
58038W        W31106  44.407   7.955  10.662
58039W        W31107  22.806  11.219  11.685
58040W        W31108   6.972   0.256  11.628
58041W        W31109  36.061  38.986   5.119
58042W        W31110  15.744  26.485  11.117
58043W        W31111   0.861  36.449  11.873
58044W        W31112  39.838   4.295   2.103
58045W        W31113  29.136  18.682   1.890
58046W        W31114  10.607  36.009  13.845
58047W        W31115  40.555  25.292   1.986
58048W        W31116  37.042  12.375  14.099
58049W        W31117  41.033  25.803  14.024
58050W        W31118  37.467   2.247   2.348
58051W        W31119  33.414  38.517   1.267
58052W        W31120   3.271   8.234   1.697
58053W        W31121   8.850  42.480   1.227
58054W        W31122  24.751  23.631   1.454
58055W        W31123  28.281  10.115  13.930
58056W        W31124  27.161  27.787  11.707
58057W        W31125  22.932  14.019   1.718
58058W        W31126  25.953   9.335  11.467
58059W        W31127  20.649  20.262   0.512
58060W        W31128  32.142  14.449  13.043
58061W        W31129   1.429  42.237  11.003
58062W        W31130   6.032  43.843   1.844
58063W        W31131  34.203  14.201   2.778
58064W        W31132  29.400  18.006  12.078
58065W        W31133  15.295  31.067   3.996
58066W        W31134  27.586   2.446  13.363
58067W        W31135  15.861  39.444   4.603
58068W        W31136  22.752  38.823  12.067
58069W        W31137  13.984  41.970   1.804
58070W        W31138  27.166   7.442  10.946
58071W        W31139   6.473  26.719   1.800
58072W        W31140  42.857  26.675  10.868
58073W        W31141  11.473  34.352   2.940
58074W        W31142  23.581   8.821   3.080
58075W        W31143  42.908  20.055  14.962
58076W        W31144  30.653  19.327  11.532
58077W        W31145  37.064  14.771   4.610
58078W        W31146  33.440  36.484   4.064
58079W        W31147  25.696  31.210   3.209
58080W        W31148   9.817  14.877   4.234
58081W        W31149  26.856  13.120  12.351
58082W        W31150   2.918  38.927   1.940
58083W        W31151  10.177  36.118  14.500
58084W        W31152  34.865   4.829   2.394
58085W        W31153  22.095  27.880  11.053
58086W        W31154   6.368  14.243  11.607
58087W        W31155  40.387  12.299   3.760
58088W        W31156  17.283  11.949  13.343
58089W        W31157   1.895  31.656  12.584
58090W        W31158  41.604   1.258   0.887
58091W        W31159  12.706  25.255  10.519
58092W        W31160  34.939  29.952   3.745
58093W        W31161   2.357  35.499   1.368
58094W        W31162  32.819  36.961  14.919
58095W        W31163  32.292  28.913   2.199
58096W        W31164  14.376  19.611   4.233
58097W        W31165  20.789  39.523   3.546
58098W        W31166  42.377  44.445  14.800
58099W        W31167  31.283  21.456   5.111
58100W        W31168  17.092   8.837  14.794
58101W        W31169   0.796  25.987  14.561
58102W        W31170  30.067  25.178   0.287
58103W        W31171  25.400  41.469  14.958
58104W        W31172  21.895   9.013  13.064
58105W        W31173  37.528  42.604  10.724
58106W        W31174  16.947  32.440  13.787
58107W        W31175  25.945   0.004  10.808
58108W        W31176  20.099  16.012   1.813
58109W        W31177  19.381   8.810  10.711
58110W        W31178  19.056  43.945   1.516
58111W        W31179   3.366  42.266   4.550
58112W        W31180   3.394  25.948  13.940
58113W        W31181  20.242  35.549  10.663
58114W        W31182   5.140   7.240   1.246
58115W        W31183  34.224  12.049  11.061
58116W        W31184   4.029   6.349   2.196
58117W        W31185  34.118  11.042   2.274
58118W        W31186  16.304   3.541   0.875
58119W        W31187   2.010   6.320   2.253
58120W        W31188  37.904  21.711  10.679
58121W        W31189  16.123  21.642   4.555
58122W        W31190   4.498  28.478  11.680
58123W        W31191  41.519  31.021   2.157
58124W        W31192  24.060  11.698  13.998
58125W        W31193  25.211  44.716  14.526
58126W        W31194  18.584  34.681   2.119
58127W        W31195  18.490  12.212   0.674
58128W        W31196  11.484  20.466  14.368
58129W        W31197  39.195   1.211   1.790
58130W        W31198  20.572   5.273   3.839
58131W        W31199  40.549   1.944  12.141
58132W        W31200   2.387   6.823  14.839
58133W        W31201   4.533  13.141  12.696
58134W        W31202  19.239  21.040   4.584
58135W        W31203  27.664   4.366   4.584
58136W        W31204  31.126   0.007  13.434
58137W        W31205  37.904  11.760   4.842
58138W        W31206   2.187  36.438  14.963
58139W        W31207  22.245  34.864   2.089
58140W        W31208   9.115  37.535   3.192
58141W        W31209  23.131   9.383   1.348
58142W        W31210   4.322  30.724   3.824
58143W        W31211  30.609   6.445  11.159
58144W        W31212  35.291  25.162   4.150
58145W        W31213  26.489   2.206  10.723
58146W        W31214  31.372  27.677   0.843
58147W        W31215  21.378  42.901  10.193
58148W        W31216  25.450  34.486  11.382
58149W        W31217  24.021  11.560  13.069
58150W        W31218  27.116  32.884   1.202
58151W        W31219  37.879   9.747  14.437
58152W        W31220  26.701   5.210   1.779
58153W        W31221  44.076  35.868  14.854
58154W        W31222  32.529   8.749   0.814
58155W        W31223   6.688  29.098  13.347
58156W        W31224  16.321  30.549  13.087
58157W        W31225   3.917   5.979   4.071
58158W        W31226  31.035  32.872   3.298
58159W        W31227  40.527  39.524   1.329
58160W        W31228  34.376   2.642   0.366
58161W        W31229  19.675  33.191  12.622
58162W        W31230  22.028  35.088  14.697
58163W        W31231  40.436   7.082   5.144
58164W        W31232  19.545   6.801  14.908
58165W        W31233  12.131  29.463   3.179
58166W        W31234  30.566  17.473   1.725
58167W        W31235  30.088   0.038   2.432
58168W        W31236  35.939  23.049   4.248
58169W        W31237   2.301  13.818  13.943
58170W        W31238   1.194  18.520   2.352
58171W        W31239  11.130  18.334   4.007
58172W        W31240   1.343  37.104   2.680
58173W        W31241  37.093  22.346   0.153
58174W        W31242  14.748  20.301   2.019
58175W        W31243  14.583  31.042  10.405
58176W        W31244  36.198  43.769   4.699
58177W        W31245   4.422  30.443   3.391
58178W        W31246  44.999  32.704   0.348
58179W        W31247  44.487   7.638   0.958
58180W        W31248   7.137  40.383  11.402
58181W        W31249  25.008   8.910  11.977
58182W        W31250  36.937  30.402  13.543
58183W        W31251   5.423  33.120   0.775
58184W        W31252  19.277  17.233   3.685
58185W        W31253  19.305  21.035   2.749
58186W        W31254  12.970  43.032   1.937
58187W        W31255  25.786  25.429   0.805
58188W        W31256  23.054  43.377  14.575
58189W        W31257  25.233   4.613  10.911
58190W        W31258  13.956   2.298   1.850
58191W        W31259  39.783  41.804  13.421
58192W        W31260  12.224   3.727   1.815
58193W        W31261  30.110  27.582   2.826
58194W        W31262  18.565  44.225   0.196
58195W        W31263  16.304  29.342   3.128
58196W        W31264  44.839   4.974  13.397
58197W        W31265  37.479  10.147   3.713
58198W        W31266  38.419   2.284   4.462
58199W        W31267  37.535  18.273   4.113
58200W        W31268  30.303  24.599  13.847
58201W        W31269  29.807  32.077  14.328
58202W        W31270  25.157  19.802  14.961
58203W        W31271  35.049  20.007   2.780
58204W        W31272  37.459  38.924  12.864
58205W        W31273  23.541  25.178   3.662
58206W        W31274  19.587  33.110   4.484
58207W        W31275  14.773  26.641  13.919
58208W        W31276   0.949  26.532  11.352
58209W        W31277  44.635   9.281   9.886
58210W        W31278  30.082   4.911  11.635
58211W        W31279   8.267  42.402   5.092
58212W        W31280  13.880   3.735  13.005
58213W        W31281  31.928   3.411  14.244
58214W        W31282   2.739   7.476   4.383
58215W        W31283  44.204  33.974  13.895
58216W        W31284  29.634  39.069   4.672
58217W        W31285  12.553  28.226   0.922
58218W        W31286  41.809  34.471  14.289
58219W        W31287  30.817  41.916  12.661
58220W        W31288  21.993  20.572   3.946
58221W        W31289  22.662  28.015   4.658
58222W        W31290   5.834  17.183   2.426
58223W        W31291  22.151  42.334  14.689
58224W        W31292   5.237  17.497   2.312
58225W        W31293  16.545   4.318  13.683
58226W        W31294  35.805   8.042   4.934
58227W        W31295   2.522  34.997   1.406
58228W        W31296  24.061   1.323   0.026
58229W        W31297  35.962  15.103  14.847
58230W        W31298  39.492  30.517  13.363
58231W        W31299  10.305  16.734   5.145
58232W        W31300  28.584  20.121  13.067
58233W        W31301  16.145  38.028   0.190
58234W        W31302  43.780  44.242   4.323
58235W        W31303  24.719  11.074  12.013
58236W        W31304  20.659  29.435   3.399
58237W        W31305  15.561   0.399   0.979
58238W        W31306  29.703  37.586   2.341
58239W        W31307   6.248  22.041  11.642
58240W        W31308  10.364  22.266  12.940
58241W        W31309  40.494  12.871   3.067
58242W        W31310  19.053  22.047   3.426
58243W        W31311  14.889  34.929   4.666
58244W        W31312   9.383   0.693   3.844
58245W        W31313  12.888  36.401  12.519
58246W        W31314  21.942   5.308  12.866
58247W        W31315  34.384  13.332   0.748
58248W        W31316  22.728  12.684  11.253
58249W        W31317  43.685  13.210  14.285
58250W        W31318   5.622  34.578  12.047
58251W        W31319  25.500  26.685  13.796
58252W        W31320  11.862  17.116  14.546
58253W        W31321  17.709  42.960   3.201
58254W        W31322  26.393  23.346   0.738
58255W        W31323  33.207  23.568  11.934
58256W        W31324  41.814  35.897  13.889
58257W        W31325  22.523  38.311   1.293
58258W        W31326   4.930  35.197  13.188
58259W        W31327  43.914  30.903   1.421
58260W        W31328  17.053   9.380   4.576
58261W        W31329  43.004  16.187  14.363
58262W        W31330   7.784  30.434  12.503
58263W        W31331  29.464  26.546  14.346
58264W        W31332   0.636  26.032  11.667
58265W        W31333  35.982  28.419  11.999
58266W        W31334  27.665  18.404   1.665
58267W        W31335  24.968  18.680   3.598
58268W        W31336  23.949  40.518   5.086
58269W        W31337  38.627  31.547   4.945
58270W        W31338  32.434   4.422   4.216
58271W        W31339  17.277   5.242  14.535
58272W        W31340  11.047   8.393  10.529
58273W        W31341  35.745  23.028   2.867
58274W        W31342  18.171  17.756   2.322
58275W        W31343  38.403   6.816  12.396
58276W        W31344  14.786  36.339  13.919
58277W        W31345  26.400  16.756   0.331
58278W        W31346   6.567  23.481   0.650
58279W        W31347  34.359  15.566  12.602
58280W        W31348  22.471  11.567   3.252
58281W        W31349  22.262  18.031   1.826
58282W        W31350  38.061  35.779   3.768
58283W        W31351  18.697  16.483   2.626
58284W        W31352  33.134  34.463   1.934
58285W        W31353  32.694  35.209  12.820
58286W        W31354  23.633  25.690  13.372
58287W        W31355  12.978  24.370  10.998
58288W        W31356   2.435  36.041   3.143
58289W        W31357  43.846  42.884  12.363
58290W        W31358  20.676   3.258  11.016
58291W        W31359  33.618  33.960   2.661
58292W        W31360  16.745  44.107   4.609
58293W        W31361  38.970  20.230   1.734
58294W        W31362  35.172  14.043  13.452
58295W        W31363  39.879  24.924   3.404
58296W        W31364   9.978  39.855   2.650
58297W        W31365   6.181   2.249   3.248
58298W        W31366   9.930  29.068  13.984
58299W        W31367  36.409  26.499   3.728
58300W        W31368  33.874  38.080  13.342
58301W        W31369   4.524  40.487   0.036
58302W        W31370  41.899  13.432  13.712
58303W        W31371   0.747  30.313  10.401
58304W        W31372   8.724  38.590  14.833
58305W        W31373  19.223  19.161  11.669
58306W        W31374  33.112  39.567   3.258
58307W        W31375   5.840   9.634   1.821
58308W        W31376  35.125   2.148  11.525
58309W        W31377  39.275  38.444   0.039
58310W        W31378  18.266  23.678  14.760
58311W        W31379  27.103  18.715   4.281
58312W        W31380  11.683  23.259  13.002
58313W        W31381   7.565   4.815   3.085
58314W        W31382  13.329  40.738  13.954
58315W        W31383  16.269  11.309  10.618
58316W        W31384  21.765  17.199   0.299
58317W        W31385  34.432  17.282  11.098
58318W        W31386  14.685  34.498  13.697
58319W        W31387  29.149  38.788   2.208
58320W        W31388  30.059  36.596  13.060
58321W        W31389  13.593   7.620   3.940
58322W        W31390  44.400  10.628  11.988
58323W        W31391   1.969  38.474  14.857
58324W        W31392  16.842   7.246  11.229
58325W        W31393  34.453  40.305   2.854
58326W        W31394  29.951  35.049   0.845
58327W        W31395  42.262   4.492  10.935
58328W        W31396  17.416  14.678   2.419
58329W        W31397  11.363  15.356  13.377
58330W        W31398   1.494  17.083   2.259
58331W        W31399  12.459  36.838   1.951
58332W        W31400  34.062   0.793  12.881
58333W        W31401  18.016  34.874  13.880
58334W        W31402  36.946  13.548  12.472
58335W        W31403   9.903  16.716  10.656
58336W        W31404  24.840  31.229  12.611
58337W        W31405  20.128  17.707  13.079
58338W        W31406  43.785   6.759  14.814
58339W        W31407  21.803  18.462   0.484
58340W        W31408  29.914   9.059   4.694
58341W        W31409   9.729  41.809  12.144
58342W        W31410  32.656   5.889   3.845
58343W        W31411  23.076   9.924  13.266
58344W        W31412  32.374  20.477   4.801
58345W        W31413  20.214  40.642  10.426
58346W        W31414  13.372  35.481  12.508
58347W        W31415  40.465  33.316   4.660
58348W        W31416  31.553  12.249   1.925
58349W        W31417  26.292  20.033  14.402
58350W        W31418  23.153  33.046   4.321
58351W        W31419  28.920  15.030  13.074
58352W        W31420   8.652  33.017   2.687
58353W        W31421  23.978  12.023   4.664
58354W        W31422   1.968  23.176   1.799
58355W        W31423  27.513  28.446   1.098
58356W        W31424   3.668  30.364   2.264
58357W        W31425   5.593  41.276   4.528
58358W        W31426   8.414  34.039   2.935
58359W        W31427  30.720   3.808  11.542
58360W        W31428  39.286   9.016  10.606
58361W        W31429  34.418  16.083   3.704
58362W        W31430  11.418  43.490   4.098
58363W        W31431  25.489  30.976   2.187
58364W        W31432  21.249   0.485  11.928
58365W        W31433  19.509  32.962   1.375
58366W        W31434  13.331  14.863  11.537
58367W        W31435  27.229   1.434  11.431
58368W        W31436  42.541  16.296   0.292
58369W        W31437  40.934  12.912   4.818
58370W        W31438  37.052  21.180   2.685
58371W        W31439  10.058  36.402   1.748
58372W        W31440  13.812  27.741  12.429
58373W        W31441  41.915  44.463  14.577
58374W        W31442  36.069   3.332   1.274
58375W        W31443  44.494  14.523  10.900
58376W        W31444  27.061  39.362   2.364
58377W        W31445  33.531  29.954   0.301
58378W        W31446   2.271  34.299   3.151
58379W        W31447  44.914   7.194  12.384
58380W        W31448   2.729  19.411   2.698
58381W        W31449   1.628   4.329  13.612
58382W        W31450   5.117  14.476   4.022
58383W        W31451  35.201  29.120  10.749
58384W        W31452  11.253  15.308   3.279
58385W        W31453  26.454  12.259  10.114
58386W        W31454  19.785  36.523   3.426
58387W        W31455  39.779  29.207   2.100
58388W        W31456  15.564  39.964   2.263
58389W        W31457  25.686  17.741  10.702
58390W        W31458  39.454  41.332   0.964
58391W        W31459  25.535   7.397   0.439
58392W        W31460  37.582   8.438   4.190
58393W        W31461  21.618   3.737   2.271
58394W        W31462  26.038  21.243  12.354
58395W        W31463  30.646  36.186   1.962
58396W        W31464  30.660  22.542   1.375
58397W        W31465   6.138  31.012   4.904
58398W        W31466  25.126  21.111  13.340
58399W        W31467  14.048   8.860  13.529
58400W        W31468  19.530  24.779  13.420
58401W        W31469  17.696  32.619  14.315
58402W        W31470  14.597  11.830  12.137
58403W        W31471  19.543  13.512   0.897
58404W        W31472  10.764   7.169   0.439
58405W        W31473  36.522  23.950   0.508
58406W        W31474   2.503   8.469  11.727
58407W        W31475  31.244  34.084  11.293
58408W        W31476  35.108  33.418   4.162
58409W        W31477  28.525   6.412   0.297
58410W        W31478  34.843  17.632   2.264
58411W        W31479   9.459   4.774   0.447
58412W        W31480  26.065  28.215  11.157
58413W        W31481  44.328  43.855   3.634
58414W        W31482  31.048  13.967  13.311
58415W        W31483   1.221  27.356   3.727
58416W        W31484   7.673   7.660  11.580
58417W        W31485  15.568   6.738  14.752
58418W        W31486  33.437  39.534   3.722
58419W        W31487  41.520   5.572  13.730
58420W        W31488   0.963  32.179  12.079
58421W        W31489  15.340  14.196  14.722
58422W        W31490  13.223  43.848   2.287
58423W        W31491  30.665  38.546  12.579
58424W        W31492   1.948  18.299   1.719
58425W        W31493  26.661  28.160  12.505
58426W        W31494  30.256  30.135   4.143
58427W        W31495   4.309  25.034  11.293
58428W        W31496   4.929  39.282  10.726
58429W        W31497  22.011  38.431   0.421
58430W        W31498  40.555  22.704   3.624
58431W        W31499  29.409  33.479   1.360
58432W        W31500  17.854  26.036   2.253
58433W        W31501  31.563  18.054   3.156
58434W        W31502   5.296  38.925  10.698
58435W        W31503  24.703   0.087   1.745
58436W        W31504  14.877   3.890  10.678
58437W        W31505  10.979  21.233  14.932
58438W        W31506   8.265  28.508  11.434
58439W        W31507  39.343  34.399   0.974
58440W        W31508   9.137  28.119   4.612
58441W        W31509  28.401  22.214   1.295
58442W        W31510  27.113  27.138  14.463
58443W        W31511  36.927   8.915  10.593
58444W        W31512  28.987  32.067   3.056
58445W        W31513   6.772  25.614   4.525
58446W        W31514  24.143  36.980   1.780
58447W        W31515   1.486  13.662   1.047
58448W        W31516  35.493  11.396  13.811
58449W        W31517  12.208   2.542   2.247
58450W        W31518  40.833  32.707  14.905
58451W        W31519  36.532  23.401   5.360
58452W        W31520  34.066  14.669   2.653
58453W        W31521  41.747   6.763   2.162
58454W        W31522  14.310   9.949  12.843
58455W        W31523  27.121  39.866  13.854
58456W        W31524   7.980  40.487  12.043
58457W        W31525  22.191  35.039   3.716
58458W        W31526  16.972  13.490  11.144
58459W        W31527   7.776  39.188  11.172
58460W        W31528  42.431  31.228  10.976
58461W        W31529  14.301  33.562  13.392
58462W        W31530  11.916  11.335  10.251
58463W        W31531  30.449  19.163  14.447
58464W        W31532  25.487  40.558  11.441
58465W        W31533  13.347  39.036   2.736
58466W        W31534   8.374  26.406   4.150
58467W        W31535  12.370  20.632  13.952
58468W        W31536  28.302  32.715   2.756
58469W        W31537  22.962  35.545   3.778
58470W        W31538  31.599  36.780   1.727
58471W        W31539  19.024  23.108  10.730
58472W        W31540   8.324   9.959   2.342
58473W        W31541   7.816  16.768  10.833
58474W        W31542  12.793   0.743   2.003
58475W        W31543  36.526  11.776   4.220
58476W        W31544  15.600  21.264   2.387
58477W        W31545   8.426   8.288   4.901
58478W        W31546  13.158  18.468   0.766
58479W        W31547  25.929   1.781   3.394
58480W        W31548  26.496  20.786   0.541
58481W        W31549   7.896   7.735  12.064
58482W        W31550  33.557  37.956   1.591
58483W        W31551  28.569  10.682   0.772
58484W        W31552  38.698  23.785   3.655
58485W        W31553  20.483  12.774   2.317
58486W        W31554  34.627  23.915   4.586
58487W        W31555  19.123  20.155   3.635
58488W        W31556   7.119  11.219   4.067
58489W        W31557  39.072  15.811  14.736
58490W        W31558  35.927  31.064  13.454
58491W        W31559  28.576  44.345   4.720
58492W        W31560  29.130  17.542  13.391
58493W        W31561  35.120  41.914  12.497
58494W        W31562  23.137  37.448  10.981
58495W        W31563   3.001   5.252   1.283
58496W        W31564  15.502  41.431  10.296
58497W        W31565  27.231   1.602   3.005
58498W        W31566  13.675   6.833  13.021
58499W        W31567  32.396  32.429  13.126
58500W        W31568  42.554   6.453   3.218
58501W        W31569  24.577  15.642  10.693
58502W        W31570  12.106  39.982   0.236
58503W        W31571  20.027  29.250   1.187
58504W        W31572  16.542  28.122  13.241
58505W        W31573  36.351  40.401  10.979
58506W        W31574  16.662  38.774   2.432
58507W        W31575   0.056  15.270  10.532
58508W        W31576  11.507  35.624   1.693
58509W        W31577  27.586  17.535   1.407
58510W        W31578  21.858  16.124  12.412
58511W        W31579  31.479  39.999   2.708
58512W        W31580   2.170   8.721  11.434
58513W        W31581  19.023  13.327   4.288
58514W        W31582  17.113  25.912  12.274
58515W        W31583   5.976  19.512  14.036
58516W        W31584   0.941  20.619  10.799
58517W        W31585  21.541   4.373  11.937
58518W        W31586   3.366  31.966   0.524
58519W        W31587  32.952  39.514   4.732
58520W        W31588  32.630  40.871  14.005
58521W        W31589  39.016  35.981   0.348
58522W        W31590  29.087  18.060   4.397
58523W        W31591  32.489   5.952  11.601
58524W        W31592  13.181   9.322  13.806
58525W        W31593   2.437  42.325   4.925
58526W        W31594  22.796  42.456  14.500
58527W        W31595  43.717  27.489  12.648
58528W        W31596   3.242  11.662   2.887
58529W        W31597   4.920  36.566   1.647
58530W        W31598  43.878  26.203  14.532
58531W        W31599  35.037  32.403   1.156
58532W        W31600  22.053  16.329  12.853
58533W        W31601  19.307  25.668   1.676
58534W        W31602  29.600   3.283  13.427
58535W        W31603  10.271  27.941   0.978
58536W        W31604   8.234  28.181   4.264
58537W        W31605  17.990  20.630  12.076
58538W        W31606  10.828   2.618  12.701
58539W        W31607   8.493   4.293   2.416
58540W        W31608  40.508  18.538  11.450
58541W        W31609  17.369   1.401   0.414
58542W        W31610  34.948  32.673   4.538
58543W        W31611  11.100  18.284  14.968
58544W        W31612   8.469  39.004   1.760
58545W        W31613  18.001  40.783  11.798
58546W        W31614  30.607  33.511   2.389
58547W        W31615  31.216  35.857   1.448
58548W        W31616   1.673  36.792   1.393
58549W        W31617  36.559  24.606  12.513
58550W        W31618  37.907   6.940   3.702
58551W        W31619  30.474  16.778   4.385
58552W        W31620   8.148  23.069   0.331
58553W        W31621  32.408  24.614   0.287
58554W        W31622  28.712  20.640  11.902
58555W        W31623  20.558  25.038   2.693
58556W        W31624  40.950   7.196  10.200
58557W        W31625  27.607  24.657   2.744
58558W        W31626  30.370  17.106  11.609
58559W        W31627  39.041  44.776  12.465
58560W        W31628  25.542  29.895   1.284
58561W        W31629  44.699  43.358   0.752
58562W        W31630  30.948  43.503   1.897
58563W        W31631  42.789   2.332   4.074
58564W        W31632   8.805   4.056  13.725
58565W        W31633  39.942   0.476  13.444
58566W        W31634  25.488  12.432   0.733
58567W        W31635  18.281  33.532  11.693
58568W        W31636  42.662  25.226  14.494
58569W        W31637  10.631  38.103  12.872
58570W        W31638  38.023  38.524   0.441
58571W        W31639  13.072  15.116   1.436
58572W        W31640  32.548  34.455   0.212
58573W        W31641  17.637  14.640  13.016
58574W        W31642  44.468   9.209  14.418
58575W        W31643  25.595  23.168   4.553
58576W        W31644  33.889  29.108  11.043
58577W        W31645  27.564  18.235  14.838
58578W        W31646  31.070  25.166  12.320
58579W        W31647  33.835   4.427  13.473
58580W        W31648  11.142  19.535   3.734
58581W        W31649   0.703  23.060   0.989
58582W        W31650  42.383   3.952   3.777
58583W        W31651  18.221  18.157  11.612
58584W        W31652  11.737  16.941   2.418
58585W        W31653  43.778   8.667  11.381
58586W        W31654  17.070   4.251   2.083
58587W        W31655  13.706   6.711  11.590
58588W        W31656   9.691  38.321  14.991
58589W        W31657  20.502   2.546  13.399
58590W        W31658  20.744   4.856   4.602
58591W        W31659   6.019  42.987   0.680
58592W        W31660  16.756  42.947  12.113
58593W        W31661  40.764  43.418  12.017
58594W        W31662  30.103  44.797   0.283
58595W        W31663  29.969   8.809  12.892
58596W        W31664  34.671  17.187  14.447
58597W        W31665  40.910  28.581   3.919
58598W        W31666   5.311  31.975  12.573
58599W        W31667  33.469  36.428  12.818
58600W        W31668  17.415  28.541   2.855
58601W        W31669  43.978  41.782  14.341
58602W        W31670   1.374  29.439  13.910
58603W        W31671  22.095   7.966  14.929
58604W        W31672  15.366  27.263  12.820
58605W        W31673   1.807  13.881   4.720
58606W        W31674   9.400  21.486   4.593
58607W        W31675  34.786  40.754  11.861
58608W        W31676   7.265  39.976  11.704
58609W        W31677   9.310  31.570  11.187
58610W        W31678   2.763  34.148   3.949
58611W        W31679   0.945   0.336   4.103
58612W        W31680   1.539  28.649   0.895
58613W        W31681  40.315  31.576  12.127
58614W        W31682  39.380  18.845   4.113
58615W        W31683  20.662  39.183   4.639
58616W        W31684  11.921  15.869  12.427
58617W        W31685  41.538  23.849   5.096
58618W        W31686  19.951  16.979  10.715
58619W        W31687   3.977  10.338   4.549
58620W        W31688  40.658  38.832   2.219
58621W        W31689  36.431   6.430  10.667
58622W        W31690  30.343  32.570  11.631
58623W        W31691  28.244  25.280   0.869
58624W        W31692  41.504  27.816  14.005
58625W        W31693  23.944  37.893   1.147
58626W        W31694  14.382  16.276   3.424
58627W        W31695  44.360   5.842  12.247
58628W        W31696  24.706  20.935  11.115
58629W        W31697  13.359  28.955   3.302
58630W        W31698  37.138  42.985  12.026
58631W        W31699  40.018  10.597  12.954
58632W        W31700  38.068  13.151  13.582
58633W        W31701   4.009  14.102  11.551
58634W        W31702   2.392  23.199  14.833
58635W        W31703  21.126   0.427   4.221
58636W        W31704   7.921  16.220   1.153
58637W        W31705  43.320  10.521  13.427
58638W        W31706  32.938  11.486  10.331
58639W        W31707  39.410  20.537   2.653
58640W        W31708  28.964  12.792  11.548
58641W        W31709  42.740  11.129  13.867
58642W        W31710  26.995  27.389  12.024
58643W        W31711  29.015  12.647   2.674
58644W        W31712  38.575  40.293   0.845
58645W        W31713  39.386  42.445   2.018
58646W        W31714  14.522   9.785   1.474
58647W        W31715  15.047  38.963   1.659
58648W        W31716  24.941  27.864   4.064
58649W        W31717   8.232  43.705   4.756
58650W        W31718  39.086   7.916  14.865
58651W        W31719   7.796  35.490  12.444
58652W        W31720  33.473  19.187   0.539
58653W        W31721  32.935  42.296   1.214
58654W        W31722  26.399   1.865  14.949
58655W        W31723  21.518   8.681   1.271
58656W        W31724  41.463  12.003  12.991
58657W        W31725  16.956  37.592  13.887
58658W        W31726  22.727   8.951   0.503
58659W        W31727  31.159  14.741   4.697
58660W        W31728  42.307   4.337   0.837
58661W        W31729  38.348   6.372  14.860
58662W        W31730   8.805  21.939  11.912
58663W        W31731  36.955  16.359  14.299
58664W        W31732  31.285  42.951  11.696
58665W        W31733  10.791  14.079  12.924
58666W        W31734  38.993  36.898  11.525
58667W        W31735  18.290  33.026  11.027
58668W        W31736  13.288  12.805  12.512
58669W        W31737  17.321  38.508   3.709
58670W        W31738  23.459  37.061  11.205
58671W        W31739  44.416  27.330   1.126
58672W        W31740   8.381   3.788   2.365
58673W        W31741  21.236   2.764  10.037
58674W        W31742  29.004  29.996   0.766
58675W        W31743  25.105   0.475   4.757
58676W        W31744  36.765  29.916  14.307
58677W        W31745  34.906   1.256  12.935
58678W        W31746   3.797  42.035  10.830
58679W        W31747   2.134  21.589  13.594
58680W        W31748  30.552  41.293  14.806
58681W        W31749  31.278   8.145   3.042
58682W        W31750  34.619  44.702  11.133
58683W        W31751  35.067  37.367   0.812
58684W        W31752  35.953  39.824   3.661
58685W        W31753  38.263  39.091   3.128
58686W        W31754  41.226  29.851  11.235
58687W        W31755  27.498  21.635  11.332
58688W        W31756  38.090  25.035   0.803
58689W        W31757   5.880  20.106  14.344
58690W        W31758  12.697   7.674   3.401
58691W        W31759  33.082  29.530   3.173
58692W        W31760  42.299  26.736   4.333
58693W        W31761   2.476  16.621   3.571
58694W        W31762  42.003  12.838   3.613
58695W        W31763  21.251  26.970  14.940
58696W        W31764   3.660  13.796   1.987
58697W        W31765  20.489  15.696  14.458
58698W        W31766  22.440   5.268  13.865
58699W        W31767  25.020  12.156   0.733
58700W        W31768  43.429  22.024   2.756
58701W        W31769  21.264   6.639  10.477
58702W        W31770  42.425   7.249  13.043
58703W        W31771  31.208  20.221   2.251
58704W        W31772  38.512  33.809   1.713
58705W        W31773  27.050   6.522  11.637
58706W        W31774   2.004  10.329  10.741
58707W        W31775  21.428  28.623  13.313
58708W        W31776  13.055   7.289  14.922
58709W        W31777  28.620  19.675  11.285
58710W        W31778  26.124  44.786  14.859
58711W        W31779  40.560   9.627   2.978
58712W        W31780   8.670  38.974  12.553
58713W        W31781  15.555   0.400  14.800
58714W        W31782   4.445  16.869   0.409
58715W        W31783  33.556   8.787  14.444
58716W        W31784  41.777   9.574   1.877
58717W        W31785  16.306  22.531   4.614
58718W        W31786  25.414  17.171  13.531
58719W        W31787  17.172  24.208  14.522
58720W        W31788   6.241  19.548   0.301
58721W        W31789   4.330  22.530   1.104
58722W        W31790  15.260  10.327  14.536
58723W        W31791  28.156  19.597  10.425
58724W        W31792  17.640  25.973   1.330
58725W        W31793  21.593  10.010  12.109
58726W        W31794  37.907  22.008   2.375
58727W        W31795   3.745  41.088  13.914
58728W        W31796  43.703   1.914   1.270
58729W        W31797  41.845  26.717   2.425
58730W        W31798  44.838  20.700   3.287
58731W        W31799   5.437   3.964  12.375
58732W        W31800   3.311  20.231  11.401
58733W        W31801  16.800  25.354  12.414
58734W        W31802  40.501  43.854   3.308
58735W        W31803  18.756   5.620   4.079
58736W        W31804  19.175  18.590  13.533
58737W        W31805  10.545   8.266  13.454
58738W        W31806  14.170  39.758   0.534
58739W        W31807  36.482   1.338   0.352
58740W        W31808  10.220  25.604   0.663
58741W        W31809  37.545  16.518   1.884
58742W        W31810  44.814  28.870   1.148
58743W        W31811   9.324  41.441   4.107
58744W        W31812  37.580  20.564   0.269
58745W        W31813  34.848  13.645  13.408
58746W        W31814  20.266  23.149  10.995
58747W        W31815   3.843   6.914  12.631
58748W        W31816  38.421  29.836   1.034
58749W        W31817  23.298  40.533   2.575
58750W        W31818  18.809  41.218   2.154
58751W        W31819  36.963  33.120   1.860
58752W        W31820   1.804  44.307  10.678
58753W        W31821   2.195  32.603  12.763
58754W        W31822  15.668  23.991   1.312
58755W        W31823  40.872  40.876  13.982
58756W        W31824  40.028  40.287  13.463
58757W        W31825  34.118  20.360  11.011
58758W        W31826   6.758   7.700   4.128
58759W        W31827   6.416  12.350   3.788
58760W        W31828  20.567  36.091   3.530
58761W        W31829  44.232  11.708  14.332
58762W        W31830  22.793  33.158   3.857
58763W        W31831  14.095  23.744   3.589
58764W        W31832  26.006  40.529   5.123
58765W        W31833  19.608  23.736   4.239
58766W        W31834  37.643  28.006   2.300
58767W        W31835   0.523  37.453  11.392
58768W        W31836  39.479  14.303   0.404
58769W        W31837  25.654  44.997  13.933
58770W        W31838   5.463  29.229  12.056
58771W        W31839  21.279  33.026  11.341
58772W        W31840  43.992  26.109  12.684
58773W        W31841  31.071   1.396  12.372
58774W        W31842  28.671  14.480   0.338
58775W        W31843  31.206   6.471  14.863
58776W        W31844  43.117   6.748   1.653
58777W        W31845  11.586  15.049  10.292
58778W        W31846   9.331  28.667  14.916
58779W        W31847   2.779  20.646   1.380
58780W        W31848  13.047  44.877   1.406
58781W        W31849  17.780  41.972  11.239
58782W        W31850  26.199  37.368  11.469
58783W        W31851   6.733   6.796  14.472
58784W        W31852  14.474   9.262  13.387
58785W        W31853  24.613  20.334  12.115
58786W        W31854  37.426   2.709  13.823
58787W        W31855  29.953  28.237   3.348
58788W        W31856  28.151  16.764   3.668
58789W        W31857  20.750  14.117  12.189
58790W        W31858  34.984  26.005   4.839
58791W        W31859  37.459   3.655  11.447
58792W        W31860   2.805  20.019  12.290
58793W        W31861   7.905   9.167   5.142
58794W        W31862   2.327  10.343   2.118
58795W        W31863  13.308  14.088   2.282
58796W        W31864  29.219   8.365   0.251
58797W        W31865  25.399   7.686  10.719
58798W        W31866   1.431  34.389  11.643
58799W        W31867  18.898  15.898   1.474
58800W        W31868  13.657  15.186   4.428
58801W        W31869  34.580   5.278   4.511
58802W        W31870  28.985  12.069   2.678
58803W        W31871   4.199  23.597   0.916
58804W        W31872  19.302  29.737  13.396
58805W        W31873  35.371  39.988  13.806
58806W        W31874  39.273   1.414  11.088
58807W        W31875  10.207  24.770   3.262
58808W        W31876  32.550  14.692   2.905
58809W        W31877  23.476   0.171  11.618
58810W        W31878  26.220  34.823   2.849
58811W        W31879  39.586   8.271   1.215
58812W        W31880  32.390  33.106  12.572
58813W        W31881  13.548  25.370   3.735
58814W        W31882  13.784  12.815   2.262
58815W        W31883  34.565  14.984  14.897
58816W        W31884  17.164  34.544   2.186
58817W        W31885   0.258  13.791   2.298
58818W        W31886  41.211  41.273  13.965
58819W        W31887  24.119  32.863   0.825
58820W        W31888   4.570  17.925   1.793
58821W        W31889  20.938  42.550  14.246
58822W        W31890  21.337  14.076   5.322
58823W        W31891   3.075  39.976   4.891
58824W        W31892  31.565  28.051   3.200
58825W        W31893  44.436  14.180  13.360
58826W        W31894  18.254  27.517   2.800
58827W        W31895   1.762  21.326  13.892
58828W        W31896  13.991  11.804  10.635
58829W        W31897  38.429   5.196   3.348
58830W        W31898   0.451  37.213   3.636
58831W        W31899   8.204  28.013  11.360
58832W        W31900   3.849  27.291   3.813
58833W        W31901   7.600  25.164   4.636
58834W        W31902  21.600  34.542  13.998
58835W        W31903  40.928  16.042  10.192
58836W        W31904  44.016  16.303   4.664
58837W        W31905  12.799  16.548   1.468
58838W        W31906  30.173  43.030  10.565
58839W        W31907  36.824  41.220  10.801
58840W        W31908   1.203  43.413   2.022
58841W        W31909   5.695   1.389  13.383
58842W        W31910  26.552  18.493  12.233
58843W        W31911   5.426  12.296  11.798
58844W        W31912  42.417  14.329  10.564
58845W        W31913  17.236  19.652   0.679
58846W        W31914  30.235  28.535  10.464
58847W        W31915  33.598  21.083   4.598
58848W        W31916  34.338   4.367  12.576
58849W        W31917  14.598  35.547  11.409
58850W        W31918  10.601  24.701   2.882
58851W        W31919  21.218  40.451  12.872
58852W        W31920  11.917   1.465  12.321
58853W        W31921  15.644   9.188   2.696
58854W        W31922  28.866  11.629  14.721
58855W        W31923   4.854  38.729  13.148
58856W        W31924   0.384  10.052   4.997
58857W        W31925  29.049  40.296   4.134
58858W        W31926  30.230   1.034   3.272
58859W        W31927   0.321   3.785   3.180
58860W        W31928   1.514  24.687  13.763
58861W        W31929  20.059  11.657   1.967
58862W        W31930  27.039  10.222   4.930
58863W        W31931  14.367  39.008  11.220
58864W        W31932  43.269  43.881   3.415
58865W        W31933  20.141  34.044  14.572
58866W        W31934  26.517   7.913   4.473
58867W        W31935  39.157   1.169  14.370
58868W        W31936  19.085  43.394   4.209
58869W        W31937  21.243  15.642   5.047
58870W        W31938  41.085  17.313  14.430
58871W        W31939   2.204  10.787   1.872
58872W        W31940   2.189   1.514  13.318
58873W        W31941   8.664  40.313   3.712
58874W        W31942  23.486  29.020   0.466
58875W        W31943  27.492   1.498  12.866
58876W        W31944  41.791  31.543  12.523
58877W        W31945  36.880  24.182  11.896
58878W        W31946  42.570  25.149   2.726
58879W        W31947   7.755  33.576   4.492
58880W        W31948  10.699  18.145  11.097
58881W        W31949   4.209  20.501   1.728
58882W        W31950   0.635  34.094   3.996
58883W        W31951  18.708  13.713   0.038
58884W        W31952  15.270  14.273  11.903
58885W        W31953  12.390  40.311  14.043
58886W        W31954  40.975  34.801  13.533
58887W        W31955  15.296   7.081   1.673
58888W        W31956  17.756  42.827   2.307
58889W        W31957  34.837  23.152  10.702
58890W        W31958  21.694  17.321   2.138
58891W        W31959   4.870   3.714  10.626
58892W        W31960  40.898  39.885   0.918
58893W        W31961  29.735  37.110  11.681
58894W        W31962  30.245  14.900  11.158
58895W        W31963  27.217  37.559  14.246
58896W        W31964   8.763   9.394   0.931
58897W        W31965   7.666   7.136  13.480
58898W        W31966  36.119  27.476   3.231
58899W        W31967  10.193  37.484  11.969
58900W        W31968   5.466  12.716  13.461
58901W        W31969  27.584  37.091   1.115
58902W        W31970   2.732   9.334   0.440
58903W        W31971  12.552  13.776  10.450
58904W        W31972  19.010  23.947   4.902
58905W        W31973  40.950  36.844  10.553
58906W        W31974  30.845   5.389  13.753
58907W        W31975  14.527   6.309  11.149
58908W        W31976   0.565  27.276  12.400
58909W        W31977   4.234  12.699   4.373
58910W        W31978  44.793   7.429   1.365
58911W        W31979  29.198  23.263   1.553
58912W        W31980   5.175  20.599   0.766
58913W        W31981   2.331  24.405  13.469
58914W        W31982  31.869  18.330  11.058
58915W        W31983  41.071  13.865   9.729
58916W        W31984  32.720   4.330   3.258
58917W        W31985  36.778   1.291   4.894
58918W        W31986  18.885  26.415   1.694
58919W        W31987  28.052  36.423   1.960
58920W        W31988   1.471  23.626   3.725
58921W        W31989  34.006   0.496   2.702
58922W        W31990  31.338  21.973   2.227
58923W        W31991  40.560  44.477  14.015
58924W        W31992   2.216   9.802   1.921
58925W        W31993  12.101  15.527   1.717
58926W        W31994  10.923  19.139   0.344
58927W        W31995  20.098   1.487   3.837
58928W        W31996  21.875  35.828   0.953
58929W        W31997  42.633   8.396  14.750
58930W        W31998  22.420   2.427  11.454
58931W        W31999  23.139   7.964  13.971
58932W        W32000  11.213   3.794  10.560
58933W        W32001  40.371   5.896   0.995
58934W        W32002  27.482   1.988  13.087
58935W        W32003   9.760  32.114  11.447
58936W        W32004  15.218  23.233   1.056
58937W        W32005   7.317  31.825  11.994
58938W        W32006  29.323  14.044  12.051
58939W        W32007  16.833  26.167   4.030
58940W        W32008  34.332   8.029  11.909
58941W        W32009   9.744   0.278   4.253
58942W        W32010  26.091   2.477  13.387
58943W        W32011   7.947   1.927  11.074
58944W        W32012  33.100  25.588  11.224
58945W        W32013  10.122  31.668  12.578
58946W        W32014   9.304   8.795   1.263
58947W        W32015  44.048  30.908   2.308
58948W        W32016  36.560  19.058  11.016
58949W        W32017  35.049  22.186  12.727
58950W        W32018  15.729  35.404  12.836
58951W        W32019  39.285   4.829   0.374
58952W        W32020   8.962  34.279  12.025
58953W        W32021  20.594  36.519  13.360
58954W        W32022  15.254   2.844   0.631
58955W        W32023   8.905  40.469  11.644
58956W        W32024  25.551  28.152  12.433
58957W        W32025  10.557  14.191  10.398
58958W        W32026   6.227  44.721   2.866
58959W        W32027   5.913   8.316   3.175
58960W        W32028  16.792  40.020   4.147
58961W        W32029  25.757  19.514   4.658
58962W        W32030  14.210   6.012  11.457
58963W        W32031   3.509  33.056   1.804
58964W        W32032  10.522  15.303  12.567
58965W        W32033   7.866  19.629  13.669
58966W        W32034  18.594   8.723  12.807
58967W        W32035  38.338   1.496  13.821
58968W        W32036  21.204  38.826   3.667
58969W        W32037  19.166  12.322   2.179
58970W        W32038  38.884  22.229  13.086
58971W        W32039  23.691  12.790   4.077
58972W        W32040   4.487  25.093   4.796
58973W        W32041   2.344  16.774   4.589
58974W        W32042   0.399  19.063   3.246
58975W        W32043  16.617  37.558  11.274
58976W        W32044   7.686  19.861  12.811
58977W        W32045  10.930  26.006   3.637
58978W        W32046  21.231  34.528  14.536
58979W        W32047  40.942   8.644  13.560
58980W        W32048  44.450  23.446  13.521
58981W        W32049  29.215  36.574   2.242
58982W        W32050  33.899  16.000   0.803
58983W        W32051   3.403  36.921  12.998
58984W        W32052  12.161   7.666   1.382
58985W        W32053  38.648   2.805  11.699
58986W        W32054  38.108  32.087   2.800
58987W        W32055  14.882  41.270   1.290
58988W        W32056   4.244  38.760   3.262
58989W        W32057   3.785  43.268  12.958
58990W        W32058  22.787  20.768  13.069
58991W        W32059  23.404  36.407  10.662
58992W        W32060   9.267   0.253   4.999
58993W        W32061   3.462  39.304  13.487
58994W        W32062  18.009  28.604  13.968
58995W        W32063  25.789  28.260   3.386
58996W        W32064  43.350  22.232   1.432
58997W        W32065  39.867   8.322   5.716
58998W        W32066  29.865  44.034   1.757
58999W        W32067  31.236  15.396   4.165
59000W        W32068  40.033  12.854   2.871
59001W        W32069  37.656  18.315  12.575
59002W        W32070  23.526   2.780   1.789
59003W        W32071  40.582  30.061   0.205
59004W        W32072  44.803  27.813   4.627
59005W        W32073  28.747  24.295   2.320
59006W        W32074  31.423  26.559   2.247
59007W        W32075  42.480  40.517  14.814
59008W        W32076  12.054   9.818  12.563
59009W        W32077  18.665  32.027   1.996
59010W        W32078  21.156  12.649  12.103
59011W        W32079  40.561   0.456  14.297
59012W        W32080   1.242  19.995   0.781
59013W        W32081  38.466  20.730   2.832
59014W        W32082   2.509  44.194  10.239
59015W        W32083  13.253  26.474  11.183
59016W        W32084  34.130  25.233   0.450
59017W        W32085  27.680  42.169  10.685
59018W        W32086  21.791  32.997  11.450
59019W        W32087  16.051   0.977   0.423
59020W        W32088  35.794  38.638   0.302
59021W        W32089  33.452  23.211   4.191
59022W        W32090   0.532  42.976   3.482
59023W        W32091  34.056  32.865  14.541
59024W        W32092   5.852  20.007  13.303
59025W        W32093   4.062  38.147  14.448
59026W        W32094   9.805  43.528  11.499
59027W        W32095  36.962  14.734   0.479
59028W        W32096  10.959  15.595  12.458
59029W        W32097  30.586  21.793   1.844
59030W        W32098  41.595  39.348   4.538
59031W        W32099  29.171  29.325  12.913
59032W        W32100  15.657  23.107  12.404
59033W        W32101  18.303  35.081   2.357
59034W        W32102   4.609  20.418  14.977
59035W        W32103  42.329   4.509   0.008
59036W        W32104   5.695   8.186   4.814
59037W        W32105  13.611  33.871  12.624
59038W        W32106  25.909  16.249   3.264
59039W        W32107  26.392  12.404   3.423
59040W        W32108   9.412  37.311  14.476
59041W        W32109   5.225  14.222  12.351
59042W        W32110  44.290   6.048   1.018
59043W        W32111  22.256   9.173   0.379
59044W        W32112  14.619  37.756  11.495
59045W        W32113  44.993   1.280   1.099
59046W        W32114  36.133  17.841  11.581
59047W        W32115   2.732  37.796  14.840
59048W        W32116  33.073   6.212  14.266
59049W        W32117   8.301   3.513   3.057
59050W        W32118   6.765  16.010   2.263
59051W        W32119  35.101  20.555   1.499
59052W        W32120  25.912  44.777   0.856
59053W        W32121   6.677  14.331  12.772
59054W        W32122  32.211  35.142   4.083
59055W        W32123  42.551   5.229   1.230
59056W        W32124  30.068   5.685   4.943
59057W        W32125   6.936   2.953   2.242
59058W        W32126  16.538  44.920  12.490
59059W        W32127  40.206  24.081  11.088
59060W        W32128  25.206  12.914   0.278
59061W        W32129  19.099  38.266  12.055
59062W        W32130  44.975  15.109   4.923
59063W        W32131  39.788  36.958  11.909
59064W        W32132  40.624  40.850   1.089
59065W        W32133  10.080  29.511   0.331
59066W        W32134  33.602  26.652   3.188
59067W        W32135  17.225  16.552   4.201
59068W        W32136  34.297  17.592   1.655
59069W        W32137   0.931  22.386  12.895
59070W        W32138  44.466  26.105  12.418
59071W        W32139  18.032  40.289  13.479
59072W        W32140  18.658  35.087  11.023
59073W        W32141  22.022   2.482   2.355
59074W        W32142  31.984   2.912  13.345
59075W        W32143  40.044  36.852  10.508
59076W        W32144  26.737  28.737  11.648
59077W        W32145  13.233  22.464  12.587
59078W        W32146  41.949  29.464   5.435
59079W        W32147  28.247  40.376  11.478
59080W        W32148  37.822  17.295   3.039
59081W        W32149   5.672   4.835  14.499
59082W        W32150   2.443   3.750   2.610
59083W        W32151   5.364  15.521   3.283
59084W        W32152  32.104   2.508   2.640
59085W        W32153  28.379  14.879   0.881
59086W        W32154  33.385  14.634  13.553
59087W        W32155   3.434  42.423   1.813
59088W        W32156  35.433  19.326   4.967
59089W        W32157  18.209  34.146   0.833
59090W        W32158   9.626  33.930   4.229
59091W        W32159  15.855  10.196   1.375
59092W        W32160   8.478  13.242  13.794
59093W        W32161   4.799  15.668  11.246
59094W        W32162  23.427  38.454  11.816
59095W        W32163  10.526  33.630   1.719
59096W        W32164  19.201  13.574  14.754
59097W        W32165  32.792  23.498   4.270
59098W        W32166   7.062  25.483  12.059
59099W        W32167  38.506  34.456  12.870
59100W        W32168   4.553   1.434   4.267
59101W        W32169  31.605   0.033  11.900
59102W        W32170   1.367  31.834   0.887
59103W        W32171  44.498  21.601   2.270
59104W        W32172  43.665  43.367  12.030
59105W        W32173  14.825  28.418  10.020
59106W        W32174  31.996  12.116   3.635
59107W        W32175  13.176  42.632   5.110
59108W        W32176  44.733   0.253   4.649
59109W        W32177  15.743  16.563   2.686
59110W        W32178  16.987  39.729  14.284
59111W        W32179   1.159  38.987   2.602
59112W        W32180  34.598   5.313   1.349
59113W        W32181  36.028  27.455   1.371
59114W        W32182  23.251  12.488   3.918
59115W        W32183  18.785  16.088  10.397
59116W        W32184   2.295  30.262  14.358
59117W        W32185  39.843  16.905   0.961
59118W        W32186  13.843   5.461   2.758
59119W        W32187  16.543  22.346   4.144
59120W        W32188  14.030  38.475  12.445
59121W        W32189   8.785  24.083   2.219
59122W        W32190  39.894  14.787   5.337
59123W        W32191   6.263   4.861  13.147
59124W        W32192  16.345  32.425  12.939
59125W        W32193  38.999  34.683   2.629
59126W        W32194  19.813  37.355   4.565
59127W        W32195   4.900  20.760  12.887
59128W        W32196  17.253  42.018  11.232
59129W        W32197  29.051  40.797   4.115
59130W        W32198  19.198  16.943  13.958
59131W        W32199   8.751  40.065   0.708
59132W        W32200  30.914   7.962   1.611
59133W        W32201  30.181   2.881   1.343
59134W        W32202  38.322  34.915  13.689
59135W        W32203  11.742   3.916   4.718
59136W        W32204  40.046  17.741   2.402
59137W        W32205  15.063  26.935   0.530
59138W        W32206  22.396  16.047   0.618
59139W        W32207  21.555   7.744   1.902
59140W        W32208  20.961  21.540   3.531
59141W        W32209  18.498  15.061   3.729
59142W        W32210  24.487   4.538  12.482
59143W        W32211  18.816  38.930   0.687
59144W        W32212   5.235  13.736  14.884
59145W        W32213   1.770  19.606   2.172
59146W        W32214  15.851  12.649   3.831
59147W        W32215  39.961  29.696   0.373
59148W        W32216  35.985  18.750  10.779
59149W        W32217  18.120  21.549  12.184
59150W        W32218  10.332   4.914  11.951
59151W        W32219  13.265  38.429   1.922
59152W        W32220   5.696   0.575   0.262
59153W        W32221  39.626  43.309   3.379
59154W        W32222  44.286   1.705  13.232
59155W        W32223  42.701  25.496   0.787
59156W        W32224   8.925  32.879  14.804
59157W        W32225  28.032  10.691   2.775
59158W        W32226   4.447   9.565  12.967
59159W        W32227  38.122  20.011   3.192
59160W        W32228  26.037   7.758   0.413
59161W        W32229  41.496  18.009   3.343
59162W        W32230   0.353  36.386  11.711
59163W        W32231  27.420  12.459  12.832
59164W        W32232  15.742  31.497  12.954
59165W        W32233  39.413  17.236  12.141
59166W        W32234   7.372  44.960   4.225
59167W        W32235  33.220  10.081   3.209
59168W        W32236  34.341  14.793   0.358
59169W        W32237  14.622  11.873  14.399
59170W        W32238  36.408   0.038   1.625
59171W        W32239   8.355  41.862   2.297
59172W        W32240  25.664  23.224   1.163
59173W        W32241   7.089  12.142   3.174
59174W        W32242  21.991  29.621  14.903
59175W        W32243  11.834  13.255  13.357
59176W        W32244   3.368  19.682   0.930
59177W        W32245   5.658  17.619  13.515
59178W        W32246  27.572   4.320  14.547
59179W        W32247  20.526  34.918  10.195
59180W        W32248  11.297  38.390   4.867
59181W        W32249   2.451  27.084   2.292
59182W        W32250  22.623  34.579   1.809
59183W        W32251  22.407  10.234  10.251
59184W        W32252   2.658  43.348  14.888
59185W        W32253  15.581  44.676  10.010
59186W        W32254   1.903  25.481   0.394
59187W        W32255   2.307  19.172   2.439
59188W        W32256  34.627  18.585   3.657
59189W        W32257  21.712  18.198   3.221
59190W        W32258  43.327  21.407   4.306
59191W        W32259  42.956   6.338   4.643
59192W        W32260  23.212  24.082   1.972
59193W        W32261  13.567  39.613  14.838
59194W        W32262  28.723  20.941  12.507
59195W        W32263  19.172   3.466  14.761
59196W        W32264  41.757   1.966   0.389
59197W        W32265   2.302  41.987  12.001
59198W        W32266   7.703   9.726  13.527
59199W        W32267  21.145  16.534   3.219
59200W        W32268  44.238   3.777   2.274
59201W        W32269  13.086  23.723   3.261
59202W        W32270  42.263  19.020  12.853
59203W        W32271  44.854  28.088   2.751
59204W        W32272  17.280  13.835  12.597
59205W        W32273  30.385   8.660   1.493
59206W        W32274  16.021  23.523   1.751
59207W        W32275  25.771   7.422  11.013
59208W        W32276  18.753  37.888   0.679
59209W        W32277   8.070  44.537   2.855
59210W        W32278   8.701  20.796  10.664
59211W        W32279  20.360  21.693  11.373
59212W        W32280  30.105   9.260  14.351
59213W        W32281   7.111  21.643  12.424
59214W        W32282   5.641  15.710  14.605
59215W        W32283  43.433  13.683  10.517
59216W        W32284  12.651  43.969   4.681
59217W        W32285  24.956  37.013  12.960
59218W        W32286  43.977  38.427  14.002
59219W        W32287   9.110  31.176   3.196
59220W        W32288  34.564   8.879  14.018
59221W        W32289  43.685   9.391   4.550
59222W        W32290   5.273  20.674  11.931
59223W        W32291  10.396  28.620  12.115
59224W        W32292   9.472  12.449  14.083
59225W        W32293  32.649  30.642  11.510
59226W        W32294  24.898  36.014  11.560
59227W        W32295  38.884  24.238  12.952
59228W        W32296  25.887  26.496   2.205
59229W        W32297  41.927  23.812   4.140
59230W        W32298  26.206   5.885  14.819
59231W        W32299   9.729  22.540   2.175
59232W        W32300   9.688   7.605  13.204
59233W        W32301  17.204   9.147   4.114
59234W        W32302  34.765  41.924  14.839
59235W        W32303  33.006   0.981  12.540
59236W        W32304  10.372  20.019   0.411
59237W        W32305  22.036  26.125  14.548
59238W        W32306  37.332  28.114  14.986
59239W        W32307   4.691  33.317   5.238
59240W        W32308  41.361   5.810  10.971
59241W        W32309  44.214  35.088   4.250
59242W        W32310  36.407  33.665   4.662
59243W        W32311   7.295  18.275   4.217
59244W        W32312  20.798  43.544  11.593
59245W        W32313  40.883  29.904   2.453
59246W        W32314   3.623   8.962  10.274
59247W        W32315  29.854  29.448   4.613
59248W        W32316  26.022  34.341   3.118
59249W        W32317   9.676  40.956   1.816
59250W        W32318  28.909  12.146  14.749
59251W        W32319  13.831  13.898   3.741
59252W        W32320  31.566   2.713   0.005
59253W        W32321  17.279   8.196   4.455
59254W        W32322  35.049  19.664  11.797
59255W        W32323  29.957  29.165   3.750
59256W        W32324  35.005  27.967   4.721
59257W        W32325   0.232  25.424   2.719
59258W        W32326  27.996  38.067   4.520
59259W        W32327  36.913  32.596   1.758
59260W        W32328   5.188  25.593  13.531
59261W        W32329   3.829  17.959  10.245
59262W        W32330   0.573  41.879  12.878
59263W        W32331  20.166  20.855  12.969
59264W        W32332   6.913   2.251  13.990
59265W        W32333   6.896  23.728  13.763
59266W        W32334  16.213  38.388   1.707
59267W        W32335  22.011   9.384   4.006
59268W        W32336  35.386   5.229  12.785
59269W        W32337  30.107   8.915  13.944
59270W        W32338   9.762  40.515  14.323
59271W        W32339  44.289  14.077   5.032
59272W        W32340  38.750  37.918   4.778
59273W        W32341  14.286  24.753   1.916
59274W        W32342  12.108  29.884  13.557
59275W        W32343  17.070  24.979   0.844
59276W        W32344  28.194  12.045  13.470
59277W        W32345  38.851  41.764  13.999
59278W        W32346   0.572  17.159   5.068
59279W        W32347   2.623  43.022  12.657
59280W        W32348  21.569  29.018  13.955
59281W        W32349  19.775  33.780   2.488
59282W        W32350  39.392   3.520  14.825
59283W        W32351  12.288  25.700  14.923
59284W        W32352  20.237  16.291  13.049
59285W        W32353  24.019  25.101  10.605
59286W        W32354  35.367  43.059  12.699
59287W        W32355  29.248  41.965  13.103
59288W        W32356  39.917   0.459   0.954
59289W        W32357  18.702  29.132   3.594
59290W        W32358  11.881  21.946  11.056
59291W        W32359  31.630  42.062   2.350
59292W        W32360  35.614  42.703  12.015
59293W        W32361  35.514   6.704   4.799
59294W        W32362  12.023  31.592  13.850
59295W        W32363   6.392  38.485   1.207
59296W        W32364  23.463   0.249  14.358
59297W        W32365  35.812  31.894  13.967
59298W        W32366   2.172   3.027   1.354
59299W        W32367  17.060  42.862   1.925
59300W        W32368  12.181  26.068   4.310
59301W        W32369   1.727   4.743   0.370
59302W        W32370  43.503  13.338   4.664
59303W        W32371  27.550  12.742   4.596
59304W        W32372  10.367  20.088  11.864
59305W        W32373  27.429  11.730  12.423
59306W        W32374   3.343  36.244  13.351
59307W        W32375  26.567  22.186   1.785
59308W        W32376  32.220  42.723  13.973
59309W        W32377   0.726  23.177   4.650
59310W        W32378  15.774  11.707  11.566
59311W        W32379  16.611   0.602   0.947
59312W        W32380  14.108   1.770   1.895
59313W        W32381  10.153  15.237   2.169
59314W        W32382  21.311  44.208  12.374
59315W        W32383  43.869  44.876   2.822
59316W        W32384  44.558  25.763  14.981
59317W        W32385   3.463  22.966   3.573
59318W        W32386  28.585  23.085  11.195
59319W        W32387  23.040  37.564   4.975
59320W        W32388  13.700  36.095   0.325
59321W        W32389   1.828  44.044  11.137
59322W        W32390  24.468  42.358   2.408
59323W        W32391   4.537   7.652  12.864
59324W        W32392   4.653   2.044   2.734
59325W        W32393  41.925  11.215   2.671
59326W        W32394  33.837  44.864   0.018
59327W        W32395   5.810  43.008  13.964
59328W        W32396  34.918   5.961   4.114
59329W        W32397   1.049  19.096  10.811
59330W        W32398  39.025  28.055   2.224
59331W        W32399  20.774  10.655   0.755
59332W        W32400  22.294   2.241  14.861
59333W        W32401  31.157  12.220   4.382
59334W        W32402  17.842  36.379  12.142
59335W        W32403   7.811  18.132  13.462
59336W        W32404  34.867  16.293   1.233
59337W        W32405  13.597  26.038   1.325
59338W        W32406   5.796  25.200   2.575
59339W        W32407  30.784  33.669  14.705
59340W        W32408   6.632  39.389  12.670
59341W        W32409  22.203  28.396  11.054
59342W        W32410  36.227  36.854   1.972
59343W        W32411  43.523  44.297   3.869
59344W        W32412  30.540   6.354   1.236
59345W        W32413  16.380  29.584   4.554
59346W        W32414  38.738  30.520  11.472
59347W        W32415  16.532  25.737   1.922
59348W        W32416  14.173  26.192   1.225
59349W        W32417  10.989  44.901   3.709
59350W        W32418  20.317   7.830   2.024
59351W        W32419  34.067   9.662  14.586
59352W        W32420  23.586  38.570  10.880
59353W        W32421  13.313  31.630   5.013
59354W        W32422   8.909  31.915  13.318
59355W        W32423  14.402  20.004   1.691
59356W        W32424  33.068  28.592   1.260
59357W        W32425  44.571  27.234  11.733
59358W        W32426  42.926  30.936   4.582
59359W        W32427  26.435  27.819  11.196
59360W        W32428   6.673  36.930   1.482
59361W        W32429   3.075  13.279  10.677
59362W        W32430  37.979  24.735   3.748
59363W        W32431   1.439  34.558   3.461
59364W        W32432  18.634  16.063  14.252
59365W        W32433  30.463  40.018   3.539
59366W        W32434   5.850  38.888  10.199
59367W        W32435   5.430  37.128   2.329
59368W        W32436  28.494   7.366   4.116
59369W        W32437  32.902  22.677  13.107
59370W        W32438  40.446  29.147  12.659
59371W        W32439  40.369   9.090  10.930
59372W        W32440   9.307  19.244  13.891
59373W        W32441  30.999   6.392  10.201
59374W        W32442  33.029  12.337   2.589
59375W        W32443  40.279  12.046   1.915
59376W        W32444  29.022  28.657   2.383
59377W        W32445  37.625  40.363  11.858
59378W        W32446   2.998  28.720   2.876
59379W        W32447  34.572  14.947  11.835
59380W        W32448  19.108  16.761   1.218
59381W        W32449   6.313  20.188  13.543
59382W        W32450  32.302  11.340  11.112
59383W        W32451  39.812  24.168  12.889
59384W        W32452  39.608  12.508  14.320
59385W        W32453  10.163   2.472  12.019
59386W        W32454  28.635   2.680   2.673
59387W        W32455  13.383   5.559   0.684
59388W        W32456  37.901  21.156  10.733
59389W        W32457  44.296  37.390  13.539
59390W        W32458  38.305  44.283   3.541
59391W        W32459  44.001  11.597  10.648
59392W        W32460   5.536  33.920  14.235
59393W        W32461  26.739  20.476  14.395
59394W        W32462  37.045   1.167  10.641
59395W        W32463   4.872  18.124   0.304
59396W        W32464  23.682  29.959  12.914
59397W        W32465  43.070  15.200  10.632
59398W        W32466  43.527  38.315   3.132
59399W        W32467  13.077  41.592  14.975
59400W        W32468   6.444  36.211  14.449
59401W        W32469  22.055  23.188  14.035
59402W        W32470  44.025  12.205  14.405
59403W        W32471  31.417  40.218   4.171
59404W        W32472  24.974   9.181  10.671
59405W        W32473  14.776  15.292  13.818
59406W        W32474  10.517  22.093   1.879
59407W        W32475  29.596  17.301  13.377
59408W        W32476   8.795  37.221  11.350
59409W        W32477  41.793  11.553   3.231
59410W        W32478  22.140  25.515   1.422
59411W        W32479  15.373  31.629  13.942
59412W        W32480   9.673  35.399   3.258
59413W        W32481  28.058  16.100  13.854
59414W        W32482  30.940  29.510   4.506
59415W        W32483  16.997  35.480   2.289
59416W        W32484   9.656  15.175   1.980
59417W        W32485   4.086  14.766  13.311
59418W        W32486  13.906  15.440  13.414
59419W        W32487  21.763   1.007   1.712
59420W        W32488  39.127  31.115   1.275
59421W        W32489  32.989  34.068   3.466
59422W        W32490  13.819  10.300   3.640
59423W        W32491  25.903  13.737   3.168
59424W        W32492  28.079  31.707   0.918
59425W        W32493  40.932   7.838  13.316
59426W        W32494   7.476   2.957   0.834
59427W        W32495  39.560   1.433   2.706
59428W        W32496   3.859  43.540   4.486
59429W        W32497  26.249   1.242   3.728
59430W        W32498  37.748  43.188   3.616
59431W        W32499  18.233  24.205   0.276
59432W        W32500  25.851  18.761   1.155
59433W        W32501  28.700  14.799   3.424
59434W        W32502  18.496  37.025   4.103
59435W        W32503  37.619  34.582  13.403
59436W        W32504  15.932  21.734  11.213
59437W        W32505  18.249  12.403   2.447
59438W        W32506   2.263   8.812  13.962
59439W        W32507  22.541  20.698  14.737
59440W        W32508  42.555  44.874  11.882
59441W        W32509  32.142  40.444   3.647
59442W        W32510  37.178  40.937   4.695
59443W        W32511  21.543  44.292  11.920
59444W        W32512  34.044   5.336  11.911
59445W        W32513  10.772  21.455  12.100
59446W        W32514  37.412   9.079   0.029
59447W        W32515  39.538  42.818   4.537
59448W        W32516  13.062   9.213   0.556
59449W        W32517  16.498  43.547   0.737
59450W        W32518  40.102  12.040  12.980
59451W        W32519  34.713  10.127  12.580
59452W        W32520  23.083  13.507   1.069
59453W        W32521  39.003  11.907  12.105
59454W        W32522   4.694  27.664   0.856
59455W        W32523   3.437  44.833   4.393
59456W        W32524  39.250  40.918   4.679
59457W        W32525  27.917  19.567   4.651
59458W        W32526  18.044  10.840   3.587
59459W        W32527  20.955   2.293  14.334
59460W        W32528  13.791  23.309   3.621
59461W        W32529   5.892  41.510   1.198
59462W        W32530  10.749  12.265  11.353
59463W        W32531  40.461  38.371   2.383
59464W        W32532   9.859  10.785   3.248
59465W        W32533  28.522  24.881  12.554
59466W        W32534  39.454   2.767  13.161
59467W        W32535  10.424  29.016  11.468
59468W        W32536  21.213  19.488   2.536
59469W        W32537  24.651  18.742   5.005
59470W        W32538  43.437  23.697   3.430
59471W        W32539  31.084  23.728  12.132
59472W        W32540  15.252  13.266   1.845
59473W        W32541   6.215  28.891  12.476
59474W        W32542   3.904  42.111  12.664
59475W        W32543  27.628  11.400  14.555
59476W        W32544  42.988  43.926   1.708
59477W        W32545  43.127   9.396   0.280
59478W        W32546  23.467  36.192   2.728
59479W        W32547  34.779   9.075   4.436
59480W        W32548  38.399   5.745  11.545
59481W        W32549  44.030  23.025   3.102
59482W        W32550   5.701  32.979  11.099
59483W        W32551  10.979  42.916   2.608
59484W        W32552  20.783  31.313  11.702
59485W        W32553  10.407   7.766  11.553
59486W        W32554   2.910  37.965   4.689
59487W        W32555  34.935  15.674   0.330
59488W        W32556  37.570  16.721  11.570
59489W        W32557  25.087   1.757   3.997
59490W        W32558  22.104  42.351   0.689
59491W        W32559  33.731  33.463   3.114
59492W        W32560  31.437  13.133   4.144
59493W        W32561  44.924   0.929   1.458
59494W        W32562  12.739  18.626   2.626
59495W        W32563  43.894  12.571   4.735
59496W        W32564  39.299  14.831   1.035
59497W        W32565  23.051   5.055   0.891
59498W        W32566  22.432  18.714   5.087
59499W        W32567   1.633  35.872  10.996
59500W        W32568   8.002  29.520   4.798
59501W        W32569  36.468  21.479   4.743
59502W        W32570   8.514  13.540   2.347
59503W        W32571  41.967  17.229   3.241
59504W        W32572   4.241  44.773   4.969
59505W        W32573  17.668  22.531  13.559
59506W        W32574   5.819  38.574  14.280
59507W        W32575  43.830  42.411  12.016
59508W        W32576   3.286   1.206  14.039
59509W        W32577   1.702  22.963   0.369
59510W        W32578  26.543  11.906  12.871
59511W        W32579   3.959  21.462  12.506
59512W        W32580  23.920  10.606  13.415
59513W        W32581  21.480  24.608  11.045
59514W        W32582  42.717  25.185   0.389
59515W        W32583  34.285   1.273   0.786
59516W        W32584   2.359  36.001   0.286
59517W        W32585  11.107  39.976   3.338
59518W        W32586  34.358  36.664  11.103
59519W        W32587  14.787  11.867   4.574
59520W        W32588  20.277  20.138  12.453
59521W        W32589  12.205  16.228  10.993
59522W        W32590   6.883   5.668   0.422
59523W        W32591   0.656  38.609  12.829
59524W        W32592  15.938  35.186   5.126
59525W        W32593  38.095  14.807  13.853
59526W        W32594  33.593   3.372   1.652
59527W        W32595  10.646  15.190   0.353
59528W        W32596   0.258  42.833   4.699
59529W        W32597  36.528   2.201  11.568
59530W        W32598  27.507  32.728   1.791
59531W        W32599  25.996  34.383   0.770
59532W        W32600   2.743   2.856  12.156
59533W        W32601  30.165  40.754  14.923
59534W        W32602  26.164  30.657   3.776
59535W        W32603  39.599  30.121  10.774
59536W        W32604  19.364   5.453  14.462
59537W        W32605  12.680  42.575   2.524
59538W        W32606  19.855  25.096   4.875
59539W        W32607  20.097  43.689   3.834
59540W        W32608  24.376  16.696  14.384
59541W        W32609  27.371  38.029  14.108
59542W        W32610  27.958  15.549   0.026
59543W        W32611  27.511  27.255  12.598
59544W        W32612  38.883  15.855  10.133
59545W        W32613   0.011  17.229  13.700
59546W        W32614  39.134  27.432  14.893
59547W        W32615  30.872  40.511  12.063
59548W        W32616   1.160  23.954  13.113
59549W        W32617  15.001  13.329   1.392
59550W        W32618  26.904  18.048  13.279
59551W        W32619   9.702  40.135   2.332
59552W        W32620  10.729  42.331   1.209
59553W        W32621  16.791  26.899   0.793
59554W        W32622  27.507  30.677  12.970
59555W        W32623  13.675   6.529   1.764
59556W        W32624  33.455  19.031  12.181
59557W        W32625  27.051  32.543   0.252
59558W        W32626  23.111  12.350  11.676
59559W        W32627  29.002   6.752   0.821
59560W        W32628  14.323   1.884   4.727
59561W        W32629  19.977  19.457  14.756
59562W        W32630   5.349  18.582  12.810
59563W        W32631  10.705  30.101   0.259
59564W        W32632  39.347  18.549   5.086
59565W        W32633   6.956   9.803   4.115
59566W        W32634  13.703  41.887   3.694
59567W        W32635  43.080   8.521  12.084
59568W        W32636  17.443  14.779  13.468
59569W        W32637  14.877  18.080   1.802
59570W        W32638  31.743  32.722  10.993
59571W        W32639  22.565  37.760  14.391
59572W        W32640  24.558  16.320   0.725
59573W        W32641  20.781  16.150  11.012
59574W        W32642  20.072   6.661   4.520
59575W        W32643  34.613  44.396  11.576
59576W        W32644  18.969  15.652  13.701
59577W        W32645  21.429   8.230   0.686
59578W        W32646  38.858  10.917   3.530
59579W        W32647  22.970  12.876  12.491
59580W        W32648  22.179  44.702  12.891
59581W        W32649  27.981   8.763  11.892
59582W        W32650   7.360  29.683   4.200
59583W        W32651  26.103  24.328  10.815
59584W        W32652  20.639  37.189  14.420
59585W        W32653  17.036  29.489   2.753
59586W        W32654  31.097  38.677  11.962
59587W        W32655  21.407  42.757  14.430
59588W        W32656  27.543  10.207   2.240
59589W        W32657  14.817  37.280  11.257
59590W        W32658  32.928  41.907  10.646
59591W        W32659  22.789  16.225   1.208
59592W        W32660  29.944  27.250  10.715
59593W        W32661   4.154  19.123  14.949
59594W        W32662  29.194  33.568  14.572
59595W        W32663  20.487   4.684  12.431
59596W        W32664  20.029  35.139  12.521
59597W        W32665  24.036  16.208  11.239
59598W        W32666  17.208  43.864   4.779
59599W        W32667  44.872  30.167  10.825
59600W        W32668  12.829   1.436  13.379
59601W        W32669  30.521  41.601   3.134
59602W        W32670  31.018  41.330   1.453
59603W        W32671  15.567  32.905   0.320
59604W        W32672  17.178   7.116   4.225
59605W        W32673  15.816  29.566   3.167
59606W        W32674   1.668  12.234  11.507
59607W        W32675  34.906  22.588   5.026
59608W        W32676   0.267  10.885  10.637
59609W        W32677  21.997  11.788   1.269
59610W        W32678   9.200  38.600  12.483
59611W        W32679  36.508  23.757   1.228
59612W        W32680  20.016  34.082  12.046
59613W        W32681  26.267  20.837   2.018
59614W        W32682  10.902  28.311  14.840
59615W        W32683  35.667  44.863  11.654
59616W        W32684  44.515   5.260   2.368
59617W        W32685   9.247  27.260   1.872
59618W        W32686  25.149  17.173   2.716
59619W        W32687  16.702  43.501  13.025
59620W        W32688   1.846   3.044  12.809
59621W        W32689  43.002  23.543  13.324
59622W        W32690   5.718   9.679  13.973
59623W        W32691  12.215  21.183   0.815
59624W        W32692  34.312  34.155   3.253
59625W        W32693  29.980  12.144   4.198
59626W        W32694  23.597  42.898   0.086
59627W        W32695   6.717   4.114  14.123
59628W        W32696  37.570  27.166  10.796
59629W        W32697   6.306  26.472  11.543
59630W        W32698  35.642   8.769   4.163
59631W        W32699   7.789  34.017  12.415
59632W        W32700   6.332  22.558   0.767
59633W        W32701  39.117   9.249   4.623
59634W        W32702  42.365  10.682   4.654
59635W        W32703  33.640  20.195   4.822
59636W        W32704  13.886  36.584   1.299
59637W        W32705  25.032   7.929   1.209
59638W        W32706   1.924  29.564   1.054
59639W        W32707  21.294  26.620  14.437
59640W        W32708  42.981  20.044   3.229
59641W        W32709   6.214  26.935   2.236
59642W        W32710  29.019  42.824   3.450
59643W        W32711  24.054  27.061   3.196
59644W        W32712  39.364  29.876  13.027
59645W        W32713   8.367  18.145  12.579
59646W        W32714  23.613  26.090   4.103
59647W        W32715  24.020  22.754   1.344
59648W        W32716   6.696  33.669  12.960
59649W        W32717  10.855   7.614  13.861
59650W        W32718  24.717  23.554  12.478
59651W        W32719  28.622   7.944  14.504
59652W        W32720  16.708  14.381  10.767
59653W        W32721  39.012  38.934  11.162
59654W        W32722  44.871  32.505   2.444
59655W        W32723   2.522  14.147  14.716
59656W        W32724  25.034   6.171  14.361
59657W        W32725  10.430  34.452   1.888
59658W        W32726  31.574   7.962   2.286
59659W        W32727  36.866   2.639   4.533
59660W        W32728  19.493  33.395   3.597
59661W        W32729  16.248  23.097   2.395
59662W        W32730   3.904  16.286   2.414
59663W        W32731  24.643  31.213  11.481
59664W        W32732  43.306  12.249   4.666
59665W        W32733  37.483   6.718   3.531
59666W        W32734   1.904   2.786   4.398
59667W        W32735  39.149  13.072   1.301
59668W        W32736  15.510  25.766   3.788
59669W        W32737  14.248  24.483   1.416
59670W        W32738  36.361  12.200   3.896
59671W        W32739  33.351  22.543   1.984
59672W        W32740  10.474  12.569  13.359
59673W        W32741  42.838  42.375  14.316
59674W        W32742  12.229  13.409  13.022
59675W        W32743  21.054  36.520   4.074
59676W        W32744  13.185  23.060   1.944
59677W        W32745   4.202   8.225  11.997
59678W        W32746  12.803  12.415  14.979
59679W        W32747   6.720  29.419  14.115
59680W        W32748   6.693  25.455  14.792
59681W        W32749   9.276  37.285  12.099
59682W        W32750  39.029  13.413  11.190
59683W        W32751  16.551  43.030   0.698
59684W        W32752   0.490  16.517  12.791
59685W        W32753  26.515  28.399   0.647
59686W        W32754  16.810  42.231  13.488
59687W        W32755   7.807  10.830   1.645
59688W        W32756  37.449   0.930   0.942
59689W        W32757  19.279  27.629  11.938
59690W        W32758  12.775   1.187  12.427
59691W        W32759  38.155  29.104  12.912
59692W        W32760  39.032  40.516  13.438
59693W        W32761   7.356  41.436  11.540
59694W        W32762  26.358  21.314   1.855
59695W        W32763  23.657  18.177   4.132
59696W        W32764  26.526  34.937   3.514
59697W        W32765   5.220   1.978  11.984
59698W        W32766  41.069  12.641  14.994
59699W        W32767  33.894  18.503  11.486
59700W        W32768  35.931  22.214   0.264
59701W        W32769  33.399   4.687  14.345
59702W        W32770  43.251  12.448  11.466
59703W        W32771   9.318   1.116  11.669
59704W        W32772  42.692  12.880  14.309
59705W        W32773   4.229  22.372  11.991
59706W        W32774  26.962  23.202   0.276
59707W        W32775  44.901  16.849   4.786
59708W        W32776  24.093  33.031   3.261
59709W        W32777   9.852  42.971  12.730
59710W        W32778  36.275  39.101   0.828
59711W        W32779  28.566   0.029  14.079
59712W        W32780  30.110  33.354   2.498
59713W        W32781  15.272  34.898   1.157
59714W        W32782  10.243  32.546   0.757
59715W        W32783  20.934  29.507  10.282
59716W        W32784  23.137  22.551  12.984
59717W        W32785  17.301   6.404   0.236
59718W        W32786   5.951   2.216   4.799
59719W        W32787  14.175  40.805  12.949
59720W        W32788  43.375  16.625   0.321
59721W        W32789  12.282  18.667   1.174
59722W        W32790  17.831  19.869  14.829
59723W        W32791  12.187  37.762   2.342
59724W        W32792   9.687  39.000   4.804
59725W        W32793  30.096  38.619   3.727
59726W        W32794  29.585   9.211  14.356
59727W        W32795  20.608   2.173  11.579
59728W        W32796  32.083  35.421  14.093
59729W        W32797   1.892  42.028  11.139
59730W        W32798  40.284  41.404   2.743
59731W        W32799  11.898  18.928   3.126
59732W        W32800  39.643   3.289   4.117
59733W        W32801   5.002  22.228  12.995
59734W        W32802  41.450   1.412   1.748
59735W        W32803  24.116  10.127   4.995
59736W        W32804  13.680  38.053   4.570
59737W        W32805  44.425   3.271  11.080
59738W        W32806  22.423  44.001  10.197
59739W        W32807  33.449  16.277   0.835
59740W        W32808  15.074   0.298   1.871
59741W        W32809  19.974  42.243  13.310
59742W        W32810   7.148  44.748   2.969
59743W        W32811  32.430  40.653  12.596
59744W        W32812   3.840  28.442  10.652
59745W        W32813  42.249  24.733  14.742
59746W        W32814  26.545  35.413  10.346
59747W        W32815  19.010  44.048   9.836
59748W        W32816   1.782  31.880   2.180
59749W        W32817  41.286   2.271  14.779
59750W        W32818  19.003  36.033  12.684
59751W        W32819   6.523  20.021   3.651
59752W        W32820  27.571   2.929   1.644
59753W        W32821  27.177   3.412  11.489
59754W        W32822  43.092  35.064  14.022
59755W        W32823  20.284   7.126   0.480
59756W        W32824  43.976  36.418  13.489
59757W        W32825  19.525  26.412  14.098
59758W        W32826  29.348  28.027  11.664
59759W        W32827  41.431   1.973   3.685
59760W        W32828  38.342  10.190   3.062
59761W        W32829  30.513  29.991   3.706
59762W        W32830   2.996   5.710   2.748
59763W        W32831  26.145  39.319  14.385
59764W        W32832  37.910  31.681   5.422
59765W        W32833  39.395  24.476  12.965
59766W        W32834  22.417   4.949   1.728
59767W        W32835  33.458   8.921  11.074
59768W        W32836  32.053  20.950   4.124
59769W        W32837  23.291   6.621   1.970
59770W        W32838  38.412  17.843  13.899
59771W        W32839   2.330  29.821   3.203
59772W        W32840   2.812  26.439   4.116
59773W        W32841   2.516  14.090  11.629
59774W        W32842  37.086   1.434   3.513
59775W        W32843  14.221  40.359  13.490
59776W        W32844  21.509  24.027   2.139
59777W        W32845   7.581  26.607  10.664
59778W        W32846  30.524   1.470  10.394
59779W        W32847   2.307  44.675  14.787
59780W        W32848   4.749  31.631  13.958
59781W        W32849  33.449  28.066  14.027
59782W        W32850  37.423  18.003   0.496
59783W        W32851  19.425  21.733   0.065
59784W        W32852  32.100  35.926   4.548
59785W        W32853  35.784  19.526   4.583
59786W        W32854  17.753  44.796   3.215
59787W        W32855  18.031  11.877   3.202
59788W        W32856  21.343  10.453   2.361
59789W        W32857   0.822  23.928  11.107
59790W        W32858  34.880  10.638   3.675
59791W        W32859  11.990  25.208   5.219
59792W        W32860   0.758   3.012   1.261
59793W        W32861   7.744  39.108  12.042
59794W        W32862  18.322  15.120  13.846
59795W        W32863  35.671   3.724   0.939
59796W        W32864  18.248   1.236   3.323
59797W        W32865  27.931  31.977   2.338
59798W        W32866  33.675  35.047   1.384
59799W        W32867   7.750  40.887   4.547
59800W        W32868   1.663  31.616  12.082
59801W        W32869  41.936  44.879   2.668
59802W        W32870  15.031  40.263  10.708
59803W        W32871  25.143  25.669   1.945
59804W        W32872  40.896  20.501   4.248
59805W        W32873  36.090  12.302  10.694
59806W        W32874  11.612  21.975   0.287
59807W        W32875  41.560   7.262  10.999
59808W        W32876  21.177   7.697   0.330
59809W        W32877   6.125  26.420   2.160
59810W        W32878   4.348  10.930  11.507
59811W        W32879  39.798   7.300  13.936
59812W        W32880   3.449  18.449  11.545
59813W        W32881  21.019  17.707   3.561
59814W        W32882  25.756  18.540   4.867
59815W        W32883  42.374  21.961  14.344
59816W        W32884  25.940  17.733  12.454
59817W        W32885  39.609  27.597   3.247
59818W        W32886   6.608  17.798   2.518
59819W        W32887  22.714  43.321  13.333
59820W        W32888  10.563  30.967   1.437
59821W        W32889  27.168  37.068  14.424
59822W        W32890  13.751  27.866   1.471
59823W        W32891  11.154  44.097   1.894
59824W        W32892  10.164   0.286  10.917
59825W        W32893  15.348  33.154  12.819
59826W        W32894  24.157  24.276   1.490
59827W        W32895   3.956  25.776   2.958
59828W        W32896  12.261  33.684   2.713
59829W        W32897  28.633  31.160   3.146
59830W        W32898  10.149   7.795  14.715
59831W        W32899   5.597  21.578   0.971
59832W        W32900   5.037   5.515   4.647
59833W        W32901   7.352  25.721   4.557
59834W        W32902  32.080  13.180  13.298
59835W        W32903   2.486  40.095   4.159
59836W        W32904   7.851  26.223  10.992
59837W        W32905  24.534  44.991  13.920
59838W        W32906  26.774  29.491  12.802
59839W        W32907  37.953  34.553  13.806
59840W        W32908  29.023  20.480  11.054
59841W        W32909  27.408  23.000  10.676
59842W        W32910   7.841   6.538  10.572
59843W        W32911  12.858  39.118  14.335
59844W        W32912  39.952   9.131   1.837
59845W        W32913  32.518  24.945  14.392
59846W        W32914  41.651  39.035   2.421
59847W        W32915  27.075  40.316  14.950
59848W        W32916   4.233  36.611   4.433
59849W        W32917  25.783  39.452  11.061
59850W        W32918  18.220  44.527  12.044
59851W        W32919  35.348   0.330  12.853
59852W        W32920  35.362  41.313  11.872
59853W        W32921  34.677   0.497  10.631
59854W        W32922  26.126  14.198   3.259
59855W        W32923  27.975   0.388   2.372
59856W        W32924  23.502  14.567   2.817
59857W        W32925  19.975  40.986   4.198
59858W        W32926  40.313   6.135  13.857
59859W        W32927  34.240  37.629   2.175
59860W        W32928  13.266  44.488   4.166
59861W        W32929   3.399  41.385   0.238
59862W        W32930   2.931   0.633   3.997
59863W        W32931  42.089  10.513  14.852
59864W        W32932  36.028  30.584  14.725
59865W        W32933  21.166   6.134  11.170
59866W        W32934  23.716  27.101  11.187
59867W        W32935  44.109  18.297  10.278
59868W        W32936  35.041   0.139   2.739
59869W        W32937  14.890  40.929   4.649
59870W        W32938  30.945   3.425  13.483
59871W        W32939  27.132  35.571  11.596
59872W        W32940  15.669  28.365  12.909
59873W        W32941  37.874   0.010   4.116
59874W        W32942  19.346   8.265   3.643
59875W        W32943  31.208  14.979  14.128
59876W        W32944   0.504  20.652  14.113
59877W        W32945  39.220  41.025  11.991
59878W        W32946  42.000  42.547   3.480
59879W        W32947  37.228  15.578  11.620
59880W        W32948  37.857  23.724   0.436
59881W        W32949   4.390  10.681  10.552
59882W        W32950  40.034  13.283   2.580
59883W        W32951   9.418  37.566  10.157
59884W        W32952  30.734  23.525  10.390
59885W        W32953  13.289  20.958  10.672
59886W        W32954  28.999  22.939   2.398
59887W        W32955  19.624  22.204   4.573
59888W        W32956   8.864  42.348  14.303
59889W        W32957  25.480   3.436  12.032
59890W        W32958   6.662   0.802  14.613
59891W        W32959   1.454  17.510  11.945
59892W        W32960   5.227  24.439  13.911
59893W        W32961  40.804  31.250  11.158
59894W        W32962  17.685  30.153   3.722
59895W        W32963  24.627  11.566  11.857
59896W        W32964  31.036   6.335  12.044
59897W        W32965  36.653  38.244  12.286
59898W        W32966  41.869  26.082   4.304
59899W        W32967  23.539  44.751  12.944
59900W        W32968  40.479  14.289  11.664
59901W        W32969  21.186  32.442   2.417
59902W        W32970  31.450  25.003  13.513
59903W        W32971  33.284  10.842   2.894
59904W        W32972   4.456  30.015   1.970
59905W        W32973  14.183   5.959   4.265
59906W        W32974  19.675  38.442  13.174
59907W        W32975   9.764  15.638   4.740
59908W        W32976  12.629  39.627   0.033
59909W        W32977  11.403  35.118  14.410
59910W        W32978   0.168   0.025  11.076
59911W        W32979  38.703  17.851   4.064
59912W        W32980  10.998  41.447  11.907
59913W        W32981  18.748  11.903  12.115
59914W        W32982  39.047  20.652  12.661
59915W        W32983  27.652  27.608  13.446
59916W        W32984  34.358  36.912  13.952
59917W        W32985  36.339  30.415   4.124
59918W        W32986  38.269  38.026  13.062
59919W        W32987  37.347  25.870   0.964
59920W        W32988   5.617  22.504  12.087
59921W        W32989  29.671  18.100  12.497
59922W        W32990  31.813  39.183   4.108
59923W        W32991   8.172  36.088   4.718
59924W        W32992   0.331  37.534  14.987
59925W        W32993  18.234  41.327   0.012
59926W        W32994  17.343  32.492   0.175
59927W        W32995  15.554  16.646   2.231
59928W        W32996   7.700  15.890  10.285
59929W        W32997  11.348  19.277  12.114
59930W        W32998  39.569  38.811   3.278
59931W        W32999   0.946  40.991  13.380
59932W        W33000  19.676   0.466   2.412
59933W        W33001  23.285  21.025   2.682
59934W        W33002  16.069  31.178  11.876
59935W        W33003  27.025  36.047  14.296
59936W        W33004  32.419  19.390   0.760
59937W        W33005   5.381  29.478  13.629
59938W        W33006   6.471  37.300   0.302
59939W        W33007  44.897  15.233   3.916
59940W        W33008  41.262  16.726  12.411
59941W        W33009   8.859  10.326  12.958
59942W        W33010  42.719  13.677  13.466
59943W        W33011  29.931  39.011  13.951
59944W        W33012  27.373   1.807   0.939
59945W        W33013  42.755  22.143   3.860
59946W        W33014  22.629  19.459   4.579
59947W        W33015  30.115  42.602   0.873
59948W        W33016  14.143   2.067  12.125
59949W        W33017  28.178  15.527   4.237
59950W        W33018  25.983  39.872   0.384
59951W        W33019  12.539   2.309   2.898
59952W        W33020  11.148  37.942  10.824
59953W        W33021  37.659  14.454   5.046
59954W        W33022   8.680  31.014   2.932
59955W        W33023  26.007  22.996   0.301
59956W        W33024  34.061   6.206   2.710
59957W        W33025   2.955  41.856   3.786
59958W        W33026  21.743   8.085   2.233
59959W        W33027  38.105  38.843   0.039
59960W        W33028  31.315  33.577  11.220
59961W        W33029  36.871  31.410  12.512
59962W        W33030  28.584   0.825   1.798
59963W        W33031  42.793  35.639   3.872
59964W        W33032  33.925   1.320  11.636
59965W        W33033  31.405   6.155   3.240
59966W        W33034  16.316  16.115  12.976
59967W        W33035  24.203  12.310   2.850
59968W        W33036  18.735   2.427  11.996
59969W        W33037  43.906  40.533   4.700
59970W        W33038  23.763  11.310   2.674
59971W        W33039  33.455   4.291  11.578
59972W        W33040  13.271  10.521   3.112
59973W        W33041  26.717  36.390   0.279
59974W        W33042   5.516  12.745   0.016
59975W        W33043  27.123  19.509  12.405
59976W        W33044  39.807  44.192  13.360
59977W        W33045  12.852  44.716  13.047
59978W        W33046  13.002  20.259   3.532
59979W        W33047  26.654   1.321   0.831
59980W        W33048  40.887   4.407  14.427
59981W        W33049  10.795  16.969  12.523
59982W        W33050  12.977  38.565  12.600
59983W        W33051  10.766  26.736   2.453
59984W        W33052   0.244   7.770  14.090
59985W        W33053  42.931  38.455   4.509
59986W        W33054  31.037  13.182  11.169
59987W        W33055  39.380  26.906   1.577
59988W        W33056   9.193  19.276  11.199
59989W        W33057  21.109  42.993   3.348
59990W        W33058  24.882  38.607   3.631
59991W        W33059  21.133  41.910   1.892
59992W        W33060  35.119  30.977  12.842
59993W        W33061  27.952  39.587   3.854
59994W        W33062  17.246  37.495   2.848
59995W        W33063  23.946  14.645  11.119
59996W        W33064  15.688   1.651   1.024
59997W        W33065  27.620  37.331  13.330
59998W        W33066  44.378  25.537   0.960
59999W        W33067  19.225  21.546   3.269
60000W        W33068   7.499  40.898   5.002
60001W        W33069  44.287  26.401  11.864
60002W        W33070  10.345  38.073  11.128
60003W        W33071  40.328  40.508   1.324
60004W        W33072  15.620  22.252   3.605
60005W        W33073   2.834  14.212   0.974
60006W        W33074  19.780  24.937   1.234
60007W        W33075   5.896  43.819   2.760
60008W        W33076   7.157  39.489   2.637
60009W        W33077   8.725  29.612  14.055
60010W        W33078  13.242  39.299   2.260
60011W        W33079  18.550   0.964  12.122
60012W        W33080  32.135  34.463  14.005
60013W        W33081  13.648  15.176  12.238
60014W        W33082  28.036  44.978   0.873
60015W        W33083  32.024  43.906  11.604
60016W        W33084   9.755  24.060  11.117
60017W        W33085  39.643  14.988  11.430
60018W        W33086  19.000   8.900  14.907
60019W        W33087  13.089  15.532   1.741
60020W        W33088  42.885  23.482  12.388
60021W        W33089  31.845  44.973   3.558
60022W        W33090  31.839  31.774   4.924
60023W        W33091  42.461  16.827  13.826
60024W        W33092   9.722  22.657  14.947
60025W        W33093  34.557  34.999  10.878
60026W        W33094  27.721  12.723  11.380
60027W        W33095  13.533  31.198  14.443
60028W        W33096   5.834  14.594   0.959
60029W        W33097  34.070  42.992  14.318
60030W        W33098  30.369   8.348  14.421
60031W        W33099  35.180   7.667   3.191
60032W        W33100  27.471   4.412  10.701
60033W        W33101   1.493  41.957  14.470
60034W        W33102   2.425  34.476   1.414
60035W        W33103  18.822   5.132   3.538
60036W        W33104  26.942  20.616  13.797
60037W        W33105   5.756  31.974   0.337
60038W        W33106  37.581  24.983   2.119
60039W        W33107  30.831  26.190   2.339
60040W        W33108  37.639   4.717  11.398
60041W        W33109   9.444  10.877  14.464
60042W        W33110  13.614   2.874   3.169
60043W        W33111  24.764  44.870   2.225
60044W        W33112  37.354  19.561   0.320
60045W        W33113  16.613   5.859   0.235
60046W        W33114   3.741  23.461   1.926
60047W        W33115  36.003   6.518  13.077
60048W        W33116   3.377  16.990   2.682
60049W        W33117  38.080  42.936  10.063
60050W        W33118  26.066  23.144  12.437
60051W        W33119   4.985  33.352  13.662
60052W        W33120  28.458  21.710  12.101
60053W        W33121  11.766  19.688  12.861
60054W        W33122  33.581   0.665   4.571
60055W        W33123  35.416  31.909  13.109
60056W        W33124  28.355  43.399  12.637
60057W        W33125  24.109  41.274  12.907
60058W        W33126  20.501   7.206  11.509
60059W        W33127  29.924  16.335  13.456
60060W        W33128  33.407  41.395   9.985
60061W        W33129  27.028  43.280  11.140
60062W        W33130   0.748  17.288  12.414
60063W        W33131  22.597  24.085  12.918
60064W        W33132  20.278  15.561   2.699
60065W        W33133  15.184  16.904   0.841
60066W        W33134   8.840  25.463   1.891
60067W        W33135   6.752  11.406   3.677
60068W        W33136  41.855  16.822   1.280
60069W        W33137  19.587   9.683  14.888
60070W        W33138  32.948  16.138  11.442
60071W        W33139  37.584  33.778  13.712
60072W        W33140   0.274  41.975   3.319
60073W        W33141  32.431  12.912   3.658
60074W        W33142   1.901  37.555   0.969
60075W        W33143  14.549   6.791  10.437
60076W        W33144   2.786  18.231   0.758
60077W        W33145  37.491  29.058  14.723
60078W        W33146  12.705   4.629  12.051
60079W        W33147   2.113  36.484  14.465
60080W        W33148   5.286   5.341   4.207
60081W        W33149  15.889   7.436  12.019
60082W        W33150  14.653  33.327   1.699
60083W        W33151  28.938  12.046  11.953
60084W        W33152  23.527  35.605  13.228
60085W        W33153   2.044  42.965   1.329
60086W        W33154   2.325  32.236  14.550
60087W        W33155   9.215  31.874  14.323
60088W        W33156  34.957  42.091   3.167
60089W        W33157  21.466   4.918  11.582
60090W        W33158  14.218  37.944  13.212
60091W        W33159  18.258  35.879   4.812
60092W        W33160   0.679  37.049   1.202
60093W        W33161  12.713  12.271  11.067
60094W        W33162  26.698  11.833  11.083
60095W        W33163   6.345  27.701   1.729
60096W        W33164  31.163  31.614  14.481
60097W        W33165  15.643  42.943   0.791
60098W        W33166   5.467  24.991  14.004
60099W        W33167  16.341  32.513  12.053
60100W        W33168  19.566   2.827   3.524
60101W        W33169  33.968   2.945   0.529
60102W        W33170  30.936   8.913  10.250
60103W        W33171  23.656  14.967  14.575
60104W        W33172  40.389   8.280   5.854
60105W        W33173  26.066  33.600  13.440
60106W        W33174   1.679   6.839   1.280
60107W        W33175  27.635  33.419  10.738
60108W        W33176   3.332  14.866   4.292
60109W        W33177  29.955  22.917   5.467
60110W        W33178  43.992  42.021  11.719
60111W        W33179   4.813  26.682  11.069
60112W        W33180  18.164  13.768  13.005
60113W        W33181  44.643  17.128   2.821
60114W        W33182  12.332  29.808  14.013
60115W        W33183  35.124  23.643   3.742
60116W        W33184  22.063  34.046   2.333
60117W        W33185  30.189  10.220   0.901
60118W        W33186   3.669  26.946   4.150
60119W        W33187  34.351  21.038  14.329
60120W        W33188  18.541   8.835  12.322
60121W        W33189  20.943  39.494   4.941
60122W        W33190  36.077  17.450   2.784
60123W        W33191  31.119  16.677  14.317
60124W        W33192  27.420  31.090  10.610
60125W        W33193   5.315   3.426   2.734
60126W        W33194  23.702   9.273  14.994
60127W        W33195   8.597  21.615   4.105
60128W        W33196  17.617  36.342  11.079
60129W        W33197  41.645  33.498  14.936
60130W        W33198   9.310  28.056   1.174
60131W        W33199  41.792  15.559   4.123
60132W        W33200   2.949  39.116   2.948
60133W        W33201   2.774  34.602  12.734
60134W        W33202  37.028  25.013   2.241
60135W        W33203   5.440  38.833   3.753
60136W        W33204  26.408  19.132  11.907
60137W        W33205  13.575  10.076  14.099
60138W        W33206   7.766  18.101  10.752
60139W        W33207   6.519  34.754  13.379
60140W        W33208   0.325   2.014  12.105
60141W        W33209  23.364  37.513   0.977
60142W        W33210  40.490  23.428  10.612
60143W        W33211  39.979  18.252   2.302
60144W        W33212  16.808  12.229  12.429
60145W        W33213  39.537  17.528   2.402
60146W        W33214  32.040  12.166   2.201
60147W        W33215  42.779   7.914  11.472
60148W        W33216   7.514  15.496  11.098
60149W        W33217  26.894  29.213  10.722
60150W        W33218  40.674   7.772   4.592
60151W        W33219  26.487  10.334   5.426
60152W        W33220  10.872  38.397  11.950
60153W        W33221  29.148  30.114   3.087
60154W        W33222  13.678   6.872   2.794
60155W        W33223  25.546   4.726  14.508
60156W        W33224  15.532  42.957  13.492
60157W        W33225  19.079  16.718   2.910
60158W        W33226  40.528  13.269   2.728
60159W        W33227  41.308  18.258  12.368
60160W        W33228  11.843  42.560   2.172
60161W        W33229  22.492  18.651   1.940
60162W        W33230  29.411  15.329  12.873
60163W        W33231  16.734  38.364  14.518
60164W        W33232   8.654  23.970  11.983
60165W        W33233  41.797  13.321   4.497
60166W        W33234  17.128  11.330   4.270
60167W        W33235  33.432  31.694  12.618
60168W        W33236  21.764  25.679  14.753
60169W        W33237   6.593  25.026  12.970
60170W        W33238   6.520   4.910  11.226
60171W        W33239   8.273  42.904  13.770
60172W        W33240  44.970  39.379   2.675
60173W        W33241  38.591  10.341  13.459
60174W        W33242  10.896  24.946  11.996
60175W        W33243   1.005  12.587   3.317
60176W        W33244  38.874  35.829  12.959
60177W        W33245  32.946   0.127  14.427
60178W        W33246   3.477  28.075   1.116
60179W        W33247  19.187  36.992  12.491
60180W        W33248  26.436   3.848  12.474
60181W        W33249  17.809  36.836   0.400
60182W        W33250  34.382  16.294   0.990
60183W        W33251   1.181   2.860  11.232
60184W        W33252   0.525  29.464   3.116
60185W        W33253  24.802  22.073   4.053
60186W        W33254  29.311  42.445  12.425
60187W        W33255  36.512  19.120   3.490
60188W        W33256  16.571  35.641  11.138
60189W        W33257  32.766  38.980  10.250
60190W        W33258  33.691  36.856  12.640
60191W        W33259  20.311  24.012  12.405
60192W        W33260  25.209  22.141   4.356
60193W        W33261  23.160  13.901  14.032
60194W        W33262   5.437  19.860  12.427
60195W        W33263  40.767  22.127   1.867
60196W        W33264  27.935   6.420   5.061
60197W        W33265   8.136   5.473   1.906
60198W        W33266  33.851  27.184   3.184
60199W        W33267  31.359  19.662   2.563
60200W        W33268   5.823  26.565   3.742
60201W        W33269  12.543  10.732  13.485
60202W        W33270  11.336  23.193  11.126
60203W        W33271  11.561  12.553   5.196
60204W        W33272  40.895  10.143   1.682
60205W        W33273  23.032   9.715  12.767
60206W        W33274   6.864  35.549  10.678
60207W        W33275  37.631  27.844   0.375
60208W        W33276  39.857   2.830   2.230
60209W        W33277  10.622  32.346  11.272
60210W        W33278  23.131  33.305   3.075
60211W        W33279  17.176  11.872  12.434
60212W        W33280  24.523  34.064  12.874
60213W        W33281  33.966  19.005   2.049
60214W        W33282  42.721  18.073   4.577
60215W        W33283  13.705  43.654  13.281
60216W        W33284  10.296  37.345   5.097
60217W        W33285  12.093   9.957  14.913
60218W        W33286  34.426   9.735  10.678
60219W        W33287  40.546   5.393   3.284
60220W        W33288  18.576   0.835   2.685
60221W        W33289  31.860   2.192   1.816
60222W        W33290  30.539  41.973   3.664
60223W        W33291  20.646   0.388   1.449
60224W        W33292  31.943  24.199  14.397
60225W        W33293  38.470  19.570  10.935
60226W        W33294  20.139  24.610  10.756
60227W        W33295  29.715  24.208   2.425
60228W        W33296   5.902   4.121   3.136
60229W        W33297  40.306   6.180   2.758
60230W        W33298  10.457  37.306  11.541
60231W        W33299  16.132  21.914   1.770
60232W        W33300  11.816  18.084   0.737
60233W        W33301  18.612   2.479  13.943
60234W        W33302   1.433  15.165   0.437
60235W        W33303  39.772  18.705   3.806
60236W        W33304  17.821  20.122   0.291
60237W        W33305  30.011  44.532   0.752
60238W        W33306   9.186  44.706  14.378
60239W        W33307   6.844  42.243  12.977
60240W        W33308  17.527   1.811  10.732
60241W        W33309  34.060  16.568   1.786
60242W        W33310  41.623  28.916   2.464
60243W        W33311  11.712  12.284  11.311
60244W        W33312  20.235  42.960   0.819
60245W        W33313  18.549   3.420   1.323
60246W        W33314  39.405  31.120   3.205
60247W        W33315  22.009  28.577  12.038
60248W        W33316  31.153  17.251  13.485
60249W        W33317  28.151   2.371  11.570
60250W        W33318  36.922   2.663  12.054
60251W        W33319  26.163  41.334  12.897
60252W        W33320  31.467  20.903   4.564
60253W        W33321  28.097  20.242  13.951
60254W        W33322  28.891  23.218  14.886
60255W        W33323  39.710   7.326   3.871
60256W        W33324   8.094  26.590  10.706
60257W        W33325  28.452  38.961  12.452
60258W        W33326   3.467  36.441   1.337
60259W        W33327  14.997  31.610   1.416
60260W        W33328  37.474  38.275  12.504
60261W        W33329  28.241  34.690  13.048
60262W        W33330  20.968  28.113  13.421
60263W        W33331  16.338  18.288  12.191
60264W        W33332  28.139  35.096  11.473
60265W        W33333  12.862   6.954  13.166
60266W        W33334  16.608  17.791   3.334
60267W        W33335  39.021  16.375  10.055
60268W        W33336  44.854  26.115  13.572
60269W        W33337  23.125  43.934   2.404
60270W        W33338  17.331  36.623   0.406
60271W        W33339  24.705  32.531  10.886
60272W        W33340  36.683  41.759   3.886
60273W        W33341  32.467  22.974  11.569
60274W        W33342   4.980  33.366   0.879
60275W        W33343  20.248  13.107   1.337
60276W        W33344  14.642   5.292  10.620
60277W        W33345  40.909  20.732   4.706
60278W        W33346  11.162   3.003  13.927
60279W        W33347  12.553  15.276   0.268
60280W        W33348   5.745   3.103  11.105
60281W        W33349  20.663   9.445   4.963
60282W        W33350  28.267   9.686   5.129
60283W        W33351   8.726  30.156  10.613
60284W        W33352   7.767  35.823  11.782
60285W        W33353  39.805  19.706  11.144
60286W        W33354   5.294  39.020  12.927
60287W        W33355  17.034  13.238   2.384
60288W        W33356  32.296   3.930   4.135
60289W        W33357  25.417   5.258  13.757
60290W        W33358  35.823  33.448  12.588
60291W        W33359   1.861  19.134   1.433
60292W        W33360   2.817  23.052   1.451
60293W        W33361  31.186  39.416   3.276
60294W        W33362  23.233  22.711   0.307
60295W        W33363   8.923  43.407  11.611
60296W        W33364   5.234  30.895   3.346
60297W        W33365  18.690   7.904   1.237
60298W        W33366   8.144  22.688  14.895
60299W        W33367  44.390  18.311   3.265
60300W        W33368  14.115  24.238   1.900
60301W        W33369  37.459  41.380   1.736
60302W        W33370  21.583  29.027  11.389
60303W        W33371   2.716  36.084   2.701
60304W        W33372   3.901  37.369   1.238
60305W        W33373  29.457  38.325   1.865
60306W        W33374  24.908  38.500   0.500
60307W        W33375  31.926  16.787   2.233
60308W        W33376  37.384   6.572   3.049
60309W        W33377   8.585  19.019   3.851
60310W        W33378  14.211  42.345   2.362
60311W        W33379  14.087  16.987   5.124
60312W        W33380  33.084  41.813   2.141
60313W        W33381   9.217  16.307   1.735
60314W        W33382   6.401  11.837  13.456
60315W        W33383   8.829  44.509   0.355
60316W        W33384   9.936   7.798  10.648
60317W        W33385  33.530  19.814  10.521
60318W        W33386  24.425  15.356  14.269
60319W        W33387   9.657  16.286   0.958
60320W        W33388  30.851   5.172   1.717
60321W        W33389  25.004   6.906   3.536
60322W        W33390  34.838  38.614  12.120
60323W        W33391  20.072  38.780   4.452
60324W        W33392   7.407  37.027  12.442
60325W        W33393  44.288  26.968  11.043
60326W        W33394   4.286  33.333   0.301
60327W        W33395   9.790   9.875  12.392
60328W        W33396  40.733  26.799   0.519
60329W        W33397   0.862  40.394   3.737
60330W        W33398  38.371  28.589   3.778
60331W        W33399  42.936  44.763   1.787
60332W        W33400   2.817   8.249  11.373
60333W        W33401  40.229  31.387   0.889
60334W        W33402   1.489   1.474   4.818
60335W        W33403   7.230   0.868   0.323
60336W        W33404  22.009  19.252   4.520
60337W        W33405  36.430   4.556  10.870
60338W        W33406  26.147   5.430  14.499
60339W        W33407   4.701   1.738   0.496
60340W        W33408  21.655  27.291  11.604
60341W        W33409  17.381  19.092   1.335
60342W        W33410   1.556  34.540  13.312
60343W        W33411   0.819  26.929   0.411
60344W        W33412  39.559  35.923   2.189
60345W        W33413  26.512   7.013   2.891
60346W        W33414  15.182   5.465  12.458
60347W        W33415  39.348  27.579  10.369
60348W        W33416   2.704   0.468   3.256
60349W        W33417  14.356  16.767   3.669
60350W        W33418   1.527  11.207   1.329
60351W        W33419  10.299  18.263  10.784
60352W        W33420  23.929  34.718   3.586
60353W        W33421  26.716  39.364  13.410
60354W        W33422  14.758  31.405  14.447
60355W        W33423  15.758  31.455  14.269
60356W        W33424   2.779  18.644   0.437
60357W        W33425  23.959  24.233   3.286
60358W        W33426  43.047  30.873  13.463
60359W        W33427  12.496  26.803  12.781
60360W        W33428   4.916  39.250  14.808
60361W        W33429  23.717  28.120  11.671
60362W        W33430  38.790  24.497   0.724
60363W        W33431  37.157   1.472   1.757
60364W        W33432   9.500  24.030  14.445
60365W        W33433  31.477  27.430  13.914
60366W        W33434  37.503  27.175  11.307
60367W        W33435  25.274   4.892  13.105
60368W        W33436  13.091   3.795  14.930
60369W        W33437  11.276  16.231  10.165
60370W        W33438  27.206   2.297   2.753
60371W        W33439  43.991  30.398   2.257
60372W        W33440  17.041   6.576   0.960
60373W        W33441   5.711  27.977  11.451
60374W        W33442  30.507  21.084  10.702
60375W        W33443  24.635  19.420   5.000
60376W        W33444  15.375  36.934  13.009
60377W        W33445   5.414  14.315   1.155
60378W        W33446  27.218  13.296   3.085
60379W        W33447  31.061  14.126   0.272
60380W        W33448   4.830   3.246   3.411
60381W        W33449   8.350  11.201  14.801
60382W        W33450  17.238  19.315   2.362
60383W        W33451  12.875  22.317   0.732
60384W        W33452  13.665  12.983  14.793
60385W        W33453  15.282  36.335   0.018
60386W        W33454  28.635  31.507  10.795
60387W        W33455  34.666   6.725  10.580
60388W        W33456  20.776  33.010   0.781
60389W        W33457   7.285  31.639   3.658
60390W        W33458  26.514  39.900   3.351
60391W        W33459  43.172  32.365   0.964
60392W        W33460  18.515  34.958  13.875
60393W        W33461  43.911  18.695  14.419
60394W        W33462  44.342  14.217   9.842
60395W        W33463  33.520   6.128   0.980
60396W        W33464  18.616  15.113  12.143
60397W        W33465  21.141  27.763   2.649
60398W        W33466  17.494   6.774   1.641
60399W        W33467  36.669  27.501  10.776
60400W        W33468  16.690   4.487   0.769
60401W        W33469  18.207  26.056   0.309
60402W        W33470  31.368  16.361   4.758
60403W        W33471  13.699  17.032  12.164
60404W        W33472  44.710   2.333   1.234
60405W        W33473  10.392   4.429   3.688
60406W        W33474  40.418  34.699   4.574
60407W        W33475  40.308   2.296   4.871
60408W        W33476   5.952  22.097  12.084
60409W        W33477  18.778  10.271  14.772
60410W        W33478  21.657  14.281   1.470
60411W        W33479  21.996  39.501   1.234
60412W        W33480   8.069   5.612  14.879
60413W        W33481  37.226  20.602  11.021
60414W        W33482  15.127   5.714  12.936
60415W        W33483  40.358  23.834   4.580
60416W        W33484   4.435  31.479  13.561
60417W        W33485  34.857   9.196  12.869
60418W        W33486   8.684  44.995   0.248
60419W        W33487  34.436   1.682   0.430
60420W        W33488   8.334  41.018   5.275
60421W        W33489   2.750  43.441  13.061
60422W        W33490  21.139  30.622   5.074
60423W        W33491   7.962  33.654  11.148
60424W        W33492  28.044  12.959   4.569
60425W        W33493   1.242  39.328  14.315
60426W        W33494  12.554  25.482  11.538
60427W        W33495  39.602  16.163  13.518
60428W        W33496   4.136  32.342   2.285
60429W        W33497  20.645  21.740   4.501
60430W        W33498  12.740  32.063   2.399
60431W        W33499  29.427  16.767   2.253
60432W        W33500  36.908   4.834   2.829
60433W        W33501  25.611  13.055  10.409
60434W        W33502  16.848  14.586  11.568
60435W        W33503  31.538   5.233  13.505
60436W        W33504  27.738  36.455  12.460
60437W        W33505  32.205   1.417   3.308
60438W        W33506  28.893  18.066  12.051
60439W        W33507  25.205  42.965   2.829
60440W        W33508  31.609  29.865   1.325
60441W        W33509  16.863  19.240   0.807
60442W        W33510  41.141   8.933   0.729
60443W        W33511  37.960  13.996   2.934
60444W        W33512  36.559  14.046   2.811
60445W        W33513  10.587   5.266  11.674
60446W        W33514  20.043  32.954   4.848
60447W        W33515  40.959   6.430   4.135
60448W        W33516  39.545  41.353   4.526
60449W        W33517  11.342  21.675  12.367
60450W        W33518  13.228   4.756  12.046
60451W        W33519  43.896  25.805  13.086
60452W        W33520  26.449  13.077  10.709
60453W        W33521  44.672   9.106   2.286
60454W        W33522  28.512   4.637   2.257
60455W        W33523  14.821  41.009   3.812
60456W        W33524   7.322  13.375   3.641
60457W        W33525  37.421  21.819   4.882
60458W        W33526  35.260  38.593   3.133
60459W        W33527  32.591  11.098  12.360
60460W        W33528  21.533  25.086   4.791
60461W        W33529  37.421  39.862  10.538
60462W        W33530  23.779  40.816  10.579
60463W        W33531   0.023  41.470   3.466
60464W        W33532  18.965  43.277   4.689
60465W        W33533  13.121  14.635  12.943
60466W        W33534  35.428  17.809   0.408
60467W        W33535   2.879   7.172  11.515
60468W        W33536   1.333  32.843  14.685
60469W        W33537  10.200  27.068  14.952
60470W        W33538  44.571  14.137   2.808
60471W        W33539  14.704  16.353  14.764
60472W        W33540  32.263   4.477   1.266
60473W        W33541  29.545   8.968  11.211
60474W        W33542  39.865  39.916  10.638
60475W        W33543  16.568   0.375  13.928
60476W        W33544  26.781  34.688  13.107
60477W        W33545   6.690  43.333  13.357
60478W        W33546  43.537  41.446  14.440
60479W        W33547  16.215  16.333   2.665
60480W        W33548  22.179  22.226   0.900
60481W        W33549  20.663  27.575   4.476
60482W        W33550  34.047  25.807  12.158
60483W        W33551  33.273  44.347  10.966
60484W        W33552  13.800  21.977   2.171
60485W        W33553  29.927  28.564  11.269
60486W        W33554  41.222  18.569  13.029
60487W        W33555  22.624  13.927  11.804
60488W        W33556  31.089  11.332  14.775
60489W        W33557  40.051   4.840  11.103
60490W        W33558   3.841  33.757   3.249
60491W        W33559   1.319  30.063   4.903
60492W        W33560  18.146   4.485   3.547
60493W        W33561   5.791  11.263   3.849
60494W        W33562  40.960   3.502  13.419
60495W        W33563   0.413  43.533  11.052
60496W        W33564   9.656  35.618   1.166
60497W        W33565   0.003  29.614   0.769
60498W        W33566   0.059  18.787   0.252
60499W        W33567  32.579  36.393   3.684
60500W        W33568  37.639  35.515  12.504
60501W        W33569  19.755  11.979  11.199
60502W        W33570  43.413  23.716  11.226
60503W        W33571  37.733  24.335  10.974
60504W        W33572  12.395  28.684   2.550
60505W        W33573   1.131  22.873   0.795
60506W        W33574  44.581   8.172  12.854
60507W        W33575  38.596   8.622   5.536
60508W        W33576  23.294   3.189   0.475
60509W        W33577  27.395  23.437   2.721
60510W        W33578  39.204  21.778   2.323
60511W        W33579  13.112  36.405   0.787
60512W        W33580  37.090  33.679  13.431
60513W        W33581  39.641  17.091  11.091
60514W        W33582   5.337  23.596  11.978
60515W        W33583   6.446  17.671  11.553
60516W        W33584  14.059  14.775   1.995
60517W        W33585   7.593   5.381   1.816
60518W        W33586  39.749  17.793   3.282
60519W        W33587   3.676  36.916   1.223
60520W        W33588  30.994  10.338   1.407
60521W        W33589   0.343  11.691  11.458
60522W        W33590   9.177  36.628  10.217
60523W        W33591  10.884  26.309  13.063
60524W        W33592  20.269  41.003   1.845
60525W        W33593  40.806  23.934   2.772
60526W        W33594   6.677   9.133  12.105
60527W        W33595   9.151   8.196  10.742
60528W        W33596  21.929   5.216  13.767
60529W        W33597  20.430  12.897  13.171
60530W        W33598  14.177  13.691  14.699
60531W        W33599  15.137  33.088   2.788
60532W        W33600   4.186  38.442   2.845
60533W        W33601  33.638  39.311  13.884
60534W        W33602  43.916  11.407   4.532
60535W        W33603   8.276  26.717   0.881
60536W        W33604   2.413  25.096  11.608
60537W        W33605   5.267  36.866   1.390
60538W        W33606   2.261  15.562  10.262
60539W        W33607  39.401  11.888  12.447
60540W        W33608  32.055  22.296  14.931
60541W        W33609  18.764   2.386   0.985
60542W        W33610  13.658  37.508   0.289
60543W        W33611  39.900   1.550   3.079
60544W        W33612  34.887  39.377   1.774
60545W        W33613   1.961  18.773   2.786
60546W        W33614  28.284  24.508   1.244
60547W        W33615  15.940   9.228  12.402
60548W        W33616   4.888  19.493  14.700
60549W        W33617  33.791  14.276   4.215
60550W        W33618  13.351  33.922   0.878
60551W        W33619  37.507  42.457  13.043
60552W        W33620  27.043  27.849   1.676
60553W        W33621   9.752  11.368  14.837
60554W        W33622  22.609  21.929  10.897
60555W        W33623  11.179  29.264  11.087
60556W        W33624  42.275   9.830   4.478
60557W        W33625   4.447  42.084   2.244
60558W        W33626   1.730   8.764   3.855
60559W        W33627  21.228  29.080  13.582
60560W        W33628  16.497  32.741  11.187
60561W        W33629  10.784  35.187   3.769
60562W        W33630  35.596  16.275   0.524
60563W        W33631  23.689  35.343  14.226
60564W        W33632  16.030  28.005  13.079
60565W        W33633  43.799  33.937   0.866
60566W        W33634   8.694  17.265   1.650
60567W        W33635   9.690  38.379   3.717
60568W        W33636  32.910  18.599  11.579
60569W        W33637  17.841   1.720  12.128
60570W        W33638   1.295  25.181   3.334
60571W        W33639  29.304  43.701  12.571
60572W        W33640  23.622   4.745  10.708
60573W        W33641   7.932  20.190   3.210
60574W        W33642  18.012   6.953   0.109
60575W        W33643  25.127  32.882  12.865
60576W        W33644  41.928  36.173   1.684
60577W        W33645   7.482  34.417  14.429
60578W        W33646  17.689  39.206  14.889
60579W        W33647  15.751  32.884   3.809
60580W        W33648  13.741  32.004  14.953
60581W        W33649  17.760   2.303   1.023
60582W        W33650  16.169  25.242  11.644
60583W        W33651  21.325  41.029   3.812
60584W        W33652  40.486   3.195   4.057
60585W        W33653  13.629  29.775  11.197
60586W        W33654  32.956  43.666   0.693
60587W        W33655  24.431  14.137  13.782
60588W        W33656  10.605  20.594   4.771
60589W        W33657  44.775  12.803   1.151
60590W        W33658   7.136  38.185   1.710
60591W        W33659   8.444  36.445   4.968
60592W        W33660  41.583  11.880   3.614
60593W        W33661  43.422  19.971  12.917
60594W        W33662   1.308   0.382  12.109
60595W        W33663   0.436   7.866   0.800
60596W        W33664  28.679  26.114  14.952
60597W        W33665  24.730  21.834   2.226
60598W        W33666  16.105   2.891   1.217
60599W        W33667  18.524  24.142  13.993
60600W        W33668  42.015  30.854  12.001
60601W        W33669  31.118  36.882   0.284
60602W        W33670  36.772  27.174   3.565
60603W        W33671  34.520  28.910   4.202
60604W        W33672  43.313  21.521   3.801
60605W        W33673  24.570  17.742   4.545
60606W        W33674  32.598  24.033  14.514
60607W        W33675  41.722   8.172  13.313
60608W        W33676  34.374  20.557   4.231
60609W        W33677   0.254  27.120  11.098
60610W        W33678  26.621  16.798  13.060
60611W        W33679  40.623  15.116   2.621
60612W        W33680  33.843  15.077   2.828
60613W        W33681   9.181  34.637  13.532
60614W        W33682   3.791  30.571   1.805
60615W        W33683  22.671  25.166  14.970
60616W        W33684  33.065  39.827  11.100
60617W        W33685  33.184  11.356   3.740
60618W        W33686  14.074  17.783  10.725
60619W        W33687   4.183  16.158  12.109
60620W        W33688  14.390  35.006   4.726
60621W        W33689  21.291  16.761   3.729
60622W        W33690   0.467  24.183   0.411
60623W        W33691  18.777  30.046   0.701
60624W        W33692  24.982  12.230  13.040
60625W        W33693  30.041  23.129   4.960
60626W        W33694   3.250  29.738   4.115
60627W        W33695  37.821  21.545  13.532
60628W        W33696   0.436  31.516   0.038
60629W        W33697   0.967  14.821   0.987
60630W        W33698  39.815  21.112  10.375
60631W        W33699  34.891  40.429   1.781
60632W        W33700  30.698  20.271   0.201
60633W        W33701  31.072  31.015  12.506
60634W        W33702  40.572  27.378   1.820
60635W        W33703  16.604  12.630   0.663
60636W        W33704  39.068  44.401   2.789
60637W        W33705  30.011   3.058  13.642
60638W        W33706   4.135  33.683   3.709
60639W        W33707  26.530  29.500  13.256
60640W        W33708  10.354  40.983  11.538
60641W        W33709   6.354   3.905  12.503
60642W        W33710  40.002  19.156  14.067
60643W        W33711  23.925  26.990   4.523
60644W        W33712  10.230  27.682  13.780
60645W        W33713   6.985   6.169   0.219
60646W        W33714   9.422  28.181  14.795
60647W        W33715  41.308  16.929  13.539
60648W        W33716   6.323  14.801  11.575
60649W        W33717  44.811   7.336  11.857
60650W        W33718  41.432  32.091  13.928
60651W        W33719   3.819  29.163  14.268
60652W        W33720  20.695   6.371  12.529
60653W        W33721  36.554  12.784   2.229
60654W        W33722  33.832   0.116  14.541
60655W        W33723  20.557  20.697  13.757
60656W        W33724  22.689  32.487  11.319
60657W        W33725  31.027   6.648   0.460
60658W        W33726  43.815  35.925   3.232
60659W        W33727  25.805  35.667   4.124
60660W        W33728  26.517  24.546  10.518
60661W        W33729   1.278  25.353  13.007
60662W        W33730  18.724   6.151  14.857
60663W        W33731   5.028  10.181  11.231
60664W        W33732  38.645  40.965  11.185
60665W        W33733  26.975  39.258   4.408
60666W        W33734  23.265  38.837  12.142
60667W        W33735  17.489  17.231   4.179
60668W        W33736   7.237  13.545  10.558
60669W        W33737  17.481  40.333  10.553
60670W        W33738  18.066  28.167  12.148
60671W        W33739  30.558  25.373   0.436
60672W        W33740  23.823  33.648  11.506
60673W        W33741  30.096  12.655   1.733
60674W        W33742   0.979  38.071  11.204
60675W        W33743  34.908  42.237  13.951
60676W        W33744  26.083  33.036   2.319
60677W        W33745  17.804   3.316   3.674
60678W        W33746  39.140  23.512   4.150
60679W        W33747  37.179   5.564   4.630
60680W        W33748   7.218  39.859   4.015
60681W        W33749  21.950  30.272   1.615
60682W        W33750  17.254   1.211   2.276
60683W        W33751  32.094  28.387   4.448
60684W        W33752  38.456  43.018  11.717
60685W        W33753   8.148  30.770   0.832
60686W        W33754  38.802  33.431   4.191
60687W        W33755  15.255  36.527  11.577
60688W        W33756  25.666   8.175   4.091
60689W        W33757  12.430  42.005  14.546
60690W        W33758  42.057   6.716  12.429
60691W        W33759  18.632   0.401  12.835
60692W        W33760  23.072  30.614   4.588
60693W        W33761  32.211  43.530   1.488
60694W        W33762  40.939  14.057   0.316
60695W        W33763  18.232  13.806  14.837
60696W        W33764  26.681  19.416   3.343
60697W        W33765   4.442   9.167   0.013
60698W        W33766  21.775  37.491  12.973
60699W        W33767   0.717  27.188   3.075
60700W        W33768  15.265   8.823   2.620
60701W        W33769  28.120  26.463   4.610
60702W        W33770  21.967  23.736   3.325
60703W        W33771  25.062  13.026  12.379
60704W        W33772  21.239   8.419  11.284
60705W        W33773  12.629  28.416   4.609
60706W        W33774   2.897  40.460   4.869
60707W        W33775  13.536   5.747   4.164
60708W        W33776  22.761  40.803   3.295
60709W        W33777  38.556  37.837  12.160
60710W        W33778  24.977  18.336   1.478
60711W        W33779  17.107  14.760   4.745
60712W        W33780  34.138  16.266   3.228
60713W        W33781   7.671  32.529   3.234
60714W        W33782  12.513  20.715   0.417
60715W        W33783  23.239  39.837  14.839
60716W        W33784  31.387  25.277   0.350
60717W        W33785  41.216  17.832   1.063
60718W        W33786  39.290  43.838  11.434
60719W        W33787  40.971  33.388   4.815
60720W        W33788  10.561   3.693  12.284
60721W        W33789  43.720  44.388   3.407
60722W        W33790  30.868  25.007   1.776
60723W        W33791  23.662  30.574  11.081
60724W        W33792   0.680  21.699   4.744
60725W        W33793  34.520  44.076  13.852
60726W        W33794  43.942   2.234  14.488
60727W        W33795  17.320  32.232  14.510
60728W        W33796  43.248  23.040  12.449
60729W        W33797   7.840   5.462   3.777
60730W        W33798  18.293  14.679  11.698
60731W        W33799  40.322  24.126   1.153
60732W        W33800   5.738  20.186   3.182
60733W        W33801  43.539  15.208   1.360
60734W        W33802  37.889  39.979  14.966
60735W        W33803   5.305  33.598  13.254
60736W        W33804  18.669  26.767  11.943
60737W        W33805  42.106  24.876   2.677
60738W        W33806  15.261  27.202   0.993
60739W        W33807  38.848  35.452   2.179
60740W        W33808  43.061  13.401  12.510
60741W        W33809  32.005   0.378  13.486
60742W        W33810  42.304  10.193  14.466
60743W        W33811  26.155   0.495   0.678
60744W        W33812  42.842  35.664   2.439
60745W        W33813  13.254  26.256   4.730
60746W        W33814  39.893  13.360   3.595
60747W        W33815  21.801  41.948   1.418
60748W        W33816  35.876   9.784  10.566
60749W        W33817  22.702  43.315   3.922
60750W        W33818  24.772  44.011   4.631
60751W        W33819  42.447  39.843   3.247
60752W        W33820  29.983   1.202  11.057
60753W        W33821  34.569   0.289  14.852
60754W        W33822   2.723  35.130  11.149
60755W        W33823  39.395  31.500   0.302
60756W        W33824  42.568  20.137   1.372
60757W        W33825   1.601  35.997   0.972
60758W        W33826  32.050   4.173  12.887
60759W        W33827   3.339  15.548   0.393
60760W        W33828  29.865  24.762  11.106
60761W        W33829  14.178  11.105  14.994
60762W        W33830  10.583   3.677  14.602
60763W        W33831   7.300  21.732  13.379
60764W        W33832  29.111   8.713   0.677
60765W        W33833  16.036   1.879  10.835
60766W        W33834   7.095   8.474  10.185
60767W        W33835  13.183   6.798  14.775
60768W        W33836   9.389  40.228  11.573
60769W        W33837  35.622  13.849   0.687
60770W        W33838  32.649  29.970  13.731
60771W        W33839  44.409  13.277   4.433
60772W        W33840  16.841  31.853   3.889
60773W        W33841  44.383  14.600   3.749
60774W        W33842   6.471   4.277   1.339
60775W        W33843  25.034  31.145   2.812
60776W        W33844  16.927  34.602   1.234
60777W        W33845  39.034  18.322   2.336
60778W        W33846   5.334  41.701  11.570
60779W        W33847   2.557  27.988  13.057
60780W        W33848  37.877  35.001   1.738
60781W        W33849  16.118   3.309   2.394
60782W        W33850  13.762  26.643  12.035
60783W        W33851  34.048  12.358  10.655
60784W        W33852   7.575  17.427  14.591
60785W        W33853  10.071  34.816   0.245
60786W        W33854  33.757  38.380   2.300
60787W        W33855  10.252  43.507  14.893
60788W        W33856  18.257  22.665   1.315
60789W        W33857  31.523   3.446  12.968
60790W        W33858  33.671  33.202  12.392
60791W        W33859  39.079  36.974  14.568
60792W        W33860   2.813  35.366   0.715
60793W        W33861   3.342  42.923  14.396
60794W        W33862   1.895  41.293  13.544
60795W        W33863  19.825   0.469   2.904
60796W        W33864  37.926   0.833   4.511
60797W        W33865   9.052  44.965   1.843
60798W        W33866   9.212  22.732   4.077
60799W        W33867   2.711   6.228  13.825
60800W        W33868  41.778  31.414  10.937
60801W        W33869  23.286  23.479  14.749
60802W        W33870  42.426  19.285  11.870
60803W        W33871  36.435  44.273  10.279
60804W        W33872  24.163  20.623   3.363
60805W        W33873  42.899  25.686  10.702
60806W        W33874  25.523  30.958   2.724
60807W        W33875  17.011  40.960   2.607
60808W        W33876  35.521  23.265   0.018
60809W        W33877  21.717   1.008  12.113
60810W        W33878   4.664  38.270   2.052
60811W        W33879  39.489  21.080  11.196
60812W        W33880  23.755   9.643  13.371
60813W        W33881  44.511  26.158   2.819
60814W        W33882  28.563  38.941   0.408
60815W        W33883  41.621  22.656  14.968
60816W        W33884   7.147  21.485  11.543
60817W        W33885   5.284  11.201   3.152
60818W        W33886  11.359  38.402  11.038
60819W        W33887   2.075  38.480   3.370
60820W        W33888  17.671   9.859  14.948
60821W        W33889  27.835  16.089  13.385
60822W        W33890  14.254  32.045   3.147
60823W        W33891  31.205  19.447   4.221
60824W        W33892   3.715   4.852   4.809
60825W        W33893   0.289  19.587   3.280
60826W        W33894  12.305   6.485  11.199
60827W        W33895  10.858   7.150  11.771
60828W        W33896  26.088  19.099   4.856
60829W        W33897  35.999  10.923  14.392
60830W        W33898  29.628   1.967   3.761
60831W        W33899  17.179  13.296  13.256
60832W        W33900  21.286  38.516  11.128
60833W        W33901  21.124  29.931  14.007
60834W        W33902   7.947  20.721   2.232
60835W        W33903  22.067  22.590  10.706
60836W        W33904  30.534   9.823   0.971
60837W        W33905  24.553  36.036  13.588
60838W        W33906  10.122  26.973   0.917
60839W        W33907  12.406  12.600   0.841
60840W        W33908  29.963   0.971  10.581
60841W        W33909  25.013   0.170  13.107
60842W        W33910  18.684  33.932   0.718
60843W        W33911  40.127  35.525  13.316
60844W        W33912  40.420  27.935  14.289
60845W        W33913  41.478   0.111  14.548
60846W        W33914  15.218   7.496  11.498
60847W        W33915  21.210  19.003   0.851
60848W        W33916  28.129  10.208   4.217
60849W        W33917  25.639  44.233   3.658
60850W        W33918  21.040  30.190  14.455
60851W        W33919  20.941  35.642   4.668
60852W        W33920  17.259   4.858  11.475
60853W        W33921   6.736  38.513  12.394
60854W        W33922  30.531  24.433   2.824
60855W        W33923  32.452  32.610  10.705
60856W        W33924  31.670   1.228   2.274
60857W        W33925  23.537  39.912   3.887
60858W        W33926  10.346  29.583  14.868
60859W        W33927  41.745  41.426   2.907
60860W        W33928  44.866  35.886  13.659
60861W        W33929  38.228  37.988  12.550
60862W        W33930  36.849  12.541   1.872
60863W        W33931  33.054  17.086   2.792
60864W        W33932   3.251  11.608  13.531
60865W        W33933  35.331  17.244   0.592
60866W        W33934  37.409   4.773   2.891
60867W        W33935  32.545   0.718  10.776
60868W        W33936  17.998  21.669  14.336
60869W        W33937  33.093   2.527   2.489
60870W        W33938   0.468  27.600   3.254
60871W        W33939  43.407  42.925  13.970
60872W        W33940  11.778  15.821   0.845
60873W        W33941  42.245  18.541  10.735
60874W        W33942   1.410  10.384   2.310
60875W        W33943  12.831  38.210  11.150
60876W        W33944  37.549  15.302   3.148
60877W        W33945  12.313  25.083   3.292
60878W        W33946  22.849  32.035  13.960
60879W        W33947  12.384  36.417  12.483
60880W        W33948   2.060   3.286  10.026
60881W        W33949  13.901  38.418   1.200
60882W        W33950  41.076  39.588  14.345
60883W        W33951   6.873  14.331  13.250
60884W        W33952  14.475  34.934  14.458
60885W        W33953  12.192  22.232   1.253
60886W        W33954  33.718  42.824   3.173
60887W        W33955  41.928  17.737   3.171
60888W        W33956  34.880  19.815  14.678
60889W        W33957  27.853  16.529  13.638
60890W        W33958   5.377   4.322  14.389
60891W        W33959  34.814  20.460  13.097
60892W        W33960  17.074  41.707   0.351
60893W        W33961  34.316   8.842  12.510
60894W        W33962  14.861  12.806   3.811
60895W        W33963  21.476  28.429  12.837
60896W        W33964  38.341  23.229  11.822
60897W        W33965  27.533   6.195   3.120
60898W        W33966  28.802   4.434   1.644
60899W        W33967  25.338   9.274  14.441
60900W        W33968  14.170  21.575   0.442
60901W        W33969  18.132  27.554   1.693
60902W        W33970  10.387   5.344  14.884
60903W        W33971   1.275  25.185   1.265
60904W        W33972  18.993   6.688   1.855
60905W        W33973   5.747   1.332   1.856
60906W        W33974  44.080  22.705   5.071
60907W        W33975   8.382  19.222   2.486
60908W        W33976  44.542  17.721   1.711
60909W        W33977  24.160  14.083  12.240
60910W        W33978  43.881  41.524  12.453
60911W        W33979   0.526  40.007   1.335
60912W        W33980  38.621  21.025  11.164
60913W        W33981  41.544  34.587   3.758
60914W        W33982  12.614  19.309  11.177
60915W        W33983  24.475  10.112   2.295
60916W        W33984  30.147  30.959   3.403
60917W        W33985   8.169  28.482  14.397
60918W        W33986  30.753   6.870   1.288
60919W        W33987  36.777  43.331  13.906
60920W        W33988  23.536   1.512  13.810
60921W        W33989  11.935  31.598  11.041
60922W        W33990  29.532  16.595  13.189
60923W        W33991  21.677  24.405  13.353
60924W        W33992  28.610  27.757  13.460
60925W        W33993   0.457   8.187  11.066
60926W        W33994  18.772   6.861  10.734
60927W        W33995   0.248  27.677  12.632
60928W        W33996   3.369  19.032   3.746
60929W        W33997   0.414  31.563   0.550
60930W        W33998  28.993   6.875  12.608
60931W        W33999  39.932  12.447  12.152
60932W        W34000  26.630  27.287   4.080
60933W        W34001  37.358   0.845   0.051
60934W        W34002  14.675  21.970   4.563
60935W        W34003  21.638  25.233  12.067
60936W        W34004  43.162   8.623   2.462
60937W        W34005  40.498  19.210   4.131
60938W        W34006  35.990  27.581   1.962
60939W        W34007  42.227  39.071  12.946
60940W        W34008   8.500  26.514   0.421
60941W        W34009  11.235  26.205   1.840
60942W        W34010  29.957  32.946  14.049
60943W        W34011  26.494  11.173  13.526
60944W        W34012  13.354  32.385  13.052
60945W        W34013  17.060  10.149   4.102
60946W        W34014   9.795  42.753   2.718
60947W        W34015   4.856  19.348  13.836
60948W        W34016  28.010  22.709  10.617
60949W        W34017  12.924  38.743  11.061
60950W        W34018  21.593  37.623   2.283
60951W        W34019  19.678  39.476   1.872
60952W        W34020  22.289  40.939   1.952
60953W        W34021  30.541   7.345  10.769
60954W        W34022  24.235  41.601   2.191
60955W        W34023   8.141  14.737  11.981
60956W        W34024  11.730  16.062   0.384
60957W        W34025  26.194  16.763   4.090
60958W        W34026  27.910  27.626   0.711
60959W        W34027  24.513  19.595  14.350
60960W        W34028  14.890  19.843   1.775
60961W        W34029  19.970  35.497   3.615
60962W        W34030  12.823  16.831  13.096
60963W        W34031  39.541  41.540   1.481
60964W        W34032  33.100  23.541   1.712
60965W        W34033  29.417  42.819   0.040
60966W        W34034  18.777  40.383  12.239
60967W        W34035  33.673  13.507   2.392
60968W        W34036   5.993  35.989  14.512
60969W        W34037  15.352  16.572  12.585
60970W        W34038  28.849  18.751  14.131
60971W        W34039  30.570  22.265   3.109
60972W        W34040   8.823   6.787  12.008
60973W        W34041   2.148  22.020   4.590
60974W        W34042  40.574  25.061  12.532
60975W        W34043   2.698  43.710   0.240
60976W        W34044  39.744  19.171  13.612
60977W        W34045   9.546  29.638   2.196
60978W        W34046  31.580   6.138  11.159
60979W        W34047  15.866   6.796  12.917
60980W        W34048  32.183  16.166  14.917
60981W        W34049  42.442  30.594   0.489
60982W        W34050   5.061  16.874   4.267
60983W        W34051   1.889   0.758   1.525
60984W        W34052  22.703  36.930   1.935
60985W        W34053   1.315  31.363   4.660
60986W        W34054   8.485   7.711   4.538
60987W        W34055  37.352  16.601   0.185
60988W        W34056  30.063  10.871  11.366
60989W        W34057   3.019   2.285  14.910
60990W        W34058  12.058  27.132  11.559
60991W        W34059  23.991   6.930   4.063
60992W        W34060   4.780  25.429   2.194
60993W        W34061  37.474  38.810   2.170
60994W        W34062  14.225   8.890  13.034
60995W        W34063  22.463  19.026  13.962
60996W        W34064  17.208  40.049   2.743
60997W        W34065  21.278  31.051   2.394
60998W        W34066  17.471  18.306   0.425
60999W        W34067   6.413  44.363  14.226
61000W        W34068  30.556  32.095  11.595
61001W        W34069   4.718  13.624  14.814
61002W        W34070   7.640  36.725   1.364
61003W        W34071  39.676  17.681  12.168
61004W        W34072  33.646  23.012  12.995
61005W        W34073   1.165   1.332   3.899
61006W        W34074  16.754  44.364   4.157
61007W        W34075  18.283   4.873  11.677
61008W        W34076  21.045  38.307   2.380
61009W        W34077   5.229  31.925   3.622
61010W        W34078  31.423  12.318  14.858
61011W        W34079   5.170  24.019   0.323
61012W        W34080  40.805  35.497  13.908
61013W        W34081  41.954  39.472   2.277
61014W        W34082  39.229   5.825  12.346
61015W        W34083   6.770  24.214   3.066
61016W        W34084  25.521  12.743  13.506
61017W        W34085  34.323  21.224  14.993
61018W        W34086   7.792   8.801  10.498
61019W        W34087  19.147  39.040   4.330
61020W        W34088  11.045   3.390   3.739
61021W        W34089   3.855   6.975  13.926
61022W        W34090  27.070  17.258  13.026
61023W        W34091  19.602  27.535  12.856
61024W        W34092  34.502  37.041   0.338
61025W        W34093  32.331  35.549   1.321
61026W        W34094   5.671  18.306   2.932
61027W        W34095   3.848  29.348   2.367
61028W        W34096  16.753  12.369  10.952
61029W        W34097   3.246  17.323  12.420
61030W        W34098  22.029   1.547   3.435
61031W        W34099  12.072   2.651  13.993
61032W        W34100  43.521  39.403  12.960
61033W        W34101  41.416   7.757  14.628
61034W        W34102  36.953  16.034  11.496
61035W        W34103   8.906  29.884   3.339
61036W        W34104  16.833  44.749  13.868
61037W        W34105  32.083   0.268   3.896
61038W        W34106  42.944   3.288  11.260
61039W        W34107   0.252  16.082  12.908
61040W        W34108  27.122  38.095  14.570
61041W        W34109  10.251  40.467   0.271
61042W        W34110   0.486  24.580   3.290
61043W        W34111  15.707   6.344   3.152
61044W        W34112   6.697   7.841  11.841
61045W        W34113  29.878  30.541   3.267
61046W        W34114  22.133   8.366   1.288
61047W        W34115  24.963  39.805   0.374
61048W        W34116  38.486  16.829   0.021
61049W        W34117  27.280  11.381  10.685
61050W        W34118   6.382  37.925  14.424
61051W        W34119  42.628  38.812   2.356
61052W        W34120  44.461  33.904  12.409
61053W        W34121  38.077  18.175   3.364
61054W        W34122  10.171  15.299   3.384
61055W        W34123  14.070  39.051   1.948
61056W        W34124  34.086  19.995  10.659
61057W        W34125   2.639  26.934   4.132
61058W        W34126  28.911  36.620  13.875
61059W        W34127  26.697  15.792  10.805
61060W        W34128  22.985  16.244  14.828
61061W        W34129   4.660  14.651   1.380
61062W        W34130  32.952  39.041  12.090
61063W        W34131  36.398   8.020  12.032
61064W        W34132  29.216   6.972   0.361
61065W        W34133  11.703   9.168   9.889
61066W        W34134  17.345  23.767  12.902
61067W        W34135  40.499   9.220   3.334
61068W        W34136  41.490   2.999   4.688
61069W        W34137  14.550   1.745  10.737
61070W        W34138  18.226   0.645  13.053
61071W        W34139  29.730  16.071   1.815
61072W        W34140  22.235  41.497  12.434
61073W        W34141  22.136  40.188   4.636
61074W        W34142  16.680  10.613  14.397
61075W        W34143  44.374  44.940   1.575
61076W        W34144   8.130  16.733   3.127
61077W        W34145  19.185  20.618   2.299
61078W        W34146  12.202  11.260  14.225
61079W        W34147  25.034   0.257   0.917
61080W        W34148  17.351  34.907   3.344
61081W        W34149   2.987  35.022   4.452
61082W        W34150   8.891  37.029   3.213
61083W        W34151  31.517  17.817  12.316
61084W        W34152  43.553   7.804   0.639
61085W        W34153  37.660  30.620   0.224
61086W        W34154  38.493  15.609   4.548
61087W        W34155  40.563  21.148  10.263
61088W        W34156   7.177  23.028  11.239
61089W        W34157  43.924  29.901   4.699
61090W        W34158  10.885   2.127  11.119
61091W        W34159  19.217   8.774  13.460
61092W        W34160  22.023  15.634  11.470
61093W        W34161  16.032  10.209  12.327
61094W        W34162  29.837  25.997  12.314
61095W        W34163   5.051  33.983  14.445
61096W        W34164  32.868  23.201  11.799
61097W        W34165   6.350  41.356  11.125
61098W        W34166  25.149  28.099  11.162
61099W        W34167  14.386  14.754  10.741
61100W        W34168  31.506  15.543   3.146
61101W        W34169  20.939  21.517  13.325
61102W        W34170  42.930  29.068   4.788
61103W        W34171   6.737  11.322   2.314
61104W        W34172   2.450  21.132   1.371
61105W        W34173  44.879  21.303  11.106
61106W        W34174  36.995  11.743   3.445
61107W        W34175  41.405  16.184  14.952
61108W        W34176  35.565  25.996   3.563
61109W        W34177  19.528  23.124   4.597
61110W        W34178  44.555  28.094  11.398
61111W        W34179  13.796  30.124   4.244
61112W        W34180  42.723   2.576  13.766
61113W        W34181  18.256  24.610  14.884
61114W        W34182  23.864   7.885   1.802
61115W        W34183  27.973  34.376   3.865
61116W        W34184  20.687  31.453   3.204
61117W        W34185   1.683  24.014  13.115
61118W        W34186   8.457   1.311   0.376
61119W        W34187  40.552  22.154  14.430
61120W        W34188  38.326  14.698   0.634
61121W        W34189   3.689  20.774   0.268
61122W        W34190  11.871  33.505   1.434
61123W        W34191  26.523   8.296   0.027
61124W        W34192   3.238  24.246   5.076
61125W        W34193  20.290   4.947   3.170
61126W        W34194  37.153  27.005  14.810
61127W        W34195  42.084  26.406   5.129
61128W        W34196  11.878  27.003   4.524
61129W        W34197  11.262  20.160   4.536
61130W        W34198  10.660  37.249  14.954
61131W        W34199  38.310  12.090   3.666
61132W        W34200   9.678   9.258   0.636
61133W        W34201  23.582  32.314   4.190
61134W        W34202   3.186   1.477   1.398
61135W        W34203  16.164   1.032   4.606
61136W        W34204  30.903   3.297   5.007
61137W        W34205  33.304  39.942   4.079
61138W        W34206  25.183  20.539  12.900
61139W        W34207  43.096   6.250   2.725
61140W        W34208  15.083  18.718  12.007
61141W        W34209   3.149  35.028   2.272
61142W        W34210   4.224  37.460  13.923
61143W        W34211  18.734  42.615  11.482
61144W        W34212  35.876   3.117   2.322
61145W        W34213  20.380  25.522   3.914
61146W        W34214  42.618   8.176   1.316
61147W        W34215  21.176  38.066  10.589
61148W        W34216   8.941  35.028   4.063
61149W        W34217  16.350   0.523  13.474
61150W        W34218  19.093  35.653   3.743
61151W        W34219  32.652   6.542  10.274
61152W        W34220   2.155  40.661  10.758
61153W        W34221  34.126  40.289   2.288
61154W        W34222   3.010  23.912  14.439
61155W        W34223   3.489  17.034   0.271
61156W        W34224  17.716   1.380  10.927
61157W        W34225  27.061  31.563   4.707
61158W        W34226  36.979  21.724   4.613
61159W        W34227  23.792  15.386  12.962
61160W        W34228  27.544   3.016  10.707
61161W        W34229   7.715  24.496   0.914
61162W        W34230   1.466  24.037  13.576
61163W        W34231  39.763  36.948   3.188
61164W        W34232  11.703  35.566   2.760
61165W        W34233  39.889   4.007   0.236
61166W        W34234  36.927  44.770  10.759
61167W        W34235   9.395  20.948   3.307
61168W        W34236  38.513   7.626  14.036
61169W        W34237  29.072  18.776  11.578
61170W        W34238  33.428  24.468  11.996
61171W        W34239  11.778   6.769   1.898
61172W        W34240  22.960   9.680   1.810
61173W        W34241  11.859  27.286   0.392
61174W        W34242   2.852  23.962   4.868
61175W        W34243   0.711   6.638  13.332
61176W        W34244  17.668  44.864   4.124
61177W        W34245  34.694  29.514  11.091
61178W        W34246  21.517   1.576   4.765
61179W        W34247   0.753   7.751  11.094
61180W        W34248   3.462  41.077   1.062
61181W        W34249  39.636   4.307   1.570
61182W        W34250  23.560  34.416  11.147
61183W        W34251   6.269  35.549  14.770
61184W        W34252   2.179  30.502  13.902
61185W        W34253  11.154  35.010  14.855
61186W        W34254  27.225  36.992  11.554
61187W        W34255  38.530   2.628   3.866
61188W        W34256  19.615   3.429   2.321
61189W        W34257  24.043  16.251  13.503
61190W        W34258  38.553   5.505  12.855
61191W        W34259  42.330   2.723   0.279
61192W        W34260  35.502  25.259   4.612
61193W        W34261   8.137   4.291  14.469
61194W        W34262  23.208  24.451  13.237
61195W        W34263  43.447   2.786   3.617
61196W        W34264   5.214  11.287  12.113
61197W        W34265  27.247  38.153   3.766
61198W        W34266  29.894  26.242  14.413
61199W        W34267  38.279   4.490  12.051
61200W        W34268  26.533   4.249   4.146
61201W        W34269  40.343  36.118   3.737
61202W        W34270  14.027  42.007  13.830
61203W        W34271  35.217  19.287  13.008
61204W        W34272  26.568  29.957  13.462
61205W        W34273  18.180  28.624  12.411
61206W        W34274  26.034  19.969   4.662
61207W        W34275   0.069  31.065  12.456
61208W        W34276  24.374  37.668  10.508
61209W        W34277  34.694  22.441   9.911
61210W        W34278   3.204   6.360  13.777
61211W        W34279  34.736  22.031   1.402
61212W        W34280  43.372  36.323  11.151
61213W        W34281  23.549  39.623  13.446
61214W        W34282  26.393  23.450  10.288
61215W        W34283  37.959  38.873  12.027
61216W        W34284   0.697  13.285  12.911
61217W        W34285  17.031  31.056  13.479
61218W        W34286  29.777  38.848   5.111
61219W        W34287  41.079  32.066  12.277
61220W        W34288  34.545  33.654   4.559
61221W        W34289  15.894  14.742  13.370
61222W        W34290  14.400   3.167  10.743
61223W        W34291  42.492   4.906   1.666
61224W        W34292  41.377  44.821   4.829
61225W        W34293  15.772   6.105  10.551
61226W        W34294  22.568  37.830   1.979
61227W        W34295  30.592  35.773   1.001
61228W        W34296  20.174   6.418   3.251
61229W        W34297  20.052   6.589   2.784
61230W        W34298  15.134  15.291   4.467
61231W        W34299  22.638  39.619  14.408
61232W        W34300  34.176  42.123   3.052
61233W        W34301   4.937  34.906  11.565
61234W        W34302  31.114  37.912  11.487
61235W        W34303  23.025   3.512   4.151
61236W        W34304  38.042  44.275   2.792
61237W        W34305  20.123   1.407  12.187
61238W        W34306   8.581  43.096   1.365
61239W        W34307  21.244  18.054   1.872
61240W        W34308  23.547   6.730  12.511
61241W        W34309   6.214   6.335   1.421
61242W        W34310   5.580  27.036  10.739
61243W        W34311  25.579   3.250  13.417
61244W        W34312   6.421  43.508  12.241
61245W        W34313  33.414   1.307   1.949
61246W        W34314   2.797  21.301   2.183
61247W        W34315  20.228   6.672   2.304
61248W        W34316  21.705   4.865  12.912
61249W        W34317  38.940  44.387   0.693
61250W        W34318  34.629   3.139  11.061
61251W        W34319  44.900   6.256  10.125
61252W        W34320  42.681  14.068   0.741
61253W        W34321  43.430  32.163  12.145
61254W        W34322   1.945   3.211   2.350
61255W        W34323  28.006   9.638  13.966
61256W        W34324   3.124  43.554  14.883
61257W        W34325   8.463  35.922  13.083
61258W        W34326  36.054  22.984  11.023
61259W        W34327  23.099   9.305   4.305
61260W        W34328  10.143  30.983  14.949
61261W        W34329  25.620   6.879   1.679
61262W        W34330   4.207  43.061  14.348
61263W        W34331  18.009  17.535  12.876
61264W        W34332  14.873  22.336   1.684
61265W        W34333  38.510  20.197  10.722
61266W        W34334  11.423  42.862  13.963
61267W        W34335   0.711  13.538  13.584
61268W        W34336  27.653  19.123  14.756
61269W        W34337  28.447  26.248  13.463
61270W        W34338  11.647  12.227  10.824
61271W        W34339   1.664  16.274   1.344
61272W        W34340   3.930  31.398   2.232
61273W        W34341  21.138  16.160   5.079
61274W        W34342  11.319  39.044   1.053
61275W        W34343  13.480  44.345   1.402
61276W        W34344   7.764  43.812   3.855
61277W        W34345  37.771  38.669  10.917
61278W        W34346  32.478   9.512  13.790
61279W        W34347   8.295   8.214   4.384
61280W        W34348  41.030  16.162   0.358
61281W        W34349   9.913  26.274  11.558
61282W        W34350  12.718  27.568  11.365
61283W        W34351  35.077  15.092  11.153
61284W        W34352  15.600  13.123   2.255
61285W        W34353   5.935  36.458  11.610
61286W        W34354  27.701  26.482   5.412
61287W        W34355  23.938   0.419  11.445
61288W        W34356  24.008  37.390   1.019
61289W        W34357  31.599  14.280  10.979
61290W        W34358   8.991  26.159   0.885
61291W        W34359  40.612  30.932  13.808
61292W        W34360  27.606  24.907  12.513
61293W        W34361  24.686  33.556  13.402
61294W        W34362  14.683  24.618  14.370
61295W        W34363  23.535  22.226   1.302
61296W        W34364  31.891  33.411   0.686
61297W        W34365  15.946  18.001   0.941
61298W        W34366  16.472   7.821   3.209
61299W        W34367  34.467   3.252  11.936
61300W        W34368   2.787  18.089   3.603
61301W        W34369  26.208  22.074  10.414
61302W        W34370  18.519  33.175   2.599
61303W        W34371  44.984  43.276  13.102
61304W        W34372  21.978  17.790   5.251
61305W        W34373  35.476   3.343  14.887
61306W        W34374  25.666   5.788   0.392
61307W        W34375  34.629  34.920  13.131
61308W        W34376  21.258  26.743   3.468
61309W        W34377  30.926  21.989  14.446
61310W        W34378  37.520  16.900   3.917
61311W        W34379  10.677   2.668  13.209
61312W        W34380  20.071   7.968   4.082
61313W        W34381  16.301   2.530   1.780
61314W        W34382  20.474  21.628   0.382
61315W        W34383  40.164  23.195  12.681
61316W        W34384   2.700  24.073   1.822
61317W        W34385  19.695  21.121  10.604
61318W        W34386   3.550  31.811   0.989
61319W        W34387  13.866  16.867   2.786
61320W        W34388  38.376  29.259   2.453
61321W        W34389  21.593  30.198  13.417
61322W        W34390  16.342  15.508  11.989
61323W        W34391  11.156  32.435   1.780
61324W        W34392  36.630  44.740   1.979
61325W        W34393   1.314  32.196   0.494
61326W        W34394   2.390  27.184   1.403
61327W        W34395  18.559   0.346  10.996
61328W        W34396  30.791   0.157   0.288
61329W        W34397   7.145  36.816   1.267
61330W        W34398   4.770  15.821   3.574
61331W        W34399  20.660  33.005   3.042
61332W        W34400  35.502  34.805  12.939
61333W        W34401  19.258  32.369   4.048
61334W        W34402  27.821  33.505  10.255
61335W        W34403  42.345  20.820  13.358
61336W        W34404  27.449   9.779   1.913
61337W        W34405  31.105  22.027  11.516
61338W        W34406  18.728   7.128  13.337
61339W        W34407  22.637  33.901   3.337
61340W        W34408  28.408  24.542  13.791
61341W        W34409  26.009  13.444  12.093
61342W        W34410  18.599  38.351  11.382
61343W        W34411  39.707  15.129   4.983
61344W        W34412  30.523  22.417  10.939
61345W        W34413  31.700  17.317   4.675
61346W        W34414  16.521   6.689   4.042
61347W        W34415  10.747  18.005   3.799
61348W        W34416  20.242  11.932  12.885
61349W        W34417   0.797  31.440   4.608
61350W        W34418   4.386  37.282   3.280
61351W        W34419  33.513  11.677  10.931
61352W        W34420  18.366  42.908   3.910
61353W        W34421   7.097  21.733   4.170
61354W        W34422  34.832  12.784  12.447
61355W        W34423  26.492  35.289   2.644
61356W        W34424   5.356  12.987   0.438
61357W        W34425   8.525   1.228  12.411
61358W        W34426  38.478  21.737  14.037
61359W        W34427  37.048  44.324  14.308
61360W        W34428  28.472  18.997  12.834
61361W        W34429   8.881   3.346  14.013
61362W        W34430  18.720  38.602  10.942
61363W        W34431  13.667  36.106  14.363
61364W        W34432  25.161  27.486  10.507
61365W        W34433  30.088   1.716   3.675
61366W        W34434  42.926  17.190   4.136
61367W        W34435  24.982  16.608  11.892
61368W        W34436   9.752  28.530   2.651
61369W        W34437  44.668  23.332   0.925
61370W        W34438  24.622  33.551   2.291
61371W        W34439  23.062  31.043  12.447
61372W        W34440  23.189  28.937  12.451
61373W        W34441   2.957  17.321  12.837
61374W        W34442  30.691  19.902   4.672
61375W        W34443  18.644  15.139   0.016
61376W        W34444   9.379  39.635   1.763
61377W        W34445  34.834  11.330   1.218
61378W        W34446  29.465   5.302  14.945
61379W        W34447  26.305  19.532   4.677
61380W        W34448  32.123  36.087   3.178
61381W        W34449  41.713  13.291   3.613
61382W        W34450  33.956  12.201  11.568
61383W        W34451  15.196  31.699   0.955
61384W        W34452  11.302  44.948   4.139
61385W        W34453  11.611  31.527  11.441
61386W        W34454  29.436  42.428   1.218
61387W        W34455  33.038  41.538   0.331
61388W        W34456  15.328  23.743  13.401
61389W        W34457  21.695  37.444   2.777
61390W        W34458  24.213  32.892  14.405
61391W        W34459  19.642  38.551  10.610
61392W        W34460  24.790  39.050   2.789
61393W        W34461  35.087  33.423   3.270
61394W        W34462  18.313  34.056   2.133
61395W        W34463  31.921  23.667  11.514
61396W        W34464  44.377  43.166  13.926
61397W        W34465   0.527  22.966   4.225
61398W        W34466   9.897   9.869  10.975
61399W        W34467  37.801  41.423  14.493
61400W        W34468   6.736  36.870   3.612
61401W        W34469  23.033  26.925   3.319
61402W        W34470  32.393  15.817  10.688
61403W        W34471  21.906  22.211  14.340
61404W        W34472  41.450  44.350   4.639
61405W        W34473  30.521   0.353  11.129
61406W        W34474  38.713   8.057  13.793
61407W        W34475  29.667  16.545  12.693
61408W        W34476  22.811   1.333  14.966
61409W        W34477  12.915   8.511   3.292
61410W        W34478  10.907  21.238   4.101
61411W        W34479   9.344  27.611   4.681
61412W        W34480  14.744  42.051   2.672
61413W        W34481  38.662  21.557  12.089
61414W        W34482  36.925  16.221   4.608
61415W        W34483  13.322  15.551  13.880
61416W        W34484  25.985  12.847  10.672
61417W        W34485  28.557  12.179   2.122
61418W        W34486  11.778  20.261   4.514
61419W        W34487  27.427  40.533  13.822
61420W        W34488  33.603   5.931   4.449
61421W        W34489  33.038  20.145   2.850
61422W        W34490  41.829  24.025  11.568
61423W        W34491  24.607  41.307  13.067
61424W        W34492  15.951  14.248   0.207
61425W        W34493  14.839  31.947  14.395
61426W        W34494  25.771   1.158   1.890
61427W        W34495  23.231  32.059  12.482
61428W        W34496  20.321  42.426   3.126
61429W        W34497  21.126  26.867   4.716
61430W        W34498  30.158  40.799   1.356
61431W        W34499  37.579   9.141   2.250
61432W        W34500  25.600  25.037   3.187
61433W        W34501  17.327  44.496   4.973
61434W        W34502  39.870  30.569   0.263
61435W        W34503   7.920  21.848   4.556
61436W        W34504  33.192   7.650  10.983
61437W        W34505  32.406   8.717   3.306
61438W        W34506  36.336  34.942   1.036
61439W        W34507  27.064  42.967   0.837
61440W        W34508   3.683  30.011  10.654
61441W        W34509   5.013  41.476  12.867
61442W        W34510  17.262  15.083   3.213
61443W        W34511  20.941  20.056  14.310
61444W        W34512  39.575  37.537   2.694
61445W        W34513  37.887   7.449   3.732
61446W        W34514  43.280  25.021  10.708
61447W        W34515   1.848  26.186   1.019
61448W        W34516  16.809   8.329  12.442
61449W        W34517  11.644  17.183   1.173
61450W        W34518  41.493  18.754   4.626
61451W        W34519  37.921  23.677   1.381
61452W        W34520  17.701  32.092   0.011
61453W        W34521  42.284   7.837   4.047
61454W        W34522  17.661  14.601  14.841
61455W        W34523  35.567  16.647  10.714
61456W        W34524  28.863  18.401   2.295
61457W        W34525  19.745  37.012   2.216
61458W        W34526  12.716  27.974  14.009
61459W        W34527   4.093  17.791   4.349
61460W        W34528  33.919  22.034   0.813
61461W        W34529  25.273  20.971  14.379
61462W        W34530  18.724  28.649   3.381
61463W        W34531  19.147  24.146   0.245
61464W        W34532  11.798  27.474  11.233
61465W        W34533  23.830  14.190  10.489
61466W        W34534   2.660   7.937   1.399
61467W        W34535  12.289  13.658  14.086
61468W        W34536  26.449  39.935  12.371
61469W        W34537  14.194  12.101  11.939
61470W        W34538  22.666  44.036  10.645
61471W        W34539   6.537  43.526   0.396
61472W        W34540  21.172  20.592  12.504
61473W        W34541  10.433  16.673   3.216
61474W        W34542  30.322   7.374  14.284
61475W        W34543  44.147  21.289  11.533
61476W        W34544  17.189   4.852  14.208
61477W        W34545  12.852  39.023   3.622
61478W        W34546  30.376  27.893  12.494
61479W        W34547   0.691  10.978  13.869
61480W        W34548  30.006   3.003   0.879
61481W        W34549   2.591  36.227   0.713
61482W        W34550  27.422  42.227   3.589
61483W        W34551  25.706   4.195  14.513
61484W        W34552  32.503  38.670  14.241
61485W        W34553  26.347  41.743   1.117
61486W        W34554  24.157   8.331  11.949
61487W        W34555  10.285  24.269   3.253
61488W        W34556  40.965  20.200  11.986
61489W        W34557  27.130  29.895  12.816
61490W        W34558   5.333   9.388   1.499
61491W        W34559  29.501  34.149   1.685
61492W        W34560  36.911  33.121   2.882
61493W        W34561   7.466  42.413   2.471
61494W        W34562  30.591  33.352   0.723
61495W        W34563  40.099  42.258   0.292
61496W        W34564  42.494   3.018  12.984
61497W        W34565  38.085  37.320   0.736
61498W        W34566   3.304  15.822  11.436
61499W        W34567  17.359  20.077   3.296
61500W        W34568  38.019  34.890  11.122
61501W        W34569  26.550  25.965   3.252
61502W        W34570  42.291  29.874   1.794
61503W        W34571  19.758  20.130   2.840
61504W        W34572  44.867  14.845   3.555
61505W        W34573  26.011  35.548   4.584
61506W        W34574  35.675  24.191   2.339
61507W        W34575  28.016   6.874  10.718
61508W        W34576  44.701  35.062   4.120
61509W        W34577  39.310  23.955  12.888
61510W        W34578   7.370  16.678  11.868
61511W        W34579  30.001   7.529   3.254
61512W        W34580  27.034   9.162  13.460
61513W        W34581   6.227  36.082   1.274
61514W        W34582  37.443  38.981  10.671
61515W        W34583  22.722  31.672   1.877
61516W        W34584  43.597  26.178  11.127
61517W        W34585   6.728   7.845  12.343
61518W        W34586  44.945  25.113  14.560
61519W        W34587   6.804  40.623   1.526
61520W        W34588  40.462  24.724  11.668
61521W        W34589  14.070  28.678  14.418
61522W        W34590  39.759  35.502   4.215
61523W        W34591  26.239  29.340   2.281
61524W        W34592  14.124  19.133  13.545
61525W        W34593  44.943  16.360  12.592
61526W        W34594  10.272   2.537   1.790
61527W        W34595  17.215   4.323  11.236
61528W        W34596  24.581  37.588  13.876
61529W        W34597  14.924   3.661   3.539
61530W        W34598  20.519  16.881  12.549
61531W        W34599  42.326  17.662   1.103
61532W        W34600  10.257   0.414   4.229
61533W        W34601  27.727  39.498  13.458
61534W        W34602  39.073  40.471  11.986
61535W        W34603  17.173  17.644  13.235
61536W        W34604  37.311   3.911  11.860
61537W        W34605  39.879  27.673   1.802
61538W        W34606  40.634   4.293  13.973
61539W        W34607   9.797  29.072   0.695
61540W        W34608   2.064  40.999   0.320
61541W        W34609   4.935  19.436   4.113
61542W        W34610  23.520   6.903   0.754
61543W        W34611  44.265  21.661  11.910
61544W        W34612  43.833  28.524  11.974
61545W        W34613  27.554   3.525   2.315
61546W        W34614  14.803  31.554   3.817
61547W        W34615  14.198  43.364   2.396
61548W        W34616   7.028  13.394  12.999
61549W        W34617  14.081  22.604  12.981
61550W        W34618  14.932  21.590   4.327
61551W        W34619  33.314   5.628  12.889
61552W        W34620   0.500  44.576  11.931
61553W        W34621  41.329   3.479   4.541
61554W        W34622  25.236  20.567   0.233
61555W        W34623  25.292  19.665   1.327
61556W        W34624  32.616   2.394  13.553
61557W        W34625   6.281   2.413  14.355
61558W        W34626  22.611  31.222  13.372
61559W        W34627  40.049  10.800   2.732
61560W        W34628  13.067  10.204  14.975
61561W        W34629   3.339   7.420  11.649
61562W        W34630  36.037   9.677  13.884
61563W        W34631  18.611  16.814   2.231
61564W        W34632  43.159   5.591  12.273
61565W        W34633   8.808  25.258   1.416
61566W        W34634   0.063  23.970   0.195
61567W        W34635  41.383  27.117  14.483
61568W        W34636   0.381  34.374  11.117
61569W        W34637  21.727  17.766  10.791
61570W        W34638  28.066  20.647   2.270
61571W        W34639  36.012  10.189   4.645
61572W        W34640  23.776   7.919   0.750
61573W        W34641  30.939  37.308   2.330
61574W        W34642  40.314  10.701  11.608
61575W        W34643   9.946  19.853  10.583
61576W        W34644   5.255   8.674  14.689
61577W        W34645   7.684  13.625  12.618
61578W        W34646  15.754  12.724  10.604
61579W        W34647   2.472  10.419   3.960
61580W        W34648  38.349  34.554   3.669
61581W        W34649  23.691   0.628  12.387
61582W        W34650  44.886  27.734  11.563
61583W        W34651  39.063  28.685   1.538
61584W        W34652  28.541  21.165  11.049
61585W        W34653  28.626  40.777  12.478
61586W        W34654  13.628  15.093  14.262
61587W        W34655  30.653  23.654  14.864
61588W        W34656  17.128  26.018  13.239
61589W        W34657  14.983  28.447  13.496
61590W        W34658  37.776  16.205  10.522
61591W        W34659  42.422   3.264  10.474
61592W        W34660  33.402  17.172  14.865
61593W        W34661  10.205   1.508   1.814
61594W        W34662   9.058   5.825  14.896
61595W        W34663  21.290  39.822  11.544
61596W        W34664  42.744  21.785  11.947
61597W        W34665  13.240  26.535  12.162
61598W        W34666   7.382  25.633   0.364
61599W        W34667   4.820   4.470   0.919
61600W        W34668   0.573  28.605  11.171
61601W        W34669  43.434  34.672  13.996
61602W        W34670  18.089  15.646  11.910
61603W        W34671  27.981  40.008  11.212
61604W        W34672  34.981  38.131  10.718
61605W        W34673  20.140   5.889  12.025
61606W        W34674  12.802  42.858   3.345
61607W        W34675  42.222  39.621   2.813
61608W        W34676  13.477  44.577   0.436
61609W        W34677  22.091  19.324  13.048
61610W        W34678  35.855  17.278  12.549
61611W        W34679  33.561  40.973  13.879
61612W        W34680  39.631  41.176  11.274
61613W        W34681  30.053  15.786   2.162
61614W        W34682  15.352  29.503   0.446
61615W        W34683  21.582  36.063   1.368
61616W        W34684  12.640  25.518   3.295
61617W        W34685  17.841   6.727   3.538
61618W        W34686  21.820  29.126   3.703
61619W        W34687   3.141   8.823  14.077
61620W        W34688   4.797  22.915  14.741
61621W        W34689  23.830  21.565  14.133
61622W        W34690   3.191  25.964   0.270
61623W        W34691   3.791  23.758  14.917
61624W        W34692  22.713  28.097   2.703
61625W        W34693  25.640  43.590   4.782
61626W        W34694  38.881  16.608  12.836
61627W        W34695  28.929   4.943  11.205
61628W        W34696  35.433  10.243  11.864
61629W        W34697  19.613   8.101  13.270
61630W        W34698  28.542   0.962  10.503
61631W        W34699  22.717   9.712   4.396
61632W        W34700  37.190  18.824   4.952
61633W        W34701  26.684  29.597   0.833
61634W        W34702   2.968  10.273   1.833
61635W        W34703  27.716   2.964  14.299
61636W        W34704  10.278  29.674  11.183
61637W        W34705   5.191   9.420  11.843
61638W        W34706  40.496  28.586   3.183
61639W        W34707  30.525   8.445   4.112
61640W        W34708  38.846  42.492   2.784
61641W        W34709   3.660  10.219  10.590
61642W        W34710   6.531  31.184   2.901
61643W        W34711  29.562   9.115   1.376
61644W        W34712  24.951  25.909  13.938
61645W        W34713  12.726  31.945  11.615
61646W        W34714  14.829  37.034  10.779
61647W        W34715  29.104  19.986  14.465
61648W        W34716  10.780   8.132  13.879
61649W        W34717  24.098  25.994   2.858
61650W        W34718  32.049  34.541  12.069
61651W        W34719  22.725  44.709  10.027
61652W        W34720  30.645  14.235  12.555
61653W        W34721  10.236  12.794   2.337
61654W        W34722   0.803  26.018   3.152
61655W        W34723  39.922  32.097  11.389
61656W        W34724  36.932  21.556   1.388
61657W        W34725  27.394   4.715   1.231
61658W        W34726  32.514   3.000   1.384
61659W        W34727  32.803   5.737  12.864
61660W        W34728   4.213  13.149   2.137
61661W        W34729  39.954  18.516   2.870
61662W        W34730  43.726  40.427  10.694
61663W        W34731  35.682  38.794  14.542
61664W        W34732  39.570  13.697  12.959
61665W        W34733   6.004  42.301  14.430
61666W        W34734  37.961  25.476  13.406
61667W        W34735   0.116  23.865   2.853
61668W        W34736   5.586  39.467  14.235
61669W        W34737  43.274  11.323   0.794
61670W        W34738   7.917  42.810   1.853
61671W        W34739  24.046  44.069   4.128
61672W        W34740  30.161  38.996  12.981
61673W        W34741  11.578  33.292  10.764
61674W        W34742  13.732   0.415   1.907
61675W        W34743  10.159   4.779   4.762
61676W        W34744   0.236  37.034  13.027
61677W        W34745  35.549  19.679   1.428
61678W        W34746  31.112  15.370   0.071
61679W        W34747  39.042   2.714  11.121
61680W        W34748  15.571  37.616   2.746
61681W        W34749  32.796   1.177  10.782
61682W        W34750   6.384  29.903  11.103
61683W        W34751  16.147  36.098   5.097
61684W        W34752  12.609  37.849   1.245
61685W        W34753   6.401  41.915   1.348
61686W        W34754  29.131  15.825  12.599
61687W        W34755  10.914  19.236  12.957
61688W        W34756   6.270  33.939  13.017
61689W        W34757  34.124  39.541   4.124
61690W        W34758  20.024  33.905   4.378
61691W        W34759  40.326  34.139   0.416
61692W        W34760  26.661  17.399   5.051
61693W        W34761   9.369  28.078   2.632
61694W        W34762  39.380   3.822   0.286
61695W        W34763  15.638   9.721   3.540
61696W        W34764  29.765  25.141   4.487
61697W        W34765  17.508  40.419  12.818
61698W        W34766  24.443  23.589   2.796
61699W        W34767  40.490   9.103   4.925
61700W        W34768  10.277   1.686  10.792
61701W        W34769  26.951  30.453   0.608
61702W        W34770  29.174  44.503   1.391
61703W        W34771  31.780  38.284  14.430
61704W        W34772  40.602  37.952  10.891
61705W        W34773   1.776  32.045   0.671
61706W        W34774  16.241  23.056   4.586
61707W        W34775  26.498  39.759  14.386
61708W        W34776   8.389  31.978  13.017
61709W        W34777  11.086   8.227  13.474
61710W        W34778  35.792  21.231   0.048
61711W        W34779   9.822  24.090   3.386
61712W        W34780  27.972  33.216  13.939
61713W        W34781  35.639  24.638  12.920
61714W        W34782  13.588  37.281  10.732
61715W        W34783  22.979  37.556   1.331
61716W        W34784  15.472  13.810  12.153
61717W        W34785  15.045  12.325  14.370
61718W        W34786   8.637   3.686   1.029
61719W        W34787  17.965   2.706   0.751
61720W        W34788  26.042  42.887  10.521
61721W        W34789  13.183  31.472  12.967
61722W        W34790  14.076  10.829   4.120
61723W        W34791  34.801  34.023  13.758
61724W        W34792  30.715   2.804   3.197
61725W        W34793  17.819  14.093  11.529
61726W        W34794  32.846  22.169  14.274
61727W        W34795   5.893   6.195   2.921
61728W        W34796  15.075  23.947  12.449
61729W        W34797  27.418  34.567  14.958
61730W        W34798   5.994   6.980  14.411
61731W        W34799   6.154  23.637  14.218
61732W        W34800   1.377  44.066   4.155
61733W        W34801  26.119   1.809   5.042
61734W        W34802  19.159  31.616   0.648
61735W        W34803  24.721   5.492   1.729
61736W        W34804   4.327  31.284  14.046
61737W        W34805  25.588  29.060  12.418
61738W        W34806  18.221  27.059   1.805
61739W        W34807  16.546  37.945   2.780
61740W        W34808   2.919  24.460   4.691
61741W        W34809  13.166  41.227  11.916
61742W        W34810   0.986   8.900   2.253
61743W        W34811  36.173  23.126  12.511
61744W        W34812  36.903  43.704  13.598
61745W        W34813  18.814  36.520   0.378
61746W        W34814   3.488  10.905   0.732
61747W        W34815  36.436  15.121   1.313
61748W        W34816   5.248  39.840   0.255
61749W        W34817  38.572  42.160  14.351
61750W        W34818   4.884  15.185  12.776
61751W        W34819  42.116  29.406  14.424
61752W        W34820   1.377  27.510   1.791
61753W        W34821  37.447  11.842  12.831
61754W        W34822  21.512   7.781  13.859
61755W        W34823  41.441  35.989   2.644
61756W        W34824  23.238  13.199   0.408
61757W        W34825   3.562  40.896  12.524
61758W        W34826  13.472  21.752  10.544
61759W        W34827  24.568  12.192   4.007
61760W        W34828   5.803  30.406   0.261
61761W        W34829   4.424  18.076  11.648
61762W        W34830   6.201  23.992  13.131
61763W        W34831  20.251  28.896  11.993
61764W        W34832  14.228  41.210  11.592
61765W        W34833  15.145  19.554   2.701
61766W        W34834  24.586  44.855   0.300
61767W        W34835  34.952   7.049   9.872
61768W        W34836  21.638  11.375  14.611
61769W        W34837  13.293   6.175   4.643
61770W        W34838   3.879  21.724   3.331
61771W        W34839  36.756  39.510  13.063
61772W        W34840   6.303  31.858   1.603
61773W        W34841  29.467  34.834   0.769
61774W        W34842  34.093  19.923   4.616
61775W        W34843  24.592  31.913   4.599
61776W        W34844  38.543  16.937   3.303
61777W        W34845  43.358  35.047  14.948
61778W        W34846  13.853   9.345   2.335
61779W        W34847  32.809  10.767  14.294
61780W        W34848   3.658  32.557  13.488
61781W        W34849  26.963  44.554  10.686
61782W        W34850   1.496   8.344   3.681
61783W        W34851  20.916  37.944  12.400
61784W        W34852  24.004   2.372  14.449
61785W        W34853   8.733  36.546   3.130
61786W        W34854  22.547  29.494   3.506
61787W        W34855  14.668  32.998   4.624
61788W        W34856  18.478  27.472  10.672
61789W        W34857  28.373  16.131   3.760
61790W        W34858  28.659  27.565  14.403
61791W        W34859  26.556  38.016  12.434
61792W        W34860  15.334  35.559   0.043
61793W        W34861  33.100   7.777  13.531
61794W        W34862  32.591  17.106   4.177
61795W        W34863  38.498  17.263  13.301
61796W        W34864  18.187  14.613  10.687
61797W        W34865  14.184  13.619   0.200
61798W        W34866  34.841  24.549   2.238
61799W        W34867   3.885  38.885   2.731
61800W        W34868   4.063  18.049   1.791
61801W        W34869  18.359  27.993   5.118
61802W        W34870  43.716  33.818  14.008
61803W        W34871  10.576  16.524  12.339
61804W        W34872  43.689  43.524   1.012
61805W        W34873   8.275  33.742   3.733
61806W        W34874  37.303  35.347   3.533
61807W        W34875  13.934  17.551  14.868
61808W        W34876  11.612  22.811   0.779
61809W        W34877  40.337  12.918  11.553
61810W        W34878  11.686   7.682   3.315
61811W        W34879  39.419  13.165   4.089
61812W        W34880   7.889  19.079  11.025
61813W        W34881  10.658  16.013  12.367
61814W        W34882   7.685  27.132  10.787
61815W        W34883  20.792  10.167   2.229
61816W        W34884  23.446  34.643   3.680
61817W        W34885  11.959  17.099   1.584
61818W        W34886  20.611  40.987  11.875
61819W        W34887  30.341   4.789   3.041
61820W        W34888  33.561  35.971   4.897
61821W        W34889   0.292  19.049   2.256
61822W        W34890  21.126  43.246   0.280
61823W        W34891  17.565  12.092   3.158
61824W        W34892  10.783  22.961   2.136
61825W        W34893  44.966  22.110   2.916
61826W        W34894  18.736  15.821   5.019
61827W        W34895  15.685  42.460   1.709
61828W        W34896  24.698   5.733   0.003
61829W        W34897  25.640  26.059  12.550
61830W        W34898   1.901  36.322  13.018
61831W        W34899  43.767  34.877   0.863
61832W        W34900  39.352  36.301   2.485
61833W        W34901  35.084  40.613  12.792
61834W        W34902  23.506   5.746   4.527
61835W        W34903  41.384  42.926   1.892
61836W        W34904  14.541  36.644  12.831
61837W        W34905  16.810   6.336  14.998
61838W        W34906  21.844   4.379  12.352
61839W        W34907   3.370  23.229  14.945
61840W        W34908   9.680  41.218   0.097
61841W        W34909  37.095  33.877  11.112
61842W        W34910  25.824  24.917   4.241
61843W        W34911   5.924  40.954   1.652
61844W        W34912  12.118  20.991   3.653
61845W        W34913  14.276  10.584  12.061
61846W        W34914  10.327   2.093   0.001
61847W        W34915  37.494  10.759   0.898
61848W        W34916  31.905  18.224   3.753
61849W        W34917  35.806   1.775   3.663
61850W        W34918  25.073  44.399  10.707
61851W        W34919  22.330  35.589   0.934
61852W        W34920  42.312  37.867  10.378
61853W        W34921   3.920  23.286   5.258
61854W        W34922  14.637  37.511  12.898
61855W        W34923  27.476  40.337  13.354
61856W        W34924  13.228  28.945   4.183
61857W        W34925  13.314  23.073  13.853
61858W        W34926  19.498  32.289  12.186
61859W        W34927   0.036   5.937  13.648
61860W        W34928  22.204   0.674  14.480
61861W        W34929   0.495  44.031   3.195
61862W        W34930  13.759  24.864  12.079
61863W        W34931  19.131  36.762   2.766
61864W        W34932  26.466   2.737   1.901
61865W        W34933  31.332  28.278   2.809
61866W        W34934  40.087   4.564   1.239
61867W        W34935   5.376  38.516   2.752
61868W        W34936  37.052   7.468   3.300
61869W        W34937  25.918   6.711  13.862
61870W        W34938   3.873  19.538   0.836
61871W        W34939  37.450  43.703   4.351
61872W        W34940  17.134  10.247   3.235
61873W        W34941  10.226  31.848  14.492
61874W        W34942   0.841   7.398   9.967
61875W        W34943  35.729  14.976  12.519
61876W        W34944  16.539  37.308   0.465
61877W        W34945  23.136  43.994  11.572
61878W        W34946  44.691  43.141  14.436
61879W        W34947  28.998   3.545  14.250
61880W        W34948  21.463  24.685  12.866
61881W        W34949   4.696  21.590   1.346
61882W        W34950  20.256  16.778   2.283
61883W        W34951  34.029  21.728   3.892
61884W        W34952  32.200  12.733  11.950
61885W        W34953  36.423  21.971   2.885
61886W        W34954  16.771  10.806   4.540
61887W        W34955  10.609  41.458  13.276
61888W        W34956  32.441  10.756   0.825
61889W        W34957  17.238  14.551   0.156
61890W        W34958   3.014  44.252   1.193
61891W        W34959  37.337   9.969   2.309
61892W        W34960  29.498  19.626   5.054
61893W        W34961  29.194   5.589   0.291
61894W        W34962  32.051  42.331   0.346
61895W        W34963  39.841  39.925   1.942
61896W        W34964  20.249  25.932  12.465
61897W        W34965  35.869  44.490   1.533
61898W        W34966   6.457  39.315   4.874
61899W        W34967  23.473  26.105   2.115
61900W        W34968  36.137  30.314  11.391
61901W        W34969  22.987  13.649   2.886
61902W        W34970  35.116  37.966  14.475
61903W        W34971  38.884  11.858  14.005
61904W        W34972  37.150  36.938  12.911
61905W        W34973  22.653  19.063  10.349
61906W        W34974  20.411   4.538  14.768
61907W        W34975  16.667  35.809  13.449
61908W        W34976  17.663  30.974  12.322
61909W        W34977  13.630  20.485   2.426
61910W        W34978  32.049  14.728   0.871
61911W        W34979   3.744  37.577  12.138
61912W        W34980   0.870  26.184  12.632
61913W        W34981  32.947  39.746   3.724
61914W        W34982   9.906  16.831  14.842
61915W        W34983  14.247  28.482  13.169
61916W        W34984  18.288  19.739   2.460
61917W        W34985  21.037   9.809  14.072
61918W        W34986  17.583  35.984   0.803
61919W        W34987  19.249  18.776  14.485
61920W        W34988  32.075  19.277   2.648
61921W        W34989  39.741  43.839   4.243
61922W        W34990  39.755  10.266   2.324
61923W        W34991  39.052  16.808   2.738
61924W        W34992  26.904  16.302   2.422
61925W        W34993  33.675  42.952  14.963
61926W        W34994  34.776   7.288  11.066
61927W        W34995   5.892  18.613   4.930
61928W        W34996  15.188  43.041   1.532
61929W        W34997  25.936  12.657   0.901
61930W        W34998  25.806  38.637   1.447
61931W        W34999  10.038   9.846   3.254
61932W        W35000   4.245  36.789   3.156
61933W        W35001  44.685   7.373   4.777
61934W        W35002  35.911  13.821   0.263
61935W        W35003  35.995  25.414   4.606
61936W        W35004   5.321   8.787  10.783
61937W        W35005  26.541   4.709   1.814
61938W        W35006  21.043  32.981  12.177
61939W        W35007  34.321   2.702  11.135
61940W        W35008  11.774  30.278  12.898
61941W        W35009  22.231   0.754  10.599
61942W        W35010   7.963  41.809  11.541
61943W        W35011  28.687   8.341   0.356
61944W        W35012  27.223  28.256   3.290
61945W        W35013  28.898  18.941   2.301
61946W        W35014  13.762  35.040  13.859
61947W        W35015  32.585  27.046   0.977
61948W        W35016  14.627   8.776   2.261
61949W        W35017  10.182  34.155   4.181
61950W        W35018  12.227  25.406   1.219
61951W        W35019  15.235  19.416  11.475
61952W        W35020  34.647   2.992   1.323
61953W        W35021  27.706   2.337   4.723
61954W        W35022  11.654   7.919   0.801
61955W        W35023  34.900  24.962   3.868
61956W        W35024  13.763  43.492  14.530
61957W        W35025  33.970  41.546  10.860
61958W        W35026  18.183  42.240   0.465
61959W        W35027  36.832  38.536  13.920
61960W        W35028   0.457  10.623   4.731
61961W        W35029  32.898  35.059   3.637
61962W        W35030  34.445  23.542  11.195
61963W        W35031  13.866  41.927  14.346
61964W        W35032  18.092  25.573  11.526
61965W        W35033   2.921  44.383  12.654
61966W        W35034  25.787  14.091  10.009
61967W        W35035  31.536   4.950  13.077
61968W        W35036  34.965   0.950  10.188
61969W        W35037  15.836  10.412  14.945
61970W        W35038  14.746  36.512   1.148
61971W        W35039  33.023  29.431   1.705
61972W        W35040  19.958  37.899   4.846
61973W        W35041  32.125   6.861  10.707
61974W        W35042  23.739  38.861  10.471
61975W        W35043  44.715   4.280  11.957
61976W        W35044  44.717   4.528  12.978
61977W        W35045  24.999  10.285   4.232
61978W        W35046  27.631  28.232  12.637
61979W        W35047  17.846  44.588  10.591
61980W        W35048  33.087  39.790  13.478
61981W        W35049  23.709  38.731   4.532
61982W        W35050   2.453  22.505   4.618
61983W        W35051  15.238  24.248   1.172
61984W        W35052  39.395  21.038  13.247
61985W        W35053  39.026  23.471  10.332
61986W        W35054  15.586  40.002  14.038
61987W        W35055  40.022  24.047   3.460
61988W        W35056  33.855  36.995  13.976
61989W        W35057  10.955   6.283  12.455
61990W        W35058  17.620  11.291   4.251
61991W        W35059  33.443  14.791   1.909
61992W        W35060  30.642  14.204  11.593
61993W        W35061  26.184  16.519  14.892
61994W        W35062  33.971  10.420  12.995
61995W        W35063  14.821  23.539  12.589
61996W        W35064  20.146  17.088   4.741
61997W        W35065  12.255  23.662   4.828
61998W        W35066  28.848  42.000  14.054
61999W        W35067  35.978  42.428   3.269
62000W        W35068   3.515  11.791  13.053
62001W        W35069  19.958  35.802   4.504
62002W        W35070  36.973  43.528   4.231
62003W        W35071  28.419  14.850  13.085
62004W        W35072   2.378  44.372  12.398
62005W        W35073  14.208  23.044   3.780
62006W        W35074  44.001   7.309   1.653
62007W        W35075  41.004  36.087  13.066
62008W        W35076   8.195   0.059   2.065
62009W        W35077  41.842  44.278  11.443
62010W        W35078  22.971  42.591   2.829
62011W        W35079   3.666  23.003   0.310
62012W        W35080  20.628  29.857  12.024
62013W        W35081  28.084  19.757   4.203
62014W        W35082   2.942  11.786  10.577
62015W        W35083   0.814  27.629  12.014
62016W        W35084  22.609   0.026  13.020
62017W        W35085   1.390  32.343   0.985
62018W        W35086  13.790  38.090  12.025
62019W        W35087  32.030  23.265  10.543
62020W        W35088  25.292  39.071   2.785
62021W        W35089  10.764  43.467   0.642
62022W        W35090  10.204   6.300   2.237
62023W        W35091  38.616  33.116  12.538
62024W        W35092  40.120  26.656  13.807
62025W        W35093   8.448  15.188  13.125
62026W        W35094  32.403  25.745  10.684
62027W        W35095  41.936  30.369  12.847
62028W        W35096  24.278  29.476  10.883
62029W        W35097   9.858  28.088  10.590
62030W        W35098  19.716  24.459  11.991
62031W        W35099  29.933  16.772   3.205
62032W        W35100  26.638  34.400  14.315
62033W        W35101   2.563  12.798   1.569
62034W        W35102   0.680   9.644  11.957
62035W        W35103  18.163   6.431  10.803
62036W        W35104  33.082  14.043  14.323
62037W        W35105  13.790   0.722  14.149
62038W        W35106  18.626  39.871   3.644
62039W        W35107   7.440  16.221  13.325
62040W        W35108  40.076   5.295   0.187
62041W        W35109  18.698  22.030  12.961
62042W        W35110  31.186  29.126   4.829
62043W        W35111  25.056  20.045   2.335
62044W        W35112  40.866   6.357   5.503
62045W        W35113  12.107   0.401  12.491
62046W        W35114  33.537  38.836  12.831
62047W        W35115  37.503   8.433  14.044
62048W        W35116  31.884  16.249   0.823
62049W        W35117  26.503  26.793   4.175
62050W        W35118  37.107  41.852  11.394
62051W        W35119  23.109  20.738   4.847
62052W        W35120   1.290  32.555   0.110
62053W        W35121  21.079  20.780   2.829
62054W        W35122  28.432  41.296   0.769
62055W        W35123  34.150  42.021  11.004
62056W        W35124  44.432  20.362  13.020
62057W        W35125  11.356   4.838   2.219
62058W        W35126  39.367  30.669   1.416
62059W        W35127  12.743  24.772  10.714
62060W        W35128   5.324  27.080   1.276
62061W        W35129  18.985  43.056  11.489
62062W        W35130   7.725  19.018   0.301
62063W        W35131  38.758  24.547  10.394
62064W        W35132  43.314  44.758   3.645
62065W        W35133  18.771  22.910   2.699
62066W        W35134  15.732  16.013   3.892
62067W        W35135   9.613   6.269  13.536
62068W        W35136  12.815   3.318  14.883
62069W        W35137   9.240  17.860   0.381
62070W        W35138  14.257  38.454   3.724
62071W        W35139  35.602  33.817   4.592
62072W        W35140  31.668  17.249  13.097
62073W        W35141   4.464  17.179  12.024
62074W        W35142   5.180  27.911  13.080
62075W        W35143   6.680  21.754  11.537
62076W        W35144  36.120   6.940  11.053
62077W        W35145  15.397  44.538  13.502
62078W        W35146  24.145   5.422   4.238
62079W        W35147   8.807  21.302   0.412
62080W        W35148   2.414   2.537   3.450
62081W        W35149  26.641  23.266   2.098
62082W        W35150  13.176  15.611  10.737
62083W        W35151   4.778  24.444   2.105
62084W        W35152  41.750  40.898  14.275
62085W        W35153  10.704  32.529   0.468
62086W        W35154  21.489   6.891   4.583
62087W        W35155  18.456  38.787   2.938
62088W        W35156  26.909  23.962   4.823
62089W        W35157  40.599   3.129  14.649
62090W        W35158  12.399   1.567  13.128
62091W        W35159  42.424  15.748   5.270
62092W        W35160  26.002  10.261  12.406
62093W        W35161  11.218  43.904  12.505
62094W        W35162  35.917  22.275   1.579
62095W        W35163   6.159  10.188   3.502
62096W        W35164   7.679  10.906  14.860
62097W        W35165  17.635   9.625   0.933
62098W        W35166  20.474  34.885  12.572
62099W        W35167   5.739  20.465  13.966
62100W        W35168  15.817  20.580   0.460
62101W        W35169  13.302  22.947  12.749
62102W        W35170   9.844  16.468   5.100
62103W        W35171   2.922  11.697   0.042
62104W        W35172  32.407  23.205  12.049
62105W        W35173  21.155  19.765  14.741
62106W        W35174  34.339  16.612   0.053
62107W        W35175  35.328  22.066  10.567
62108W        W35176  32.152   5.489  12.487
62109W        W35177  35.032  14.263  14.350
62110W        W35178  43.003  13.249   1.581
62111W        W35179  42.471  19.241  13.821
62112W        W35180  23.558  21.826   2.211
62113W        W35181  22.488   5.871   4.687
62114W        W35182  30.390  22.565   4.081
62115W        W35183  37.273  30.338   0.968
62116W        W35184  18.192  23.507  12.459
62117W        W35185  18.783  41.902  10.973
62118W        W35186  25.586  20.524  11.173
62119W        W35187  16.687  20.019   2.671
62120W        W35188  18.079   9.834   3.268
62121W        W35189  19.335  13.675   2.185
62122W        W35190  39.790  38.536   4.143
62123W        W35191   1.462  25.687   3.222
62124W        W35192  29.416  12.318  13.830
62125W        W35193  22.098  15.077   2.183
62126W        W35194  29.658   3.522   1.812
62127W        W35195  30.184  40.536  11.527
62128W        W35196  10.212  34.663   4.151
62129W        W35197   3.494  44.017  12.451
62130W        W35198  16.257  20.279   1.344
62131W        W35199  42.279  14.019  12.534
62132W        W35200  35.376  43.393  13.842
62133W        W35201  17.065  29.932   3.659
62134W        W35202   4.023   1.332   2.369
62135W        W35203   7.741  20.797  10.622
62136W        W35204   0.446  42.319   1.678
62137W        W35205   6.811  41.988  12.485
62138W        W35206  14.854   0.493   4.343
62139W        W35207  31.114  35.788   0.935
62140W        W35208  32.164  22.518   0.891
62141W        W35209  33.065  32.066  14.324
62142W        W35210  34.506  27.624   1.798
62143W        W35211  14.853   0.792   2.412
62144W        W35212  22.468  15.595  10.526
62145W        W35213  13.796  14.419   3.796
62146W        W35214  41.442  12.138  12.016
62147W        W35215  12.485  35.753   1.911
62148W        W35216   3.423  44.731  13.762
62149W        W35217   8.683  43.276  12.045
62150W        W35218   7.900   2.028  14.312
62151W        W35219   0.350  44.908   0.806
62152W        W35220  16.300  34.341  13.263
62153W        W35221  30.882   9.884   4.076
62154W        W35222  43.531  11.767   4.595
62155W        W35223  30.027  20.932   4.604
62156W        W35224  43.889  38.131  13.580
62157W        W35225  36.100   6.164   3.656
62158W        W35226   4.109   2.796  12.909
62159W        W35227  42.338  16.600  14.256
62160W        W35228  33.880  10.614   3.700
62161W        W35229  43.389  31.895  10.716
62162W        W35230   1.332   7.662   0.975
62163W        W35231  38.369  26.394  12.550
62164W        W35232  34.538   7.109  11.491
62165W        W35233  24.494   6.113   3.547
62166W        W35234  25.257  41.506  10.893
62167W        W35235  13.628   6.185  14.253
62168W        W35236  17.653  35.366   1.249
62169W        W35237  35.076   5.237   3.657
62170W        W35238  13.845  43.640   1.246
62171W        W35239  37.768  35.370   1.209
62172W        W35240  42.801  12.335  11.887
62173W        W35241   3.767  42.794   2.191
62174W        W35242  44.818  17.445   4.252
62175W        W35243  14.154  19.171  11.144
62176W        W35244   0.985  22.150   0.521
62177W        W35245  41.623   7.303   2.093
62178W        W35246   2.673   6.947   1.388
62179W        W35247  14.632   7.220   0.478
62180W        W35248   9.462  42.239  12.473
62181W        W35249  19.322  40.438   4.578
62182W        W35250   5.184  15.652   0.503
62183W        W35251  27.098  40.508   2.843
62184W        W35252  31.726  35.125  12.901
62185W        W35253  35.932  21.018   0.944
62186W        W35254  39.907  22.668  12.590
62187W        W35255   6.143  35.745  11.010
62188W        W35256   3.390  13.695   0.142
62189W        W35257  13.793   1.768  13.847
62190W        W35258  10.218  39.544  13.470
62191W        W35259  24.735  11.154  14.984
62192W        W35260  42.412  25.483  13.334
62193W        W35261  38.131   8.015  12.651
62194W        W35262   1.088  44.767  10.948
62195W        W35263  16.017   1.871   2.570
62196W        W35264  35.148   9.777  11.901
62197W        W35265  15.852   3.693  10.560
62198W        W35266  12.014  29.054  14.984
62199W        W35267  32.362  18.862   0.907
62200W        W35268   3.278   0.735   2.486
62201W        W35269   8.866  26.731   5.077
62202W        W35270  16.227  35.073   4.703
62203W        W35271  32.444  12.300  14.729
62204W        W35272  41.418  44.288   3.631
62205W        W35273  32.434  28.153  13.493
62206W        W35274  11.734  10.168  11.683
62207W        W35275  17.186  19.458  13.297
62208W        W35276  42.967  42.550  11.028
62209W        W35277  31.531  42.843  11.200
62210W        W35278  15.322  43.980  11.094
62211W        W35279  39.089  31.931  10.952
62212W        W35280  23.337   4.118   1.163
62213W        W35281  11.211   4.009  11.556
62214W        W35282  32.458  10.402   4.752
62215W        W35283  43.868  40.586  11.593
62216W        W35284  14.777  42.042   0.893
62217W        W35285  31.242   9.716   0.387
62218W        W35286   0.083  16.378   1.749
62219W        W35287   4.689  13.047   3.812
62220W        W35288  37.916  23.277   3.265
62221W        W35289  23.010  24.457  12.715
62222W        W35290  37.557  17.594   2.700
62223W        W35291   3.204  23.654   0.758
62224W        W35292   0.037  40.235   3.818
62225W        W35293  15.900  15.604  10.734
62226W        W35294   0.928   1.893  12.788
62227W        W35295   3.910  33.284  11.633
62228W        W35296  35.796  43.508   4.556
62229W        W35297   2.803   1.469   3.595
62230W        W35298  11.696   2.542  14.319
62231W        W35299  31.720  34.648  13.042
62232W        W35300  15.740  24.239   2.246
62233W        W35301  10.898   5.404   0.925
62234W        W35302  40.531  21.946   2.291
62235W        W35303   3.349   7.341   1.475
62236W        W35304  37.593  42.294   3.333
62237W        W35305  11.254  27.449   2.272
62238W        W35306  15.091   3.930  14.736
62239W        W35307  25.133  31.179   3.757
62240W        W35308  27.438  43.921   4.564
62241W        W35309   7.014  41.237  12.756
62242W        W35310   2.910  19.904  11.367
62243W        W35311  40.137   7.636  10.641
62244W        W35312  31.083  38.965   3.618
62245W        W35313  10.829   7.285  13.398
62246W        W35314   9.850  33.479  13.412
62247W        W35315   6.669   7.953  10.810
62248W        W35316  30.148  37.572  10.716
62249W        W35317  17.788  41.932  13.459
62250W        W35318   0.768  44.840   3.843
62251W        W35319  18.638  27.647   3.628
62252W        W35320  16.799  12.723  12.613
62253W        W35321  15.250  35.480  13.061
62254W        W35322  36.042  44.974   1.256
62255W        W35323   4.298  43.007   0.296
62256W        W35324  37.872  16.418   0.975
62257W        W35325  27.911  16.784   4.144
62258W        W35326  13.141  26.085  12.990
62259W        W35327  19.074  34.824  14.970
62260W        W35328  18.144   4.415   1.833
62261W        W35329  42.404  36.899  14.343
62262W        W35330  12.406  19.319   4.409
62263W        W35331  23.864  23.795  11.657
62264W        W35332  17.218  38.228  14.378
62265W        W35333  10.914  31.455  11.106
62266W        W35334  42.377  36.864  10.588
62267W        W35335  14.764  38.470   0.398
62268W        W35336   4.304  24.150  13.568
62269W        W35337  22.547  33.890   5.144
62270W        W35338  32.083  44.492  12.640
62271W        W35339  42.365  10.315  13.372
62272W        W35340  37.917  31.029  10.774
62273W        W35341  35.413  21.314   4.565
62274W        W35342   6.186  10.701  14.048
62275W        W35343  10.293  17.186   4.104
62276W        W35344  42.892  41.280   0.122
62277W        W35345  33.906  30.406  10.553
62278W        W35346  27.629  33.081   4.845
62279W        W35347  27.389  25.134   2.766
62280W        W35348   0.536  33.564   3.195
62281W        W35349  25.141  24.904   2.222
62282W        W35350   1.404  31.113   2.705
62283W        W35351  43.723  37.555  12.490
62284W        W35352  22.912  19.057   4.700
62285W        W35353  26.491  11.225  14.938
62286W        W35354  24.643   9.614   1.266
62287W        W35355  35.499  22.289   2.490
62288W        W35356  30.039  16.071   2.687
62289W        W35357  31.982  27.016   1.821
62290W        W35358  34.412  29.540  10.658
62291W        W35359  33.060   7.881   4.276
62292W        W35360  39.057  14.604   0.407
62293W        W35361  44.974  16.331  13.608
62294W        W35362  37.785   2.548  12.917
62295W        W35363  12.797  15.298   4.683
62296W        W35364  10.657  34.781   0.374
62297W        W35365   9.699  29.387  12.414
62298W        W35366   1.370  43.603  10.606
62299W        W35367   5.184  12.751  13.881
62300W        W35368  16.761  13.240  11.868
62301W        W35369  21.107  23.043   4.723
62302W        W35370  13.383   4.467   1.475
62303W        W35371  30.502  35.188   1.835
62304W        W35372  33.058   9.165   1.346
62305W        W35373  23.470  39.329  14.703
62306W        W35374  40.217  25.120   0.409
62307W        W35375  32.487  14.340   0.255
62308W        W35376  27.388  31.156   2.537
62309W        W35377  18.079  39.906  12.273
62310W        W35378  29.921  37.860   1.022
62311W        W35379  28.097  37.579   4.706
62312W        W35380  10.182  28.151   0.495
62313W        W35381  16.255   2.282   2.783
62314W        W35382  44.535  39.935  11.596
62315W        W35383  12.832  11.812   2.786
62316W        W35384  11.911  20.820  12.512
62317W        W35385  21.206   6.449   4.653
62318W        W35386  43.177  17.940   3.781
62319W        W35387  43.492  41.762   3.795
62320W        W35388  31.264  41.173   4.170
62321W        W35389   5.514  21.343  14.831
62322W        W35390   1.497  41.242  12.348
62323W        W35391  15.740   5.609  11.811
62324W        W35392  37.994  17.305   4.357
62325W        W35393  18.551  44.396  14.319
62326W        W35394  16.466  23.760  11.635
62327W        W35395  10.183  21.679   1.924
62328W        W35396  22.125  14.384   1.172
62329W        W35397  37.153  21.426   3.671
62330W        W35398   7.717  22.752   0.901
62331W        W35399  12.736  23.535  10.927
62332W        W35400  30.064  33.561  11.662
62333W        W35401   6.763  26.981   0.452
62334W        W35402  44.517  39.444  11.991
62335W        W35403  27.946  19.089  11.233
62336W        W35404  39.895   2.392  11.687
62337W        W35405   8.266  13.107   0.270
62338W        W35406   5.365  17.191  12.382
62339W        W35407  21.155   2.847  11.828
62340W        W35408  41.798  25.774   1.533
62341W        W35409  38.255   3.495  12.081
62342W        W35410  18.587  12.361  10.184
62343W        W35411  19.435  33.111  11.674
62344W        W35412  23.698  32.972  14.589
62345W        W35413  17.662   5.407   4.720
62346W        W35414  15.105  27.708  12.672
62347W        W35415  21.126  24.210   0.405
62348W        W35416  22.566  29.124   2.192
62349W        W35417  27.999  30.052  12.027
62350W        W35418  15.890  33.755   2.259
62351W        W35419  30.404  19.003  13.577
62352W        W35420  42.359  12.166   3.888
62353W        W35421  33.643  33.000   1.641
62354W        W35422   7.814  18.828   4.602
62355W        W35423   4.963   7.340  12.757
62356W        W35424  17.306  42.040   4.230
62357W        W35425   5.492   3.426   0.507
62358W        W35426  10.011   9.405   0.156
62359W        W35427   3.404  11.751  12.067
62360W        W35428  41.757  36.663  13.565
62361W        W35429  13.644   7.845  11.104
62362W        W35430  35.814   2.381   4.306
62363W        W35431   9.791   9.267   4.738
62364W        W35432  15.258  40.400  13.942
62365W        W35433  10.677  11.130  12.888
62366W        W35434  34.100  37.044   3.301
62367W        W35435  15.952  13.621  12.086
62368W        W35436  34.448  14.475   1.334
62369W        W35437  41.054  11.634   1.861
62370W        W35438  37.314  16.675  12.013
62371W        W35439  43.892  13.143  13.762
62372W        W35440   3.912   1.963   2.781
62373W        W35441  44.192  39.952  12.917
62374W        W35442   7.730  20.114  13.829
62375W        W35443  19.981   6.128  14.281
62376W        W35444  27.043  32.105   3.355
62377W        W35445  44.274  26.663  10.108
62378W        W35446  43.980  14.218  13.624
62379W        W35447  33.899   8.905  12.883
62380W        W35448  21.117  25.419   2.282
62381W        W35449  32.046  32.968  11.616
62382W        W35450  19.291  19.077   3.501
62383W        W35451  18.686   1.132  10.679
62384W        W35452   9.149  41.466   2.302
62385W        W35453  33.614  39.528   4.210
62386W        W35454  25.232  22.453  14.500
62387W        W35455  20.124   4.931  12.164
62388W        W35456  10.723  22.182   2.779
62389W        W35457   2.178   4.990  11.043
62390W        W35458  19.568  14.679  11.950
62391W        W35459   0.910   1.644  12.359
62392W        W35460  40.268  23.680  14.872
62393W        W35461  32.580  15.686   1.518
62394W        W35462  10.974  17.562   4.507
62395W        W35463  44.297  26.422   1.302
62396W        W35464   4.372  35.634   4.205
62397W        W35465  17.057  29.599  14.023
62398W        W35466  40.977  26.957  12.915
62399W        W35467  28.890  11.850  14.244
62400W        W35468   9.805  30.898  12.485
62401W        W35469  20.246  29.970   1.665
62402W        W35470  29.505  29.081  10.695
62403W        W35471  22.731  25.515   4.224
62404W        W35472   0.722  15.272   0.806
62405W        W35473   5.450  32.963   3.902
62406W        W35474   0.483  15.078  11.913
62407W        W35475  43.431   5.918   3.106
62408W        W35476  32.817   4.235  13.494
62409W        W35477  41.478   8.313  12.875
62410W        W35478  40.795  19.237  11.182
62411W        W35479   0.448  27.371  10.685
62412W        W35480  16.674   9.168  11.115
62413W        W35481  15.301  29.449   3.306
62414W        W35482  43.313  15.411   1.866
62415W        W35483  28.538  23.401   4.248
62416W        W35484  20.072  26.154  14.745
62417W        W35485  30.356   2.822  13.304
62418W        W35486  14.339  23.065  14.761
62419W        W35487  13.355  24.709  12.388
62420W        W35488  40.074  30.893   1.188
62421W        W35489   3.222  33.641   2.408
62422W        W35490   9.181   9.137  12.528
62423W        W35491  43.021  13.671   0.792
62424W        W35492  19.623  14.531  12.839
62425W        W35493  16.063  44.193   0.025
62426W        W35494  22.040  42.262   3.736
62427W        W35495  32.548  39.413   3.571
62428W        W35496  36.263  17.403   0.285
62429W        W35497  39.937  43.901  10.617
62430W        W35498   3.406  15.798   4.006
62431W        W35499  15.041  23.948   3.965
62432W        W35500   8.240  17.546  11.086
62433W        W35501  23.453  35.392  13.735
62434W        W35502  37.186  41.048   1.037
62435W        W35503  22.786  42.674   0.890
62436W        W35504  38.805  25.582   4.086
62437W        W35505   8.142  14.525  14.950
62438W        W35506  29.018   9.643   4.027
62439W        W35507  44.341  35.656   4.678
62440W        W35508  29.046  10.834   0.637
62441W        W35509  21.504  40.952  14.313
62442W        W35510   9.839   0.233   1.450
62443W        W35511   9.115   9.296   2.801
62444W        W35512   4.726  12.453  12.057
62445W        W35513  29.640   1.536   2.854
62446W        W35514  24.934  16.824  12.661
62447W        W35515  17.718  39.027  14.008
62448W        W35516  44.188  21.294  13.248
62449W        W35517   4.830  44.867   4.169
62450W        W35518  18.226  43.056   0.893
62451W        W35519  40.863  34.145   1.910
62452W        W35520  44.726  24.544  10.585
62453W        W35521  37.554  17.230   3.541
62454W        W35522  20.489  40.305  10.705
62455W        W35523  28.819  43.550  12.461
62456W        W35524  27.415  41.320  14.960
62457W        W35525   2.797  13.613   1.312
62458W        W35526  13.085   6.685  14.255
62459W        W35527   0.946  41.961   0.488
62460W        W35528  22.771   7.333   0.823
62461W        W35529  35.679  36.063   3.911
62462W        W35530  43.823  16.411   0.990
62463W        W35531   5.427  27.678  14.359
62464W        W35532  11.254   8.932  12.084
62465W        W35533  30.149  42.060   2.267
62466W        W35534   3.679  38.433  13.766
62467W        W35535  24.717  28.838   4.409
62468W        W35536   0.889  38.473   1.628
62469W        W35537  28.380  39.394   0.956
62470W        W35538  29.528   3.208   0.850
62471W        W35539  16.037  24.119  12.341
62472W        W35540   1.295   8.302  13.501
62473W        W35541  20.276  14.546   1.313
62474W        W35542  21.072  15.608   2.182
62475W        W35543  23.134  42.899  11.826
62476W        W35544  42.972  21.261   2.596
62477W        W35545  13.347  29.274  10.456
62478W        W35546  14.429  13.723   2.835
62479W        W35547  40.840  21.697  14.277
62480W        W35548   6.222  37.322   2.388
62481W        W35549   1.878  41.133   1.701
62482W        W35550  41.353   8.260   1.825
62483W        W35551  42.426  39.922   1.011
62484W        W35552  21.059  32.881   4.208
62485W        W35553  37.498   1.430  10.711
62486W        W35554   5.412  21.684  14.426
62487W        W35555  15.250   1.223   1.644
62488W        W35556  29.751   4.428   3.804
62489W        W35557  26.413  20.172  11.222
62490W        W35558  31.482  43.416  11.903
62491W        W35559  14.378  41.727  14.067
62492W        W35560   9.168  17.555   3.657
62493W        W35561  31.543  40.532  14.821
62494W        W35562   5.458  39.824   4.105
62495W        W35563  18.624  26.048   4.203
62496W        W35564  19.277  35.259  14.789
62497W        W35565  34.109  22.490  10.641
62498W        W35566  24.967  42.918   1.073
62499W        W35567  28.069   8.565   2.635
62500W        W35568  21.321  36.602   2.818
62501W        W35569   0.554  19.134  11.675
62502W        W35570  38.290  20.961  12.122
62503W        W35571  20.144   3.782  12.644
62504W        W35572  20.594  14.794   2.292
62505W        W35573  42.789  30.406  13.386
62506W        W35574  38.495  21.870  11.693
62507W        W35575   0.469  14.248  11.610
62508W        W35576  25.970   2.338   1.560
62509W        W35577  31.747  24.948  11.182
62510W        W35578   4.917  34.467   4.587
62511W        W35579  20.377  30.957  11.739
62512W        W35580  26.232  13.927   0.944
62513W        W35581  14.873  43.015   1.952
62514W        W35582  10.692  38.848   3.846
62515W        W35583  21.621  33.048   3.225
62516W        W35584  36.456  29.505  10.294
62517W        W35585  23.909  28.234  13.664
62518W        W35586  30.407  41.396  11.633
62519W        W35587  28.896   6.425  11.847
62520W        W35588  38.004  23.124   1.387
62521W        W35589  24.433  29.911  13.845
62522W        W35590  24.343  19.333   9.636
62523W        W35591   1.796  20.574   1.767
62524W        W35592  42.348  28.296   1.283
62525W        W35593  29.989  33.185   3.117
62526W        W35594  22.986  30.540   3.180
62527W        W35595  29.251  15.358  13.850
62528W        W35596   5.725  17.795   2.868
62529W        W35597  30.620  38.926   2.697
62530W        W35598   9.187   0.235   2.292
62531W        W35599  36.863   4.793   0.211
62532W        W35600  19.965  32.598  10.820
62533W        W35601  27.879  41.034  12.023
62534W        W35602  40.579  34.626  12.035
62535W        W35603  15.283  17.714   1.243
62536W        W35604  10.684  41.580  14.879
62537W        W35605  10.110  43.130  11.290
62538W        W35606  39.550  25.552   1.278
62539W        W35607  21.465  16.304  14.858
62540W        W35608  21.417   8.791  14.002
62541W        W35609  40.256  29.983  14.212
62542W        W35610  22.131   0.432  11.016
62543W        W35611  42.430  35.502   2.713
62544W        W35612  21.779   0.424  14.959
62545W        W35613   4.157  23.378  13.763
62546W        W35614  26.461   3.806   5.006
62547W        W35615  17.973  32.925   1.359
62548W        W35616  43.492   1.446  14.857
62549W        W35617  36.486  17.172   1.632
62550W        W35618  39.862  18.579   1.880
62551W        W35619  19.734  12.310   1.479
62552W        W35620  13.731  14.207   1.680
62553W        W35621  11.964   6.386   4.085
62554W        W35622  29.145  38.868   4.567
62555W        W35623  36.555   9.737   2.777
62556W        W35624  40.386   8.211  11.453
62557W        W35625  16.188  42.961  11.731
62558W        W35626  14.070  31.659  12.435
62559W        W35627  11.925   4.016   2.385
62560W        W35628   6.109  39.484   3.410
62561W        W35629  20.075  14.586  12.610
62562W        W35630  29.166   3.082  12.109
62563W        W35631  17.142   6.727  14.370
62564W        W35632   5.384  34.806  12.469
62565W        W35633   2.644  14.087   1.448
62566W        W35634   9.820  20.587   2.324
62567W        W35635  24.514  14.798   1.882
62568W        W35636  13.685  12.249  12.081
62569W        W35637  21.652  27.728  11.326
62570W        W35638  41.397   5.949   3.738
62571W        W35639  41.922  19.613   4.043
62572W        W35640  11.610  39.993  13.470
62573W        W35641  41.427  31.323   3.577
62574W        W35642  19.220   3.685   1.881
62575W        W35643  11.305  43.254  13.631
62576W        W35644  27.127  12.550  13.947
62577W        W35645   6.382  32.971   4.300
62578W        W35646  42.500  28.486   2.294
62579W        W35647   7.177  34.336   4.105
62580W        W35648   4.610  28.513   4.313
62581W        W35649   9.423  42.875   3.324
62582W        W35650  27.569  42.820   2.471
62583W        W35651   4.250  19.979   1.684
62584W        W35652   2.217  34.065  13.626
62585W        W35653   9.127   3.633   0.769
62586W        W35654  32.991  43.440  12.583
62587W        W35655   1.442   1.068   1.617
62588W        W35656  17.618  30.966   3.387
62589W        W35657  23.111  41.404  12.495
62590W        W35658  28.065  15.701  11.669
62591W        W35659  32.991  33.376  12.967
62592W        W35660  16.672  24.600   3.020
62593W        W35661  39.455  22.143   0.946
62594W        W35662  22.520  15.782  11.440
62595W        W35663  19.363  34.375   4.738
62596W        W35664  38.319   5.764  13.677
62597W        W35665  14.562  27.058   4.785
62598W        W35666  26.864  13.175   5.306
62599W        W35667   7.269   6.208   2.918
62600W        W35668  20.205  19.040  10.728
62601W        W35669  10.806  26.872   5.040
62602W        W35670  10.380  38.498  13.457
62603W        W35671  18.289  13.124   3.787
62604W        W35672  10.574  29.860  13.563
62605W        W35673  18.089  44.878   1.927
62606W        W35674  38.192  33.551  13.941
62607W        W35675  35.011  19.294  12.532
62608W        W35676  43.167  13.113  14.251
62609W        W35677   2.723  22.579   1.776
62610W        W35678  37.728  15.229   1.692
62611W        W35679  16.663   8.894  10.679
62612W        W35680   8.412  31.843  14.961
62613W        W35681  20.972  22.110   0.986
62614W        W35682  27.137  32.040  14.842
62615W        W35683  24.018  18.616  11.883
62616W        W35684  18.728  23.484  11.811
62617W        W35685   8.051  44.809   1.639
62618W        W35686  11.603  32.437   3.366
62619W        W35687  21.246  21.733  14.701
62620W        W35688   5.427  24.139  11.960
62621W        W35689   2.028  18.937   0.965
62622W        W35690   9.792  25.245  11.638
62623W        W35691  21.380   3.033  13.232
62624W        W35692  26.692   6.665  13.391
62625W        W35693  40.304  21.536  11.135
62626W        W35694  21.332  15.221  11.898
62627W        W35695  43.712   1.423  11.244
62628W        W35696  22.332   0.594   5.575
62629W        W35697   3.287   8.490  13.152
62630W        W35698  28.073  16.767  12.689
62631W        W35699  40.142  12.833  14.348
62632W        W35700   1.678   2.274  13.823
62633W        W35701   3.950  22.794   0.753
62634W        W35702   4.937   7.278   2.206
62635W        W35703  16.064  13.593   4.248
62636W        W35704  30.162   1.929   4.139
62637W        W35705  27.200  12.561   1.405
62638W        W35706  43.195  22.238   2.334
62639W        W35707   4.005  19.331  13.654
62640W        W35708  29.666  30.980   2.056
62641W        W35709  24.711   1.511   0.787
62642W        W35710  27.491  33.566   1.152
62643W        W35711  39.638  20.072   2.688
62644W        W35712   4.349   4.933  11.509
62645W        W35713   4.340  34.267  13.094
62646W        W35714  10.122  14.763  11.023
62647W        W35715  18.763   6.958  12.258
62648W        W35716  17.700  42.428  14.382
62649W        W35717   5.763   4.957  12.001
62650W        W35718  22.376  24.111  12.038
62651W        W35719  16.820  17.247  14.843
62652W        W35720  44.940  42.470  11.131
62653W        W35721   5.902   2.127  13.902
62654W        W35722  39.518  12.728  10.333
62655W        W35723  41.358   4.986  13.583
62656W        W35724  16.246   6.234  10.319
62657W        W35725  16.409  38.986   0.955
62658W        W35726   3.063  31.581  14.028
62659W        W35727   5.710  34.889   4.549
62660W        W35728  36.411  31.293  11.611
62661W        W35729  30.747  22.195   0.932
62662W        W35730   2.643   3.386   4.769
62663W        W35731   5.200  26.034  11.195
62664W        W35732  41.911  33.562   0.363
62665W        W35733  28.695  40.006   2.893
62666W        W35734  21.109  35.852   1.204
62667W        W35735  27.991  41.059  12.948
62668W        W35736  39.106  17.758   0.458
62669W        W35737  43.847   5.686  13.481
62670W        W35738  26.565  43.898  14.333
62671W        W35739  39.819  10.850  11.572
62672W        W35740   7.696   3.965   4.340
62673W        W35741   3.423  14.637   3.751
62674W        W35742   8.747   0.407  14.558
62675W        W35743  27.146  40.365  11.706
62676W        W35744  36.610  43.014   2.805
62677W        W35745  19.161  34.609   3.696
62678W        W35746  35.562  32.171   1.737
62679W        W35747  22.973  16.670  13.954
62680W        W35748  10.820  17.120   1.711
62681W        W35749  33.044  14.149  11.014
62682W        W35750  14.087  33.989  11.682
62683W        W35751  43.798   5.455   1.877
62684W        W35752  32.338  12.216  12.086
62685W        W35753   9.153   1.612  11.682
62686W        W35754  42.799  17.007   0.926
62687W        W35755  30.865  22.717   2.273
62688W        W35756  27.958  39.388   1.265
62689W        W35757  11.371  43.952   4.307
62690W        W35758  41.764   5.730   0.719
62691W        W35759  44.007  32.998  11.072
62692W        W35760  12.867  27.757   3.602
62693W        W35761  17.690  32.312   3.906
62694W        W35762   9.150  19.552  11.647
62695W        W35763  14.599  24.804   2.345
62696W        W35764  23.209  33.649  12.151
62697W        W35765  23.357  27.778   2.917
62698W        W35766  38.825  19.715   4.739
62699W        W35767  10.167  26.047  12.807
62700W        W35768  30.773  42.357   2.719
62701W        W35769   4.702  12.587   4.159
62702W        W35770  35.974  15.840  13.713
62703W        W35771  34.872  28.048   2.146
62704W        W35772  42.052  24.636   0.250
62705W        W35773  42.899  37.778  12.113
62706W        W35774  16.630  20.256  10.459
62707W        W35775   1.014   8.142  14.584
62708W        W35776   2.662  21.751   0.274
62709W        W35777  14.674   2.065   9.805
62710W        W35778   6.131  32.335  14.426
62711W        W35779  36.943   1.845  14.040
62712W        W35780  36.177  35.385   0.790
62713W        W35781  29.688   9.831   0.053
62714W        W35782  42.540  12.191  12.548
62715W        W35783  11.351  40.790   0.852
62716W        W35784  29.831  31.342   3.249
62717W        W35785   0.914  44.281  10.982
62718W        W35786  32.281   8.734   1.316
62719W        W35787  22.631  43.446   2.471
62720W        W35788  26.309   8.820   3.971
62721W        W35789  12.397  44.620  13.991
62722W        W35790  16.193   7.802  14.790
62723W        W35791  36.844  35.134  12.681
62724W        W35792  26.633   5.888   4.840
62725W        W35793   3.774  32.531  14.001
62726W        W35794  30.612   6.482   4.342
62727W        W35795  13.137   9.513   3.273
62728W        W35796  30.736  39.463   1.266
62729W        W35797  28.061  24.655  12.532
62730W        W35798  14.209  18.243  14.882
62731W        W35799   0.475  26.670  11.501
62732W        W35800   2.290  14.199   5.155
62733W        W35801  28.491  19.599  14.276
62734W        W35802  12.929  19.583   1.918
62735W        W35803  34.881  25.646  12.489
62736W        W35804  35.137  10.420  12.528
62737W        W35805  23.220  22.737  14.377
62738W        W35806   7.173  44.826   2.452
62739W        W35807   1.854  34.181  11.439
62740W        W35808  22.061  30.541  14.416
62741W        W35809   5.954  36.972  12.038
62742W        W35810  31.326   2.681  11.240
62743W        W35811  44.879   6.687   0.802
62744W        W35812   6.703  13.758   1.141
62745W        W35813   1.127  26.194  13.462
62746W        W35814  35.881  15.286   3.733
62747W        W35815  44.312  29.707   0.255
62748W        W35816  12.003   9.060   2.706
62749W        W35817  11.141   8.442   3.645
62750W        W35818   2.993  42.821   1.315
62751W        W35819  41.074  39.616  11.996
62752W        W35820  14.848  39.997   4.605
62753W        W35821  21.976  44.226   1.146
62754W        W35822   5.156   1.725   0.788
62755W        W35823  38.371  21.717  13.073
62756W        W35824  40.890  33.644  11.406
62757W        W35825  21.599  17.747   4.896
62758W        W35826   5.149  34.185   4.206
62759W        W35827  28.146   9.453  11.925
62760W        W35828  18.244  28.444   3.843
62761W        W35829   6.785  32.381  13.358
62762W        W35830  27.646   8.207  13.757
62763W        W35831  15.326  26.965   1.469
62764W        W35832  23.461  27.694   2.147
62765W        W35833  24.808  42.717   2.568
62766W        W35834   3.358  10.125  10.166
62767W        W35835  10.177  31.013  10.822
62768W        W35836  35.715  39.732  12.040
62769W        W35837  32.923  19.510   0.716
62770W        W35838   6.429  43.436  11.675
62771W        W35839  23.099   4.934   3.572
62772W        W35840   7.828  18.421  10.339
62773W        W35841  36.934  41.954  13.751
62774W        W35842   5.267   2.279  12.514
62775W        W35843  10.184  22.317  10.705
62776W        W35844  33.285   3.642   1.341
62777W        W35845   0.824  19.725   1.506
62778W        W35846  18.000   7.851   3.304
62779W        W35847  12.392  16.269  14.425
62780W        W35848   0.843   0.389  10.278
62781W        W35849  42.923  19.981  13.500
62782W        W35850  36.036  12.474   3.591
62783W        W35851  42.484  12.122  13.982
62784W        W35852  26.449  33.393  11.178
62785W        W35853  26.374  36.596  10.711
62786W        W35854  35.040  21.332   3.212
62787W        W35855  16.858  24.135  11.150
62788W        W35856  35.475  21.545   1.840
62789W        W35857  19.252  12.574   1.372
62790W        W35858  44.225   9.719   3.295
62791W        W35859  15.325  40.287   4.139
62792W        W35860   2.700  10.353   1.239
62793W        W35861  41.097  38.364   1.375
62794W        W35862  25.806  25.884   0.036
62795W        W35863  39.715  35.931  11.616
62796W        W35864   9.013   2.829   4.144
62797W        W35865  41.806   7.138   3.422
62798W        W35866  11.361  15.855   1.212
62799W        W35867   6.761   1.708  14.280
62800W        W35868  28.052  19.882  14.322
62801W        W35869   0.464  23.589   3.719
62802W        W35870  40.314  18.662   4.172
62803W        W35871  17.655   4.726  12.343
62804W        W35872  31.848  39.633  14.320
62805W        W35873  43.534  42.369   1.907
62806W        W35874   1.803   0.261   4.574
62807W        W35875  13.943  41.341   1.271
62808W        W35876  30.306  17.306   4.267
62809W        W35877   8.291  28.217   3.323
62810W        W35878  43.057  13.501   4.909
62811W        W35879   5.176   7.808   3.330
62812W        W35880  12.756  17.499  10.517
62813W        W35881   3.978  39.264  13.507
62814W        W35882  14.192   7.105  13.456
62815W        W35883  38.610   0.613   3.811
62816W        W35884  29.391  23.556   2.822
62817W        W35885  11.744  25.695  13.127
62818W        W35886  36.591  20.605  12.628
62819W        W35887  10.145  15.611   0.825
62820W        W35888   1.735  10.099   3.883
62821W        W35889  32.369   5.369  14.785
62822W        W35890   4.038  32.454   3.275
62823W        W35891   6.388   3.542   1.406
62824W        W35892  36.002  13.104  13.098
62825W        W35893  13.864  30.776  14.459
62826W        W35894  19.145   2.620   4.213
62827W        W35895  16.908  28.642   3.027
62828W        W35896   3.872   2.354  11.981
62829W        W35897  35.505  30.891  10.995
62830W        W35898  15.700   8.376  13.950
62831W        W35899  28.503   4.157   2.487
62832W        W35900  29.196  11.212   0.958
62833W        W35901   3.944  34.572   0.810
62834W        W35902  26.522  30.548   1.771
62835W        W35903  35.931   1.446  13.915
62836W        W35904  24.231  32.586  13.980
62837W        W35905  35.381  20.823   4.385
62838W        W35906  13.362   9.110   0.963
62839W        W35907   8.906  30.965  13.713
62840W        W35908  24.588   0.701  12.585
62841W        W35909  16.632  23.902   2.218
62842W        W35910  32.847  31.373   2.206
62843W        W35911   9.183   5.660   3.018
62844W        W35912  11.104  34.166   4.209
62845W        W35913   1.275   5.676  12.067
62846W        W35914  39.025  25.566   2.152
62847W        W35915  21.990  33.828  13.801
62848W        W35916  42.342  39.040  12.011
62849W        W35917  41.344  13.810   1.907
62850W        W35918  28.770  39.357  12.534
62851W        W35919  26.234  40.347   3.846
62852W        W35920  17.739  36.215  11.565
62853W        W35921  41.854   8.289  12.517
62854W        W35922  36.596  26.290  14.250
62855W        W35923  40.549   1.808   3.134
62856W        W35924  35.155   6.938   4.180
62857W        W35925  41.376  33.450  13.532
62858W        W35926   8.224  20.705  10.877
62859W        W35927   0.897  25.904   0.445
62860W        W35928   8.760  39.295   4.589
62861W        W35929  24.029  40.621   3.585
62862W        W35930  11.419   6.276  14.872
62863W        W35931  20.460  18.569   1.701
62864W        W35932  11.355   8.830  10.663
62865W        W35933   0.801  18.540   4.570
62866W        W35934  13.786  18.311   2.846
62867W        W35935  40.886   0.299  12.148
62868W        W35936  26.522  23.096   3.110
62869W        W35937  21.113   7.985   1.785
62870W        W35938  11.188  40.090   3.831
62871W        W35939  11.855  24.945   2.054
62872W        W35940  12.296   9.629   2.650
62873W        W35941  44.705  42.331  10.707
62874W        W35942  23.056   7.538  11.766
62875W        W35943  25.625  18.610   1.623
62876W        W35944  24.135  33.490   1.884
62877W        W35945   7.431  42.890   1.663
62878W        W35946  11.811   0.973  13.609
62879W        W35947  34.143  27.407  14.337
62880W        W35948  30.545   5.943  14.484
62881W        W35949  41.308  31.869   3.839
62882W        W35950  39.694  17.722  12.688
62883W        W35951  17.666  29.943  12.957
62884W        W35952  16.361  44.785   2.125
62885W        W35953  42.586  22.003   4.684
62886W        W35954  22.245  24.142   3.759
62887W        W35955  40.995  23.210  10.658
62888W        W35956  26.433  20.984  12.553
62889W        W35957  24.619  17.364   4.173
62890W        W35958  13.655  43.386  13.945
62891W        W35959  22.746   1.887  12.551
62892W        W35960   1.416  41.826   1.890
62893W        W35961   7.095  22.159  14.390
62894W        W35962  23.964  42.072   1.429
62895W        W35963  25.680  21.333  14.409
62896W        W35964  17.724   4.669   1.268
62897W        W35965  21.905  40.801   2.919
62898W        W35966  30.424  30.149  13.770
62899W        W35967   5.319  36.814   3.314
62900W        W35968  26.217  16.243  12.437
62901W        W35969  32.130  39.384  11.990
62902W        W35970   1.764  37.156   0.531
62903W        W35971  36.030  19.884   2.361
62904W        W35972  11.181  16.713   5.461
62905W        W35973  38.060  11.818  11.084
62906W        W35974   9.736  12.616  13.660
62907W        W35975   8.359  14.995  14.720
62908W        W35976  35.400  38.195  13.502
62909W        W35977   1.955  20.697   0.250
62910W        W35978  26.312  15.238  12.182
62911W        W35979  12.166  26.636  13.829
62912W        W35980  17.524  33.156  12.079
62913W        W35981  38.957  35.916  10.669
62914W        W35982  44.862  32.056  12.566
62915W        W35983  16.790  13.706  10.699
62916W        W35984  11.847  17.568  12.118
62917W        W35985   1.808  44.321   1.336
62918W        W35986  43.473   6.826   3.604
62919W        W35987  40.796  13.734  10.169
62920W        W35988  36.554  42.442  14.332
62921W        W35989  36.921  30.517  14.082
62922W        W35990  33.591  34.616  13.831
62923W        W35991  13.565   4.797  14.284
62924W        W35992  24.051   0.291  12.086
62925W        W35993   7.988   7.827  13.783
62926W        W35994  36.554   4.850   4.321
62927W        W35995  37.381  43.318   3.999
62928W        W35996   0.986  22.367  13.815
62929W        W35997  20.406  32.337  12.530
62930W        W35998  36.024   8.680   1.113
62931W        W35999  31.522  26.765   1.787
62932W        W36000  25.399  25.839  11.859
62933W        W36001   1.309  14.621   4.102
62934W        W36002  44.268  20.809  14.675
62935W        W36003  42.950  33.517  10.754
62936W        W36004   1.925  37.323  11.236
62937W        W36005   5.078   0.729   5.086
62938W        W36006  28.203  29.480   1.082
62939W        W36007   7.165   9.846  10.965
62940W        W36008  36.388   8.401   2.492
62941W        W36009  15.105  32.616   0.971
62942W        W36010  25.556  26.341  11.877
62943W        W36011  44.016  39.487  13.054
62944W        W36012   1.707   7.647   2.226
62945W        W36013  40.124   4.387   4.629
62946W        W36014  33.164   0.853  13.430
62947W        W36015  20.570  18.120   2.633
62948W        W36016  28.422  25.517   4.791
62949W        W36017   7.815   5.839  12.666
62950W        W36018  28.270  26.992   0.303
62951W        W36019  36.571  14.862  14.830
62952W        W36020  15.522  40.867  11.769
62953W        W36021  18.112  33.107   3.670
62954W        W36022  41.380  34.452  13.429
62955W        W36023  10.367  15.726   2.189
62956W        W36024  30.707  31.425  13.569
62957W        W36025  24.491  39.800   4.263
62958W        W36026  38.094  20.545   4.510
62959W        W36027   8.693  10.710  11.524
62960W        W36028   3.663   8.847  13.964
62961W        W36029  36.491   5.461   3.474
62962W        W36030  26.647   0.022  12.523
62963W        W36031  38.304  38.526   0.978
62964W        W36032  28.516  18.201   1.531
62965W        W36033  44.509  27.085  12.904
62966W        W36034  38.824  15.593  12.893
62967W        W36035   9.519  35.937   2.838
62968W        W36036  18.723   3.741  12.600
62969W        W36037  25.932  21.666  12.645
62970W        W36038  16.496  37.442   2.636
62971W        W36039  32.376  39.500   0.369
62972W        W36040  38.123   6.455   0.314
62973W        W36041  29.529  17.315   4.961
62974W        W36042  44.484  10.627  11.131
62975W        W36043  33.392   7.691  12.925
62976W        W36044  15.290  44.019   4.019
62977W        W36045  34.228  24.703   0.379
62978W        W36046  16.727  17.545   4.621
62979W        W36047  20.089   2.229   3.367
62980W        W36048  27.081  32.290   0.976
62981W        W36049  17.743  13.522  13.779
62982W        W36050  26.398   0.317   3.338
62983W        W36051  14.712  33.967   4.605
62984W        W36052  44.305  41.188   1.587
62985W        W36053   2.352  36.957  14.350
62986W        W36054  43.570   5.180  13.036
62987W        W36055  41.757  21.253   1.202
62988W        W36056  37.521   3.843  13.026
62989W        W36057  25.177   2.710  11.951
62990W        W36058  44.956  21.040   0.892
62991W        W36059  27.194   6.160   1.797
62992W        W36060  24.271  27.200  13.862
62993W        W36061  16.609  10.567  11.475
62994W        W36062  40.403  25.771  12.426
62995W        W36063  38.592  27.928   0.322
62996W        W36064   1.793  24.998   3.523
62997W        W36065  21.280  17.846  11.078
62998W        W36066  14.803  42.549  12.796
62999W        W36067  34.932  22.804  14.445
63000W        W36068  31.675  44.424  12.970
63001W        W36069  41.943  44.452   4.745
63002W        W36070  16.829  29.458   0.208
63003W        W36071  41.504  15.729  12.806
63004W        W36072  25.623  38.072   0.398
63005W        W36073  34.020  25.970   4.565
63006W        W36074  32.142   1.600  11.821
63007W        W36075  36.755  25.156   4.819
63008W        W36076  32.353   7.700   3.298
63009W        W36077  40.396  38.563  13.949
63010W        W36078  11.430  39.923  12.981
63011W        W36079  41.911   1.183  11.177
63012W        W36080  21.542  33.378   2.680
63013W        W36081  20.460  19.118   2.684
63014W        W36082  38.996  41.937  12.619
63015W        W36083  28.702  27.356   4.386
63016W        W36084  36.964  36.406  14.450
63017W        W36085  44.446  21.512  10.590
63018W        W36086  29.906  40.250   0.007
63019W        W36087   1.361  12.473  13.881
63020W        W36088  32.880  23.269  10.507
63021W        W36089   2.611   2.714  13.111
63022W        W36090  18.325   5.310  10.929
63023W        W36091  28.029   3.276  10.619
63024W        W36092   7.925   4.338  12.575
63025W        W36093  20.741   1.121   3.192
63026W        W36094  43.901  28.557  13.373
63027W        W36095   9.174  31.141   2.292
63028W        W36096  30.002   9.171  12.493
63029W        W36097  35.930  27.476   0.215
63030W        W36098  34.870   0.597   2.533
63031W        W36099  30.499  37.416  11.128
63032W        W36100  44.755   3.384   3.811
63033W        W36101  33.417  41.542   2.702
63034W        W36102  23.879  37.093  14.951
63035W        W36103  37.278  13.764  10.562
63036W        W36104   6.855  40.769  10.183
63037W        W36105   3.617   3.439   0.288
63038W        W36106   7.197   7.962   0.455
63039W        W36107  20.722  31.427   1.851
63040W        W36108  15.446  21.295  14.800
63041W        W36109   1.212  39.658   4.395
63042W        W36110  34.854  22.264  10.402
63043W        W36111  11.351  17.393   0.301
63044W        W36112  26.033   3.231  12.879
63045W        W36113  36.571  26.544  13.361
63046W        W36114   3.380  29.187  13.628
63047W        W36115  12.569  44.849   0.239
63048W        W36116   6.118   7.504   4.275
63049W        W36117  44.609   1.463   2.765
63050W        W36118  15.932  16.527   3.168
63051W        W36119  32.925   1.198  12.059
63052W        W36120  22.631  38.889   3.605
63053W        W36121  16.335  43.447   1.356
63054W        W36122  32.581  43.872  14.956
63055W        W36123  31.545  23.949   2.289
63056W        W36124  43.128  27.685   3.715
63057W        W36125  12.342   3.285   2.077
63058W        W36126   0.716   5.817  13.081
63059W        W36127  15.747  42.721   3.382
63060W        W36128  42.467  18.066  13.135
63061W        W36129   1.903  24.410   0.217
63062W        W36130   1.431  29.853   3.214
63063W        W36131   9.897   0.561  12.303
63064W        W36132  33.050   2.366  14.872
63065W        W36133  39.542  32.424  14.438
63066W        W36134  10.879  27.112   3.328
63067W        W36135  43.236  19.292   2.044
63068W        W36136   4.704  29.701   3.775
63069W        W36137   5.739  41.896  11.802
63070W        W36138  13.247   7.657   2.636
63071W        W36139  21.565  26.496  11.358
63072W        W36140   6.405   6.917  14.089
63073W        W36141  37.048   3.469   0.892
63074W        W36142  28.548  36.514   3.810
63075W        W36143  18.998  23.075   4.510
63076W        W36144  40.629  24.073  13.128
63077W        W36145   7.830   3.036  13.978
63078W        W36146  42.101  16.155   5.378
63079W        W36147  11.383  18.573  12.509
63080W        W36148  13.404  18.682   1.703
63081W        W36149  44.555  19.082  11.602
63082W        W36150   6.133  25.024   9.981
63083W        W36151  37.878   1.244   0.960
63084W        W36152   0.069  26.943  10.657
63085W        W36153  14.590   1.422   3.128
63086W        W36154  32.018   3.960  10.569
63087W        W36155   7.342  28.626  12.416
63088W        W36156  39.211  15.075   2.419
63089W        W36157   1.616   5.683   3.165
63090W        W36158  18.158  44.514  12.978
63091W        W36159  19.417  39.447  12.393
63092W        W36160  16.617  22.152   3.681
63093W        W36161  20.143  17.500   2.734
63094W        W36162  23.760  40.964  11.460
63095W        W36163  11.248  37.172   4.887
63096W        W36164  16.702  25.997  12.886
63097W        W36165  44.908   1.296   4.303
63098W        W36166  38.542  30.888   0.417
63099W        W36167   5.896  21.525  14.535
63100W        W36168  14.275  41.805  10.964
63101W        W36169   0.345  42.503   0.716
63102W        W36170  31.654  27.536  10.674
63103W        W36171  40.464  17.814  11.109
63104W        W36172  22.723  30.646  11.160
63105W        W36173  26.730   5.730  13.888
63106W        W36174   4.252   0.825   2.376
63107W        W36175  43.664  36.461  12.453
63108W        W36176  20.636   4.435   0.211
63109W        W36177  14.260  16.182   2.929
63110W        W36178  27.403   3.381  14.395
63111W        W36179  42.451  29.888  10.693
63112W        W36180  13.953  18.212  10.463
63113W        W36181  25.073  36.413   3.816
63114W        W36182  17.728  13.890  12.313
63115W        W36183  40.584  30.072  10.491
63116W        W36184  18.672  18.056  14.511
63117W        W36185  21.729   5.378  11.559
63118W        W36186  31.521  15.046   1.773
63119W        W36187  11.132  26.154  13.493
63120W        W36188  39.786  38.414  14.908
63121W        W36189  10.364  28.183  10.895
63122W        W36190  13.751  35.837  11.545
63123W        W36191   3.678  26.385  13.891
63124W        W36192  26.226   9.851   2.359
63125W        W36193  43.860  33.907   2.930
63126W        W36194   0.312  37.019  10.500
63127W        W36195  21.270  44.352   2.833
63128W        W36196   2.952  27.984  11.558
63129W        W36197  16.263   7.430   0.844
63130W        W36198  26.704  38.494  12.510
63131W        W36199  42.976  35.636  13.349
63132W        W36200  37.514  11.224  13.532
63133W        W36201   6.298  14.624  13.019
63134W        W36202  44.271   9.974   0.769
63135W        W36203  23.646  39.494  12.926
63136W        W36204   1.751  43.886   1.639
63137W        W36205  42.102   3.974   1.693
63138W        W36206  17.977   6.801   0.900
63139W        W36207  13.718  21.483   2.295
63140W        W36208  37.303   8.145   1.934
63141W        W36209  18.136  36.899  12.458
63142W        W36210  18.134   7.114  11.549
63143W        W36211  34.237   3.986   1.466
63144W        W36212  21.756   4.423   4.328
63145W        W36213   8.713  16.766  11.370
63146W        W36214  13.770   7.785   1.882
63147W        W36215  26.453  25.909   3.752
63148W        W36216  31.613  15.246  12.399
63149W        W36217  34.955  35.364   3.906
63150W        W36218  28.230   6.960  12.226
63151W        W36219  19.553  21.508   2.805
63152W        W36220  10.561  44.065  12.897
63153W        W36221  23.890  15.344  14.299
63154W        W36222  23.349  44.757   0.718
63155W        W36223  11.784  18.906   4.736
63156W        W36224  40.500  23.748  13.537
63157W        W36225  16.694  23.725   4.178
63158W        W36226  29.354  14.073  14.976
63159W        W36227   1.995  22.909   2.459
63160W        W36228  29.065  28.081   4.839
63161W        W36229   6.472  39.468  14.520
63162W        W36230  20.861  34.237  10.657
63163W        W36231  10.141  10.381  13.440
63164W        W36232   9.262  22.514   2.385
63165W        W36233  25.868  41.550   3.073
63166W        W36234  11.629  36.325   4.414
63167W        W36235  14.753  20.373  13.089
63168W        W36236   1.882   0.364  11.916
63169W        W36237  37.437  19.715  12.015
63170W        W36238  25.789   0.523   1.648
63171W        W36239  20.302  14.317   3.368
63172W        W36240  26.232  26.956   2.326
63173W        W36241  35.665  25.657  12.981
63174W        W36242  26.670  34.430   1.211
63175W        W36243  11.447  20.055   2.250
63176W        W36244  38.858  11.135  11.528
63177W        W36245   5.632  43.059  11.610
63178W        W36246  29.107  31.580  14.442
63179W        W36247   0.783  21.450   0.984
63180W        W36248  14.356  25.702   2.447
63181W        W36249  22.590  13.616  10.402
63182W        W36250   7.045  42.988   2.020
63183W        W36251  27.200  12.401  13.323
63184W        W36252  12.785  18.410  10.906
63185W        W36253  19.707  38.736   0.889
63186W        W36254  43.174  24.514  10.673
63187W        W36255  14.658  43.006   0.773
63188W        W36256  29.178  38.131   2.692
63189W        W36257  44.814   2.295  10.703
63190W        W36258  41.410   9.845  14.764
63191W        W36259  24.515  35.077  11.065
63192W        W36260  41.973  18.747  14.773
63193W        W36261   1.018  36.038   1.240
63194W        W36262  20.498   5.874   3.269
63195W        W36263  19.299   7.296  14.243
63196W        W36264  19.743  25.129   2.133
63197W        W36265  39.823   8.479  10.096
63198W        W36266   1.524  10.832   0.770
63199W        W36267  10.777  27.670  14.409
63200W        W36268  25.562  18.239  10.622
63201W        W36269  10.850   5.116  14.960
63202W        W36270   1.510  31.186   3.652
63203W        W36271   4.508  12.331  14.367
63204W        W36272  24.572  26.767  14.225
63205W        W36273   5.797  35.118  12.625
63206W        W36274   9.330  26.434  13.093
63207W        W36275  10.798  27.723  10.294
63208W        W36276  33.524  33.101  11.439
63209W        W36277  20.632  44.307  13.818
63210W        W36278  18.020  30.556   4.759
63211W        W36279  21.624  30.558  14.782
63212W        W36280  18.125  26.582   2.228
63213W        W36281  22.405  38.080   2.447
63214W        W36282   2.005  41.870  12.399
63215W        W36283  43.797  16.623   2.966
63216W        W36284   8.220  21.575  11.136
63217W        W36285   7.714  35.374  12.949
63218W        W36286  25.131   1.511  11.308
63219W        W36287   7.236  42.533   2.927
63220W        W36288  44.476  21.482   3.166
63221W        W36289  20.279  28.534  11.004
63222W        W36290  37.120  40.483  11.910
63223W        W36291  27.495  41.045  13.789
63224W        W36292  42.898  27.737  12.507
63225W        W36293  41.610  36.410  10.790
63226W        W36294  15.756  26.723   3.304
63227W        W36295  18.856  29.405   3.159
63228W        W36296   8.449  41.117   3.961
63229W        W36297   4.836   8.652  12.901
63230W        W36298  27.081  12.756   0.041
63231W        W36299  43.759  42.931   1.453
63232W        W36300  32.033  38.402   0.213
63233W        W36301  19.458  39.015   1.805
63234W        W36302  44.506  22.551   2.381
63235W        W36303  21.214   4.835  13.056
63236W        W36304  22.914  37.964   2.345
63237W        W36305  43.691   8.306   0.465
63238W        W36306  32.866   5.241  12.996
63239W        W36307  13.230  30.193   4.851
63240W        W36308  20.303  10.687   1.620
63241W        W36309  26.489  12.772  12.427
63242W        W36310  21.153  27.467   4.089
63243W        W36311   6.236  10.425   5.111
63244W        W36312   0.914  17.544  11.994
63245W        W36313   9.202  10.232   1.360
63246W        W36314  30.903  26.286  12.818
63247W        W36315   9.678  10.477   2.834
63248W        W36316   6.343   9.570   1.566
63249W        W36317  17.722  24.411   2.702
63250W        W36318  12.892  37.573  14.860
63251W        W36319  22.281  40.385   0.285
63252W        W36320  42.232   0.078   2.332
63253W        W36321  29.910  42.456   4.176
63254W        W36322  16.566  17.099  12.343
63255W        W36323  42.031  10.228   0.292
63256W        W36324   4.490  29.091  14.021
63257W        W36325  25.296  22.130  10.364
63258W        W36326  29.517  26.597   4.639
63259W        W36327  23.577  28.599  13.457
63260W        W36328  32.371   8.663  10.262
63261W        W36329  44.591   4.108   0.699
63262W        W36330  35.798   0.285  13.124
63263W        W36331  16.573  11.790   1.584
63264W        W36332   5.880  32.571  12.901
63265W        W36333   5.668   1.789   4.884
63266W        W36334  44.974  24.107   0.681
63267W        W36335  25.382   2.336   4.083
63268W        W36336  35.849  36.774   2.775
63269W        W36337  44.374  42.794  11.190
63270W        W36338   3.514  44.179   1.132
63271W        W36339  33.463  43.180   3.428
63272W        W36340  34.049   6.203   0.264
63273W        W36341  33.461  20.223   4.321
63274W        W36342  10.347   4.407  11.236
63275W        W36343  27.170  29.869   1.459
63276W        W36344   0.441  32.958   4.531
63277W        W36345  26.138  34.806   3.866
63278W        W36346  32.651  37.895   1.651
63279W        W36347  30.957   5.873  14.048
63280W        W36348  37.169   9.713   1.750
63281W        W36349  21.550  41.865  14.518
63282W        W36350   2.944  43.674   4.310
63283W        W36351  40.002  39.543   1.287
63284W        W36352   4.657  25.541  14.802
63285W        W36353  28.994  19.265   4.814
63286W        W36354  43.562  43.753   0.226
63287W        W36355   7.779  36.886  11.156
63288W        W36356  18.733  14.801   1.816
63289W        W36357  34.979  13.233  13.682
63290W        W36358  29.720   1.311   1.962
63291W        W36359  33.502   1.178  11.350
63292W        W36360  28.100  18.732   5.186
63293W        W36361  40.230   3.219  12.891
63294W        W36362  14.889  18.217  11.997
63295W        W36363  21.365  26.191   0.949
63296W        W36364  12.168  14.850   1.021
63297W        W36365  35.565  19.192   1.795
63298W        W36366  23.410   8.327  12.411
63299W        W36367  40.779  12.126  11.635
63300W        W36368  26.527  37.396   3.647
63301W        W36369  19.277  24.789  12.009
63302W        W36370   2.995  42.492   2.831
63303W        W36371  15.138  29.921   2.648
63304W        W36372  18.659  10.442  10.591
63305W        W36373  26.933  23.436   0.754
63306W        W36374   6.919  41.015   4.196
63307W        W36375  11.878  36.572   0.437
63308W        W36376  19.660  27.136   3.695
63309W        W36377  19.118  21.177   1.071
63310W        W36378  37.312  15.498   4.950
63311W        W36379  44.756  32.110  14.906
63312W        W36380   4.063  24.107   0.880
63313W        W36381   2.205   1.823   2.328
63314W        W36382  19.827  20.193   1.266
63315W        W36383  42.300  42.340  14.282
63316W        W36384  44.784  32.651  14.869
63317W        W36385  42.445  33.387   3.091
63318W        W36386   6.717  16.323   4.548
63319W        W36387  18.786  42.641   4.041
63320W        W36388  21.177  26.809  12.654
63321W        W36389   3.876  44.248  11.572
63322W        W36390   8.621   8.772   4.891
63323W        W36391  27.076  16.298   1.500
63324W        W36392  10.658  41.753   5.072
63325W        W36393  34.570   2.912  14.970
63326W        W36394   9.007  40.968   2.265
63327W        W36395  18.970  15.493  12.000
63328W        W36396  39.028  32.332   1.854
63329W        W36397   8.260   3.985   0.489
63330W        W36398  34.397  28.926  14.349
63331W        W36399  12.639  41.078  10.782
63332W        W36400  17.878  36.494   3.645
63333W        W36401  34.177   1.068  13.310
63334W        W36402  37.396  19.642   1.399
63335W        W36403  33.530  15.516  11.133
63336W        W36404  36.076  18.367  11.669
63337W        W36405  27.684  40.597   2.284
63338W        W36406   7.906   5.918   4.873
63339W        W36407   1.274  28.949  14.029
63340W        W36408  21.585  12.691  13.848
63341W        W36409  33.623   3.286  11.426
63342W        W36410  26.324   1.692   3.060
63343W        W36411  30.642  20.603   1.465
63344W        W36412  19.908  42.763  14.886
63345W        W36413  21.099   5.127   0.271
63346W        W36414  15.643  12.042  14.369
63347W        W36415  21.213  21.216  10.474
63348W        W36416  16.889  22.312   0.854
63349W        W36417  35.138  11.326  11.536
63350W        W36418  26.596  10.834  11.022
63351W        W36419  27.978  37.780   4.064
63352W        W36420  24.708   4.140   1.450
63353W        W36421  14.516  12.705   1.907
63354W        W36422   9.322  30.806  14.034
63355W        W36423  37.475  10.254  12.625
63356W        W36424  27.273   5.276   3.230
63357W        W36425   7.620  31.434  11.824
63358W        W36426  21.717  21.491   1.048
63359W        W36427   2.525  16.583   2.653
63360W        W36428  21.239   2.199   2.760
63361W        W36429  23.308  19.498   4.716
63362W        W36430   8.443   7.171  12.062
63363W        W36431  35.120  36.393  13.743
63364W        W36432  22.733  24.251   0.186
63365W        W36433  19.985  30.066  14.815
63366W        W36434  23.708  36.883   4.611
63367W        W36435  31.993  26.716   2.279
63368W        W36436  43.787  17.083   2.730
63369W        W36437  23.153   2.751  10.514
63370W        W36438  10.274  40.771   1.917
63371W        W36439  29.688  26.684   0.713
63372W        W36440  17.286  10.214   0.926
63373W        W36441  28.513  43.512   3.171
63374W        W36442   0.972  34.618   2.570
63375W        W36443  13.876  10.006  11.429
63376W        W36444  43.331  26.240  13.842
63377W        W36445   5.707   3.423   2.429
63378W        W36446  39.633  19.040   1.956
63379W        W36447  21.011   2.462   3.196
63380W        W36448  40.819  21.189   1.964
63381W        W36449   4.425  43.456  11.626
63382W        W36450   3.667  20.108   0.970
63383W        W36451   8.247  33.064  14.738
63384W        W36452   3.763   0.180  14.507
63385W        W36453  16.616   2.734   3.859
63386W        W36454   2.842   1.544   1.787
63387W        W36455  31.632  43.709  12.368
63388W        W36456  11.691  13.064   0.409
63389W        W36457  21.700   7.009  12.952
63390W        W36458  17.200  42.322  14.233
63391W        W36459  21.582  32.886  14.404
63392W        W36460  13.735  30.158  14.318
63393W        W36461   2.288  33.037  10.559
63394W        W36462  23.752   1.244  11.123
63395W        W36463  16.756  22.020  14.049
63396W        W36464   4.605  18.259  12.120
63397W        W36465  14.221   2.517   4.277
63398W        W36466  30.556   2.245   2.120
63399W        W36467  35.090  20.404   0.967
63400W        W36468   6.893  13.250   4.914
63401W        W36469  17.014   1.948  12.540
63402W        W36470   9.882  38.625  14.320
63403W        W36471  41.440  18.559   2.418
63404W        W36472  26.177  25.705   1.771
63405W        W36473  44.306  18.827   4.530
63406W        W36474  11.592  34.713   3.315
63407W        W36475  27.238   5.724   3.604
63408W        W36476  13.768   4.204   2.450
63409W        W36477  38.044  20.272  14.387
63410W        W36478  15.998  24.217   4.347
63411W        W36479   6.309  15.693  12.944
63412W        W36480  16.585   5.776  11.861
63413W        W36481  35.883  11.431  14.478
63414W        W36482   6.107   6.704   0.980
63415W        W36483   3.495  42.030   3.266
63416W        W36484  35.047  31.673  13.947
63417W        W36485  39.893  16.820   1.963
63418W        W36486  18.903  37.699   1.334
63419W        W36487  11.068   1.338   1.784
63420W        W36488  36.638  38.559   3.112
63421W        W36489  35.037  24.567   0.984
63422W        W36490  39.960  38.343   3.676
63423W        W36491  38.486  26.314  11.693
63424W        W36492   2.237   7.807  10.655
63425W        W36493  19.091  23.037   3.121
63426W        W36494   0.379  35.975   4.832
63427W        W36495  13.009   7.489   1.494
63428W        W36496  31.680   7.327   1.888
63429W        W36497  38.963  16.317   1.976
63430W        W36498   4.597  21.327   0.899
63431W        W36499  16.368   9.876  10.662
63432W        W36500  11.525   4.933  11.696
63433W        W36501  10.868   0.064   2.324
63434W        W36502  10.335  24.555  10.593
63435W        W36503  37.012  13.678   3.157
63436W        W36504  20.135  10.800   2.538
63437W        W36505  34.997  17.539   0.333
63438W        W36506  17.301  10.235   0.022
63439W        W36507   2.699  33.968  13.402
63440W        W36508   7.419   8.944   0.304
63441W        W36509   9.270   7.237  11.451
63442W        W36510  26.158   0.285   1.962
63443W        W36511   4.291  10.846  12.875
63444W        W36512  41.968   4.279   2.098
63445W        W36513  40.852   7.809   3.377
63446W        W36514  42.707  14.786  12.857
63447W        W36515  34.169  12.092   0.513
63448W        W36516  34.860  15.894  10.189
63449W        W36517  14.006   9.065  11.857
63450W        W36518  17.030  19.876   3.630
63451W        W36519  23.581  21.040   0.910
63452W        W36520  26.288  21.723   4.573
63453W        W36521  22.704  41.418   2.717
63454W        W36522   2.722  23.097   2.854
63455W        W36523   4.464   8.372   3.292
63456W        W36524  31.049  43.375  14.518
63457W        W36525   6.298  27.735   3.230
63458W        W36526  38.037  34.513   0.160
63459W        W36527  29.719  30.742  11.108
63460W        W36528  32.514  18.281  11.972
63461W        W36529  22.364  11.937  13.311
63462W        W36530   5.997   9.601   0.917
63463W        W36531   1.295   5.310  14.204
63464W        W36532  44.351   8.933  10.183
63465W        W36533   9.917   7.429   0.829
63466W        W36534  12.156  38.227  12.106
63467W        W36535  15.774   3.196  10.602
63468W        W36536  16.314  35.100   0.655
63469W        W36537   9.624  10.630  14.988
63470W        W36538   5.776  18.588  13.597
63471W        W36539   4.673   8.265   0.529
63472W        W36540  44.753  14.426  12.966
63473W        W36541   3.425  18.745   3.319
63474W        W36542  26.521  24.036  10.984
63475W        W36543  36.355  27.573  13.779
63476W        W36544  16.143  41.737  12.924
63477W        W36545  33.887  16.543  11.848
63478W        W36546  19.767  37.986  11.954
63479W        W36547  43.094  25.514  14.546
63480W        W36548  28.233  30.253   4.312
63481W        W36549   5.843  11.758   4.153
63482W        W36550   3.376  28.453   4.339
63483W        W36551   5.812  24.660   4.641
63484W        W36552  44.020  18.548   4.183
63485W        W36553  14.946   2.841   2.665
63486W        W36554  33.007  11.633   4.670
63487W        W36555   2.019   8.542  12.922
63488W        W36556  41.973  26.238   2.190
63489W        W36557   4.792  24.156   9.922
63490W        W36558  44.835   7.237  12.936
63491W        W36559  33.982  13.375  14.018
63492W        W36560  10.471  24.015   2.849
63493W        W36561  22.477  21.005   4.145
63494W        W36562   8.969   0.337  12.084
63495W        W36563   3.179  22.655   2.293
63496W        W36564   6.327  17.546   3.723
63497W        W36565  35.409  17.493  12.417
63498W        W36566  14.862  25.190  10.634
63499W        W36567   0.261  35.226   0.719
63500W        W36568  30.689  24.050   0.862
63501W        W36569  15.051  31.609  12.578
63502W        W36570   8.320  22.523  11.213
63503W        W36571   1.717   9.845   1.801
63504W        W36572  26.660  27.046  12.828
63505W        W36573  10.820   1.973   3.759
63506W        W36574  24.644  36.534  13.438
63507W        W36575  12.264  21.290   3.257
63508W        W36576  21.116  40.614   2.272
63509W        W36577  40.975  36.563  13.835
63510W        W36578  29.240  13.693   0.328
63511W        W36579  21.301  12.559  11.198
63512W        W36580  43.539  13.887   4.186
63513W        W36581  44.452  34.842   2.341
63514W        W36582  13.517  15.155  13.609
63515W        W36583  37.799  23.333  11.171
63516W        W36584  30.025  32.505   2.582
63517W        W36585  30.885  36.388  11.739
63518W        W36586  15.175  44.720   0.342
63519W        W36587  13.104   2.499  10.766
63520W        W36588  17.250   9.953  13.143
63521W        W36589  24.512   3.014  10.660
63522W        W36590  42.471  16.115  14.394
63523W        W36591   5.966  30.031   4.173
63524W        W36592  10.576  16.297   0.258
63525W        W36593  43.345  22.250  14.492
63526W        W36594  18.343  34.957  10.618
63527W        W36595  25.585  24.662  12.544
63528W        W36596  41.478  42.942   0.416
63529W        W36597  10.743  44.560  10.588
63530W        W36598  17.583  25.664  12.860
63531W        W36599   3.069   0.710   1.312
63532W        W36600  29.401   2.322   4.251
63533W        W36601  12.781  30.979  12.441
63534W        W36602  27.065  22.123  13.816
63535W        W36603  25.041  37.809  13.979
63536W        W36604  27.532  34.589  11.124
63537W        W36605  39.580   0.799   3.673
63538W        W36606  23.937  38.256  12.370
63539W        W36607  28.591  31.399  14.415
63540W        W36608  44.247   8.240   3.705
63541W        W36609  36.516  20.111   2.762
63542W        W36610  34.845   2.156   4.687
63543W        W36611  22.103  14.547   3.602
63544W        W36612  32.640  24.569   4.826
63545W        W36613  15.634  37.850   0.283
63546W        W36614  44.381  14.718  14.232
63547W        W36615  14.429  11.349   3.269
63548W        W36616  15.563  34.602   2.295
63549W        W36617   2.290  17.347  10.855
63550W        W36618  12.421  36.401   2.234
63551W        W36619   2.762   3.518   4.255
63552W        W36620  17.087   6.125   1.730
63553W        W36621  14.270  15.538  12.931
63554W        W36622   5.119  10.971  11.532
63555W        W36623  16.666  35.453   4.173
63556W        W36624   5.851   5.218  11.490
63557W        W36625  38.911  36.183  11.133
63558W        W36626  27.178   8.118  13.439
63559W        W36627  19.915  27.895  14.308
63560W        W36628  10.094   7.426  10.013
63561W        W36629  34.488  38.410   3.647
63562W        W36630  36.985  39.061  12.155
63563W        W36631  38.471   7.210  10.312
63564W        W36632  34.391  13.255   2.904
63565W        W36633  26.659  25.213   2.313
63566W        W36634  23.289  37.539   0.462
63567W        W36635  41.117  39.114  11.148
63568W        W36636  22.700  44.458   4.595
63569W        W36637   8.398  25.483   3.732
63570W        W36638  40.834  12.249   2.437
63571W        W36639  42.427  27.466  12.490
63572W        W36640   8.750  38.017  12.601
63573W        W36641  25.079  10.332   1.098
63574W        W36642   3.191   5.850   3.215
63575W        W36643   0.772  36.905  10.719
63576W        W36644   6.048  38.443   4.729
63577W        W36645  20.203  21.160  10.560
63578W        W36646  27.052  39.332  13.834
63579W        W36647   2.743  23.741  14.892
63580W        W36648  23.928  25.073   4.456
63581W        W36649  23.815  30.405  12.059
63582W        W36650  44.622  32.488  12.338
63583W        W36651   7.896   0.479   1.160
63584W        W36652   6.285  31.709  10.693
63585W        W36653  31.522  25.778   1.941
63586W        W36654  33.911   1.442   2.119
63587W        W36655  31.386  17.089   0.885
63588W        W36656  12.526  23.070  13.363
63589W        W36657  34.041  34.203   1.777
63590W        W36658   2.394  42.056  13.406
63591W        W36659  43.903   2.665  13.415
63592W        W36660  29.671  21.519  11.618
63593W        W36661  23.202  28.558   1.281
63594W        W36662   1.832   7.747  12.377
63595W        W36663   8.216  13.755  10.672
63596W        W36664  23.782  19.619   0.073
63597W        W36665  19.546   7.258  11.632
63598W        W36666  35.360  13.417  14.773
63599W        W36667   2.977  10.253  10.563
63600W        W36668  23.291  19.256   0.856
63601W        W36669  13.671  32.826  10.842
63602W        W36670   3.890  11.845  14.813
63603W        W36671  11.857  23.435   4.538
63604W        W36672   3.928  37.350   0.296
63605W        W36673  19.440   1.672  14.906
63606W        W36674   6.729  17.313  12.024
63607W        W36675  41.130  10.074   2.192
63608W        W36676  20.202  34.928  13.023
63609W        W36677  14.736  15.545   4.997
63610W        W36678   6.753   8.473   0.747
63611W        W36679  18.983  36.804  10.816
63612W        W36680  44.540  11.854   2.193
63613W        W36681   6.489  21.390  11.154
63614W        W36682  43.700   0.096  11.163
63615W        W36683  10.783  10.373  11.210
63616W        W36684  36.344  21.171   3.367
63617W        W36685  21.588   3.523  11.658
63618W        W36686  41.886   0.862  11.586
63619W        W36687  19.630  13.913  11.467
63620W        W36688   9.512  38.613   0.372
63621W        W36689  13.138  24.177  13.833
63622W        W36690  27.188  18.075  10.656
63623W        W36691  30.767  16.073   1.590
63624W        W36692   8.258  15.355   2.433
63625W        W36693  33.851  37.963  14.576
63626W        W36694  30.663  33.016  13.024
63627W        W36695  30.651  44.342  14.035
63628W        W36696  20.054  36.933  13.000
63629W        W36697   7.648  27.258   2.212
63630W        W36698   5.356  31.052   3.818
63631W        W36699  41.969   8.148  14.060
63632W        W36700  11.309  41.922  12.048
63633W        W36701  32.827  12.216   1.296
63634W        W36702  11.801  25.136  12.104
63635W        W36703  26.810   3.238   2.665
63636W        W36704  44.422  24.560  13.029
63637W        W36705  33.409  25.570  10.820
63638W        W36706  19.549  35.825   3.601
63639W        W36707  12.298  39.524   0.401
63640W        W36708  40.949   0.501   5.060
63641W        W36709  23.820  10.723   2.200
63642W        W36710  38.256  37.942   4.618
63643W        W36711   5.325   5.101   4.655
63644W        W36712  20.158   0.782   2.646
63645W        W36713  17.773  38.392   1.910
63646W        W36714  42.371  26.503  10.668
63647W        W36715  36.373   4.500  12.050
63648W        W36716  22.699  17.297   0.500
63649W        W36717  18.608  34.823   1.633
63650W        W36718   4.433  31.658  11.142
63651W        W36719  32.866   1.370   0.776
63652W        W36720   8.886  36.521  14.965
63653W        W36721   8.402  30.500  11.231
63654W        W36722   4.907  37.876   4.341
63655W        W36723   3.066   6.335  11.025
63656W        W36724  33.934  11.852  10.656
63657W        W36725   3.804  30.523  12.881
63658W        W36726  23.465  12.928  12.801
63659W        W36727  42.533  37.281   0.424
63660W        W36728   9.808  41.758   9.706
63661W        W36729  42.486  22.664   0.583
63662W        W36730  27.065   7.787   3.158
63663W        W36731   4.462   9.304   3.192
63664W        W36732  32.649  12.078  14.292
63665W        W36733  15.666  33.899  12.312
63666W        W36734  39.830  37.404  12.652
63667W        W36735   4.783  17.782  11.910
63668W        W36736   6.096  34.384  11.114
63669W        W36737   6.336  33.433   2.709
63670W        W36738   7.044  17.545   4.469
63671W        W36739   6.370  15.826   0.990
63672W        W36740  44.967  19.742  10.425
63673W        W36741   6.778  30.837   3.749
63674W        W36742  41.056  34.054   1.433
63675W        W36743  25.494  22.071  12.000
63676W        W36744  29.628  30.188   2.901
63677W        W36745  13.353  22.099  14.859
63678W        W36746  13.104  27.166  14.919
63679W        W36747  37.862  42.013   0.201
63680W        W36748   3.321   0.224  10.278
63681W        W36749  25.481  39.613   1.405
63682W        W36750  42.042  35.853   4.133
63683W        W36751  29.948  38.117   3.741
63684W        W36752  10.187   3.933  13.807
63685W        W36753  42.750  28.526   0.524
63686W        W36754  40.622  13.890  11.353
63687W        W36755  38.005  16.207   4.182
63688W        W36756  37.490   2.846  14.331
63689W        W36757  25.573  44.025   1.719
63690W        W36758  22.530  11.841   4.932
63691W        W36759  29.056  43.834  13.968
63692W        W36760   8.924   5.165   4.366
63693W        W36761   6.391  28.912   0.217
63694W        W36762   6.761  14.565  10.497
63695W        W36763  27.733  38.567  14.441
63696W        W36764  42.989  38.566   3.244
63697W        W36765   6.940  29.066  12.897
63698W        W36766  42.291  10.281   4.121
63699W        W36767  11.138   9.335  11.543
63700W        W36768  24.520  19.490   3.667
63701W        W36769  17.617  22.981   1.768
63702W        W36770   4.856  25.044   5.237
63703W        W36771  24.504   3.875  14.207
63704W        W36772  29.701  13.266  13.725
63705W        W36773  42.898  33.667  14.509
63706W        W36774   0.356   6.914   0.049
63707W        W36775  21.684  36.544  14.992
63708W        W36776  12.783  20.476  12.516
63709W        W36777  13.318  35.511  10.593
63710W        W36778  27.879  42.210   2.314
63711W        W36779   1.960  34.868   4.613
63712W        W36780  34.521  11.620  13.246
63713W        W36781   5.740  31.733   2.712
63714W        W36782   4.737  27.716  13.311
63715W        W36783  38.066   0.308   0.221
63716W        W36784   8.409   2.824  14.836
63717W        W36785   6.832   4.410  11.164
63718W        W36786  33.222   3.488   2.752
63719W        W36787  10.966  40.336  14.769
63720W        W36788   2.712  30.312  11.286
63721W        W36789  17.876  35.853   1.276
63722W        W36790  16.204  33.113   3.756
63723W        W36791  25.539  17.305   2.426
63724W        W36792  22.601  17.809   2.295
63725W        W36793  35.029  26.374  13.372
63726W        W36794  38.873  26.159  13.764
63727W        W36795   7.530  36.768  12.863
63728W        W36796  13.633  43.982  10.698
63729W        W36797  25.482  30.608  10.708
63730W        W36798  28.029  25.028  11.628
63731W        W36799  24.366   7.372   3.200
63732W        W36800   3.491  14.345  10.862
63733W        W36801  43.009  23.108   1.769
63734W        W36802   7.376  30.671   3.418
63735W        W36803  19.540  27.608   0.914
63736W        W36804  35.998  25.593   4.104
63737W        W36805   4.944  32.850   3.154
63738W        W36806   9.812  42.524   0.884
63739W        W36807   3.973  37.852   4.528
63740W        W36808   6.201  25.748   0.908
63741W        W36809  41.348   1.290  10.676
63742W        W36810  27.207  13.712  14.421
63743W        W36811  18.708  11.750   0.749
63744W        W36812  26.922  20.704   3.613
63745W        W36813  44.356  15.775   2.789
63746W        W36814   3.881  21.693   1.512
63747W        W36815   2.474  35.452   4.569
63748W        W36816  24.552  42.482  14.968
63749W        W36817  34.369  10.730  11.481
63750W        W36818  27.646  24.701  11.619
63751W        W36819  18.199   7.933   1.031
63752W        W36820  18.568  30.542   0.493
63753W        W36821  14.284  14.248   3.760
63754W        W36822   5.283  10.627   0.741
63755W        W36823  12.856  27.436  10.345
63756W        W36824  24.682  14.080   2.450
63757W        W36825  11.404  18.188  14.507
63758W        W36826  15.756  10.070  10.676
63759W        W36827  35.080  12.274   0.344
63760W        W36828  39.261  44.168  12.493
63761W        W36829  14.856  32.021   0.748
63762W        W36830  17.679  12.711   0.469
63763W        W36831  40.205  29.104   0.418
63764W        W36832  26.484  34.735  12.668
63765W        W36833  42.306  40.834  13.495
63766W        W36834   0.230  14.694  12.634
63767W        W36835  21.144  18.506   4.090
63768W        W36836  30.702   2.631  14.754
63769W        W36837   1.919  17.808  11.897
63770W        W36838  21.501   4.239   4.734
63771W        W36839   3.808  13.452   4.685
63772W        W36840  27.862   2.437  11.155
63773W        W36841   9.297  32.727  12.529
63774W        W36842  12.571  11.390   2.781
63775W        W36843  23.215  11.437   3.636
63776W        W36844  17.309   1.230  14.911
63777W        W36845  19.671  19.589   0.482
63778W        W36846  27.039   6.460   1.400
63779W        W36847  31.114  10.726   3.464
63780W        W36848  20.200  35.934   4.950
63781W        W36849  29.669   4.699  11.958
63782W        W36850  37.643  35.505  13.418
63783W        W36851   5.775  30.366  14.342
63784W        W36852   1.004  17.114   1.316
63785W        W36853  13.453  32.049   4.722
63786W        W36854  19.474  39.394  10.627
63787W        W36855  35.341   1.340   4.645
63788W        W36856  31.386  11.238   3.335
63789W        W36857  15.305  31.161  12.471
63790W        W36858   0.795  14.626  12.815
63791W        W36859  40.989  34.584  11.144
63792W        W36860  21.569   2.965  14.502
63793W        W36861  24.453  37.061   3.141
63794W        W36862  39.917  31.939   3.939
63795W        W36863  37.253  34.391  11.119
63796W        W36864   9.319  44.477  13.444
63797W        W36865  16.571  41.113  14.890
63798W        W36866  16.223  37.203   4.086
63799W        W36867  23.227  29.150  14.488
63800W        W36868   8.600   1.789   0.921
63801W        W36869  42.975   9.216  11.092
63802W        W36870  15.751  36.428   2.147
63803W        W36871  30.879  27.599  14.905
63804W        W36872   8.803   7.006   1.352
63805W        W36873  35.485   2.325   2.469
63806W        W36874   3.797  39.668   0.405
63807W        W36875  11.223   2.722   3.419
63808W        W36876  33.053  42.879  11.096
63809W        W36877  37.589  24.990   0.766
63810W        W36878   0.248  41.599  13.534
63811W        W36879  16.622  38.472  11.234
63812W        W36880  35.872  27.916  12.002
63813W        W36881  13.603  15.640   1.838
63814W        W36882   5.378  12.143  12.783
63815W        W36883  35.451  28.736  13.521
63816W        W36884  13.671  34.507  11.930
63817W        W36885  18.480  29.596   2.848
63818W        W36886  39.909  14.757  14.489
63819W        W36887  25.911  28.581   1.254
63820W        W36888   9.889  38.527  11.842
63821W        W36889  39.946  21.930  14.800
63822W        W36890  35.498  15.794  11.604
63823W        W36891  27.036  40.930  11.659
63824W        W36892  31.198  15.096  12.140
63825W        W36893  35.081  36.127  11.979
63826W        W36894  31.860   1.975  10.426
63827W        W36895  42.133  10.492   5.093
63828W        W36896  11.685   3.016  14.062
63829W        W36897   0.664  14.044  10.340
63830W        W36898  20.963  42.746  12.681
63831W        W36899  29.448  41.294   0.656
63832W        W36900  23.236  30.339   2.744
63833W        W36901  20.760  27.556  14.283
63834W        W36902  20.576  39.349  13.470
63835W        W36903   1.171  29.947   2.451
63836W        W36904  10.862  39.072   0.159
63837W        W36905  26.631   5.359  13.093
63838W        W36906  33.601  36.333   1.386
63839W        W36907   6.268   0.942  14.251
63840W        W36908  15.813   7.141  14.582
63841W        W36909   5.721  43.311  12.390
63842W        W36910  31.580  44.312   1.748
63843W        W36911  39.622  11.709   0.686
63844W        W36912  18.594  29.127  12.847
63845W        W36913  16.752  37.571  13.026
63846W        W36914   7.444  20.085   0.557
63847W        W36915  21.237  30.087  12.999
63848W        W36916  17.611   6.907   2.559
63849W        W36917  42.789   0.789   0.887
63850W        W36918  30.938  17.790   3.653
63851W        W36919  22.267  41.086  10.643
63852W        W36920  43.074   4.621  12.397
63853W        W36921  27.079  36.636  13.463
63854W        W36922  44.595  23.467  14.905
63855W        W36923  31.828  19.973   1.846
63856W        W36924  18.848  23.770   0.504
63857W        W36925  28.247  29.897   2.022
63858W        W36926  41.166   1.156  13.961
63859W        W36927  28.700  43.061  12.482
63860W        W36928   8.480   7.615  13.851
63861W        W36929   9.823  32.077  14.721
63862W        W36930   9.802   3.784   1.940
63863W        W36931   5.880  16.576   2.296
63864W        W36932  23.064   0.606   3.809
63865W        W36933  23.597  12.224   2.136
63866W        W36934  42.955  33.441  13.644
63867W        W36935  14.748   1.284  14.002
63868W        W36936   4.941  22.609   1.871
63869W        W36937  15.344  22.738   3.714
63870W        W36938  35.960  14.685   1.651
63871W        W36939  12.282  36.551  14.042
63872W        W36940  30.675   9.918  14.878
63873W        W36941  27.447  41.973  12.089
63874W        W36942  14.245   7.300  10.950
63875W        W36943   2.217  36.901  10.574
63876W        W36944  30.389  26.122  13.517
63877W        W36945   4.977  44.850  14.516
63878W        W36946  32.089   8.357   3.133
63879W        W36947  16.091   7.161  10.716
63880W        W36948  29.465   4.433  14.993
63881W        W36949  23.538  41.099  11.906
63882W        W36950   6.686  28.062   0.271
63883W        W36951  14.630   7.410  12.534
63884W        W36952  18.880  18.651  12.945
63885W        W36953  44.102  15.165  12.083
63886W        W36954  41.454   3.301  12.603
63887W        W36955  13.441  21.636   0.128
63888W        W36956  10.072  33.004   1.445
63889W        W36957  26.911  44.840   1.723
63890W        W36958  15.319  29.076  14.317
63891W        W36959   0.496  11.156   3.542
63892W        W36960  15.583  20.141  12.170
63893W        W36961  21.843  44.459   1.936
63894W        W36962  23.250  16.671  12.042
63895W        W36963   8.436   1.821   2.229
63896W        W36964  18.057  42.023  12.958
63897W        W36965   5.633  42.235   0.814
63898W        W36966  39.043  17.958  10.635
63899W        W36967  34.925  24.768  12.091
63900W        W36968  16.386  22.646   3.709
63901W        W36969  24.095  23.125  14.447
63902W        W36970  42.438  34.416  10.706
63903W        W36971  29.968  42.526  12.938
63904W        W36972  33.059   8.388   2.352
63905W        W36973   3.298   3.012  13.563
63906W        W36974  12.154   4.753  10.679
63907W        W36975  35.613  33.634   0.824
63908W        W36976  17.015  43.550   0.686
63909W        W36977  35.431  35.766   2.090
63910W        W36978  37.789   1.985  13.452
63911W        W36979  28.720  26.939   0.654
63912W        W36980  32.956  22.242   1.242
63913W        W36981  37.830   8.339   0.330
63914W        W36982  20.415   1.790   4.125
63915W        W36983  17.998   1.733  14.828
63916W        W36984  35.949  31.513   0.247
63917W        W36985  12.821   6.632  11.788
63918W        W36986   1.254   8.730  12.895
63919W        W36987   7.874  16.702  11.890
63920W        W36988  37.396   3.695   1.214
63921W        W36989  19.519  31.761  12.934
63922W        W36990  21.871  28.028   4.211
63923W        W36991  10.386   2.293   2.678
63924W        W36992  43.634  25.487  13.390
63925W        W36993  11.680  42.989   4.637
63926W        W36994  38.921   1.695  14.948
63927W        W36995  44.432  25.647  13.889
63928W        W36996  21.538  25.812  12.061
63929W        W36997  32.607  10.297  14.275
63930W        W36998  19.711  36.626   5.030
63931W        W36999  13.618  40.374   2.795
63932W        W37000  23.464  17.438   2.641
63933W        W37001  33.129  44.162   2.318
63934W        W37002  20.092   5.398   4.040
63935W        W37003   3.735  32.452   0.408
63936W        W37004  21.099  22.073   0.055
63937W        W37005  43.998  15.918   0.110
63938W        W37006  14.659  10.884   3.503
63939W        W37007  26.395  23.064   5.021
63940W        W37008  32.657  28.632   3.753
63941W        W37009  44.839  43.815   3.735
63942W        W37010  28.871  30.434   3.387
63943W        W37011   5.245  32.545   2.078
63944W        W37012  28.057  31.692   2.777
63945W        W37013  12.844   9.375  14.682
63946W        W37014  33.443  43.300  13.498
63947W        W37015  19.760  43.365   3.605
63948W        W37016  34.508  16.109   0.001
63949W        W37017  41.463  20.763  10.700
63950W        W37018  25.337   6.900   0.818
63951W        W37019  28.359  41.970   1.813
63952W        W37020  36.495  29.703   4.703
63953W        W37021   0.504  43.487   3.331
63954W        W37022  30.436  22.895  11.102
63955W        W37023  28.186  26.014  12.051
63956W        W37024   2.188  40.745  11.485
63957W        W37025  11.231  16.198   5.464
63958W        W37026   4.768   5.017   3.379
63959W        W37027  43.902   7.715  10.700
63960W        W37028  10.464   2.269   0.495
63961W        W37029  28.380  25.188  14.532
63962W        W37030   4.820   7.763   0.441
63963W        W37031  38.222   8.436   9.802
63964W        W37032   6.108  35.145  14.516
63965W        W37033   0.181  12.762  11.939
63966W        W37034  39.916  10.059  14.569
63967W        W37035  20.775   5.815  10.919
63968W        W37036   5.789  30.554   4.324
63969W        W37037  38.564  31.112  14.791
63970W        W37038  35.943   2.957   3.246
63971W        W37039  43.265   4.155  12.259
63972W        W37040  16.019  13.853  14.735
63973W        W37041  20.139   5.651   2.606
63974W        W37042   7.116  17.704  12.676
63975W        W37043   9.225  25.922  13.935
63976W        W37044  42.463  28.830  13.819
63977W        W37045  28.672  28.972   2.668
63978W        W37046  28.940   3.043   3.840
63979W        W37047  38.105  43.144  11.059
63980W        W37048  36.392  24.166   4.541
63981W        W37049   0.927  43.931  12.179
63982W        W37050   5.912  34.626   3.238
63983W        W37051  43.444  29.615   0.239
63984W        W37052  36.458  31.742   1.443
63985W        W37053  16.446  42.063   4.202
63986W        W37054  25.724   2.938   3.653
63987W        W37055  12.063  17.644   0.628
63988W        W37056  43.944  13.061   4.526
63989W        W37057   0.525  17.333  12.970
63990W        W37058   1.764  24.633  14.228
63991W        W37059  17.780  29.643  14.294
63992W        W37060  38.772   3.280  12.864
63993W        W37061  22.176   5.673   4.310
63994W        W37062  41.560  42.935   1.388
63995W        W37063  15.502  25.148  14.542
63996W        W37064  11.829  31.865  14.251
63997W        W37065  17.109  13.285  10.706
63998W        W37066  39.055  32.596   1.401
63999W        W37067  13.340  22.984   3.858
64000W        W37068   9.296  35.068  12.996
64001W        W37069  31.172  25.976   2.895
64002W        W37070  26.426  28.599  12.434
64003W        W37071  25.512   6.202  13.275
64004W        W37072  14.031   1.052   3.657
64005W        W37073   4.181   0.408  13.338
64006W        W37074  19.301  14.044  12.440
64007W        W37075  29.611   5.124   4.292
64008W        W37076  14.202  44.858  14.339
64009W        W37077  24.996  37.977   1.249
64010W        W37078  30.696  29.555   2.239
64011W        W37079   4.786  42.507  13.116
64012W        W37080  27.052  37.896   0.046
64013W        W37081  20.721   1.869   0.315
64014W        W37082  41.307   5.439   0.867
64015W        W37083  14.853  17.535   3.654
64016W        W37084  44.673   1.407  13.491
64017W        W37085  37.177   0.713   1.342
64018W        W37086   0.376  22.964   2.701
64019W        W37087  44.002   2.192   2.730
64020W        W37088  40.809  31.687   4.695
64021W        W37089  23.165   0.351  14.758
64022W        W37090   8.206   1.799   4.125
64023W        W37091  13.399  36.607  13.900
64024W        W37092  22.081   6.669   3.284
64025W        W37093  26.196  30.087  10.736
64026W        W37094  11.547   4.340  12.934
64027W        W37095  23.215  39.809   4.713
64028W        W37096  10.576  30.837  12.005
64029W        W37097  42.948  32.958   1.176
64030W        W37098  30.175  23.438  14.947
64031W        W37099  21.001  12.386  11.631
64032W        W37100  35.235  10.474   4.080
64033W        W37101   2.810   3.807   3.470
64034W        W37102   6.320  10.311   4.578
64035W        W37103  30.536   2.248   0.671
64036W        W37104  26.605  23.990  14.351
64037W        W37105   5.271  14.243  14.762
64038W        W37106  31.513  23.177  13.406
64039W        W37107  28.471   6.122  11.663
64040W        W37108   9.690  43.354   4.567
64041W        W37109   0.390  17.143  14.510
64042W        W37110   1.762  42.807  14.934
64043W        W37111  11.426  33.755   0.598
64044W        W37112  35.464  25.198  12.874
64045W        W37113  43.399   7.331  12.533
64046W        W37114  27.405  37.590   2.146
64047W        W37115  21.258  34.546  10.701
64048W        W37116  31.451  44.735  12.524
64049W        W37117   2.979  44.783  10.890
64050W        W37118  18.272  39.439   2.145
64051W        W37119  42.385  19.522   0.036
64052W        W37120  41.327  20.205   3.630
64053W        W37121   5.666   1.986  12.209
64054W        W37122   3.650  21.954  11.656
64055W        W37123   5.807  26.210   4.920
64056W        W37124  16.132  14.372   0.681
64057W        W37125   9.844  20.198   3.853
64058W        W37126   2.382  19.667  12.012
64059W        W37127  36.982   8.603   1.209
64060W        W37128  13.314  17.313   1.197
64061W        W37129   3.364  27.306  13.527
64062W        W37130  17.642  40.824   4.250
64063W        W37131  24.823   3.959  14.603
64064W        W37132  28.917  15.623   4.865
64065W        W37133  29.022  14.097  14.576
64066W        W37134  39.771  40.202  14.382
64067W        W37135  20.050  12.625  12.668
64068W        W37136  18.192  15.855   3.264
64069W        W37137  17.759  40.789  14.241
64070W        W37138  29.178  25.984   4.810
64071W        W37139  21.270  39.646   3.462
64072W        W37140   5.937  31.415   0.935
64073W        W37141  30.006  10.194   0.231
64074W        W37142  42.642  40.632  13.863
64075W        W37143  40.168  29.035   3.302
64076W        W37144  33.083  15.326   3.711
64077W        W37145  41.937   1.809   2.935
64078W        W37146   3.213  31.911  14.511
64079W        W37147  21.081  17.138  10.994
64080W        W37148  38.060  11.320  10.414
64081W        W37149  17.452  27.030   3.010
64082W        W37150  31.000  32.533  12.952
64083W        W37151  38.790   9.692   1.489
64084W        W37152  19.994  43.767  12.473
64085W        W37153  33.042  20.071  12.874
64086W        W37154  11.342  29.658  14.789
64087W        W37155  11.996  18.824  13.928
64088W        W37156  31.570  20.281  13.773
64089W        W37157  17.048  23.102   1.018
64090W        W37158  24.323   1.783  14.935
64091W        W37159  36.235  20.980   4.700
64092W        W37160  14.690   0.319   4.844
64093W        W37161  26.582  43.562   4.166
64094W        W37162  42.481  33.610   2.049
64095W        W37163  26.747  26.224  12.282
64096W        W37164  31.859   1.464   3.705
64097W        W37165  24.657  26.485   4.618
64098W        W37166  12.360  12.318   2.224
64099W        W37167  30.952  36.052   3.715
64100W        W37168  19.285  34.030  13.993
64101W        W37169  39.493   5.794   5.021
64102W        W37170  21.626   4.865  10.018
64103W        W37171  32.379   1.898   3.302
64104W        W37172  43.598  16.520  12.311
64105W        W37173  32.733   4.531  14.919
64106W        W37174  31.381  39.948   3.740
64107W        W37175  30.990  25.760  12.825
64108W        W37176  25.106  11.317  11.789
64109W        W37177  10.800  25.726  13.489
64110W        W37178  43.010  33.086   2.734
64111W        W37179   4.406  39.777   4.078
64112W        W37180  24.464  43.180   3.669
64113W        W37181  23.145  14.289  11.136
64114W        W37182  44.061  43.571  13.900
64115W        W37183  18.726   9.259   4.154
64116W        W37184  24.100  40.876  14.358
64117W        W37185   3.405  43.953   2.138
64118W        W37186  20.277   6.164   4.583
64119W        W37187  41.887  28.091   4.597
64120W        W37188   7.299  18.255  13.414
64121W        W37189  44.888  20.610   3.788
64122W        W37190   7.738   3.197   3.743
64123W        W37191  12.516  18.223   4.147
64124W        W37192  35.323  29.571   2.548
64125W        W37193   8.656  38.377   1.421
64126W        W37194  18.850  32.568  13.731
64127W        W37195  29.707  37.284  14.354
64128W        W37196  42.714  44.944   2.300
64129W        W37197   6.760  10.632   4.618
64130W        W37198  27.084  23.920   2.388
64131W        W37199  18.729  33.856   3.313
64132W        W37200  23.829  43.530   0.733
64133W        W37201  38.784   8.154  12.022
64134W        W37202   1.950  15.880   3.702
64135W        W37203   3.167  37.379  13.895
64136W        W37204   6.876  30.477   3.353
64137W        W37205   7.008  23.365   3.206
64138W        W37206  21.737  34.540   4.467
64139W        W37207  30.579  38.662  11.039
64140W        W37208  42.901  43.475   2.029
64141W        W37209   9.948   9.804  14.460
64142W        W37210  27.674  37.504   3.093
64143W        W37211  29.346   4.390   2.255
64144W        W37212  20.993  19.045   2.791
64145W        W37213  16.223  11.502  12.422
64146W        W37214  44.393  15.184  12.498
64147W        W37215   8.267  39.864  14.263
64148W        W37216  33.517  28.893   3.643
64149W        W37217   0.770  13.171   0.786
64150W        W37218   7.260   2.277  12.408
64151W        W37219  32.951  44.187  12.971
64152W        W37220  20.347  21.419   3.765
64153W        W37221  12.670  29.256  14.530
64154W        W37222  22.483  28.491   2.135
64155W        W37223  32.535   3.297  10.696
64156W        W37224  26.493  38.037   2.702
64157W        W37225  11.338   0.321  11.948
64158W        W37226  43.735  17.405   0.873
64159W        W37227  35.142  33.428   0.880
64160W        W37228   0.946   7.392   0.320
64161W        W37229  24.219   1.428   0.870
64162W        W37230  27.570  16.515  12.871
64163W        W37231  22.299  36.974   3.834
64164W        W37232  25.192  38.059  12.379
64165W        W37233  20.894  43.750   0.280
64166W        W37234  17.706  25.119   2.209
64167W        W37235  36.559   2.543   5.183
64168W        W37236  31.340  40.384  14.057
64169W        W37237  23.430  30.908   0.228
64170W        W37238  20.112  19.767   0.671
64171W        W37239  25.528  30.992   4.520
64172W        W37240   6.729  35.671   4.362
64173W        W37241  35.785  29.673  14.901
64174W        W37242  18.166  31.922  14.570
64175W        W37243  27.870  26.962  12.321
64176W        W37244   5.398  16.003  12.862
64177W        W37245  24.195  42.229   0.768
64178W        W37246  25.481  14.676   0.974
64179W        W37247  12.091  38.043  12.991
64180W        W37248   4.455   9.333  14.373
64181W        W37249  41.603  25.802  13.893
64182W        W37250  26.437   7.595  13.776
64183W        W37251  14.475   6.830   1.737
64184W        W37252   3.817  40.739  10.692
64185W        W37253  37.856  20.470  12.911
64186W        W37254  10.179   0.312  13.716
64187W        W37255  29.039   5.154   3.554
64188W        W37256   5.973  12.676  14.765
64189W        W37257  43.495  43.514   3.700
64190W        W37258  37.447   0.919  10.359
64191W        W37259  14.439   2.154   2.634
64192W        W37260  25.425  35.334   5.034
64193W        W37261  33.303  31.963  10.197
64194W        W37262  35.886  12.304   4.770
64195W        W37263  20.485  27.926  13.250
64196W        W37264  40.177  30.164   0.527
64197W        W37265   9.629  41.287  12.071
64198W        W37266   5.261  17.305   4.475
64199W        W37267   3.850  19.119   4.930
64200W        W37268   9.913  40.955   4.023
64201W        W37269  15.789  14.582  11.553
64202W        W37270  26.892  42.780  11.153
64203W        W37271  31.453  19.606  13.201
64204W        W37272  15.266  34.824  10.754
64205W        W37273  14.725   9.124   3.668
64206W        W37274  43.015   2.170  14.546
64207W        W37275  37.374  35.349  12.986
64208W        W37276  37.640  40.950  11.120
64209W        W37277  41.295   6.687   1.330
64210W        W37278  22.220  25.988  11.506
64211W        W37279   5.727  20.041  11.463
64212W        W37280  26.084  24.209  13.319
64213W        W37281  31.123  12.104   0.283
64214W        W37282  15.184  18.712   1.411
64215W        W37283  24.499   3.265   1.471
64216W        W37284  31.771  26.220  14.140
64217W        W37285  27.199   0.075   0.434
64218W        W37286   3.580  33.592   2.827
64219W        W37287  40.403  42.047  14.697
64220W        W37288   6.905   2.478   0.986
64221W        W37289  44.227  44.062   2.631
64222W        W37290  32.415  29.030  11.119
64223W        W37291  15.791  36.042   1.291
64224W        W37292  16.357  21.038  11.689
64225W        W37293  32.965   7.927  13.046
64226W        W37294   2.875  20.440   0.906
64227W        W37295  11.295   1.178  11.553
64228W        W37296  10.639  18.130   0.201
64229W        W37297  19.277  39.303  10.162
64230W        W37298  43.528  41.696  11.902
64231W        W37299  21.703  13.140  14.076
64232W        W37300  31.709   8.853   5.122
64233W        W37301  24.487  29.885   4.554
64234W        W37302  10.135  39.854   3.609
64235W        W37303  38.885  31.842  11.936
64236W        W37304   0.161  34.325   0.878
64237W        W37305   7.625  39.335   2.800
64238W        W37306  27.209   7.604  13.317
64239W        W37307  15.285  37.046  11.641
64240W        W37308  27.215  23.007   4.693
64241W        W37309   4.930  32.118   0.169
64242W        W37310  16.123  36.431  13.334
64243W        W37311  31.029  34.430   0.509
64244W        W37312   0.803   0.323  13.553
64245W        W37313   4.488  32.748  13.100
64246W        W37314  10.856  27.568   1.958
64247W        W37315  35.541  44.725  14.094
64248W        W37316  10.579  22.341  13.411
64249W        W37317  38.573  34.634   0.210
64250W        W37318  10.171  16.847  13.021
64251W        W37319  23.987  37.919  13.943
64252W        W37320  11.582  44.923  12.241
64253W        W37321  25.692  27.113   0.298
64254W        W37322  44.609  15.225  12.015
64255W        W37323  16.714  34.301   0.398
64256W        W37324  25.065  32.517   4.863
64257W        W37325  11.298  10.409   4.219
64258W        W37326  29.188  40.968   2.315
64259W        W37327  34.554  34.235  14.402
64260W        W37328  28.629  35.176  12.493
64261W        W37329  21.451  16.836   2.857
64262W        W37330  15.730  38.718  12.193
64263W        W37331   6.737  26.942   2.254
64264W        W37332  22.574  27.988   3.763
64265W        W37333  34.469  13.429   4.189
64266W        W37334  26.453  29.644   4.558
64267W        W37335  16.712   3.780  12.847
64268W        W37336  24.507  17.112  12.564
64269W        W37337   7.838   0.697   2.044
64270W        W37338  37.650   5.144   0.166
64271W        W37339  42.918   0.493  11.852
64272W        W37340  38.516   9.271   1.611
64273W        W37341  28.695  34.455  14.522
64274W        W37342  21.259  19.134   3.243
64275W        W37343   3.224   0.627  11.594
64276W        W37344  32.377  13.369   3.354
64277W        W37345  25.901  41.494  14.774
64278W        W37346  11.929  13.132  12.329
64279W        W37347  28.247  18.687  11.189
64280W        W37348  43.933  13.786   1.686
64281W        W37349  42.862   3.860  12.475
64282W        W37350  12.757  28.504  13.953
64283W        W37351  30.659  42.898   0.010
64284W        W37352  44.413   3.404   5.114
64285W        W37353  31.962  38.349   1.222
64286W        W37354  27.522  34.866   3.280
64287W        W37355  32.123  30.133  14.469
64288W        W37356  42.480  21.163  14.220
64289W        W37357  17.243  35.016   1.265
64290W        W37358  14.658   5.386  13.988
64291W        W37359   9.049   3.325   4.203
64292W        W37360  17.340   7.872   1.228
64293W        W37361  22.634  35.821  10.182
64294W        W37362  40.527  23.988  10.694
64295W        W37363  14.893  36.472   3.829
64296W        W37364  17.484  31.471  13.779
64297W        W37365  23.698   3.793  10.939
64298W        W37366  24.643  30.107  14.306
64299W        W37367  26.483   3.850   3.236
64300W        W37368  18.746  35.631   0.468
64301W        W37369  17.681  26.982  10.334
64302W        W37370  36.534  16.069  11.149
64303W        W37371  27.136  17.313   4.866
64304W        W37372  14.174  26.674  14.731
64305W        W37373  40.850  14.668   2.853
64306W        W37374  21.796   3.430  12.141
64307W        W37375  43.111  25.882  12.614
64308W        W37376  11.585  39.199  14.010
64309W        W37377  32.027  23.177  11.432
64310W        W37378  34.989   7.800   4.071
64311W        W37379   8.576  41.601   2.947
64312W        W37380  37.295  12.837   4.859
64313W        W37381  25.060  36.256   0.174
64314W        W37382  23.293  13.820   1.426
64315W        W37383  26.086  36.150  12.928
64316W        W37384  26.561  27.074   4.607
64317W        W37385  37.280   4.742   0.490
64318W        W37386  19.763  43.501   9.987
64319W        W37387  41.871  43.903   3.650
64320W        W37388   5.728   1.642   2.335
64321W        W37389  41.062  17.568   0.405
64322W        W37390  13.865  10.803   4.932
64323W        W37391  31.637   7.717  11.951
64324W        W37392  21.197   5.955   4.183
64325W        W37393   7.251  37.558   2.627
64326W        W37394  34.811  34.481  10.399
64327W        W37395  33.602  17.017   0.306
64328W        W37396  38.004  18.161   2.170
64329W        W37397   0.074  28.110   0.277
64330W        W37398   9.294  26.579   0.842
64331W        W37399   6.407  34.748  12.438
64332W        W37400   0.247  28.537   2.822
64333W        W37401  44.239  10.434  11.541
64334W        W37402  17.843  18.156  12.088
64335W        W37403  20.708  34.140  14.233
64336W        W37404  44.762  39.530  10.732
64337W        W37405  39.895  12.727   1.498
64338W        W37406   7.725   7.244  11.080
64339W        W37407  29.877   2.550  14.380
64340W        W37408   7.095  22.786  14.816
64341W        W37409  38.119   5.930   0.019
64342W        W37410  39.871   2.331  13.924
64343W        W37411  17.214  29.449  11.693
64344W        W37412  10.621  13.742   1.718
64345W        W37413  43.460  20.669  10.962
64346W        W37414  41.264  22.172   2.765
64347W        W37415   6.284   3.188   3.617
64348W        W37416   2.005  20.663  10.913
64349W        W37417   9.626  40.982  10.229
64350W        W37418  35.993  14.262   4.949
64351W        W37419  38.398  43.090  12.989
64352W        W37420  43.222  16.301  13.043
64353W        W37421  39.254  36.508  12.291
64354W        W37422  22.463  18.133  13.888
64355W        W37423  40.234  28.689  10.439
64356W        W37424  13.016  26.223   2.656
64357W        W37425  42.866  35.145  11.575
64358W        W37426  35.594  38.275   4.131
64359W        W37427  12.435  30.441   2.745
64360W        W37428  12.619  28.593  13.417
64361W        W37429  24.082  16.189   3.911
64362W        W37430  43.464  32.952   1.824
64363W        W37431  13.098  13.166   1.357
64364W        W37432  11.244  40.868   4.558
64365W        W37433   5.504   3.762   4.007
64366W        W37434  19.141  33.950   4.511
64367W        W37435  32.148   5.091   4.959
64368W        W37436  39.811  36.392   3.215
64369W        W37437  18.166  22.020  13.015
64370W        W37438  34.353   3.227   4.148
64371W        W37439  43.536   0.602  11.122
64372W        W37440   3.763  42.988  13.387
64373W        W37441  15.587   9.170  14.294
64374W        W37442  17.289  13.767  10.882
64375W        W37443  43.894  20.185  13.058
64376W        W37444  13.653  42.222   2.846
64377W        W37445  30.553  28.056   4.667
64378W        W37446  10.402  20.608  13.542
64379W        W37447   9.674  44.507  12.890
64380W        W37448   3.446  27.213   2.196
64381W        W37449  35.394  14.591  12.555
64382W        W37450   6.907  42.759  13.385
64383W        W37451  34.484  38.840   2.018
64384W        W37452  10.491  20.824  10.855
64385W        W37453  27.717  32.902   0.560
64386W        W37454  28.750  43.011  13.832
64387W        W37455   4.638  34.019   4.680
64388W        W37456  15.415  34.223   3.606
64389W        W37457  15.054  42.364  11.681
64390W        W37458  35.416  27.188   3.820
64391W        W37459  22.971  27.546   2.185
64392W        W37460  33.005  33.568   1.411
64393W        W37461  25.736  40.050   3.132
64394W        W37462   9.716   7.339   4.461
64395W        W37463  38.384   5.285   0.989
64396W        W37464  33.481   7.428   3.572
64397W        W37465  40.055   5.335  13.277
64398W        W37466   8.914  32.851  13.208
64399W        W37467  24.568  16.448   3.555
64400W        W37468  28.941  18.613  13.557
64401W        W37469  16.340   9.278   1.341
64402W        W37470  10.098   5.785   2.261
64403W        W37471  43.448  27.416  10.494
64404W        W37472   2.774  40.810  10.652
64405W        W37473  20.090  17.708  13.649
64406W        W37474  42.834  21.034  13.449
64407W        W37475  29.422  44.766   4.926
64408W        W37476   5.490  16.610   4.174
64409W        W37477  27.930  43.877   4.435
64410W        W37478  26.162  37.604   0.924
64411W        W37479  23.706  41.457   0.734
64412W        W37480   2.408  19.977   0.269
64413W        W37481  33.883  35.439   0.484
64414W        W37482  23.906   8.374   1.653
64415W        W37483  18.062  44.828  12.509
64416W        W37484  36.271  19.631  14.873
64417W        W37485  19.505   3.195  14.004
64418W        W37486   7.151  23.643  12.420
64419W        W37487  41.116  34.850   1.210
64420W        W37488  39.384  20.271   0.870
64421W        W37489  43.489   8.114  13.554
64422W        W37490  32.947  25.414   3.820
64423W        W37491   3.804   6.510   0.936
64424W        W37492  25.069  14.976   4.517
64425W        W37493  15.827  27.898   4.589
64426W        W37494  28.017  37.360   0.958
64427W        W37495  43.729  40.029   4.748
64428W        W37496  14.425  17.153   0.343
64429W        W37497  13.677  44.071  13.612
64430W        W37498  34.400   1.177  12.841
64431W        W37499  34.997  41.931  10.521
64432W        W37500  36.366  32.583   4.732
64433W        W37501  10.877  35.063  14.415
64434W        W37502  37.969   1.353   4.514
64435W        W37503   3.656  11.643  13.857
64436W        W37504   0.243   7.345   0.314
64437W        W37505   7.168  33.440  12.931
64438W        W37506  21.209  25.700   1.758
64439W        W37507  28.060  42.693   2.357
64440W        W37508  34.910  39.085  13.791
64441W        W37509   2.765  26.412  11.485
64442W        W37510  40.358   4.185  10.590
64443W        W37511   8.989  25.753   1.378
64444W        W37512  26.896  26.176   1.196
64445W        W37513   9.914  26.184  12.378
64446W        W37514   3.736  34.552   0.320
64447W        W37515  25.929  13.946  12.100
64448W        W37516  44.379  18.619  14.174
64449W        W37517  25.192  31.666  14.022
64450W        W37518  26.865  11.725  11.630
64451W        W37519  23.791   3.735  12.877
64452W        W37520   1.282  16.616   0.351
64453W        W37521  14.394   2.248  12.548
64454W        W37522  14.145  13.933   1.942
64455W        W37523   7.342  35.598   3.370
64456W        W37524   2.168  27.163   4.064
64457W        W37525  28.697  44.738   1.309
64458W        W37526  10.800   8.845   3.645
64459W        W37527  10.321  19.027  10.846
64460W        W37528  14.433   2.736  11.627
64461W        W37529  33.069  16.550  11.755
64462W        W37530   9.192  31.498   0.598
64463W        W37531  14.534  30.500   4.948
64464W        W37532  37.777  14.295   4.296
64465W        W37533  37.850  16.764   0.250
64466W        W37534  13.830  14.249   2.684
64467W        W37535  32.473  43.213  12.490
64468W        W37536   0.888  15.993   0.024
64469W        W37537  26.280  28.408   3.225
64470W        W37538  15.792  15.172  13.092
64471W        W37539  23.277   5.733   1.944
64472W        W37540   9.783   2.427   4.550
64473W        W37541  42.792   0.318   3.186
64474W        W37542  23.924   6.373   1.874
64475W        W37543  40.535  23.133  14.002
64476W        W37544  14.576  28.946  12.470
64477W        W37545  14.251  21.618  13.545
64478W        W37546  10.027  21.633   3.450
64479W        W37547  29.753  19.206   0.356
64480W        W37548  30.168   5.340  10.414
64481W        W37549  14.864  20.561   4.973
64482W        W37550   8.743  26.079  11.219
64483W        W37551  38.864  11.587  13.097
64484W        W37552  44.385  11.207  14.353
64485W        W37553  32.333   2.043  11.957
64486W        W37554  11.585  34.686  14.952
64487W        W37555   3.362  39.873  11.494
64488W        W37556  11.754  20.095  11.656
64489W        W37557  10.750  40.261   2.369
64490W        W37558   2.742  34.451  10.545
64491W        W37559  10.397  15.908  10.670
64492W        W37560  12.552  38.834  12.800
64493W        W37561  16.972  12.126  14.381
64494W        W37562  20.607   3.106  12.861
64495W        W37563  18.869  25.054  14.457
64496W        W37564  17.707   0.228  12.674
64497W        W37565  23.218  19.605   2.363
64498W        W37566  24.750  42.826   3.101
64499W        W37567  28.644  33.381  12.827
64500W        W37568  36.557  40.478   4.597
64501W        W37569  44.235  31.437   2.276
64502W        W37570  10.738  30.387  12.407
64503W        W37571  11.353  23.679  13.268
64504W        W37572  29.531   0.885  13.449
64505W        W37573  14.795   3.357  11.088
64506W        W37574  20.298  20.515  11.027
64507W        W37575  12.270   6.882   3.356
64508W        W37576  11.905   6.390  14.727
64509W        W37577  22.055  34.034  14.830
64510W        W37578   3.243   7.762  14.214
64511W        W37579  43.003  22.211  12.074
64512W        W37580  13.222  33.319  11.990
64513W        W37581  23.107   8.357   1.438
64514W        W37582  43.905   2.360  11.970
64515W        W37583   6.346  38.522   0.166
64516W        W37584  24.456   3.696   3.799
64517W        W37585  12.803   9.484   0.188
64518W        W37586  25.753  34.881  13.906
64519W        W37587  17.212  43.271   1.395
64520W        W37588  44.263  17.707  13.415
64521W        W37589  28.587   7.178  13.385
64522W        W37590   5.240  10.590   4.463
64523W        W37591  10.693  18.710   4.689
64524W        W37592  17.496  43.933  11.834
64525W        W37593   7.656  44.872   3.043
64526W        W37594  20.651  14.218  14.513
64527W        W37595  20.595  20.272  13.386
64528W        W37596  19.653  12.198  14.062
64529W        W37597  17.728  43.761  10.925
64530W        W37598  34.808   5.437   4.070
64531W        W37599  13.216  17.313   2.166
64532W        W37600  40.412  39.356  11.057
64533W        W37601   5.848  34.033   0.544
64534W        W37602  20.707  18.768  13.437
64535W        W37603   2.272  41.504   4.198
64536W        W37604  42.984  26.184  13.451
64537W        W37605  16.700   9.219   4.243
64538W        W37606  28.515  32.997  14.916
64539W        W37607  16.017  26.027   0.878
64540W        W37608  34.957   7.931  11.693
64541W        W37609  12.187  40.352   0.977
64542W        W37610  14.373  35.469  14.484
64543W        W37611  24.503  28.399  12.944
64544W        W37612  28.957  34.346   0.019
64545W        W37613  20.686  16.144  12.051
64546W        W37614  12.209  15.373   4.121
64547W        W37615   3.624  21.301  14.838
64548W        W37616  28.638  21.557   3.895
64549W        W37617  26.881  30.549   3.279
64550W        W37618  35.562   2.407   4.771
64551W        W37619  44.964  36.858  13.523
64552W        W37620  36.353  34.976   1.582
64553W        W37621  41.426   3.901  14.415
64554W        W37622   5.059  28.947  10.405
64555W        W37623  23.193  31.677  13.056
64556W        W37624  29.148  21.791   0.826
64557W        W37625  29.019  33.871  12.320
64558W        W37626  34.932  35.446  13.100
64559W        W37627   8.620   0.488   0.074
64560W        W37628  19.426  17.380  14.863
64561W        W37629   9.701  25.050   0.668
64562W        W37630   2.129  40.338   3.268
64563W        W37631  11.788   9.607   1.489
64564W        W37632   3.512  35.185  11.557
64565W        W37633   3.499  35.946  12.936
64566W        W37634  26.148   2.945  11.577
64567W        W37635  41.960   8.295  11.643
64568W        W37636   7.290   6.544   1.471
64569W        W37637   9.645  11.189   1.302
64570W        W37638  13.432  35.357   4.484
64571W        W37639  30.087  37.607   3.784
64572W        W37640   3.269  38.047   4.346
64573W        W37641   7.825  39.547   3.264
64574W        W37642  16.912  35.352  10.815
64575W        W37643  26.349  24.188   3.715
64576W        W37644  18.159  16.787   3.190
64577W        W37645  40.117  29.562  13.421
64578W        W37646  36.320  33.134  14.925
64579W        W37647   1.190  13.247   4.061
64580W        W37648  26.026  29.853   4.133
64581W        W37649  30.093  11.330   1.416
64582W        W37650   9.279  39.787   5.121
64583W        W37651  30.542  29.228   2.645
64584W        W37652  10.277  18.426   4.553
64585W        W37653  24.585  28.376   0.771
64586W        W37654  29.663  34.957   2.811
64587W        W37655  31.055   0.403  11.978
64588W        W37656   8.008   4.904  12.499
64589W        W37657  35.119   6.311   4.999
64590W        W37658  34.464  41.086   2.196
64591W        W37659  35.887  24.520   1.324
64592W        W37660   9.811  42.091  11.535
64593W        W37661  23.189  39.548  14.309
64594W        W37662   7.620  25.084   3.756
64595W        W37663  33.125   8.258  12.325
64596W        W37664  24.292  13.079  10.698
64597W        W37665  38.455  27.361  11.590
64598W        W37666  35.252  21.209  11.970
64599W        W37667  13.833  12.856   3.721
64600W        W37668  15.302  15.303   1.797
64601W        W37669  22.982  30.167  11.161
64602W        W37670   2.329  10.829  14.426
64603W        W37671  40.366  18.551  13.542
64604W        W37672  26.628  10.666   2.858
64605W        W37673  13.432  23.619   1.056
64606W        W37674   9.136  37.438   3.709
64607W        W37675  36.900  26.869  10.721
64608W        W37676  17.130  24.692   0.383
64609W        W37677  33.710  23.525   0.326
64610W        W37678  10.660  26.544   4.664
64611W        W37679  18.712  14.052   0.634
64612W        W37680   8.400  19.072  12.940
64613W        W37681  28.254   6.700   3.448
64614W        W37682   8.925  39.189  10.128
64615W        W37683  41.409  19.702  10.698
64616W        W37684   4.296  15.651  11.368
64617W        W37685  13.106   2.816   3.469
64618W        W37686  22.629  22.267   2.760
64619W        W37687  21.705  41.416  14.324
64620W        W37688   5.954   7.843   1.903
64621W        W37689  20.799  19.572  14.400
64622W        W37690  16.548   3.994   0.744
64623W        W37691  19.719  24.244   4.308
64624W        W37692  11.133  37.316  14.321
64625W        W37693  27.951  28.697   2.173
64626W        W37694  14.661  13.253   3.624
64627W        W37695  23.409   3.438  13.791
64628W        W37696  25.128   8.810   1.318
64629W        W37697   5.629  22.239   3.240
64630W        W37698  20.022  30.879  14.520
64631W        W37699   6.276   6.966   4.197
64632W        W37700  15.811  28.850  11.997
64633W        W37701  28.249  37.364   4.276
64634W        W37702  15.752  17.574  10.759
64635W        W37703  31.363  15.630   2.306
64636W        W37704  15.691  22.633  14.998
64637W        W37705   9.694  16.850  12.385
64638W        W37706  37.930  18.184   1.154
64639W        W37707   8.698  28.538  14.038
64640W        W37708  37.673  26.658   1.985
64641W        W37709  15.697  12.574   0.787
64642W        W37710  28.655  19.698  10.251
64643W        W37711  22.479  35.912  13.260
64644W        W37712  35.513   0.395  10.876
64645W        W37713  37.048   6.717  12.822
64646W        W37714  27.192  18.510   1.455
64647W        W37715   4.935   7.271   0.255
64648W        W37716  28.818  31.697  11.247
64649W        W37717   5.655  35.868   1.825
64650W        W37718  22.827  33.906   2.371
64651W        W37719  31.948  18.527  12.389
64652W        W37720  33.893  37.699  12.994
64653W        W37721  31.686  15.250   3.554
64654W        W37722  42.119  35.215   3.253
64655W        W37723  21.593  34.293   2.658
64656W        W37724  18.470  37.853  11.543
64657W        W37725  35.983  37.623   1.302
64658W        W37726   8.090  40.286   2.845
64659W        W37727  11.215   7.631  13.473
64660W        W37728  24.505  18.596  13.452
64661W        W37729  41.593  25.193  10.645
64662W        W37730   1.582  15.832   0.699
64663W        W37731  43.913  19.220  13.539
64664W        W37732  15.842  33.574  10.244
64665W        W37733  41.961  42.242   3.934
64666W        W37734  39.577   9.627  12.106
64667W        W37735  27.623  29.075   1.794
64668W        W37736  41.896  33.495  12.959
64669W        W37737  36.208  19.097  13.894
64670W        W37738  10.775  12.298  14.834
64671W        W37739  30.643  13.648  13.890
64672W        W37740  13.089  35.092  12.354
64673W        W37741  25.698  37.670   0.723
64674W        W37742  26.609  10.089  14.955
64675W        W37743  39.579  27.845   3.703
64676W        W37744  36.404  43.247   1.881
64677W        W37745  27.573   9.978  12.821
64678W        W37746  29.553  24.726   3.627
64679W        W37747  17.558  43.485   3.772
64680W        W37748  33.954  13.681   0.365
64681W        W37749  26.447  18.033  13.477
64682W        W37750  14.312  32.636   4.923
64683W        W37751  14.096  43.342   0.894
64684W        W37752  21.720   0.024  10.565
64685W        W37753   6.968  33.934   2.845
64686W        W37754  22.669  24.476   0.663
64687W        W37755  20.770  31.904  12.549
64688W        W37756  15.118   1.715  11.352
64689W        W37757  41.644  32.665   4.526
64690W        W37758  33.490  40.047   3.614
64691W        W37759  21.229   2.708   2.784
64692W        W37760  12.594  25.851  14.535
64693W        W37761  12.580  15.049   4.282
64694W        W37762  30.366  42.617  12.077
64695W        W37763   4.822  43.032   3.136
64696W        W37764  14.836   1.501   0.268
64697W        W37765   9.401  26.031   3.145
64698W        W37766  11.154   0.390  12.509
64699W        W37767   4.157  17.444  12.574
64700W        W37768  43.781  10.379  11.168
64701W        W37769  43.001  36.700  11.222
64702W        W37770  19.659  32.923   2.823
64703W        W37771  33.890  13.840  10.464
64704W        W37772   3.064  11.019  14.382
64705W        W37773   0.930  23.660   4.611
64706W        W37774  39.242  10.404  11.405
64707W        W37775   0.737  30.044   1.787
64708W        W37776  26.389  38.047  10.452
64709W        W37777   7.953  13.062  14.806
64710W        W37778  44.724  24.082   1.652
64711W        W37779  37.303  30.250   0.422
64712W        W37780   3.229  37.996  10.753
64713W        W37781  41.598  38.499   4.210
64714W        W37782  13.701  23.575   1.499
64715W        W37783  34.136   5.393   3.317
64716W        W37784  11.474  15.412   5.145
64717W        W37785  12.947  22.828   4.165
64718W        W37786  43.490   0.164   0.364
64719W        W37787   1.471  14.335  14.772
64720W        W37788  28.068  26.513   0.294
64721W        W37789  26.901  42.757   5.240
64722W        W37790  25.852  44.114  14.067
64723W        W37791  22.500  33.092  14.924
64724W        W37792  38.406   8.866  11.921
64725W        W37793   9.371   4.891   3.728
64726W        W37794  13.702  27.221   2.874
64727W        W37795  33.169  12.794   0.661
64728W        W37796  41.831   2.305  11.833
64729W        W37797  15.122  28.451  11.086
64730W        W37798  10.646  15.009  14.856
64731W        W37799  34.180  31.852   4.265
64732W        W37800   5.924  31.826  13.490
64733W        W37801   1.025  19.319  11.589
64734W        W37802  36.208  22.442   9.649
64735W        W37803   6.754  11.294   1.795
64736W        W37804  41.949  33.801  11.126
64737W        W37805  34.887  14.530   2.301
64738W        W37806  11.755  17.311   2.056
64739W        W37807  28.364  23.409  14.886
64740W        W37808  34.376  24.763  12.619
64741W        W37809  39.525   7.921   0.815
64742W        W37810  29.149  26.167  13.029
64743W        W37811  29.195  25.981   0.053
64744W        W37812   3.767  19.982  14.640
64745W        W37813   5.937  17.989   0.908
64746W        W37814  35.911  42.773   3.655
64747W        W37815  22.191   9.197  11.322
64748W        W37816   0.991  30.807   2.326
64749W        W37817  17.079  28.965  11.653
64750W        W37818   0.824  24.962   3.128
64751W        W37819  20.905   4.972   4.113
64752W        W37820  22.198   0.245  10.559
64753W        W37821  41.218  16.631   9.734
64754W        W37822   0.036  39.441  11.958
64755W        W37823  30.648  42.024   1.365
64756W        W37824  27.214  23.480  12.417
64757W        W37825  39.688  44.278   3.651
64758W        W37826  22.130   7.657  10.381
64759W        W37827  32.095  21.180   1.407
64760W        W37828  31.223  30.024   3.855
64761W        W37829  24.330  34.958  13.547
64762W        W37830  18.777  11.206  11.933
64763W        W37831   8.421  23.814   0.812
64764W        W37832  39.219  35.098  14.898
64765W        W37833  35.341  24.006  13.786
64766W        W37834  15.708  23.226   2.027
64767W        W37835  38.434  10.447   2.639
64768W        W37836   7.812   4.475   2.747
64769W        W37837  22.573  13.492   0.823
64770W        W37838  41.321  29.645  14.075
64771W        W37839   6.201  26.043  11.210
64772W        W37840  44.224  11.817   4.336
64773W        W37841  28.437  28.447  11.238
64774W        W37842   3.879   0.506   4.579
64775W        W37843  40.588  40.446  13.967
64776W        W37844   9.272  13.084   4.238
64777W        W37845  25.386  14.777   2.856
64778W        W37846   7.010  37.567  11.148
64779W        W37847   3.608   5.308  11.099
64780W        W37848  21.172  19.634   2.016
64781W        W37849  12.856  20.801  12.117
64782W        W37850  32.597  39.531   4.080
64783W        W37851   6.351  31.282   0.232
64784W        W37852   8.862  31.536  14.970
64785W        W37853  28.943  29.571   0.501
64786W        W37854  32.394  18.580  14.176
64787W        W37855  26.560   2.998   0.511
64788W        W37856  14.608  40.251  12.515
64789W        W37857  38.928  24.904  14.811
64790W        W37858  22.661  30.193  12.518
64791W        W37859   2.268  30.340   1.395
64792W        W37860   0.216  20.439   0.764
64793W        W37861   1.393  23.214  13.829
64794W        W37862  28.692   4.397   4.676
64795W        W37863  28.103   9.815  13.468
64796W        W37864   9.481  11.715   0.376
64797W        W37865  43.214  44.311   1.414
64798W        W37866  40.528  21.082  14.777
64799W        W37867  14.195   5.560  10.587
64800W        W37868  31.611   6.855  10.720
64801W        W37869   2.690  28.639  13.605
64802W        W37870  13.347   1.399  11.085
64803W        W37871  13.849  32.972   3.343
64804W        W37872  32.235  17.378  10.289
64805W        W37873  31.949  37.668  11.264
64806W        W37874  13.347  11.790   2.784
64807W        W37875  27.699   9.138   1.410
64808W        W37876   0.729   3.851   0.380
64809W        W37877   8.141  26.075   4.936
64810W        W37878  19.126  23.678   0.931
64811W        W37879  38.091  26.446   1.741
64812W        W37880   2.519   7.295  14.660
64813W        W37881   6.612  25.952  12.456
64814W        W37882  42.756  41.539   1.897
64815W        W37883  24.086   7.972  13.155
64816W        W37884  23.988  19.129   4.595
64817W        W37885  38.428   3.191  12.480
64818W        W37886  31.862   6.085   2.095
64819W        W37887  11.757  12.340   3.862
64820W        W37888  34.360   3.945  14.353
64821W        W37889   2.798  10.768  13.650
64822W        W37890  26.549  27.735  10.690
64823W        W37891  13.566   1.308   3.322
64824W        W37892  22.281  37.045  14.511
64825W        W37893   2.691   0.779  11.568
64826W        W37894  29.463  26.194  11.331
64827W        W37895  28.826  33.072   1.353
64828W        W37896  41.125  10.750  14.534
64829W        W37897   1.404  37.062  14.456
64830W        W37898  28.024  19.084  10.219
64831W        W37899  37.508   6.768  14.969
64832W        W37900  17.192  24.168   4.619
64833W        W37901  18.731   7.168  11.167
64834W        W37902  36.398  42.827   0.787
64835W        W37903  28.629   1.775   2.732
64836W        W37904  40.990  35.011   3.412
64837W        W37905  29.457   4.285   3.373
64838W        W37906  37.624  34.632   4.207
64839W        W37907  32.533  21.968   1.340
64840W        W37908  33.344  38.024   1.107
64841W        W37909  17.745  11.005   2.061
64842W        W37910  29.635  25.700  14.991
64843W        W37911  29.947  40.112  11.662
64844W        W37912  13.808  17.351  10.577
64845W        W37913   6.613  41.643   1.733
64846W        W37914  10.234  15.432  14.944
64847W        W37915  28.955  37.329  11.989
64848W        W37916  39.359   0.369  12.104
64849W        W37917   8.189   9.642   0.020
64850W        W37918   0.900  21.349  13.906
64851W        W37919  19.934  26.253  12.898
64852W        W37920  40.499   4.466  14.892
64853W        W37921   6.934  17.167  13.455
64854W        W37922  28.151  13.124  14.293
64855W        W37923  38.047  24.463  11.672
64856W        W37924  22.506  16.212  11.178
64857W        W37925  26.595  29.044  12.617
64858W        W37926  12.608   8.802   2.205
64859W        W37927   3.316  13.511   1.287
64860W        W37928  27.817  22.184  14.927
64861W        W37929   8.811   1.930  10.708
64862W        W37930  35.344   3.981   2.792
64863W        W37931  24.491  18.454   3.716
64864W        W37932  41.817  24.824  12.137
64865W        W37933  37.869  15.710  10.413
64866W        W37934  44.416  25.384   2.723
64867W        W37935  32.934   4.778   1.878
64868W        W37936  14.928   0.043   2.303
64869W        W37937  21.660   3.285  10.763
64870W        W37938  26.585  42.962  12.663
64871W        W37939   1.630  39.313   4.679
64872W        W37940   1.041  34.831  12.645
64873W        W37941  15.354  20.218  12.699
64874W        W37942  44.342  17.745  14.729
64875W        W37943  15.309  38.547   4.529
64876W        W37944  32.136  25.579   0.728
64877W        W37945  38.850  29.886   2.902
64878W        W37946  44.425  25.583   2.007
64879W        W37947  13.027   2.902  11.145
64880W        W37948  32.532  12.265   4.332
64881W        W37949  10.147  38.254  13.041
64882W        W37950  18.502  17.354  12.912
64883W        W37951  30.088   4.803  14.748
64884W        W37952   0.765  11.544   1.098
64885W        W37953  16.947   3.538   1.865
64886W        W37954   2.433  44.927   4.570
64887W        W37955  15.311  30.133  10.602
64888W        W37956  14.669  23.008   2.170
64889W        W37957  15.526  40.893  14.149
64890W        W37958   1.809  29.404  12.991
64891W        W37959  19.092  37.271   2.609
64892W        W37960  23.685  15.549  13.451
64893W        W37961  44.432  28.890   1.927
64894W        W37962  10.601  16.573   9.759
64895W        W37963  43.902  27.630  10.670
64896W        W37964  13.594  40.299  10.567
64897W        W37965  24.418   4.352   4.573
64898W        W37966  27.613  16.262   1.807
64899W        W37967   3.739  13.256   2.366
64900W        W37968  23.032   5.836  12.430
64901W        W37969  42.065  38.585   0.242
64902W        W37970  11.119   3.305  13.135
64903W        W37971  19.068  15.180   1.988
64904W        W37972   4.194  11.751   3.620
64905W        W37973  33.345  24.585   2.406
64906W        W37974  27.000  23.256  12.861
64907W        W37975  29.957   8.034   3.253
64908W        W37976  37.403  37.021  12.020
64909W        W37977  23.254  12.200  14.392
64910W        W37978  10.215  44.920  12.199
64911W        W37979  12.967   1.894   0.764
64912W        W37980  21.820   1.015  14.525
64913W        W37981  37.015  36.352   3.251
64914W        W37982   2.741  37.021   2.880
64915W        W37983  18.747  24.611  14.709
64916W        W37984  15.285  29.528  12.388
64917W        W37985  34.128  32.621   2.896
64918W        W37986   3.442  21.551   3.115
64919W        W37987   1.263   9.243  12.608
64920W        W37988  34.576   8.439   0.852
64921W        W37989  12.800  35.833   0.296
64922W        W37990   0.356  21.117  11.866
64923W        W37991   6.846  18.747  11.760
64924W        W37992  23.565  18.623   1.900
64925W        W37993  11.432  32.020  12.973
64926W        W37994  44.001  31.419  13.071
64927W        W37995  35.435  30.847   4.551
64928W        W37996  13.395  30.995   4.315
64929W        W37997  18.568  26.357  11.630
64930W        W37998  38.464  28.759   4.806
64931W        W37999  28.158  10.858  11.998
64932W        W38000  42.700  18.554  13.894
64933W        W38001  16.247  26.467  11.149
64934W        W38002  23.552   2.972  14.866
64935W        W38003   7.677  31.588  11.340
64936W        W38004  26.866  24.684   1.417
64937W        W38005  29.433  15.847  11.460
64938W        W38006  20.174   3.672   1.764
64939W        W38007  23.930   0.270   2.675
64940W        W38008  27.416  36.017  12.472
64941W        W38009  28.884  14.667   4.419
64942W        W38010  43.853  41.047   2.811
64943W        W38011   7.826   1.138  12.930
64944W        W38012  12.339  35.377  14.804
64945W        W38013  17.099  41.360  12.751
64946W        W38014  40.208  29.901   1.409
64947W        W38015   7.138  22.003  11.587
64948W        W38016  12.211  38.555   1.287
64949W        W38017  20.284  36.204   4.516
64950W        W38018  22.403  25.662  13.634
64951W        W38019  41.396  22.252  12.411
64952W        W38020  38.394  39.578  11.635
64953W        W38021   1.873   4.210  10.924
64954W        W38022  20.263   0.574  12.449
64955W        W38023  42.918  14.117   1.194
64956W        W38024  43.651  33.781  10.126
64957W        W38025   5.854  12.381  12.518
64958W        W38026   7.757   4.465   5.108
64959W        W38027  18.587  36.453  10.675
64960W        W38028  40.800  31.451  10.650
64961W        W38029   3.911  22.611   3.416
64962W        W38030  28.528   8.478   3.307
64963W        W38031  38.608   5.975  13.097
64964W        W38032   8.182   3.988   1.037
64965W        W38033  26.591  24.912   4.660
64966W        W38034   1.181  27.664   2.815
64967W        W38035  25.925  12.398   0.444
64968W        W38036  13.258  42.765   0.721
64969W        W38037   6.296   7.416  14.042
64970W        W38038  32.627  23.230   2.125
64971W        W38039  14.073   9.408   1.815
64972W        W38040  33.277  41.205  11.922
64973W        W38041  44.476   4.669  14.936
64974W        W38042  33.636  15.705  14.417
64975W        W38043  12.385  17.444  11.655
64976W        W38044   5.133  33.741  13.976
64977W        W38045   2.500  44.751  11.061
64978W        W38046  14.849  28.601  11.529
64979W        W38047  41.119   2.477   0.215
64980W        W38048  26.184  36.898   0.724
64981W        W38049  11.170  43.284   2.293
64982W        W38050  36.553  18.136  11.654
64983W        W38051   0.945  30.546   1.664
64984W        W38052   4.231  44.324   4.627
64985W        W38053   0.277  38.454  10.402
64986W        W38054  18.381  40.876  14.816
64987W        W38055   3.865  24.906   3.049
64988W        W38056  44.708  36.057  11.142
64989W        W38057   6.293  36.185   3.130
64990W        W38058  30.129  39.042  10.215
64991W        W38059  43.947  21.537   1.250
64992W        W38060  26.010  11.348   1.283
64993W        W38061  10.838  19.209  12.055
64994W        W38062   5.687   7.794   0.010
64995W        W38063  23.002   5.261  11.979
64996W        W38064   7.307  26.883  11.045
64997W        W38065  25.452  12.928   0.906
64998W        W38066   7.170  14.727  11.701
64999W        W38067   8.207  30.906  12.014
65000W        W38068  11.744   5.026  12.155
65001W        W38069  10.894  16.691  13.223
65002W        W38070  35.436  24.262   0.829
65003W        W38071  12.697  39.297  13.037
65004W        W38072  40.444  28.151   2.321
65005W        W38073  39.908  16.164   4.902
65006W        W38074  31.435  39.655  11.960
65007W        W38075   5.768  12.128   1.330
65008W        W38076  24.546  41.965   3.382
65009W        W38077   4.949   7.852  12.586
65010W        W38078   0.846  18.245   4.997
65011W        W38079  34.896  29.478   0.377
65012W        W38080  25.118   8.423  11.919
65013W        W38081  36.648   6.680   3.257
65014W        W38082  44.792   5.650  14.013
65015W        W38083  25.176  37.063  13.442
65016W        W38084   1.338  26.236   0.414
65017W        W38085  15.569   7.634   2.482
65018W        W38086   6.437   2.973   2.173
65019W        W38087  18.704  19.267   1.303
65020W        W38088  21.137  30.892  13.645
65021W        W38089   0.286  34.056  13.460
65022W        W38090  19.604  28.648   4.388
65023W        W38091  20.808   2.721  10.996
65024W        W38092  38.339  15.078  12.401
65025W        W38093  27.908  14.420   0.874
65026W        W38094  12.667   6.046   2.963
65027W        W38095  23.447  13.405  11.539
65028W        W38096  17.241   7.339  14.964
65029W        W38097  11.635   9.272  11.660
65030W        W38098  34.903  19.662   1.565
65031W        W38099  19.865  29.908  13.918
65032W        W38100  23.022   0.737   3.331
65033W        W38101  34.328  33.190   4.575
65034W        W38102  27.999  17.284   0.966
65035W        W38103   9.423  12.486   1.972
65036W        W38104  26.064  38.443  10.615
65037W        W38105  38.095  33.154  12.465
65038W        W38106  42.784   3.733  14.751
65039W        W38107  32.460  37.050  10.705
65040W        W38108  44.736  15.028   0.434
65041W        W38109   4.571   3.501   1.084
65042W        W38110  35.777  26.843   3.693
65043W        W38111   0.523  27.063   1.632
65044W        W38112  13.584  22.562   4.738
65045W        W38113  40.306  28.364   2.763
65046W        W38114  40.157  15.930   3.698
65047W        W38115  36.582  19.695   0.839
65048W        W38116  32.265  30.222  10.008
65049W        W38117  39.562  27.112  12.586
65050W        W38118  31.334  32.500   1.694
65051W        W38119  31.642   0.478   1.229
65052W        W38120   7.935  13.567  14.890
65053W        W38121  42.881  14.553   0.909
65054W        W38122  30.459   4.810   1.591
65055W        W38123  12.293  18.228  14.787
65056W        W38124  43.943   0.759  14.324
65057W        W38125  38.572  10.607   3.234
65058W        W38126  32.905   3.752   1.868
65059W        W38127  20.457  17.609   1.823
65060W        W38128  35.100  10.190   1.857
65061W        W38129  18.512   4.547   5.056
65062W        W38130  15.116  26.395  14.338
65063W        W38131  40.491  19.750  13.399
65064W        W38132  25.074  23.200  11.221
65065W        W38133  36.924  39.289  12.631
65066W        W38134  16.709   3.513   2.483
65067W        W38135  18.616  14.214   1.107
65068W        W38136   9.954  18.574  11.054
65069W        W38137  39.301  19.791   2.396
65070W        W38138  35.405  23.759  14.930
65071W        W38139  17.545  27.553  11.613
65072W        W38140  40.293  10.845   1.418
65073W        W38141  37.437  36.411   1.992
65074W        W38142  26.224  28.095  14.263
65075W        W38143   6.921   9.745  10.469
65076W        W38144   1.195  19.746   2.723
65077W        W38145  23.444  27.530  12.056
65078W        W38146  26.527  34.997   0.865
65079W        W38147  25.243   5.801   3.803
65080W        W38148  33.938  37.161   4.694
65081W        W38149   2.252  18.573  13.379
65082W        W38150  31.603   9.685   2.815
65083W        W38151  13.045  20.278  14.664
65084W        W38152  24.035  32.691  11.269
65085W        W38153  29.410   4.702   5.226
65086W        W38154   1.015   4.485   2.284
65087W        W38155  19.805  28.016  12.532
65088W        W38156  16.334  11.218   3.352
65089W        W38157   1.206  32.187   2.963
65090W        W38158  28.042  14.799   1.253
65091W        W38159  31.824  17.259  12.605
65092W        W38160  41.623  10.158   2.172
65093W        W38161  35.083   7.070  11.997
65094W        W38162   0.466  38.514  14.776
65095W        W38163  25.403  19.778  14.077
65096W        W38164  25.282  30.071  12.926
65097W        W38165   0.823  18.535   1.907
65098W        W38166   0.921  37.119  13.774
65099W        W38167  34.365  26.414  14.505
65100W        W38168   0.865  16.649  14.048
65101W        W38169  39.120  16.280  12.510
65102W        W38170  17.550  44.794  12.443
65103W        W38171  15.203  18.380  11.622
65104W        W38172  35.576  34.148   5.025
65105W        W38173  20.922   8.777   0.443
65106W        W38174  19.754  33.595   3.161
65107W        W38175  43.866  19.682   4.403
65108W        W38176  14.117  35.145  14.842
65109W        W38177  44.182  34.379  13.068
65110W        W38178  15.588  29.497   4.166
65111W        W38179   8.710  11.289   2.245
65112W        W38180  18.660   2.690   3.279
65113W        W38181  20.514   6.274   2.121
65114W        W38182  13.317  29.432  10.961
65115W        W38183  38.804   4.276  12.608
65116W        W38184  34.986  15.689  14.321
65117W        W38185   2.339  28.629  11.406
65118W        W38186  41.111  14.867   4.590
65119W        W38187  21.365  28.060   4.219
65120W        W38188   2.594  33.608  12.930
65121W        W38189  26.068  40.506   2.385
65122W        W38190  26.022   8.460  14.589
65123W        W38191  39.176  40.953  11.109
65124W        W38192  35.023  44.200   2.490
65125W        W38193  15.055  12.814   1.635
65126W        W38194  19.751  35.985  14.280
65127W        W38195  42.814  15.838  11.134
65128W        W38196  12.266   3.433   2.721
65129W        W38197  23.495   4.212   4.582
65130W        W38198  18.823  32.940  11.039
65131W        W38199   3.443   0.753   0.005
65132W        W38200  28.683   1.824  11.006
65133W        W38201  35.313   1.869   2.281
65134W        W38202  14.180  33.982  10.718
65135W        W38203   0.310   0.782  14.653
65136W        W38204  19.507  29.095  14.122
65137W        W38205  13.611  33.848  10.637
65138W        W38206  32.894  32.956  12.683
65139W        W38207  35.353  23.213   0.914
65140W        W38208  20.924  33.921  12.408
65141W        W38209  15.032  25.603  12.521
65142W        W38210  30.957  34.073  14.303
65143W        W38211  22.797   8.733  12.889
65144W        W38212  10.625  42.881  13.353
65145W        W38213  20.851  17.568  11.130
65146W        W38214  33.927  23.925  12.591
65147W        W38215  28.628   9.003  10.720
65148W        W38216   6.015   8.303  13.347
65149W        W38217  35.329  19.050  11.526
65150W        W38218  29.667  40.906  14.846
65151W        W38219  34.358  41.570  12.139
65152W        W38220  21.585   7.200  12.486
65153W        W38221  10.784  44.259   2.881
65154W        W38222  42.562   5.511   2.818
65155W        W38223   5.952  27.020   0.884
65156W        W38224  27.007   0.320  14.965
65157W        W38225  25.523  25.068  10.690
65158W        W38226  29.345   0.266  10.528
65159W        W38227   7.457  27.568  14.443
65160W        W38228  26.646  14.189   3.290
65161W        W38229  33.502  12.413  13.976
65162W        W38230  19.242   0.717  11.050
65163W        W38231   4.702  18.801  11.071
65164W        W38232  33.463   5.619   0.872
65165W        W38233  41.897   1.496   0.227
65166W        W38234   7.364  37.958   4.853
65167W        W38235  15.225  36.258   2.928
65168W        W38236   7.045  11.854  12.994
65169W        W38237   6.937  35.714  11.530
65170W        W38238   7.214  31.440  11.052
65171W        W38239   7.506  33.403  11.177
65172W        W38240  32.925  42.925  12.495
65173W        W38241  17.276  34.788  14.893
65174W        W38242   8.989  20.317   1.419
65175W        W38243  33.054  29.804   1.332
65176W        W38244  41.881   2.438   0.969
65177W        W38245   7.881  30.530   3.263
65178W        W38246  19.167   2.439   1.305
65179W        W38247  33.619  44.171   4.913
65180W        W38248  24.702  19.069  13.429
65181W        W38249  13.916  33.480   3.324
65182W        W38250  26.993  26.014   1.678
65183W        W38251  20.623  36.933  11.683
65184W        W38252  31.148  25.289  11.057
65185W        W38253  11.681   9.396  14.341
65186W        W38254  43.459  27.992   2.224
65187W        W38255   7.843  21.161  14.049
65188W        W38256  19.724  31.627   3.236
65189W        W38257   7.800  24.517   0.012
65190W        W38258  33.703  44.219   2.701
65191W        W38259  18.702   8.905   5.049
65192W        W38260   9.266  16.041   2.737
65193W        W38261  12.434  37.417  13.307
65194W        W38262   2.810  44.303   3.779
65195W        W38263  19.676   9.842   0.420
65196W        W38264  40.466  12.315  13.615
65197W        W38265   0.333  30.249  12.985
65198W        W38266   3.388  39.166   2.354
65199W        W38267   1.385  42.381   1.806
65200W        W38268  10.346  31.548   4.641
65201W        W38269  25.145  37.361   5.432
65202W        W38270   8.867  25.926   3.127
65203W        W38271  41.881  33.010   0.292
65204W        W38272  38.991   9.101  12.612
65205W        W38273  25.677   2.015  10.402
65206W        W38274  35.679   3.534  11.147
65207W        W38275  17.023  18.034   0.457
65208W        W38276   1.825   2.921  11.549
65209W        W38277   8.222  42.061  12.903
65210W        W38278   5.255  37.475  14.922
65211W        W38279  27.817  35.391  11.178
65212W        W38280  36.406   3.658   0.296
65213W        W38281  38.341  43.961  10.674
65214W        W38282  12.068   4.760  14.839
65215W        W38283  20.116   2.300  14.794
65216W        W38284  34.976  10.346  13.009
65217W        W38285  15.131   8.711   4.197
65218W        W38286  11.526   8.007  13.330
65219W        W38287  27.879  28.569  14.833
65220W        W38288  14.704  30.046   3.737
65221W        W38289  35.513  39.975  12.477
65222W        W38290   4.418  40.003  14.834
65223W        W38291  19.976   2.366  12.514
65224W        W38292  39.990   1.563   3.843
65225W        W38293  40.988  35.399   3.745
65226W        W38294   0.276  32.747  14.063
65227W        W38295  34.375  20.212  11.434
65228W        W38296  13.854  26.669   0.548
65229W        W38297  43.080  39.880   2.718
65230W        W38298   3.426  13.253  12.499
65231W        W38299  31.579  33.401  10.751
65232W        W38300   2.691  44.890   2.236
65233W        W38301  37.108  39.674   1.428
65234W        W38302  27.887   3.837  14.762
65235W        W38303  16.873   3.851   4.550
65236W        W38304  11.132  30.675   3.805
65237W        W38305  12.700  19.511   4.039
65238W        W38306  10.178  30.138  13.758
65239W        W38307  11.234  22.177   2.613
65240W        W38308   1.669   4.266   4.080
65241W        W38309  22.401  40.974  13.408
65242W        W38310  39.309  43.397   1.877
65243W        W38311   9.994  44.975   0.110
65244W        W38312  23.257   0.677  12.091
65245W        W38313  35.035   2.242   1.812
65246W        W38314  23.208  29.723  13.037
65247W        W38315   8.182  39.472   5.424
65248W        W38316  31.323   4.935  12.267
65249W        W38317   3.326  11.122  10.798
65250W        W38318   0.222  18.140  11.678
65251W        W38319  37.446  23.101   3.030
65252W        W38320  42.982  20.726  11.189
65253W        W38321  24.734   9.351   2.874
65254W        W38322  24.684  33.837  11.572
65255W        W38323  20.176  40.393   2.631
65256W        W38324  40.552   3.382   3.228
65257W        W38325   3.441   9.295   3.179
65258W        W38326  13.607  10.231   1.819
65259W        W38327  42.786  24.163   3.083
65260W        W38328  22.969  27.658   0.793
65261W        W38329  10.307  42.691  11.121
65262W        W38330   9.827  31.954  10.509
65263W        W38331  29.564  29.709  11.062
65264W        W38332  32.127  29.875   1.305
65265W        W38333  37.838   4.478  12.423
65266W        W38334  27.902  15.855   0.872
65267W        W38335   1.503  25.574   4.641
65268W        W38336   9.867   4.016  11.630
65269W        W38337  11.360   8.396  13.001
65270W        W38338  28.568  11.421   3.138
65271W        W38339  39.594   8.781  12.848
65272W        W38340  16.427  26.624  12.004
65273W        W38341   2.921  24.523   3.321
65274W        W38342   8.678  42.345   1.886
65275W        W38343  10.010  34.999  12.099
65276W        W38344  23.470  16.213  14.414
65277W        W38345  27.221  15.238  14.835
65278W        W38346  23.252  32.440   3.216
65279W        W38347   3.443  18.087  11.187
65280W        W38348  36.381  23.897  11.085
65281W        W38349  35.497   6.884  11.686
65282W        W38350  44.739   5.857  10.944
65283W        W38351  27.461  17.098  14.408
65284W        W38352  12.558  17.618   0.491
65285W        W38353   6.426  38.606  14.676
65286W        W38354  19.188  36.297  13.570
65287W        W38355  24.498  11.330   3.212
65288W        W38356  19.478  30.559  10.908
65289W        W38357  22.117  26.029   3.747
65290W        W38358  35.133   8.141  11.225
65291W        W38359  11.071  13.585  14.809
65292W        W38360  24.072  20.788   1.281
65293W        W38361  26.816  38.774  14.255
65294W        W38362  20.615   6.227  10.671
65295W        W38363  16.060   0.359  11.681
65296W        W38364  33.025  10.533  10.716
65297W        W38365  32.821   3.180  13.457
65298W        W38366  40.200  28.133  13.849
65299W        W38367  28.991  21.540   0.392
65300W        W38368  24.220   6.705  10.306
65301W        W38369   5.695   6.179   1.572
65302W        W38370  36.140  24.912   2.735
65303W        W38371  30.770  21.807   2.945
65304W        W38372  10.241  34.621   0.726
65305W        W38373  24.242  19.973  13.426
65306W        W38374  21.809  10.271   3.291
65307W        W38375  20.834  10.225  14.826
65308W        W38376  22.602  18.280   0.466
65309W        W38377  11.973  32.128  13.133
65310W        W38378   4.419  32.626  14.532
65311W        W38379  13.259  41.474  12.856
65312W        W38380  40.520  22.915   0.314
65313W        W38381  26.424  43.769  12.849
65314W        W38382  40.345   0.381   2.273
65315W        W38383   5.288  18.485  14.915
65316W        W38384  26.160   2.156  12.977
65317W        W38385  27.915  44.313  11.207
65318W        W38386  11.250  14.794   3.968
65319W        W38387   5.184  42.918   4.563
65320W        W38388  11.897  24.098  11.179
65321W        W38389  35.606   6.240   2.312
65322W        W38390   8.618  31.335  11.344
65323W        W38391  17.325  25.955   3.982
65324W        W38392  44.942  26.429   4.924
65325W        W38393  36.111   0.553  10.536
65326W        W38394  20.627  18.807  12.434
65327W        W38395  19.550  10.393   2.128
65328W        W38396   1.091  41.718  14.224
65329W        W38397  27.538  12.068  14.633
65330W        W38398  40.873  31.346  14.714
65331W        W38399  32.380  16.866  10.744
65332W        W38400  27.120   7.824   2.241
65333W        W38401  25.971   4.596  13.360
65334W        W38402  39.253  35.903  11.826
65335W        W38403   7.826  39.749  14.492
65336W        W38404   1.480  31.070  13.399
65337W        W38405  18.331  16.836  13.570
65338W        W38406   8.123  19.360  14.474
65339W        W38407  29.995  13.020   0.261
65340W        W38408  10.654  13.645  11.604
65341W        W38409   5.797  16.991  11.611
65342W        W38410  39.082  33.622   4.598
65343W        W38411  32.309  32.878   1.371
65344W        W38412   5.546  25.488   2.929
65345W        W38413  14.108  28.188   1.256
65346W        W38414  19.381  21.653  14.561
65347W        W38415   7.398  11.390  11.963
65348W        W38416   5.338   4.016  13.944
65349W        W38417   7.163  11.766   0.810
65350W        W38418  10.399  34.876  14.380
65351W        W38419   7.676   8.214  14.559
65352W        W38420  25.098  41.873  14.405
65353W        W38421  43.659  27.467   2.826
65354W        W38422  36.937  10.143  12.835
65355W        W38423  43.455  36.393  13.309
65356W        W38424   2.839  14.407  11.121
65357W        W38425  44.042   6.241  12.036
65358W        W38426   7.528  12.706   0.531
65359W        W38427  19.088  26.217  14.334
65360W        W38428  11.258   7.494   1.619
65361W        W38429  28.667   5.888  11.202
65362W        W38430  15.631   1.760  13.106
65363W        W38431  24.582  15.796   0.790
65364W        W38432  18.658  38.286  10.495
65365W        W38433  18.256  25.509   3.601
65366W        W38434  10.837  10.335   1.439
65367W        W38435  27.209  40.833   1.374
65368W        W38436   4.954  23.331  11.614
65369W        W38437  43.713  18.753   3.571
65370W        W38438  11.230  12.596  12.453
65371W        W38439  10.357  39.928  12.568
65372W        W38440  35.123  15.651  13.844
65373W        W38441   0.782  27.686  14.976
65374W        W38442  39.578  37.079   0.879
65375W        W38443  24.976  13.076  11.532
65376W        W38444  36.125  23.613   3.621
65377W        W38445  20.289  33.627  12.825
65378W        W38446  23.258   0.448  13.735
65379W        W38447  40.006  37.926  14.228
65380W        W38448   2.483  18.043  14.973
65381W        W38449  38.797  41.519  12.393
65382W        W38450  20.439  26.234  13.074
65383W        W38451  19.495  35.565   4.470
65384W        W38452  24.138  11.427   5.034
65385W        W38453  27.934  29.934  12.525
65386W        W38454  33.506  37.646   3.567
65387W        W38455  20.227  10.800   3.079
65388W        W38456  21.126  29.255   9.793
65389W        W38457  19.758  30.117  11.047
65390W        W38458   8.217   6.740   4.144
65391W        W38459  34.607  44.690   0.676
65392W        W38460  15.284   5.926  11.551
65393W        W38461  15.159   7.476  12.493
65394W        W38462  15.271  17.567  11.194
65395W        W38463  40.633  10.163   2.132
65396W        W38464  21.145  21.121  12.531
65397W        W38465  14.236  29.723   2.844
65398W        W38466  13.010  39.297  11.080
65399W        W38467  22.036  31.579   0.879
65400W        W38468  16.251  35.953   3.569
65401W        W38469  13.662  22.299   0.290
65402W        W38470   3.432   8.706   3.806
65403W        W38471  38.008  41.949  12.594
65404W        W38472  23.481  33.476   0.854
65405W        W38473  36.393  43.021   3.663
65406W        W38474  13.090  37.759   1.476
65407W        W38475  10.595  16.958  12.061
65408W        W38476   9.190  44.069   3.888
65409W        W38477  12.786   6.815   0.900
65410W        W38478  42.462  40.977  14.566
65411W        W38479  42.797  39.354  13.364
65412W        W38480  28.029  18.732  13.070
65413W        W38481  28.708  17.229  13.419
65414W        W38482  22.744   8.705   3.629
65415W        W38483  32.184   4.288  14.130
65416W        W38484  24.721   4.931   1.875
65417W        W38485  43.819  15.023   3.395
65418W        W38486   9.698  24.162   0.551
65419W        W38487  18.832  10.896   0.405
65420W        W38488  38.601  39.894   1.265
65421W        W38489  14.588  26.532  14.407
65422W        W38490  10.430  27.224   1.854
65423W        W38491  25.277   6.427   4.565
65424W        W38492  21.853  25.500   2.884
65425W        W38493  16.079  36.739  11.063
65426W        W38494  31.502  39.936  12.911
65427W        W38495   2.926  30.982  13.390
65428W        W38496   1.041   0.466   0.805
65429W        W38497  39.173  12.101  13.579
65430W        W38498  33.836  27.092  14.841
65431W        W38499  31.098   9.425   4.033
65432W        W38500  16.736  33.166   2.317
65433W        W38501  34.481  20.500  12.654
65434W        W38502  34.870  38.161  11.857
65435W        W38503  24.784  11.428   2.791
65436W        W38504  41.356  33.580   0.811
65437W        W38505  24.833  32.095  11.133
65438W        W38506  13.361  18.035   3.020
65439W        W38507   5.449  36.135   0.792
65440W        W38508  19.787  25.201   3.871
65441W        W38509  31.033  14.618  14.475
65442W        W38510  42.563  24.099   1.751
65443W        W38511  25.009  29.620  14.432
65444W        W38512  13.600  41.557  12.056
65445W        W38513  14.263   4.702   1.522
65446W        W38514  16.397  39.170  14.476
65447W        W38515   5.159  43.851  14.425
65448W        W38516  27.093  10.418   2.367
65449W        W38517   9.782  21.987   1.180
65450W        W38518  29.906  22.133   1.745
65451W        W38519   9.740  39.072  10.460
65452W        W38520  20.282  19.463   3.190
65453W        W38521   3.410  34.072   2.670
65454W        W38522  17.573  27.210  12.010
65455W        W38523  44.017  38.284   2.923
65456W        W38524  22.465  24.553   1.580
65457W        W38525  40.093   4.403   3.680
65458W        W38526  33.525  35.454   4.116
65459W        W38527  15.417  38.839  11.222
65460W        W38528  12.050  29.721   0.805
65461W        W38529  21.751  38.402   1.801
65462W        W38530  26.460  29.423   1.355
65463W        W38531  35.577  22.734   0.937
65464W        W38532   1.149   7.921   1.394
65465W        W38533   4.804  20.140   0.381
65466W        W38534   4.189  32.511  12.715
65467W        W38535   6.939  31.595  14.924
65468W        W38536   9.762   1.530   0.710
65469W        W38537  16.592  31.258  12.829
65470W        W38538  18.371  31.421   1.334
65471W        W38539   9.335  25.796  10.941
65472W        W38540  26.814   9.624  14.912
65473W        W38541  35.907  24.602   3.089
65474W        W38542  20.744   8.878   2.870
65475W        W38543   0.055   8.225   4.830
65476W        W38544  19.225  39.372  11.083
65477W        W38545   6.277  24.129   3.229
65478W        W38546  26.959   7.420  13.729
65479W        W38547  32.877  35.416  11.093
65480W        W38548   7.841  32.899   3.704
65481W        W38549   8.070   2.487  12.096
65482W        W38550   8.831  32.481  14.496
65483W        W38551  19.704  13.712  10.986
65484W        W38552  23.130  38.453  14.089
65485W        W38553  15.699  41.341   3.671
65486W        W38554  35.979  17.846   4.069
65487W        W38555  13.247  28.527  11.946
65488W        W38556  11.648  33.428  13.594
65489W        W38557   6.876  23.037   2.804
65490W        W38558  38.846  34.550  11.120
65491W        W38559  18.097   9.626  13.512
65492W        W38560  19.353   2.664  13.112
65493W        W38561   6.808   8.393  14.867
65494W        W38562  17.090  28.550   1.478
65495W        W38563  12.314  21.806   3.216
65496W        W38564  12.688  10.663  10.951
65497W        W38565  34.511   0.857   3.672
65498W        W38566  19.431  35.265  13.464
65499W        W38567  19.214  24.458  12.422
65500W        W38568  24.523  26.437   0.185
65501W        W38569  31.075  21.766  12.511
65502W        W38570  16.711  25.473  13.741
65503W        W38571  10.378  26.494  10.560
65504W        W38572   5.367  34.609   3.507
65505W        W38573  23.212   7.330   3.974
65506W        W38574  35.039  21.416   4.940
65507W        W38575  17.725  33.798  12.549
65508W        W38576  25.257  12.709   3.260
65509W        W38577   0.742   1.490  11.044
65510W        W38578  28.712  16.675   1.403
65511W        W38579  39.758  17.322  10.636
65512W        W38580  30.769  14.972   2.341
65513W        W38581   6.280  14.104   1.340
65514W        W38582  18.347  34.473   4.644
65515W        W38583  33.931   7.719   4.083
65516W        W38584   7.788  24.720  14.072
65517W        W38585  34.533  17.012  12.386
65518W        W38586   3.401   2.289  11.687
65519W        W38587  13.117  37.914  13.889
65520W        W38588  29.011  17.385  11.119
65521W        W38589  16.101  21.123   4.590
65522W        W38590  27.414  29.117   0.304
65523W        W38591  10.933  34.421  12.791
65524W        W38592  34.677  28.347   4.536
65525W        W38593  18.127  34.916  11.089
65526W        W38594   3.481  28.767   1.206
65527W        W38595  41.933  11.397  14.013
65528W        W38596  42.899   8.941   0.368
65529W        W38597  36.831  17.170  11.522
65530W        W38598   8.731   6.191   4.577
65531W        W38599   5.888  31.491   4.943
65532W        W38600  31.592  17.870  10.938
65533W        W38601   0.135   2.671   1.995
65534W        W38602  21.967  24.620  12.894
65535W        W38603  40.110  43.251  13.352
65536W        W38604  30.578   3.718   0.996
65537W        W38605  12.261   1.841  12.258
65538W        W38606  33.950  11.722  12.614
65539W        W38607  27.669  19.723  11.583
65540W        W38608  30.089  34.244   0.479
65541W        W38609  40.954  35.573  13.029
65542W        W38610  28.452  21.203  13.388
65543W        W38611  14.834   2.465   1.822
65544W        W38612  24.728  31.665  11.718
65545W        W38613  26.433  28.800   1.400
65546W        W38614   9.218  25.340   5.120
65547W        W38615   0.946  36.005  14.764
65548W        W38616  14.130   7.237  12.628
65549W        W38617  16.399  35.968   4.578
65550W        W38618  40.484  37.319  12.952
65551W        W38619  32.768  29.112   2.087
65552W        W38620  29.307  36.495  13.327
65553W        W38621   7.785   3.842   2.931
65554W        W38622   7.824  15.597   0.315
65555W        W38623  25.525  44.193  10.561
65556W        W38624  17.250  18.123   3.789
65557W        W38625  12.318   7.922  11.580
65558W        W38626  10.208  24.730   1.867
65559W        W38627  38.326  34.023  13.424
65560W        W38628  35.693  26.460  11.874
65561W        W38629  14.068  33.848   2.355
65562W        W38630  23.216  33.653   2.117
65563W        W38631  14.860   3.869  12.840
65564W        W38632  12.543  27.664   4.001
65565W        W38633  16.496  27.148  13.437
65566W        W38634  40.530  41.922   1.507
65567W        W38635  10.759  14.058  11.870
65568W        W38636  15.647  11.742   2.475
65569W        W38637  31.648  28.408  10.435
65570W        W38638  16.758   1.387  11.393
65571W        W38639  15.438  13.378  12.943
65572W        W38640   5.826   0.998   0.019
65573W        W38641  40.569   9.985  12.002
65574W        W38642   3.894  23.480  14.461
65575W        W38643  28.948  40.883   0.310
65576W        W38644  27.983   0.401  14.217
65577W        W38645  14.022  12.161  11.459
65578W        W38646  19.681  21.526   2.286
65579W        W38647  21.225  31.904   5.081
65580W        W38648  39.948   5.184   0.693
65581W        W38649  23.098   1.279  13.613
65582W        W38650  14.109   0.377  14.434
65583W        W38651  31.560  10.621  14.961
65584W        W38652  44.581  14.244   1.887
65585W        W38653   1.901  27.899  14.379
65586W        W38654  20.240  43.381   5.055
65587W        W38655   0.075   8.815  13.305
65588W        W38656  36.857   7.869   1.966
65589W        W38657  20.774  25.654  11.625
65590W        W38658  23.014  26.478  12.520
65591W        W38659  34.338  14.554  12.766
65592W        W38660  30.811  19.220   5.074
65593W        W38661  26.798  22.162  11.552
65594W        W38662   9.120  38.593   1.205
65595W        W38663  43.099   1.143   3.147
65596W        W38664   8.658  22.307  10.588
65597W        W38665   0.207  25.762  11.061
65598W        W38666  26.383   6.270  13.088
65599W        W38667  31.598  29.479   4.848
65600W        W38668  18.686   8.040   3.814
65601W        W38669  35.174  17.194  11.527
65602W        W38670  30.672   4.412   4.933
65603W        W38671  23.014   0.004   5.152
65604W        W38672  10.621  18.234  14.695
65605W        W38673  18.998  28.118   0.320
65606W        W38674  35.872   4.152  14.768
65607W        W38675  25.174   8.696  12.416
65608W        W38676   0.454   6.313  12.972
65609W        W38677  21.847   2.796   1.440
65610W        W38678  11.000  43.303   3.219
65611W        W38679  11.776  32.688   2.615
65612W        W38680  36.380  37.859   2.093
65613W        W38681  29.726  43.358   4.602
65614W        W38682   0.542   5.023  13.989
65615W        W38683  24.559  19.330  11.895
65616W        W38684   1.818  43.112   2.799
65617W        W38685  13.851  37.094   4.245
65618W        W38686  36.343  22.171  11.988
65619W        W38687  31.485  25.542   1.425
65620W        W38688  17.670  43.943  10.426
65621W        W38689   0.495  39.953   3.646
65622W        W38690  42.386   3.897  11.233
65623W        W38691  16.378  42.812   0.232
65624W        W38692  25.805   0.199  13.391
65625W        W38693  18.595  13.778   1.561
65626W        W38694  33.959  28.075   0.430
65627W        W38695  40.793  20.513   3.244
65628W        W38696   5.855   9.996  14.352
65629W        W38697  43.793  19.033  12.044
65630W        W38698  11.837  22.957  11.218
65631W        W38699  35.830  15.660  11.970
65632W        W38700  17.534  12.271   0.729
65633W        W38701   7.777   5.321   2.328
65634W        W38702  14.360  41.647  12.419
65635W        W38703  37.350  20.784  13.369
65636W        W38704   3.789  18.673  12.421
65637W        W38705  14.862  21.693   1.460
65638W        W38706   7.106  42.732  14.970
65639W        W38707  19.307  40.445   3.671
65640W        W38708  28.491  35.033   3.617
65641W        W38709  23.655  33.364   3.269
65642W        W38710   6.169   8.250  14.348
65643W        W38711  10.435  28.952   2.102
65644W        W38712  40.536  17.562  10.630
65645W        W38713   4.148   2.283  12.451
65646W        W38714  33.735  43.878  12.972
65647W        W38715  40.383  22.611  12.804
65648W        W38716  21.973   0.292   0.409
65649W        W38717  15.030   5.755   1.352
65650W        W38718   3.861   9.475  12.968
65651W        W38719   7.421  24.083   0.880
65652W        W38720  20.307  19.704  14.440
65653W        W38721   7.203   2.864  10.633
65654W        W38722  36.693   1.358   3.843
65655W        W38723  34.074  33.761  10.156
65656W        W38724  33.298  32.401  13.017
65657W        W38725   7.465   8.038   3.241
65658W        W38726  35.342  15.477   2.770
65659W        W38727  27.141  34.607  10.711
65660W        W38728  22.127   1.289  12.019
65661W        W38729  13.246  44.688  11.746
65662W        W38730  30.180  29.718   1.348
65663W        W38731  39.120  39.826   1.295
65664W        W38732  32.988   2.048  11.375
65665W        W38733  30.981   2.993   0.975
65666W        W38734  13.239   6.650  13.348
65667W        W38735  37.469  17.052  14.049
65668W        W38736   3.483  14.994  11.994
65669W        W38737  20.162  19.070  12.893
65670W        W38738   4.146  37.992  13.595
65671W        W38739  31.725  13.692  13.372
65672W        W38740  33.454  34.277   3.375
65673W        W38741   4.814  35.850   4.070
65674W        W38742   9.486   9.324   0.172
65675W        W38743  12.214   1.393   4.572
65676W        W38744   6.696  42.537  13.804
65677W        W38745  30.245   4.224   2.292
65678W        W38746   1.177   2.032  11.602
65679W        W38747  29.671  38.931   2.383
65680W        W38748  25.393  26.030   2.870
65681W        W38749  10.733   4.736  11.386
65682W        W38750  18.885  18.123  12.993
65683W        W38751  19.514   7.397   1.325
65684W        W38752  23.047  32.518   4.195
65685W        W38753  35.147  42.892  13.136
65686W        W38754  16.075  19.124   2.616
65687W        W38755  29.715  22.263  11.998
65688W        W38756  17.911  10.885   0.581
65689W        W38757   6.394  11.035  12.544
65690W        W38758  35.790  43.925   0.448
65691W        W38759  19.678  25.204  12.471
65692W        W38760   8.980  20.797  11.750
65693W        W38761  24.792  22.773   0.909
65694W        W38762  26.989  31.252  13.428
65695W        W38763  38.048  24.176   0.689
65696W        W38764   1.860  43.785  10.684
65697W        W38765  24.142  24.920  14.346
65698W        W38766  13.221  27.766   0.225
65699W        W38767  24.742  27.888   0.723
65700W        W38768  18.116  33.032   2.252
65701W        W38769   3.278  38.325   3.927
65702W        W38770  26.763  13.086   2.316
65703W        W38771   0.393  21.454  12.861
65704W        W38772  20.842  37.053   0.220
65705W        W38773   7.196  37.960   3.842
65706W        W38774  42.968  24.439  14.829
65707W        W38775  11.757  16.663  14.817
65708W        W38776  30.677  35.183   4.674
65709W        W38777  23.035   5.402  14.974
65710W        W38778  29.414  37.898   1.218
65711W        W38779  36.062   4.659   2.675
65712W        W38780   3.686  32.035  11.121
65713W        W38781   3.167  35.968   3.581
65714W        W38782   7.723  40.061   4.141
65715W        W38783  33.927  16.573   2.643
65716W        W38784  20.168  18.310   2.338
65717W        W38785  22.421  40.005   4.205
65718W        W38786  37.095  30.862  14.443
65719W        W38787  16.127  39.910   3.417
65720W        W38788   1.693  24.878  14.946
65721W        W38789  31.188  29.617  11.128
65722W        W38790   6.541   3.293   2.667
65723W        W38791  30.685  25.431   2.802
65724W        W38792   4.851   6.376   1.008
65725W        W38793  31.878  44.477   1.321
65726W        W38794  26.404  22.672  14.066
65727W        W38795  17.809  16.118  12.925
65728W        W38796  17.629  32.086  13.294
65729W        W38797  10.854  38.389  11.084
65730W        W38798   1.516  25.476  11.678
65731W        W38799  36.960  28.231   0.926
65732W        W38800  25.225  10.195   1.569
65733W        W38801  19.856  42.418   3.320
65734W        W38802  10.535   4.887  13.358
65735W        W38803   4.156  40.052  12.069
65736W        W38804  36.010  21.578  14.084
65737W        W38805  28.786  34.298  12.473
65738W        W38806   6.687  20.705  14.734
65739W        W38807  40.272  35.128   0.049
65740W        W38808  35.443  17.634  10.914
65741W        W38809  24.950  32.524   3.647
65742W        W38810  21.273   1.472   5.683
65743W        W38811  31.445  42.694   3.912
65744W        W38812  37.439  26.037  14.742
65745W        W38813  19.075  44.277   0.355
65746W        W38814  34.056  39.549   0.961
65747W        W38815   4.019  16.535  10.957
65748W        W38816  34.975  12.841   1.440
65749W        W38817  11.288  16.809   4.166
65750W        W38818  14.567  22.320  11.610
65751W        W38819  23.016  34.774   3.334
65752W        W38820   1.610  38.841   0.786
65753W        W38821  21.746  28.084  11.888
65754W        W38822  24.878  39.669   4.562
65755W        W38823  16.499   9.328   4.745
65756W        W38824  32.106  29.146   4.028
65757W        W38825  14.289  18.804   3.587
65758W        W38826   4.822  29.649  12.439
65759W        W38827  13.809  39.516  13.813
65760W        W38828  12.854  21.725  14.262
65761W        W38829  18.798  29.490  11.575
65762W        W38830  22.997  29.157  11.981
65763W        W38831   7.564   1.230   3.289
65764W        W38832  32.310  39.104   4.090
65765W        W38833  34.380  18.530  14.445
65766W        W38834  32.487  11.896   2.823
65767W        W38835  11.121  20.224   0.942
65768W        W38836  19.414  40.519  13.190
65769W        W38837  23.145  37.922  12.300
65770W        W38838  39.575  28.890  12.835
65771W        W38839   8.262  27.006   0.366
65772W        W38840  17.406   7.784  12.479
65773W        W38841  24.026  39.910   4.080
65774W        W38842  39.332  37.494  14.997
65775W        W38843  18.657  21.658  12.086
65776W        W38844  25.029  16.548   0.803
65777W        W38845  44.365  21.152  11.993
65778W        W38846  42.058  26.202   1.667
65779W        W38847  28.656   2.438  14.824
65780W        W38848   9.653   0.414  11.088
65781W        W38849  14.096   2.442   2.380
65782W        W38850  14.628  13.866  14.344
65783W        W38851  41.556  36.995   2.280
65784W        W38852  15.559  30.495  12.680
65785W        W38853  34.867   5.712  14.497
65786W        W38854   2.828  34.973  13.093
65787W        W38855  28.498  13.757  14.017
65788W        W38856  28.211  35.151  12.774
65789W        W38857  15.804  17.550   2.233
65790W        W38858  11.944   3.892   3.252
65791W        W38859   2.247   0.593   5.096
65792W        W38860  27.456  13.708   3.260
65793W        W38861   4.422  38.900   2.793
65794W        W38862  31.534  36.813   3.509
65795W        W38863   4.015   1.826  10.107
65796W        W38864  36.568  14.976  12.367
65797W        W38865   9.926  43.239  14.579
65798W        W38866  33.805  28.602   3.351
65799W        W38867  13.784  30.633   0.516
65800W        W38868  12.245  16.597  13.749
65801W        W38869  16.248   4.353   4.366
65802W        W38870  28.005  44.915  11.636
65803W        W38871  15.237  43.469   1.196
65804W        W38872  25.278  39.013  14.295
65805W        W38873  32.146  43.630  13.110
65806W        W38874  21.490   9.345   0.856
65807W        W38875   3.250  12.653  10.667
65808W        W38876  15.815  23.927  11.244
65809W        W38877   3.185  15.510  14.561
65810W        W38878   3.761  18.731   4.175
65811W        W38879  28.172  35.563  13.561
65812W        W38880  16.251  37.736  10.977
65813W        W38881   5.245  28.458  13.804
65814W        W38882  11.768   8.694   4.828
65815W        W38883  26.470  30.316  14.801
65816W        W38884  16.273  44.956  13.313
65817W        W38885   0.961  15.693  14.375
65818W        W38886  40.578  19.080   3.380
65819W        W38887  30.588  15.736  13.756
65820W        W38888  34.009  23.547   2.641
65821W        W38889  29.517  28.491   2.197
65822W        W38890  10.644  41.196   1.930
65823W        W38891  31.898  29.423   0.390
65824W        W38892  32.668  42.759  14.971
65825W        W38893  27.954  21.811  12.018
65826W        W38894  27.995  17.701  13.056
65827W        W38895  43.573  25.099  12.957
65828W        W38896  40.983  29.047  10.408
65829W        W38897  40.539  42.445   2.945
65830W        W38898   1.919  30.030   0.135
65831W        W38899   7.291   1.518   4.270
65832W        W38900  44.517  43.364   4.606
65833W        W38901  30.799   2.267   3.169
65834W        W38902  29.954   4.239   1.814
65835W        W38903  25.519  30.837  13.866
65836W        W38904  28.096  39.286   2.531
65837W        W38905   4.911  39.934  13.843
65838W        W38906  13.674   1.882   0.185
65839W        W38907   9.060  36.926   3.681
65840W        W38908  24.470  41.860  12.464
65841W        W38909  20.745  27.159  12.120
65842W        W38910  28.153  34.498   5.151
65843W        W38911  12.125  24.524   4.668
65844W        W38912  18.603  40.214   2.710
65845W        W38913  22.802  18.660  10.665
65846W        W38914  35.067  30.408   2.302
65847W        W38915  32.532  37.105   1.432
65848W        W38916  30.490  32.229   1.654
65849W        W38917  11.943  17.172   3.736
65850W        W38918  30.636   0.949  13.040
65851W        W38919  11.812  21.419  14.523
65852W        W38920  25.002  23.908  13.851
65853W        W38921  26.315  21.198   2.808
65854W        W38922  25.284  32.185  13.843
65855W        W38923  17.641  17.801   2.649
65856W        W38924  32.227  43.053   2.872
65857W        W38925  43.960  10.208  10.685
65858W        W38926  38.564  33.633  14.343
65859W        W38927  31.134   7.662  11.133
65860W        W38928  33.622  14.998   0.945
65861W        W38929   5.903  41.803   4.557
65862W        W38930  29.434  16.154  13.461
65863W        W38931  17.256  35.301  12.348
65864W        W38932  37.462  40.501   4.699
65865W        W38933   2.968  16.071  12.551
65866W        W38934  38.624  12.346  12.138
65867W        W38935   6.695   4.380   4.010
65868W        W38936   2.073  27.849  11.608
65869W        W38937  23.141  11.858   1.190
65870W        W38938  24.697  37.454  10.821
65871W        W38939  40.422  18.437   3.187
65872W        W38940  25.502  39.460  10.629
65873W        W38941  19.208  12.689   0.854
65874W        W38942  13.806  28.616   2.611
65875W        W38943  15.603  21.154  13.490
65876W        W38944  33.857  44.301  13.905
65877W        W38945   4.416  19.355   3.077
65878W        W38946   4.872  27.149   3.049
65879W        W38947  19.240  15.781  11.641
65880W        W38948  29.676   5.412   0.391
65881W        W38949  10.217  30.490  14.551
65882W        W38950   3.521   5.793  13.123
65883W        W38951   7.776  35.826   3.199
65884W        W38952  35.879  14.848  14.384
65885W        W38953  26.227   2.665   4.478
65886W        W38954   0.533  36.817  14.540
65887W        W38955  40.191  11.734   0.545
65888W        W38956  14.638  12.336   4.662
65889W        W38957  31.407  37.942   0.947
65890W        W38958  33.023   5.471   4.643
65891W        W38959  25.180  17.575  14.838
65892W        W38960  22.839  38.617  14.496
65893W        W38961  22.518  13.444  11.922
65894W        W38962  36.511   8.846  14.860
65895W        W38963   9.178  36.915  14.760
65896W        W38964   1.734  12.171   1.253
65897W        W38965  13.181   5.304  12.052
65898W        W38966  37.935  44.872   2.397
65899W        W38967   5.684  32.873   1.154
65900W        W38968  27.140  23.764  14.466
65901W        W38969  29.050  29.094  12.363
65902W        W38970  11.187  17.067  10.140
65903W        W38971  13.694  32.696  14.377
65904W        W38972  34.039  37.277   0.434
65905W        W38973  33.037   9.311   3.669
65906W        W38974   3.864   2.992   0.372
65907W        W38975  32.955  12.327  13.944
65908W        W38976  42.260  26.649   1.876
65909W        W38977   0.835   4.968   0.813
65910W        W38978   3.306   0.191   3.626
65911W        W38979  24.353  11.790  13.383
65912W        W38980  27.094  41.546   0.323
65913W        W38981  29.397   8.819   5.102
65914W        W38982  21.702  17.819   1.260
65915W        W38983  12.878  26.582   9.926
65916W        W38984  40.066  39.488   4.317
65917W        W38985  25.178  31.848   0.535
65918W        W38986  39.039  14.453   2.497
65919W        W38987  33.386  10.153  13.100
65920W        W38988  21.751  18.052   1.732
65921W        W38989  37.447  18.824  11.121
65922W        W38990  22.598  29.574   2.980
65923W        W38991  19.671   7.495  12.568
65924W        W38992  37.937  33.383   4.110
65925W        W38993  11.316  25.742  11.107
65926W        W38994  30.924  26.584   0.261
65927W        W38995  21.789  37.448  11.628
65928W        W38996  11.592   9.333  12.157
65929W        W38997   2.646  24.605   2.863
65930W        W38998  32.339  36.789  14.770
65931W        W38999   6.387  23.948   4.537
65932W        W39000  28.935  19.216  11.341
65933W        W39001  19.529  19.815   3.682
65934W        W39002  18.757  23.700   1.443
65935W        W39003  42.519  42.397  12.707
65936W        W39004  27.661   9.656   1.406
65937W        W39005   8.887   4.393   1.240
65938W        W39006  19.957  36.496  10.712
65939W        W39007  34.015  37.826  12.505
65940W        W39008  43.033  42.553   4.646
65941W        W39009  21.420  34.554   1.250
65942W        W39010   0.880   4.660  14.289
65943W        W39011  21.676   0.729   2.141
65944W        W39012  42.559  12.687   0.250
65945W        W39013  43.449  28.625   3.863
65946W        W39014   2.382   3.914  14.054
65947W        W39015  33.912  13.673   4.636
65948W        W39016  26.505  38.767   1.791
65949W        W39017   1.315  28.029  11.007
65950W        W39018  37.040  19.118  11.224
65951W        W39019  31.671   5.995   2.809
65952W        W39020  22.600  43.115  10.174
65953W        W39021  20.772  33.598   2.246
65954W        W39022  13.819   7.655  12.662
65955W        W39023  36.526  28.404  10.420
65956W        W39024   1.257  26.657   2.672
65957W        W39025  26.654  36.466   2.781
65958W        W39026  28.501   5.965   4.198
65959W        W39027  43.748  32.864   3.237
65960W        W39028  13.267  20.031   4.499
65961W        W39029  17.078  39.855   0.715
65962W        W39030  40.045  24.000  13.778
65963W        W39031  20.022  41.479  10.341
65964W        W39032   6.313  19.624  12.893
65965W        W39033   7.829   9.277   4.658
65966W        W39034  22.924  10.696   4.777
65967W        W39035  30.555  25.885   0.524
65968W        W39036  37.046  18.026  13.877
65969W        W39037  33.974  29.081   3.388
65970W        W39038  36.768  15.435  14.512
65971W        W39039  16.037  11.681  14.082
65972W        W39040  17.634  18.741   3.566
65973W        W39041  34.588  13.967   1.489
65974W        W39042  37.117  26.438  14.956
65975W        W39043  43.007  27.698   4.747
65976W        W39044  42.822   3.231   4.132
65977W        W39045  33.422  25.306   3.000
65978W        W39046  33.419  41.024  12.405
65979W        W39047   4.366  17.313   1.308
65980W        W39048   2.826   6.885  14.390
65981W        W39049  40.838  44.479  10.539
65982W        W39050  25.634   1.322  11.548
65983W        W39051   9.774  18.287   2.683
65984W        W39052  28.143  28.111  14.880
65985W        W39053  39.917  38.659  12.029
65986W        W39054  36.651  35.414  13.572
65987W        W39055  21.731  17.724  11.294
65988W        W39056  14.657  42.251   3.663
65989W        W39057  10.591   1.240   1.598
65990W        W39058  27.605   1.254   2.835
65991W        W39059  13.239  25.064  11.609
65992W        W39060  25.569  41.255  14.446
65993W        W39061  27.523  18.013  12.996
65994W        W39062  44.681  10.322   2.729
65995W        W39063  41.692  21.720   0.338
65996W        W39064  15.734  33.592   3.216
65997W        W39065   2.857  28.613   1.422
65998W        W39066  12.338  19.170   1.355
65999W        W39067  14.225   1.364  10.566
66000W        W39068  30.057  15.061   2.650
66001W        W39069  10.582   0.907   4.604
66002W        W39070   5.882  21.264   0.671
66003W        W39071  37.380  38.833   5.006
66004W        W39072   6.619  22.029   2.856
66005W        W39073  30.322  13.043   5.028
66006W        W39074  20.773   7.042  13.064
66007W        W39075   9.894   1.851  11.193
66008W        W39076   8.773  39.390   1.952
66009W        W39077   5.779  38.034   1.280
66010W        W39078  11.152  34.610  10.482
66011W        W39079  34.968   7.812   5.069
66012W        W39080  33.328  17.289   1.695
66013W        W39081  11.757  41.874  11.179
66014W        W39082  33.563  31.886   0.443
66015W        W39083   0.879  32.833  12.577
66016W        W39084  23.653  20.120   0.230
66017W        W39085  35.094  26.224   1.269
66018W        W39086  31.508  31.648   2.184
66019W        W39087   3.844  34.619  10.520
66020W        W39088   7.581  39.939  14.934
66021W        W39089  30.630  42.304  11.131
66022W        W39090  40.362  31.913  13.546
66023W        W39091   2.738  14.679   3.108
66024W        W39092  30.505  19.609   1.707
66025W        W39093  38.726  40.864  12.039
66026W        W39094   0.607  38.150   1.216
66027W        W39095   7.613  44.617   2.604
66028W        W39096   6.471  17.630   4.591
66029W        W39097  35.296  34.556  10.547
66030W        W39098  25.530  18.600  11.533
66031W        W39099  14.809  31.809  11.948
66032W        W39100  20.228   2.838  12.572
66033W        W39101   4.236  13.645   1.776
66034W        W39102  30.131   4.696   2.012
66035W        W39103  10.202  12.558  13.910
66036W        W39104   7.434  29.346  12.048
66037W        W39105  32.568  10.982   0.347
66038W        W39106   6.912  15.541  12.056
66039W        W39107  18.862   3.437  11.089
66040W        W39108  20.138  28.076   2.415
66041W        W39109  30.895  13.548   2.377
66042W        W39110  38.966  21.323   2.179
66043W        W39111  16.508  26.462  14.487
66044W        W39112   9.713   7.402  10.907
66045W        W39113  20.502   3.792  10.636
66046W        W39114  20.077   1.838   9.989
66047W        W39115  21.065  32.932   0.318
66048W        W39116  15.564   3.745   0.606
66049W        W39117   4.876  42.781  12.288
66050W        W39118   8.817  35.336  13.032
66051W        W39119  12.312  32.625  14.362
66052W        W39120  32.119  10.253   2.213
66053W        W39121  24.476  39.506   1.395
66054W        W39122  40.493  21.033  12.842
66055W        W39123   2.872  42.625   2.353
66056W        W39124  12.898  13.306  11.566
66057W        W39125   3.990  19.346   2.384
66058W        W39126  40.301   8.412  14.755
66059W        W39127  35.968  15.667   0.740
66060W        W39128  18.264  31.011  14.764
66061W        W39129  25.294   4.699   5.030
66062W        W39130  36.571  23.610  10.657
66063W        W39131  12.840   7.906  11.674
66064W        W39132  17.690  29.508   4.131
66065W        W39133  24.422  35.831  11.491
66066W        W39134  37.047  44.942   2.302
66067W        W39135  33.629  33.860   4.954
66068W        W39136   2.208  36.409   4.280
66069W        W39137   6.538  23.007  14.492
66070W        W39138  19.782  23.482   2.364
66071W        W39139  42.538  13.787  12.020
66072W        W39140  43.767  10.666  12.413
66073W        W39141  44.395   0.509   0.290
66074W        W39142  25.380  33.755   4.146
66075W        W39143  11.171   8.939   1.694
66076W        W39144   3.593  38.059  12.250
66077W        W39145  36.155  22.488  14.873
66078W        W39146  25.221  12.832  11.940
66079W        W39147  44.775   4.838   3.803
66080W        W39148  27.410  43.043   1.912
66081W        W39149   9.244  33.094  11.544
66082W        W39150   2.484  26.211  10.625
66083W        W39151  38.606  14.993   1.451
66084W        W39152  27.398  43.079   4.586
66085W        W39153   9.763  35.923   3.304
66086W        W39154  11.126  43.410  12.574
66087W        W39155  36.589  33.126  11.009
66088W        W39156  36.223   4.769  10.277
66089W        W39157  20.855  33.680  12.937
66090W        W39158  25.901  36.543   4.056
66091W        W39159   8.204   9.159  12.025
66092W        W39160   2.370  19.328   0.925
66093W        W39161  22.998  17.143   4.659
66094W        W39162  26.001  31.350  12.887
66095W        W39163  33.987   3.076  11.056
66096W        W39164  33.898  13.522   0.869
66097W        W39165  12.122  38.617  13.024
66098W        W39166   5.441   2.353   4.810
66099W        W39167   9.600   8.276   4.188
66100W        W39168  17.775  22.385   3.800
66101W        W39169  38.007   4.841   1.816
66102W        W39170  25.471  22.699   4.785
66103W        W39171   5.933  38.009   3.411
66104W        W39172  26.243  19.817  11.581
66105W        W39173  37.463  33.638   3.296
66106W        W39174  38.406  19.226  10.559
66107W        W39175   3.948   9.291   3.173
66108W        W39176  11.660  32.456  11.178
66109W        W39177  26.441  26.883   2.829
66110W        W39178  10.910   7.931   4.132
66111W        W39179  15.027  40.025   2.281
66112W        W39180  13.878   1.370  11.378
66113W        W39181  33.900  42.736   2.457
66114W        W39182  41.955  18.451  10.312
66115W        W39183  32.138  27.724   2.375
66116W        W39184  37.590  17.656  13.388
66117W        W39185  37.862  42.536  13.427
66118W        W39186   3.763  18.855  10.759
66119W        W39187  22.311   6.773   1.672
66120W        W39188   5.874  34.360   0.953
66121W        W39189  15.678  44.973  12.543
66122W        W39190  19.755  15.075   2.430
66123W        W39191  40.825   0.564   0.750
66124W        W39192   3.060  22.066   0.236
66125W        W39193  27.140  19.669   3.293
66126W        W39194  14.111  16.063   1.464
66127W        W39195  19.480  14.243   2.145
66128W        W39196  40.158  12.646   4.901
66129W        W39197   3.517  35.513  14.361
66130W        W39198  19.874  41.399   0.785
66131W        W39199  22.276   2.613  10.990
66132W        W39200  21.284  13.663  11.151
66133W        W39201  29.399  27.171   2.413
66134W        W39202  31.472   2.185   2.174
66135W        W39203   9.118   9.081   4.149
66136W        W39204  21.745  19.277   3.315
66137W        W39205  27.663  36.100   4.157
66138W        W39206  44.059  37.303  13.990
66139W        W39207  13.896  37.571  13.357
66140W        W39208  27.212   9.888  10.344
66141W        W39209  24.108  36.298  12.467
66142W        W39210  42.518  40.337  14.284
66143W        W39211  37.901  19.055   3.319
66144W        W39212  22.600  33.215   1.365
66145W        W39213  30.626   5.442  14.498
66146W        W39214  35.408  30.375  11.675
66147W        W39215   5.720  31.061   4.161
66148W        W39216  22.245   8.275   0.345
66149W        W39217  13.011  12.567  11.334
66150W        W39218   4.401  42.560  14.345
66151W        W39219  26.103  31.925  11.588
66152W        W39220  22.281  42.032   4.142
66153W        W39221  37.873  19.233  10.617
66154W        W39222  23.155  30.165   3.556
66155W        W39223  27.353   4.378   0.786
66156W        W39224  15.881  22.652   2.864
66157W        W39225  14.007   4.952   4.117
66158W        W39226  40.797   9.326  13.058
66159W        W39227  16.711  13.348  14.987
66160W        W39228  12.600  17.742   2.823
66161W        W39229  19.587  31.891   1.858
66162W        W39230   9.657   6.794  11.659
66163W        W39231  10.154  28.512  10.557
66164W        W39232   5.466  34.014  14.770
66165W        W39233   7.258  25.612  13.006
66166W        W39234  28.833   1.526  13.121
66167W        W39235   6.221  19.355   1.467
66168W        W39236   7.234  29.661  10.743
66169W        W39237  36.586  11.853  11.570
66170W        W39238  43.769  33.135  13.040
66171W        W39239  19.074   6.859  12.634
66172W        W39240  26.562  37.367   0.247
66173W        W39241  18.528  20.659   0.982
66174W        W39242  20.263  15.484   3.587
66175W        W39243  42.825  44.181  14.877
66176W        W39244  37.940  21.753  11.190
66177W        W39245  30.669   3.252   2.358
66178W        W39246  38.351  12.711  11.898
66179W        W39247  14.195  18.066   3.211
66180W        W39248  14.819  17.832  13.059
66181W        W39249   0.556  28.276  11.604
66182W        W39250   3.338  17.289  14.817
66183W        W39251  34.035  39.055  10.773
66184W        W39252  20.066  20.320   2.132
66185W        W39253   8.194   0.933  12.650
66186W        W39254  24.959   4.191  10.964
66187W        W39255  21.748  24.152  11.064
66188W        W39256   5.434  30.167   0.862
66189W        W39257  14.839  44.222  13.367
66190W        W39258   9.336   1.896  10.513
66191W        W39259  41.583   3.740  13.074
66192W        W39260  14.733  20.993   3.129
66193W        W39261   3.041  18.821  13.045
66194W        W39262  15.548   8.216   1.008
66195W        W39263  35.615  22.990  12.487
66196W        W39264  26.544  23.959  11.508
66197W        W39265   2.325   0.936   4.722
66198W        W39266  38.249  16.150   3.712
66199W        W39267  32.860  14.278  13.889
66200W        W39268   9.332  36.501   3.823
66201W        W39269  43.419  19.754  12.451
66202W        W39270   3.164  15.914   1.359
66203W        W39271  26.007  10.243  10.522
66204W        W39272  15.045  41.646  11.871
66205W        W39273   6.422   8.736   1.816
66206W        W39274  38.359  29.416  14.035
66207W        W39275  15.244  24.496  10.527
66208W        W39276   4.946  13.100  13.046
66209W        W39277  38.043  29.228   1.749
66210W        W39278  12.640  24.609   2.189
66211W        W39279  23.100  30.485  12.447
66212W        W39280  24.640  42.090  14.320
66213W        W39281  21.958  41.529  13.887
66214W        W39282  12.702  43.637   2.339
66215W        W39283  39.722   3.264  12.981
66216W        W39284  33.125   6.255  11.146
66217W        W39285  36.062  29.641   4.997
66218W        W39286  36.036  20.606  11.986
66219W        W39287  21.454  30.952   2.867
66220W        W39288  39.454   1.462  13.011
66221W        W39289  42.654  14.847   4.033
66222W        W39290   8.299  27.115   1.289
66223W        W39291  16.580   1.823   0.539
66224W        W39292  37.471  33.916   0.645
66225W        W39293   9.662  11.224  10.730
66226W        W39294  18.546   5.292   2.653
66227W        W39295  20.124  22.934   0.061
66228W        W39296   5.904   0.117   2.774
66229W        W39297   8.203  23.132   1.750
66230W        W39298  13.247   6.464  11.555
66231W        W39299  19.839  40.771  10.781
66232W        W39300   0.740  25.590  11.915
66233W        W39301  27.566   8.850  13.637
66234W        W39302  10.436  34.564  10.341
66235W        W39303  17.922   9.700   1.891
66236W        W39304  37.053  13.779   0.985
66237W        W39305  37.767  15.275  14.239
66238W        W39306  22.495  43.086   0.681
66239W        W39307   0.190  30.090   1.873
66240W        W39308   6.726  23.076  12.683
66241W        W39309   1.867  21.173   0.435
66242W        W39310  38.731  37.184  11.036
66243W        W39311  41.128  15.392   4.735
66244W        W39312  24.720  27.710   1.221
66245W        W39313   5.392  38.724  11.169
66246W        W39314   6.847  38.331   2.652
66247W        W39315  40.990  16.472  12.809
66248W        W39316  14.724  20.659  13.515
66249W        W39317  29.122  28.153  14.158
66250W        W39318   0.422  36.633  12.184
66251W        W39319  42.059   3.853   0.850
66252W        W39320  20.310  15.382  11.114
66253W        W39321  33.317  10.700  14.350
66254W        W39322  30.397  37.473   0.395
66255W        W39323   6.519   4.294   0.836
66256W        W39324  16.162  31.185   3.748
66257W        W39325   6.746   2.253  13.467
66258W        W39326  19.577  23.679  14.893
66259W        W39327   4.622  37.855   1.210
66260W        W39328  21.800  23.980   1.703
66261W        W39329  20.216  40.823  13.921
66262W        W39330  40.392  17.049   3.099
66263W        W39331  29.154  28.125   2.340
66264W        W39332  35.505  14.159  10.700
66265W        W39333  21.543   2.635  14.951
66266W        W39334  28.842   0.422   2.875
66267W        W39335   4.724   0.327   0.364
66268W        W39336   7.784  26.028   3.647
66269W        W39337  16.529  26.053   3.592
66270W        W39338  22.682  15.647  13.745
66271W        W39339  13.952  22.327  12.530
66272W        W39340  15.637  28.432  11.076
66273W        W39341  43.196  25.531   4.209
66274W        W39342   2.275  33.995  13.117
66275W        W39343  26.280  12.949   2.239
66276W        W39344  29.651  33.986  11.040
66277W        W39345   5.846  17.474  13.064
66278W        W39346  19.157  22.688   2.346
66279W        W39347  17.667  14.568  13.909
66280W        W39348   3.861  19.112   1.637
66281W        W39349  10.010  16.639   4.616
66282W        W39350   6.674  40.463  13.403
66283W        W39351   8.304  34.589  12.684
66284W        W39352  33.127  43.585  13.819
66285W        W39353   4.800  22.475   1.391
66286W        W39354  17.043  33.961   1.184
66287W        W39355  43.147  31.061   4.138
66288W        W39356   3.451  19.936   1.414
66289W        W39357  10.784   8.668  11.899
66290W        W39358  15.870  44.430   4.020
66291W        W39359  29.126   1.816   2.575
66292W        W39360  31.015  30.032   0.497
66293W        W39361  28.644  22.085   4.652
66294W        W39362   6.879  18.540  14.914
66295W        W39363  11.738   3.115  10.328
66296W        W39364   0.008  30.070   2.765
66297W        W39365  41.856  27.632   2.332
66298W        W39366  29.983   9.322   3.705
66299W        W39367  10.147  14.636  13.398
66300W        W39368  40.018  20.640   4.352
66301W        W39369   7.768  11.498   9.567
66302W        W39370  39.048  38.329   4.638
66303W        W39371  16.838  22.479  11.746
66304W        W39372  20.451  28.804  13.422
66305W        W39373  25.692  40.080   2.275
66306W        W39374  21.339  23.041  13.449
66307W        W39375  34.847  37.988   1.856
66308W        W39376  18.688  21.139   4.636
66309W        W39377   0.557  44.399  12.850
66310W        W39378  33.177  28.280   0.846
66311W        W39379  11.992  15.971  11.476
66312W        W39380  22.186   1.641   4.132
66313W        W39381  23.302  21.362   0.611
66314W        W39382  34.016  33.596  12.290
66315W        W39383  41.592  14.965  13.530
66316W        W39384  22.564  19.486  11.753
66317W        W39385   2.974  14.830  11.884
66318W        W39386  36.150   0.729   0.482
66319W        W39387  23.195  38.491   0.722
66320W        W39388  40.806  17.503  13.787
66321W        W39389  26.540  13.223   0.162
66322W        W39390  24.576  20.278   2.234
66323W        W39391  38.778  11.302   0.910
66324W        W39392  12.852  28.623   2.269
66325W        W39393  35.008  42.033   0.302
66326W        W39394   0.649   8.499  14.498
66327W        W39395  35.085  33.085   0.510
66328W        W39396  44.611  31.758   0.552
66329W        W39397   8.605  39.961  13.892
66330W        W39398  25.549  15.866  11.963
66331W        W39399  38.922  39.123   4.198
66332W        W39400  34.528  42.254   1.442
66333W        W39401  27.583  27.468  10.991
66334W        W39402  27.535  26.026   2.871
66335W        W39403  43.904  15.893   0.975
66336W        W39404  11.200  12.825  10.676
66337W        W39405  32.698  15.150   4.929
66338W        W39406  14.596  33.502  10.770
66339W        W39407  37.035  20.289  14.202
66340W        W39408  10.463   3.211  13.338
66341W        W39409  38.092  23.715   2.987
66342W        W39410   7.204  42.731   4.658
66343W        W39411  15.481  20.536   2.708
66344W        W39412  11.267  18.294   2.618
66345W        W39413   7.509   8.371  10.519
66346W        W39414   0.269  21.663   3.783
66347W        W39415  44.151  19.820  12.375
66348W        W39416  33.609  21.447   3.724
66349W        W39417  43.836   9.524   1.145
66350W        W39418  39.059  20.801   2.228
66351W        W39419  12.324  41.993   1.317
66352W        W39420  31.416   7.112  13.928
66353W        W39421  23.220  39.515   4.285
66354W        W39422  23.326  42.412  14.450
66355W        W39423  37.170  18.615   3.664
66356W        W39424  39.519  15.556   1.055
66357W        W39425  10.142   6.695   2.905
66358W        W39426  22.625   3.436   2.844
66359W        W39427   1.712  11.955  12.485
66360W        W39428  34.953  25.872  13.373
66361W        W39429  15.428  18.881  13.840
66362W        W39430   0.968  12.832  11.340
66363W        W39431   4.966   0.248  12.864
66364W        W39432   6.682  36.756  12.477
66365W        W39433  32.501  13.879   1.509
66366W        W39434  33.549   3.559  13.807
66367W        W39435  26.697   4.860   4.986
66368W        W39436  23.570  38.844  14.864
66369W        W39437  16.535  29.602   2.748
66370W        W39438   3.916  29.709  12.505
66371W        W39439  18.778  39.736   2.762
66372W        W39440  19.742   1.477   0.345
66373W        W39441   2.727  32.087   3.599
66374W        W39442  10.331  12.496  12.646
66375W        W39443  29.470  35.958   2.807
66376W        W39444  14.783  21.626  14.262
66377W        W39445  28.604   2.189  12.467
66378W        W39446  38.390  22.025  11.162
66379W        W39447  23.646  33.583   3.791
66380W        W39448  18.606  36.957  10.494
66381W        W39449   6.722   2.230  12.259
66382W        W39450  12.422   9.161  13.366
66383W        W39451  13.511  15.801   0.231
66384W        W39452  10.218  20.785  13.077
66385W        W39453   3.579   7.679   0.315
66386W        W39454  17.846  16.694  13.476
66387W        W39455  14.077  41.760  12.001
66388W        W39456  34.893  39.582   4.179
66389W        W39457   0.265   1.698   0.976
66390W        W39458  18.387  43.429  14.768
66391W        W39459  35.345  26.105   3.098
66392W        W39460  39.581  33.255  12.635
66393W        W39461  18.766   3.420   4.618
66394W        W39462  30.852  27.918   1.668
66395W        W39463   0.227  25.149   1.408
66396W        W39464  12.249  22.654   1.871
66397W        W39465  15.952  36.247  10.989
66398W        W39466  44.250   5.805  10.187
66399W        W39467   1.923  10.838  12.595
66400W        W39468  17.656  39.090   3.819
66401W        W39469  42.960  15.765   3.126
66402W        W39470  40.866  38.329  13.853
66403W        W39471  13.075  18.274   0.270
66404W        W39472   0.864  19.280   1.267
66405W        W39473  25.872  24.529  12.095
66406W        W39474  33.081   1.284   4.350
66407W        W39475   5.855  13.158   1.345
66408W        W39476   4.962  15.497  13.451
66409W        W39477  34.748   9.725   1.023
66410W        W39478   4.862   4.707  11.446
66411W        W39479  25.995   5.180  10.672
66412W        W39480  23.524  32.471  12.570
66413W        W39481  21.479  19.261  13.918
66414W        W39482  22.123  33.969   3.230
66415W        W39483  29.616  37.516  14.836
66416W        W39484   0.088  19.775  14.645
66417W        W39485  11.549  15.743  11.635
66418W        W39486  38.083   3.201   4.308
66419W        W39487   8.292  10.772   4.496
66420W        W39488  33.173  30.818   2.977
66421W        W39489  34.031   1.006   3.484
66422W        W39490   6.395   1.247  10.652
66423W        W39491  31.415   6.289  12.592
66424W        W39492  44.380  30.332  10.733
66425W        W39493   5.302  35.793  14.949
66426W        W39494   0.925  32.802   4.361
66427W        W39495  33.095  17.572   4.620
66428W        W39496  24.553   8.878   2.721
66429W        W39497  33.574  26.118   4.929
66430W        W39498  43.960  34.902  13.006
66431W        W39499  14.207  12.112  14.719
66432W        W39500  14.834  41.864  14.540
66433W        W39501  15.828  25.605  12.008
66434W        W39502   2.797  27.686   1.732
66435W        W39503  15.020  42.300  14.750
66436W        W39504   1.449  15.657   2.238
66437W        W39505  16.027  41.991  13.363
66438W        W39506  19.283   7.210  13.746
66439W        W39507  42.100  18.723  12.466
66440W        W39508  23.640  25.156  12.597
66441W        W39509  24.229   5.434   3.340
66442W        W39510   3.204  33.491   1.854
66443W        W39511  27.964  34.811  11.851
66444W        W39512  17.246   1.721   2.316
66445W        W39513  41.621  36.836   4.417
66446W        W39514  39.568  40.372  11.988
66447W        W39515  40.534   1.440  11.056
66448W        W39516  27.308   1.899  11.610
66449W        W39517   8.228  25.521  13.919
66450W        W39518  31.135   2.544  13.624
66451W        W39519  34.955  30.143   3.262
66452W        W39520  35.528   8.377  11.524
66453W        W39521   8.685  20.033   4.053
66454W        W39522  30.565   0.977   3.667
66455W        W39523  19.042  37.415   3.101
66456W        W39524   5.774  38.802   0.858
66457W        W39525   2.927  23.998   3.425
66458W        W39526  25.901  42.462   2.333
66459W        W39527  12.085  20.639   0.762
66460W        W39528  33.791  38.989  11.717
66461W        W39529  41.013  23.044   1.919
66462W        W39530  43.875  20.596   1.680
66463W        W39531   3.354  33.511   3.293
66464W        W39532   3.148  13.902   1.910
66465W        W39533  41.528  21.140   3.297
66466W        W39534  43.845   8.893  14.901
66467W        W39535  16.221   4.751  10.651
66468W        W39536  20.469   1.907  14.801
66469W        W39537  35.394  40.569   2.917
66470W        W39538  35.447   8.100   2.102
66471W        W39539  10.371   3.008   3.414
66472W        W39540  29.465   4.874   1.256
66473W        W39541  19.263   0.030  11.371
66474W        W39542  23.801  44.853  14.406
66475W        W39543  32.980  12.102   1.785
66476W        W39544  32.020   8.688  13.336
66477W        W39545  33.525   9.781   4.218
66478W        W39546  41.612  16.441   5.471
66479W        W39547  31.017   4.462  14.280
66480W        W39548  35.156  37.411  13.353
66481W        W39549   5.119   0.695  11.605
66482W        W39550   1.048   7.091  11.160
66483W        W39551  30.512  28.087   0.766
66484W        W39552  11.165  25.380   2.244
66485W        W39553  33.408   9.377   4.602
66486W        W39554  11.847   0.274   1.537
66487W        W39555  31.593  38.144  13.521
66488W        W39556   2.557  10.751  14.923
66489W        W39557  23.662  27.919  14.006
66490W        W39558   5.341   9.563  14.871
66491W        W39559   6.157  41.558  10.672
66492W        W39560   1.104   6.488   2.646
66493W        W39561   1.181  23.041  14.328
66494W        W39562   7.815  44.266  10.668
66495W        W39563  40.976  32.298   0.200
66496W        W39564  34.089  27.563   2.136
66497W        W39565  37.995   5.913  14.064
66498W        W39566  12.310   4.286  14.790
66499W        W39567  35.511   3.640   1.832
66500W        W39568  19.034  11.646   1.983
66501W        W39569  41.830  20.982  13.369
66502W        W39570   6.312  17.012  10.587
66503W        W39571  24.614  41.925  14.896
66504W        W39572  19.230  38.064   0.772
66505W        W39573  20.878  22.535   1.293
66506W        W39574   0.591  26.869  10.638
66507W        W39575  20.675  27.964  11.873
66508W        W39576  19.840  15.633   0.888
66509W        W39577  18.046  23.346   1.717
66510W        W39578  25.952  29.579   4.631
66511W        W39579  20.188  14.060  10.795
66512W        W39580  42.558  33.087  13.855
66513W        W39581  27.962  30.452  12.436
66514W        W39582  10.165  33.421   0.335
66515W        W39583   9.858  24.534  11.282
66516W        W39584  34.906  28.230  12.481
66517W        W39585  22.551  43.508   0.984
66518W        W39586  18.086  11.693   1.928
66519W        W39587   2.703  14.599   1.350
66520W        W39588  44.327   0.424  14.435
66521W        W39589  29.409   9.082  11.704
66522W        W39590   9.203  28.538   2.820
66523W        W39591  35.971   9.726   4.399
66524W        W39592  41.429  18.503  11.935
66525W        W39593  21.701  19.813   4.253
66526W        W39594   8.325  37.733   3.382
66527W        W39595  25.121  27.887  12.577
66528W        W39596  20.605   6.695  11.682
66529W        W39597   8.488   8.969  12.444
66530W        W39598  15.684  11.620   1.944
66531W        W39599   9.641  31.545   3.369
66532W        W39600  44.402  31.264   0.435
66533W        W39601  14.860   9.862   2.769
66534W        W39602  11.602  26.206   2.222
66535W        W39603  36.536  24.650  10.601
66536W        W39604  16.103  34.584   4.089
66537W        W39605   2.850  22.711  12.844
66538W        W39606   1.354   7.440   1.874
66539W        W39607  35.565  21.232   0.521
66540W        W39608   4.979  33.876   0.810
66541W        W39609   1.550  29.358  12.537
66542W        W39610  40.949  13.563   1.284
66543W        W39611   6.859  26.044  10.518
66544W        W39612  21.523  26.025   1.400
66545W        W39613  28.326  15.232  11.039
66546W        W39614  35.707  16.478   0.994
66547W        W39615  25.116  16.849   1.285
66548W        W39616  37.517  25.728  11.181
66549W        W39617  13.167  31.220   4.729
66550W        W39618  17.512   9.560  12.385
66551W        W39619  26.266  25.684  13.395
66552W        W39620   6.835  37.167   4.011
66553W        W39621   4.340  11.462  11.606
66554W        W39622  27.152  10.469  14.868
66555W        W39623  36.098  44.626  10.537
66556W        W39624   8.817   0.700  13.300
66557W        W39625  26.578  14.010  11.592
66558W        W39626  29.157   9.297  12.127
66559W        W39627   2.971  33.846   4.333
66560W        W39628  10.779   4.216  11.033
66561W        W39629  37.915  23.828   1.949
66562W        W39630  24.696  38.054   2.740
66563W        W39631  29.684  39.422  14.169
66564W        W39632  27.759   6.536   3.459
66565W        W39633  19.300  42.869  11.112
66566W        W39634  34.595  40.857   0.785
66567W        W39635   4.829  24.991   2.746
66568W        W39636  30.657   8.684   3.671
66569W        W39637  22.973  32.039  12.029
66570W        W39638  26.521   5.877  12.414
66571W        W39639   6.247  13.419  12.541
66572W        W39640  28.618  41.421   4.621
66573W        W39641  14.661   4.532   3.392
66574W        W39642  41.430  36.613   0.859
66575W        W39643  29.165  18.285  12.457
66576W        W39644  34.603   6.446   2.176
66577W        W39645  36.376  22.532  13.175
66578W        W39646  19.912  10.228   4.654
66579W        W39647   0.411  22.143   2.187
66580W        W39648  34.671  11.863   4.039
66581W        W39649  28.133   6.756  13.202
66582W        W39650  35.990  33.557   0.438
66583W        W39651  27.777   2.002   5.111
66584W        W39652  13.129  28.090  11.042
66585W        W39653  28.695  30.079  14.267
66586W        W39654  36.024   7.676   2.676
66587W        W39655  19.676   5.014   1.937
66588W        W39656  14.357  19.159  13.066
66589W        W39657   9.453   7.655  13.958
66590W        W39658   3.256  18.582   4.641
66591W        W39659   4.180   9.823  11.003
66592W        W39660  38.494  44.594   4.941
66593W        W39661   2.007  36.446   2.883
66594W        W39662  40.889  24.887   1.966
66595W        W39663  24.500   7.731  11.416
66596W        W39664  12.654  13.387   1.559
66597W        W39665  40.300  21.223  13.268
66598W        W39666  29.481  26.978  13.600
66599W        W39667  36.401  40.900  11.712
66600W        W39668  43.807  12.457  10.622
66601W        W39669  39.439  16.115   1.843
66602W        W39670   9.305  30.162   1.044
66603W        W39671  26.196   7.379   0.981
66604W        W39672  17.511   8.587   0.751
66605W        W39673   9.906  36.492  14.913
66606W        W39674  14.499  42.493  10.395
66607W        W39675  15.645   2.758   0.265
66608W        W39676  10.900  14.534   3.683
66609W        W39677  39.181  37.327  12.726
66610W        W39678  43.237   5.344   1.940
66611W        W39679  43.190  43.960  11.802
66612W        W39680   1.858   7.093  14.399
66613W        W39681  18.773  22.048   0.284
66614W        W39682  34.376  15.701  11.173
66615W        W39683   7.781  26.918  11.692
66616W        W39684  30.175  35.970  14.851
66617W        W39685  40.070  17.716  10.796
66618W        W39686  33.478  40.441  13.909
66619W        W39687  34.629  21.545   0.258
66620W        W39688  42.081  25.191   4.377
66621W        W39689  31.905  17.226   1.863
66622W        W39690   5.440  34.749  14.912
66623W        W39691  30.980  16.808   4.694
66624W        W39692  32.949  41.790   2.649
66625W        W39693   2.696  15.233   1.946
66626W        W39694   5.855   4.189  12.556
66627W        W39695   1.946   1.927   3.874
66628W        W39696  42.890  22.449   0.270
66629W        W39697  16.848  39.150   4.450
66630W        W39698   0.292  21.679   2.775
66631W        W39699  39.570  40.985  10.785
66632W        W39700  20.022  13.617  11.675
66633W        W39701  19.938  31.512  14.892
66634W        W39702  19.821   0.197   4.704
66635W        W39703  34.549   6.792  11.084
66636W        W39704  31.889  21.523   0.969
66637W        W39705  22.981   1.946   2.295
66638W        W39706  32.839  44.966   1.983
66639W        W39707  26.514  16.038  14.317
66640W        W39708  31.197  18.801   2.028
66641W        W39709  42.400  41.753  12.056
66642W        W39710  20.049   5.173  10.624
66643W        W39711  44.886  20.198  13.910
66644W        W39712  16.542   1.819  10.679
66645W        W39713  14.886  44.365   3.939
66646W        W39714   5.167  33.392  10.246
66647W        W39715  26.671   3.489  13.930
66648W        W39716  23.808   5.747  13.297
66649W        W39717   8.432  39.358  13.054
66650W        W39718   5.913  37.002   2.121
66651W        W39719  22.566   3.382  11.650
66652W        W39720  36.608  16.783   1.978
66653W        W39721  39.596  43.822  14.301
66654W        W39722  12.634  36.857   2.483
66655W        W39723  38.528  25.803  11.682
66656W        W39724  38.339   9.597  13.888
66657W        W39725  39.994  25.356   3.701
66658W        W39726  13.250   4.773   2.363
66659W        W39727  13.347   0.843  13.877
66660W        W39728  36.971  36.222   0.010
66661W        W39729  22.313   8.738   4.182
66662W        W39730  36.088  20.091  12.058
66663W        W39731  18.289   3.422   1.797
66664W        W39732   3.376  36.770   4.071
66665W        W39733  32.017  44.026   4.786
66666W        W39734  37.376  25.136  14.883
66667W        W39735   5.849  39.758   4.449
66668W        W39736  27.462  41.404   4.334
66669W        W39737   1.286   9.628   4.735
66670W        W39738   1.425  26.886   3.693
66671W        W39739  22.090   2.730  10.532
66672W        W39740  24.678  32.549  14.909
66673W        W39741  43.903  34.353   2.647
66674W        W39742  10.757  11.081   0.277
66675W        W39743  19.653  40.772  14.015
66676W        W39744   0.237  14.238  12.935
66677W        W39745  13.707   4.942   3.166
66678W        W39746  32.645   9.217  11.617
66679W        W39747  30.889  37.138  14.873
66680W        W39748  39.051  23.775   1.313
66681W        W39749  27.768  28.742   0.300
66682W        W39750  24.255  33.569  13.057
66683W        W39751   5.127  26.891   1.733
66684W        W39752   4.911  30.841   0.471
66685W        W39753  38.177  16.609   4.489
66686W        W39754   2.213  27.892   0.888
66687W        W39755  13.606   3.845  14.853
66688W        W39756  28.949  16.259  14.756
66689W        W39757  36.852  43.924   2.925
66690W        W39758  27.119  35.366   3.791
66691W        W39759  20.205  34.978   2.447
66692W        W39760   5.864  38.713  14.900
66693W        W39761  44.418  14.169  11.649
66694W        W39762  42.600  27.295  14.780
66695W        W39763  33.910  38.616  13.148
66696W        W39764  24.937   1.678   2.749
66697W        W39765   0.272  19.126   3.761
66698W        W39766  24.803  23.954  13.385
66699W        W39767  33.526  12.757  14.994
66700W        W39768  19.804   4.843   9.845
66701W        W39769  13.186  19.553  14.400
66702W        W39770  30.093  31.905  12.506
66703W        W39771  35.599  43.486  11.361
66704W        W39772  33.404  42.516   1.253
66705W        W39773  23.976  23.470   1.865
66706W        W39774  13.774  16.145   2.233
66707W        W39775  23.579   9.657  11.095
66708W        W39776  33.408  40.729  13.424
66709W        W39777   4.902  18.559  13.374
66710W        W39778   1.364  15.416  13.693
66711W        W39779  26.426  13.477   2.309
66712W        W39780  44.379  14.624  11.410
66713W        W39781  35.906  44.882   4.614
66714W        W39782  28.484  39.868   3.356
66715W        W39783  22.452  23.775   1.828
66716W        W39784   1.903  18.059   2.163
66717W        W39785  41.333  19.161  13.417
66718W        W39786   0.492   6.408  14.407
66719W        W39787   4.973  36.248  11.598
66720W        W39788  12.066  19.486   3.543
66721W        W39789   8.359   7.304  10.485
66722W        W39790  23.622  15.841   4.786
66723W        W39791   0.180  36.015  10.988
66724W        W39792  16.578   4.186  13.178
66725W        W39793  42.450  11.852  11.158
66726W        W39794   5.778   9.265  14.955
66727W        W39795  18.577  33.458   4.522
66728W        W39796  30.562   4.551  14.032
66729W        W39797  26.020   2.276   3.270
66730W        W39798  11.193  29.925   3.402
66731W        W39799  40.978  14.871  14.790
66732W        W39800   5.240  23.021   1.975
66733W        W39801  39.221  29.614   3.245
66734W        W39802  28.256  21.450  14.939
66735W        W39803  35.480  19.257   3.883
66736W        W39804  14.634  30.617  14.019
66737W        W39805  18.239  14.559   1.269
66738W        W39806  18.458   7.975  11.459
66739W        W39807  15.218  28.371  10.584
66740W        W39808  16.218  43.960   1.421
66741W        W39809  15.091  33.414  10.463
66742W        W39810   1.841  35.499  11.901
66743W        W39811  33.544  41.510   2.156
66744W        W39812  12.234  25.521   3.608
66745W        W39813  12.348  31.094   3.379
66746W        W39814  17.099  36.291   1.864
66747W        W39815  26.250  34.100   0.409
66748W        W39816  20.194  19.958   3.070
66749W        W39817   6.809  24.848   3.821
66750W        W39818   8.641  18.080   0.096
66751W        W39819  11.301  38.723   2.501
66752W        W39820  17.076  16.671  13.890
66753W        W39821  39.396  31.498   4.977
66754W        W39822   3.633  41.964  11.717
66755W        W39823  15.182  37.956  12.777
66756W        W39824   8.240  35.479   1.256
66757W        W39825  43.132  29.022   1.338
66758W        W39826   7.345  22.652  10.509
66759W        W39827  43.059  42.067   3.719
66760W        W39828   1.687  31.872  11.036
66761W        W39829   7.759   6.028  10.640
66762W        W39830  30.976  36.556   3.920
66763W        W39831   3.820  41.877  12.198
66764W        W39832  28.528  23.066   2.955
66765W        W39833   8.805   1.826  13.811
66766W        W39834  12.474   5.103   0.806
66767W        W39835  18.630   0.858  11.185
66768W        W39836  17.762   2.416   2.494
66769W        W39837  40.893  42.551   2.359
66770W        W39838   6.131  16.567  12.937
66771W        W39839   8.415   5.165   4.513
66772W        W39840   1.737  40.615   4.197
66773W        W39841  34.470  36.856   2.076
66774W        W39842  28.905  37.390   2.727
66775W        W39843  19.549  28.485  11.684
66776W        W39844  40.449  19.315  10.777
66777W        W39845  19.037  21.307  14.403
66778W        W39846  34.480  12.803   0.733
66779W        W39847  18.836  26.051   3.273
66780W        W39848   3.737   4.440   4.141
66781W        W39849  34.924  20.951   1.820
66782W        W39850  32.486  32.241  11.527
66783W        W39851  28.566  38.446   3.510
66784W        W39852  35.521   8.811  14.739
66785W        W39853  14.933  19.682  11.169
66786W        W39854  33.128  36.266   1.553
66787W        W39855  20.676  30.090   1.922
66788W        W39856  25.598   2.842  10.636
66789W        W39857  12.701   0.213   1.169
66790W        W39858   1.965  20.161  12.610
66791W        W39859  30.337  38.743   0.915
66792W        W39860   1.468  41.383   4.423
66793W        W39861  38.612  19.324  12.862
66794W        W39862  37.135  35.474  13.475
66795W        W39863  22.683  30.900   2.389
66796W        W39864  16.801  10.385  14.970
66797W        W39865  41.070  16.271   4.556
66798W        W39866  13.348  16.764   2.783
66799W        W39867   6.835  39.297   0.338
66800W        W39868   4.242  35.055   2.327
66801W        W39869  23.163  40.701  11.883
66802W        W39870   2.861  15.338   0.393
66803W        W39871   1.907   2.004   0.283
66804W        W39872   3.938   9.743  12.518
66805W        W39873  11.655  31.854  10.603
66806W        W39874  40.090  41.990   3.703
66807W        W39875  43.641  24.746   2.897
66808W        W39876  35.437  33.444  14.818
66809W        W39877   3.548  35.999   2.436
66810W        W39878  36.935  16.208   0.820
66811W        W39879  29.426   3.447  12.961
66812W        W39880  13.338   2.826  12.982
66813W        W39881   1.342  40.312  10.920
66814W        W39882  26.665  34.107  10.241
66815W        W39883  23.488  23.712  11.222
66816W        W39884  44.192  35.492  11.568
66817W        W39885  20.498  33.666  13.317
66818W        W39886   7.350  42.157  10.303
66819W        W39887   5.812  27.240   4.614
66820W        W39888  23.817  31.463  14.553
66821W        W39889  13.664  14.205   4.231
66822W        W39890  14.737  37.857   2.049
66823W        W39891   5.373  13.289   4.104
66824W        W39892  14.120  33.547  12.904
66825W        W39893  23.485   0.991  13.843
66826W        W39894  38.345  31.148  12.211
66827W        W39895  12.239  14.564   1.908
66828W        W39896  42.258  29.549  14.898
66829W        W39897  13.896   5.670  12.457
66830W        W39898  40.209   7.427  12.819
66831W        W39899  39.645  27.099  11.560
66832W        W39900  38.034  21.207  14.534
66833W        W39901  21.878  39.863   4.252
66834W        W39902  18.516  18.311  12.555
66835W        W39903  35.123  38.500  10.385
66836W        W39904  26.111  38.377   2.715
66837W        W39905  38.099  20.074   3.790
66838W        W39906   5.941  10.840   2.179
66839W        W39907  35.643   5.103  12.349
66840W        W39908  25.031  24.836  11.920
66841W        W39909  16.343  27.785   1.399
66842W        W39910  31.131  44.347  14.329
66843W        W39911  41.898  12.938  13.856
66844W        W39912  30.896   4.888   0.457
66845W        W39913  25.224  32.589   4.360
66846W        W39914  26.934   9.868   1.791
66847W        W39915  44.235   7.215   0.711
66848W        W39916  39.042  33.424  13.373
66849W        W39917  18.038  34.856   2.718
66850W        W39918  24.060  20.075  11.934
66851W        W39919  30.378  10.762   4.188
66852W        W39920  11.692  17.798   0.294
66853W        W39921   2.332  32.145  14.030
66854W        W39922  41.969   1.306   2.834
66855W        W39923  15.885  19.594   0.927
66856W        W39924  20.321  10.377   0.756
66857W        W39925  28.928  26.486   3.243
66858W        W39926   6.444  36.154   0.817
66859W        W39927   8.901   5.889  13.876
66860W        W39928  14.877  23.041  13.836
66861W        W39929  22.774  37.305   3.732
66862W        W39930  18.912   2.669  13.386
66863W        W39931  38.492  36.865  12.416
66864W        W39932  11.963  23.077  12.442
66865W        W39933  35.149  27.146  14.478
66866W        W39934   2.045  17.763   1.679
66867W        W39935  14.363  11.512   1.879
66868W        W39936  28.241   1.411  13.970
66869W        W39937  28.089  35.498   1.875
66870W        W39938  33.719  17.243  11.684
66871W        W39939  29.297   8.283   4.926
66872W        W39940   8.168   9.140  14.853
66873W        W39941  26.639  34.017   3.982
66874W        W39942   6.297  36.789  13.372
66875W        W39943  16.087  43.347  11.414
66876W        W39944  10.625  30.625  11.543
66877W        W39945  39.902  41.263   3.381
66878W        W39946   1.173  37.014   1.394
66879W        W39947   2.773  30.208   1.781
66880W        W39948   2.381  36.490   1.884
66881W        W39949   2.355   2.260   0.960
66882W        W39950  23.982  12.760   2.782
66883W        W39951  22.708  33.226   2.732
66884W        W39952   0.834  31.144  14.575
66885W        W39953  22.268  11.877   4.179
66886W        W39954  16.746  17.273  14.323
66887W        W39955  44.512  21.575   0.339
66888W        W39956  40.978  15.565   3.545
66889W        W39957  12.621  22.211   3.330
66890W        W39958  44.600   1.285   4.729
66891W        W39959  12.146   5.672  14.832
66892W        W39960  12.122  16.650   4.575
66893W        W39961   5.425  12.221  12.288
66894W        W39962  30.100  33.883  13.315
66895W        W39963  14.293  31.659  11.111
66896W        W39964  18.308  18.269   0.027
66897W        W39965  39.604   1.749   5.480
66898W        W39966  16.269  44.378   3.700
66899W        W39967  12.202   5.408   3.460
66900W        W39968  14.861  41.274   0.346
66901W        W39969  35.599  12.085   4.391
66902W        W39970  37.790  15.278   4.339
66903W        W39971  23.037  14.740   3.970
66904W        W39972  29.559   8.161   0.576
66905W        W39973  20.952  34.432   2.895
66906W        W39974   6.663  39.021   1.174
66907W        W39975  23.699  12.331  14.629
66908W        W39976   3.104  31.125   1.445
66909W        W39977  14.379  18.245   4.756
66910W        W39978   9.195  36.947  11.153
66911W        W39979  12.603  20.014   3.280
66912W        W39980  35.000  39.383   4.625
66913W        W39981  33.936  38.060  11.982
66914W        W39982   1.761  37.071  13.607
66915W        W39983  42.137   2.261  14.556
66916W        W39984  30.235  23.967  14.962
66917W        W39985   4.691  14.893  12.399
66918W        W39986  35.497   9.342   4.825
66919W        W39987   7.354   0.460  12.366
66920W        W39988  35.799  42.953   4.527
66921W        W39989  35.484   1.317  13.102
66922W        W39990  34.973  27.441  14.901
66923W        W39991  35.082  20.124  11.104
66924W        W39992  37.053  13.150  11.569
66925W        W39993   2.357  39.819   1.031
66926W        W39994  16.626  15.604   5.023
66927W        W39995  13.095  31.399   1.380
66928W        W39996  22.720  12.182  14.493
66929W        W39997  25.257  14.784  11.465
66930W        W39998  15.226  21.602  14.001
66931W        W39999  24.004  43.033  12.692
66932W        W40000  13.181  19.605   4.220
66933W        W40001  44.535  21.610  11.467
66934W        W40002  14.328  21.678   3.119
66935W        W40003  19.069  41.863   0.554
66936W        W40004  10.674  18.660   0.274
66937W        W40005   0.672  15.369  13.492
66938W        W40006  34.015  21.438   4.724
66939W        W40007   2.979   3.328  11.975
66940W        W40008  38.895  27.559  11.159
66941W        W40009  19.837   3.988  14.452
66942W        W40010   0.035  16.170  14.655
66943W        W40011  10.381  24.072  14.915
66944W        W40012  12.153   7.337   4.071
66945W        W40013  10.833  39.057   1.329
66946W        W40014  18.844  22.228  12.485
66947W        W40015  39.951  17.130  11.508
66948W        W40016  38.553  26.711   4.825
66949W        W40017   2.287  38.851  10.744
66950W        W40018   8.890   2.790   2.210
66951W        W40019  38.291  40.415   2.287
66952W        W40020  12.048  18.227   2.206
66953W        W40021  11.828  23.469  11.205
66954W        W40022   8.834  30.232   2.342
66955W        W40023  44.487  33.367   2.399
66956W        W40024  40.050  44.928   1.199
66957W        W40025  20.650  33.922  13.763
66958W        W40026  29.851  18.297  12.036
66959W        W40027  30.170   9.768  11.054
66960W        W40028  33.351  16.781   3.169
66961W        W40029  39.010   3.298   4.213
66962W        W40030   1.854  35.077   0.974
66963W        W40031  24.486   5.656  11.223
66964W        W40032  24.058  10.090   4.510
66965W        W40033  42.890   7.741   1.388
66966W        W40034  32.069  38.057  11.618
66967W        W40035  17.539   8.220  10.674
66968W        W40036  11.099   0.846  13.037
66969W        W40037   8.886  37.053  10.327
66970W        W40038  33.351  40.040  12.757
66971W        W40039  30.154   6.712   4.444
66972W        W40040  20.078  31.512   4.556
66973W        W40041  24.205  23.058   4.256
66974W        W40042  33.522  11.703   2.395
66975W        W40043  22.298  39.549  12.531
66976W        W40044  27.853  35.426  14.970
66977W        W40045   8.830  16.538   0.890
66978W        W40046   4.087  27.947   3.730
66979W        W40047  31.636  35.709  12.206
66980W        W40048   7.287   4.148  11.078
66981W        W40049  17.201  13.655   2.643
66982W        W40050  19.280  42.070  11.436
66983W        W40051  14.581  35.516   1.153
66984W        W40052  35.908  17.761  12.482
66985W        W40053   0.312  12.261   2.661
66986W        W40054  37.027  37.933  14.769
66987W        W40055  20.721  10.731   2.894
66988W        W40056  36.054   2.804  12.036
66989W        W40057   3.013  32.990   1.884
66990W        W40058   8.229  10.690   0.701
66991W        W40059  14.514  25.128  14.346
66992W        W40060   1.726  19.194  13.053
66993W        W40061   1.031  38.904   3.553
66994W        W40062  20.272   0.824   2.127
66995W        W40063  19.092  26.517   1.224
66996W        W40064  44.136  33.618  12.953
66997W        W40065   4.359  16.127   3.205
66998W        W40066  11.895  10.844  14.355
66999W        W40067  36.669  20.241  11.662
67000W        W40068   3.328  29.703  10.446
67001W        W40069  38.560  14.588   1.766
67002W        W40070  11.724  17.465  14.894
67003W        W40071  17.284  13.663  10.376
67004W        W40072   4.207  20.535  13.941
67005W        W40073   5.100  22.089   4.071
67006W        W40074  26.418  17.154  13.381
67007W        W40075  26.208  39.274  11.913
67008W        W40076  29.109  17.997  14.370
67009W        W40077  41.279  24.799  13.045
67010W        W40078  22.296   0.415   0.010
67011W        W40079  19.316  44.506  12.575
67012W        W40080   7.308  18.760   0.792
67013W        W40081  19.495  24.032  10.552
67014W        W40082  14.033   3.839   2.889
67015W        W40083  23.826   3.400   2.100
67016W        W40084  42.602  10.233   4.530
67017W        W40085  43.252  37.310   4.151
67018W        W40086  16.884  41.385   2.888
67019W        W40087  43.939  38.009   0.973
67020W        W40088  39.129  32.153  14.148
67021W        W40089  15.645  31.945   1.094
67022W        W40090  22.204   4.869   2.404
67023W        W40091   4.499  27.472   4.615
67024W        W40092  24.157  24.603   0.394
67025W        W40093   3.398  16.156   0.909
67026W        W40094  35.984  19.163  10.441
67027W        W40095  22.121  11.150  13.444
67028W        W40096   6.541  39.872  11.084
67029W        W40097  11.185  34.086  10.665
67030W        W40098   2.895  18.375   2.779
67031W        W40099  18.695   2.370  14.949
67032W        W40100  22.235   2.531  13.896
67033W        W40101  20.261  35.274   3.222
67034W        W40102  19.936  10.246  10.815
67035W        W40103   0.348  32.385  13.078
67036W        W40104  37.019  29.164  10.775
67037W        W40105   4.451  17.907   0.500
67038W        W40106  23.719  19.130   0.403
67039W        W40107  44.456  31.415   0.927
67040W        W40108  12.389  42.205  12.471
67041W        W40109  14.443  31.426  12.034
67042W        W40110   4.958  14.473   0.986
67043W        W40111  32.081  34.883   3.186
67044W        W40112  30.208  27.088   4.094
67045W        W40113  36.931  44.772  12.842
67046W        W40114   1.744  22.017   3.365
67047W        W40115  22.260  19.214  13.522
67048W        W40116  28.474  26.046   1.957
67049W        W40117  30.699   3.330  13.979
67050W        W40118  13.700   2.802   2.283
67051W        W40119  20.443  26.012   2.829
67052W        W40120  36.361  36.846   0.329
67053W        W40121   7.934  42.881   4.159
67054W        W40122   8.052  12.363  12.582
67055W        W40123  38.829   0.661   0.041
67056W        W40124  28.214  21.338   0.909
67057W        W40125  27.540  24.663   2.201
67058W        W40126  29.479  22.248  14.419
67059W        W40127  31.988  39.525   1.613
67060W        W40128  38.227  35.918   0.013
67061W        W40129  23.424  25.485   1.877
67062W        W40130  15.539  28.424  11.920
67063W        W40131  31.442  29.055   1.554
67064W        W40132  14.869  37.275  13.849
67065W        W40133  33.578   1.084   2.380
67066W        W40134  18.334   5.431  14.350
67067W        W40135  43.765  30.434   3.641
67068W        W40136   1.118  39.032   0.778
67069W        W40137  23.739  25.617   2.813
67070W        W40138   7.440   1.747  14.248
67071W        W40139  41.982  11.851   4.823
67072W        W40140  42.806   6.858  10.650
67073W        W40141  36.556  28.524   0.682
67074W        W40142  37.995  26.270  12.925
67075W        W40143  40.881  43.709  12.467
67076W        W40144  26.639  38.433  11.524
67077W        W40145   2.066  33.677   3.260
67078W        W40146  27.082   1.241  13.405
67079W        W40147  23.173   9.702   0.419
67080W        W40148  30.332  42.487   3.573
67081W        W40149  32.147   4.965  12.493
67082W        W40150  37.543  40.056  11.021
67083W        W40151  19.736  29.146   2.165
67084W        W40152  40.788  33.276  12.698
67085W        W40153  26.176   1.587  11.534
67086W        W40154  23.616  40.428   3.850
67087W        W40155  29.032  27.562   4.761
67088W        W40156  35.637  18.728   2.075
67089W        W40157  21.111   9.169   1.809
67090W        W40158   7.399   1.875   3.463
67091W        W40159   6.750  34.455  14.443
67092W        W40160  44.490  32.989  11.209
67093W        W40161   6.897   4.451   2.086
67094W        W40162  10.617  19.228   2.629
67095W        W40163  44.569  40.888  12.895
67096W        W40164  23.507  42.248   4.647
67097W        W40165  20.206  44.927   0.036
67098W        W40166  30.600  24.553  13.380
67099W        W40167  32.855  37.534  13.639
67100W        W40168  34.601  31.098  14.309
67101W        W40169  32.007  11.665   2.922
67102W        W40170  22.057  24.565  11.880
67103W        W40171  21.810   7.026   3.654
67104W        W40172  12.797   2.878  14.260
67105W        W40173   0.730  33.453  12.079
67106W        W40174   1.236   8.793   3.675
67107W        W40175  13.098  37.937   1.951
67108W        W40176  18.456  11.177  13.733
67109W        W40177   5.020  29.467   4.226
67110W        W40178  36.283   3.702  13.113
67111W        W40179  16.137  27.644  14.042
67112W        W40180  22.154   2.717   2.891
67113W        W40181  33.139  16.897   1.427
67114W        W40182  33.537  42.847   0.882
67115W        W40183   8.376  10.278   3.261
67116W        W40184   3.708  23.676   0.860
67117W        W40185  39.762  15.208  14.255
67118W        W40186  14.874  40.859   0.972
67119W        W40187  10.160   3.457  14.821
67120W        W40188  40.134   3.937   4.402
67121W        W40189  30.517  37.941  10.708
67122W        W40190  29.200  43.415   4.544
67123W        W40191   3.205  25.043  13.039
67124W        W40192  43.618   1.253   2.979
67125W        W40193  28.763  25.015  12.103
67126W        W40194  33.084   3.423   0.862
67127W        W40195  10.771  30.536  14.209
67128W        W40196   3.268  27.940   1.771
67129W        W40197  25.270   4.358  14.268
67130W        W40198   1.439  24.226   3.246
67131W        W40199  43.891  37.717  13.013
67132W        W40200  17.416  25.785  11.077
67133W        W40201  15.150  44.511  14.319
67134W        W40202  23.269  16.762   0.524
67135W        W40203  33.605  37.145   3.415
67136W        W40204  36.596  23.291   1.440
67137W        W40205   8.903  24.633   2.267
67138W        W40206  33.583  38.523  11.550
67139W        W40207  25.591  13.264  12.843
67140W        W40208  43.996   4.973   1.744
67141W        W40209  19.325  27.644   4.226
67142W        W40210  35.678  21.220  13.162
67143W        W40211  20.076  34.437  10.821
67144W        W40212  39.010  24.030   0.826
67145W        W40213  37.596  28.573   1.443
67146W        W40214   9.300   2.829  10.701
67147W        W40215  20.277  37.916  11.989
67148W        W40216  32.911  21.139  11.552
67149W        W40217   7.159  18.541  14.203
67150W        W40218  29.630  12.275  14.518
67151W        W40219   2.397  24.138   2.712
67152W        W40220  25.544  31.440   0.329
67153W        W40221  36.461  34.668   1.989
67154W        W40222  19.195   2.697   0.268
67155W        W40223  15.751  10.648   4.304
67156W        W40224  10.570  31.486  10.735
67157W        W40225  31.749  31.354  13.501
67158W        W40226  12.868  26.724  13.536
67159W        W40227   3.768   8.269   1.854
67160W        W40228  16.200  23.047   1.866
67161W        W40229  10.811  27.783  14.933
67162W        W40230  15.889  34.314   0.112
67163W        W40231  35.315  41.815  12.011
67164W        W40232  31.478  27.770   1.941
67165W        W40233  38.271  18.743   4.320
67166W        W40234  29.521  11.150   4.686
67167W        W40235  27.415  38.995  10.777
67168W        W40236  31.409  33.126   1.234
67169W        W40237  20.931  12.133   0.892
67170W        W40238  35.482  15.718   3.703
67171W        W40239  16.119  30.187   0.778
67172W        W40240  10.887  32.833   0.862
67173W        W40241  23.688  39.922  10.647
67174W        W40242  16.787  21.498   4.121
67175W        W40243  23.545   7.947  14.290
67176W        W40244  11.305  35.889  13.121
67177W        W40245  10.402  43.242  13.927
67178W        W40246  38.034  16.702  10.389
67179W        W40247   4.759  30.368  14.312
67180W        W40248  21.600  32.919   4.184
67181W        W40249   6.826  34.826  12.137
67182W        W40250  25.516  13.326   0.541
67183W        W40251  33.073  12.263   0.765
67184W        W40252   4.301   3.732  12.035
67185W        W40253   3.183  16.509  13.804
67186W        W40254  33.394  27.037   3.916
67187W        W40255  33.502  24.603   1.503
67188W        W40256  12.153   2.701   0.887
67189W        W40257  26.612  36.482  12.541
67190W        W40258  39.605   9.974  13.576
67191W        W40259  25.615  41.108   4.603
67192W        W40260  29.367  23.148   2.059
67193W        W40261  11.116   2.752  11.904
67194W        W40262  41.039  22.264   0.962
67195W        W40263  36.489  14.680   1.662
67196W        W40264   1.408   8.217  14.001
67197W        W40265   0.508  29.071   0.355
67198W        W40266   3.393   4.899   0.250
67199W        W40267  37.027  37.495   3.278
67200W        W40268   7.861  22.173   2.277
67201W        W40269   4.679  19.118  14.992
67202W        W40270   2.537  14.772   1.815
67203W        W40271  23.169  33.454   2.583
67204W        W40272  41.504  25.255  12.800
67205W        W40273   6.310  35.606   3.193
67206W        W40274   9.813  32.702  14.438
67207W        W40275   9.236  39.474   0.376
67208W        W40276  36.901  34.536   0.551
67209W        W40277  14.872   6.627  11.938
67210W        W40278  37.778   2.816   1.223
67211W        W40279  27.679  33.911  13.808
67212W        W40280  36.152  26.505  12.126
67213W        W40281  43.368  21.508   2.846
67214W        W40282   5.299  32.563   4.880
67215W        W40283  16.809   4.939  13.793
67216W        W40284  39.556  39.337   3.248
67217W        W40285  33.679  12.176  10.316
67218W        W40286  18.100  34.396   3.403
67219W        W40287  34.094  38.058   4.284
67220W        W40288  44.253  35.853  12.066
67221W        W40289  24.919  36.613  14.852
67222W        W40290  31.581  39.927  13.946
67223W        W40291   6.789  28.624  13.162
67224W        W40292  14.115  28.716   1.212
67225W        W40293   3.168  39.596   4.370
67226W        W40294   7.235  26.191   0.650
67227W        W40295   7.077  35.937   0.227
67228W        W40296  22.027  12.875   1.304
67229W        W40297  36.911  26.262  13.072
67230W        W40298  32.873  30.556  13.904
67231W        W40299  11.051  20.710  11.978
67232W        W40300  20.105  32.183  11.115
67233W        W40301  44.317  15.034  13.741
67234W        W40302  18.609  43.727  10.922
67235W        W40303  16.843  19.728  10.962
67236W        W40304  21.813  44.283  14.477
67237W        W40305  41.876  23.723   2.230
67238W        W40306   7.405  26.560   2.679
67239W        W40307  27.721   4.808  13.835
67240W        W40308  22.981  16.700  13.022
67241W        W40309  18.122  36.530   3.155
67242W        W40310  24.501  17.615  12.556
67243W        W40311  35.488   1.187   0.462
67244W        W40312   7.228  14.637  11.202
67245W        W40313  11.306  21.526  13.931
67246W        W40314  25.202  23.648  10.494
67247W        W40315  21.068  31.683   0.479
67248W        W40316  25.686  14.486  11.476
67249W        W40317   6.124   4.587   2.312
67250W        W40318  40.126  20.740   0.942
67251W        W40319  21.556  12.656   0.710
67252W        W40320  27.150   0.233  13.588
67253W        W40321  35.652  13.221   4.727
67254W        W40322   4.414  36.943  14.969
67255W        W40323  33.011   2.153   4.870
67256W        W40324   5.630  33.779  11.469
67257W        W40325   5.725  41.353  11.531
67258W        W40326  11.633  16.330  11.549
67259W        W40327  17.100  10.682   4.105
67260W        W40328   4.390  38.558   4.601
67261W        W40329  18.649  30.186  11.112
67262W        W40330   7.906  34.852   2.951
67263W        W40331   0.657  34.946   3.753
67264W        W40332  38.016  43.513   3.316
67265W        W40333  21.626  40.847  11.954
67266W        W40334  35.102  37.786  11.067
67267W        W40335   3.874  16.055  12.527
67268W        W40336   8.758  30.494   4.140
67269W        W40337  27.278  44.089  11.656
67270W        W40338  13.091   8.199   4.583
67271W        W40339  22.646  25.906   1.749
67272W        W40340   1.509  30.112   2.784
67273W        W40341   5.166  29.150   1.861
67274W        W40342  39.943   5.342   2.687
67275W        W40343  17.374  12.898   2.552
67276W        W40344  30.203   0.312   4.635
67277W        W40345   6.336  42.816  10.039
67278W        W40346  13.350  40.070  14.873
67279W        W40347  10.988  15.722  13.455
67280W        W40348  32.975   2.536  11.602
67281W        W40349  31.890  21.058  11.664
67282W        W40350  30.440   7.102   1.835
67283W        W40351   1.338  20.111  12.975
67284W        W40352  17.704  14.293   2.701
67285W        W40353  43.445   5.707   1.582
67286W        W40354  10.188  11.217   2.885
67287W        W40355  40.405  11.395  13.424
67288W        W40356  10.191   6.378   0.344
67289W        W40357   3.917  30.467   4.041
67290W        W40358   2.744  28.649   0.374
67291W        W40359  35.486  38.259  11.649
67292W        W40360   3.186  34.024   0.409
67293W        W40361  21.298  21.614  10.965
67294W        W40362   8.842  19.041  14.892
67295W        W40363  37.611   1.368   3.659
67296W        W40364  41.715  39.984  13.071
67297W        W40365   6.322  25.415  14.419
67298W        W40366  25.897  36.571  11.495
67299W        W40367  35.997  20.180   2.807
67300W        W40368  16.641   5.453  13.753
67301W        W40369  17.283   8.717   3.223
67302W        W40370  43.574  22.057   3.692
67303W        W40371   8.136  24.551  12.480
67304W        W40372  11.818  37.277  14.906
67305W        W40373  18.739   0.173  13.287
67306W        W40374  20.535  11.034  11.117
67307W        W40375  37.390   7.280  12.719
67308W        W40376  21.458   4.554   0.935
67309W        W40377  32.607  42.228   4.604
67310W        W40378  21.630  24.983   1.833
67311W        W40379  33.499  36.751   0.713
67312W        W40380  42.504  21.072   0.286
67313W        W40381  36.235  17.672   2.347
67314W        W40382  40.453  37.784  13.419
67315W        W40383  32.651  24.551  12.428
67316W        W40384   0.250  11.860   4.048
67317W        W40385  42.840  34.924   5.058
67318W        W40386  16.492  37.995  10.562
67319W        W40387  14.386   9.001   4.919
67320W        W40388  14.841   0.746  12.128
67321W        W40389  36.300  15.393   4.005
67322W        W40390   6.764  16.666  11.193
67323W        W40391  44.433  20.970   3.111
67324W        W40392  41.776   5.055   2.714
67325W        W40393   1.316   3.349  11.115
67326W        W40394  19.124   8.896  11.151
67327W        W40395   3.897  43.288  10.648
67328W        W40396  33.625   3.168  13.025
67329W        W40397  43.271  27.972   4.152
67330W        W40398  32.681  31.639  14.315
67331W        W40399  40.946  42.831   5.103
67332W        W40400  31.646  24.638   1.469
67333W        W40401   4.958  12.878  12.530
67334W        W40402  40.513  21.779   3.168
67335W        W40403   6.241  28.373   0.297
67336W        W40404  12.203  18.589   3.397
67337W        W40405  41.351   7.472   0.333
67338W        W40406   2.711  14.976   4.859
67339W        W40407  39.443   2.925   0.995
67340W        W40408  39.484  39.852   3.264
67341W        W40409   2.987  24.586  12.863
67342W        W40410  13.079  31.469   1.947
67343W        W40411  37.548   2.384   2.856
67344W        W40412  29.958  17.602   2.787
67345W        W40413  23.051  12.349  14.859
67346W        W40414  28.229   1.701  11.509
67347W        W40415  30.661  15.677  12.487
67348W        W40416  18.378  20.708  11.730
67349W        W40417  43.539   4.247   0.775
67350W        W40418  31.814  12.200   1.186
67351W        W40419  12.849   5.226  14.907
67352W        W40420   2.217   5.308  13.783
67353W        W40421  18.730  43.017   3.363
67354W        W40422  43.529  16.684  11.284
67355W        W40423  36.524  35.794   0.673
67356W        W40424  33.871   4.932  14.195
67357W        W40425   1.712  38.072  13.296
67358W        W40426   9.782  39.624   0.418
67359W        W40427  23.291   9.244   4.793
67360W        W40428   6.212  21.809  12.513
67361W        W40429  22.582  36.470  13.857
67362W        W40430  30.467  17.652   0.796
67363W        W40431  34.520  41.256  11.610
67364W        W40432  44.975  39.132   3.110
67365W        W40433  36.798  12.906   5.010
67366W        W40434  35.425  35.081   2.734
67367W        W40435   6.635  24.715  11.116
67368W        W40436  38.594  18.353  12.535
67369W        W40437  44.414  37.892  11.457
67370W        W40438  37.527  33.567  11.111
67371W        W40439  34.212  18.092  11.378
67372W        W40440  30.632  34.314   3.168
67373W        W40441   2.228  26.333  12.098
67374W        W40442  14.690  29.505   0.124
67375W        W40443  34.120  39.667   2.267
67376W        W40444  16.404   7.903   0.941
67377W        W40445  27.620  23.850  13.629
67378W        W40446  28.616   9.411  14.477
67379W        W40447   0.373   2.772  13.511
67380W        W40448   5.837  38.043  12.361
67381W        W40449   3.127  14.927  13.067
67382W        W40450   1.975  40.266  11.549
67383W        W40451   9.208   7.713  10.541
67384W        W40452   9.922  44.040  11.388
67385W        W40453  43.508  43.951  14.336
67386W        W40454  21.577  38.989   2.712
67387W        W40455  11.266  20.291  10.447
67388W        W40456  25.174  30.131  14.350
67389W        W40457   9.616  34.460  14.429
67390W        W40458  28.102  22.492   5.222
67391W        W40459   7.639  10.023  13.090
67392W        W40460  41.977  35.243   2.767
67393W        W40461  26.287  17.077   4.837
67394W        W40462   6.258   5.419   4.145
67395W        W40463  32.498  34.914   0.426
67396W        W40464  39.917   2.850  13.905
67397W        W40465  35.436  42.230   4.123
67398W        W40466  31.170  39.211  11.946
67399W        W40467  21.737   9.401  10.723
67400W        W40468  37.008   8.418  14.247
67401W        W40469  13.523   3.986   1.395
67402W        W40470  33.478   4.880   1.136
67403W        W40471  17.206  10.972   2.709
67404W        W40472   8.662  42.413   0.196
67405W        W40473  38.522  35.073  10.539
67406W        W40474   0.954  24.166  12.690
67407W        W40475  26.500  31.754  14.059
67408W        W40476  31.619  44.040   1.310
67409W        W40477  13.566  28.851   4.561
67410W        W40478  32.375   3.575  12.644
67411W        W40479  18.791  13.730  11.141
67412W        W40480  27.345  18.751   3.809
67413W        W40481  27.674   6.011   3.573
67414W        W40482  41.938  21.774  13.017
67415W        W40483  33.622  30.870  13.045
67416W        W40484  20.479  11.810  11.618
67417W        W40485  17.629  27.008   1.373
67418W        W40486   9.190   6.779  12.926
67419W        W40487  23.549  32.535   3.656
67420W        W40488  23.081   8.732  12.447
67421W        W40489  44.179  31.840   0.850
67422W        W40490  24.221  28.587   1.455
67423W        W40491  30.404   3.827  14.507
67424W        W40492   2.315   0.523   1.886
67425W        W40493   6.662  18.375  13.022
67426W        W40494  22.496  18.784   3.713
67427W        W40495  37.947   7.931  11.122
67428W        W40496  36.395  38.444  10.737
67429W        W40497  18.794   8.298  11.654
67430W        W40498  14.085   9.958   1.708
67431W        W40499  33.079  13.248  14.962
67432W        W40500  36.075  18.145   1.676
67433W        W40501  43.770   3.369  12.064
67434W        W40502   7.376  35.896   4.074
67435W        W40503  28.425   2.919  12.806
67436W        W40504  10.646  22.656   4.741
67437W        W40505  37.392  28.575  13.837
67438W        W40506  38.038  30.136   4.141
67439W        W40507  32.185  16.782   4.714
67440W        W40508   7.437  39.562  11.461
67441W        W40509  25.529   1.783   0.439
67442W        W40510  12.626  21.561  14.884
67443W        W40511   6.709  31.470  12.192
67444W        W40512   9.324  13.337   0.975
67445W        W40513  29.024  26.110  10.669
67446W        W40514  18.717  28.044   1.202
67447W        W40515  24.365  24.039  14.664
67448W        W40516  34.960  42.032  11.607
67449W        W40517  27.218  25.001   0.002
67450W        W40518   9.899  19.852  11.925
67451W        W40519  26.058  18.858  13.372
67452W        W40520  17.413   4.947   3.215
67453W        W40521   6.121   9.400   4.193
67454W        W40522  15.979  34.930   0.289
67455W        W40523  20.979  17.129  12.020
67456W        W40524  15.672   5.655  12.322
67457W        W40525  25.275  40.976  13.502
67458W        W40526  38.290  23.725  14.800
67459W        W40527  37.965   7.831   4.671
67460W        W40528  41.712  42.967   4.670
67461W        W40529  19.347   6.176   2.389
67462W        W40530  25.108  41.813   4.159
67463W        W40531  16.804  27.059  10.646
67464W        W40532   6.300  44.313  12.982
67465W        W40533  27.515   8.176  12.856
67466W        W40534  12.374  14.264  12.035
67467W        W40535  35.955  39.295  14.505
67468W        W40536  19.327  39.948   4.800
67469W        W40537  32.314   0.688   0.959
67470W        W40538   9.439  11.799   4.445
67471W        W40539  17.567  18.528  11.141
67472W        W40540   5.233   6.985  10.410
67473W        W40541  31.977  37.549  14.784
67474W        W40542   1.937  27.735   3.677
67475W        W40543  28.573  27.497   1.892
67476W        W40544  43.477   2.205   1.863
67477W        W40545  13.724  36.835  11.636
67478W        W40546  38.856   3.927  11.509
67479W        W40547  27.226  43.317   1.506
67480W        W40548  42.808   3.210  14.782
67481W        W40549  44.731  39.359   1.861
67482W        W40550   4.875  38.053  14.230
67483W        W40551   7.444  39.167  13.927
67484W        W40552  32.618   2.054   0.493
67485W        W40553  28.989  12.340   3.114
67486W        W40554  33.449  10.832   0.792
67487W        W40555   5.956  29.406  14.118
67488W        W40556  16.024  13.249  11.658
67489W        W40557  35.846  20.661   2.665
67490W        W40558  43.868  41.412   0.441
67491W        W40559  29.522  11.696   4.552
67492W        W40560   1.903   8.121   2.158
67493W        W40561  40.311  41.761  13.828
67494W        W40562   1.998   2.819   3.340
67495W        W40563  29.043  21.932   2.362
67496W        W40564   3.465  18.046   0.311
67497W        W40565  29.872  21.674   2.005
67498W        W40566  23.336   8.002  11.664
67499W        W40567  22.245  29.407   4.319
67500W        W40568  41.712  25.663  11.087
67501W        W40569   5.401   6.781   4.912
67502W        W40570  19.872  28.233  13.927
67503W        W40571  19.611  43.434  10.483
67504W        W40572   6.786  21.243   1.052
67505W        W40573   1.568  42.805  11.563
67506W        W40574  34.123  31.765  12.877
67507W        W40575   3.302   7.905  11.941
67508W        W40576  41.588   4.393   5.119
67509W        W40577  34.997   8.384   2.005
67510W        W40578  44.441  27.495   4.362
67511W        W40579  25.709  31.502   4.477
67512W        W40580   4.880  38.348  12.793
67513W        W40581  38.090  34.098   1.296
67514W        W40582  36.128  34.114   1.289
67515W        W40583  20.645  24.443   1.705
67516W        W40584   5.952  27.523   2.872
67517W        W40585  12.493  32.943   4.422
67518W        W40586  22.475  17.585  10.378
67519W        W40587  25.143  39.431  12.462
67520W        W40588  11.636  42.266   1.763
67521W        W40589  28.967  24.916  14.242
67522W        W40590  39.467  28.249  11.558
67523W        W40591   5.386  31.455   4.835
67524W        W40592  26.648  26.198   2.366
67525W        W40593  32.758  24.151  14.037
67526W        W40594  23.516  16.859   4.484
67527W        W40595  20.493  13.209  12.666
67528W        W40596   8.897  38.472  10.313
67529W        W40597  40.280  21.063   4.166
67530W        W40598  19.237  33.654   3.219
67531W        W40599  40.243  33.403  14.924
67532W        W40600  34.094  30.352   1.857
67533W        W40601  13.098   2.429   2.166
67534W        W40602  23.029   7.761   4.786
67535W        W40603  28.134  22.995  13.924
67536W        W40604  27.249  13.150   4.315
67537W        W40605   5.822  31.359   3.050
67538W        W40606  34.366  16.844   2.692
67539W        W40607  36.450   2.435  14.443
67540W        W40608   2.221  27.958  10.702
67541W        W40609  14.357  26.956  12.955
67542W        W40610  28.423   0.729   2.740
67543W        W40611  10.377  30.509   0.054
67544W        W40612   7.425  41.496  14.514
67545W        W40613  28.444  35.305   3.181
67546W        W40614  34.973  27.732  10.771
67547W        W40615  41.272  28.381  11.992
67548W        W40616  11.050  35.641   3.050
67549W        W40617  13.085  41.795  11.221
67550W        W40618   9.412  17.754  12.042
67551W        W40619  36.286   5.725   3.862
67552W        W40620   3.305  23.264   1.724
67553W        W40621  11.792  38.697   2.293
67554W        W40622   5.214  13.405   3.108
67555W        W40623   8.200  22.668   4.890
67556W        W40624  22.209  19.633   4.814
67557W        W40625   1.337  30.665   1.332
67558W        W40626   0.547  11.432   1.576
67559W        W40627   4.622  41.384  12.400
67560W        W40628   0.060  36.867   1.862
67561W        W40629  23.169   0.201   0.911
67562W        W40630  41.802   7.654   3.306
67563W        W40631  20.094   3.107  11.543
67564W        W40632  16.568  41.751   0.474
67565W        W40633  21.961  41.920   0.446
67566W        W40634   1.495   4.453  10.689
67567W        W40635  43.398  31.650  12.090
67568W        W40636  21.379  11.717   4.178
67569W        W40637   2.043   2.002  13.545
67570W        W40638  34.872  36.086   4.150
67571W        W40639  43.931   6.367  11.157
67572W        W40640  12.330  36.440   3.648
67573W        W40641  38.521   0.477   0.413
67574W        W40642  10.085  20.463   0.347
67575W        W40643   0.904   2.439  11.435
67576W        W40644  21.169  37.668  11.984
67577W        W40645  12.873   2.940   0.276
67578W        W40646  23.591  37.647   2.847
67579W        W40647  31.888  20.149  11.086
67580W        W40648  37.834  36.265  14.961
67581W        W40649   6.916  31.581   2.293
67582W        W40650  42.015  44.844  14.220
67583W        W40651  20.355  24.940   1.234
67584W        W40652   2.973  19.261   5.040
67585W        W40653   0.814  30.024  14.595
67586W        W40654  28.097   1.267  10.480
67587W        W40655  18.984  17.235   4.124
67588W        W40656  19.590  34.542   0.294
67589W        W40657  10.119  27.063   1.436
67590W        W40658  42.212  23.598   3.776
67591W        W40659  12.719  40.958  11.269
67592W        W40660  36.884  25.879   3.084
67593W        W40661   2.390  36.403  13.141
67594W        W40662   2.367  28.669   2.575
67595W        W40663  20.996  32.521  10.663
67596W        W40664   3.194  43.811   0.326
67597W        W40665   1.274   8.369  10.697
67598W        W40666  29.898   3.961  13.792
67599W        W40667   4.475  38.052  12.627
67600W        W40668  39.307   1.773   1.333
67601W        W40669   7.450  44.985  13.594
67602W        W40670  38.791  33.558   1.349
67603W        W40671   3.078  25.059   0.964
67604W        W40672  43.203  42.467   0.134
67605W        W40673   4.837   3.875  12.082
67606W        W40674  21.316  43.603   4.119
67607W        W40675   4.440  43.785  12.604
67608W        W40676  42.505  39.510   4.554
67609W        W40677   6.368  11.082   0.938
67610W        W40678  14.075   1.332   3.196
67611W        W40679  20.775  40.596   0.431
67612W        W40680  36.998  12.639  11.563
67613W        W40681   5.938  17.593   4.575
67614W        W40682  29.834  44.946  12.146
67615W        W40683  29.846   0.466  12.940
67616W        W40684  12.153  19.430  10.030
67617W        W40685  28.787  21.989   3.622
67618W        W40686  28.063  44.684  10.756
67619W        W40687   1.624   4.768  12.981
67620W        W40688  40.807  15.597  14.491
67621W        W40689  15.380  11.900  12.532
67622W        W40690  34.184   4.174  13.868
67623W        W40691  32.023  35.808  10.507
67624W        W40692  42.906   9.958  12.911
67625W        W40693  37.835  21.010   0.046
67626W        W40694  41.651   4.122  13.979
67627W        W40695  18.180  29.975  12.981
67628W        W40696  35.132  31.812   0.394
67629W        W40697  12.496  41.917   3.253
67630W        W40698  11.744  11.230   0.540
67631W        W40699  18.245  19.770  13.855
67632W        W40700  16.688  43.712   0.270
67633W        W40701  43.189  11.966  11.640
67634W        W40702   9.324   9.701  13.100
67635W        W40703   5.890  27.517  13.368
67636W        W40704  42.745  21.626  14.452
67637W        W40705  17.130   8.664  10.595
67638W        W40706  28.103  18.886   2.720
67639W        W40707  35.895  25.705  12.533
67640W        W40708  43.555  13.513  12.429
67641W        W40709  17.101  15.837   4.985
67642W        W40710  44.405  13.872   2.181
67643W        W40711   2.765  34.462   0.281
67644W        W40712  18.797  31.980   0.749
67645W        W40713  35.908  25.222  11.421
67646W        W40714  27.079   3.878  13.043
67647W        W40715  24.104  42.735   0.863
67648W        W40716  39.881  37.851   0.269
67649W        W40717  13.748  38.639   1.799
67650W        W40718  11.603  41.551   0.029
67651W        W40719  26.300  12.070  10.578
67652W        W40720  38.510   1.673   3.721
67653W        W40721  24.018  35.526  10.407
67654W        W40722  20.156  43.870   2.958
67655W        W40723  28.273  11.460   3.777
67656W        W40724  15.440  37.856  11.803
67657W        W40725   4.801  31.212   4.667
67658W        W40726  17.980  43.068  13.870
67659W        W40727  40.453   4.221   1.262
67660W        W40728  41.497   2.387   4.782
67661W        W40729  34.162   6.651   2.943
67662W        W40730  40.551  32.623   0.373
67663W        W40731  43.845   0.332   3.126
67664W        W40732  19.574  13.464  10.561
67665W        W40733  35.055   0.784   4.390
67666W        W40734  41.060   5.708   2.816
67667W        W40735  12.640   3.400   4.765
67668W        W40736   4.514  22.217  14.433
67669W        W40737  31.103   4.932  14.447
67670W        W40738   6.843  38.109   4.200
67671W        W40739   0.797   1.161   0.343
67672W        W40740  15.338  36.610  12.613
67673W        W40741   1.342   3.567   3.162
67674W        W40742  11.831  43.855   4.067
67675W        W40743   8.494  35.205  11.956
67676W        W40744  21.325  39.859  10.716
67677W        W40745   1.346  35.854  13.842
67678W        W40746  32.911  30.004  11.407
67679W        W40747   1.386  28.407   3.789
67680W        W40748  11.144   0.369   3.938
67681W        W40749  12.370  39.743  13.916
67682W        W40750  37.863  13.231  14.417
67683W        W40751  17.818  35.098  10.727
67684W        W40752  31.200  16.640   0.449
67685W        W40753  20.113  32.929  12.569
67686W        W40754   5.561  10.836   4.137
67687W        W40755   2.665  24.380  11.636
67688W        W40756  19.375   8.776   3.845
67689W        W40757   7.760  35.089   5.022
67690W        W40758  28.107  10.807  14.491
67691W        W40759  15.543  28.104   3.195
67692W        W40760  28.225  21.654  13.576
67693W        W40761  11.127   8.720  12.578
67694W        W40762  34.464   2.936  13.049
67695W        W40763   6.891  23.256  13.963
67696W        W40764  30.908  17.376   0.906
67697W        W40765  44.477  34.840  11.148
67698W        W40766  23.071  39.937  12.889
67699W        W40767  33.579  28.649   2.158
67700W        W40768  14.328  30.599   1.296
67701W        W40769  23.169  24.380  14.899
67702W        W40770  39.969  14.506  10.322
67703W        W40771  13.320  42.897   3.282
67704W        W40772  24.477   9.135  14.326
67705W        W40773  29.712  36.009   0.931
67706W        W40774  12.229  33.818  11.838
67707W        W40775  44.351   2.985  11.530
67708W        W40776  11.149  32.516   4.242
67709W        W40777  15.869   4.342   1.405
67710W        W40778  15.269  29.597  14.484
67711W        W40779   4.340  43.553  14.425
67712W        W40780  40.490   6.621  11.491
67713W        W40781   7.144   2.812   0.450
67714W        W40782  36.406  30.904  13.340
67715W        W40783   8.837  40.281   0.261
67716W        W40784  11.714   1.336   4.797
67717W        W40785  35.805  36.480  12.247
67718W        W40786  39.301  18.812   0.706
67719W        W40787   9.175  37.042  13.385
67720W        W40788  27.506  37.695   3.906
67721W        W40789   3.004  43.214  12.083
67722W        W40790  33.620  28.733  12.386
67723W        W40791  18.281  18.190   4.474
67724W        W40792  40.843  19.363  14.285
67725W        W40793  44.599  24.234   4.993
67726W        W40794   5.809  23.705  14.720
67727W        W40795   3.705  41.363  12.373
67728W        W40796  36.679  37.600  12.664
67729W        W40797   5.702   6.789  14.001
67730W        W40798  32.099  28.608  11.639
67731W        W40799  14.698  27.383  13.440
67732W        W40800  24.280  25.143  12.865
67733W        W40801  15.752  11.815   0.264
67734W        W40802  34.706  14.668   3.550
67735W        W40803  16.079  33.173   1.857
67736W        W40804  28.001  15.056   4.156
67737W        W40805  14.245   5.416   0.932
67738W        W40806  19.420  37.464   3.460
67739W        W40807  31.628  26.235   2.827
67740W        W40808   7.865  18.541   1.718
67741W        W40809   8.694  32.391  13.089
67742W        W40810   5.896  22.267   1.362
67743W        W40811  22.070  10.422   1.350
67744W        W40812  42.736   2.152  14.064
67745W        W40813  26.238  30.613  13.851
67746W        W40814  19.148  25.886  14.763
67747W        W40815  35.128  31.171  13.847
67748W        W40816  41.759  16.769  13.410
67749W        W40817  19.849   8.756   1.935
67750W        W40818  22.656  36.896  10.507
67751W        W40819  40.113  15.162  11.562
67752W        W40820  39.002   8.045  12.454
67753W        W40821  10.842  27.166  14.314
67754W        W40822   1.665   9.151   4.196
67755W        W40823  25.997  42.967   0.305
67756W        W40824   7.995  26.124  14.746
67757W        W40825  28.838  33.548  10.815
67758W        W40826   0.371  41.965   0.707
67759W        W40827  25.956  35.049   0.926
67760W        W40828  26.209  41.965  14.121
67761W        W40829  39.265   4.812   2.453
67762W        W40830   6.619  30.983   4.668
67763W        W40831  40.337  40.161  10.693
67764W        W40832  23.688  35.885  14.840
67765W        W40833  13.417  30.469   2.972
67766W        W40834  13.215  29.031  12.094
67767W        W40835  29.161  31.427  13.364
67768W        W40836  18.353  24.450   4.032
67769W        W40837  16.625  28.231  11.094
67770W        W40838  34.666  18.101  11.594
67771W        W40839  14.669   4.001   1.010
67772W        W40840   9.077  43.597   3.730
67773W        W40841  19.951  26.736  12.627
67774W        W40842   0.147  12.354   4.275
67775W        W40843   3.821  33.536   1.025
67776W        W40844  26.691  29.955  14.295
67777W        W40845   9.839  14.738  14.259
67778W        W40846  23.549  21.895  13.314
67779W        W40847  33.994  36.885   1.863
67780W        W40848  36.811   8.899  14.437
67781W        W40849  16.503  13.808  14.913
67782W        W40850  21.046  36.013   1.765
67783W        W40851  39.316  41.579  11.138
67784W        W40852   3.506  34.327  12.995
67785W        W40853   3.829  43.798  10.606
67786W        W40854   6.523  26.681   3.109
67787W        W40855   2.755  13.240   2.305
67788W        W40856  42.823  36.834   1.860
67789W        W40857  20.991  29.444   3.792
67790W        W40858  11.453   0.932  13.998
67791W        W40859  12.597  39.845  13.455
67792W        W40860  14.318  10.162   0.540
67793W        W40861  36.762  22.817  14.487
67794W        W40862  31.063   3.192  12.975
67795W        W40863   1.450  37.443  11.454
67796W        W40864  11.805  13.188  14.896
67797W        W40865  42.436   6.508  13.624
67798W        W40866  44.211   9.624  11.947
67799W        W40867  20.674   8.926   5.097
67800W        W40868  23.118  38.825   2.300
67801W        W40869  17.567  10.797  13.036
67802W        W40870  37.318   6.942   0.459
67803W        W40871  16.299   5.409  11.047
67804W        W40872  34.075  43.845  11.020
67805W        W40873  18.908   3.833   5.014
67806W        W40874  23.652  10.300   4.785
67807W        W40875  25.923   9.872   0.965
67808W        W40876  27.552   2.898   4.595
67809W        W40877  11.265   9.069  11.109
67810W        W40878  34.426   2.013  14.438
67811W        W40879  12.401  15.503  13.578
67812W        W40880  36.462   4.126   3.080
67813W        W40881  11.885  29.469   3.750
67814W        W40882  32.370  41.381  14.334
67815W        W40883   1.847  22.055  11.450
67816W        W40884  31.138  11.634   3.848
67817W        W40885   5.785  37.786  14.912
67818W        W40886   8.732  12.805  13.858
67819W        W40887  29.463  27.914  12.495
67820W        W40888  15.019   5.413   4.093
67821W        W40889   8.572   4.982   0.451
67822W        W40890  17.239  34.006  12.499
67823W        W40891  28.184  32.077   0.204
67824W        W40892  17.791  24.419  13.347
67825W        W40893  43.516  37.981  13.250
67826W        W40894  15.343   5.167   3.747
67827W        W40895   8.157   6.862   3.651
67828W        W40896  20.106   4.281   0.936
67829W        W40897  43.524  10.107   0.347
67830W        W40898  39.920  31.914  12.333
67831W        W40899  41.826  35.051  14.959
67832W        W40900  17.081  19.832  10.020
67833W        W40901   0.856   2.812  11.786
67834W        W40902  10.777  30.838   2.428
67835W        W40903  27.045  24.191  10.689
67836W        W40904  25.584  43.787   1.247
67837W        W40905   0.986  23.601   1.961
67838W        W40906  32.633  12.585  14.318
67839W        W40907   6.724  25.548  10.684
67840W        W40908   5.988  29.441   3.239
67841W        W40909  15.301   2.194   1.945
67842W        W40910  20.291  18.751   0.462
67843W        W40911   5.519  16.507   0.055
67844W        W40912  35.165  27.292  12.586
67845W        W40913  18.615  43.570  14.308
67846W        W40914  41.918  17.982   2.722
67847W        W40915  43.481  35.834   4.499
67848W        W40916  36.630  43.883   4.991
67849W        W40917  26.122  15.798  14.084
67850W        W40918  23.664   0.181   1.427
67851W        W40919  42.711  14.220  12.233
67852W        W40920  30.861  15.496   2.310
67853W        W40921  15.605  12.886   1.766
67854W        W40922  37.008  16.616   2.247
67855W        W40923  30.393  16.549  11.635
67856W        W40924  29.198  22.776   1.348
67857W        W40925  44.808  32.929   4.910
67858W        W40926  22.138   8.861  13.504
67859W        W40927  42.865   9.409   3.572
67860W        W40928   6.260  15.757  13.923
67861W        W40929   5.676  22.233  13.549
67862W        W40930  40.924  42.048   0.557
67863W        W40931  14.636  14.883  14.413
67864W        W40932  25.554   9.414   4.586
67865W        W40933  42.409   3.358   5.157
67866W        W40934  26.536  28.973   4.735
67867W        W40935  38.058  22.655  10.662
67868W        W40936  27.601  10.239  14.723
67869W        W40937  27.641  24.583   1.692
67870W        W40938  32.885  40.357  14.049
67871W        W40939  30.193  13.092   4.298
67872W        W40940  18.329   0.931   2.040
67873W        W40941  36.471  10.808   4.676
67874W        W40942  32.849  31.440   1.378
67875W        W40943  19.288  43.872   4.276
67876W        W40944  42.242  20.132  14.298
67877W        W40945  25.714  14.290   2.342
67878W        W40946   9.641  10.634   4.188
67879W        W40947   8.630  36.812   3.914
67880W        W40948  43.328  19.733  14.837
67881W        W40949  12.764  36.800  12.816
67882W        W40950   7.727   8.430   0.034
67883W        W40951  33.344   6.404  12.460
67884W        W40952  35.423  37.931  12.055
67885W        W40953  39.860  29.649  10.679
67886W        W40954   1.407  23.436   1.698
67887W        W40955  18.857  33.657  10.570
67888W        W40956  33.490  32.430   2.694
67889W        W40957  25.678  27.232  14.351
67890W        W40958  35.889  44.430   0.007
67891W        W40959  43.503  16.290   4.575
67892W        W40960  31.534  23.307  14.138
67893W        W40961   3.290  31.442   1.808
67894W        W40962  17.741  31.556  14.249
67895W        W40963  14.392  20.882  11.338
67896W        W40964   3.898  24.384   4.376
67897W        W40965  35.063  14.226  10.433
67898W        W40966  19.718  30.436   3.886
67899W        W40967  33.035   3.472   3.523
67900W        W40968   9.675   6.243   2.281
67901W        W40969  30.004  22.682  12.173
67902W        W40970  39.302  16.755   4.578
67903W        W40971  31.863  19.500   3.183
67904W        W40972   1.681  38.976  10.112
67905W        W40973   9.843  22.107   2.710
67906W        W40974  30.450  33.111   3.749
67907W        W40975  15.610   6.101   0.876
67908W        W40976  29.896  40.570   1.778
67909W        W40977   5.172  41.421  12.384
67910W        W40978   4.424   8.263   1.094
67911W        W40979  10.667   4.538  12.961
67912W        W40980  40.518  20.032   1.257
67913W        W40981  43.113  32.382   3.879
67914W        W40982  36.982  15.903  12.418
67915W        W40983  28.677  19.577  10.749
67916W        W40984  12.211  30.605   3.182
67917W        W40985  18.440  36.065  11.976
67918W        W40986  34.308  30.429  11.405
67919W        W40987  26.437  15.237   0.354
67920W        W40988  21.760  11.343   1.453
67921W        W40989  38.616  28.013  13.888
67922W        W40990  43.445  31.186  12.959
67923W        W40991  19.133  19.742  13.981
67924W        W40992  19.868  32.119   3.306
67925W        W40993  22.305  39.050  10.593
67926W        W40994   6.157  19.713   5.058
67927W        W40995   4.981  11.333   3.849
67928W        W40996  21.124   5.187  10.821
67929W        W40997  26.189  12.085   4.360
67930W        W40998  16.698   5.195  11.512
67931W        W40999  41.813   2.292   3.057
67932W        W41000  11.075  27.420   1.367
67933W        W41001  27.119   5.851   3.100
67934W        W41002  38.461  20.006  11.194
67935W        W41003   6.655  24.486  10.654
67936W        W41004  43.183  10.196  13.829
67937W        W41005   3.373  30.906   1.869
67938W        W41006  42.996   3.046   2.175
67939W        W41007  27.168  44.400  13.014
67940W        W41008   5.692  16.832   1.388
67941W        W41009  35.922  44.941   1.769
67942W        W41010  37.104  35.626   0.827
67943W        W41011  42.858  30.442   4.669
67944W        W41012  36.905  19.242  12.560
67945W        W41013  22.571  41.235  11.836
67946W        W41014  33.057  35.770   2.411
67947W        W41015  30.540  33.775  12.496
67948W        W41016  12.318   1.758   2.002
67949W        W41017   7.028   7.972   2.909
67950W        W41018  31.584  43.815   3.016
67951W        W41019  36.099  25.427  13.877
67952W        W41020  30.701  31.405   0.398
67953W        W41021  24.622   4.334   0.981
67954W        W41022  43.206   2.861  11.063
67955W        W41023  36.993  35.706  14.996
67956W        W41024  24.026   4.496   3.297
67957W        W41025  29.507  17.184  14.231
67958W        W41026  11.340  30.077   0.407
67959W        W41027  26.427  24.039   5.045
67960W        W41028  28.823  10.707   5.035
67961W        W41029   6.717  20.254   3.236
67962W        W41030  22.969   6.380   3.822
67963W        W41031  14.655   9.868  11.150
67964W        W41032  44.014  34.690  10.939
67965W        W41033  24.975  22.712   4.643
67966W        W41034   4.969  29.983  10.746
67967W        W41035  28.695  27.048  12.946
67968W        W41036   6.843  35.100  13.168
67969W        W41037  25.019  12.832  11.072
67970W        W41038  25.965   4.447   0.279
67971W        W41039  21.145  26.772  12.133
67972W        W41040   0.119   1.347   4.777
67973W        W41041  20.738  28.628  11.247
67974W        W41042  27.939  10.685   3.299
67975W        W41043  30.731  32.593   1.277
67976W        W41044  31.337  13.067  11.580
67977W        W41045  22.535  12.396   1.844
67978W        W41046  29.999   9.351   3.179
67979W        W41047  38.442  36.954   3.934
67980W        W41048  30.937   2.261   4.136
67981W        W41049  34.507  35.000  12.647
67982W        W41050  20.744  30.425   4.123
67983W        W41051  10.772  17.615  11.150
67984W        W41052  19.632  19.110  14.645
67985W        W41053   5.835   8.621   0.738
67986W        W41054   4.369   1.189   0.764
67987W        W41055  18.791  39.094  11.082
67988W        W41056  22.105  10.449   0.038
67989W        W41057  25.966  14.470  12.038
67990W        W41058  43.828  36.983  10.655
67991W        W41059   1.900  39.323   2.334
67992W        W41060  18.761  36.512  13.389
67993W        W41061  28.023   0.558  13.706
67994W        W41062  25.262  19.233   0.705
67995W        W41063  29.113  27.856   4.351
67996W        W41064  22.084   6.788  10.799
67997W        W41065  43.008   1.916   0.874
67998W        W41066  18.300  25.436   0.808
67999W        W41067   2.956  36.909  11.118
68000W        W41068  34.115   0.021   3.679
68001W        W41069  34.980  12.272  10.668
68002W        W41070  20.858   9.764  10.524
68003W        W41071  30.515  13.977   2.209
68004W        W41072  17.135  19.752   2.697
68005W        W41073  28.673  38.536  14.628
68006W        W41074  13.110  27.139  11.588
68007W        W41075  12.293  42.770   3.335
68008W        W41076  10.814  17.378   3.627
68009W        W41077  21.657  11.521  10.503
68010W        W41078  31.136  23.961  11.045
68011W        W41079   2.518  23.592   3.719
68012W        W41080  31.122   3.603   3.138
68013W        W41081   2.944   2.990   0.856
68014W        W41082  15.568  27.550   4.122
68015W        W41083  11.082   5.940   4.102
68016W        W41084  21.894   8.819   4.488
68017W        W41085  25.538  21.323   4.172
68018W        W41086  12.816   0.319  11.906
68019W        W41087  44.470  35.652  10.620
68020W        W41088  33.854  30.634  13.887
68021W        W41089  36.539  42.482  12.949
68022W        W41090  25.139  21.973  13.758
68023W        W41091   4.161  13.636  11.115
68024W        W41092   6.313   2.390  12.575
68025W        W41093   8.273  30.135  14.373
68026W        W41094  22.063  35.510   2.761
68027W        W41095  19.500  25.473  13.931
68028W        W41096  15.174   9.786   3.173
68029W        W41097  35.921  37.786   4.310
68030W        W41098  15.589  26.621  11.586
68031W        W41099   6.294  12.028   1.881
68032W        W41100  21.744   2.254  13.931
68033W        W41101  17.767  31.015   4.459
68034W        W41102  20.255  30.419  10.584
68035W        W41103  29.145   7.861   3.094
68036W        W41104  15.514  27.223  13.346
68037W        W41105   3.687   7.722   1.307
68038W        W41106  21.097   8.327   4.555
68039W        W41107   9.684  31.298  14.281
68040W        W41108   0.832  16.833   0.359
68041W        W41109  31.367  40.803  12.875
68042W        W41110   0.618   2.496   0.495
68043W        W41111  10.710  24.442  13.786
68044W        W41112  37.358  38.331  11.510
68045W        W41113  24.131   3.484   2.507
68046W        W41114  24.244  16.417  13.963
68047W        W41115  40.136  34.141  12.298
68048W        W41116  20.982  32.013   4.447
68049W        W41117  24.239  11.753   3.250
68050W        W41118  15.725  31.184  14.747
68051W        W41119  30.100  24.706   2.689
68052W        W41120   9.190  18.575  11.368
68053W        W41121  37.556  43.296  13.680
68054W        W41122  41.873   9.409  11.290
68055W        W41123  43.439  22.756   3.169
68056W        W41124  35.123  32.943   1.106
68057W        W41125   8.243  24.082   0.400
68058W        W41126  25.212   1.899  11.622
68059W        W41127   4.555  41.802   3.061
68060W        W41128  14.385  14.848  12.451
68061W        W41129  29.149   0.997   3.571
68062W        W41130  19.794  25.516   1.757
68063W        W41131   0.804  15.656   4.692
68064W        W41132  44.263   6.882  11.637
68065W        W41133  26.008  33.254   0.026
68066W        W41134  33.452   3.725  14.609
68067W        W41135  12.288  10.858   0.679
68068W        W41136   8.644  32.136  10.970
68069W        W41137  34.995  44.363   5.010
68070W        W41138   6.950  19.467   2.811
68071W        W41139  30.165  37.430  13.543
68072W        W41140   3.783  39.086   4.249
68073W        W41141  27.545  31.604  14.353
68074W        W41142  23.204  16.901   2.020
68075W        W41143  43.807  26.384   0.035
68076W        W41144   9.318   5.296   2.164
68077W        W41145  37.459  36.902   4.388
68078W        W41146  37.933  34.082   2.718
68079W        W41147  30.591  44.976  13.299
68080W        W41148  18.677  22.236   3.909
68081W        W41149  11.393  41.870  13.477
68082W        W41150  41.420   9.427   0.056
68083W        W41151  17.985   6.912   1.707
68084W        W41152   2.824   9.222  12.601
68085W        W41153  28.609  31.407   2.665
68086W        W41154   2.267  10.692   1.292
68087W        W41155  20.627  21.153  13.538
68088W        W41156  34.598  26.662   0.936
68089W        W41157  19.793  23.618   4.701
68090W        W41158  42.552  24.565   3.313
68091W        W41159  26.061  11.329  12.935
68092W        W41160  30.964  12.755  13.968
68093W        W41161  28.863  35.563   2.248
68094W        W41162  28.662  40.115  11.676
68095W        W41163   9.189  29.224  12.578
68096W        W41164  10.833  20.138   1.507
68097W        W41165  17.629   3.717   1.339
68098W        W41166  24.401   3.792   1.217
68099W        W41167   9.678  27.928   1.760
68100W        W41168  43.496  10.459  10.746
68101W        W41169  17.090  42.728   3.749
68102W        W41170  27.730   2.275  13.846
68103W        W41171  28.128  21.675  14.142
68104W        W41172  33.770  31.784  13.392
68105W        W41173  17.683  36.666  12.553
68106W        W41174  33.975  29.046   0.754
68107W        W41175  33.400   3.446  12.163
68108W        W41176  10.096   4.922   3.213
68109W        W41177  16.432  33.963  10.785
68110W        W41178  18.993   4.426   2.281
68111W        W41179  41.582  21.442  11.142
68112W        W41180  36.546  43.820   4.325
68113W        W41181  41.866  19.101   0.816
68114W        W41182  24.006  35.386   4.598
68115W        W41183  25.891   1.029  10.773
68116W        W41184  23.900  15.077  13.407
68117W        W41185  43.841  41.490   1.509
68118W        W41186   0.005   5.380  14.433
68119W        W41187  40.456  18.079  10.680
68120W        W41188   2.304  12.154   3.236
68121W        W41189   5.884  24.256  13.460
68122W        W41190  32.902  13.080  12.959
68123W        W41191   2.687   3.295   2.671
68124W        W41192   7.893  10.990  13.949
68125W        W41193   1.425  17.987  12.424
68126W        W41194  26.229  28.249   1.777
68127W        W41195  22.675   1.008  13.378
68128W        W41196  11.849   6.167  13.708
68129W        W41197  12.245  23.513  14.156
68130W        W41198  17.014  39.848  14.781
68131W        W41199   9.820  21.467   0.253
68132W        W41200  18.526  37.353   3.249
68133W        W41201  37.920  31.066   1.387
68134W        W41202  25.348  25.578  11.408
68135W        W41203  37.882  35.353  14.412
68136W        W41204  37.298  44.967  14.978
68137W        W41205  25.737  36.050   4.463
68138W        W41206   1.477  23.113  13.305
68139W        W41207  30.105  17.269   3.279
68140W        W41208  13.620  42.881  14.493
68141W        W41209  25.707  15.239   1.670
68142W        W41210  31.084  39.296  10.688
68143W        W41211  17.431   3.335   1.941
68144W        W41212  44.478  19.487   1.147
68145W        W41213  32.626  10.023  12.021
68146W        W41214  28.053  21.161   2.427
68147W        W41215   2.381  29.986  13.414
68148W        W41216  41.129   4.212   1.699
68149W        W41217   6.996  40.991   4.992
68150W        W41218  37.141  31.547  12.076
68151W        W41219  34.329  14.337   4.186
68152W        W41220  26.283  34.557   0.186
68153W        W41221  28.662   4.185   1.216
68154W        W41222  19.220  24.152  12.838
68155W        W41223  36.823  35.159   2.343
68156W        W41224  43.508   6.934  14.377
68157W        W41225  28.221  12.205  10.648
68158W        W41226  12.619  17.197   0.882
68159W        W41227  20.756  15.775  14.943
68160W        W41228  39.819  30.605  12.987
68161W        W41229   7.269  31.713   0.318
68162W        W41230  20.297  42.873  11.078
68163W        W41231  19.377  19.378  11.195
68164W        W41232  37.110  41.390  13.742
68165W        W41233  29.030   9.810  13.968
68166W        W41234  15.827   8.193  11.499
68167W        W41235  14.628   5.491   0.565
68168W        W41236  13.166  27.747  10.635
68169W        W41237   0.345   6.856   2.940
68170W        W41238  43.854  24.520  13.774
68171W        W41239   1.720  36.423   4.188
68172W        W41240  30.054  11.766  13.805
68173W        W41241   6.477  17.699   1.992
68174W        W41242  37.760  36.661   2.821
68175W        W41243  36.220  13.122   0.756
68176W        W41244  10.259  23.423  10.695
68177W        W41245  11.365  36.430  14.902
68178W        W41246  22.995  15.582  10.518
68179W        W41247  23.029  21.889  12.154
68180W        W41248  18.747   2.277   2.874
68181W        W41249  26.126  18.756  14.357
68182W        W41250  31.866  23.131  13.797
68183W        W41251  37.404   5.647   2.986
68184W        W41252  36.473  12.051  14.914
68185W        W41253  15.114  37.605   2.478
68186W        W41254  15.180  27.773   1.909
68187W        W41255  35.584  18.179   0.772
68188W        W41256  22.940  14.530   0.844
68189W        W41257  36.057  24.425   2.625
68190W        W41258  30.555  27.395  14.090
68191W        W41259  25.717   3.273   0.060
68192W        W41260  25.955  24.914  13.931
68193W        W41261  16.977  33.490   5.031
68194W        W41262   9.202  39.991   2.388
68195W        W41263  14.096  41.938   0.413
68196W        W41264  32.586  31.876   2.781
68197W        W41265  14.627  14.333  12.105
68198W        W41266  22.663  20.215  11.083
68199W        W41267  37.636  24.696   4.657
68200W        W41268  25.821  25.675  11.569
68201W        W41269  41.041  23.799   2.293
68202W        W41270   4.510  32.684   4.265
68203W        W41271  24.691  24.884   1.963
68204W        W41272   2.350  10.608  11.496
68205W        W41273  33.067  40.001   4.566
68206W        W41274  38.263  44.902  10.172
68207W        W41275  33.093  30.080  14.935
68208W        W41276   0.787   9.292  11.406
68209W        W41277   9.483  44.373  11.152
68210W        W41278  12.410   0.912  13.919
68211W        W41279   2.890  29.271  10.386
68212W        W41280  11.557  39.569  11.206
68213W        W41281  35.920  31.941  11.154
68214W        W41282  41.879   0.177   4.131
68215W        W41283   1.226  14.358  12.944
68216W        W41284   9.611   9.360  11.029
68217W        W41285  20.081  39.840   0.348
68218W        W41286   3.554   8.641  11.133
68219W        W41287  13.306  36.860   1.950
68220W        W41288  44.337  27.459  10.869
68221W        W41289   2.811   0.048   2.716
68222W        W41290  21.704  14.386  14.363
68223W        W41291  16.552  39.728   2.301
68224W        W41292  10.865   2.721  14.232
68225W        W41293  43.763  13.187   1.995
68226W        W41294   3.487  19.172  11.058
68227W        W41295  32.367  10.413  11.069
68228W        W41296   0.279  18.116  10.762
68229W        W41297   9.725  37.443   1.460
68230W        W41298  17.751   0.724  11.928
68231W        W41299  29.510  14.299  14.538
68232W        W41300   0.525   0.900   2.845
68233W        W41301   5.673  44.574  12.498
68234W        W41302  36.954  28.359  12.097
68235W        W41303  35.501  16.171  13.072
68236W        W41304  11.876  42.954   1.215
68237W        W41305  19.570  16.318  11.165
68238W        W41306  24.892  27.010   3.592
68239W        W41307  16.638  23.279  11.644
68240W        W41308  43.444  33.256   3.497
68241W        W41309   9.147  35.841  11.352
68242W        W41310  19.279   9.184  11.546
68243W        W41311  10.096  32.089   1.363
68244W        W41312   9.555   5.464  11.648
68245W        W41313  36.398  35.805  10.702
68246W        W41314  12.757  19.493   1.432
68247W        W41315  40.835   1.321   2.309
68248W        W41316  39.311  29.024  11.890
68249W        W41317  13.864  42.938  10.660
68250W        W41318  20.164   0.611   1.425
68251W        W41319  41.896  27.488  10.783
68252W        W41320   8.694  36.005   4.851
68253W        W41321  43.854  30.613  10.678
68254W        W41322  33.949   8.916  14.769
68255W        W41323  29.694  26.924  14.051
68256W        W41324  32.504  35.553  10.558
68257W        W41325   1.032  41.094  14.810
68258W        W41326   7.754  41.148   1.742
68259W        W41327   7.823  38.988   4.108
68260W        W41328  22.995  34.208   0.710
68261W        W41329  29.730  34.616  10.802
68262W        W41330   0.526  11.064   1.205
68263W        W41331  43.016  21.048   4.515
68264W        W41332  35.833  23.685   2.311
68265W        W41333  21.650  24.409   0.344
68266W        W41334  18.730  35.034   3.297
68267W        W41335  11.438  41.983   1.249
68268W        W41336  18.796  14.296  12.488
68269W        W41337  26.456  39.429   1.183
68270W        W41338  11.345  24.590   0.946
68271W        W41339  44.887  35.185  14.006
68272W        W41340  30.841   7.189  13.046
68273W        W41341   1.251  22.273   4.484
68274W        W41342  20.704  23.002  14.390
68275W        W41343  30.987   2.494   0.814
68276W        W41344  18.171  14.287   4.408
68277W        W41345  18.321  22.181   0.040
68278W        W41346  28.697   2.384  13.902
68279W        W41347  11.097  21.581  10.467
68280W        W41348  15.038  43.136  13.513
68281W        W41349  13.665  20.042  11.305
68282W        W41350   7.630  23.049  10.305
68283W        W41351   8.842  26.960  12.516
68284W        W41352  39.988   1.348  12.860
68285W        W41353  36.689  26.037   1.367
68286W        W41354  30.330  15.355   2.231
68287W        W41355  35.591  28.036   2.813
68288W        W41356  18.191  33.131   4.620
68289W        W41357  21.035  41.910  14.464
68290W        W41358  18.991  20.787   0.302
68291W        W41359  20.459  30.141   2.847
68292W        W41360  29.601  42.354   4.568
68293W        W41361   6.626  40.048  14.078
68294W        W41362  31.955  16.205  14.458
68295W        W41363  11.582  29.599   2.404
68296W        W41364  30.399   1.869  14.377
68297W        W41365   6.504   6.728   3.182
68298W        W41366  11.688  28.842  11.127
68299W        W41367   6.447   4.298  10.455
68300W        W41368  15.349  32.152   0.699
68301W        W41369  34.882  29.099   3.336
68302W        W41370  12.682   3.893  10.484
68303W        W41371  39.066  22.285   2.370
68304W        W41372   4.945  19.550  11.553
68305W        W41373  33.914  33.165   2.667
68306W        W41374  32.989  30.594  14.771
68307W        W41375  43.074  21.134   3.542
68308W        W41376  36.010   2.189   2.424
68309W        W41377  29.821  43.851   3.396
68310W        W41378  43.520  22.219  12.038
68311W        W41379  37.112   6.162  11.951
68312W        W41380  38.033  27.174   0.721
68313W        W41381  37.090  36.625   0.308
68314W        W41382  16.724   6.133   3.369
68315W        W41383  35.501  31.198  14.476
68316W        W41384  23.993   6.200  13.042
68317W        W41385   2.850  22.622  14.758
68318W        W41386   4.858  25.135   3.858
68319W        W41387  25.147  22.703  11.054
68320W        W41388  11.159  22.589   2.009
68321W        W41389  43.429  25.017   1.049
68322W        W41390  23.926  36.357  10.559
68323W        W41391  15.809  19.882  11.003
68324W        W41392  35.363  12.661  14.322
68325W        W41393  19.325  37.899   3.205
68326W        W41394  17.506  25.092  12.110
68327W        W41395   1.898   7.077  14.961
68328W        W41396  15.777  24.542   0.202
68329W        W41397  42.949  15.779  10.070
68330W        W41398   4.340  21.479  12.077
68331W        W41399  36.789  36.023  12.865
68332W        W41400  34.204  29.166   1.642
68333W        W41401  12.071  24.965  13.558
68334W        W41402  40.673   6.897   4.174
68335W        W41403   2.427  18.390   3.881
68336W        W41404  28.406  15.741   1.804
68337W        W41405  27.410  29.641   1.867
68338W        W41406  37.898  18.022   3.815
68339W        W41407   5.296  15.006   3.313
68340W        W41408  22.665  32.189  13.489
68341W        W41409  37.809   8.391   1.899
68342W        W41410  40.469  26.595   4.651
68343W        W41411  38.383   7.164   0.766
68344W        W41412  44.967  39.845   4.181
68345W        W41413   0.522  16.183   0.824
68346W        W41414  22.715   8.764   0.991
68347W        W41415  13.508  15.112   0.702
68348W        W41416   7.260  33.509  13.747
68349W        W41417  34.005   6.211   4.263
68350W        W41418  23.720  25.626   3.862
68351W        W41419   8.851  17.712  14.747
68352W        W41420   2.289  12.775   2.794
68353W        W41421   2.344  30.176  12.942
68354W        W41422  43.969  17.181  11.117
68355W        W41423  21.404  12.864  12.503
68356W        W41424  38.765   3.807   2.155
68357W        W41425  13.369   0.336  11.951
68358W        W41426  26.309  10.852   1.233
68359W        W41427  44.313   5.088   3.710
68360W        W41428   6.210  30.229  12.031
68361W        W41429  18.310  34.595  14.944
68362W        W41430   6.733   8.989   0.880
68363W        W41431   6.494   3.748  10.850
68364W        W41432   3.725  44.400   2.865
68365W        W41433  23.634  32.545  14.856
68366W        W41434   6.923   0.061  11.154
68367W        W41435   9.543  23.596   4.202
68368W        W41436  42.369  12.035  14.566
68369W        W41437  16.307  19.792  11.063
68370W        W41438   7.936   4.320  13.989
68371W        W41439  31.111  31.024   2.300
68372W        W41440  42.017  30.493  14.184
68373W        W41441  28.370  12.709  10.748
68374W        W41442  23.432  20.171  14.759
68375W        W41443  11.559   9.897   0.717
68376W        W41444  21.568  28.533  10.645
68377W        W41445  17.330   1.837  12.075
68378W        W41446  37.242  30.065   3.822
68379W        W41447  39.954  12.591  11.663
68380W        W41448   5.859  18.306   0.483
68381W        W41449  28.835  21.897   1.225
68382W        W41450  10.850  37.953   1.307
68383W        W41451  21.209  27.686  10.646
68384W        W41452   7.157   2.321  11.178
68385W        W41453  29.659  34.727  12.051
68386W        W41454  43.252   5.563   0.568
68387W        W41455  38.746  12.083  14.442
68388W        W41456  44.865  37.097   4.286
68389W        W41457  33.603  34.752   4.871
68390W        W41458  16.350  32.308   2.585
68391W        W41459  33.616  35.909  13.523
68392W        W41460  22.973  35.032  12.581
68393W        W41461   2.409  11.344  12.069
68394W        W41462  29.525  43.297   0.819
68395W        W41463  27.991  28.688   3.923
68396W        W41464  15.311  39.036  14.138
68397W        W41465  23.150   2.496   3.719
68398W        W41466  19.786  40.393   1.374
68399W        W41467  35.123  29.570   4.671
68400W        W41468  34.555  36.506  11.538
68401W        W41469  17.053   5.197  12.896
68402W        W41470  26.103  30.133   0.771
68403W        W41471  12.706  16.091   1.244
68404W        W41472  37.036   0.893  13.843
68405W        W41473  27.503  30.456   0.466
68406W        W41474  11.899  29.326   1.087
68407W        W41475  11.448  20.410  11.917
68408W        W41476   4.944  20.564   1.318
68409W        W41477  14.235  21.209   4.739
68410W        W41478  12.596  27.325  12.884
68411W        W41479  15.679  26.423   0.833
68412W        W41480   0.791  43.136  10.320
68413W        W41481  18.151  44.258   3.676
68414W        W41482  18.147   2.939   0.303
68415W        W41483  32.586  43.356   3.692
68416W        W41484  30.703  35.630   2.789
68417W        W41485  29.765  13.881   1.160
68418W        W41486  34.716  34.137   4.545
68419W        W41487  28.716   7.611   4.514
68420W        W41488  16.175  31.005   3.233
68421W        W41489   9.289  39.183  11.656
68422W        W41490  22.162  30.132   3.775
68423W        W41491   7.954   4.766  14.313
68424W        W41492   9.233  14.446  11.195
68425W        W41493  13.586   7.801  13.853
68426W        W41494  25.138  29.438   3.261
68427W        W41495  17.808   4.803   1.766
68428W        W41496  19.258  12.627   0.322
68429W        W41497  35.106   8.696  12.900
68430W        W41498   9.472  38.622   4.119
68431W        W41499  15.295  30.833   4.449
68432W        W41500  13.850  41.747  10.673
68433W        W41501  26.409  31.088  10.676
68434W        W41502   2.963  29.789   0.917
68435W        W41503  23.691   3.644  10.453
68436W        W41504  28.522  39.780   4.682
68437W        W41505  23.443  31.621  12.606
68438W        W41506  17.689   0.454   2.396
68439W        W41507  15.991   0.730  10.867
68440W        W41508   0.807  37.641  12.997
68441W        W41509  29.855   0.018   0.693
68442W        W41510   6.044  18.415  10.154
68443W        W41511  37.325   7.962   1.447
68444W        W41512  39.538  22.732   3.488
68445W        W41513  13.826  10.263  14.516
68446W        W41514  28.101  35.057  10.457
68447W        W41515  33.039   8.901   2.312
68448W        W41516  40.775  40.677   2.376
68449W        W41517  37.126   2.814   3.613
68450W        W41518  15.341  43.488  14.410
68451W        W41519  24.528  27.991   3.362
68452W        W41520  12.274  21.485   2.778
68453W        W41521   2.400  15.080   3.235
68454W        W41522   9.884  44.465   0.350
68455W        W41523  12.109   1.773   3.383
68456W        W41524   4.884  28.094   4.105
68457W        W41525   8.170  27.352  11.134
68458W        W41526   7.946  20.693   0.754
68459W        W41527  32.408  40.030   1.195
68460W        W41528  15.363   1.335  12.472
68461W        W41529  19.516  32.354   3.610
68462W        W41530  42.601  44.496  13.517
68463W        W41531  28.163   7.421  12.499
68464W        W41532  32.121  20.085  14.839
68465W        W41533  12.273  21.843   4.146
68466W        W41534  17.455  27.176   2.358
68467W        W41535  44.933  42.394   3.663
68468W        W41536  10.943  42.517   2.281
68469W        W41537   1.114   6.188   3.793
68470W        W41538  13.212  25.600  12.797
68471W        W41539   6.212  14.603  10.450
68472W        W41540  38.127  33.370  12.956
68473W        W41541  35.118   9.924  13.304
68474W        W41542  42.755  25.466  12.517
68475W        W41543  14.834   7.416   3.886
68476W        W41544  13.421  39.000  10.965
68477W        W41545  22.753  33.891   4.643
68478W        W41546  41.056  21.798  13.252
68479W        W41547  32.037  12.631  13.137
68480W        W41548   8.298  39.869  11.516
68481W        W41549  16.407  34.814   1.837
68482W        W41550  39.781  19.785  12.900
68483W        W41551  23.728  18.031  13.385
68484W        W41552  19.716  15.978  11.692
68485W        W41553  14.145  20.207  11.954
68486W        W41554   3.756  35.015  11.119
68487W        W41555  16.033  35.139   1.696
68488W        W41556  32.084  22.780   4.558
68489W        W41557  20.249  12.616  11.052
68490W        W41558  39.845  23.483   0.866
68491W        W41559  41.035  33.391   1.216
68492W        W41560  11.282  15.865   0.258
68493W        W41561  41.020  28.725   0.495
68494W        W41562  43.329  10.218   2.654
68495W        W41563   8.678  11.236   1.260
68496W        W41564  30.737  26.463  11.500
68497W        W41565   2.015  17.121   2.289
68498W        W41566  28.221   7.650  14.292
68499W        W41567  41.183  30.498  14.933
68500W        W41568   2.992  18.345   2.241
68501W        W41569  12.952  33.454  11.185
68502W        W41570  35.866  42.252  13.156
68503W        W41571  35.084  22.386   1.762
68504W        W41572  23.679  26.127   4.614
68505W        W41573  29.033   1.203  10.507
68506W        W41574  10.661  24.450   1.966
68507W        W41575  21.304   7.667  11.145
68508W        W41576  18.570  25.001  12.199
68509W        W41577   8.373  11.429   1.868
68510W        W41578  16.625  20.708  12.001
68511W        W41579   6.915  19.565   0.949
68512W        W41580  18.923   0.761   4.199
68513W        W41581  31.956  38.064  12.994
68514W        W41582  12.345  20.581  11.574
68515W        W41583  42.578  18.503  12.435
68516W        W41584  26.305  12.309   3.903
68517W        W41585   5.154  23.163  12.886
68518W        W41586   7.366  39.444   4.726
68519W        W41587  30.644  16.696  12.144
68520W        W41588  25.063  29.126  14.227
68521W        W41589  29.633  44.467   1.641
68522W        W41590  33.862  21.942  11.490
68523W        W41591  12.633  13.089   1.117
68524W        W41592  39.963  21.485  10.717
68525W        W41593  22.228   4.906   4.971
68526W        W41594  11.724  34.688  14.435
68527W        W41595  13.537  44.035   3.665
68528W        W41596  21.605  33.963   3.238
68529W        W41597   3.285  12.287  11.010
68530W        W41598   9.734  33.805   2.313
68531W        W41599  24.842   1.667  14.982
68532W        W41600  23.125   8.151   0.494
68533W        W41601  19.688  25.845  14.952
68534W        W41602  24.238  43.561  11.116
68535W        W41603  44.958  17.248   3.222
68536W        W41604  20.047  34.772  10.423
68537W        W41605  17.148   1.488   1.842
68538W        W41606  27.912   2.066  14.329
68539W        W41607   8.151  34.137   3.413
68540W        W41608  35.599  24.735   0.899
68541W        W41609  31.149   2.338  12.514
68542W        W41610  28.231  35.254  11.964
68543W        W41611  18.694  12.637  14.959
68544W        W41612  23.839  43.916  13.167
68545W        W41613   1.078  41.753  13.620
68546W        W41614  18.569  13.257  13.244
68547W        W41615   7.806  16.339  10.547
68548W        W41616  29.710  16.136  13.003
68549W        W41617  25.601  14.071  10.580
68550W        W41618   4.925  37.943   4.907
68551W        W41619  41.375   7.244  12.864
68552W        W41620  31.901  15.012   0.469
68553W        W41621  18.500  30.487   1.905
68554W        W41622   1.424  22.447   1.709
68555W        W41623  39.460  14.551   1.777
68556W        W41624   4.264  42.305  13.899
68557W        W41625   5.459  27.658   1.222
68558W        W41626  12.456  40.592  12.389
68559W        W41627   0.881  10.051   4.171
68560W        W41628  22.416  35.418  13.395
68561W        W41629  44.317   9.145   0.508
68562W        W41630  35.147  36.863   0.776
68563W        W41631   7.735   9.472   3.006
68564W        W41632  42.737   1.514   3.350
68565W        W41633  30.396   7.661  14.910
68566W        W41634  35.475   0.715  13.980
68567W        W41635   8.218   1.449   0.887
68568W        W41636   9.918  12.500   4.703
68569W        W41637   8.482  36.409  11.542
68570W        W41638  22.173  24.634   0.565
68571W        W41639  35.245   2.955   1.269
68572W        W41640  35.407  28.614   1.213
68573W        W41641   1.437  43.874   1.232
68574W        W41642  16.777  31.335   4.740
68575W        W41643  31.903  41.481   1.202
68576W        W41644   5.779  42.585   1.413
68577W        W41645  44.976  20.635  10.522
68578W        W41646  37.614  38.112   1.617
68579W        W41647  36.057  16.436   0.258
68580W        W41648  40.633   5.761  14.263
68581W        W41649  38.701  32.510  14.059
68582W        W41650  25.744  20.742   2.178
68583W        W41651  40.997  44.067  14.764
68584W        W41652   8.158   4.242   1.537
68585W        W41653  27.399   8.825   1.747
68586W        W41654  29.110  41.736   3.170
68587W        W41655   6.902   9.726   3.230
68588W        W41656   1.526  36.069  12.758
68589W        W41657  41.278  38.058  13.977
68590W        W41658  42.805  37.481  14.689
68591W        W41659  42.018  12.627  11.010
68592W        W41660  23.047  40.815  11.045
68593W        W41661  24.825  16.545   1.641
68594W        W41662  27.957  35.676   4.193
68595W        W41663  30.892  32.869   4.669
68596W        W41664  28.785  42.569  12.464
68597W        W41665  21.221   3.887  12.811
68598W        W41666  21.535  16.121  13.431
68599W        W41667  20.757   7.108  13.982
68600W        W41668  43.722  31.117  14.342
68601W        W41669  40.100   5.792   2.429
68602W        W41670  10.762  11.675   3.578
68603W        W41671  13.157  33.907   4.772
68604W        W41672   5.405  11.924   3.888
68605W        W41673  15.982  11.748  10.632
68606W        W41674  10.394  26.104   4.629
68607W        W41675  13.616  23.984  13.819
68608W        W41676  29.025  39.719   3.586
68609W        W41677   7.394  27.168   1.759
68610W        W41678   8.182  25.646  11.685
68611W        W41679  18.848   6.378  12.489
68612W        W41680  33.947  22.992  12.344
68613W        W41681  31.834  28.748   4.183
68614W        W41682  16.532  30.138  12.496
68615W        W41683  12.403   9.411   4.102
68616W        W41684  23.565  27.013  14.236
68617W        W41685  21.974  36.454   4.740
68618W        W41686   8.411  10.943   3.133
68619W        W41687  37.071  43.837  10.695
68620W        W41688  19.548   0.654  10.258
68621W        W41689   3.438  10.720  14.571
68622W        W41690  35.592  25.259  10.605
68623W        W41691  20.269  40.342   3.621
68624W        W41692  20.078  44.732   4.600
68625W        W41693   9.691  16.327  12.591
68626W        W41694  35.706   6.739   2.401
68627W        W41695  28.939   9.758   0.564
68628W        W41696  26.064  36.967   0.193
68629W        W41697  12.375  13.966   3.740
68630W        W41698   2.303  11.567   1.251
68631W        W41699  26.096  27.232  14.976
68632W        W41700  11.338   4.682  12.114
68633W        W41701   9.669  30.944   2.253
68634W        W41702  41.432  22.241  13.333
68635W        W41703   6.860  35.720  12.367
68636W        W41704  16.259  37.828  14.738
68637W        W41705  20.087  23.135  13.050
68638W        W41706  32.682  12.252  13.469
68639W        W41707  37.993  24.197   3.745
68640W        W41708  27.556   8.403   2.627
68641W        W41709  42.414  17.096  10.777
68642W        W41710  11.356  36.217   2.154
68643W        W41711  43.999  31.428  11.607
68644W        W41712  20.732  40.734  10.577
68645W        W41713  31.713  16.570   1.800
68646W        W41714  30.048  27.906   4.571
68647W        W41715  23.068  44.744  12.608
68648W        W41716  25.661  11.630   4.037
68649W        W41717  23.264  28.742   3.826
68650W        W41718  44.034  36.940   3.276
68651W        W41719  42.303  34.608  11.197
68652W        W41720  31.519   2.204   3.287
68653W        W41721  15.338   8.771  10.831
68654W        W41722  24.257  15.825  14.418
68655W        W41723   6.208   8.002   4.136
68656W        W41724  30.029  42.322   0.458
68657W        W41725   2.911  16.286  13.018
68658W        W41726  15.331  20.831   3.828
68659W        W41727  42.071  16.672   2.157
68660W        W41728   4.226  43.011   2.379
68661W        W41729  43.767  27.750  14.361
68662W        W41730  44.391  28.956  14.766
68663W        W41731   6.920   4.906  14.405
68664W        W41732  20.056  27.479  11.516
68665W        W41733  21.189  33.303  13.044
68666W        W41734  42.655  37.521  11.126
68667W        W41735  37.595  35.028  10.640
68668W        W41736  36.515  42.896  13.948
68669W        W41737  36.294  20.980  11.166
68670W        W41738   5.222  40.771  14.417
68671W        W41739  16.158   1.689  12.986
68672W        W41740  28.065  15.781   9.977
68673W        W41741  21.704  32.336  11.060
68674W        W41742  32.492  22.490  10.605
68675W        W41743  40.350  22.155   2.800
68676W        W41744  10.809  36.940  11.808
68677W        W41745  30.320  26.496  11.197
68678W        W41746   1.746  30.566   2.744
68679W        W41747  36.646  20.565  13.932
68680W        W41748  11.924  30.608   1.755
68681W        W41749  40.621  30.469  13.500
68682W        W41750  11.679  16.173  14.484
68683W        W41751  34.590  35.121   4.192
68684W        W41752  19.903  17.871  14.507
68685W        W41753  22.452  34.457   2.355
68686W        W41754  27.017  43.481   1.064
68687W        W41755  22.579  28.995   4.402
68688W        W41756  38.603  17.524  14.296
68689W        W41757  35.558   8.275  12.400
68690W        W41758   2.350  19.514  14.952
68691W        W41759  10.370  14.831   3.333
68692W        W41760  23.538  42.943  12.993
68693W        W41761  17.559   0.988   3.599
68694W        W41762  27.620  18.341   3.611
68695W        W41763   2.244  44.940   0.224
68696W        W41764  39.202  11.688   3.294
68697W        W41765  23.062  17.663   0.498
68698W        W41766  40.572  44.645   3.221
68699W        W41767  16.583  13.294  11.390
68700W        W41768   1.428  20.203  14.854
68701W        W41769  25.302   8.651   4.866
68702W        W41770  25.596   5.730   4.217
68703W        W41771   1.110   4.670  13.014
68704W        W41772  26.640  27.270   2.215
68705W        W41773  36.866  44.453   2.340
68706W        W41774  38.153  42.671  13.876
68707W        W41775  31.904   8.758   1.702
68708W        W41776  27.180   7.772  12.465
68709W        W41777  34.785  36.048  11.571
68710W        W41778  16.257  40.881  12.374
68711W        W41779  32.343  26.376   4.683
68712W        W41780  43.892  34.937   3.148
68713W        W41781  28.309  32.375  10.964
68714W        W41782   4.970  35.625   0.387
68715W        W41783  43.934  18.141  13.508
68716W        W41784  30.582  41.269   0.722
68717W        W41785  42.562  30.163  13.912
68718W        W41786   9.514  33.673  14.383
68719W        W41787  14.350  25.264  10.401
68720W        W41788  25.672  32.701   2.370
68721W        W41789  34.047  19.036   4.286
68722W        W41790  32.194   9.923  11.144
68723W        W41791  42.506  21.848   2.854
68724W        W41792  35.466  23.895  12.423
68725W        W41793  24.192  10.100   4.028
68726W        W41794  21.790  29.607  12.498
68727W        W41795  16.041  35.869   3.083
68728W        W41796  17.499  44.484  13.546
68729W        W41797  15.574  17.277  14.964
68730W        W41798  43.227  21.303  12.380
68731W        W41799  20.628  23.044  11.570
68732W        W41800  44.989  10.538   2.385
68733W        W41801  28.243  28.585  12.100
68734W        W41802  37.149  20.418  11.524
68735W        W41803  10.288   6.547  11.906
68736W        W41804  22.257  30.740   2.723
68737W        W41805  32.913  33.440  10.870
68738W        W41806  40.505   6.342  11.932
68739W        W41807  13.320  11.040   3.174
68740W        W41808  37.593  41.903  13.076
68741W        W41809  43.746  33.368   1.759
68742W        W41810  35.040   2.672  11.535
68743W        W41811   8.277  44.657   2.379
68744W        W41812  12.068  14.631  11.059
68745W        W41813  23.156  18.349   4.061
68746W        W41814   1.902  30.054   4.013
68747W        W41815   3.748  21.206   1.650
68748W        W41816  20.047  18.014   2.757
68749W        W41817  29.272  35.913   1.862
68750W        W41818   4.581  23.222   4.121
68751W        W41819  31.404   1.854  10.644
68752W        W41820  21.627  19.594  14.907
68753W        W41821  22.322   3.022  11.306
68754W        W41822  38.375  15.848  11.613
68755W        W41823  15.757  41.144  11.402
68756W        W41824  30.062  27.769   3.283
68757W        W41825  10.869   9.149  14.912
68758W        W41826  17.199   4.657   2.818
68759W        W41827  35.075  35.013   2.306
68760W        W41828   2.033  22.628   3.723
68761W        W41829  25.424   7.902   3.679
68762W        W41830  23.663  20.643  14.032
68763W        W41831   5.944  14.277   0.478
68764W        W41832  32.578  24.751   4.284
68765W        W41833  29.469   1.457  12.008
68766W        W41834  43.069  27.190  11.544
68767W        W41835  33.183  28.486  13.912
68768W        W41836  17.618  31.418   4.161
68769W        W41837  14.608   7.042  11.717
68770W        W41838  36.983   2.439  11.604
68771W        W41839   9.746  38.563  10.363
68772W        W41840  24.758  26.683   2.773
68773W        W41841  42.013  19.586   0.739
68774W        W41842  10.878  26.736  11.952
68775W        W41843  21.497  29.544  13.508
68776W        W41844  29.212  27.581   3.037
68777W        W41845  27.161  15.852  11.555
68778W        W41846  20.298  30.576  12.425
68779W        W41847  20.617  44.735  12.285
68780W        W41848  12.216  34.019  13.234
68781W        W41849   7.219  11.535  14.513
68782W        W41850  10.447  35.622  11.241
68783W        W41851  19.505   8.954  13.033
68784W        W41852  31.098  22.005  12.049
68785W        W41853  11.665  37.787   2.169
68786W        W41854   4.416  43.571  13.379
68787W        W41855  15.212   0.793  13.880
68788W        W41856  20.651  38.911  13.836
68789W        W41857  42.486  44.860  11.368
68790W        W41858   2.829  38.909  12.884
68791W        W41859  28.442  38.884  10.702
68792W        W41860  31.974   0.305   2.392
68793W        W41861   9.898  30.103   2.958
68794W        W41862  24.838  28.396   3.194
68795W        W41863  24.200  31.080   3.066
68796W        W41864  43.538  35.947  12.412
68797W        W41865  40.385  29.097   1.442
68798W        W41866  26.994  38.139   2.685
68799W        W41867  19.702  16.810   1.737
68800W        W41868  29.025   3.093  12.816
68801W        W41869  31.514  42.845   4.425
68802W        W41870  23.168   4.646   0.438
68803W        W41871  23.201  12.703   0.218
68804W        W41872  42.539   6.401  10.821
68805W        W41873  22.124  25.707   0.385
68806W        W41874   4.433  18.539   3.305
68807W        W41875  43.868  36.164  11.123
68808W        W41876  34.890  32.166   4.556
68809W        W41877   9.685  15.179  14.992
68810W        W41878  12.846   1.905   4.154
68811W        W41879  36.183  30.448   3.248
68812W        W41880  23.822  26.625   0.898
68813W        W41881   5.085  13.236  11.461
68814W        W41882  16.289  17.714   2.521
68815W        W41883  41.100   5.806  14.565
68816W        W41884   8.784  28.993  12.814
68817W        W41885  21.425  22.316   1.252
68818W        W41886   7.108  39.676   5.414
68819W        W41887  43.919  18.079   3.284
68820W        W41888  27.687  19.530   3.320
68821W        W41889   4.915  43.411   2.194
68822W        W41890  13.183  36.428   1.699
68823W        W41891  31.010  34.514  13.988
68824W        W41892  14.663  32.379   0.429
68825W        W41893  30.733   9.404   2.880
68826W        W41894  27.967  44.701  12.604
68827W        W41895  12.877  33.632   1.385
68828W        W41896  13.324  10.372  10.789
68829W        W41897   5.408   4.261   3.365
68830W        W41898  18.255  21.730   3.307
68831W        W41899  32.911  24.259  13.568
68832W        W41900  13.637   9.845   2.463
68833W        W41901  27.242  43.787   3.379
68834W        W41902  35.981  22.055   2.595
68835W        W41903  41.906  21.746  12.120
68836W        W41904   8.223  28.373  12.431
68837W        W41905  34.980  27.950  12.021
68838W        W41906   7.626  44.321   4.622
68839W        W41907  41.772  14.338   4.691
68840W        W41908  11.290   1.522  11.161
68841W        W41909   5.756  24.476   1.910
68842W        W41910  38.092  20.757  10.421
68843W        W41911  41.409  21.277   0.383
68844W        W41912  41.524  10.776   1.870
68845W        W41913  41.556  42.319  12.025
68846W        W41914  21.174   9.927  10.922
68847W        W41915   2.226  25.088  10.611
68848W        W41916  22.736   6.884   3.882
68849W        W41917  35.446  32.268  11.376
68850W        W41918  33.589  36.384   3.535
68851W        W41919  32.409  25.255   2.372
68852W        W41920  41.969  29.377  13.016
68853W        W41921  37.012  31.635   5.110
68854W        W41922  12.069  21.242  12.288
68855W        W41923  21.002  43.377  12.083
68856W        W41924  17.298  43.359   1.895
68857W        W41925   2.382  38.516   1.910
68858W        W41926  42.250  16.667  13.385
68859W        W41927   7.413  24.151  13.543
68860W        W41928  24.159  29.937  11.584
68861W        W41929  12.882  39.495  12.087
68862W        W41930  24.322  36.138   4.350
68863W        W41931   1.236  27.484  12.966
68864W        W41932  15.292   7.865   2.036
68865W        W41933   7.980   5.439   4.636
68866W        W41934  25.301  27.059  12.974
68867W        W41935   0.531  27.737  11.566
68868W        W41936   1.813  14.252   1.698
68869W        W41937  31.685  34.446   3.988
68870W        W41938  24.232  39.890  10.973
68871W        W41939  12.760  19.117  10.707
68872W        W41940  41.281  19.984  12.916
68873W        W41941  27.095  31.683  12.154
68874W        W41942  12.747   6.302   0.310
68875W        W41943   8.363   5.802   4.597
68876W        W41944  38.868   3.715  13.485
68877W        W41945  12.148   1.428  14.973
68878W        W41946  30.877  29.278  11.353
68879W        W41947  34.479  43.703   1.012
68880W        W41948  36.228  20.467   3.691
68881W        W41949  26.218  21.173   4.577
68882W        W41950  28.745   6.273   0.752
68883W        W41951   2.937  42.249  14.308
68884W        W41952   2.632  29.093   2.894
68885W        W41953  10.576  13.687  13.430
68886W        W41954  38.054  20.159  10.459
68887W        W41955  29.137  41.260  11.776
68888W        W41956   8.600   3.871   3.309
68889W        W41957   1.489  44.034   0.173
68890W        W41958  32.173  17.207  14.348
68891W        W41959   4.286  17.094   2.161
68892W        W41960  44.261  10.864   4.869
68893W        W41961   1.184   5.685  11.200
68894W        W41962  37.921   2.986   3.396
68895W        W41963  22.775   0.307   5.497
68896W        W41964  42.997   5.269   0.911
68897W        W41965  20.229  43.182   3.747
68898W        W41966  22.495  13.136  11.121
68899W        W41967  33.198  27.483   3.707
68900W        W41968   5.059  41.508  10.636
68901W        W41969  33.493   7.303   4.646
68902W        W41970  39.121  36.082  12.588
68903W        W41971  28.448  36.924  14.104
68904W        W41972   3.724   6.777   2.274
68905W        W41973  27.036  32.911   1.721
68906W        W41974  34.908  39.783  14.826
68907W        W41975   4.671  39.404   4.345
68908W        W41976  34.843  17.741  13.381
68909W        W41977  26.668  40.782  13.479
68910W        W41978   8.459  25.723   2.854
68911W        W41979  17.209  32.365   4.173
68912W        W41980  21.105  17.635   0.474
68913W        W41981  12.310   8.064   0.936
68914W        W41982  32.823   7.917   1.880
68915W        W41983   8.609  33.044   4.195
68916W        W41984  16.205  12.903   2.952
68917W        W41985  24.126  24.790  14.894
68918W        W41986  27.946   6.255   1.232
68919W        W41987  29.607  25.405  11.730
68920W        W41988  11.349  10.796   3.427
68921W        W41989  21.344  23.056   3.073
68922W        W41990  30.873  11.954   0.712
68923W        W41991  38.409  36.343  11.069
68924W        W41992  38.489  30.202   2.661
68925W        W41993  39.379  13.273  11.691
68926W        W41994  26.443   9.399  11.595
68927W        W41995  22.412  18.967   4.636
68928W        W41996  35.422  42.633   0.853
68929W        W41997  21.079  28.124   0.357
68930W        W41998  35.885  28.889  11.228
68931W        W41999   3.255  32.224   4.844
68932W        W42000  10.850  38.732   1.747
68933W        W42001  19.205  14.566   0.353
68934W        W42002  19.692   3.176   4.331
68935W        W42003  42.244  19.247  10.569
68936W        W42004  37.452  22.501  10.996
68937W        W42005  42.304  23.271   2.971
68938W        W42006  14.603  29.139   4.278
68939W        W42007  21.568  43.369   4.529
68940W        W42008  11.187  14.202   1.570
68941W        W42009  24.751  20.704  10.667
68942W        W42010  31.577  22.024  12.594
68943W        W42011  24.498  16.097  13.274
68944W        W42012  37.344   8.724   2.554
68945W        W42013   2.967  15.629  10.777
68946W        W42014  41.679  25.985  14.371
68947W        W42015   3.536  26.250   1.245
68948W        W42016  41.843  20.281  11.784
68949W        W42017  25.081  14.083   4.222
68950W        W42018  22.937  13.843  12.639
68951W        W42019  15.753  15.298   2.218
68952W        W42020  32.347  37.398   4.123
68953W        W42021  27.734  16.301   2.947
68954W        W42022  14.587  32.816   1.766
68955W        W42023  31.577  15.594   1.843
68956W        W42024  23.582  32.949   1.509
68957W        W42025  25.609  23.334  14.763
68958W        W42026  12.508  19.738  10.646
68959W        W42027  32.073  18.164   1.908
68960W        W42028  23.145  28.606  11.153
68961W        W42029  10.646  24.532  14.791
68962W        W42030  35.320  10.761  13.097
68963W        W42031   6.131  27.175   1.757
68964W        W42032   5.760  35.269   1.126
68965W        W42033  26.766  35.154  14.125
68966W        W42034   2.035   6.169  13.073
68967W        W42035   5.898   8.721   1.905
68968W        W42036  15.561  27.484  14.831
68969W        W42037  43.776  24.224   2.881
68970W        W42038  42.461  18.745   1.416
68971W        W42039  11.650  30.630  13.938
68972W        W42040  40.731  19.214   0.249
68973W        W42041  44.821  10.358   0.046
68974W        W42042  37.363  35.891   4.776
68975W        W42043   0.284   2.839  11.034
68976W        W42044  41.774  17.360   4.572
68977W        W42045  13.548   6.634  12.502
68978W        W42046  18.696  14.588  12.989
68979W        W42047  16.163  33.938   1.384
68980W        W42048  26.536  20.951   3.236
68981W        W42049  12.706   6.640  14.934
68982W        W42050  27.475  36.304  13.433
68983W        W42051   0.527   0.419   0.883
68984W        W42052  25.459  39.968   9.829
68985W        W42053  22.212   5.348  12.432
68986W        W42054  40.403   3.802  11.717
68987W        W42055  39.105   0.599   3.659
68988W        W42056  17.724  32.328   0.528
68989W        W42057   1.395  35.000   0.715
68990W        W42058   7.587  11.172  14.392
68991W        W42059  30.472   1.972  10.563
68992W        W42060  28.719  12.277   0.226
68993W        W42061  39.096  40.025   0.388
68994W        W42062  20.381  20.752   0.833
68995W        W42063  33.170  20.167   3.349
68996W        W42064  39.127  12.775   1.761
68997W        W42065  40.780  21.435   0.454
68998W        W42066  29.680  40.042   1.305
68999W        W42067  41.503  40.807   2.694
69000W        W42068  12.784  34.132   4.470
69001W        W42069  28.661  17.762  13.422
69002W        W42070   9.455   9.861  11.555
69003W        W42071  43.414  39.517  13.915
69004W        W42072   6.999  26.484  13.124
69005W        W42073  12.040  25.250  14.864
69006W        W42074  14.551  12.753  11.192
69007W        W42075  38.410  21.199  10.736
69008W        W42076  32.793   6.148  13.166
69009W        W42077   5.476  35.911  14.452
69010W        W42078  43.508  19.759  10.537
69011W        W42079  31.999   2.147  11.567
69012W        W42080  11.266   7.774  11.339
69013W        W42081   1.451   5.847  11.613
69014W        W42082  24.047  42.550  11.177
69015W        W42083  39.306  11.340   0.905
69016W        W42084  21.114  13.814  13.547
69017W        W42085  11.881  10.726   0.371
69018W        W42086  27.456  36.523  11.606
69019W        W42087  14.348   0.503   4.482
69020W        W42088  36.940   9.857  12.087
69021W        W42089  43.726  31.443  11.145
69022W        W42090  33.927  19.138   3.767
69023W        W42091  26.520   2.229  12.126
69024W        W42092  19.578  39.858   2.201
69025W        W42093  23.506  38.380   9.724
69026W        W42094  27.970  36.447  10.679
69027W        W42095   3.239  10.576  13.425
69028W        W42096   9.768  22.704   0.843
69029W        W42097  42.319  43.843   3.321
69030W        W42098   4.972  40.895   0.736
69031W        W42099   0.654  19.654  11.496
69032W        W42100   9.972  37.636  13.797
69033W        W42101  44.318   8.308  13.292
69034W        W42102  37.934  29.668   4.352
69035W        W42103   9.702  40.895  14.706
69036W        W42104  29.923   8.511   3.073
69037W        W42105  20.667  39.505   1.120
69038W        W42106  42.026  39.571  12.905
69039W        W42107  11.888  39.437   3.071
69040W        W42108  44.314  22.225   5.146
69041W        W42109  20.665  21.836  12.164
69042W        W42110   5.891  12.893  11.568
69043W        W42111  29.389  11.149  13.482
69044W        W42112  28.239  40.062   3.819
69045W        W42113  34.417  19.584   2.402
69046W        W42114   8.538  29.538   4.758
69047W        W42115   6.804  29.913  12.030
69048W        W42116  12.757  11.589   4.109
69049W        W42117  29.016  25.185   1.436
69050W        W42118  11.081  19.676   1.546
69051W        W42119   6.021   2.052   2.186
69052W        W42120  10.656  16.733  11.604
69053W        W42121  28.215  25.205   3.070
69054W        W42122  12.102  17.781  13.378
69055W        W42123   9.117  14.301   3.527
69056W        W42124  17.212  25.518   4.391
69057W        W42125  24.014   5.274  12.042
69058W        W42126  30.388  28.554  14.842
69059W        W42127   5.395   0.148   1.909
69060W        W42128  15.728  41.372   4.596
69061W        W42129   2.194  44.835  13.512
69062W        W42130  40.842  40.566  14.412
69063W        W42131  31.102  35.870   1.954
69064W        W42132   2.491  36.495   3.867
69065W        W42133  11.136   7.578   2.348
69066W        W42134  29.901   4.712  13.364
69067W        W42135   1.559  35.021   0.209
69068W        W42136  16.336  41.337  12.574
69069W        W42137  11.492   7.722  11.958
69070W        W42138   8.740   0.418  12.563
69071W        W42139  33.080   6.138   1.297
69072W        W42140  32.991  22.069  14.762
69073W        W42141  13.929   1.323   0.793
69074W        W42142  36.154   8.920   0.256
69075W        W42143  10.166  30.860   1.799
69076W        W42144  12.897  27.913   1.852
69077W        W42145   8.931  26.099  10.738
69078W        W42146   6.452  30.213   3.140
69079W        W42147  34.985   0.879   3.896
69080W        W42148  19.162  41.871   3.836
69081W        W42149  27.850   8.269  14.998
69082W        W42150  18.756  42.319  10.626
69083W        W42151  22.772  29.201  13.291
69084W        W42152  29.536  18.058  10.835
69085W        W42153  26.504  28.666   1.922
69086W        W42154   3.759  24.631   3.932
69087W        W42155  33.314  37.113  13.925
69088W        W42156   1.817   7.196   1.932
69089W        W42157  25.465   7.166   3.331
69090W        W42158  29.417   2.919   4.789
69091W        W42159  22.196  44.748  10.571
69092W        W42160  26.125  13.893   2.310
69093W        W42161  27.317  41.124  12.115
69094W        W42162  26.564  12.865   3.575
69095W        W42163   3.941  33.521   4.176
69096W        W42164  41.048  12.394  12.974
69097W        W42165  35.978  10.145   4.127
69098W        W42166  18.161  32.025   0.549
69099W        W42167  16.575  12.356  11.458
69100W        W42168  38.529  34.441   0.689
69101W        W42169   9.124  36.779   2.813
69102W        W42170  22.679   2.000  11.756
69103W        W42171  12.689  39.236   1.338
69104W        W42172  34.556  13.825  12.504
69105W        W42173  39.518  35.952  13.563
69106W        W42174  31.498   4.850   5.302
69107W        W42175  31.029  17.346   3.348
69108W        W42176  35.620  37.050   0.841
69109W        W42177  26.517   3.181   0.015
69110W        W42178   8.873  35.382   1.773
69111W        W42179   6.343  29.647  14.404
69112W        W42180  14.169  21.741  11.622
69113W        W42181  44.981   5.475  12.784
69114W        W42182  10.862  44.405  11.969
69115W        W42183  15.424  23.139  13.136
69116W        W42184  42.087  22.809  13.344
69117W        W42185  32.621   7.305   0.226
69118W        W42186   0.780  21.851   2.431
69119W        W42187   1.281   3.039   1.296
69120W        W42188  15.126  27.032   2.411
69121W        W42189   5.618  44.302   4.280
69122W        W42190  40.568  28.087   4.639
69123W        W42191  39.287  32.044   2.228
69124W        W42192  14.269   2.902  14.745
69125W        W42193   7.637  42.915   3.712
69126W        W42194  24.999  26.922  12.547
69127W        W42195  39.828   0.752  13.887
69128W        W42196   2.407  11.823   0.230
69129W        W42197   5.339  18.251  13.307
69130W        W42198  16.711  10.105  14.510
69131W        W42199  27.553  36.395   1.803
69132W        W42200  25.001  26.689  11.064
69133W        W42201  39.125  18.595   0.064
69134W        W42202  14.152  26.673   5.085
69135W        W42203  38.372   1.728   5.005
69136W        W42204  26.094  35.864  13.890
69137W        W42205  16.010   1.535  13.453
69138W        W42206   1.748  34.935  11.104
69139W        W42207  17.161   3.571   4.996
69140W        W42208  31.852  30.399   3.211
69141W        W42209  19.074  17.597  11.875
69142W        W42210  30.951  44.438   0.842
69143W        W42211  22.343  22.222  14.010
69144W        W42212   3.962  14.950  11.248
69145W        W42213  32.622  20.045   4.868
69146W        W42214  40.911   9.187   1.279
69147W        W42215  25.087   8.145   3.196
69148W        W42216  30.403  42.889  11.648
69149W        W42217   6.352  22.998   4.671
69150W        W42218   9.162  27.754   1.687
69151W        W42219  40.666  31.864  14.959
69152W        W42220  13.755  38.792  10.479
69153W        W42221  43.574  23.922  11.644
69154W        W42222  15.237  30.065  11.994
69155W        W42223  44.769  30.906   0.561
69156W        W42224  25.209  24.622   3.575
69157W        W42225  12.769  38.142  13.350
69158W        W42226  25.101  27.400  13.580
69159W        W42227   7.657  29.495  11.053
69160W        W42228  27.518  17.505  12.905
69161W        W42229  43.872  15.095  11.243
69162W        W42230  24.592   8.711   4.108
69163W        W42231  40.570  35.572   0.288
69164W        W42232  31.769  22.264   2.222
69165W        W42233  44.382  20.062  10.942
69166W        W42234   0.053  27.232  12.456
69167W        W42235  31.732  16.846   0.461
69168W        W42236   3.110  11.669   0.943
69169W        W42237  38.319   9.717   3.253
69170W        W42238  26.014  11.305   2.574
69171W        W42239  34.905  11.171   1.712
69172W        W42240  26.864  17.746   3.722
69173W        W42241   8.942  21.077  14.930
69174W        W42242  28.968  18.459  14.545
69175W        W42243  24.176   6.312   0.399
69176W        W42244  12.704  16.924   3.243
69177W        W42245  23.173  22.195   0.763
69178W        W42246  16.097  34.525   3.027
69179W        W42247  33.156  43.212  11.700
69180W        W42248  44.471  33.110  12.173
69181W        W42249  15.550  35.539   2.162
69182W        W42250  24.777  21.511   3.571
69183W        W42251  42.056  34.534  11.650
69184W        W42252   9.239   5.685  13.077
69185W        W42253  34.137  33.161   1.780
69186W        W42254  14.199  39.162  10.559
69187W        W42255  19.147  31.846  14.623
69188W        W42256  26.623  16.269  14.816
69189W        W42257  33.429  25.290  11.611
69190W        W42258  39.314  21.596   4.519
69191W        W42259  33.019  29.210  13.402
69192W        W42260   6.603  26.983  10.633
69193W        W42261   0.065  32.950   0.912
69194W        W42262  39.958  10.115   1.541
69195W        W42263  24.171   7.803   0.022
69196W        W42264   6.843  13.329   3.416
69197W        W42265  19.668  35.974  11.968
69198W        W42266  11.327  23.014  13.928
69199W        W42267  29.118  26.417   4.057
69200W        W42268  27.908  29.532  14.636
69201W        W42269  27.880  16.721   3.233
69202W        W42270  28.830  12.601   2.194
69203W        W42271  22.282  38.354   0.858
69204W        W42272  28.688  34.936  12.947
69205W        W42273  38.300  10.621   1.392
69206W        W42274  11.194   9.214  14.498
69207W        W42275  25.503  41.407  11.541
69208W        W42276   8.673  41.654  13.471
69209W        W42277  42.935  18.073   3.310
69210W        W42278  42.960  35.588  14.206
69211W        W42279  23.630  35.686  12.634
69212W        W42280  24.992  41.396  11.401
69213W        W42281   6.896  14.864  10.901
69214W        W42282  38.817  31.420  11.176
69215W        W42283  36.395  33.828   3.301
69216W        W42284  39.036   9.351   3.788
69217W        W42285  25.188  35.496  13.004
69218W        W42286  41.252  15.015   5.068
69219W        W42287  17.323  20.941  13.116
69220W        W42288   2.312  41.479  14.283
69221W        W42289   6.549  16.912   4.094
69222W        W42290  32.098   9.245   2.617
69223W        W42291  12.034  35.274  13.083
69224W        W42292  37.142  41.459   1.330
69225W        W42293  42.119  35.525  14.906
69226W        W42294  34.586   1.934  12.080
69227W        W42295   7.419  15.053   2.640
69228W        W42296  24.541  10.844  10.799
69229W        W42297  25.801  23.954   1.798
69230W        W42298  40.492   6.772   1.513
69231W        W42299  34.884  20.782   4.131
69232W        W42300  42.596  39.282  11.209
69233W        W42301  33.812  41.007   0.457
69234W        W42302   7.498  30.001  13.248
69235W        W42303  29.235  21.774  14.927
69236W        W42304  14.908  41.929   4.130
69237W        W42305  33.588  35.548   1.259
69238W        W42306  21.897  34.513  13.256
69239W        W42307  37.367  23.235  11.479
69240W        W42308   1.221  12.863   3.706
69241W        W42309   2.411  42.031  11.145
69242W        W42310  42.192   6.412   0.900
69243W        W42311  34.394  29.108  11.100
69244W        W42312  11.065  32.199  13.825
69245W        W42313  12.433   3.285   1.570
69246W        W42314  44.965  12.811   0.682
69247W        W42315  24.567  40.342  13.358
69248W        W42316   0.278  39.315   1.892
69249W        W42317  38.308  10.627  13.950
69250W        W42318  41.786  20.222  11.250
69251W        W42319  24.926  14.715  12.775
69252W        W42320  34.953   8.233   1.264
69253W        W42321  28.960  40.820  10.957
69254W        W42322   8.348  32.189  14.579
69255W        W42323   5.525  41.429  12.923
69256W        W42324   8.995   2.964  11.474
69257W        W42325   1.352   7.818   4.239
69258W        W42326  33.983   7.502  14.745
69259W        W42327  31.499  42.032  12.036
69260W        W42328  24.544  19.993   3.585
69261W        W42329  39.945  15.647  14.717
69262W        W42330  44.706  23.004   4.537
69263W        W42331  28.633  37.325  13.374
69264W        W42332  38.288   2.000  13.541
69265W        W42333  27.999  44.156  12.503
69266W        W42334  41.301   3.985   0.395
69267W        W42335  29.883  31.653  11.202
69268W        W42336  25.635  18.621  14.385
69269W        W42337   5.288  43.996   3.549
69270W        W42338   8.713  21.151   2.555
69271W        W42339  24.106  13.402   4.036
69272W        W42340  40.136  13.356  14.403
69273W        W42341  15.804  41.274  12.482
69274W        W42342  39.455  40.242  10.053
69275W        W42343  15.185   2.531  14.265
69276W        W42344  36.149  34.355   2.891
69277W        W42345   1.479   4.440   1.382
69278W        W42346  14.091  44.378  14.054
69279W        W42347  30.986  42.501   4.803
69280W        W42348   8.961  17.191  11.475
69281W        W42349  13.514  14.828   2.946
69282W        W42350  24.514  39.445  13.135
69283W        W42351  16.611  16.042   2.818
69284W        W42352  15.013   4.807  12.880
69285W        W42353  24.988  38.668  10.802
69286W        W42354  39.264  21.638  14.305
69287W        W42355  39.942   9.917  12.450
69288W        W42356  25.535  34.626  11.869
69289W        W42357  43.285  23.247  14.335
69290W        W42358  18.019   0.261  14.809
69291W        W42359   0.010  10.327   4.702
69292W        W42360  26.262   0.762  11.158
69293W        W42361  26.933  23.088  10.420
69294W        W42362   9.715  41.008  14.195
69295W        W42363  24.258   2.982   5.052
69296W        W42364  26.090  28.984  12.555
69297W        W42365  30.805  12.873  11.532
69298W        W42366  10.201  36.930  14.913
69299W        W42367  26.458   6.354  12.572
69300W        W42368  28.866   3.456   4.338
69301W        W42369   8.662  29.633  10.787
69302W        W42370  26.929  14.252   3.720
69303W        W42371  22.557  23.618  10.757
69304W        W42372  19.988   4.142  11.540
69305W        W42373  40.166  41.532   1.469
69306W        W42374  10.246  19.554  11.655
69307W        W42375  35.097   1.472   0.275
69308W        W42376  38.474  18.777  14.681
69309W        W42377  30.721  40.553   0.331
69310W        W42378  41.024  13.683   3.303
69311W        W42379  12.792  35.160   2.111
69312W        W42380   5.433   7.899   0.894
69313W        W42381  17.193   3.801   4.122
69314W        W42382  39.071  39.918   9.913
69315W        W42383  12.013  41.782   3.108
69316W        W42384  40.800  12.673  12.469
69317W        W42385  31.183  42.025  11.215
69318W        W42386   7.638  24.105   4.057
69319W        W42387  28.073   8.379   1.195
69320W        W42388  27.122  37.700  11.130
69321W        W42389  18.594  28.228  13.080
69322W        W42390  18.885  12.589  11.016
69323W        W42391   0.037  16.745   3.486
69324W        W42392  27.162  41.603  14.403
69325W        W42393  41.251  32.543   0.883
69326W        W42394  32.281  39.979   4.163
69327W        W42395  15.896   9.804   2.714
69328W        W42396  34.380  10.726   3.784
69329W        W42397  32.894   4.388  12.416
69330W        W42398   4.184  32.077  10.980
69331W        W42399   4.972  20.624  12.368
69332W        W42400  40.797  35.582   1.350
69333W        W42401  15.155  31.494  11.700
69334W        W42402  28.409  38.300  12.016
69335W        W42403   5.450  34.586   4.022
69336W        W42404  34.607  41.984  11.236
69337W        W42405   9.749   7.454   3.960
69338W        W42406  35.534  19.133   4.375
69339W        W42407   3.845  26.558   0.891
69340W        W42408   5.162  35.769  14.062
69341W        W42409  24.104  22.075   2.725
69342W        W42410  13.075  31.478  11.483
69343W        W42411  21.002  34.871   2.105
69344W        W42412   2.999  16.719  11.166
69345W        W42413  38.515  39.100  14.297
69346W        W42414  18.934  37.604   3.576
69347W        W42415  44.756  37.867  13.596
69348W        W42416   0.708  14.777   2.851
69349W        W42417  40.350  20.238   3.132
69350W        W42418  43.379  37.584  12.902
69351W        W42419   4.994  11.740   4.191
69352W        W42420  33.075  10.228   4.606
69353W        W42421  22.979  35.981  13.378
69354W        W42422   0.179  25.469  14.258
69355W        W42423  44.253  28.159   4.992
69356W        W42424  35.385  41.874   3.380
69357W        W42425  41.431  40.937  10.930
69358W        W42426  27.166  36.590  12.460
69359W        W42427  14.776  34.387   1.905
69360W        W42428  24.402  20.699  11.481
69361W        W42429  14.524  18.359   0.280
69362W        W42430  34.986  16.241  10.573
69363W        W42431  33.521  14.077   0.277
69364W        W42432  39.543  19.276   3.193
69365W        W42433   3.913  11.323   4.631
69366W        W42434  33.125  23.100  12.880
69367W        W42435  44.237   3.105  14.287
69368W        W42436  18.443   6.796   1.903
69369W        W42437  32.181   2.995  12.007
69370W        W42438  25.369  38.543  12.428
69371W        W42439  28.572  44.261   3.767
69372W        W42440  10.688  14.580  10.700
69373W        W42441  35.285   7.380   4.721
69374W        W42442   3.379  41.053  14.818
69375W        W42443  23.443   2.832   2.748
69376W        W42444  20.835  24.051  11.662
69377W        W42445  21.868  36.417  12.914
69378W        W42446  38.787  43.484   1.876
69379W        W42447  28.661  28.469  13.023
69380W        W42448   4.200   2.836   2.547
69381W        W42449  38.946  40.250  11.551
69382W        W42450  18.048   7.378   3.137
69383W        W42451  27.401  44.211   0.628
69384W        W42452  31.612  34.487   3.299
69385W        W42453  22.455  31.081  11.068
69386W        W42454  28.461  38.827  13.777
69387W        W42455  28.991  44.271   2.383
69388W        W42456  17.164  33.042   0.950
69389W        W42457  19.592  42.075   3.021
69390W        W42458  36.827  10.750  12.131
69391W        W42459  11.017   7.182   3.837
69392W        W42460  41.249  19.493  11.177
69393W        W42461  22.557  19.105   4.168
69394W        W42462   9.814  27.162   2.464
69395W        W42463  42.722  23.340  12.902
69396W        W42464  36.783  28.688   1.863
69397W        W42465  12.160  15.124   3.677
69398W        W42466   8.174  33.649  14.031
69399W        W42467  24.573  36.553   4.494
69400W        W42468  17.965  31.081  14.355
69401W        W42469  35.693  12.325   1.963
69402W        W42470   3.434  25.942   3.679
69403W        W42471  37.920   6.400   3.608
69404W        W42472  27.395  34.922   3.783
69405W        W42473  34.682  11.210  11.050
69406W        W42474   9.898  10.848   2.345
69407W        W42475  43.425  31.994   3.249
69408W        W42476   9.145   2.483  12.166
69409W        W42477  35.183  25.476   1.994
69410W        W42478  25.162  17.367   1.332
69411W        W42479  19.383  40.981   3.826
69412W        W42480  43.987  29.890  13.892
69413W        W42481  23.835  26.858  13.799
69414W        W42482  27.656  38.020   1.439
69415W        W42483  15.579  43.338  13.151
69416W        W42484  11.779  44.420  11.499
69417W        W42485   4.690   1.932   0.023
69418W        W42486  14.131  10.321   5.006
69419W        W42487  37.986  29.114  14.821
69420W        W42488  26.610   8.734  10.883
69421W        W42489  15.050  33.989  13.545
69422W        W42490  18.400   5.411   3.712
69423W        W42491  27.623  15.663  10.837
69424W        W42492  14.680  19.146  10.747
69425W        W42493  31.704  24.473   3.157
69426W        W42494   3.155   8.867   3.405
69427W        W42495  32.410  27.533   0.819
69428W        W42496  15.212   9.980   0.433
69429W        W42497  11.398  43.890   3.758
69430W        W42498  10.665  21.040   4.525
69431W        W42499  11.460   3.280   2.295
69432W        W42500   2.012  30.119   2.595
69433W        W42501  10.132  40.084   3.134
69434W        W42502   3.707   1.238  11.836
69435W        W42503  29.441  12.675   4.701
69436W        W42504  18.387  10.879   3.193
69437W        W42505  43.546   6.717   1.362
69438W        W42506  20.560   4.476   1.870
69439W        W42507  38.377   2.730  10.548
69440W        W42508  44.030  15.076   1.421
69441W        W42509  18.677   2.479  11.120
69442W        W42510  17.045  42.902  14.874
69443W        W42511  17.203   5.591  12.577
69444W        W42512  22.073  35.280   1.792
69445W        W42513  37.608  17.096  12.023
69446W        W42514  12.285  43.669  14.593
69447W        W42515   8.393  42.719   1.652
69448W        W42516  34.538   9.765   0.527
69449W        W42517   1.009   2.866   3.091
69450W        W42518  17.693  42.848   4.558
69451W        W42519  22.514  14.635  12.413
69452W        W42520  39.021   0.064  11.149
69453W        W42521  11.908  10.180  11.188
69454W        W42522  15.646   4.902   2.222
69455W        W42523  24.958  38.439  13.145
69456W        W42524  17.226   9.683  10.560
69457W        W42525  41.259  39.268   3.607
69458W        W42526  44.423  12.605   0.319
69459W        W42527  15.148  23.546  10.492
69460W        W42528  29.977  33.801   0.194
69461W        W42529  30.614   2.508  10.714
69462W        W42530  28.396  11.368  14.842
69463W        W42531  10.945   5.838  14.233
69464W        W42532  21.265  36.732   0.248
69465W        W42533   4.916  39.445   1.144
69466W        W42534  44.339  38.919  14.410
69467W        W42535  15.568   4.374  11.624
69468W        W42536  16.726  15.694   3.448
69469W        W42537  21.359  28.558   0.494
69470W        W42538   0.708  14.798  10.725
69471W        W42539  15.250  15.672   3.556
69472W        W42540   7.485  37.245   1.290
69473W        W42541   7.804   8.305  11.798
69474W        W42542  44.405  28.487   4.311
69475W        W42543  20.197  41.958  14.741
69476W        W42544  15.586  26.873   3.761
69477W        W42545  44.025   2.927  12.938
69478W        W42546  30.996  14.198   3.818
69479W        W42547  34.868  36.427  13.299
69480W        W42548  11.367  34.831   2.796
69481W        W42549  42.062  29.933   0.341
69482W        W42550  26.880  25.033   5.063
69483W        W42551  25.953   6.044   2.764
69484W        W42552  28.463  20.962   2.132
69485W        W42553  37.926  43.547  13.462
69486W        W42554  30.182   8.663   4.909
69487W        W42555  20.114  26.623  14.964
69488W        W42556  20.631  43.958   2.089
69489W        W42557  31.885   6.945   3.124
69490W        W42558  18.692   0.499  12.335
69491W        W42559  20.115  12.168   1.803
69492W        W42560   1.754   6.382  11.207
69493W        W42561  38.860  23.516   0.006
69494W        W42562  31.641   2.784  10.735
69495W        W42563  42.400  18.284   0.489
69496W        W42564  35.121  14.310   3.714
69497W        W42565  32.329  36.251  12.091
69498W        W42566  22.459  16.155  12.068
69499W        W42567  27.913  20.669  12.368
69500W        W42568  20.612  15.007  13.862
69501W        W42569  42.772   2.530  12.555
69502W        W42570  39.825  36.033   3.597
69503W        W42571  31.041  28.166   4.521
69504W        W42572  32.755  34.420   2.773
69505W        W42573  40.889  22.809   4.243
69506W        W42574  37.571  16.673  10.602
69507W        W42575   6.365  23.694   3.696
69508W        W42576  21.603  20.119  12.966
69509W        W42577   9.452  22.408  12.753
69510W        W42578   7.931  32.355   2.764
69511W        W42579  38.508   4.711  12.447
69512W        W42580  43.959  26.238  10.758
69513W        W42581  33.295   4.239   4.330
69514W        W42582   6.171  35.856  10.315
69515W        W42583   1.999  22.262  10.988
69516W        W42584  26.870  34.121  11.894
69517W        W42585  12.106   3.189   3.148
69518W        W42586  29.435  12.114   1.765
69519W        W42587  20.763  28.475  14.405
69520W        W42588  34.515  23.329   4.197
69521W        W42589  42.028   9.992  14.830
69522W        W42590  32.355  39.536  14.421
69523W        W42591  18.261  25.159   0.323
69524W        W42592  37.526  20.549   4.510
69525W        W42593  35.374   0.582   3.727
69526W        W42594  20.795  40.057  14.763
69527W        W42595   7.361  19.573  11.423
69528W        W42596  35.412   2.003   1.406
69529W        W42597   1.846  27.283  12.038
69530W        W42598  17.655  28.474  12.185
69531W        W42599   0.118   8.546  14.497
69532W        W42600  40.254  13.425  11.448
69533W        W42601  37.920  24.122  10.552
69534W        W42602  12.208  31.590   1.900
69535W        W42603  26.610  26.473  13.979
69536W        W42604  24.652  41.764  13.334
69537W        W42605  26.671  21.813   4.211
69538W        W42606  11.338   1.737   4.529
69539W        W42607  20.886  28.669   3.749
69540W        W42608  19.480  37.091  14.828
69541W        W42609  15.684  42.564   3.883
69542W        W42610  17.832  37.091  11.463
69543W        W42611  36.809   0.422   4.438
69544W        W42612  21.729   0.438   4.070
69545W        W42613  28.700  10.162  14.233
69546W        W42614  44.000  25.602  12.616
69547W        W42615   5.677  30.724  12.435
69548W        W42616  12.319  39.492  11.650
69549W        W42617  21.419  25.570  13.766
69550W        W42618  26.941  26.646  12.637
69551W        W42619   0.414   1.270   0.697
69552W        W42620   9.874  28.973  11.481
69553W        W42621   4.349  13.220  12.177
69554W        W42622  16.150  13.699   4.741
69555W        W42623  20.333  14.072   2.887
69556W        W42624   8.454  40.072   1.865
69557W        W42625   3.448  43.587   4.166
69558W        W42626  29.140   7.356   1.513
69559W        W42627  25.002  40.572   3.689
69560W        W42628  17.598   7.346   2.833
69561W        W42629  39.561  43.722  12.409
69562W        W42630  23.727  28.980  14.585
69563W        W42631  33.298  26.005  13.928
69564W        W42632  37.590  31.586   2.298
69565W        W42633  42.689  26.648   4.009
69566W        W42634  44.716  11.420  11.631
69567W        W42635  10.613  22.579  10.614
69568W        W42636   3.176  31.764  13.150
69569W        W42637  12.215  37.232  11.988
69570W        W42638   3.395  38.514  13.142
69571W        W42639  36.031  20.357  13.369
69572W        W42640   7.786  43.414   1.145
69573W        W42641  10.194  38.393   3.227
69574W        W42642  32.546  33.941   2.700
69575W        W42643  20.542  30.839   0.298
69576W        W42644  34.193  40.884   4.368
69577W        W42645  22.977  15.171  14.799
69578W        W42646  17.945  27.168   3.101
69579W        W42647  34.543  40.783   4.775
69580W        W42648  14.553  33.729  11.677
69581W        W42649  30.929  27.006  11.591
69582W        W42650   1.861   6.508   2.716
69583W        W42651   2.468  22.531  14.394
69584W        W42652   0.347   7.660   3.869
69585W        W42653   6.435  23.395   1.508
69586W        W42654  18.739  25.681  11.903
69587W        W42655  42.217  33.907  10.695
69588W        W42656  23.921   4.697   0.728
69589W        W42657  14.123   1.623  10.998
69590W        W42658   1.519  12.768   4.159
69591W        W42659  24.202   7.243   3.681
69592W        W42660  31.664  28.940  11.559
69593W        W42661   6.623  34.955  14.478
69594W        W42662  38.591  11.523  14.337
69595W        W42663  23.491   1.456  12.953
69596W        W42664  36.168  27.955  12.926
69597W        W42665   1.381  20.561  13.869
69598W        W42666  30.700  34.989  12.900
69599W        W42667  23.490  35.115  12.482
69600W        W42668  25.209  24.312  12.677
69601W        W42669  14.630   8.113   1.492
69602W        W42670  19.697  42.254  10.672
69603W        W42671  29.179  30.618   3.771
69604W        W42672   4.306  26.505   3.737
69605W        W42673  37.850   1.608   3.203
69606W        W42674  28.623   1.438   0.113
69607W        W42675  44.564  33.957  11.488
69608W        W42676  21.328   9.280  11.442
69609W        W42677  21.445  42.075   2.978
69610W        W42678  21.160  18.501  14.949
69611W        W42679  43.881   1.353  13.980
69612W        W42680  29.157  12.303  11.574
69613W        W42681  15.260  11.728  11.233
69614W        W42682  20.722  39.530   4.054
69615W        W42683  38.292  36.164  11.580
69616W        W42684   5.678  15.744  11.067
69617W        W42685   8.759   4.245  13.074
69618W        W42686   1.760  43.253  10.680
69619W        W42687  34.007  41.294   4.076
69620W        W42688   4.468   0.687   0.862
69621W        W42689  39.253   8.527   1.570
69622W        W42690   4.656  25.189  10.930
69623W        W42691  34.568   6.955   2.909
69624W        W42692  15.303   7.153   3.692
69625W        W42693   0.381   3.690   0.758
69626W        W42694  25.649  23.710   1.346
69627W        W42695  34.462  29.491  11.553
69628W        W42696  20.601  32.865  12.431
69629W        W42697  36.882  44.739   0.164
69630W        W42698  33.007   5.357  14.144
69631W        W42699  19.947  13.696   2.809
69632W        W42700  11.522  31.911  13.823
69633W        W42701  33.442  20.019   2.529
69634W        W42702   4.380  11.693   4.496
69635W        W42703  21.722  10.147   2.214
69636W        W42704  14.333  34.147   1.864
69637W        W42705  38.573   5.752  12.264
69638W        W42706  41.574  32.609  10.720
69639W        W42707   5.984  28.077   0.846
69640W        W42708  36.990  41.911   1.141
69641W        W42709   2.829  32.358  12.038
69642W        W42710   7.688  29.523  12.504
69643W        W42711  42.446  36.373  14.313
69644W        W42712  36.363  27.890   4.148
69645W        W42713  30.871  13.831  12.349
69646W        W42714  31.075  12.416   0.767
69647W        W42715   8.884  39.827   1.693
69648W        W42716  37.239   2.087  11.951
69649W        W42717  19.690  42.549   4.235
69650W        W42718  24.803  26.140  14.858
69651W        W42719  26.675  12.352  13.303
69652W        W42720  17.602  34.000  14.011
69653W        W42721  20.029   6.971  14.748
69654W        W42722  26.648  10.101  13.581
69655W        W42723  17.726  37.869  11.073
69656W        W42724  10.606  27.835   0.500
69657W        W42725  28.596   1.439  13.589
69658W        W42726  33.160  30.861  11.370
69659W        W42727  40.309  20.616  14.331
69660W        W42728  36.361  14.821  11.408
69661W        W42729  27.191   8.402  13.890
69662W        W42730  24.901  26.775   0.252
69663W        W42731  14.518  15.081  14.907
69664W        W42732  26.710   4.910   0.379
69665W        W42733   3.693  22.631   4.825
69666W        W42734  28.595  42.059  10.738
69667W        W42735  16.261  13.407   1.091
69668W        W42736  20.465   5.430   1.267
69669W        W42737   8.053  31.714   4.080
69670W        W42738   5.244   0.129  13.371
69671W        W42739  32.134   1.459   2.332
69672W        W42740   6.328   4.452  14.070
69673W        W42741  11.692   8.986   0.798
69674W        W42742   8.186  38.494  13.980
69675W        W42743   2.195  10.182   1.239
69676W        W42744   9.820  19.066   1.602
69677W        W42745  10.649   4.783   4.582
69678W        W42746  10.915  11.681   4.530
69679W        W42747  11.194  35.813   2.448
69680W        W42748   5.199  25.353  11.742
69681W        W42749   9.148  32.865   0.245
69682W        W42750  17.122  12.308   3.396
69683W        W42751   1.815  18.615   1.331
69684W        W42752   9.888  41.375   2.804
69685W        W42753  17.772  25.947  11.401
69686W        W42754  29.578  44.279   3.733
69687W        W42755  32.576  40.404   3.915
69688W        W42756   3.717  17.906   4.030
69689W        W42757   0.918  31.723  10.709
69690W        W42758  33.071   8.108   2.797
69691W        W42759  27.691  42.471  11.092
69692W        W42760   6.822   8.956   4.866
69693W        W42761  11.100  15.244  14.780
69694W        W42762  39.803  32.449   4.042
69695W        W42763  42.483  20.105  10.655
69696W        W42764   5.010   4.363  12.978
69697W        W42765  17.770  34.923  13.365
69698W        W42766  21.001   2.404  12.500
69699W        W42767  25.463  43.715  11.637
69700W        W42768  19.247  40.916  12.930
69701W        W42769  33.622   7.730  13.399
69702W        W42770  33.985  43.308  10.751
69703W        W42771  30.575  20.218   0.697
69704W        W42772  37.958  25.452  11.021
69705W        W42773  18.619  43.504  12.523
69706W        W42774  19.887  16.482  10.735
69707W        W42775  31.342  38.916   3.187
69708W        W42776   5.800  32.021   5.031
69709W        W42777  33.879   6.624  14.925
69710W        W42778  11.189  34.134   0.907
69711W        W42779  30.895  32.358   1.949
69712W        W42780  39.934  28.358   2.390
69713W        W42781  17.967  21.587  13.203
69714W        W42782  26.056  14.074   4.233
69715W        W42783  19.481  36.338  11.484
69716W        W42784   8.371  44.861  11.145
69717W        W42785  32.876   5.939   0.331
69718W        W42786   3.812   6.798   0.377
69719W        W42787  20.026  28.466   4.156
69720W        W42788  40.048  11.035   4.104
69721W        W42789  37.096  15.864  14.322
69722W        W42790   8.788   2.002   4.581
69723W        W42791  35.894  35.578  13.035
69724W        W42792  43.981   3.179   3.114
69725W        W42793   9.797   1.452   0.200
69726W        W42794   5.343  11.007   3.687
69727W        W42795   9.451  22.249   0.859
69728W        W42796  34.426  32.095   2.833
69729W        W42797  14.244   7.325   0.838
69730W        W42798  14.106   2.941  13.294
69731W        W42799  41.484   9.647   2.283
69732W        W42800  41.277  44.439   1.268
69733W        W42801  16.057  39.402  13.762
69734W        W42802   8.124  39.924  13.736
69735W        W42803   7.088  19.220  12.593
69736W        W42804  26.999  21.597   3.632
69737W        W42805  42.822  12.029   4.621
69738W        W42806  11.123  14.277   4.079
69739W        W42807   1.251  30.527   3.659
69740W        W42808  20.447   5.220   4.872
69741W        W42809  30.974  33.151   3.733
69742W        W42810   5.844  11.779   1.707
69743W        W42811  32.992  17.855   2.368
69744W        W42812  25.229  21.617  12.001
69745W        W42813  12.294  20.146  14.107
69746W        W42814  40.494  16.622  10.979
69747W        W42815  10.310  28.160   5.098
69748W        W42816   2.409  24.208  14.864
69749W        W42817  18.698  44.841   3.191
69750W        W42818  32.279   8.531  13.784
69751W        W42819  20.561  40.049   2.855
69752W        W42820  29.043   7.751  12.957
69753W        W42821  17.585  25.165  13.498
69754W        W42822  42.548   4.696  12.300
69755W        W42823   3.784  21.554  14.399
69756W        W42824  12.988  17.303  10.926
69757W        W42825  15.215  23.042   2.405
69758W        W42826  33.348  38.341  10.588
69759W        W42827  29.933   4.949   3.512
69760W        W42828  42.096  35.361  10.497
69761W        W42829  16.883  34.996   4.030
69762W        W42830  15.141   9.262  13.999
69763W        W42831  26.525  40.564  13.927
69764W        W42832  37.519  33.421  13.354
69765W        W42833  33.820  22.584   1.358
69766W        W42834   6.705  26.997   4.823
69767W        W42835  44.508  29.871  11.639
69768W        W42836  21.300  30.909   4.627
69769W        W42837  37.842  26.445   4.653
69770W        W42838   3.480  18.705   0.923
69771W        W42839  14.762  19.692  10.697
69772W        W42840   1.491  27.236  11.518
69773W        W42841  44.433  27.511   3.400
69774W        W42842  43.380   2.026   4.665
69775W        W42843  40.216  39.428   0.818
69776W        W42844  33.583  27.793   1.798
69777W        W42845  32.009  30.897  11.688
69778W        W42846  36.443  36.031   2.624
69779W        W42847  28.040  40.751   0.012
69780W        W42848   8.553  44.542   0.858
69781W        W42849  24.254  32.073  14.057
69782W        W42850  17.228   1.307  12.152
69783W        W42851  21.272  19.559   0.295
69784W        W42852  35.783  43.378  12.334
69785W        W42853   0.439   9.189   2.766
69786W        W42854  44.942  41.398  10.761
69787W        W42855  34.442   5.752   3.885
69788W        W42856  25.947  27.393  10.661
69789W        W42857  44.733   8.184   3.820
69790W        W42858  21.737  23.646   1.317
69791W        W42859  26.689  12.672   1.349
69792W        W42860  10.402  37.883   3.300
69793W        W42861  21.544  18.205  11.393
69794W        W42862  20.576  23.956   2.380
69795W        W42863  38.466  38.338  13.408
69796W        W42864  33.780  26.858   3.628
69797W        W42865  28.355  43.400  11.153
69798W        W42866   7.078   1.580   0.923
69799W        W42867  25.741  14.898  12.345
69800W        W42868  26.448   8.142  14.539
69801W        W42869  29.961  38.404   4.185
69802W        W42870  23.617  32.982  11.233
69803W        W42871  36.650   1.372   1.815
69804W        W42872  11.254   0.585   0.564
69805W        W42873  44.448   8.177   0.953
69806W        W42874  34.037  14.223   0.321
69807W        W42875  18.665   9.843   2.907
69808W        W42876  20.214  36.963   4.606
69809W        W42877  42.821  20.280   2.799
69810W        W42878   8.251  25.366   0.949
69811W        W42879  19.114  32.130  13.625
69812W        W42880  16.315  14.106   3.852
69813W        W42881  20.190  36.178  13.345
69814W        W42882  37.659   4.955   1.369
69815W        W42883  14.334   6.229   0.482
69816W        W42884  23.692  30.518   0.935
69817W        W42885  42.512  38.859  12.448
69818W        W42886  43.285  18.590   1.647
69819W        W42887  24.000   0.619   0.555
69820W        W42888  38.303  34.312  11.985
69821W        W42889  16.338  25.621   0.951
69822W        W42890  26.487   1.645   4.098
69823W        W42891  22.723  43.939   1.216
69824W        W42892   3.027   8.446  14.533
69825W        W42893  44.547  40.526  11.159
69826W        W42894  35.120  16.147   0.402
69827W        W42895  27.688   2.860   4.060
69828W        W42896   3.269  20.147  12.499
69829W        W42897  14.464  24.109  12.355
69830W        W42898  25.132  17.118  14.479
69831W        W42899  12.281  17.521  10.709
69832W        W42900  18.548  10.908   3.751
69833W        W42901  21.533  37.290  12.060
69834W        W42902   3.149  35.920  10.190
69835W        W42903  34.496   2.235  12.496
69836W        W42904  16.206  36.957   3.265
69837W        W42905  34.773  44.509   3.274
69838W        W42906  37.351  24.800  14.481
69839W        W42907  33.196  31.598   3.210
69840W        W42908  34.451  32.983  13.359
69841W        W42909  38.927  41.963  12.116
69842W        W42910  20.473   3.571  12.972
69843W        W42911   4.820  25.116  11.425
69844W        W42912  32.905   7.873   0.668
69845W        W42913  35.256  25.697  10.675
69846W        W42914  44.821  20.592   4.812
69847W        W42915  41.717  20.249  12.978
69848W        W42916  34.355  21.216  13.414
69849W        W42917  36.892  34.326  12.127
69850W        W42918  18.253   5.784   4.103
69851W        W42919  10.395   6.419  14.830
69852W        W42920  33.793  29.925   1.833
69853W        W42921  31.424  25.417  12.585
69854W        W42922  21.563  22.142  11.804
69855W        W42923  35.020  25.458   4.731
69856W        W42924  18.708   3.026   2.386
69857W        W42925  41.076  20.739   1.801
69858W        W42926  21.417  21.765  13.160
69859W        W42927  37.831  27.572   2.747
69860W        W42928   2.234  14.639  10.725
69861W        W42929   1.699  33.445   1.770
69862W        W42930   1.380  24.447   1.753
69863W        W42931  37.945  39.452   3.893
69864W        W42932  44.544   7.906  13.493
69865W        W42933  13.648  34.126   4.656
69866W        W42934   8.290  18.197   1.249
69867W        W42935   2.735  36.621  12.854
69868W        W42936  39.553   4.790  10.960
69869W        W42937  22.509  34.924   3.279
69870W        W42938  25.406   6.203   4.087
69871W        W42939  40.795   6.680   1.123
69872W        W42940  31.737   1.746   2.147
69873W        W42941   0.782  30.444   0.320
69874W        W42942  36.787  19.580   3.691
69875W        W42943  23.216  20.133  14.268
69876W        W42944  32.395   5.167  11.120
69877W        W42945  36.062  33.458   4.359
69878W        W42946   9.310  35.516   0.236
69879W        W42947  33.950  12.418   2.804
69880W        W42948  24.708   7.320   3.585
69881W        W42949  38.487   5.379  11.906
69882W        W42950  37.447  23.801  14.656
69883W        W42951   3.560  11.216  14.609
69884W        W42952  25.111   3.429   0.249
69885W        W42953  32.439  31.176  14.409
69886W        W42954  14.979  40.391   1.282
69887W        W42955  29.600  35.974   1.449
69888W        W42956   1.167  42.505   2.287
69889W        W42957  20.054  25.076   1.660
69890W        W42958   5.869  35.896   3.211
69891W        W42959  19.387  11.278   2.162
69892W        W42960  25.528  29.666   4.927
69893W        W42961  39.628  19.555   2.763
69894W        W42962  15.333  19.690  10.804
69895W        W42963  12.651  23.497   1.422
69896W        W42964   8.737  31.851   3.548
69897W        W42965  30.517  24.501  12.866
69898W        W42966  18.437  34.440  13.899
69899W        W42967  27.010  37.059   0.386
69900W        W42968  18.297  42.007   2.338
69901W        W42969  29.812  42.515   3.645
69902W        W42970  39.364  36.071   3.841
69903W        W42971  18.285  38.173  12.813
69904W        W42972  16.209   7.948   2.762
69905W        W42973  10.960  34.215   2.849
69906W        W42974  24.646  41.731   3.852
69907W        W42975  33.019  38.668   3.897
69908W        W42976   5.206  15.726  12.461
69909W        W42977  11.567  34.436  11.381
69910W        W42978  42.266  26.727  12.960
69911W        W42979  41.948  41.697   4.699
69912W        W42980  22.651  11.430   1.823
69913W        W42981  22.499  33.442  12.575
69914W        W42982  39.677   8.297  13.022
69915W        W42983  33.558  29.038  11.948
69916W        W42984  27.910  31.915  13.344
69917W        W42985   2.164   5.679   4.800
69918W        W42986  10.282  40.977  10.653
69919W        W42987  27.441  22.666  13.263
69920W        W42988  16.239  31.412   2.884
69921W        W42989  26.411   1.739   2.047
69922W        W42990   1.995  32.704   3.269
69923W        W42991  25.492  35.548   4.547
69924W        W42992  32.668  13.831   3.353
69925W        W42993   0.714  17.057   4.575
69926W        W42994  14.287   8.793  10.639
69927W        W42995  26.207  32.942  11.483
69928W        W42996  40.402  44.699  10.712
69929W        W42997  24.987  21.365   2.209
69930W        W42998  43.537  24.688   3.410
69931W        W42999  35.994  12.072  12.595
69932W        W43000  38.329  43.489   2.159
69933W        W43001  12.201  25.898   1.354
69934W        W43002   1.847  27.233   1.826
69935W        W43003  24.666  39.892   2.023
69936W        W43004  23.366   1.956  14.602
69937W        W43005  30.344   1.355   3.977
69938W        W43006  25.992  13.711  10.775
69939W        W43007  10.133   1.713  13.483
69940W        W43008  21.790  34.808   1.837
69941W        W43009  32.060  20.148  14.293
69942W        W43010  39.828   1.298   2.291
69943W        W43011   4.331  12.947   3.378
69944W        W43012  15.127  43.337   4.272
69945W        W43013   7.589  35.544  13.438
69946W        W43014  19.762   8.105   2.880
69947W        W43015  44.482   6.882  14.409
69948W        W43016  42.338  15.268   0.853
69949W        W43017  14.799  30.140  10.869
69950W        W43018   9.407   5.609   4.413
69951W        W43019  40.648  44.902  10.290
69952W        W43020  41.439   5.311  14.514
69953W        W43021  17.165  28.620  10.725
69954W        W43022  29.578  28.959   1.973
69955W        W43023  41.009   8.115  12.013
69956W        W43024  13.751  41.694   2.846
69957W        W43025   4.667  27.204  11.098
69958W        W43026  30.199  19.074  13.092
69959W        W43027  41.363  40.414   0.305
69960W        W43028  25.094  10.417  13.668
69961W        W43029  25.704  20.717  13.838
69962W        W43030  14.915  39.048  14.509
69963W        W43031   1.490  15.179  14.468
69964W        W43032  34.360  36.009   0.938
69965W        W43033   0.661  31.159   0.976
69966W        W43034  33.503  26.186  11.517
69967W        W43035  11.641  12.045   2.847
69968W        W43036   1.275   3.981  10.709
69969W        W43037  36.024   3.381   4.277
69970W        W43038   5.208  38.741   1.463
69971W        W43039  38.462   9.943  10.272
69972W        W43040  26.513  24.737   1.822
69973W        W43041  37.383  25.188   3.079
69974W        W43042  17.513  33.436   0.800
69975W        W43043   3.677  35.857  13.429
69976W        W43044   5.249  10.248   1.515
69977W        W43045  44.421  15.039  11.111
69978W        W43046  40.309  27.644   0.310
69979W        W43047   8.568   3.833  13.335
69980W        W43048   3.144  31.595   1.257
69981W        W43049  32.677  28.390  13.947
69982W        W43050  42.473  44.849  14.468
69983W        W43051  20.163   3.697   0.366
69984W        W43052  33.158  25.205   1.231
69985W        W43053   9.235  13.259   4.731
69986W        W43054  15.143   7.863  11.864
69987W        W43055  24.328  32.393   0.307
69988W        W43056  35.054  12.844  11.599
69989W        W43057  15.129  26.177   2.400
69990W        W43058  41.868  33.852   0.794
69991W        W43059  43.903  38.767   4.643
69992W        W43060  40.824  35.329   2.584
69993W        W43061  39.356  41.972   1.738
69994W        W43062   2.749   7.760  12.198
69995W        W43063   4.403  39.850  11.640
69996W        W43064   2.036  16.778   1.765
69997W        W43065  39.882  32.903   0.272
69998W        W43066  44.084   3.190  12.458
69999W        W43067   7.478  31.963  14.903
70000W        W43068   5.855  29.433  10.653
70001W        W43069  17.464  36.633   1.638
70002W        W43070   2.091  15.689  13.398
70003W        W43071  39.868  39.053   1.516
70004W        W43072   0.464  29.159  11.568
70005W        W43073   5.299   3.235   3.194
70006W        W43074  27.692  29.024  12.006
70007W        W43075  15.037   5.755   3.342
70008W        W43076  42.512   3.162   0.460
70009W        W43077   0.211  13.498  14.482
70010W        W43078  23.173  39.284   4.793
70011W        W43079  15.705   3.354   4.705
70012W        W43080  44.982  28.417   0.890
70013W        W43081  12.281  38.884   3.843
70014W        W43082   5.883  36.096  12.311
70015W        W43083   5.524  16.348  10.946
70016W        W43084  13.174   0.021   4.213
70017W        W43085  26.029  20.427  14.171
70018W        W43086  13.064   0.447  13.688
70019W        W43087   5.925   2.597  14.824
70020W        W43088  32.750  12.800  13.831
70021W        W43089   0.427  40.307  11.132
70022W        W43090  11.707  19.632  11.880
70023W        W43091  19.704  44.872   0.201
70024W        W43092  36.995  22.525   2.928
70025W        W43093   7.004  24.273  11.002
70026W        W43094  24.495  33.527   2.818
70027W        W43095  30.132   3.419  11.209
70028W        W43096   2.337  29.063  11.150
70029W        W43097  13.242  28.543  11.434
70030W        W43098  33.585  24.849   9.856
70031W        W43099  30.850  34.212  11.590
70032W        W43100  39.772  13.748   2.841
70033W        W43101  35.794   1.910   3.178
70034W        W43102   8.431  24.861  11.294
70035W        W43103  17.499  33.749   3.789
70036W        W43104   5.961  17.608   3.335
70037W        W43105  28.492   1.670  12.433
70038W        W43106   8.950  16.719  14.950
70039W        W43107   9.839  41.005  13.386
70040W        W43108  43.864  26.986   2.874
70041W        W43109  28.137  41.378   9.899
70042W        W43110  34.543  41.607   4.145
70043W        W43111   8.800  16.549  13.313
70044W        W43112  23.151  15.204   4.335
70045W        W43113  26.663  18.185  10.694
70046W        W43114   3.287  34.996  12.348
70047W        W43115  30.676  12.991   3.274
70048W        W43116  31.712  16.663  11.579
70049W        W43117  17.389  11.253  12.096
70050W        W43118  25.535   6.218  14.245
70051W        W43119   9.071   6.612   1.640
70052W        W43120  23.662  34.607  13.984
70053W        W43121   6.024   2.907  11.516
70054W        W43122  18.743  26.931   0.462
70055W        W43123   7.386  44.385  14.371
70056W        W43124   7.224  28.212   1.706
70057W        W43125  34.386  30.860  11.065
70058W        W43126  26.677  13.598   1.412
70059W        W43127   4.606  43.249  11.177
70060W        W43128  16.052  43.288   4.531
70061W        W43129  20.169  20.045   4.091
70062W        W43130   7.718   9.308  12.110
70063W        W43131  24.467  12.705  13.533
70064W        W43132   3.033  16.049   2.864
70065W        W43133   1.296   4.526   0.212
70066W        W43134  31.339  12.282  13.906
70067W        W43135   3.521   6.691  11.181
70068W        W43136  22.279  36.544  12.065
70069W        W43137  27.136  21.000   1.494
70070W        W43138   2.776   7.275  11.021
70071W        W43139  38.121   3.679   4.167
70072W        W43140  12.259  10.911  12.910
70073W        W43141  34.533  37.805  12.671
70074W        W43142  44.481   8.774   2.623
70075W        W43143  37.023  32.999   4.935
70076W        W43144  35.510  38.568   2.664
70077W        W43145  21.000   8.806   1.241
70078W        W43146   5.546  26.504  14.359
70079W        W43147   0.780  40.444  11.509
70080W        W43148   7.819   0.581   2.544
70081W        W43149  42.657   3.790  13.860
70082W        W43150  13.779  37.399   0.794
70083W        W43151  22.544   7.698  11.614
70084W        W43152  10.543   5.338   0.427
70085W        W43153   1.140   3.490  11.580
70086W        W43154   1.340  33.053  11.422
70087W        W43155  30.858  30.358  12.097
70088W        W43156   5.166  36.650   2.422
70089W        W43157   8.796  11.196  11.611
70090W        W43158  30.463   9.977  14.309
70091W        W43159   8.859  22.494   2.777
70092W        W43160  25.582  37.515  12.765
70093W        W43161   6.107  42.138  11.538
70094W        W43162   3.933  30.226  12.494
70095W        W43163   5.928  34.817   1.948
70096W        W43164   6.908  44.441   1.323
70097W        W43165   5.975  15.544  14.986
70098W        W43166  13.236  38.426  14.580
70099W        W43167  14.401  37.613  12.440
70100W        W43168  10.030  22.154   3.501
70101W        W43169  17.637  25.772  10.612
70102W        W43170  18.777  38.715  12.444
70103W        W43171  14.167  10.674  14.377
70104W        W43172  24.943  30.139   4.604
70105W        W43173  18.189  25.141   2.419
70106W        W43174  23.227  28.646  14.329
70107W        W43175  44.513   9.628   0.439
70108W        W43176   2.781   6.677   4.120
70109W        W43177  24.975  35.130  12.359
70110W        W43178  17.232  42.299   1.446
70111W        W43179  29.072   1.369   4.408
70112W        W43180  37.153   7.969  13.939
70113W        W43181  28.575   6.671  13.531
70114W        W43182  39.087   6.524   1.718
70115W        W43183  12.635  16.568  11.530
70116W        W43184  37.985  10.573   2.391
70117W        W43185   2.678  14.763  12.320
70118W        W43186  29.622  16.471  10.662
70119W        W43187  41.430   4.204   2.232
70120W        W43188  16.988  40.366  14.946
70121W        W43189   8.780   8.862  11.368
70122W        W43190  10.961   5.725  10.596
70123W        W43191  38.489   7.270  12.056
70124W        W43192   5.659  36.830  12.455
70125W        W43193  36.052   5.261  13.678
70126W        W43194  23.907  31.895   4.094
70127W        W43195  38.580  34.570  10.667
70128W        W43196  27.498  36.762  12.069
70129W        W43197  11.716   1.422  13.818
70130W        W43198  33.656  33.139  14.353
70131W        W43199   2.352  35.509  12.035
70132W        W43200   3.729  20.326   0.512
70133W        W43201   4.254   7.126   3.425
70134W        W43202  14.256   0.766  13.823
70135W        W43203  44.398  38.875   0.422
70136W        W43204   4.135   0.075  14.871
70137W        W43205  34.479  19.647  13.560
70138W        W43206  44.257  35.830  11.199
70139W        W43207  28.937  18.037   1.222
70140W        W43208  16.271   8.881  11.304
70141W        W43209   0.702   3.259   0.784
70142W        W43210  12.201  19.598   4.795
70143W        W43211  41.801  22.476  13.679
70144W        W43212  42.788  28.477  12.010
70145W        W43213  10.071   4.672  13.243
70146W        W43214  20.224  25.037   4.097
70147W        W43215  29.164  16.803   4.675
70148W        W43216  22.077  26.582  13.924
70149W        W43217  32.445   7.250   0.741
70150W        W43218  37.531   2.436  10.467
70151W        W43219  28.444   7.316  11.237
70152W        W43220  14.715  18.535  11.593
70153W        W43221  32.454   5.543   4.213
70154W        W43222  26.634  24.503  11.546
70155W        W43223  33.036  33.920  13.059
70156W        W43224  43.305  33.770   3.492
70157W        W43225  43.356  37.891   2.236
70158W        W43226  44.941   1.931   0.373
70159W        W43227   2.323  35.543   3.227
70160W        W43228   8.350  41.555   3.633
70161W        W43229   2.413  37.686   1.327
70162W        W43230  10.800  11.776  13.045
70163W        W43231  42.912  22.419   5.306
70164W        W43232  29.142   7.425  12.534
70165W        W43233  19.719  27.146  12.453
70166W        W43234   9.267  36.074   3.370
70167W        W43235  18.284  34.033  11.956
70168W        W43236  40.951   2.440   3.651
70169W        W43237  26.172  27.913   3.346
70170W        W43238   8.231   3.795  14.977
70171W        W43239  21.313  35.518  14.964
70172W        W43240   5.721  26.680   4.300
70173W        W43241  42.887  24.183   3.807
70174W        W43242  22.206  38.339  11.141
70175W        W43243  24.536  35.007   3.201
70176W        W43244  40.874  34.478   4.742
70177W        W43245  34.996   2.451   2.306
70178W        W43246  15.167   2.867   3.135
70179W        W43247  37.019  29.936   1.450
70180W        W43248  27.062   8.654  13.465
70181W        W43249  20.696  22.524   2.840
70182W        W43250  41.648  42.997   2.381
70183W        W43251   2.492  36.020   4.086
70184W        W43252  28.629  24.054  12.893
70185W        W43253  35.663  20.064  14.859
70186W        W43254  44.494  27.153   0.591
70187W        W43255  10.374  22.041   2.378
70188W        W43256  34.986  22.776  11.024
70189W        W43257  41.012  43.450  14.755
70190W        W43258  27.532  32.889  14.025
70191W        W43259  43.453   4.709  10.603
70192W        W43260  14.599  34.505   4.577
70193W        W43261  34.272  39.552   4.988
70194W        W43262  21.763  13.369  12.429
70195W        W43263  39.318  29.872  14.469
70196W        W43264   6.894  27.944   0.748
70197W        W43265  26.438  36.529  11.571
70198W        W43266   6.811   7.688  13.318
70199W        W43267   5.449  35.628   0.892
70200W        W43268  31.291  44.775  13.009
70201W        W43269  34.041   1.456   1.619
70202W        W43270  11.325  30.214  13.911
70203W        W43271  28.827   5.641  13.414
70204W        W43272  22.668  27.861   3.191
70205W        W43273  12.262  41.571  11.851
70206W        W43274  22.539  22.134  12.868
70207W        W43275  26.041  43.133  10.978
70208W        W43276   4.316  33.159  13.375
70209W        W43277  43.929  19.198   2.716
70210W        W43278   2.734   3.661   2.207
70211W        W43279  22.008  28.222  10.620
70212W        W43280  38.362  26.635  13.007
70213W        W43281  20.501  25.630  11.179
70214W        W43282  41.932   8.564  10.085
70215W        W43283  34.107  36.384   2.623
70216W        W43284  19.842  20.189   3.389
70217W        W43285  42.546  23.947  14.357
70218W        W43286   1.616  29.531  11.098
70219W        W43287   9.199  17.609  12.504
70220W        W43288  44.749   0.708   2.379
70221W        W43289   5.373  19.330   4.576
70222W        W43290   7.401  10.223   1.722
70223W        W43291  24.708   7.303  13.909
70224W        W43292  26.215  36.620  14.386
70225W        W43293  16.321   5.789   0.950
70226W        W43294  30.691   0.069  14.602
70227W        W43295  15.030  24.446  11.013
70228W        W43296  41.253  25.538   3.839
70229W        W43297  41.510   1.881   4.708
70230W        W43298   2.723  23.958   0.366
70231W        W43299  31.857  33.927  10.432
70232W        W43300  41.224  42.108   0.963
70233W        W43301  18.821  28.106  12.600
70234W        W43302  36.884   3.442   0.227
70235W        W43303  25.225  21.645  11.135
70236W        W43304  38.501  31.622   3.085
70237W        W43305  13.307  11.165   2.311
70238W        W43306   5.389   4.901   0.859
70239W        W43307  13.208  22.344  12.067
70240W        W43308  11.937  20.479  12.130
70241W        W43309  33.179  11.399  11.211
70242W        W43310  25.581   8.398  14.276
70243W        W43311  32.845  20.888   0.858
70244W        W43312  33.421  32.237   1.213
70245W        W43313  14.367  18.612  12.555
70246W        W43314   7.809   2.410   2.468
70247W        W43315  19.524  21.031   2.294
70248W        W43316  20.170  17.764   1.424
70249W        W43317  32.273  20.531  14.592
70250W        W43318  30.299   1.731   4.600
70251W        W43319   4.605  34.356  12.160
70252W        W43320  26.106  18.164   0.024
70253W        W43321  23.915   1.833   4.684
70254W        W43322  20.905  22.031  11.719
70255W        W43323  29.738  30.113   4.176
70256W        W43324   1.176  24.553  12.464
70257W        W43325  29.082  36.862   0.176
70258W        W43326   0.254  28.043   2.162
70259W        W43327  17.221  21.573   2.334
70260W        W43328  17.827  34.136  12.164
70261W        W43329  44.500   8.235  11.097
70262W        W43330  21.441  14.237  12.661
70263W        W43331  27.314  22.003  12.594
70264W        W43332   0.750   6.191   1.715
70265W        W43333  41.391  26.593  10.314
70266W        W43334  37.394  25.059  11.992
70267W        W43335  40.995  25.065   1.459
70268W        W43336   3.370  44.933   4.882
70269W        W43337   6.921  28.955   4.119
70270W        W43338   0.035  32.971   2.678
70271W        W43339  38.929  17.691   2.991
70272W        W43340  21.093  30.727  10.160
70273W        W43341   4.911  14.066   3.628
70274W        W43342  16.651  31.650   0.688
70275W        W43343  43.618  34.063  14.843
70276W        W43344  21.670  22.279   2.725
70277W        W43345  37.303   1.744   1.334
70278W        W43346  43.199  10.968  13.669
70279W        W43347  42.734  38.325   1.828
70280W        W43348  37.807  11.694  10.663
70281W        W43349  20.560   3.465   2.562
70282W        W43350  20.862  23.418  12.813
70283W        W43351  42.423  11.616  14.057
70284W        W43352   0.526  34.291   1.698
70285W        W43353  25.090  21.105  12.311
70286W        W43354  36.114  39.327  13.349
70287W        W43355  13.204  18.378   3.365
70288W        W43356  23.228  25.219   0.722
70289W        W43357   9.927   4.203  13.457
70290W        W43358   7.918   7.146  12.105
70291W        W43359  25.176  31.035   0.768
70292W        W43360  12.341  24.987   4.906
70293W        W43361  21.559  15.525  12.803
70294W        W43362  35.537  38.592  11.278
70295W        W43363  25.112  24.116  10.731
70296W        W43364   8.399  22.955  13.973
70297W        W43365  35.180  13.977   4.102
70298W        W43366  27.175  20.372  12.014
70299W        W43367  31.680   3.491  11.069
70300W        W43368   5.156   7.754   1.347
70301W        W43369   6.308  28.418  13.419
70302W        W43370  31.753   4.313  13.849
70303W        W43371  10.606   4.212  13.994
70304W        W43372  21.186   9.688   1.096
70305W        W43373  35.999  38.588  10.423
70306W        W43374  23.611   8.452   4.673
70307W        W43375   7.727  33.129  14.797
70308W        W43376  15.514  15.245   2.706
70309W        W43377   6.588  17.552  14.789
70310W        W43378  33.505   3.306  10.512
70311W        W43379  31.497   4.425   1.726
70312W        W43380  38.583  25.507   2.430
70313W        W43381  15.855  40.152  11.578
70314W        W43382   9.818  30.732  11.128
70315W        W43383  21.142  24.627   1.847
70316W        W43384  22.150  26.747  11.913
70317W        W43385  24.097  25.019   2.425
70318W        W43386  31.993   0.729  10.764
70319W        W43387  30.518  28.890   3.091
70320W        W43388  15.655   2.114   1.233
70321W        W43389  39.721  15.234   2.306
70322W        W43390  30.600  28.041  13.783
70323W        W43391  11.343  34.516   2.389
70324W        W43392  44.828  18.288   2.338
70325W        W43393  18.747  11.761  11.226
70326W        W43394  29.954  33.665   2.870
70327W        W43395  40.039  32.853   1.193
70328W        W43396   9.570   0.950   2.734
70329W        W43397  26.313  41.177  13.357
70330W        W43398  34.558  26.406  10.610
70331W        W43399  21.040  23.752  12.009
70332W        W43400  30.814  13.256   1.902
70333W        W43401   5.816  43.889  13.624
70334W        W43402  39.620  17.461  14.160
70335W        W43403  13.376  35.149  11.453
70336W        W43404  28.085  18.669   3.414
70337W        W43405  37.902  43.972   4.224
70338W        W43406  16.631  19.433   0.384
70339W        W43407  10.019  15.912   5.125
70340W        W43408  21.657  38.404   3.757
70341W        W43409  23.491  11.844   0.805
70342W        W43410  15.106   9.893  14.863
70343W        W43411  22.561  14.491   3.332
70344W        W43412  15.789   2.280   1.701
70345W        W43413  38.923   3.773   2.665
70346W        W43414   4.871   8.541  14.376
70347W        W43415   5.262  14.629  13.885
70348W        W43416  36.020  37.534   3.149
70349W        W43417  26.640  14.241  13.033
70350W        W43418   4.036  20.027   3.645
70351W        W43419   9.943  10.400   2.102
70352W        W43420  11.093  39.143  13.432
70353W        W43421  12.807   8.777   2.699
70354W        W43422   9.845  27.609   3.178
70355W        W43423  16.245  25.816  13.095
70356W        W43424  34.626  19.628   5.095
70357W        W43425  17.290  44.961  12.033
70358W        W43426  14.374  30.158   2.201
70359W        W43427   2.968  23.406  14.588
70360W        W43428  35.092  18.180   4.298
70361W        W43429  13.188   9.654  13.419
70362W        W43430  42.846  34.019   4.632
70363W        W43431  12.060  29.597   2.604
70364W        W43432  13.153  15.722   4.090
70365W        W43433  22.595  22.073   0.355
70366W        W43434  33.982  11.604  11.109
70367W        W43435   4.419   3.163   1.484
70368W        W43436  38.014  40.477   2.763
70369W        W43437  12.765  11.692  13.778
70370W        W43438  25.090  18.404  10.472
70371W        W43439  28.606  22.493   1.715
70372W        W43440  18.161  43.516   1.174
70373W        W43441  29.969  30.599   1.893
70374W        W43442  15.242  44.384  11.445
70375W        W43443   9.168  16.166  13.829
70376W        W43444  38.525   1.520  14.682
70377W        W43445  19.005  16.327   0.685
70378W        W43446   7.770  38.871  11.588
70379W        W43447   7.479  38.075   0.706
70380W        W43448   1.925  20.735  14.730
70381W        W43449  41.793   7.837   2.199
70382W        W43450  33.240  36.648  11.920
70383W        W43451  14.069  28.146  14.410
70384W        W43452  27.541  11.440  12.832
70385W        W43453  34.133   9.075  13.311
70386W        W43454   5.361   7.275  13.981
70387W        W43455   8.895  41.524  12.425
70388W        W43456  24.069   8.244   4.583
70389W        W43457  31.464  41.711   3.672
70390W        W43458  33.063  12.342  14.465
70391W        W43459  32.145   6.912   4.611
70392W        W43460  17.273  12.095   4.872
70393W        W43461  34.087  41.907  10.496
70394W        W43462  19.146  31.917  12.115
70395W        W43463  34.552  28.233  12.100
70396W        W43464  26.760  13.356  10.993
70397W        W43465  10.317  29.084   0.597
70398W        W43466  33.886  28.104   2.292
70399W        W43467  37.500  29.444  12.840
70400W        W43468  42.480  42.170  10.709
70401W        W43469  36.466   3.738  13.918
70402W        W43470   0.240  20.198  10.377
70403W        W43471   4.718   3.454   4.275
70404W        W43472   1.478  18.223   0.885
70405W        W43473  28.448  27.084  11.328
70406W        W43474  23.945  39.085   0.856
70407W        W43475  21.515  22.685  14.579
70408W        W43476   1.431  40.936  13.583
70409W        W43477  21.850  38.953   2.273
70410W        W43478  42.018  41.883  10.584
70411W        W43479  22.034  19.821  12.909
70412W        W43480  18.113  38.160  14.403
70413W        W43481   3.084   9.108  11.123
70414W        W43482  25.930   2.880  14.748
70415W        W43483   8.880  41.511  11.545
70416W        W43484  26.541  36.069  14.073
70417W        W43485  42.413  12.726  13.316
70418W        W43486  35.541   4.448   1.314
70419W        W43487   6.413  31.519   0.753
70420W        W43488  17.883  19.017  12.950
70421W        W43489  37.227  18.996  12.044
70422W        W43490  30.511  40.285   2.558
70423W        W43491  23.167  43.878   3.847
70424W        W43492  33.336  30.390   2.717
70425W        W43493  17.029  15.361   3.713
70426W        W43494  13.164  43.428  11.599
70427W        W43495  18.911  40.419  13.262
70428W        W43496  33.571   1.053   3.233
70429W        W43497  11.168  33.545  13.779
70430W        W43498  20.221   0.486   4.303
70431W        W43499  41.682  25.128   0.357
70432W        W43500  16.134  33.127  11.248
70433W        W43501  43.617  33.592  12.888
70434W        W43502  29.484  23.115  10.902
70435W        W43503   1.424   2.866   4.617
70436W        W43504   2.377  42.789  11.512
70437W        W43505  38.034  41.045  12.385
70438W        W43506  16.669   7.715   0.008
70439W        W43507  25.178  36.628   3.357
70440W        W43508  34.350  30.699   3.689
70441W        W43509  16.875   2.391  11.441
70442W        W43510  18.339   8.965  14.475
70443W        W43511   6.699  17.873  11.964
70444W        W43512   5.800  26.509   2.799
70445W        W43513  14.791  38.516   4.583
70446W        W43514  40.929  32.619  11.408
70447W        W43515  42.362  13.108  12.979
70448W        W43516  11.391  26.634  13.484
70449W        W43517  37.485   4.143  10.719
70450W        W43518  16.327  33.882  13.535
70451W        W43519   8.000  26.879   4.870
70452W        W43520   8.701  24.494  11.934
70453W        W43521  43.358  42.779   0.497
70454W        W43522   2.863  44.419  11.638
70455W        W43523  36.823  10.741  12.705
70456W        W43524  35.842  32.509  12.589
70457W        W43525  19.731  22.990  14.315
70458W        W43526   3.345   9.338  12.091
70459W        W43527   9.717  19.724   4.039
70460W        W43528  21.456   4.733  12.474
70461W        W43529  14.224  14.528   0.673
70462W        W43530  12.158  34.450   2.268
70463W        W43531  10.236  16.220   4.366
70464W        W43532  39.215  23.663  13.584
70465W        W43533  13.823  17.716   4.524
70466W        W43534  39.115  10.848  11.909
70467W        W43535  18.398  25.703   3.138
70468W        W43536  26.097  34.493   2.148
70469W        W43537  11.159   6.250   2.298
70470W        W43538  42.219  16.140  13.928
70471W        W43539  21.503  39.928  12.992
70472W        W43540   8.588  13.457   1.046
70473W        W43541   0.375  35.846   2.815
70474W        W43542  43.030  41.020   1.282
70475W        W43543  26.927  13.731  13.978
70476W        W43544   7.684   1.235  11.550
70477W        W43545  36.399  34.173  14.851
70478W        W43546  39.034   4.611  12.943
70479W        W43547  33.141   4.463   0.928
70480W        W43548  26.219  43.942   2.394
70481W        W43549  12.166  38.539   1.846
70482W        W43550  12.750  29.062   1.014
70483W        W43551  28.717  20.665   4.393
70484W        W43552  11.612   9.727  14.840
70485W        W43553   5.300  14.894  11.522
70486W        W43554  19.503  29.969   3.920
70487W        W43555  29.936  36.144   2.885
70488W        W43556  35.144   6.454   4.501
70489W        W43557  31.095  24.241   2.168
70490W        W43558   8.858  22.431  11.869
70491W        W43559   1.753  29.615   3.647
70492W        W43560  38.436   2.422  14.700
70493W        W43561  29.822  11.775  11.867
70494W        W43562  28.690   0.893  14.779
70495W        W43563  38.800  39.261   1.845
70496W        W43564  15.687   8.290  13.028
70497W        W43565  24.151  30.424  13.841
70498W        W43566  37.950  14.989  12.902
70499W        W43567  26.543  23.247  14.962
70500W        W43568  20.675  23.958   0.414
70501W        W43569  29.449   8.165  11.522
70502W        W43570  42.496  28.500   4.110
70503W        W43571  20.945   6.948   4.016
70504W        W43572  44.505   4.303  12.441
70505W        W43573   4.420   8.274   1.665
70506W        W43574  43.893   1.873  14.070
70507W        W43575  23.595  14.119   0.765
70508W        W43576  35.432  39.751   1.910
70509W        W43577  13.322  38.402  11.249
70510W        W43578  24.000  19.546   0.578
70511W        W43579   8.804  33.638   2.394
70512W        W43580   3.067  21.505  12.425
70513W        W43581  44.820  39.131   5.090
70514W        W43582  22.191  33.500  14.780
70515W        W43583  30.604  36.392   0.890
70516W        W43584   4.441  11.714   2.709
70517W        W43585  28.572  42.745   1.126
70518W        W43586  35.972  34.875   9.998
70519W        W43587  27.536  32.773   4.405
70520W        W43588  43.461  29.918  10.742
70521W        W43589  21.597   9.773   2.722
70522W        W43590  16.513  36.698  13.033
70523W        W43591   0.766  13.030   3.193
70524W        W43592  15.854  20.549  10.458
70525W        W43593  31.936  26.051   3.780
70526W        W43594   5.884  20.296   1.825
70527W        W43595   6.662  31.399  13.025
70528W        W43596  41.732  25.452   1.921
70529W        W43597  36.753  17.385   3.283
70530W        W43598  31.082  16.169   4.387
70531W        W43599  16.531   7.093   2.894
70532W        W43600  24.006  44.718   3.333
70533W        W43601  33.578  10.697   4.124
70534W        W43602  15.180  39.918  13.351
70535W        W43603  12.615  28.687   3.669
70536W        W43604   3.485  24.762  11.488
70537W        W43605  40.404  32.112   0.388
70538W        W43606  36.509  17.224   2.207
70539W        W43607  11.360  34.007  11.143
70540W        W43608  15.222  30.186  13.121
70541W        W43609  11.834  26.431   2.624
70542W        W43610   0.274  33.177   4.087
70543W        W43611  16.602  21.118   3.392
70544W        W43612  30.103  44.446   1.419
70545W        W43613  33.138   6.888   4.572
70546W        W43614  32.316  28.118  10.760
70547W        W43615  43.591   3.224  12.541
70548W        W43616  23.511  37.398   4.898
70549W        W43617  17.678  18.547   4.560
70550W        W43618  37.904  37.697   1.374
70551W        W43619  39.101  23.188   0.336
70552W        W43620  19.162  26.382   2.162
70553W        W43621  37.047  37.978  11.158
70554W        W43622   0.529  11.396  11.875
70555W        W43623  23.311  21.472  14.112
70556W        W43624  11.449  29.719   3.810
70557W        W43625  19.743  35.669  13.499
70558W        W43626  12.377  30.870   1.349
70559W        W43627   1.040  39.884   1.318
70560W        W43628  40.083  21.077   4.650
70561W        W43629  36.180  44.274  13.438
70562W        W43630  12.824   5.134   1.204
70563W        W43631  41.985  42.861  13.925
70564W        W43632   0.724  35.651   4.378
70565W        W43633  41.927  20.509   0.898
70566W        W43634   4.177  28.571  11.017
70567W        W43635  14.644   3.679  14.736
70568W        W43636   0.404  13.101  14.180
70569W        W43637  24.564  34.569   3.470
70570W        W43638   2.751  27.121   1.812
70571W        W43639  10.362  34.639  11.151
70572W        W43640   3.606  25.442  14.725
70573W        W43641  42.540  44.214  13.086
70574W        W43642   8.999   9.605   1.705
70575W        W43643  22.681  22.670  10.017
70576W        W43644  28.962  35.619  14.068
70577W        W43645   4.468  36.812   1.717
70578W        W43646   5.823   1.434  14.738
70579W        W43647  39.309  27.256  11.205
70580W        W43648  16.120  22.455  10.828
70581W        W43649  17.137  44.566   0.907
70582W        W43650  21.447  24.213  10.190
70583W        W43651  29.875  18.362  12.891
70584W        W43652  37.292  33.958   2.923
70585W        W43653   2.518  39.771   4.560
70586W        W43654  23.136  33.916  10.551
70587W        W43655   6.983   5.840  13.128
70588W        W43656   3.425   0.726   0.862
70589W        W43657  23.340  32.217  13.922
70590W        W43658  26.223  21.795   0.040
70591W        W43659   5.465  11.624   2.220
70592W        W43660   0.103  29.989  12.594
70593W        W43661  28.709  30.493  12.199
70594W        W43662  15.133  43.720  10.663
70595W        W43663  33.596  16.140   2.294
70596W        W43664  43.957  27.108  12.920
70597W        W43665  40.076   6.273  10.850
70598W        W43666  40.536   9.955  14.905
70599W        W43667  41.441  22.997   4.110
70600W        W43668  19.589  16.076   2.369
70601W        W43669  44.686  44.832  11.187
70602W        W43670   1.431  22.198   2.149
70603W        W43671   4.721  32.619  11.661
70604W        W43672  33.037  17.583  11.105
70605W        W43673  30.833  17.298  13.940
70606W        W43674  30.080  22.840  13.726
70607W        W43675  20.549  44.272  11.091
70608W        W43676   5.716  27.482   1.947
70609W        W43677  40.882  27.351   2.252
70610W        W43678  13.522   0.379   4.104
70611W        W43679  28.078  39.749   2.224
70612W        W43680  25.286  18.898   3.958
70613W        W43681  13.632  35.960   3.577
70614W        W43682  32.083  35.430  12.579
70615W        W43683  10.488  16.714  10.297
70616W        W43684  19.297  28.468  10.689
70617W        W43685   1.943  19.095  11.218
70618W        W43686   9.917  15.906  14.876
70619W        W43687  17.660  13.791   1.974
70620W        W43688   8.832  16.799  12.291
70621W        W43689  17.344  11.369   3.798
70622W        W43690  27.715   7.355   2.158
70623W        W43691  42.145  27.101   1.622
70624W        W43692  10.686  14.226  13.493
70625W        W43693  15.085  44.437  14.832
70626W        W43694  21.194  24.307  11.379
70627W        W43695  19.151   6.814  14.503
70628W        W43696  35.000   7.158   2.712
70629W        W43697  43.688  32.725   2.283
70630W        W43698  37.604  43.954  14.891
70631W        W43699  28.759  14.706  14.441
70632W        W43700  22.663  17.658   0.135
70633W        W43701  10.768  26.853   3.791
70634W        W43702  19.611   0.357  11.066
70635W        W43703   4.910  12.215  14.062
70636W        W43704  34.506  23.422   2.835
70637W        W43705  26.476  42.503  12.380
70638W        W43706  10.786  16.768  13.719
70639W        W43707   4.336   3.765   4.596
70640W        W43708  19.579  16.545   0.086
70641W        W43709  19.510  37.993   4.603
70642W        W43710   7.648   4.756   2.335
70643W        W43711  15.504  14.093   2.323
70644W        W43712   5.298  11.692  10.789
70645W        W43713  32.445  44.876  12.721
70646W        W43714   4.327  30.437   1.680
70647W        W43715  24.981   5.200  12.054
70648W        W43716   8.174  35.832   1.648
70649W        W43717   2.985  26.751   4.501
70650W        W43718  25.393  18.412   3.795
70651W        W43719  34.452  33.000  14.863
70652W        W43720   3.501   3.345   1.227
70653W        W43721  25.097   3.498  12.376
70654W        W43722   3.532   8.217   1.247
70655W        W43723   4.525  18.947   0.464
70656W        W43724   6.933  20.187   0.462
70657W        W43725  21.216  12.441   1.282
70658W        W43726  37.996  39.323   0.173
70659W        W43727  40.958  44.459   3.900
70660W        W43728  27.698  17.721   0.916
70661W        W43729  32.426  36.965   0.912
70662W        W43730  22.167  43.366   3.662
70663W        W43731  21.908  12.820   2.620
70664W        W43732  19.221   3.691   0.253
70665W        W43733   5.851  43.019   1.718
70666W        W43734  11.853  28.403  12.043
70667W        W43735  13.319  24.505  14.288
70668W        W43736  26.727   3.941   1.340
70669W        W43737  20.805  21.599   4.019
70670W        W43738  30.263  11.812  10.968
70671W        W43739  31.472  41.645   1.455
70672W        W43740   0.874   8.217  11.530
70673W        W43741  24.116  19.218  10.679
70674W        W43742  27.285   0.692   4.137
70675W        W43743  37.884  21.702  12.538
70676W        W43744  31.681  29.699  11.080
70677W        W43745   1.721   0.821   3.260
70678W        W43746  26.570  36.160  12.075
70679W        W43747  38.050  31.679  11.611
70680W        W43748   9.849  37.600  14.318
70681W        W43749  26.814   1.291  14.549
70682W        W43750  41.581  29.030  13.035
70683W        W43751  27.945   1.440   1.305
70684W        W43752  32.168   7.374   1.701
70685W        W43753  31.805  17.162  15.000
70686W        W43754  28.880  12.857  12.407
70687W        W43755   6.337  41.881  14.509
70688W        W43756  11.839  14.259   2.318
70689W        W43757   9.440  36.032   1.422
70690W        W43758   4.991   7.656   1.853
70691W        W43759  25.229   9.340   0.407
70692W        W43760  41.025   9.320   0.368
70693W        W43761  25.500  26.966   1.796
70694W        W43762  33.388  14.741  12.642
70695W        W43763  24.164   6.263   1.423
70696W        W43764  17.838  31.905   4.181
70697W        W43765  29.038  43.303  12.851
70698W        W43766  19.132  23.584   4.112
70699W        W43767  28.539   5.888   3.683
70700W        W43768   0.391  18.692  11.905
70701W        W43769  11.775   9.733  10.964
70702W        W43770  13.052  13.703  11.880
70703W        W43771  35.438  21.464  12.390
70704W        W43772   0.942   9.622   0.792
70705W        W43773  11.543   2.733   0.022
70706W        W43774   4.524  32.049   2.735
70707W        W43775  43.241  21.160  11.890
70708W        W43776  30.153  21.106   2.836
70709W        W43777  44.422   3.833   3.210
70710W        W43778  44.714  11.588  14.471
70711W        W43779   3.363  44.077   1.626
70712W        W43780   0.009  30.590   1.807
70713W        W43781  38.485  12.160  13.960
70714W        W43782  12.260  35.702  12.108
70715W        W43783  12.736  37.216  10.757
70716W        W43784  24.514  31.682   1.714
70717W        W43785  30.215  11.358  14.610
70718W        W43786  40.234  16.454   3.735
70719W        W43787  30.418   4.786   3.538
70720W        W43788   6.027  34.608  13.453
70721W        W43789  20.786   7.275  11.935
70722W        W43790  32.255  34.431   2.706
70723W        W43791  18.278  39.883   1.885
70724W        W43792  12.906   7.221  11.083
70725W        W43793  34.323   2.919  10.673
70726W        W43794   2.140  15.216  11.053
70727W        W43795   0.460  12.322   2.153
70728W        W43796  16.088  33.876  13.061
70729W        W43797   9.705  38.485   2.402
70730W        W43798  22.563   7.939  13.467
70731W        W43799  41.805  21.317   4.236
70732W        W43800  44.570  10.848  10.656
70733W        W43801  40.971  42.009  12.931
70734W        W43802  37.887   8.890  10.710
70735W        W43803  29.433  40.313   1.684
70736W        W43804  11.241   5.163  14.382
70737W        W43805   1.989  17.687  14.225
70738W        W43806  34.300  29.726  12.045
70739W        W43807  18.758  37.579   4.504
70740W        W43808  41.948  10.575   1.673
70741W        W43809  15.836  42.668  11.522
70742W        W43810  20.728   4.425  11.766
70743W        W43811  15.579  42.368  13.385
70744W        W43812   1.912  10.823  11.338
70745W        W43813  13.807  11.783  11.771
70746W        W43814  16.090  38.499   4.098
70747W        W43815  19.121   4.885  12.888
70748W        W43816   9.960  40.589  10.833
70749W        W43817   1.811  27.989  11.161
70750W        W43818   4.311  20.637  11.307
70751W        W43819  28.587  31.091  12.939
70752W        W43820  28.396  38.072   0.013
70753W        W43821  33.813  17.744   3.288
70754W        W43822  28.137   5.478   4.710
70755W        W43823  16.008  43.677  12.613
70756W        W43824  18.578   5.423  10.507
70757W        W43825   9.337  42.759  13.511
70758W        W43826  11.935  20.072  14.512
70759W        W43827   8.381  38.592  10.609
70760W        W43828  18.130   7.749   0.030
70761W        W43829  33.941  36.660   4.526
70762W        W43830   3.734   0.680   1.783
70763W        W43831  13.104  24.009   1.898
70764W        W43832  42.495  32.885  10.496
70765W        W43833   3.556  32.347   1.236
70766W        W43834  22.223  16.720   0.017
70767W        W43835  37.759  15.259   4.842
70768W        W43836  27.386  17.758  14.868
70769W        W43837   9.139  34.156   1.966
70770W        W43838  35.063  40.384  14.418
70771W        W43839  33.992  20.110   1.864
70772W        W43840  20.075   7.703  12.860
70773W        W43841   3.906  27.516   0.344
70774W        W43842  28.178   9.970   2.280
70775W        W43843  40.336  42.648  11.608
70776W        W43844   9.840  34.364   0.470
70777W        W43845   6.701  30.211  14.788
70778W        W43846   9.209   0.265   0.949
70779W        W43847   1.912  32.460  14.000
70780W        W43848  26.185  28.540   4.454
70781W        W43849  21.795  19.519   0.417
70782W        W43850  37.141  38.454   3.189
70783W        W43851   8.449  20.848   2.203
70784W        W43852  32.522   8.193   3.361
70785W        W43853  13.259  36.636  12.931
70786W        W43854  16.027   7.208   0.444
70787W        W43855  16.593  42.709   1.704
70788W        W43856  12.673   8.364  11.491
70789W        W43857  40.802   0.974  14.836
70790W        W43858   6.768   8.857   2.190
70791W        W43859  22.056   9.664   1.847
70792W        W43860   9.815  19.587   0.764
70793W        W43861  44.192  19.732   4.002
70794W        W43862  31.621   9.942   2.338
70795W        W43863  43.804  37.496   1.183
70796W        W43864  10.659  31.038   0.062
70797W        W43865  13.535   5.814  14.792
70798W        W43866  31.590   7.357   0.390
70799W        W43867  35.120  33.180   2.096
70800W        W43868   2.828  28.222   1.828
70801W        W43869  16.809  24.517  10.801
70802W        W43870  12.306  40.338   3.425
70803W        W43871  44.550  12.368   2.294
70804W        W43872   3.583  24.619  13.849
70805W        W43873  36.935  32.181  13.907
70806W        W43874  17.964  35.409  11.800
70807W        W43875  40.853  24.579  14.485
70808W        W43876  18.187  19.119   0.145
70809W        W43877  42.912   3.250   3.618
70810W        W43878  38.091   9.817  11.036
70811W        W43879  10.368  31.186   3.672
70812W        W43880  43.355   7.733   4.823
70813W        W43881   4.529  35.431  13.411
70814W        W43882   2.702  39.997   2.823
70815W        W43883   6.798  26.480   4.963
70816W        W43884   7.582  16.873   4.649
70817W        W43885  29.424  44.316  11.062
70818W        W43886  27.172   9.186  10.729
70819W        W43887  14.197  35.895   2.249
70820W        W43888  25.419  15.556  12.385
70821W        W43889  38.130   6.184   4.165
70822W        W43890   4.361  26.430  11.229
70823W        W43891  14.672   5.249  12.355
70824W        W43892   4.348  13.855   3.347
70825W        W43893  39.316   0.679  11.513
70826W        W43894   2.518  30.054   3.659
70827W        W43895  19.780   1.332   2.963
70828W        W43896   5.224  27.140   0.441
70829W        W43897  31.594   0.474  14.083
70830W        W43898  25.421  22.450  14.970
70831W        W43899  14.207  41.041  10.342
70832W        W43900  35.901  36.006  14.952
70833W        W43901  29.986  22.437  14.681
70834W        W43902  16.653  27.914   4.980
70835W        W43903  26.508  10.711   0.777
70836W        W43904   3.505  31.913   2.701
70837W        W43905  20.407  33.346  12.391
70838W        W43906   6.406  35.209  14.088
70839W        W43907  11.395   5.871   3.684
70840W        W43908  26.127   4.823   2.119
70841W        W43909  34.167  28.828   4.677
70842W        W43910  40.551  43.914   2.337
70843W        W43911  32.062  16.146   2.873
70844W        W43912   7.269   5.294  14.332
70845W        W43913  43.239  31.499  11.020
70846W        W43914  41.737  31.695   2.746
70847W        W43915  36.163  29.663  12.415
70848W        W43916  19.045  17.516   1.921
70849W        W43917  18.444  33.945   1.621
70850W        W43918  22.880  43.820   5.162
70851W        W43919  23.712  10.624   0.259
70852W        W43920  15.227  39.388  13.243
70853W        W43921  27.135  12.260   5.133
70854W        W43922  40.831  42.254  11.576
70855W        W43923  18.538  32.193   2.836
70856W        W43924  11.706  26.100  11.306
70857W        W43925  17.791  33.535  13.835
70858W        W43926  21.268  33.488  11.949
70859W        W43927   6.859  11.777   1.246
70860W        W43928  30.128  15.611  11.661
70861W        W43929  42.400  40.105   0.179
70862W        W43930  32.857   0.640   1.405
70863W        W43931  31.465  30.846   0.432
70864W        W43932   6.675  43.075  12.452
70865W        W43933  25.877  42.858  11.429
70866W        W43934  10.880  23.965   2.092
70867W        W43935  14.162  22.183   1.229
70868W        W43936  31.823   7.949   4.975
70869W        W43937  38.554  27.043   3.649
70870W        W43938   9.272  26.735   1.737
70871W        W43939  26.931  34.222   0.796
70872W        W43940   5.907  40.526   0.384
70873W        W43941  33.139  27.784  13.088
70874W        W43942  10.784   9.017  12.299
70875W        W43943  21.394  37.246   0.374
70876W        W43944   5.305   9.861   0.322
70877W        W43945   3.444  25.269   2.363
70878W        W43946  36.622  30.997   4.073
70879W        W43947  19.072  36.382   4.229
70880W        W43948  33.324  14.310   3.951
70881W        W43949  10.846  20.086   3.255
70882W        W43950  33.212  27.724  14.317
70883W        W43951  12.898  16.187  14.452
70884W        W43952  26.508  16.168  13.356
70885W        W43953  32.404   4.238   4.803
70886W        W43954   7.559  17.091   0.981
70887W        W43955  24.691  11.347   3.689
70888W        W43956  30.385  30.683  13.041
70889W        W43957  40.078  39.527  11.811
70890W        W43958  26.424  11.148   2.038
70891W        W43959   2.414   1.323   4.408
70892W        W43960  10.295   4.349   1.422
70893W        W43961  21.720  19.743  13.322
70894W        W43962   9.619  18.219  11.977
70895W        W43963  33.565   0.923  11.949
70896W        W43964   3.281  12.634   4.721
70897W        W43965  38.499  43.511  11.805
70898W        W43966  19.884  30.923  11.622
70899W        W43967  39.580  19.719  14.586
70900W        W43968  31.133  18.828  11.123
70901W        W43969  11.351  23.679   0.925
70902W        W43970  19.816   8.680  11.011
70903W        W43971   5.418  28.367  12.937
70904W        W43972  19.843   2.957   2.228
70905W        W43973  42.037   2.406  11.010
70906W        W43974  13.723  35.557   1.693
70907W        W43975   4.975   9.823   0.763
70908W        W43976  20.190  15.364   1.182
70909W        W43977  37.073  15.216   2.278
70910W        W43978  17.516   1.748   4.334
70911W        W43979  19.706  34.755   0.780
70912W        W43980   1.854   7.985  12.844
70913W        W43981  25.512   2.672   3.244
70914W        W43982  43.072   8.331  12.872
70915W        W43983  30.476  29.089   3.574
70916W        W43984  41.447  33.285   0.397
70917W        W43985  16.617   2.925   4.884
70918W        W43986   8.244   7.384   3.548
70919W        W43987   0.423  32.846   1.845
70920W        W43988  34.043  20.802   0.211
70921W        W43989   6.334   6.239   3.207
70922W        W43990  37.862  11.860   2.849
70923W        W43991  19.630   8.910   1.475
70924W        W43992   7.905  35.925   4.036
70925W        W43993  16.847  32.440  12.078
70926W        W43994  43.700  27.571  13.656
70927W        W43995  11.357   7.444  14.055
70928W        W43996   3.781  28.956   0.834
70929W        W43997  25.022  41.135   1.632
70930W        W43998   1.819  28.590  11.982
70931W        W43999  13.739   1.969  11.647
70932W        W44000  13.585  18.294   0.464
70933W        W44001  19.397  19.162   3.002
70934W        W44002  18.585  18.080   3.223
70935W        W44003  14.227  13.573  11.041
70936W        W44004  38.255  40.552  13.908
70937W        W44005  10.144  18.259  14.977
70938W        W44006  19.500   6.241   0.459
70939W        W44007  28.570  33.922  11.146
70940W        W44008  27.927  33.336   1.360
70941W        W44009  27.031  31.886  10.687
70942W        W44010  11.720  38.594   4.614
70943W        W44011   0.481  35.524  14.701
70944W        W44012  35.782  19.166  12.001
70945W        W44013  14.255  34.282  13.936
70946W        W44014  41.743  23.328   3.701
70947W        W44015  13.942   9.270  14.686
70948W        W44016  44.563  15.658   3.794
70949W        W44017   4.901   5.593  14.577
70950W        W44018  10.602  35.427  13.058
70951W        W44019  26.983   7.420  12.886
70952W        W44020  11.371  37.251   2.219
70953W        W44021  24.065  27.246  10.779
70954W        W44022  28.161  15.763   5.087
70955W        W44023   1.842   3.380  11.024
70956W        W44024   7.392  33.135   2.946
70957W        W44025  19.616  38.865  11.831
70958W        W44026  18.549   6.149  13.436
70959W        W44027  40.956   4.015  13.428
70960W        W44028  36.716  39.805  13.500
70961W        W44029   1.797  11.269   0.727
70962W        W44030   4.531   1.460   4.819
70963W        W44031  15.096  42.437   3.373
70964W        W44032  23.225  15.230   1.898
70965W        W44033  38.016  27.229  12.868
70966W        W44034  30.158   1.495   0.998
70967W        W44035  20.221  13.107   0.445
70968W        W44036  18.725  39.971  12.962
70969W        W44037  27.237  33.885   3.889
70970W        W44038  10.103  14.382   2.407
70971W        W44039  37.471  39.069  13.346
70972W        W44040  21.225  17.666  12.740
70973W        W44041   9.025  26.633   4.562
70974W        W44042  18.782   3.254   1.918
70975W        W44043  26.709  41.292  14.399
70976W        W44044  44.201  35.346   1.734
70977W        W44045   2.952  30.501   3.097
70978W        W44046  15.858  19.075   3.094
70979W        W44047  44.264   9.136  13.920
70980W        W44048  26.757   9.333   1.838
70981W        W44049  30.413  23.933   2.923
70982W        W44050   0.431   4.698  11.577
70983W        W44051  34.667  43.954  14.886
70984W        W44052  10.873  20.690   0.957
70985W        W44053  27.151  26.691  13.503
70986W        W44054  32.989  40.775   3.727
70987W        W44055   6.843  27.171  13.366
70988W        W44056   3.200   3.735  11.189
70989W        W44057  18.962  18.794   3.209
70990W        W44058   1.405  16.394  13.985
70991W        W44059   5.493  34.325   0.200
70992W        W44060   9.886  34.600   3.700
70993W        W44061   9.797  25.256  12.918
70994W        W44062   3.919  15.596   1.637
70995W        W44063  42.588  36.349  13.822
70996W        W44064  39.093  14.089   4.196
70997W        W44065  27.437  28.078  13.636
70998W        W44066   5.172  14.653   2.974
70999W        W44067   8.673  25.675  10.567
71000W        W44068  18.114  16.143  12.061
71001W        W44069  10.344  26.758  12.115
71002W        W44070  41.870   9.509  12.113
71003W        W44071  16.077  43.713   0.994
71004W        W44072  12.443  24.567   0.870
71005W        W44073  14.643   4.495   0.790
71006W        W44074  10.456   3.640   2.670
71007W        W44075  25.009  43.722   4.255
71008W        W44076  24.067   9.302   3.413
71009W        W44077  39.938  16.816   2.454
71010W        W44078  19.091   5.839  14.256
71011W        W44079  31.692  43.494   1.373
71012W        W44080  21.154  23.111  10.496
71013W        W44081  17.308  41.819  12.625
71014W        W44082  44.277  29.983   0.917
71015W        W44083  12.801  28.740  11.166
71016W        W44084  10.062  37.047   3.754
71017W        W44085  16.326  42.428  14.532
71018W        W44086  34.604  10.304   1.663
71019W        W44087   3.965  42.773  11.512
71020W        W44088  15.710   1.321   1.903
71021W        W44089  14.119  14.082  11.087
71022W        W44090  20.681  38.863  10.044
71023W        W44091  23.655   1.410  11.602
71024W        W44092  14.024  27.765   3.139
71025W        W44093  26.553  23.802   0.949
71026W        W44094  12.960  14.228  13.509
71027W        W44095   4.857  29.363   2.226
71028W        W44096  10.555  22.508   2.249
71029W        W44097  12.876  21.672  11.198
71030W        W44098  41.132   6.630  12.864
71031W        W44099  17.218   2.043   1.898
71032W        W44100  38.439   7.362   4.432
71033W        W44101   6.354  32.644  13.470
71034W        W44102  11.103  38.919   4.159
71035W        W44103   3.528  33.953   1.163
71036W        W44104   7.840  35.810  13.844
71037W        W44105   0.412   4.187   4.919
71038W        W44106   9.226  14.368   5.096
71039W        W44107   5.967  15.759  10.625
71040W        W44108  24.090  23.513  12.958
71041W        W44109  16.776  10.110  11.576
71042W        W44110  13.736  43.318   4.220
71043W        W44111  10.634  18.847   2.281
71044W        W44112  36.972   7.614  11.107
71045W        W44113  11.321  17.257   1.758
71046W        W44114  19.173  25.555  12.984
71047W        W44115  44.062  17.050   3.176
71048W        W44116  12.089  37.958  13.950
71049W        W44117  40.821  21.674  13.757
71050W        W44118  12.452   3.196  14.499
71051W        W44119  29.593  42.073  12.706
71052W        W44120   0.293   8.783  12.483
71053W        W44121   0.419  17.675   2.673
71054W        W44122  12.757  33.395  12.179
71055W        W44123  44.568  25.063  10.610
71056W        W44124  29.352  35.463  14.382
71057W        W44125  39.307  29.727   2.701
71058W        W44126  21.883  19.111  14.864
71059W        W44127  16.323  16.153   2.195
71060W        W44128  17.230   7.568   0.814
71061W        W44129  29.204   7.845  11.067
71062W        W44130  39.354   9.138  11.126
71063W        W44131  28.916   2.096  11.978
71064W        W44132  11.635  14.174  14.313
71065W        W44133  23.447  33.909  14.507
71066W        W44134   4.702   9.108   0.836
71067W        W44135  24.982  22.422   3.666
71068W        W44136  23.930   4.770  11.650
71069W        W44137  23.320  21.551  12.981
71070W        W44138  29.680   8.432  14.946
71071W        W44139  28.568  31.858   1.738
71072W        W44140  32.879  13.296  11.668
71073W        W44141  13.723  28.052   3.426
71074W        W44142  16.376   2.158  14.243
71075W        W44143   0.887  15.059  11.124
71076W        W44144  24.701  23.047  12.433
71077W        W44145  24.776  30.615   4.460
71078W        W44146  36.856   2.489   2.261
71079W        W44147   0.190   5.841   2.249
71080W        W44148  39.549   3.952   0.773
71081W        W44149  12.206   5.431   3.970
71082W        W44150  30.603  42.923   3.854
71083W        W44151  11.628  28.047   3.636
71084W        W44152  23.605   8.140  14.791
71085W        W44153  29.977  27.141   0.381
71086W        W44154  18.345  17.625  12.460
71087W        W44155  24.085  10.605  14.268
71088W        W44156   0.878  28.124   2.744
71089W        W44157  11.207  44.562   1.712
71090W        W44158  42.705   4.767  10.957
71091W        W44159   0.860  17.358   3.251
71092W        W44160  43.913  11.080   1.865
71093W        W44161  10.773  18.902   1.142
71094W        W44162   6.675   2.765   2.749
71095W        W44163  19.154  30.733   1.095
71096W        W44164  34.577  10.613  10.490
71097W        W44165  31.821  26.890   4.957
71098W        W44166  13.422  27.940   4.217
71099W        W44167  36.850  11.795   0.360
71100W        W44168   9.655  25.602   3.268
71101W        W44169  27.466  18.907   0.224
71102W        W44170  20.709  28.425   3.313
71103W        W44171  21.791  41.532   0.720
71104W        W44172  43.073  22.515  13.421
71105W        W44173  35.712  36.044  14.466
71106W        W44174  24.927  23.659   0.951
71107W        W44175  32.572  27.677  10.807
71108W        W44176  36.062   8.265  11.673
71109W        W44177  21.315  34.344   0.512
71110W        W44178   3.741  35.544   0.331
71111W        W44179  43.868  19.747   1.403
71112W        W44180  11.465  20.911   4.901
71113W        W44181  36.466   1.283   1.334
71114W        W44182  43.925   0.938  10.997
71115W        W44183  28.751  37.444   4.195
71116W        W44184   7.700  36.364  11.902
71117W        W44185   4.898   5.704  12.502
71118W        W44186   2.945  33.074   3.388
71119W        W44187   8.183  32.036   1.429
71120W        W44188   7.821  23.266  12.903
71121W        W44189   9.746  20.505   4.640
71122W        W44190  20.491  34.695  13.372
71123W        W44191   5.603   6.798   0.878
71124W        W44192  17.308  33.331  13.903
71125W        W44193  41.033  12.737   4.341
71126W        W44194  12.127  28.332   0.291
71127W        W44195  10.803  31.051   0.598
71128W        W44196  28.043   3.675   2.125
71129W        W44197  28.920   6.423  11.052
71130W        W44198  25.690  24.744  14.384
71131W        W44199  12.693  26.481   2.970
71132W        W44200  11.762  35.299   1.377
71133W        W44201  23.143  32.708  13.907
71134W        W44202  22.860   0.021  14.430
71135W        W44203   3.718  20.742  13.920
71136W        W44204  39.477  36.806   2.313
71137W        W44205  11.116  26.763   4.590
71138W        W44206   7.726  34.513  13.420
71139W        W44207   9.409  11.122   2.326
71140W        W44208   3.775  30.067  11.594
71141W        W44209  12.330  10.123   2.399
71142W        W44210   7.851   9.628   1.221
71143W        W44211  38.325  19.109  13.855
71144W        W44212  24.234   7.896   4.203
71145W        W44213  10.273  12.324   1.371
71146W        W44214  14.834  36.512   2.707
71147W        W44215  10.729  15.126   2.640
71148W        W44216  39.728  20.526  13.482
71149W        W44217  25.500   8.487   3.709
71150W        W44218  27.369   3.895  13.768
71151W        W44219  18.066  22.146  14.075
71152W        W44220  20.260  44.467  11.564
71153W        W44221   4.340   7.510  10.420
71154W        W44222  44.227  40.634  14.695
71155W        W44223  31.517  21.256   3.268
71156W        W44224  32.842  39.470  14.249
71157W        W44225  20.223  39.966  12.410
71158W        W44226  27.447  20.127  11.033
71159W        W44227  30.774  26.711   4.989
71160W        W44228  12.955  35.542   4.340
71161W        W44229   5.858   8.356   4.337
71162W        W44230   9.091  31.782   4.251
71163W        W44231   5.265  44.522  14.841
71164W        W44232   6.393  36.079   2.218
71165W        W44233  11.609  18.557   3.904
71166W        W44234  32.683  29.084  13.910
71167W        W44235   7.734  44.500  13.988
71168W        W44236  40.449  13.165  12.061
71169W        W44237  38.423  12.791  12.851
71170W        W44238  13.519  33.443   4.204
71171W        W44239  28.006  27.387  12.650
71172W        W44240  14.420  42.825   1.638
71173W        W44241  26.173  44.438   3.679
71174W        W44242  14.653  39.858   3.735
71175W        W44243  43.388  20.226  13.368
71176W        W44244   9.287   1.183   0.842
71177W        W44245  39.411  11.276  14.299
71178W        W44246  17.382  19.167   0.806
71179W        W44247  33.646  38.109   3.317
71180W        W44248   8.781  39.523  12.439
71181W        W44249  15.236  38.328  11.926
71182W        W44250  26.932  22.922   0.718
71183W        W44251  19.539  27.055  13.395
71184W        W44252  15.434  35.914   0.385
71185W        W44253  19.563  27.544  14.127
71186W        W44254  29.851   3.208   0.363
71187W        W44255  11.458  36.471  13.434
71188W        W44256  29.964  43.288   1.486
71189W        W44257  34.843  43.953   1.787
71190W        W44258  34.304   1.845   1.987
71191W        W44259   3.460  44.785   3.899
71192W        W44260  18.642  19.920  11.285
71193W        W44261  21.453  30.722   3.358
71194W        W44262  21.699  38.142  14.860
71195W        W44263  21.074  23.439   5.055
71196W        W44264  44.865  42.363   2.606
71197W        W44265  20.475  25.665  14.005
71198W        W44266  17.140   4.821   3.625
71199W        W44267  43.722  44.377   1.332
71200W        W44268  32.657  25.847  13.283
71201W        W44269  17.103  25.028   9.999
71202W        W44270  21.061  10.861   1.131
71203W        W44271  38.506   9.359  13.431
71204W        W44272  10.647  19.547  13.822
71205W        W44273   7.721  17.039   0.032
71206W        W44274   9.841   4.244   1.649
71207W        W44275  12.272   5.476  12.073
71208W        W44276   5.669   4.897   1.371
71209W        W44277  40.814  38.580   1.774
71210W        W44278  16.243  24.484   0.787
71211W        W44279  19.583  26.214  13.320
71212W        W44280  38.904   6.973   2.687
71213W        W44281   5.994  33.152  10.722
71214W        W44282  28.602  14.358  13.200
71215W        W44283  25.763  33.113  12.386
71216W        W44284   8.030  12.723  12.220
71217W        W44285  34.285  30.384  10.893
71218W        W44286  38.580   7.952   3.599
71219W        W44287  19.137  21.462   4.268
71220W        W44288  10.860  36.113  14.286
71221W        W44289  12.714  11.901   3.668
71222W        W44290  10.465  21.253  14.903
71223W        W44291  19.077  13.286   1.002
71224W        W44292   3.209   3.268  14.063
71225W        W44293  41.415  33.107  11.971
71226W        W44294  13.547   6.656   0.455
71227W        W44295  32.780  23.567   3.748
71228W        W44296  10.709  44.056   2.192
71229W        W44297  27.089   5.367  10.743
71230W        W44298   1.735  28.585   0.412
71231W        W44299   2.854   5.813  12.847
71232W        W44300   4.502  31.104  14.542
71233W        W44301  22.206  44.719  12.356
71234W        W44302  41.551   8.276  11.324
71235W        W44303  13.054  38.919  14.766
71236W        W44304   2.105  10.259   3.057
71237W        W44305  36.913   6.653   0.285
71238W        W44306  18.091  27.223   1.256
71239W        W44307  39.158  21.436  12.045
71240W        W44308  38.906  14.105   0.424
71241W        W44309  22.925   5.655   0.427
71242W        W44310  21.062  23.199  13.885
71243W        W44311  11.660   2.207  12.991
71244W        W44312  38.296  38.003   0.419
71245W        W44313   3.391  10.175   3.734
71246W        W44314   8.391  40.440  12.373
71247W        W44315  18.084  18.766  14.266
71248W        W44316  11.343  14.812  14.927
71249W        W44317  27.646  20.131   4.686
71250W        W44318   2.341  20.445   0.014
71251W        W44319   6.127   7.161  10.433
71252W        W44320  26.064  27.222   4.784
71253W        W44321   7.758  36.054  14.307
71254W        W44322  22.246  21.193  12.889
71255W        W44323   9.308  29.152  13.422
71256W        W44324  38.048  15.647  11.269
71257W        W44325  27.565  26.049  14.393
71258W        W44326  13.445  24.873   3.685
71259W        W44327   9.684   9.740  14.904
71260W        W44328  36.850  14.388   1.429
71261W        W44329  40.092  44.004   4.675
71262W        W44330  31.212   4.393   1.292
71263W        W44331  25.619  40.847   0.909
71264W        W44332  34.541  20.722  11.630
71265W        W44333   5.430  20.055  14.074
71266W        W44334  10.074  37.375   3.336
71267W        W44335  24.426   5.354   3.794
71268W        W44336  17.254  28.131  12.280
71269W        W44337   2.022  13.308   3.652
71270W        W44338  14.041  32.500   3.358
71271W        W44339  23.815  43.346   1.859
71272W        W44340  20.916  42.863   5.158
71273W        W44341   4.839  29.518   1.387
71274W        W44342   5.256  36.827   1.937
71275W        W44343  40.104  14.950  10.556
71276W        W44344  10.238  25.564   2.230
71277W        W44345  40.212  38.147  10.518
71278W        W44346  13.382  26.755   3.592
71279W        W44347  13.561   5.923   2.571
71280W        W44348   9.790  15.625  11.516
71281W        W44349  34.880  33.637  10.623
71282W        W44350  28.664  36.317   3.159
71283W        W44351  29.960   6.773  12.514
71284W        W44352  26.902  14.763   1.029
71285W        W44353   2.433   8.275   3.231
71286W        W44354  15.327  25.691  13.530
71287W        W44355   1.836   1.845   0.778
71288W        W44356  17.292   8.657  14.328
71289W        W44357  26.087  10.700  14.169
71290W        W44358   6.748  39.470   0.820
71291W        W44359  24.896   5.321   0.250
71292W        W44360  14.696  37.127  14.469
71293W        W44361   7.384  39.401   2.159
71294W        W44362  22.487   6.690  14.787
71295W        W44363  38.277  23.045  12.772
71296W        W44364   5.873  13.815  11.487
71297W        W44365  14.162   6.176  14.174
71298W        W44366  22.473  24.067   0.953
71299W        W44367  16.240  43.749  14.466
71300W        W44368  38.130   2.165   4.866
71301W        W44369  32.363  34.066  10.466
71302W        W44370   6.755   3.848  12.824
71303W        W44371  26.110  23.941   4.107
71304W        W44372  11.229  37.973  11.759
71305W        W44373  42.833  13.164   3.334
71306W        W44374  10.806  39.728  12.335
71307W        W44375   6.918  43.567  12.422
71308W        W44376  11.904  28.685  12.901
71309W        W44377  42.184  37.791  12.810
71310W        W44378  32.164  32.488  11.816
71311W        W44379  10.863  28.639   3.627
71312W        W44380  12.320  29.058   3.899
71313W        W44381  14.393  27.472   3.900
71314W        W44382  22.662   6.367   4.590
71315W        W44383  34.504  25.788   1.435
71316W        W44384  17.098  12.765   3.136
71317W        W44385   4.995  12.921   1.801
71318W        W44386  13.819  26.031   1.787
71319W        W44387   0.916   9.637   3.873
71320W        W44388  22.703  36.442   0.905
71321W        W44389   3.296  39.259  12.613
71322W        W44390  28.364  37.385   1.793
71323W        W44391  20.602   3.431   0.398
71324W        W44392  24.071  40.136   2.221
71325W        W44393  16.205  28.629  10.838
71326W        W44394  14.980  11.288  13.008
71327W        W44395  39.930  14.661  14.994
71328W        W44396  32.351  25.094  12.484
71329W        W44397  19.465  10.841   1.904
71330W        W44398  38.226  15.589  10.775
71331W        W44399  30.968  29.710   1.819
71332W        W44400  26.734   5.677  11.106
71333W        W44401  27.254  29.900   4.236
71334W        W44402  26.925  18.325   1.041
71335W        W44403   3.284  33.479   0.268
71336W        W44404  36.646  36.845   2.260
71337W        W44405  14.639  14.053  11.680
71338W        W44406  42.950  17.602  12.193
71339W        W44407  33.303  34.003   4.251
71340W        W44408  25.532  11.643   1.197
71341W        W44409   4.905  20.249  11.070
71342W        W44410  29.530  30.463  13.697
71343W        W44411   9.395  12.585   0.184
71344W        W44412   1.852  19.296   2.737
71345W        W44413  19.570  22.065   2.292
71346W        W44414  29.289   6.913   4.072
71347W        W44415  37.593  26.193  11.458
71348W        W44416  21.006  39.976  11.960
71349W        W44417  34.593  44.072   1.355
71350W        W44418   6.708   5.152   4.147
71351W        W44419  28.686  12.518   1.344
71352W        W44420  33.065  37.265  11.677
71353W        W44421  16.610  35.588  12.985
71354W        W44422  30.064  42.101   4.568
71355W        W44423  17.153  44.222  10.347
71356W        W44424  28.257  41.428  13.703
71357W        W44425  32.610  14.347  12.886
71358W        W44426  41.443  15.627   3.251
71359W        W44427  16.851  10.632  12.416
71360W        W44428  36.158  40.423   1.393
71361W        W44429  35.916   7.704   4.517
71362W        W44430   5.255  42.001   2.711
71363W        W44431  18.069  13.273  12.944
71364W        W44432  30.603   6.971  11.190
71365W        W44433  17.342  26.758  11.967
71366W        W44434  38.141  24.962  11.517
71367W        W44435   2.703  41.386  12.606
71368W        W44436   6.747  14.368  14.882
71369W        W44437  32.954   3.870  11.053
71370W        W44438  30.909  23.766   2.142
71371W        W44439   0.372  23.318   0.040
71372W        W44440  11.801   0.518  14.867
71373W        W44441  36.375   8.985   3.829
71374W        W44442  36.838  28.295   0.069
71375W        W44443  38.079  16.062  13.265
71376W        W44444   1.497  30.060   3.659
71377W        W44445  25.212  37.899   2.729
71378W        W44446  27.708  21.150   0.784
71379W        W44447  34.097  20.967   4.530
71380W        W44448  38.847  32.680   4.602
71381W        W44449  17.137  25.579  14.523
71382W        W44450  21.799  18.877   1.293
71383W        W44451  25.917  15.016   3.780
71384W        W44452   9.118   8.793   3.162
71385W        W44453  15.812  19.243  11.985
71386W        W44454   8.098  37.744   4.714
71387W        W44455   4.226  31.624   2.742
71388W        W44456   6.810  17.066   3.218
71389W        W44457   3.982   5.277   3.534
71390W        W44458  17.315  43.431  13.503
71391W        W44459  26.724   3.418  10.147
71392W        W44460  22.726   8.843  10.272
71393W        W44461  21.721  37.002  10.994
71394W        W44462  15.617  33.287   2.819
71395W        W44463  15.480  40.933  10.466
71396W        W44464  15.359  19.281  14.873
71397W        W44465  34.591  14.771  10.827
71398W        W44466  37.486  33.440   4.632
71399W        W44467  10.183  34.980   2.062
71400W        W44468   0.134  20.037   4.273
71401W        W44469  28.027  22.731  14.391
71402W        W44470  25.565   4.423  14.957
71403W        W44471  34.545  35.068  11.389
71404W        W44472  26.396  38.353   4.786
71405W        W44473  31.024  43.487   4.701
71406W        W44474   5.664  20.631   2.908
71407W        W44475  32.842  22.094  10.667
71408W        W44476  23.428   9.280   0.942
71409W        W44477  43.249   8.920  10.698
71410W        W44478  21.593   6.769  10.928
71411W        W44479  35.648   0.958   1.359
71412W        W44480   6.310  37.804   3.682
71413W        W44481  24.576  12.854  12.475
71414W        W44482  40.464  12.462   2.175
71415W        W44483  18.999  32.969   1.285
71416W        W44484   7.187  10.987  14.703
71417W        W44485  26.753  20.586   4.493
71418W        W44486  11.176  26.269  12.010
71419W        W44487  32.443   6.351  14.066
71420W        W44488  28.001  14.788  13.974
71421W        W44489  32.597  29.992  13.217
71422W        W44490   0.712  28.978   0.889
71423W        W44491  24.034  18.637  13.249
71424W        W44492  17.695  38.621   0.936
71425W        W44493  11.704   7.441  12.463
71426W        W44494  43.963  42.906  10.514
71427W        W44495   6.081  44.759   0.153
71428W        W44496  29.060  24.498  14.562
71429W        W44497  37.383  26.502   3.697
71430W        W44498  26.720   5.809  11.950
71431W        W44499  35.654  43.913  11.619
71432W        W44500   2.832  37.497   3.765
71433W        W44501   5.762  40.556  12.448
71434W        W44502  33.926  12.757   4.560
71435W        W44503  26.966  24.635  14.773
71436W        W44504  40.480  32.600   1.895
71437W        W44505  17.518  41.547  13.025
71438W        W44506  37.042  30.831   3.832
71439W        W44507   6.553  44.235  13.416
71440W        W44508  25.217  41.835  11.486
71441W        W44509  23.252  14.111  12.336
71442W        W44510  38.498   0.507  13.922
71443W        W44511  16.072  39.468   2.599
71444W        W44512   0.995  23.139  13.506
71445W        W44513  36.533   2.726   0.870
71446W        W44514  15.096  12.623   4.227
71447W        W44515  14.346  43.373  12.143
71448W        W44516  28.804  24.032  11.244
71449W        W44517  40.505   0.210   4.191
71450W        W44518  19.655  33.963   4.763
71451W        W44519  33.496   3.904  11.245
71452W        W44520   5.426  11.908   4.414
71453W        W44521   4.435  21.338   3.708
71454W        W44522  32.996  37.747  11.486
71455W        W44523  19.064  13.867   4.177
71456W        W44524  24.000  19.505   4.171
71457W        W44525  10.355  40.841   2.462
71458W        W44526  34.294   2.199  11.167
71459W        W44527  27.610  26.012   0.827
71460W        W44528  14.742  23.982  13.301
71461W        W44529  26.443  25.016  14.095
71462W        W44530  10.101  42.027   4.328
71463W        W44531  21.945  13.696   4.748
71464W        W44532  40.394   2.749  11.052
71465W        W44533  21.925  17.155  12.013
71466W        W44534  32.882  28.720  14.286
71467W        W44535  18.655  34.574  10.818
71468W        W44536  24.262  44.772  10.766
71469W        W44537  27.687  23.355  11.614
71470W        W44538  29.396  24.442   3.228
71471W        W44539  10.383  30.417   3.061
71472W        W44540  43.478  44.921  13.451
71473W        W44541  21.697  31.417   0.380
71474W        W44542   2.983  25.516  12.913
71475W        W44543  43.931   3.905   0.964
71476W        W44544  26.971  29.843   2.943
71477W        W44545  40.811  38.358  12.461
71478W        W44546  32.133  28.980  14.810
71479W        W44547  15.686  34.621   3.783
71480W        W44548  38.211  20.454   1.074
71481W        W44549  39.389   6.315  11.606
71482W        W44550   0.800  42.349  11.635
71483W        W44551  43.628  36.475   1.771
71484W        W44552  15.421  44.725   2.296
71485W        W44553  15.963   4.371  14.951
71486W        W44554  32.115  41.993   3.913
71487W        W44555  39.392  34.926   0.961
71488W        W44556  40.942  22.010  12.552
71489W        W44557  10.430  44.557  13.651
71490W        W44558  29.683  14.249  11.316
71491W        W44559  32.152  32.053   1.869
71492W        W44560   6.140  12.849   4.556
71493W        W44561  22.441  34.835   5.102
71494W        W44562   6.496  34.349   5.211
71495W        W44563  24.428  16.903   1.599
71496W        W44564  23.483  41.607   2.275
71497W        W44565  30.233   4.295   3.665
71498W        W44566  10.200  11.192  14.595
71499W        W44567  19.227  12.864  12.555
71500W        W44568   6.698  29.631   3.906
71501W        W44569  23.191  17.296   1.687
71502W        W44570  37.354  23.524  10.978
71503W        W44571  40.948  33.350  11.983
71504W        W44572   2.674  16.170   3.818
71505W        W44573  22.949  29.474   1.670
71506W        W44574  10.744  31.546   1.873
71507W        W44575  12.062  29.054  12.543
71508W        W44576  24.782  18.716   1.185
71509W        W44577   8.140  19.332   4.374
71510W        W44578  37.893   8.678   1.437
71511W        W44579   8.105  12.508  14.334
71512W        W44580  13.284  28.119  13.330
71513W        W44581   8.100   7.430  13.348
71514W        W44582  42.927  39.995  10.782
71515W        W44583   5.778  41.948  10.798
71516W        W44584  37.480   5.677  13.948
71517W        W44585  20.176  35.362   0.285
71518W        W44586  30.375  31.530   0.789
71519W        W44587   1.792  44.468   0.274
71520W        W44588  14.618  22.824  11.567
71521W        W44589  13.388   8.992  12.565
71522W        W44590  13.118  24.616   3.219
71523W        W44591  36.851   1.756   4.661
71524W        W44592   7.441  34.958  13.972
71525W        W44593  21.298   5.176  10.329
71526W        W44594  16.673   8.773  10.175
71527W        W44595  15.111  32.189   0.225
71528W        W44596  25.935  10.575   4.613
71529W        W44597  35.684  44.027   4.614
71530W        W44598  20.646   1.036  13.891
71531W        W44599  32.671  14.093  10.652
71532W        W44600  21.209   6.599   0.348
71533W        W44601  43.531   8.444   4.291
71534W        W44602  31.687  34.833  11.394
71535W        W44603  13.286  43.952  14.706
71536W        W44604  38.103  16.653   3.167
71537W        W44605   7.066  13.628   4.559
71538W        W44606   2.996  35.476   4.764
71539W        W44607  38.365  29.922   0.350
71540W        W44608  24.966  31.869   4.198
71541W        W44609  19.903  12.618  13.286
71542W        W44610  36.521  30.117  11.077
71543W        W44611  10.793  29.123  10.141
71544W        W44612  14.060  40.260  12.116
71545W        W44613   6.779   6.395  14.810
71546W        W44614  23.987  41.776  10.751
71547W        W44615  26.219  29.902  13.071
71548W        W44616  20.672   0.260  11.246
71549W        W44617  21.699  19.075  10.414
71550W        W44618   4.662  22.538  12.232
71551W        W44619  20.052   6.901  11.148
71552W        W44620  34.567  44.017  12.492
71553W        W44621   4.353  20.063  11.997
71554W        W44622   2.632  31.714  11.239
71555W        W44623  38.803  29.039  11.936
71556W        W44624  14.475   4.896   2.860
71557W        W44625  24.007  17.697   3.699
71558W        W44626  43.480  30.110   1.362
71559W        W44627  31.592  26.270   1.870
71560W        W44628   9.231  31.982  12.050
71561W        W44629   0.487  44.515   2.957
71562W        W44630  14.348  26.450  10.704
71563W        W44631  29.868   2.359   2.891
71564W        W44632  14.620   7.658  11.116
71565W        W44633  44.066  17.716   4.567
71566W        W44634  15.332  33.203  14.278
71567W        W44635  25.519  39.904   3.984
71568W        W44636   5.857   7.276  13.760
71569W        W44637  33.935  32.695   1.922
71570W        W44638  11.277  35.525   1.249
71571W        W44639  17.009  21.443  12.405
71572W        W44640  16.695   2.467  13.837
71573W        W44641  23.732  41.882   4.337
71574W        W44642  26.749  18.882   3.266
71575W        W44643  33.140   7.104   1.349
71576W        W44644  42.447   9.252   0.379
71577W        W44645  19.640  38.993  10.869
71578W        W44646  30.086  43.065   4.826
71579W        W44647  11.965  40.490  14.307
71580W        W44648  34.886  21.805  10.649
71581W        W44649  23.068   6.940   4.278
71582W        W44650  36.639   0.871   0.481
71583W        W44651  15.620  12.542  14.530
71584W        W44652  27.083   5.221   3.700
71585W        W44653  39.025  14.163  14.485
71586W        W44654  24.398  24.467   0.946
71587W        W44655  41.511  39.547  12.910
71588W        W44656  25.579   4.236   1.027
71589W        W44657  26.569   7.138  13.571
71590W        W44658  22.728  22.355  13.289
71591W        W44659   5.673  24.963   0.342
71592W        W44660  27.655  37.775  11.128
71593W        W44661  19.000  21.173   1.565
71594W        W44662   4.885  14.358   0.485
71595W        W44663   8.402   4.284  14.918
71596W        W44664  41.145  34.874   0.372
71597W        W44665  43.033  10.410   3.098
71598W        W44666  18.789  10.177   3.877
71599W        W44667  30.624   0.943   0.435
71600W        W44668  25.398  23.746   5.114
71601W        W44669   8.249   4.983   0.901
71602W        W44670  29.500   3.368   3.282
71603W        W44671  25.257  12.632  11.463
71604W        W44672  34.027  29.558   3.979
71605W        W44673  36.071  24.489  14.911
71606W        W44674  38.632  37.876   3.663
71607W        W44675  22.391  39.442  13.977
71608W        W44676  27.918  31.028  13.531
71609W        W44677  22.372  21.057   5.112
71610W        W44678  44.478  20.211  11.628
71611W        W44679  23.236   3.824  14.819
71612W        W44680  27.502  15.660  14.049
71613W        W44681  34.703  37.303  13.814
71614W        W44682   0.325  44.403   4.745
71615W        W44683  15.841   7.150  11.154
71616W        W44684  44.511  38.304  13.299
71617W        W44685  28.391  25.646   3.292
71618W        W44686   6.505  14.112   2.182
71619W        W44687  30.431  11.893   2.672
71620W        W44688  22.521  14.564   4.242
71621W        W44689  13.828   6.845   3.321
71622W        W44690  40.396  40.266   4.693
71623W        W44691  21.674  23.579   2.306
71624W        W44692  24.595  25.623  14.277
71625W        W44693  28.475  13.687   4.169
71626W        W44694  38.489  30.656   0.865
71627W        W44695  30.059   2.474   0.709
71628W        W44696  32.240  18.080   3.380
71629W        W44697  43.900  16.161   4.177
71630W        W44698  10.307  29.043  12.420
71631W        W44699  35.740  22.695   3.790
71632W        W44700   7.586   5.396  11.255
71633W        W44701  44.361  34.438   0.530
71634W        W44702  26.015  43.430   2.915
71635W        W44703  40.318  10.194  10.711
71636W        W44704  21.159  40.929  14.741
71637W        W44705   7.274   9.809  13.801
71638W        W44706  37.540  10.470   2.165
71639W        W44707  21.834  21.141   0.318
71640W        W44708  15.101  17.090  14.844
71641W        W44709  12.786  26.463  13.097
71642W        W44710  38.158  39.829  14.504
71643W        W44711  11.655  28.922   0.861
71644W        W44712   8.151  36.306  13.302
71645W        W44713  25.453  21.817  11.556
71646W        W44714  15.786  17.185   3.844
71647W        W44715   8.151  40.888  13.342
71648W        W44716  32.143  39.421   4.901
71649W        W44717  28.595  15.903  14.721
71650W        W44718  44.032  18.924  12.484
71651W        W44719  33.928  16.279   3.709
71652W        W44720   7.231  11.602   3.695
71653W        W44721  44.229  15.239   0.460
71654W        W44722  15.439  34.436   1.402
71655W        W44723  22.670  41.589  12.686
71656W        W44724   2.108  18.554  10.594
71657W        W44725  10.582  32.514   4.556
71658W        W44726  44.477  42.508   2.933
71659W        W44727  33.034  25.067  14.380
71660W        W44728   5.258  19.529   0.645
71661W        W44729  30.698  38.993  12.857
71662W        W44730  41.936  26.498   4.624
71663W        W44731  36.966   5.226   3.625
71664W        W44732  25.528  14.007   3.379
71665W        W44733   1.484  26.601   3.260
71666W        W44734  43.395  26.119  14.740
71667W        W44735  35.916  19.623  12.166
71668W        W44736  22.289   7.490   0.891
71669W        W44737  10.022  15.620  13.921
71670W        W44738  32.225   1.685  12.380
71671W        W44739  38.729   4.297  11.176
71672W        W44740  38.366  40.460  11.105
71673W        W44741  41.336   2.685   1.380
71674W        W44742  27.453  36.409   0.888
71675W        W44743  27.937  24.742   3.334
71676W        W44744  12.187  34.743  11.874
71677W        W44745   2.862  29.333  14.132
71678W        W44746  26.075  30.682   2.010
71679W        W44747  12.298   2.839   1.826
71680W        W44748  29.193  12.021  11.135
71681W        W44749  31.156  12.668   1.216
71682W        W44750  26.057  28.879   4.066
71683W        W44751  31.346  19.264   3.758
71684W        W44752  36.598  28.107  13.878
71685W        W44753  37.810  42.759   2.228
71686W        W44754   5.275  35.504  11.262
71687W        W44755  17.344  33.454  12.503
71688W        W44756  24.291  11.733   0.230
71689W        W44757  42.552  41.347   3.196
71690W        W44758  10.543  40.393  13.859
71691W        W44759  30.904  44.271  14.879
71692W        W44760  15.039  32.624   1.952
71693W        W44761  12.139  28.549   4.572
71694W        W44762  29.672  33.412  14.362
71695W        W44763   6.932  44.563  11.090
71696W        W44764  42.744  27.571  11.661
71697W        W44765   1.988  13.882   2.004
71698W        W44766  24.747  32.017   0.282
71699W        W44767  20.564  16.331   2.165
71700W        W44768  14.550  20.563  10.974
71701W        W44769  25.733  37.146  11.583
71702W        W44770  17.757  41.538   1.234
71703W        W44771  27.499  26.768   2.266
71704W        W44772  15.476  13.538   1.396
71705W        W44773  36.598   6.448   4.565
71706W        W44774  16.370  27.220   4.382
71707W        W44775  19.089   0.491  13.070
71708W        W44776  35.463  30.250   1.988
71709W        W44777  42.876  22.619   0.960
71710W        W44778  23.102  42.790  10.855
71711W        W44779  13.884  11.136   0.437
71712W        W44780  41.618   7.872   0.082
71713W        W44781  24.929   5.726   0.991
71714W        W44782  27.959   5.716   2.836
71715W        W44783  25.170  42.545  10.970
71716W        W44784  29.599  43.511  11.541
71717W        W44785  35.454  24.815   3.171
71718W        W44786  13.205  33.062  10.979
71719W        W44787   7.226  40.783   4.565
71720W        W44788   9.876  34.076   3.772
71721W        W44789   3.571   9.420  10.671
71722W        W44790   2.703   1.471   2.841
71723W        W44791  32.962   7.373   2.305
71724W        W44792  12.265  40.477   4.330
71725W        W44793   2.979   0.015   3.224
71726W        W44794   8.209  21.277  11.567
71727W        W44795  38.119   5.406   0.022
71728W        W44796   6.056   6.983  11.832
71729W        W44797  33.125  22.458  11.103
71730W        W44798  15.950  44.517  14.053
71731W        W44799  36.112   2.514  12.452
71732W        W44800   8.319  41.375   2.496
71733W        W44801   9.344  39.708  11.591
71734W        W44802  42.282  44.876  10.871
71735W        W44803  18.299  35.450  11.403
71736W        W44804   1.482  32.568   3.229
71737W        W44805  32.088   0.761   0.052
71738W        W44806  27.677  10.247  10.920
71739W        W44807  15.098  40.457   4.578
71740W        W44808  12.426  10.173  12.412
71741W        W44809  38.924  18.630  11.867
71742W        W44810   3.281  27.049  14.347
71743W        W44811  20.667   2.149  13.073
71744W        W44812   7.900  34.891   1.643
71745W        W44813  31.535  19.276   0.755
71746W        W44814   1.712  40.533   1.477
71747W        W44815   2.841   8.408   0.474
71748W        W44816  34.378  12.070   4.410
71749W        W44817  12.132  21.740  12.389
71750W        W44818  31.541  25.566   2.439
71751W        W44819  37.554   4.777  12.803
71752W        W44820  22.325  10.272  13.585
71753W        W44821  37.250  19.569  12.895
71754W        W44822  23.665  24.113   1.209
71755W        W44823   9.393  30.562   3.169
71756W        W44824  38.563  38.060   0.859
71757W        W44825  29.360  32.435  13.883
71758W        W44826  35.341   8.320   4.189
71759W        W44827  43.270  26.697   1.789
71760W        W44828   8.788  16.346  12.551
71761W        W44829  40.641   7.743   0.508
71762W        W44830   1.800  15.241   4.430
71763W        W44831  12.072  34.368  11.500
71764W        W44832   9.171   3.353   3.260
71765W        W44833   6.901  28.072  13.786
71766W        W44834  18.360  36.672  13.117
71767W        W44835  31.814  41.915   0.567
71768W        W44836  44.802  33.225   3.295
71769W        W44837  18.152   6.683   4.501
71770W        W44838  29.328  38.003   3.181
71771W        W44839  23.685   6.116   1.225
71772W        W44840  11.141  11.580  12.410
71773W        W44841  28.871  12.740  10.652
71774W        W44842  23.519  17.189  13.915
71775W        W44843   3.664  12.305  13.954
71776W        W44844  14.723  30.878  13.589
71777W        W44845  41.520  41.351  14.387
71778W        W44846  41.684   6.768  13.711
71779W        W44847  30.345  22.110  12.974
71780W        W44848   3.021   6.388   2.438
71781W        W44849  26.472  10.063  11.452
71782W        W44850  17.458  35.837  11.066
71783W        W44851   0.927  44.820  12.148
71784W        W44852  43.991   9.900   4.627
71785W        W44853   3.236  14.194   4.639
71786W        W44854  10.648  16.780   0.410
71787W        W44855  22.267   6.725  13.866
71788W        W44856  38.279  21.763   0.341
71789W        W44857  21.805  10.660  12.885
71790W        W44858   4.019  21.011   3.726
71791W        W44859  25.404  20.287  11.613
71792W        W44860  33.731   1.002  14.984
71793W        W44861  15.498  39.574  12.407
71794W        W44862  35.594  32.959   4.900
71795W        W44863  35.397  13.791   2.153
71796W        W44864   5.164  25.127   1.774
71797W        W44865   0.369  14.258   3.552
71798W        W44866   4.482  25.990  14.508
71799W        W44867  42.774  15.275   3.175
71800W        W44868  27.623  27.288   2.254
71801W        W44869   6.236  18.262  11.875
71802W        W44870  25.050  23.576   3.836
71803W        W44871  42.722  41.858   0.849
71804W        W44872   7.167  34.405   1.973
71805W        W44873   6.664  16.616   3.658
71806W        W44874   1.387  41.334   1.706
71807W        W44875  42.296  33.444   0.697
71808W        W44876  19.321  20.556   4.328
71809W        W44877  40.363  33.730  12.060
71810W        W44878  11.487  42.581   4.287
71811W        W44879  20.382  36.443  14.634
71812W        W44880   5.007  14.274  11.576
71813W        W44881   2.712  33.579  14.363
71814W        W44882  34.871  30.850   0.247
71815W        W44883  13.607  13.209   1.199
71816W        W44884   4.426  42.943  12.518
71817W        W44885   3.533  15.602   2.317
71818W        W44886  37.584  39.616  14.299
71819W        W44887  31.444   5.393  12.027
71820W        W44888   4.683  26.597  10.040
71821W        W44889   7.336  43.898   1.353
71822W        W44890   5.319  26.113   3.298
71823W        W44891  28.428  29.817   3.599
71824W        W44892  43.457  32.185   1.336
71825W        W44893  28.368   0.365  13.038
71826W        W44894  26.102  18.357  11.584
71827W        W44895   9.211  31.370  14.032
71828W        W44896  22.940  22.424  14.045
71829W        W44897  40.131   3.373   2.438
71830W        W44898  19.077  41.102  14.415
71831W        W44899   5.633  22.388  12.581
71832W        W44900   3.569   6.352   0.485
71833W        W44901  43.265  31.183   0.280
71834W        W44902   8.633   6.316  13.781
71835W        W44903   7.282  17.303   1.405
71836W        W44904  28.628   9.760  11.936
71837W        W44905  12.165  42.602  12.712
71838W        W44906   5.911  14.209   2.907
71839W        W44907  18.040   0.373  11.042
71840W        W44908  34.914  40.137  11.191
71841W        W44909  10.194  42.968  12.346
71842W        W44910  11.228  26.045  11.529
71843W        W44911  43.858  11.612   1.862
71844W        W44912  37.373   8.342  11.009
71845W        W44913  23.527  34.305  12.088
71846W        W44914  24.517   0.332   3.732
71847W        W44915   2.568  18.266   4.345
71848W        W44916  24.580   5.952  14.534
71849W        W44917  44.306  38.549  12.842
71850W        W44918  36.393  35.651   3.946
71851W        W44919   5.521  42.733   0.956
71852W        W44920  41.548  13.747   4.185
71853W        W44921   9.060  14.430  14.703
71854W        W44922  25.227   0.157   2.329
71855W        W44923  16.812  16.513  13.433
71856W        W44924  22.180   7.772   3.119
71857W        W44925  40.549  40.046   1.274
71858W        W44926  38.366  22.185  13.813
71859W        W44927  14.699  15.595   3.445
71860W        W44928  44.983  15.866  13.337
71861W        W44929  30.487  35.010  14.992
71862W        W44930   2.814  37.764  10.547
71863W        W44931  35.344  38.402   0.156
71864W        W44932  25.273   1.238   1.742
71865W        W44933  29.838  37.037   2.519
71866W        W44934  18.609   1.649  10.655
71867W        W44935   8.181  23.990  13.897
71868W        W44936  36.896   5.399  13.019
71869W        W44937   3.113  11.664   1.872
71870W        W44938  19.069   2.191  13.294
71871W        W44939  15.500  14.119  10.215
71872W        W44940  17.339  38.323   4.811
71873W        W44941   9.610   4.885  13.343
71874W        W44942  12.893  35.879   4.748
71875W        W44943  21.711   8.726  12.576
71876W        W44944  19.756  30.567  12.415
71877W        W44945  15.830  17.176   0.407
71878W        W44946  43.438  21.091   0.316
71879W        W44947  39.835  44.415  10.358
71880W        W44948  23.953  39.481  10.621
71881W        W44949  29.133  33.978  10.949
71882W        W44950  20.160  16.240   4.109
71883W        W44951  33.053  16.787   0.443
71884W        W44952  40.529  39.392   4.090
71885W        W44953  16.224  24.528  12.055
71886W        W44954  43.825  22.471   1.442
71887W        W44955  30.327  39.582   0.336
71888W        W44956  11.771  21.571   2.883
71889W        W44957  29.226  33.386   2.286
71890W        W44958   9.125  34.057   3.315
71891W        W44959   6.435   5.388  11.967
71892W        W44960  13.625  42.894  12.419
71893W        W44961  29.171  42.514   2.126
71894W        W44962   4.533   2.697   1.640
71895W        W44963  32.492  16.903  12.218
71896W        W44964  43.964  11.877  11.103
71897W        W44965  19.277  30.619  12.656
71898W        W44966  42.044  33.087   4.017
71899W        W44967   2.011   4.386   1.350
71900W        W44968   3.476  38.524   0.000
71901W        W44969  34.492  43.802  13.380
71902W        W44970   2.800  28.030  14.947
71903W        W44971  39.611   7.216   4.385
71904W        W44972  30.208  24.091  12.182
71905W        W44973  21.687  16.766  14.987
71906W        W44974  32.375  38.722  10.544
71907W        W44975  17.822  42.440   3.182
71908W        W44976  34.362   0.512   1.400
71909W        W44977  40.256  21.549  12.857
71910W        W44978  27.429  20.041  10.462
71911W        W44979  25.923  36.893  14.702
71912W        W44980  24.696  41.356  12.110
71913W        W44981  16.832  34.547  14.941
71914W        W44982  44.053  12.706  12.596
71915W        W44983   5.692  42.487   4.304
71916W        W44984   8.930  39.076   2.637
71917W        W44985  20.622  40.713   3.441
71918W        W44986  28.697  14.364   1.800
71919W        W44987  27.667  30.997   3.518
71920W        W44988  12.027  39.383   0.815
71921W        W44989  16.642   6.611  14.440
71922W        W44990  30.428  36.859  13.977
71923W        W44991  19.680  40.290   0.868
71924W        W44992  21.832  34.056  11.600
71925W        W44993  41.016  36.589  13.114
71926W        W44994  21.301  14.723  14.375
71927W        W44995  26.253  15.381  11.669
71928W        W44996  14.501  29.947  14.549
71929W        W44997  17.036  42.803  12.611
71930W        W44998   6.730  13.171  12.601
71931W        W44999  36.158  24.084   1.425
71932W        W45000  31.609  20.645   4.122
71933W        W45001   5.285   5.721   3.847
71934W        W45002   2.959   4.789  11.019
71935W        W45003  23.474  31.025  10.899
71936W        W45004  10.676  34.986  11.612
71937W        W45005  34.528   9.300   0.828
71938W        W45006  40.242   9.114   0.908
71939W        W45007  44.866   8.839  14.869
71940W        W45008   1.071   5.747   0.783
71941W        W45009   4.414   0.208   4.116
71942W        W45010  18.780  11.758  12.981
71943W        W45011  11.220  26.384   1.357
71944W        W45012   4.800  39.993   0.489
71945W        W45013  13.640  27.419   0.837
71946W        W45014   3.940  14.211  14.108
71947W        W45015  37.292  14.210   1.214
71948W        W45016  40.527   4.420  11.480
71949W        W45017  43.243   3.661  11.532
71950W        W45018   5.048  34.339  13.472
71951W        W45019  24.649  10.618   0.167
71952W        W45020  24.014   1.860  12.876
71953W        W45021  39.530  15.692  10.960
71954W        W45022  15.595  32.373   0.296
71955W        W45023  43.643  13.034  12.627
71956W        W45024  42.997   3.182   0.269
71957W        W45025  19.588  39.497  14.832
71958W        W45026  17.062   6.143   4.369
71959W        W45027   4.950  43.525  12.090
71960W        W45028   6.312  17.660   1.341
71961W        W45029  34.786  35.512  11.476
71962W        W45030   6.136  31.605  14.847
71963W        W45031  44.793  25.424   1.697
71964W        W45032  37.779   7.387   1.774
71965W        W45033  44.170  34.963  12.433
71966W        W45034  33.950  44.217  11.450
71967W        W45035  20.676  21.331  12.226
71968W        W45036  32.425   6.156   2.381
71969W        W45037  31.548  36.313  11.004
71970W        W45038  35.934  38.725   4.139
71971W        W45039   7.800  11.855  10.465
71972W        W45040  14.334   7.883  11.525
71973W        W45041   2.912  12.550  11.908
71974W        W45042   9.965   9.428   3.848
71975W        W45043   8.829  18.283   2.817
71976W        W45044  38.365  15.798  12.940
71977W        W45045  13.178  41.341   2.201
71978W        W45046  27.578   1.091  11.586
71979W        W45047  38.531  39.037  12.391
71980W        W45048  15.228  20.828  14.756
71981W        W45049  14.593  29.963   0.340
71982W        W45050  19.076  44.795   3.894
71983W        W45051  20.631  42.306  14.605
71984W        W45052  24.021  14.228  14.914
71985W        W45053  23.516  41.902   2.830
71986W        W45054  31.298  32.021  12.030
71987W        W45055  12.508   9.657  13.321
71988W        W45056  18.213  25.500  14.918
71989W        W45057  21.506  19.739   3.370
71990W        W45058   8.984  18.102  11.203
71991W        W45059  21.730  40.540  11.100
71992W        W45060   5.269  30.442  12.600
71993W        W45061  12.786   6.297   1.335
71994W        W45062  30.402  30.585  11.898
71995W        W45063  25.746  20.310   2.987
71996W        W45064   7.547   3.266   2.366
71997W        W45065  20.590  14.786   0.760
71998W        W45066   6.423  13.238   1.738
71999W        W45067  42.894  44.465   2.356
72000W        W45068  44.734  44.452   0.382
72001W        W45069  42.323  17.754   0.563
72002W        W45070   6.185  15.036   3.831
72003W        W45071  44.541  44.439   2.966
72004W        W45072  16.012   6.953   2.866
72005W        W45073  24.335  13.154   4.803
72006W        W45074  41.867  20.541   4.642
72007W        W45075  15.182  38.368  11.055
72008W        W45076   9.748  27.548  13.873
72009W        W45077  17.661  22.712  10.599
72010W        W45078  27.291  35.170   2.184
72011W        W45079  38.010  34.044  13.848
72012W        W45080  35.079  16.024  11.064
72013W        W45081  39.383  18.996   3.615
72014W        W45082  41.153  17.408  11.193
72015W        W45083  44.415  21.077   0.490
72016W        W45084  39.530  31.639  12.549
72017W        W45085  28.442  24.596  12.008
72018W        W45086  26.192  40.449   2.876
72019W        W45087  23.732  44.787   4.589
72020W        W45088  19.285  26.712   1.794
72021W        W45089  17.047  15.894  14.765
72022W        W45090   2.298   9.363  10.756
72023W        W45091  40.113   4.013   2.910
72024W        W45092  24.516  29.558   1.764
72025W        W45093  18.690  26.044   0.527
72026W        W45094  44.201  28.122   4.021
72027W        W45095  25.695  14.202   1.060
72028W        W45096   3.676   5.316  13.323
72029W        W45097   5.372   9.289  10.841
72030W        W45098  39.284  37.327   3.206
72031W        W45099  12.649   1.458   0.819
72032W        W45100  13.218   5.043   0.809
72033W        W45101  29.090  24.056   4.337
72034W        W45102  19.074  16.410  14.814
72035W        W45103  32.667   5.893  14.275
72036W        W45104   7.221  34.162   0.230
72037W        W45105  16.179   8.234  13.334
72038W        W45106   8.368  44.609  12.128
72039W        W45107   2.453  39.260  10.403
72040W        W45108  24.605  40.858  13.449
72041W        W45109   3.852   6.741  10.510
72042W        W45110  23.526  17.789  11.612
72043W        W45111  22.874   2.976   0.199
72044W        W45112  31.530  33.362   4.136
72045W        W45113   4.719  42.351   3.597
72046W        W45114   8.735  32.806   1.767
72047W        W45115  26.704   7.296   0.984
72048W        W45116  37.188  44.866  11.214
72049W        W45117  19.322  43.485  14.768
72050W        W45118  21.149  10.322   3.221
72051W        W45119  17.155   9.779   1.178
72052W        W45120  29.052   6.948  13.506
72053W        W45121   4.340  24.625   1.834
72054W        W45122   6.451   9.448  11.538
72055W        W45123   2.981  42.819   3.810
72056W        W45124  34.468  34.629   3.395
72057W        W45125   1.409  26.639  11.588
72058W        W45126   9.039  30.409   4.564
72059W        W45127  26.217  11.580   4.386
72060W        W45128  32.066  40.746  13.554
72061W        W45129  41.042  40.616  12.193
72062W        W45130   2.391  26.405  13.542
72063W        W45131  24.564  28.046   2.864
72064W        W45132  13.421  11.241  11.035
72065W        W45133   4.671  23.634   4.835
72066W        W45134   1.856   9.591   2.254
72067W        W45135  34.354  35.755  11.592
72068W        W45136  32.925  41.846  12.585
72069W        W45137   7.024  35.914   3.660
72070W        W45138  13.842  17.172  13.520
72071W        W45139  40.221  43.527   0.206
72072W        W45140  21.050   7.945  11.695
72073W        W45141   2.279  25.416  13.368
72074W        W45142   0.199  17.169   2.724
72075W        W45143  11.052  42.700  11.257
72076W        W45144  40.249  22.143  13.380
72077W        W45145   4.841  35.420  11.581
72078W        W45146   0.459   5.636   3.691
72079W        W45147  41.874  26.958  14.357
72080W        W45148  11.145  24.485  11.483
72081W        W45149   1.039   3.215  13.930
72082W        W45150  35.730  32.962  10.313
72083W        W45151  16.106  13.048   3.553
72084W        W45152  17.134  10.368   1.927
72085W        W45153  25.404   3.365   3.652
72086W        W45154  33.628  22.057  11.048
72087W        W45155  35.901   7.710  11.398
72088W        W45156  11.588   3.673  13.985
72089W        W45157  22.878  27.751  10.633
72090W        W45158  33.959  18.523   2.988
72091W        W45159  20.522   9.262  14.993
72092W        W45160   9.597   1.342   3.191
72093W        W45161  18.208  27.373  14.965
72094W        W45162  43.267  34.399  11.207
72095W        W45163  35.463  44.273   2.803
72096W        W45164  10.961  30.933   1.099
72097W        W45165  22.636  37.766  10.688
72098W        W45166  34.833  42.903   0.393
72099W        W45167   8.318  40.421   1.467
72100W        W45168  16.558  21.832   0.368
72101W        W45169  13.058  43.483  13.986
72102W        W45170  29.292  29.564  14.677
72103W        W45171   2.214  10.768   4.281
72104W        W45172  18.494  21.904   1.712
72105W        W45173  18.152   3.559   3.085
72106W        W45174  20.063  24.921  14.949
72107W        W45175  43.699  44.402   1.984
72108W        W45176  23.900  21.486  13.206
72109W        W45177  10.350  18.494  12.497
72110W        W45178  19.762  29.270   2.675
72111W        W45179  14.581  22.570   4.429
72112W        W45180  11.366  22.543  14.116
72113W        W45181  25.614  43.200  14.472
72114W        W45182  21.226  17.691   2.703
72115W        W45183  17.232  38.459  11.403
72116W        W45184   1.827  13.380  11.910
72117W        W45185   3.777   1.969  11.081
72118W        W45186  10.389  26.137   3.354
72119W        W45187  33.853   6.198   2.225
72120W        W45188  18.764  12.747   1.460
72121W        W45189  20.604   0.266  14.144
72122W        W45190  24.042  19.164   1.413
72123W        W45191  43.802  25.974  13.578
72124W        W45192  15.010  16.223   4.301
72125W        W45193  24.279  33.714   3.293
72126W        W45194   2.093  29.533  13.433
72127W        W45195  34.326  21.701  11.451
72128W        W45196  33.205  15.258   0.820
72129W        W45197   2.815   8.720  12.404
72130W        W45198  24.045  12.259   0.756
72131W        W45199   7.172  34.385  11.117
72132W        W45200  12.818  41.446  13.114
72133W        W45201   5.719  14.786   0.503
72134W        W45202   6.777  30.944   0.380
72135W        W45203  10.752  21.999   1.289
72136W        W45204  30.016  29.462  11.189
72137W        W45205  35.540   7.113  13.690
72138W        W45206   6.183   7.830   3.289
72139W        W45207  43.930   7.927   4.831
72140W        W45208  15.296  36.554  14.005
72141W        W45209   2.761  34.626   2.351
72142W        W45210   7.087   1.979   4.448
72143W        W45211  42.264   4.267  12.119
72144W        W45212  43.112  20.952   2.221
72145W        W45213  26.819  35.991  11.093
72146W        W45214  15.180   9.800  13.081
72147W        W45215   8.711   0.702   2.405
72148W        W45216  29.777  32.150   4.193
72149W        W45217  18.438  33.324  12.433
72150W        W45218  20.142   7.137  14.272
72151W        W45219  44.298  35.812  12.886
72152W        W45220   5.211  37.856   3.161
72153W        W45221  31.178  44.283  12.929
72154W        W45222  12.634  44.494   2.794
72155W        W45223  43.786  27.238  14.465
72156W        W45224  35.958  26.253  10.439
72157W        W45225   0.073  14.241   4.209
72158W        W45226   9.751   8.202  11.403
72159W        W45227   5.807  34.139  12.288
72160W        W45228   1.494   8.874  14.713
72161W        W45229   6.788   3.638   1.724
72162W        W45230  39.583   1.918   0.911
72163W        W45231  22.149  33.803  10.722
72164W        W45232  17.217  37.323   0.855
72165W        W45233  38.264  34.950  14.891
72166W        W45234   7.654  28.974   1.356
72167W        W45235  12.469  11.286   1.891
72168W        W45236  40.453  31.311  14.396
72169W        W45237   8.587  33.062  12.876
72170W        W45238  13.077   3.437   0.315
72171W        W45239  23.153  19.231   5.126
72172W        W45240  10.383   7.461   1.830
72173W        W45241  23.360  43.900  11.115
72174W        W45242   3.253  41.558  14.768
72175W        W45243  42.413  22.200   0.277
72176W        W45244  14.814  20.748  10.556
72177W        W45245  18.853  26.420   4.471
72178W        W45246  18.802   7.411  13.791
72179W        W45247  29.421   4.658   4.193
72180W        W45248  35.880   3.789   3.683
72181W        W45249  22.526  10.216   2.687
72182W        W45250  26.706  13.365  13.653
72183W        W45251  10.739   9.607   2.233
72184W        W45252  21.241   0.782  10.554
72185W        W45253  13.581  24.465  12.964
72186W        W45254  21.307  32.630  13.462
72187W        W45255  27.703   9.918   4.142
72188W        W45256   3.363  31.730   2.242
72189W        W45257   6.926  33.379  11.186
72190W        W45258  25.174  12.097  12.594
72191W        W45259  11.671  20.048   0.006
72192W        W45260  34.046   6.252  12.022
72193W        W45261  19.439  33.639  11.560
72194W        W45262  38.915  18.646   1.456
72195W        W45263  26.620  38.140  12.943
72196W        W45264  21.556  24.157   2.668
72197W        W45265  28.469  22.528   0.833
72198W        W45266   6.661  44.300   2.769
72199W        W45267  10.267  43.808   2.388
72200W        W45268  21.569  38.396  10.713
72201W        W45269  17.381  41.956  10.332
72202W        W45270   6.102  17.313   1.992
72203W        W45271  21.331  33.521   3.137
72204W        W45272  43.282  25.668  11.956
72205W        W45273  10.232  43.342   0.449
72206W        W45274   1.281  12.363   2.912
72207W        W45275   8.738   3.509   0.056
72208W        W45276  10.481   7.027  12.128
72209W        W45277  43.693  43.810  12.841
72210W        W45278  34.631   6.944   2.390
72211W        W45279  23.762  35.472  11.043
72212W        W45280  41.570  15.194  11.569
72213W        W45281  20.324  10.232  14.792
72214W        W45282  20.814  42.015  13.447
72215W        W45283  18.570  42.828  14.882
72216W        W45284  15.750  14.037  10.672
72217W        W45285   1.198  35.802   3.733
72218W        W45286  29.369   8.786   3.801
72219W        W45287  39.710   8.086  13.496
72220W        W45288  28.228   2.308   4.657
72221W        W45289   3.480   5.673  12.619
72222W        W45290  13.754  34.340  12.844
72223W        W45291  44.603   6.351   4.076
72224W        W45292  14.632  41.541   2.656
72225W        W45293  31.685  12.719   1.100
72226W        W45294  20.042  11.030   1.315
72227W        W45295  36.527  28.691  12.332
72228W        W45296   7.805  38.357  11.561
72229W        W45297   6.915  32.009   3.312
72230W        W45298  32.597  30.213  14.208
72231W        W45299  43.093  35.299  10.727
72232W        W45300  27.730  29.961  14.362
72233W        W45301  29.588  21.519  12.442
72234W        W45302  11.077  14.266   2.424
72235W        W45303  43.446  36.418  14.221
72236W        W45304  34.066  30.607  14.762
72237W        W45305  29.864  11.787   3.367
72238W        W45306   4.987  33.582   0.397
72239W        W45307  15.711   2.317   4.805
72240W        W45308  43.880   9.103   1.438
72241W        W45309  21.503  17.486  13.431
72242W        W45310  31.871  25.782  10.768
72243W        W45311  33.866  10.289   1.624
72244W        W45312  40.075  29.540   4.632
72245W        W45313  15.651  34.566   4.377
72246W        W45314  18.747   3.418  12.986
72247W        W45315  22.235  19.324   1.750
72248W        W45316  36.849  42.910   1.946
72249W        W45317  43.361  21.731   3.314
72250W        W45318  18.727   0.141   0.370
72251W        W45319  38.364  37.436  11.865
72252W        W45320   5.446  44.743   4.120
72253W        W45321  40.640  38.930  11.179
72254W        W45322  33.685  16.652   2.172
72255W        W45323  44.491   0.747  14.818
72256W        W45324  13.091  24.675   0.358
72257W        W45325  16.640  24.577   0.465
72258W        W45326  43.206  10.237   1.250
72259W        W45327   1.463  10.296   1.789
72260W        W45328  24.156  32.626  14.865
72261W        W45329  23.746  36.509  11.023
72262W        W45330   0.603  28.171   0.256
72263W        W45331   0.934  24.060  13.572
72264W        W45332  21.827  40.494  13.506
72265W        W45333  24.621  14.266   3.461
72266W        W45334  25.977  35.652  14.344
72267W        W45335  40.841  17.608   1.383
72268W        W45336  43.585  13.812   3.265
72269W        W45337  17.763   5.616   4.235
72270W        W45338  18.297   0.348  13.489
72271W        W45339   8.166  36.659  11.863
72272W        W45340  19.700   8.272   0.957
72273W        W45341  29.468  39.995  11.484
72274W        W45342  38.852  38.609   4.235
72275W        W45343  10.311  33.376   4.483
72276W        W45344  26.409  44.168   1.049
72277W        W45345  26.570  32.937   1.958
72278W        W45346   2.340  20.152  12.974
72279W        W45347  13.293  17.121  11.873
72280W        W45348   7.314  34.927  12.045
72281W        W45349  24.120  30.648   4.603
72282W        W45350   4.909  30.164  13.337
72283W        W45351  24.588   1.435   3.972
72284W        W45352  40.355  36.559   2.369
72285W        W45353  17.147  24.595   4.337
72286W        W45354  30.264  37.916  11.863
72287W        W45355  44.050   8.639   1.240
72288W        W45356   7.951  17.754   4.550
72289W        W45357   5.414  10.281  12.075
72290W        W45358  19.138   0.312   2.446
72291W        W45359   9.338  22.236   2.811
72292W        W45360  40.094   1.319   1.846
72293W        W45361  13.335  43.000   4.148
72294W        W45362  24.711  43.864  12.058
72295W        W45363  12.286  17.333  13.623
72296W        W45364  31.562  21.911   0.798
72297W        W45365  19.862  21.852  12.149
72298W        W45366  44.968  34.315  11.556
72299W        W45367  39.430   4.737  10.475
72300W        W45368  24.048  41.380   1.774
72301W        W45369  38.143  12.701   3.598
72302W        W45370  13.845   6.450  13.860
72303W        W45371  24.767   4.367  14.307
72304W        W45372  25.037   4.932  13.576
72305W        W45373  31.650  30.896   3.235
72306W        W45374  15.586   1.434   3.325
72307W        W45375   5.738  12.602   2.260
72308W        W45376  12.066  35.843   4.158
72309W        W45377   8.680  43.254   3.875
72310W        W45378  34.458  24.992  12.141
72311W        W45379  39.286  19.365  13.770
72312W        W45380  33.531   3.710   0.892
72313W        W45381  11.192  16.156  11.731
72314W        W45382  18.230  31.965  12.530
72315W        W45383  32.405  24.093   0.368
72316W        W45384   5.851  38.342   2.598
72317W        W45385  27.726  15.165  14.791
72318W        W45386   5.264  15.226   4.636
72319W        W45387  22.544   3.315   4.192
72320W        W45388  41.849  33.363  12.052
72321W        W45389  43.061  42.555  13.881
72322W        W45390  16.297  24.327   0.160
72323W        W45391  16.185   5.005   2.104
72324W        W45392  32.041   2.083  11.053
72325W        W45393  23.192  38.956   1.401
72326W        W45394  40.181   7.125  14.220
72327W        W45395   5.722  14.679   3.291
72328W        W45396   7.163  29.665   0.891
72329W        W45397   7.448  24.630   3.245
72330W        W45398  12.729  42.437   0.676
72331W        W45399  28.697   8.824  12.372
72332W        W45400  12.861  25.796   0.865
72333W        W45401  18.192   1.521   3.767
72334W        W45402   9.720  10.917  12.037
72335W        W45403   8.313   1.408   2.806
72336W        W45404   2.933   6.517   4.717
72337W        W45405  26.917  30.049  13.853
72338W        W45406  28.067  11.362  12.038
72339W        W45407  16.660   8.376  10.616
72340W        W45408  19.829   3.223  14.822
72341W        W45409  11.297  23.443  10.665
72342W        W45410   7.505  33.134  12.003
72343W        W45411  11.173  24.751  11.044
72344W        W45412  11.642  39.448   1.142
72345W        W45413  35.450  40.740  10.699
72346W        W45414   3.192  43.316  11.103
72347W        W45415   0.903  27.883  11.248
72348W        W45416   9.157  42.941  11.575
72349W        W45417   9.795   2.828  10.881
72350W        W45418  19.686  29.697  12.538
72351W        W45419  35.323  44.313  13.870
72352W        W45420  38.469  18.438   1.616
72353W        W45421  12.545  22.129  14.320
72354W        W45422   4.135  28.699   4.193
72355W        W45423   6.013  36.893  12.938
72356W        W45424   0.702  20.094  13.469
72357W        W45425  16.089   1.874   3.100
72358W        W45426  40.846  26.273  12.338
72359W        W45427   1.483  35.067  11.524
72360W        W45428  38.346  33.294   4.392
72361W        W45429  13.164  34.167  13.349
72362W        W45430  21.149  10.197  12.315
72363W        W45431  20.083  13.384  12.182
72364W        W45432  38.090  43.246   0.984
72365W        W45433  38.485   4.779  11.693
72366W        W45434   8.679  24.406   2.655
72367W        W45435  30.464  42.598  14.219
72368W        W45436  28.719   0.322   1.816
72369W        W45437  31.392  40.388  13.531
72370W        W45438  39.749  10.346  11.522
72371W        W45439  11.333  40.851   2.282
72372W        W45440  25.718   3.883  11.955
72373W        W45441  21.229  23.251   0.284
72374W        W45442  18.232  32.425  11.978
72375W        W45443  30.514  41.764  13.895
72376W        W45444  41.010  17.236  10.727
72377W        W45445  24.936  21.025   4.996
72378W        W45446  20.123   0.813   3.735
72379W        W45447  13.657   3.884  13.431
72380W        W45448   5.916  33.882   1.972
72381W        W45449  11.356   4.445   4.725
72382W        W45450   5.321  39.083   0.814
72383W        W45451  27.586   8.660  14.112
72384W        W45452  12.797  18.338  11.917
72385W        W45453  39.989  29.507  14.362
72386W        W45454  22.740   9.175   2.874
72387W        W45455  33.730  13.362  11.205
72388W        W45456   9.997  28.509   3.572
72389W        W45457  32.425  13.364   1.588
72390W        W45458   6.336  20.686   0.523
72391W        W45459   8.848  33.028   4.689
72392W        W45460  11.433   9.837  14.372
72393W        W45461  31.888  10.411  11.226
72394W        W45462  40.422  30.155   1.013
72395W        W45463  14.125  29.270   1.755
72396W        W45464  35.811   5.723   3.664
72397W        W45465  35.171  44.958  11.651
72398W        W45466  23.527  35.512  10.595
72399W        W45467  39.405   5.259   4.223
72400W        W45468  11.649   2.695   1.001
72401W        W45469  34.763  17.223  10.707
72402W        W45470  43.380  44.725   2.670
72403W        W45471  40.793   7.536   1.461
72404W        W45472   6.430  16.518  10.773
72405W        W45473  44.276  21.667   3.615
72406W        W45474  29.916  18.863   3.080
72407W        W45475  36.077   6.319   1.007
72408W        W45476  10.261  27.797  11.903
72409W        W45477  37.991   5.163  10.565
72410W        W45478   7.766  36.874  11.672
72411W        W45479  10.384  20.321  13.963
72412W        W45480  43.388  34.104   3.088
72413W        W45481   0.369  18.489   4.296
72414W        W45482  43.311  19.002   3.822
72415W        W45483  12.119  12.618   3.597
72416W        W45484  40.526  37.769   4.647
72417W        W45485  14.180  34.519  13.476
72418W        W45486  20.049  18.808   1.456
72419W        W45487  39.831   2.879   3.238
72420W        W45488  15.672  33.008  11.023
72421W        W45489  24.522  41.104   0.412
72422W        W45490  42.049   2.678  14.849
72423W        W45491  31.595  44.015  11.964
72424W        W45492  15.479   9.538   0.322
72425W        W45493  40.780   5.231   0.780
72426W        W45494   5.597  29.028   1.256
72427W        W45495   1.711  44.862   4.181
72428W        W45496   8.835  39.572   4.141
72429W        W45497  38.247  33.809  11.990
72430W        W45498  25.210  32.403  10.495
72431W        W45499  34.483  10.194   3.195
72432W        W45500  22.007  40.519  12.435
72433W        W45501  21.010  20.008   0.217
72434W        W45502  33.586  21.152  12.960
72435W        W45503   7.229  42.000  13.911
72436W        W45504  37.265  10.658  12.386
72437W        W45505  13.701   1.217  13.977
72438W        W45506   1.786  22.944  10.452
72439W        W45507  20.597  38.693   4.519
72440W        W45508  33.544  24.698  14.764
72441W        W45509   1.389   4.949  10.596
72442W        W45510  13.582  40.889   1.332
72443W        W45511  32.965   0.517   1.924
72444W        W45512   4.712  24.778  13.275
72445W        W45513  20.993  17.439   0.959
72446W        W45514  43.589  21.453  11.607
72447W        W45515  25.297  24.987   4.258
72448W        W45516   2.684   9.122  13.957
72449W        W45517  34.463  40.309   3.870
72450W        W45518  10.844  29.954   1.268
72451W        W45519  13.179  32.755  14.469
72452W        W45520  43.955  33.449   0.787
72453W        W45521  19.296  19.530   4.226
72454W        W45522  38.980  16.633  10.696
72455W        W45523  27.798  21.246  14.781
72456W        W45524   7.608  10.326   3.528
72457W        W45525  25.509  27.083  13.451
72458W        W45526  35.827  32.978  14.945
72459W        W45527  39.281  31.299   0.798
72460W        W45528  18.617  23.926   0.055
72461W        W45529   9.413  14.202   0.038
72462W        W45530  35.001  20.939   1.155
72463W        W45531   2.019  14.177  10.717
72464W        W45532   2.314  12.742  13.131
72465W        W45533  30.574  17.461   0.321
72466W        W45534  30.508  37.326   3.609
72467W        W45535  30.180  41.389  11.159
72468W        W45536  15.540  34.326  11.167
72469W        W45537   0.685  44.982  11.190
72470W        W45538  19.969  19.362   0.973
72471W        W45539   9.225  17.101  12.417
72472W        W45540   8.113  25.405   3.243
72473W        W45541  40.694  22.674   1.721
72474W        W45542   7.674  10.883  10.681
72475W        W45543   0.191  42.720   0.217
72476W        W45544  15.044   6.838  10.617
72477W        W45545  14.370  42.977   3.425
72478W        W45546   5.841   7.379  14.734
72479W        W45547   7.250   2.181  13.314
72480W        W45548  23.608  16.642   3.134
72481W        W45549  32.522  22.509   1.288
72482W        W45550   5.805   5.969   4.772
72483W        W45551  26.046  10.918   5.010
72484W        W45552  32.143  40.013  10.706
72485W        W45553   9.636  32.128  13.827
72486W        W45554   7.703  38.757   0.424
72487W        W45555  17.110   0.319   9.695
72488W        W45556  29.439  22.688  12.007
72489W        W45557  14.790   3.766  14.235
72490W        W45558  33.622  26.421   1.724
72491W        W45559  29.706  36.294  11.013
72492W        W45560  29.089  30.901  14.872
72493W        W45561  41.440   5.018   1.764
72494W        W45562  41.241  23.152  13.447
72495W        W45563  27.012   7.532   2.673
72496W        W45564   9.705  22.132  11.909
72497W        W45565  18.148  39.799   3.425
72498W        W45566  43.356  36.788   1.466
72499W        W45567   8.875   3.807  10.436
72500W        W45568  26.691  28.951   0.793
72501W        W45569   2.011   9.223  11.429
72502W        W45570   3.866  36.985  13.241
72503W        W45571  30.970  22.511  14.415
72504W        W45572   6.476   9.375  13.806
72505W        W45573  15.861  44.815   4.851
72506W        W45574  37.771   1.477  11.164
72507W        W45575  20.170   2.696   0.134
72508W        W45576  36.875  14.304   4.810
72509W        W45577  32.445  27.243   3.015
72510W        W45578  39.991  28.480   0.296
72511W        W45579  34.112  44.896   4.540
72512W        W45580   3.168   6.747  11.549
72513W        W45581   1.757  14.263  11.145
72514W        W45582  28.671  36.854   0.483
72515W        W45583  32.057  33.849   3.393
72516W        W45584  25.436  21.234   0.853
72517W        W45585  15.677  12.009   1.594
72518W        W45586  29.719  11.688   1.951
72519W        W45587  25.236   9.311   1.352
72520W        W45588  31.701   4.279   2.173
72521W        W45589  13.532   0.995   3.735
72522W        W45590  19.633  13.387  11.905
72523W        W45591  12.795   7.415   2.883
72524W        W45592  17.599  38.804   2.841
72525W        W45593  21.588  14.555  11.094
72526W        W45594   7.251   6.203  14.742
72527W        W45595  22.884  44.422   1.362
72528W        W45596  41.715  26.665   3.621
72529W        W45597   5.309   4.902   1.745
72530W        W45598  24.651  35.174   4.083
72531W        W45599  30.596   5.819   3.704
72532W        W45600  38.394  35.317  11.981
72533W        W45601  28.943  29.674  13.832
72534W        W45602  40.274  16.611   0.809
72535W        W45603   8.330   7.218   2.570
72536W        W45604  38.882   0.753   3.130
72537W        W45605  19.377  20.041   3.202
72538W        W45606   1.345  33.610   2.374
72539W        W45607  13.118  25.121  12.588
72540W        W45608  40.484  39.430  12.838
72541W        W45609  26.120   8.785   2.929
72542W        W45610  37.176  19.517   2.833
72543W        W45611  44.835  44.860   0.670
72544W        W45612  20.958  27.530  14.754
72545W        W45613  23.661  20.817   2.419
72546W        W45614   9.150  39.778  13.445
72547W        W45615  23.614  31.403   4.661
72548W        W45616  18.267  21.322  13.958
72549W        W45617  10.661  13.728  10.601
72550W        W45618  23.010  37.490  10.470
72551W        W45619  16.143  44.599   0.335
72552W        W45620  30.409  15.211  13.021
72553W        W45621  25.493  19.809   2.500
72554W        W45622  29.486  37.964   0.699
72555W        W45623  21.583  43.608   0.704
72556W        W45624   5.021  28.982   2.950
72557W        W45625   9.577  28.383  12.533
72558W        W45626  27.901   4.723  14.325
72559W        W45627  41.302  10.925   0.002
72560W        W45628  24.566  34.519   2.475
72561W        W45629  10.047  31.550  10.739
72562W        W45630  11.138  37.409   2.649
72563W        W45631  29.150  27.443  14.473
72564W        W45632   7.746  28.121   0.714
72565W        W45633  42.786  28.524   1.867
72566W        W45634  42.763  27.947   3.461
72567W        W45635   1.891   3.194  10.554
72568W        W45636  40.693   5.259  13.942
72569W        W45637  38.930   0.265   1.209
72570W        W45638  17.722  37.318   2.644
72571W        W45639  22.728  35.510   2.321
72572W        W45640  17.686  17.834   0.220
72573W        W45641  34.366  13.711   2.635
72574W        W45642  44.440  37.957   4.092
72575W        W45643   6.506  35.965  10.704
72576W        W45644   2.953   9.141  14.464
72577W        W45645   7.294  41.497   2.310
72578W        W45646  14.537  31.704  14.794
72579W        W45647  38.371  31.935   0.281
72580W        W45648  14.736   0.038   3.362
72581W        W45649   2.980  40.931   0.828
72582W        W45650  10.832  16.376   0.721
72583W        W45651  15.778  44.998   0.097
72584W        W45652  20.254  44.040   3.469
72585W        W45653  12.080  29.597  11.442
72586W        W45654   0.223  21.208   4.061
72587W        W45655  38.599   3.294   2.291
72588W        W45656  34.920  39.790  13.022
72589W        W45657  27.976  17.181   1.485
72590W        W45658   5.175  17.243   3.588
72591W        W45659  10.685   9.706   0.220
72592W        W45660  41.675  31.583   0.246
72593W        W45661  18.719  42.080  11.465
72594W        W45662   4.380  13.286   0.425
72595W        W45663  31.937  14.094   3.264
72596W        W45664  38.398  30.020   1.721
72597W        W45665   7.251  43.521  11.990
72598W        W45666  37.971   9.395  10.724
72599W        W45667  31.950  34.160   4.313
72600W        W45668  21.664  40.004  13.624
72601W        W45669  16.488  13.295  14.518
72602W        W45670   6.874  26.646   2.666
72603W        W45671   0.937  12.003  10.329
72604W        W45672  31.887  13.706   3.650
72605W        W45673  29.564  41.916   3.801
72606W        W45674  16.211  11.968  13.068
72607W        W45675   8.014  24.537   0.502
72608W        W45676  25.368   2.977   2.834
72609W        W45677  12.536  42.915  13.577
72610W        W45678  18.553   6.955   3.736
72611W        W45679  42.357  40.391  12.131
72612W        W45680  36.480  38.331  14.229
72613W        W45681  41.319  27.359   1.415
72614W        W45682  20.645  17.688   4.500
72615W        W45683  18.171  20.268  14.086
72616W        W45684  17.787  15.589   0.852
72617W        W45685  37.833   1.038  10.886
72618W        W45686  32.232  27.049  11.030
72619W        W45687  40.864   1.580  12.319
72620W        W45688  14.101   7.799   0.751
72621W        W45689   7.302  36.529   1.716
72622W        W45690  12.840  35.093   0.835
72623W        W45691  33.511  31.333  14.804
72624W        W45692  29.171   8.211   4.401
72625W        W45693  17.696  30.631   2.636
72626W        W45694  37.530  22.136  14.322
72627W        W45695  44.928   8.597  14.021
72628W        W45696  27.172  21.340  12.073
72629W        W45697  10.850  40.813   1.151
72630W        W45698  34.655  23.165  14.036
72631W        W45699   7.127  40.759  12.587
72632W        W45700  21.436  16.251   3.700
72633W        W45701  43.321  40.929  10.991
72634W        W45702  26.392  12.554  10.711
72635W        W45703  15.077   1.226   2.181
72636W        W45704  14.171  35.449   1.980
72637W        W45705  16.585  32.044   1.530
72638W        W45706  15.896  20.211  13.857
72639W        W45707  28.332   7.787   2.849
72640W        W45708  37.901  19.640   3.564
72641W        W45709  26.909  16.146  11.182
72642W        W45710  25.487  13.694  10.984
72643W        W45711  19.153  13.538   0.262
72644W        W45712   3.405  19.832  11.677
72645W        W45713  20.358  41.363  12.576
72646W        W45714   1.818  13.956   2.480
72647W        W45715  15.629  17.944  12.416
72648W        W45716  43.330  35.947   5.084
72649W        W45717  26.850   6.262   2.382
72650W        W45718  31.180   2.697  12.939
72651W        W45719  35.417  27.688  12.011
72652W        W45720  39.467  19.692   1.395
72653W        W45721  17.744  27.472  11.125
72654W        W45722  15.006  39.507   3.355
72655W        W45723  38.052  16.111  11.945
72656W        W45724  41.743  18.617  13.897
72657W        W45725  26.444  25.149   0.446
72658W        W45726  11.878  35.191  11.040
72659W        W45727  34.271  11.517  12.295
72660W        W45728  31.445  39.939  11.519
72661W        W45729  36.549  30.883  14.309
72662W        W45730  37.075  25.480  12.095
72663W        W45731  23.474   9.426   3.977
72664W        W45732  42.437  37.871  11.458
72665W        W45733  25.287   5.812   4.645
72666W        W45734  19.350   0.261   1.027
72667W        W45735  12.078  27.195   2.702
72668W        W45736  22.439   7.182  11.658
72669W        W45737   7.307  34.236  13.320
72670W        W45738   9.337  29.901   4.414
72671W        W45739  36.462  11.186  12.642
72672W        W45740  43.785   5.928   3.812
72673W        W45741  23.566  40.006  13.077
72674W        W45742   6.167  28.380   3.737
72675W        W45743   3.329  15.700  12.377
72676W        W45744  34.923  15.741   3.050
72677W        W45745   2.934  34.361  13.705
72678W        W45746   1.403  12.864  13.289
72679W        W45747  20.964  29.016   4.139
72680W        W45748  12.855  39.394  11.567
72681W        W45749   5.404   8.897   3.667
72682W        W45750  13.147  20.130  12.117
72683W        W45751  38.945  16.593   0.188
72684W        W45752   9.238  11.132  12.920
72685W        W45753  34.806   1.484  12.008
72686W        W45754  39.684   7.561  10.988
72687W        W45755  42.597  29.508  11.011
72688W        W45756  10.347  30.644   2.223
72689W        W45757  39.461  40.243  13.312
72690W        W45758   7.330  41.319   3.266
72691W        W45759  35.900  31.625  10.041
72692W        W45760  22.670  30.158   0.327
72693W        W45761  19.720  23.591   0.965
72694W        W45762  35.569  17.165   1.927
72695W        W45763   8.096  12.399   3.261
72696W        W45764  14.421  27.608   4.850
72697W        W45765  13.401  26.236   3.644
72698W        W45766  34.475  20.178  13.405
72699W        W45767  35.632  28.751   4.420
72700W        W45768   4.874  39.541   2.395
72701W        W45769  33.007  31.673  11.155
72702W        W45770   4.695   6.706  14.012
72703W        W45771  36.548  43.076  11.096
72704W        W45772  40.835  27.294   0.369
72705W        W45773   9.797  15.775  14.381
72706W        W45774   6.763  12.752   2.171
72707W        W45775  14.704  15.098   4.161
72708W        W45776  38.961  41.062   1.880
72709W        W45777  30.341  16.121   4.793
72710W        W45778  36.913  14.149   3.387
72711W        W45779  43.412  21.772  10.666
72712W        W45780  43.101  30.856   0.669
72713W        W45781  14.559  32.407   3.363
72714W        W45782  10.289  24.602   0.968
72715W        W45783  21.989  28.464   2.366
72716W        W45784  28.528  33.980  12.159
72717W        W45785  36.647   7.318  14.814
72718W        W45786  12.872  31.853   2.874
72719W        W45787  44.426  38.377   2.178
72720W        W45788   6.314  39.089   2.052
72721W        W45789   1.351  11.190   0.452
72722W        W45790  24.354   0.863   5.194
72723W        W45791   9.870  10.890  11.105
72724W        W45792  13.921  40.331   0.375
72725W        W45793  18.284  16.684   1.827
72726W        W45794  43.700  19.309  13.998
72727W        W45795   5.416  22.530  10.952
72728W        W45796  42.014  40.022   3.555
72729W        W45797  32.163  20.048   3.161
72730W        W45798  31.186  29.019  12.441
72731W        W45799   4.132  38.374   3.786
72732W        W45800  17.796  28.083   2.417
72733W        W45801  13.715  15.360   4.943
72734W        W45802  25.190  44.243  14.843
72735W        W45803  33.871  16.163  11.501
72736W        W45804  44.500  21.171   3.605
72737W        W45805  22.920  43.320  12.521
72738W        W45806  31.529  24.035   3.758
72739W        W45807   6.429  28.566  11.508
72740W        W45808  18.244   3.719  14.882
72741W        W45809  23.286   6.619   1.336
72742W        W45810   6.908   2.458   2.386
72743W        W45811  12.642  44.309   0.247
72744W        W45812  35.058  23.390   1.735
72745W        W45813  42.568  17.214  12.582
72746W        W45814  30.119  40.012   0.988
72747W        W45815  26.005  30.080   4.581
72748W        W45816   8.087  18.689   1.266
72749W        W45817  40.406  24.542  12.535
72750W        W45818  16.804  33.013  14.562
72751W        W45819  32.178  11.445  12.340
72752W        W45820   2.653  13.910   0.298
72753W        W45821  43.388  30.674   0.277
72754W        W45822  33.934  30.906  14.349
72755W        W45823  10.306  23.065   1.187
72756W        W45824   6.965  39.346   5.042
72757W        W45825   7.326  21.097   1.612
72758W        W45826   2.314  37.022   3.167
72759W        W45827   1.397  34.979  10.701
72760W        W45828  17.682   1.480   3.597
72761W        W45829  36.371   3.047   4.031
72762W        W45830  14.118  22.722  11.515
72763W        W45831  30.486  17.809   2.652
72764W        W45832  42.219  26.036  14.314
72765W        W45833   3.429   6.735   1.268
72766W        W45834  19.677   2.460  11.896
72767W        W45835   1.742  14.350  12.873
72768W        W45836  34.086  13.255   3.328
72769W        W45837  36.023  12.274   1.575
72770W        W45838  27.069  32.644   3.888
72771W        W45839  35.459  18.516  12.433
72772W        W45840   8.936  38.109   2.918
72773W        W45841  38.536  26.874  13.419
72774W        W45842   2.243  25.293  10.125
72775W        W45843  10.714  19.868   3.892
72776W        W45844  32.561  26.704   1.788
72777W        W45845  30.971  37.832  10.953
72778W        W45846  10.812  23.864   3.313
72779W        W45847   8.960  24.231  14.797
72780W        W45848  43.388   6.821   3.106
72781W        W45849  34.855   5.142  13.129
72782W        W45850  23.578  25.619  14.914
72783W        W45851   7.411  44.755  11.074
72784W        W45852  40.285  14.343   3.193
72785W        W45853  44.254  24.615   5.021
72786W        W45854  13.541   0.497   3.601
72787W        W45855  35.027  40.133   2.210
72788W        W45856   3.271   0.691  14.007
72789W        W45857   2.245  41.874   4.601
72790W        W45858  37.409   8.464   1.540
72791W        W45859  29.956  24.817   1.199
72792W        W45860  32.615  26.449  14.097
72793W        W45861  16.241  22.471  12.246
72794W        W45862  35.938   6.848   0.931
72795W        W45863   8.202  39.789  13.231
72796W        W45864  44.215  23.208   3.910
72797W        W45865  19.889  27.123  12.974
72798W        W45866  23.085   5.940   0.001
72799W        W45867  13.529  25.991  14.978
72800W        W45868  15.159  14.921   2.959
72801W        W45869  27.403  21.183  11.582
72802W        W45870   9.394  20.938   2.456
72803W        W45871  10.588  15.292   1.606
72804W        W45872  28.040  37.559  10.791
72805W        W45873  44.713  19.606   4.140
72806W        W45874   0.774  10.659   2.007
72807W        W45875  31.546  25.211  13.042
72808W        W45876  34.613   1.012  14.115
72809W        W45877  18.088   1.028   2.870
72810W        W45878  24.172  42.930  14.206
72811W        W45879  42.332  20.311  13.480
72812W        W45880  33.858  39.128  13.108
72813W        W45881  12.242  31.887   2.345
72814W        W45882  22.706  13.682  13.854
72815W        W45883  24.065   5.961   4.967
72816W        W45884   4.913  19.740  12.488
72817W        W45885  40.749  16.580   1.437
72818W        W45886   1.221   1.284  13.486
72819W        W45887   2.274  11.375   0.445
72820W        W45888  43.525  17.656  12.884
72821W        W45889  30.410  35.460  11.911
72822W        W45890  41.406  23.769  10.610
72823W        W45891   6.281   1.514  14.472
72824W        W45892  10.159  42.890   0.970
72825W        W45893  15.901   2.122  12.831
72826W        W45894   7.753  33.608  12.080
72827W        W45895  31.999  28.461   2.905
72828W        W45896  17.988   0.257   4.198
72829W        W45897  21.716   3.452   2.717
72830W        W45898  43.210  13.936  12.613
72831W        W45899   2.499   5.010   3.638
72832W        W45900   8.647   5.550  12.440
72833W        W45901  20.541  20.917   1.319
72834W        W45902  15.137  33.530  13.091
72835W        W45903   8.670  20.821   0.396
72836W        W45904   5.682  20.659   3.419
72837W        W45905  26.190  20.556   1.373
72838W        W45906  44.745   7.666  13.922
72839W        W45907  18.270  32.788  14.622
72840W        W45908   4.853   8.144   1.914
72841W        W45909  37.413  16.195   1.033
72842W        W45910  29.645  12.902   1.266
72843W        W45911  18.063   2.890  11.188
72844W        W45912  32.349  43.271  13.430
72845W        W45913  10.563  31.849  11.097
72846W        W45914  27.490   4.379   2.607
72847W        W45915  16.828  25.125   4.365
72848W        W45916   0.552  37.887   0.321
72849W        W45917   2.406   5.218   4.907
72850W        W45918  38.055  42.623  11.131
72851W        W45919  29.507  17.680   4.177
72852W        W45920  14.543  10.182   1.888
72853W        W45921   2.752  42.413  11.479
72854W        W45922  24.559  16.578  10.612
72855W        W45923  44.558  19.096  13.027
72856W        W45924  19.576   0.511  13.326
72857W        W45925  26.083  25.536   0.333
72858W        W45926  44.264  19.044   3.653
72859W        W45927  23.083  40.016   4.151
72860W        W45928  27.751  25.622  13.367
72861W        W45929  23.557  37.597  14.297
72862W        W45930  22.432  27.454   3.715
72863W        W45931  42.283  34.154  11.943
72864W        W45932  18.665   4.164  11.797
72865W        W45933  40.174  20.054   0.450
72866W        W45934  14.067  36.655  11.132
72867W        W45935  11.554   6.214  10.136
72868W        W45936   2.012  20.223   0.472
72869W        W45937  40.266  23.580  13.988
72870W        W45938  15.988  27.717  12.591
72871W        W45939  27.491  10.189  10.036
72872W        W45940  12.684  28.404   1.816
72873W        W45941  21.121  36.815  13.862
72874W        W45942  11.629  24.487   4.852
72875W        W45943  23.627  22.674   4.841
72876W        W45944   8.239  34.626   0.726
72877W        W45945  27.347   1.822  11.072
72878W        W45946  30.079  34.587  13.908
72879W        W45947   1.733   6.844   0.444
72880W        W45948   5.995  29.966  13.294
72881W        W45949  39.532  14.335   4.308
72882W        W45950  18.680  32.175  14.406
72883W        W45951   8.616  13.993   1.207
72884W        W45952  28.655  16.745  11.170
72885W        W45953  41.697   0.767   2.132
72886W        W45954  17.744  35.386  13.584
72887W        W45955  15.139  10.360  11.851
72888W        W45956  26.541  36.864   0.344
72889W        W45957  42.662  30.427  10.325
72890W        W45958  42.509  37.507   3.697
72891W        W45959  15.421  27.584   4.623
72892W        W45960  16.317  27.252  10.720
72893W        W45961  31.644  25.177  12.111
72894W        W45962  22.034  43.822   0.838
72895W        W45963   4.811   0.858  14.475
72896W        W45964   1.463  37.837   0.291
72897W        W45965  38.706  20.063  11.998
72898W        W45966   2.894   3.743   2.850
72899W        W45967  36.017  34.404  10.238
72900W        W45968  37.575  17.028   0.858
72901W        W45969   4.665  19.836   2.325
72902W        W45970   2.873  38.434  13.264
72903W        W45971   2.411  25.308   4.584
72904W        W45972  28.361  25.863   2.424
72905W        W45973   0.835  10.714  12.015
72906W        W45974  10.709  22.078  11.214
72907W        W45975   6.806  11.079   0.254
72908W        W45976  20.279  28.005   3.936
72909W        W45977   9.871  15.174  11.280
72910W        W45978  32.308  41.938  14.484
72911W        W45979  10.762  39.723   4.404
72912W        W45980  17.669  22.993  14.313
72913W        W45981  20.661  20.218  13.906
72914W        W45982  37.775  28.461  13.122
72915W        W45983  33.091  39.613  12.992
72916W        W45984  40.531  37.232   4.550
72917W        W45985  29.077   9.332   1.301
72918W        W45986   2.913  30.757  11.553
72919W        W45987  24.549  26.630   3.677
72920W        W45988  33.480  12.738   4.256
72921W        W45989   7.042  35.020   1.283
72922W        W45990  43.940  44.948  10.734
72923W        W45991  11.085  36.312   1.723
72924W        W45992  22.641  40.673   1.678
72925W        W45993   2.495  14.826  11.122
72926W        W45994   2.360  32.122  11.529
72927W        W45995   4.433  33.980   2.883
72928W        W45996  23.780  22.261  11.968
72929W        W45997  25.433  40.835   4.168
72930W        W45998  21.758   7.879  11.980
72931W        W45999  29.123  17.762  10.765
72932W        W46000  13.190   0.909  10.921
72933W        W46001  32.103   0.889   4.541
72934W        W46002  28.263  36.446  12.422
72935W        W46003  39.687  20.976   2.689
72936W        W46004  11.167  26.599   0.751
72937W        W46005  36.770  37.874   0.340
72938W        W46006   3.420  17.582  12.867
72939W        W46007  14.733   1.226  10.747
72940W        W46008  16.205  44.992   4.480
72941W        W46009  34.051  29.514   1.974
72942W        W46010  11.783   1.233  12.764
72943W        W46011   3.175  28.640  11.165
72944W        W46012  36.097  23.179   3.250
72945W        W46013  39.445  33.486  14.441
72946W        W46014  21.555   9.623   4.618
72947W        W46015  15.676   5.406   1.315
72948W        W46016   3.924  21.985   2.197
72949W        W46017  29.832  14.147  12.917
72950W        W46018  26.947  40.538   0.839
72951W        W46019   3.198  28.077  10.466
72952W        W46020  28.504  29.972  14.831
72953W        W46021   1.394  15.586  11.475
72954W        W46022   9.421   7.348  14.958
72955W        W46023  42.355  39.844  14.183
72956W        W46024  25.494  16.785   0.889
72957W        W46025  16.693  14.487   2.930
72958W        W46026  33.130  16.030  12.652
72959W        W46027   9.591   4.768  10.634
72960W        W46028  37.530  23.006   0.778
72961W        W46029  44.904   7.766   4.097
72962W        W46030  32.834  35.852  13.777
72963W        W46031   9.825  13.422   0.760
72964W        W46032  22.225  34.334  10.697
72965W        W46033  13.844  22.988   3.205
72966W        W46034  14.814  25.900   0.078
72967W        W46035  16.989  43.292  12.498
72968W        W46036  32.543  13.371   0.696
72969W        W46037  12.383   8.848  10.673
72970W        W46038  24.986  20.060   0.921
72971W        W46039   2.430   6.658  12.881
72972W        W46040  30.528  44.833  13.870
72973W        W46041   7.908   9.678   2.197
72974W        W46042  43.997  27.612   4.037
72975W        W46043   4.055  37.552   1.967
72976W        W46044   7.120  32.483   3.246
72977W        W46045  40.111  38.753   2.316
72978W        W46046  44.272   7.376  14.341
72979W        W46047  39.588  10.167   3.643
72980W        W46048  12.963  31.220   4.177
72981W        W46049  35.037  11.845  14.568
72982W        W46050   0.533  16.969   4.091
72983W        W46051  44.375   9.922  11.549
72984W        W46052   6.709  13.731   1.655
72985W        W46053   8.027   5.572  11.491
72986W        W46054   2.725  39.761   1.946
72987W        W46055  42.744  24.267   1.236
72988W        W46056  40.538  43.660  11.633
72989W        W46057   3.297   5.880  11.130
72990W        W46058  13.738  35.047   1.882
72991W        W46059  44.154  13.702   9.766
72992W        W46060  35.082   1.541  13.914
72993W        W46061  21.751  30.374  11.141
72994W        W46062   9.737  21.348  14.425
72995W        W46063   0.363  22.025  13.398
72996W        W46064   8.697  21.647  14.760
72997W        W46065  21.128   8.288   1.329
72998W        W46066  33.548  25.566  13.819
72999W        W46067  36.408  18.342  13.386
73000W        W46068  36.698  26.767   0.021
73001W        W46069  37.248  13.471   5.121
73002W        W46070  34.480  17.260   4.358
73003W        W46071  25.263  43.414   0.283
73004W        W46072  16.811  14.254   0.006
73005W        W46073  27.343   0.724   1.480
73006W        W46074   1.124   6.261   0.788
73007W        W46075  29.539  40.018   4.711
73008W        W46076   7.083   3.620  13.523
73009W        W46077  44.262  20.274  12.102
73010W        W46078  40.793  12.137   1.902
73011W        W46079  19.180  29.343   3.533
73012W        W46080  38.165  38.880  14.010
73013W        W46081  22.248  27.089   3.347
73014W        W46082   1.546  44.352   1.814
73015W        W46083   6.950   1.337   0.240
73016W        W46084  34.337  10.893   2.757
73017W        W46085  44.530  20.265   0.375
73018W        W46086  11.648  15.138   4.605
73019W        W46087   5.208  41.194  11.513
73020W        W46088  30.565  14.370  14.435
73021W        W46089  21.319  34.947   0.764
73022W        W46090  40.321  26.200  12.095
73023W        W46091   5.170  22.634   2.341
73024W        W46092  37.099  22.820  14.892
73025W        W46093  40.658  34.556  11.531
73026W        W46094  36.044  28.138  14.343
73027W        W46095  40.394   1.148  10.117
73028W        W46096  26.726  20.699  12.030
73029W        W46097  37.281  14.002   4.959
73030W        W46098  43.371   9.637   3.459
73031W        W46099  21.910  41.577  14.788
73032W        W46100  28.347  40.452   0.921
73033W        W46101  28.954   2.711  10.648
73034W        W46102  25.599   9.922  10.627
73035W        W46103  18.538  14.070  12.040
73036W        W46104  44.043  41.550   2.478
73037W        W46105  33.150  19.451  13.879
73038W        W46106   2.166  21.204   0.933
73039W        W46107  23.216  17.282  11.552
73040W        W46108   7.914   6.581   3.109
73041W        W46109  28.727  14.783  13.499
73042W        W46110   8.346  15.203   4.193
73043W        W46111  22.442  39.046  11.521
73044W        W46112   0.582  36.573   2.508
73045W        W46113   7.182   0.317   2.285
73046W        W46114  40.333   2.537  13.826
73047W        W46115  39.411  25.174  13.876
73048W        W46116   0.656   6.788  12.507
73049W        W46117  18.236  26.844  14.696
73050W        W46118  25.048  12.456   5.183
73051W        W46119   0.913  24.709   1.197
73052W        W46120  25.327  26.607   5.053
73053W        W46121  42.827   5.429  14.038
73054W        W46122  22.666  36.401  13.326
73055W        W46123  24.606  42.513   0.921
73056W        W46124   2.778  33.439  13.480
73057W        W46125  26.121  31.433  11.839
73058W        W46126  29.632  26.550   1.892
73059W        W46127   9.321   9.336  13.463
73060W        W46128  17.417   4.221   1.092
73061W        W46129   2.486  29.629   1.897
73062W        W46130   1.689  40.474  10.581
73063W        W46131  32.908  16.069  10.566
73064W        W46132  18.234  37.445  14.936
73065W        W46133  32.021  24.131  12.666
73066W        W46134   9.150  20.703   3.920
73067W        W46135  28.612  38.538  12.817
73068W        W46136   9.317  22.064   1.422
73069W        W46137  41.375  21.103   1.982
73070W        W46138  36.221  39.727  11.993
73071W        W46139  11.748  16.278   4.670
73072W        W46140  43.872  33.555  11.091
73073W        W46141  25.912  16.585  13.472
73074W        W46142  30.497  21.657   2.346
73075W        W46143  44.293  36.572  13.094
73076W        W46144  33.488  18.768  12.905
73077W        W46145  18.717  18.362   4.205
73078W        W46146   1.732   3.398  12.410
73079W        W46147  29.687   2.364  13.856
73080W        W46148  22.652   4.786   4.102
73081W        W46149  33.162  24.208  10.804
73082W        W46150  44.856  32.088  13.558
73083W        W46151  13.230   7.224  10.654
73084W        W46152  34.182  16.200  11.087
73085W        W46153   9.748  37.397   2.929
73086W        W46154  19.281  27.613  11.100
73087W        W46155  30.125  44.923   3.302
73088W        W46156  43.456  31.578  14.232
73089W        W46157  34.134   6.965   1.988
73090W        W46158   1.737  27.536   1.414
73091W        W46159  28.898  26.899  11.140
73092W        W46160  23.898   3.920   2.678
73093W        W46161  32.952  27.002   2.694
73094W        W46162  33.498  12.260  13.050
73095W        W46163   7.976  14.804   1.270
73096W        W46164  35.436  40.069   3.729
73097W        W46165  34.935  40.442   3.125
73098W        W46166   3.863  30.187   2.699
73099W        W46167  23.870  26.400  12.371
73100W        W46168  41.044   3.735  12.964
73101W        W46169  35.653  41.365   1.353
73102W        W46170  14.914  33.954   0.399
73103W        W46171  15.709  31.703  14.713
73104W        W46172  43.499  44.809  11.539
73105W        W46173  25.706  36.145  11.296
73106W        W46174  33.915  25.541   2.312
73107W        W46175   9.610  41.520  10.159
73108W        W46176  17.290   4.702   1.883
73109W        W46177  31.065  11.189  14.284
73110W        W46178  42.241  43.938  11.523
73111W        W46179  27.540   0.702   0.992
73112W        W46180  36.600  26.033   3.649
73113W        W46181  18.904  32.878   3.192
73114W        W46182   1.007   1.376   0.747
73115W        W46183  37.703  29.940  13.036
73116W        W46184  23.501   9.801  12.936
73117W        W46185  10.120  38.482  14.761
73118W        W46186  33.403  21.458   2.836
73119W        W46187  19.963  17.198  12.014
73120W        W46188  41.930  15.673  12.331
73121W        W46189  12.370  44.753  13.436
73122W        W46190  36.321   3.734   2.744
73123W        W46191  40.915  28.020   3.825
73124W        W46192  22.181  40.781   3.866
73125W        W46193  39.785   6.232   2.334
73126W        W46194  44.122  22.210  12.062
73127W        W46195   9.858  40.878   2.643
73128W        W46196  29.931  43.083  12.929
73129W        W46197   0.043  18.072   2.764
73130W        W46198  37.112  33.483  12.960
73131W        W46199  41.804  29.079  13.526
73132W        W46200  40.852  29.247   4.424
73133W        W46201   8.602  20.317   0.439
73134W        W46202  11.666  34.869   4.296
73135W        W46203   8.572  38.498   1.915
73136W        W46204  39.334   2.987  14.649
73137W        W46205   3.357   8.344  11.614
73138W        W46206  10.533   8.251  10.371
73139W        W46207  33.747   3.655   2.786
73140W        W46208  39.782  37.375   4.049
73141W        W46209  16.245  43.807   2.335
73142W        W46210  37.855   9.465  12.082
73143W        W46211  17.461  33.041   1.378
73144W        W46212  21.592  24.593   3.333
73145W        W46213  44.032   1.482  12.210
73146W        W46214  11.271  17.147   3.100
73147W        W46215  17.283   9.787   0.297
73148W        W46216  30.007  34.367  11.160
73149W        W46217  22.284  31.834  10.705
73150W        W46218  30.003   7.001   3.246
73151W        W46219   7.205   3.759   0.361
73152W        W46220  40.950  21.247  14.519
73153W        W46221  23.071  31.102   2.145
73154W        W46222  44.006  21.488   2.190
73155W        W46223   2.223  25.634  14.709
73156W        W46224   1.484  43.081  12.000
73157W        W46225  32.558  16.168   0.260
73158W        W46226   5.769  24.015  12.859
73159W        W46227  25.684  43.701  13.794
73160W        W46228  20.156  12.354   2.287
73161W        W46229   8.135  27.634   1.380
73162W        W46230  25.196  30.062   5.036
73163W        W46231  17.635  16.795  13.932
73164W        W46232   4.449  27.451  12.935
73165W        W46233  30.512  41.558  14.372
73166W        W46234  28.526  15.155   4.168
73167W        W46235   2.838  12.076  12.905
73168W        W46236  33.563   6.347   2.630
73169W        W46237  27.806   7.758   2.940
73170W        W46238   2.298  40.318  11.151
73171W        W46239   9.224  12.722  13.717
73172W        W46240  16.857   1.322   5.013
73173W        W46241   4.593   1.560   3.392
73174W        W46242  37.554  27.162  14.452
73175W        W46243  36.590  33.665   5.447
73176W        W46244   4.396  20.690   2.905
73177W        W46245  18.722  33.649   1.154
73178W        W46246   5.816   8.618   3.881
73179W        W46247  42.284   6.842  10.701
73180W        W46248  40.848  24.645   0.838
73181W        W46249  31.260   1.777   5.010
73182W        W46250  11.126  42.356  10.888
73183W        W46251   3.921  25.423   4.307
73184W        W46252  23.195  23.140   0.565
73185W        W46253  41.457  43.366  11.131
73186W        W46254  13.305  17.001   5.432
73187W        W46255  19.194  34.438   2.683
73188W        W46256   3.359  44.779   2.856
73189W        W46257  21.832   0.361   1.288
73190W        W46258  11.767  21.922   1.212
73191W        W46259   3.083  40.256  14.969
73192W        W46260   8.506   6.446  12.237
73193W        W46261  24.529  19.201  12.410
73194W        W46262  19.640  41.084   3.349
73195W        W46263  33.111  22.467  11.865
73196W        W46264   8.718  32.679   2.280
73197W        W46265  18.970   0.909  12.476
73198W        W46266  13.379  12.753   0.529
73199W        W46267  25.256  41.230  13.961
73200W        W46268  32.374   7.877  10.697
73201W        W46269  19.958  12.153  13.524
73202W        W46270  44.257  41.085   2.432
73203W        W46271   5.760   2.137  11.050
73204W        W46272   6.100  21.789   1.314
73205W        W46273  28.429   5.886   0.925
73206W        W46274  30.414  42.022   1.829
73207W        W46275  16.343  10.602   2.269
73208W        W46276  27.899  33.171  11.126
73209W        W46277  27.792  31.063   2.237
73210W        W46278  17.790  42.405  11.511
73211W        W46279  14.126   8.770   4.094
73212W        W46280  42.669   9.330   4.480
73213W        W46281  13.268  19.760  13.025
73214W        W46282  19.111  16.200   2.541
73215W        W46283  36.843   3.179   3.910
73216W        W46284  10.205  41.341   3.793
73217W        W46285  13.997  41.389  11.133
73218W        W46286  43.018  15.564  11.515
73219W        W46287  19.293  20.333  12.521
73220W        W46288  31.579  10.323  12.139
73221W        W46289   5.290  22.478   0.852
73222W        W46290  22.746  31.523  12.097
73223W        W46291   3.483  18.581  14.011
73224W        W46292  22.914   9.235   0.906
73225W        W46293  11.735  43.218  13.355
73226W        W46294  16.657  40.709  13.557
73227W        W46295  40.874   5.213   2.780
73228W        W46296   1.395  33.062   4.119
73229W        W46297  22.916  15.057  13.382
73230W        W46298  43.368  31.955  14.589
73231W        W46299  20.782  32.041  10.679
73232W        W46300  33.168  37.299   2.305
73233W        W46301   8.404  39.232   5.010
73234W        W46302   9.245  20.644   4.447
73235W        W46303  44.209  20.680  13.394
73236W        W46304  29.896  26.225  10.515
73237W        W46305   5.648  11.880  14.883
73238W        W46306   7.642  38.064  14.039
73239W        W46307  44.689  24.941  10.035
73240W        W46308  27.837  17.240  12.593
73241W        W46309  40.535  15.676  10.100
73242W        W46310  35.462  44.602   3.743
73243W        W46311   6.036  19.329  11.106
73244W        W46312  35.378  12.883  12.027
73245W        W46313  13.748  22.063  12.910
73246W        W46314  16.494  28.273   1.392
73247W        W46315   3.941   7.753  12.052
73248W        W46316   4.723  42.295   4.123
73249W        W46317  15.526  35.846   2.926
73250W        W46318  25.131  14.261  12.589
73251W        W46319  29.507  23.025  11.429
73252W        W46320  37.890  32.537   3.724
73253W        W46321  11.165  19.202   1.344
73254W        W46322   5.215  37.574  11.041
73255W        W46323  41.502   1.905  13.454
73256W        W46324  11.601  40.660   2.795
73257W        W46325   9.738  37.601  10.587
73258W        W46326  19.686  42.842  13.988
73259W        W46327  27.112  29.486  11.099
73260W        W46328  41.407  10.458  11.230
73261W        W46329  23.298  19.975   4.979
73262W        W46330  38.994   6.914  10.931
73263W        W46331  13.811  37.557   4.441
73264W        W46332  36.786  27.290   0.004
73265W        W46333   0.098  29.007  11.920
73266W        W46334  44.939   1.146  13.061
73267W        W46335  39.083  37.968  14.895
73268W        W46336  25.022  26.071  10.620
73269W        W46337  19.687  24.894   2.881
73270W        W46338  38.969  15.316   1.725
73271W        W46339  21.682  43.974   1.743
73272W        W46340  22.115  34.698   1.078
73273W        W46341  22.178  19.271   3.028
73274W        W46342   5.006   2.765   1.443
73275W        W46343  26.530   7.789   0.224
73276W        W46344   1.750  28.255  14.005
73277W        W46345  23.724  12.380   3.733
73278W        W46346  29.140  30.554  10.750
73279W        W46347  38.907  22.228   3.727
73280W        W46348  13.024  15.142   0.478
73281W        W46349  26.690   3.429  10.742
73282W        W46350  20.129  22.102  12.974
73283W        W46351  35.314  33.897   4.148
73284W        W46352  23.240  30.712  13.749
73285W        W46353   7.435  14.643  14.047
73286W        W46354  31.501   8.415  12.812
73287W        W46355  12.230  30.194   1.908
73288W        W46356   8.603   9.447   2.723
73289W        W46357  33.858  22.174  14.212
73290W        W46358   5.266   3.468  11.309
73291W        W46359   8.313  31.654   1.116
73292W        W46360  33.992  39.724  13.938
73293W        W46361   8.166  33.652   0.466
73294W        W46362  13.279   0.375   4.589
73295W        W46363  12.156  32.877   4.832
73296W        W46364  40.481  36.643  10.680
73297W        W46365  31.566  22.254   1.639
73298W        W46366  21.516  12.920   1.150
73299W        W46367   6.628  11.119   4.142
73300W        W46368  22.661   4.271   3.205
73301W        W46369  33.504  42.481   2.653
73302W        W46370  31.553  23.450  15.000
73303W        W46371  27.162  37.821   0.894
73304W        W46372  24.553  29.178  13.395
73305W        W46373  20.607  26.151  11.687
73306W        W46374  35.038   3.792  14.245
73307W        W46375  13.873  37.530   1.287
73308W        W46376  43.506  42.284  13.714
73309W        W46377  35.531   4.801   0.386
73310W        W46378  30.026   3.311  12.605
73311W        W46379  29.352   4.700   0.771
73312W        W46380  31.983  32.406  12.798
73313W        W46381  16.790   7.246  14.762
73314W        W46382  28.445  16.854   4.111
73315W        W46383   6.796  23.206  14.927
73316W        W46384  11.476  12.763   3.888
73317W        W46385  11.153   4.733  10.463
73318W        W46386   6.928  25.904  14.731
73319W        W46387  25.603  19.539  10.255
73320W        W46388  32.075  24.615  12.472
73321W        W46389   4.732  22.390  11.749
73322W        W46390  34.604   1.445  13.776
73323W        W46391  12.095  38.593   4.246
73324W        W46392  16.397  22.724   2.810
73325W        W46393  36.469  31.882   2.860
73326W        W46394  15.320  25.189  13.416
73327W        W46395   9.940  37.491  11.501
73328W        W46396  34.912   2.465  13.764
73329W        W46397  23.041   1.366  14.121
73330W        W46398  17.603  18.279   1.396
73331W        W46399  29.980  11.367   4.569
73332W        W46400  13.715  18.238   3.361
73333W        W46401  10.721  11.765  10.216
73334W        W46402  39.979  12.332  13.447
73335W        W46403  14.661  12.091   0.753
73336W        W46404  39.354   3.135  10.712
73337W        W46405  10.505  14.308  12.230
73338W        W46406   7.251  20.909   0.262
73339W        W46407   1.496  21.276  11.096
73340W        W46408   3.334  42.307   0.203
73341W        W46409  33.134  29.997  11.913
73342W        W46410  15.864  31.973  14.263
73343W        W46411  26.929  37.014   2.306
73344W        W46412  15.194  40.841   1.375
73345W        W46413  26.870   1.791   0.976
73346W        W46414  19.558  43.443  12.664
73347W        W46415  41.070   2.398  12.889
73348W        W46416   9.680   0.910  12.949
73349W        W46417   4.710  20.910   3.749
73350W        W46418  42.702  17.589  13.413
73351W        W46419  33.585  22.503  10.535
73352W        W46420   0.295  18.718  12.889
73353W        W46421  13.851  22.271   0.792
73354W        W46422   6.909  25.999   0.994
73355W        W46423  24.639   5.744  13.677
73356W        W46424  13.272   6.978   0.778
73357W        W46425   0.946   5.630  11.641
73358W        W46426  43.182  23.458  11.624
73359W        W46427  44.456  31.834  13.789
73360W        W46428  33.005  39.233   3.760
73361W        W46429  41.484  16.246   0.613
73362W        W46430   5.151  39.006   4.146
73363W        W46431  39.060  19.697  14.512
73364W        W46432   4.358  15.096  11.584
73365W        W46433  40.506  28.889  11.210
73366W        W46434  23.799   3.812   3.394
73367W        W46435  30.354  29.470  10.736
73368W        W46436   4.892  37.016  13.902
73369W        W46437   2.787   1.667   4.511
73370W        W46438  32.888  44.011   4.594
73371W        W46439  20.051  43.298   2.939
73372W        W46440   3.858  18.824   3.673
73373W        W46441  36.492  11.762   3.172
73374W        W46442  34.181   6.649   2.418
73375W        W46443   2.294  36.491  11.667
73376W        W46444  38.864  20.517   2.604
73377W        W46445   1.572  35.046   3.153
73378W        W46446  41.877  24.042  13.186
73379W        W46447  33.682  30.601   2.227
73380W        W46448  25.157   5.712   1.939
73381W        W46449  38.137  24.680   3.136
73382W        W46450  40.461  42.252   0.669
73383W        W46451  34.984  11.429   4.145
73384W        W46452  20.817   4.531  13.241
73385W        W46453   5.724   8.479  14.494
73386W        W46454  41.279  39.109  13.949
73387W        W46455  27.881  14.836  11.743
73388W        W46456  35.163  42.881   0.009
73389W        W46457  26.443  31.318  11.144
73390W        W46458  17.388   9.089   1.408
73391W        W46459  22.483  27.540   2.340
73392W        W46460  44.310  37.163   5.034
73393W        W46461   8.235  35.032   3.286
73394W        W46462  39.649  19.303  12.835
73395W        W46463  15.939  42.055   4.118
73396W        W46464  10.207   2.233   1.295
73397W        W46465  30.640  18.164  10.708
73398W        W46466  22.103  37.899  14.200
73399W        W46467  29.558  10.651   1.385
73400W        W46468   5.053  44.013   3.062
73401W        W46469  44.359   1.352   4.263
73402W        W46470   3.972   4.988   1.465
73403W        W46471  25.835   7.442   2.359
73404W        W46472  23.269  19.741   1.485
73405W        W46473  17.636  14.799   3.426
73406W        W46474   1.216  35.451   1.882
73407W        W46475  37.888   3.439  11.688
73408W        W46476  32.987  42.057   0.349
73409W        W46477  31.448  35.128   0.780
73410W        W46478   9.297  22.145  11.629
73411W        W46479  19.632  21.957   0.881
73412W        W46480  33.528  33.579   2.254
73413W        W46481   4.902   2.577   1.958
73414W        W46482   7.188  40.703   3.885
73415W        W46483  42.317  43.305   3.194
73416W        W46484  12.323  17.569   4.622
73417W        W46485  28.928   1.124  11.390
73418W        W46486  22.390   8.218   0.868
73419W        W46487  43.873   8.600  12.505
73420W        W46488   0.189  39.852  14.808
73421W        W46489  39.920  43.336   4.257
73422W        W46490   0.783  10.091   3.638
73423W        W46491  14.350   3.771   1.948
73424W        W46492  12.607  28.919   1.953
73425W        W46493  25.209  44.338   0.353
73426W        W46494  21.286  10.937  13.769
73427W        W46495  25.550   7.740  11.633
73428W        W46496  42.306  38.591  14.757
73429W        W46497  41.889  36.804   3.978
73430W        W46498  21.675   8.621  11.052
73431W        W46499   5.663   7.815   1.442
73432W        W46500  21.684  28.015   1.214
73433W        W46501  29.554  13.423   1.274
73434W        W46502  22.989  17.737  11.597
73435W        W46503  26.319  38.846  14.305
73436W        W46504  14.083   4.853  14.407
73437W        W46505   9.263   4.290  13.824
73438W        W46506  39.368  32.112  11.415
73439W        W46507  24.175  39.049  14.529
73440W        W46508  40.179  12.152  11.832
73441W        W46509  10.921  19.626   5.302
73442W        W46510  40.813  16.730   2.934
73443W        W46511  34.159  28.296   4.591
73444W        W46512  27.533  34.576   4.603
73445W        W46513  29.817   7.236  14.364
73446W        W46514  29.187   7.784   1.192
73447W        W46515  33.832  26.288   0.802
73448W        W46516   2.245  29.475   1.470
73449W        W46517  31.359  20.161   2.745
73450W        W46518  30.023  11.247   3.291
73451W        W46519  43.684  37.551  14.464
73452W        W46520  36.709   5.790   1.950
73453W        W46521  16.313  31.221  11.370
73454W        W46522  23.057  22.002  11.157
73455W        W46523   0.723  26.038   3.678
73456W        W46524  25.718  13.725   3.812
73457W        W46525  27.931  39.881   3.429
73458W        W46526  34.376  39.650  14.297
73459W        W46527  11.286  36.731  11.790
73460W        W46528  42.963  23.729   4.711
73461W        W46529  40.381  41.602   0.001
73462W        W46530  16.455  23.726   3.690
73463W        W46531  39.990   1.901   5.165
73464W        W46532  26.673  18.748  11.203
73465W        W46533   1.159   6.825  11.621
73466W        W46534  39.005  40.698  10.677
73467W        W46535  16.618  28.535   0.109
73468W        W46536   5.121   8.618   0.351
73469W        W46537  36.099   2.686   0.100
73470W        W46538  17.862  25.124  13.071
73471W        W46539  19.999  43.246  12.488
73472W        W46540  21.273  14.558   2.266
73473W        W46541  38.615  25.924   2.744
73474W        W46542  22.517  43.751   3.695
73475W        W46543  28.938  18.495   1.436
73476W        W46544   0.748  43.397  13.463
73477W        W46545  14.203   5.955  10.927
73478W        W46546  33.975   2.006  14.763
73479W        W46547   9.739  21.173  12.965
73480W        W46548  11.337  29.157   0.474
73481W        W46549   1.111  23.261   2.399
73482W        W46550  25.271  37.110  12.544
73483W        W46551  14.717  25.522   0.769
73484W        W46552  34.976  34.823   1.017
73485W        W46553  23.687   8.469  14.386
73486W        W46554  15.299  26.811  14.712
73487W        W46555   3.036  23.816  12.555
73488W        W46556  29.702  24.895  11.645
73489W        W46557  43.233  43.943   4.417
73490W        W46558  11.601  10.234   2.837
73491W        W46559  38.352  30.553   1.777
73492W        W46560   6.036  41.341  12.863
73493W        W46561  22.541  29.946  12.036
73494W        W46562  25.184   4.794   2.562
73495W        W46563  31.346  27.949   2.423
73496W        W46564  40.946   9.294   4.158
73497W        W46565  36.563   7.843  14.949
73498W        W46566  16.530  22.243   1.255
73499W        W46567   0.150  18.824  13.839
73500W        W46568  41.822  21.085   1.688
73501W        W46569  38.279  31.213   2.747
73502W        W46570  34.644  26.967   2.441
73503W        W46571  13.813  28.574   4.184
73504W        W46572  41.333  34.645   3.304
73505W        W46573  13.609  12.830   3.238
73506W        W46574  15.384   6.953   0.754
73507W        W46575  28.893   2.293   4.301
73508W        W46576  38.530   2.631  11.018
73509W        W46577  44.254  18.632  10.952
73510W        W46578   6.162  21.010  11.577
73511W        W46579  23.470  11.188   3.221
73512W        W46580  11.311  20.811   3.173
73513W        W46581  30.103   0.199   3.747
73514W        W46582   5.767  37.524   2.651
73515W        W46583  31.638  41.399  12.492
73516W        W46584  32.932  22.790   2.240
73517W        W46585   2.981  29.758   1.953
73518W        W46586   6.835   2.219  14.512
73519W        W46587   7.367  26.133  12.998
73520W        W46588  33.965  16.208   0.313
73521W        W46589   4.050  35.924   2.445
73522W        W46590  19.028   7.703   3.236
73523W        W46591  25.176  42.165   1.897
73524W        W46592  36.096   3.817  11.120
73525W        W46593   9.785  35.761   0.312
73526W        W46594  42.228   1.954  10.416
73527W        W46595   7.245  44.489   1.709
73528W        W46596  39.059  37.115   0.920
73529W        W46597  26.744  42.419  11.505
73530W        W46598  12.431   6.756   4.243
73531W        W46599  20.184   4.676   0.218
73532W        W46600   4.002  43.728  13.104
73533W        W46601   5.365  18.232   0.373
73534W        W46602  10.179  19.803  12.954
73535W        W46603  35.689   6.557  12.624
73536W        W46604  38.013  12.660   5.115
73537W        W46605  20.219  28.504  12.830
73538W        W46606  41.272  18.798   3.767
73539W        W46607  44.998  23.092   3.160
73540W        W46608  43.912  40.939   1.846
73541W        W46609  43.263  27.677   0.298
73542W        W46610  41.360  26.492  12.349
73543W        W46611  15.663  34.158  11.867
73544W        W46612  36.148   6.866   3.223
73545W        W46613  31.067  36.463   1.824
73546W        W46614  36.842   4.990   2.348
73547W        W46615   7.750   7.692  14.365
73548W        W46616  37.288   1.364  13.873
73549W        W46617  44.006  29.115  13.389
73550W        W46618  27.261   2.880  12.014
73551W        W46619  13.311  20.219   0.234
73552W        W46620  43.383   4.695   1.373
73553W        W46621  26.982   5.863  10.593
73554W        W46622   2.492  11.552  10.715
73555W        W46623   7.115  40.023   2.658
73556W        W46624  10.386   9.196   2.244
73557W        W46625  29.852  21.881  12.871
73558W        W46626  18.568   1.167   5.043
73559W        W46627  34.634  44.479  14.818
73560W        W46628  30.543   0.468   3.798
73561W        W46629  43.298   6.738   2.120
73562W        W46630  22.554  44.775  14.069
73563W        W46631  16.517   6.275  11.646
73564W        W46632  19.930  37.604   0.343
73565W        W46633  12.098  18.284  13.912
73566W        W46634   4.818  32.930  10.079
73567W        W46635  12.278  24.280   0.131
73568W        W46636  20.671   3.897  14.118
73569W        W46637  20.610  31.954   4.107
73570W        W46638  13.496  20.804   2.825
73571W        W46639  33.097  15.869   1.548
73572W        W46640  17.712  15.402  11.051
73573W        W46641   8.387  38.429   5.424
73574W        W46642  40.756  16.906  12.425
73575W        W46643  21.015  39.316  13.862
73576W        W46644  37.377  23.031   3.934
73577W        W46645  10.362  10.706  10.801
73578W        W46646   5.171  42.275   1.839
73579W        W46647  32.065  41.028  12.689
73580W        W46648  29.137   5.644   1.635
73581W        W46649  39.065  15.590   3.253
73582W        W46650  15.038   3.990   1.393
73583W        W46651  32.877  39.344  13.380
73584W        W46652   6.846  34.412  13.597
73585W        W46653   7.790   7.348   4.777
73586W        W46654   5.881  44.922  13.418
73587W        W46655  13.721  19.112   4.797
73588W        W46656  42.635  43.264   2.791
73589W        W46657  27.823   6.890   4.619
73590W        W46658  24.236  37.466   3.372
73591W        W46659  39.867   1.904  10.621
73592W        W46660  18.621  12.394  12.170
73593W        W46661  18.654  44.348  10.113
73594W        W46662  33.460   0.240   2.806
73595W        W46663  43.013  40.268  14.072
73596W        W46664  31.695  29.730  13.484
73597W        W46665  29.100  20.434   0.542
73598W        W46666  33.110  12.712   3.887
73599W        W46667   0.847  28.165   0.722
73600W        W46668  28.190  25.505   1.758
73601W        W46669  21.981  22.761   2.312
73602W        W46670  15.672   7.464  10.760
73603W        W46671  14.810  40.422   0.726
73604W        W46672  26.397  29.571   2.743
73605W        W46673  38.032  17.717  11.948
73606W        W46674  27.071  36.918  12.856
73607W        W46675  21.509  15.270  13.603
73608W        W46676  16.984  32.206   0.472
73609W        W46677   9.626  42.931  14.282
73610W        W46678   0.652  24.341  13.944
73611W        W46679  16.303  12.130   2.260
73612W        W46680  40.736  18.506  10.709
73613W        W46681  35.232  16.876   4.442
73614W        W46682  35.348   2.425  12.905
73615W        W46683  17.744  13.109  14.099
73616W        W46684   7.329  36.086   3.143
73617W        W46685  10.177  33.568  12.160
73618W        W46686  39.227  27.210   1.984
73619W        W46687   3.210   8.183   4.434
73620W        W46688   2.615  13.716   0.768
73621W        W46689   3.403  27.686  13.158
73622W        W46690  37.076  10.256  14.375
73623W        W46691   0.394   2.277  13.339
73624W        W46692  29.482  30.212   0.852
73625W        W46693   5.701  10.716  12.910
73626W        W46694  38.190  31.470   3.786
73627W        W46695  41.903  21.768   2.488
73628W        W46696  36.836   1.212   2.665
73629W        W46697   5.926  28.937  11.191
73630W        W46698   9.805   2.746  14.901
73631W        W46699   0.972  12.541   2.425
73632W        W46700   9.441  37.545   0.412
73633W        W46701  38.982  26.008   2.393
73634W        W46702  42.055  17.301  12.543
73635W        W46703  13.003  15.111  10.729
73636W        W46704  10.789   6.349   4.244
73637W        W46705   9.372  15.662   3.094
73638W        W46706  37.550  22.027   1.419
73639W        W46707  13.636  30.565  10.840
73640W        W46708  14.528   0.358   2.611
73641W        W46709  30.550   7.648  13.914
73642W        W46710  37.171  36.066  11.916
73643W        W46711  16.164  35.954   0.913
73644W        W46712  34.022  28.054  10.890
73645W        W46713  10.011  30.672  12.926
73646W        W46714   1.495   9.758   1.340
73647W        W46715  32.683  37.363   4.595
73648W        W46716  31.798  43.483  13.475
73649W        W46717  31.523  21.512   2.483
73650W        W46718  41.882   3.563   2.965
73651W        W46719   9.281   6.880  12.396
73652W        W46720   4.501  29.420  11.761
73653W        W46721  26.820  25.757  11.557
73654W        W46722   9.938  27.162   3.826
73655W        W46723   1.290  31.362  14.427
73656W        W46724  33.617  21.130  10.533
73657W        W46725  29.217  42.863  13.609
73658W        W46726  39.993  13.903  12.014
73659W        W46727  19.786  11.217   1.746
73660W        W46728  20.992   7.279   1.282
73661W        W46729  18.573  34.203   0.265
73662W        W46730  33.412  44.975   4.007
73663W        W46731  31.607  21.569  14.991
73664W        W46732  36.118  25.434   2.784
73665W        W46733   2.391   7.303   3.511
73666W        W46734  14.628  33.077   2.845
73667W        W46735  23.177  33.396  13.132
73668W        W46736  41.354  38.742   2.749
73669W        W46737   4.236  22.989   0.235
73670W        W46738  20.768  41.549   4.139
73671W        W46739  25.250  26.217   4.143
73672W        W46740   6.160  43.935   2.340
73673W        W46741  26.927  13.591   2.295
73674W        W46742  25.921   6.502  14.443
73675W        W46743  40.856  32.329  13.887
73676W        W46744  12.909  18.715   1.849
73677W        W46745  29.935  28.925   0.969
73678W        W46746  37.335  23.207  10.519
73679W        W46747  29.015  26.637  10.702
73680W        W46748   2.890  21.284  11.001
73681W        W46749   1.858   0.295   1.806
73682W        W46750   6.225  10.858   4.584
73683W        W46751  18.753  38.362   0.441
73684W        W46752  30.179  27.223  14.444
73685W        W46753  22.035   6.452   2.036
73686W        W46754  27.672  39.016  11.993
73687W        W46755  40.356  43.197  10.722
73688W        W46756  15.142  12.102   3.132
73689W        W46757  39.274  23.141   3.303
73690W        W46758   9.166  22.670  12.400
73691W        W46759  23.162  24.965  12.616
73692W        W46760  12.127  42.297   3.212
73693W        W46761  40.416  38.907   4.814
73694W        W46762   0.926   8.497  11.092
73695W        W46763  13.658  41.419   2.359
73696W        W46764  22.675   2.864  11.639
73697W        W46765  12.063   0.930   4.677
73698W        W46766   3.877  26.141  11.500
73699W        W46767  30.436  18.563  14.249
73700W        W46768  39.728  23.158  12.423
73701W        W46769   9.332  14.809   3.736
73702W        W46770  32.908  12.703  13.349
73703W        W46771  21.631  18.277  13.436
73704W        W46772  31.092  32.347  13.916
73705W        W46773  15.980  17.120  11.178
73706W        W46774  17.827  32.628  13.808
73707W        W46775  26.132  14.030  10.405
73708W        W46776   6.955  11.091  11.878
73709W        W46777  23.859  12.796   5.079
73710W        W46778   5.414   3.473  12.182
73711W        W46779   3.910   4.808   0.506
73712W        W46780  35.464  41.521   0.020
73713W        W46781  22.171  39.427  13.107
73714W        W46782   5.444  12.662   2.836
73715W        W46783  11.947  18.696   0.263
73716W        W46784  20.422   2.227  14.367
73717W        W46785  13.285  29.698  13.365
73718W        W46786   5.699  26.939   0.437
73719W        W46787  33.480  44.904  13.044
73720W        W46788  15.267  44.873  11.155
73721W        W46789   8.236  18.643   3.675
73722W        W46790   7.942   9.994   3.277
73723W        W46791  14.369  44.045  11.935
73724W        W46792  12.683  30.576  10.565
73725W        W46793   1.253  43.417   1.044
73726W        W46794  19.819  26.669   0.892
73727W        W46795  11.264  30.937   3.109
73728W        W46796  15.093  20.216   4.651
73729W        W46797  27.442   5.445   2.273
73730W        W46798  43.397  42.308  10.856
73731W        W46799  14.872  33.461   4.494
73732W        W46800   9.340  13.104   1.959
73733W        W46801  13.440  27.678   2.696
73734W        W46802  23.732  34.374  12.566
73735W        W46803  30.108  16.546  12.452
73736W        W46804   8.352   5.907  11.282
73737W        W46805   2.193  39.629   4.097
73738W        W46806   4.252  25.328   0.453
73739W        W46807  13.120  30.597  10.834
73740W        W46808  28.968  21.146  13.511
73741W        W46809  21.880  20.310  14.278
73742W        W46810  26.437  29.171  11.650
73743W        W46811  16.985  39.142  13.391
73744W        W46812  20.538  13.154  12.046
73745W        W46813  43.880   3.425  10.031
73746W        W46814  27.011  22.744   4.287
73747W        W46815  34.180  17.003  11.575
73748W        W46816  36.212  21.243  11.599
73749W        W46817   5.316  30.211  12.144
73750W        W46818   4.206  15.773  13.348
73751W        W46819  32.333  42.851   3.698
73752W        W46820   7.240  13.025  10.315
73753W        W46821  19.983  40.361  14.000
73754W        W46822  32.959  23.013   4.073
73755W        W46823   4.107  36.992   3.633
73756W        W46824  41.018   3.812   0.916
73757W        W46825  40.473   7.604   5.044
73758W        W46826   7.273  33.101   4.943
73759W        W46827   1.358  27.531  11.943
73760W        W46828  36.803  33.765   4.982
73761W        W46829  37.202  43.421  10.380
73762W        W46830  12.885  21.323   4.227
73763W        W46831  19.270  11.550  12.862
73764W        W46832  36.137  30.558   0.557
73765W        W46833  13.301  24.576  11.471
73766W        W46834   3.244  40.922  12.945
73767W        W46835  30.815  39.050   3.173
73768W        W46836  34.806  22.286   2.295
73769W        W46837  26.007  29.120   0.303
73770W        W46838  28.334   5.812  13.445
73771W        W46839  26.402  37.453   4.170
73772W        W46840   0.275  44.755   3.805
73773W        W46841  13.577  36.508  11.156
73774W        W46842  24.016  16.306   0.227
73775W        W46843  43.393  22.370   4.688
73776W        W46844  42.454  29.583   0.370
73777W        W46845   0.461   0.079  11.839
73778W        W46846  10.320   8.475   1.848
73779W        W46847  29.382  32.914   4.573
73780W        W46848  32.669  29.329   3.445
73781W        W46849  33.931  29.148  12.360
73782W        W46850  35.491  18.052  14.920
73783W        W46851  29.459   2.529  12.043
73784W        W46852  27.135  19.640  10.270
73785W        W46853  36.347  27.363   4.081
73786W        W46854  22.350  44.712   0.248
73787W        W46855  14.385  17.242  14.385
73788W        W46856   4.241  14.627  10.434
73789W        W46857  38.867  43.766   0.464
73790W        W46858  21.613  18.256   4.121
73791W        W46859  27.044  23.018  13.320
73792W        W46860  36.954   7.195   3.752
73793W        W46861  19.249  17.551   3.252
73794W        W46862  31.050  34.813  12.010
73795W        W46863  34.471   7.448   2.775
73796W        W46864  37.416  15.478   0.239
73797W        W46865  42.062  30.383  11.166
73798W        W46866  42.932   4.517  13.072
73799W        W46867   8.921  39.550  13.881
73800W        W46868  17.182  26.248   1.333
73801W        W46869  10.932  17.198   2.654
73802W        W46870  22.157  16.140  11.558
73803W        W46871  29.728  20.782   3.345
73804W        W46872  34.338  39.835  10.460
73805W        W46873  37.571   7.349  14.535
73806W        W46874  27.105  20.850  14.222
73807W        W46875  22.435   8.706  13.907
73808W        W46876  29.648   4.656  11.416
73809W        W46877   5.116  38.390   9.923
73810W        W46878  16.670  32.082  14.742
73811W        W46879  19.289  26.202   4.706
73812W        W46880  27.590  23.732   2.324
73813W        W46881  38.596  35.396  13.301
73814W        W46882  28.067  44.993  12.168
73815W        W46883  29.567  44.229   0.723
73816W        W46884  28.978  21.464  12.076
73817W        W46885  22.955  27.236  10.701
73818W        W46886  28.196  35.022   4.595
73819W        W46887  17.126   5.493  11.547
73820W        W46888  22.067  28.544  13.427
73821W        W46889   9.926  35.528  11.998
73822W        W46890  20.221  34.490  14.234
73823W        W46891   6.722   9.276  10.501
73824W        W46892   8.203   0.174   0.311
73825W        W46893  29.343  40.590  10.665
73826W        W46894  10.666  39.533   1.520
73827W        W46895  35.827  44.444  13.793
73828W        W46896  40.504   7.233   1.772
73829W        W46897  32.765   3.829   1.378
73830W        W46898  18.419  40.345  13.110
73831W        W46899  13.141   1.127   1.810
73832W        W46900  24.669  19.738  14.821
73833W        W46901  41.883  10.801   4.777
73834W        W46902  41.245  23.608   2.758
73835W        W46903  17.966  39.110   1.259
73836W        W46904   6.381  32.673   2.906
73837W        W46905   7.208  25.255   4.927
73838W        W46906  13.706  34.348  14.870
73839W        W46907   5.965   3.350  14.922
73840W        W46908  40.928  29.698   4.163
73841W        W46909  27.953  22.967  12.935
73842W        W46910  36.616  13.916   5.071
73843W        W46911  30.611  35.692   1.851
73844W        W46912   4.845  26.207   2.805
73845W        W46913   1.732  18.546   4.563
73846W        W46914  27.243  31.191  12.418
73847W        W46915  29.462  10.676   4.387
73848W        W46916   6.945  10.551   0.402
73849W        W46917  19.610  15.222   0.052
73850W        W46918   8.646   2.608   0.251
73851W        W46919   2.057  31.014  11.121
73852W        W46920   9.309  38.249   2.603
73853W        W46921  37.740  15.642   2.234
73854W        W46922   3.005  30.328   0.857
73855W        W46923  29.525  10.902   0.430
73856W        W46924  34.958  35.610  11.949
73857W        W46925  26.959  43.001  10.688
73858W        W46926   5.848  32.482   0.385
73859W        W46927  31.497  36.572   0.935
73860W        W46928   2.783  18.550   1.371
73861W        W46929  20.610   8.476   1.260
73862W        W46930  41.602  30.573   2.859
73863W        W46931   1.225   6.764   2.225
73864W        W46932  21.168   1.182   2.729
73865W        W46933  35.422  26.678   4.707
73866W        W46934  25.284   1.369  14.098
73867W        W46935  30.067   9.798   3.535
73868W        W46936   5.197  38.285  11.462
73869W        W46937  14.175  11.329   0.881
73870W        W46938   4.855  41.563  11.474
73871W        W46939   9.747  30.101   3.817
73872W        W46940  34.564  27.396  10.740
73873W        W46941  39.336  11.252   2.348
73874W        W46942  19.807  21.010   5.025
73875W        W46943  43.635  11.398   2.287
73876W        W46944   3.880   4.713   2.407
73877W        W46945   4.520  33.834   0.348
73878W        W46946   0.395  26.654   0.370
73879W        W46947  27.648  38.065  14.527
73880W        W46948  18.907   8.505   3.803
73881W        W46949  33.823  37.781   3.942
73882W        W46950  44.454  21.981   0.944
73883W        W46951  23.582   8.883   3.959
73884W        W46952  32.516   8.850  11.269
73885W        W46953  33.120  14.765  12.176
73886W        W46954  38.495  29.434   0.477
73887W        W46955   6.313  19.089   0.566
73888W        W46956  23.294   7.202  13.578
73889W        W46957  20.265  39.635   0.797
73890W        W46958  10.033   9.416  10.745
73891W        W46959  38.617  20.276   1.335
73892W        W46960  14.196  31.979   0.227
73893W        W46961  27.207   9.870   1.323
73894W        W46962  14.532  28.797  13.469
73895W        W46963  20.363   3.343  14.825
73896W        W46964  14.802   4.687   2.527
73897W        W46965   5.116  34.460  12.099
73898W        W46966  31.931  27.013   4.366
73899W        W46967  37.566  19.158  12.847
73900W        W46968  29.938   3.898  14.786
73901W        W46969  13.966  44.324   0.400
73902W        W46970   1.175  28.087  10.494
73903W        W46971  29.541  38.968   2.907
73904W        W46972  39.118  34.191   4.584
73905W        W46973  41.803  28.166   3.562
73906W        W46974  21.114   6.484   4.152
73907W        W46975  18.316  35.118   3.704
73908W        W46976  23.518   6.189  10.696
73909W        W46977   9.884  26.827  14.628
73910W        W46978   3.755  15.550  12.631
73911W        W46979  29.414  38.076   3.716
73912W        W46980  14.763  16.013   4.706
73913W        W46981  10.742  21.662  14.710
73914W        W46982  28.872  33.362   3.889
73915W        W46983  42.213  31.701  11.011
73916W        W46984  33.133  14.191  13.467
73917W        W46985  42.960   4.082  13.406
73918W        W46986  38.343  23.472  13.064
73919W        W46987  36.122  24.667   0.857
73920W        W46988  43.155  43.464  11.937
73921W        W46989  31.525  18.772   3.764
73922W        W46990  32.113  21.321  12.768
73923W        W46991  24.364  32.871  11.620
73924W        W46992   6.879  11.608   0.341
73925W        W46993  38.574   5.181   0.110
73926W        W46994  24.036   3.123   4.174
73927W        W46995  20.196   4.962  11.647
73928W        W46996  30.506  21.802  13.372
73929W        W46997  11.396   8.144  14.376
73930W        W46998   0.795   3.399   3.614
73931W        W46999  35.968  29.227   3.679
73932W        W47000  36.865  29.084   4.610
73933W        W47001  22.521  21.048  12.341
73934W        W47002  20.696  16.067  12.969
73935W        W47003  33.238  12.709  12.964
73936W        W47004  18.831   1.546   1.289
73937W        W47005  24.154  32.852   3.794
73938W        W47006  10.828  16.702   2.830
73939W        W47007  37.407  44.742  10.544
73940W        W47008  23.018   0.498  14.261
73941W        W47009  31.633  39.880  13.416
73942W        W47010  24.534  32.485   2.848
73943W        W47011  29.182  27.223  12.902
73944W        W47012  42.294  28.229  12.044
73945W        W47013  37.498   9.209  13.609
73946W        W47014  26.649  23.558   3.395
73947W        W47015   6.972   4.303   0.587
73948W        W47016  22.983  40.791   4.534
73949W        W47017  29.958  14.562  12.562
73950W        W47018  19.122  17.838  14.241
73951W        W47019  10.766  13.165  14.876
73952W        W47020   4.952   9.134  10.565
73953W        W47021  28.587  20.535   2.454
73954W        W47022   0.215  19.077   0.797
73955W        W47023  12.632   3.681   4.315
73956W        W47024  43.470   4.275   2.242
73957W        W47025  31.073   9.250  12.990
73958W        W47026  29.454  19.067  12.727
73959W        W47027  25.930  39.374   0.233
73960W        W47028  23.567  32.972   0.991
73961W        W47029  26.946  33.670  10.238
73962W        W47030  44.945   6.837   3.910
73963W        W47031   6.787  11.948  11.573
73964W        W47032   5.202  14.764  14.861
73965W        W47033  12.828  23.056   3.729
73966W        W47034  21.067  16.149   2.302
73967W        W47035  35.467  44.438   0.319
73968W        W47036  37.632   9.668   3.625
73969W        W47037  39.852  38.391   0.914
73970W        W47038  38.930  27.267  12.057
73971W        W47039   0.805  37.117   3.257
73972W        W47040  25.128  27.516   0.015
73973W        W47041  42.533  26.084   1.786
73974W        W47042   6.996  24.287   1.737
73975W        W47043  34.079  31.969   5.377
73976W        W47044   6.422  39.778   4.619
73977W        W47045  23.071  24.289   4.914
73978W        W47046   5.415  12.078   1.725
73979W        W47047  22.953  40.824  12.885
73980W        W47048   4.723  15.763   0.694
73981W        W47049   0.805   7.197  11.595
73982W        W47050  16.009  35.282   2.230
73983W        W47051  30.575   1.287   1.427
73984W        W47052  15.165  30.438   2.796
73985W        W47053   7.821  20.739  12.649
73986W        W47054  31.092   4.129  12.108
73987W        W47055  25.944  22.636  12.468
73988W        W47056   2.186  20.201   3.369
73989W        W47057  17.253  24.479   1.790
73990W        W47058  10.318   7.153   0.968
73991W        W47059  35.938  14.823   3.109
73992W        W47060  16.336  25.053   4.578
73993W        W47061  44.737  20.563   0.922
73994W        W47062  27.034  28.883   4.626
73995W        W47063  17.093  20.537   3.300
73996W        W47064   2.266   2.924   0.488
73997W        W47065   5.963  33.963   2.923
73998W        W47066  28.986  28.417   2.850
73999W        W47067  21.197  24.311  13.107
74000W        W47068  28.073  41.997   1.339
74001W        W47069  13.808   4.396   3.190
74002W        W47070   8.101  21.632  13.831
74003W        W47071  34.838  25.636  11.615
74004W        W47072  27.924  14.185   0.405
74005W        W47073  40.126  27.063  11.658
74006W        W47074  11.106  44.170   0.960
74007W        W47075   4.315   9.962   4.465
74008W        W47076  23.677  44.298   4.890
74009W        W47077  42.333   1.458   4.269
74010W        W47078  29.768  44.548   4.182
74011W        W47079  29.020  36.497   4.071
74012W        W47080  12.028  20.634   0.263
74013W        W47081  39.279   0.966  13.030
74014W        W47082  16.227  26.710   4.113
74015W        W47083  39.421  27.507   1.596
74016W        W47084  26.746  22.520   0.336
74017W        W47085  38.470  43.972  14.544
74018W        W47086  35.367  37.853   0.433
74019W        W47087  13.225   0.898  12.368
74020W        W47088   9.797  22.248  13.971
74021W        W47089  27.398  24.593  11.182
74022W        W47090  23.140  21.247   1.118
74023W        W47091  40.237  14.256  11.192
74024W        W47092  12.600  24.870  13.784
74025W        W47093   6.250  15.800   1.839
74026W        W47094   5.413  29.838  14.055
74027W        W47095  14.033  31.870  10.639
74028W        W47096  41.855   5.443   3.065
74029W        W47097  36.854  25.706   0.886
74030W        W47098  36.869  34.911  12.200
74031W        W47099  12.155  18.141   1.143
74032W        W47100   3.616  37.930  13.554
74033W        W47101   8.855  34.553   4.337
74034W        W47102   6.747  18.767   0.379
74035W        W47103   9.756  15.923   4.278
74036W        W47104  28.674   2.178   3.850
74037W        W47105  14.115  19.331  12.043
74038W        W47106   0.607   4.420  13.201
74039W        W47107  20.692  12.805   1.200
74040W        W47108  43.624  41.227  12.117
74041W        W47109  30.828  37.985  14.447
74042W        W47110  14.286  39.502   4.668
74043W        W47111  11.266  28.931   3.200
74044W        W47112  24.288  21.151   2.743
74045W        W47113  31.876  13.062   0.224
74046W        W47114   6.391  27.560  10.741
74047W        W47115  31.549  12.268   2.449
74048W        W47116   1.856  36.431  11.972
74049W        W47117  41.397  23.233  11.460
74050W        W47118  22.781  18.188  10.105
74051W        W47119  10.685  18.507   4.212
74052W        W47120  24.596  10.388  12.466
74053W        W47121   1.186  16.594  14.446
74054W        W47122   9.612   9.251  14.690
74055W        W47123  40.022  13.228  13.458
74056W        W47124   4.332   0.234   4.636
74057W        W47125   9.756  41.702   5.541
74058W        W47126  28.882  27.370   0.900
74059W        W47127  43.152  11.860  10.588
74060W        W47128  37.496  36.004  12.352
74061W        W47129  20.725   7.331   2.596
74062W        W47130  11.174  19.790  10.533
74063W        W47131  15.636  29.847   3.663
74064W        W47132  41.348  18.228   4.691
74065W        W47133  33.380   8.194   0.339
74066W        W47134  27.446  14.558  11.624
74067W        W47135  20.385  11.382   1.081
74068W        W47136  15.478  37.547  12.542
74069W        W47137  30.229  40.464   0.356
74070W        W47138  40.376   8.995   1.404
74071W        W47139   7.116   4.845   2.338
74072W        W47140  22.462   5.803  12.472
74073W        W47141  29.315   1.480  11.524
74074W        W47142   4.428  12.295   0.516
74075W        W47143  22.081  30.679  11.926
74076W        W47144  41.754  24.487  14.837
74077W        W47145  30.046   4.397  11.166
74078W        W47146   2.819  32.468   2.645
74079W        W47147  19.137  20.045  14.945
74080W        W47148  20.724  19.628   0.393
74081W        W47149  25.181  30.972  11.161
74082W        W47150  41.016   3.277   0.157
74083W        W47151  18.707  15.275   0.509
74084W        W47152  20.104  35.330   4.673
74085W        W47153  24.450  40.564   0.280
74086W        W47154  44.672  25.474   4.248
74087W        W47155  36.784  10.318  13.944
74088W        W47156  20.617  38.406  12.959
74089W        W47157  32.210  15.070  14.066
74090W        W47158   5.791   2.334  11.514
74091W        W47159  43.184  16.565  12.602
74092W        W47160  43.360  40.300   0.847
74093W        W47161   9.755   2.874  10.375
74094W        W47162  22.466  39.345  14.818
74095W        W47163  28.861  29.548  14.986
74096W        W47164  44.439  40.038   3.627
74097W        W47165  31.633  38.444   3.729
74098W        W47166  17.317  16.584   3.343
74099W        W47167   4.624   0.285   1.304
74100W        W47168  22.061  20.152   4.416
74101W        W47169  28.909  24.969   2.461
74102W        W47170  26.254  39.900   1.391
74103W        W47171   9.856  11.638   2.866
74104W        W47172   1.930   6.934  13.905
74105W        W47173  42.018  29.016   0.792
74106W        W47174   4.957  42.252  13.517
74107W        W47175  26.517  15.663  13.269
74108W        W47176  20.293   3.014   2.493
74109W        W47177  44.526  29.436   2.234
74110W        W47178  26.644  14.525  11.560
74111W        W47179  37.257  33.596  11.536
74112W        W47180  23.195  34.848   0.464
74113W        W47181  23.399  21.014  11.721
74114W        W47182  25.161  28.619   1.275
74115W        W47183  43.398   6.894  10.711
74116W        W47184  28.199  22.098  12.358
74117W        W47185  23.423  24.108  13.611
74118W        W47186  37.485  30.552   3.595
74119W        W47187  42.455   1.279   2.983
74120W        W47188  37.092  37.701   2.816
74121W        W47189  23.486  14.707   3.722
74122W        W47190  38.248  23.727   0.812
74123W        W47191  34.321  26.147   3.708
74124W        W47192   8.582  17.250  14.801
74125W        W47193  44.303  29.170   4.756
74126W        W47194   1.754   0.940   0.719
74127W        W47195   3.538  41.326  12.873
74128W        W47196  12.843  20.101   4.797
74129W        W47197  38.004  28.232  14.431
74130W        W47198  14.836  44.249  11.853
74131W        W47199  32.393  41.467   2.176
74132W        W47200  21.032  20.659   3.874
74133W        W47201  26.991  33.392   1.254
74134W        W47202  36.895  32.532   4.760
74135W        W47203   2.881  24.561   1.639
74136W        W47204  10.459   3.010   1.712
74137W        W47205  14.032  23.618  11.188
74138W        W47206  29.484  35.638  11.761
74139W        W47207  26.884  27.120   2.799
74140W        W47208  38.287  44.891  10.702
74141W        W47209  34.041  24.550  10.939
74142W        W47210  38.211  26.613  10.774
74143W        W47211  38.883   7.421  14.859
74144W        W47212  13.216  31.439   2.973
74145W        W47213   9.947  34.069  12.127
74146W        W47214  44.428   9.192  13.405
74147W        W47215  27.698  29.608   4.104
74148W        W47216   5.964  19.115   0.180
74149W        W47217  40.281  38.147   1.190
74150W        W47218  38.442  41.994  14.863
74151W        W47219  36.427  43.527  12.964
74152W        W47220  23.255  17.063  14.332
74153W        W47221  22.160  34.979  13.307
74154W        W47222  35.933  29.454   0.401
74155W        W47223  20.809   0.265  14.644
74156W        W47224  20.200  22.702   3.671
74157W        W47225  13.571   5.266   4.355
74158W        W47226  32.362   1.175  14.803
74159W        W47227  30.432  36.484  11.462
74160W        W47228   9.732  19.254   2.855
74161W        W47229   1.303  29.487  12.027
74162W        W47230  42.063  21.233   3.772
74163W        W47231  37.554  43.226   1.236
74164W        W47232   3.934  42.372   1.944
74165W        W47233  31.808  24.680  12.004
74166W        W47234  33.022  37.309  12.189
74167W        W47235  40.496  10.064   2.635
74168W        W47236   1.994  13.757   4.252
74169W        W47237  11.690  43.405   2.312
74170W        W47238  26.547  36.673  12.058
74171W        W47239  11.207  17.315  14.790
74172W        W47240  10.279   9.508  10.277
74173W        W47241  29.960  12.423   3.761
74174W        W47242  27.602  25.927  14.910
74175W        W47243  31.956  40.770   2.770
74176W        W47244   7.510   3.006  12.499
74177W        W47245  34.923  31.412  12.599
74178W        W47246  17.313  29.050   1.389
74179W        W47247  32.111  31.599   0.538
74180W        W47248  20.949  30.208   2.825
74181W        W47249  42.341  21.252  12.382
74182W        W47250  38.934  15.277   2.817
74183W        W47251   6.154  41.335   0.520
74184W        W47252  35.458  26.536  11.427
74185W        W47253  23.024  13.696  11.604
74186W        W47254  44.930  18.157  13.957
74187W        W47255   4.342  32.045  13.505
74188W        W47256  37.589  31.382   3.143
74189W        W47257  27.722  39.928   4.219
74190W        W47258  39.439  44.580  10.673
74191W        W47259  39.454   7.932   2.094
74192W        W47260  10.910   5.405   4.730
74193W        W47261  31.103  17.039  12.053
74194W        W47262  30.736  20.615   4.111
74195W        W47263  44.276  32.592  13.926
74196W        W47264   8.136  43.839  14.568
74197W        W47265  30.517  13.916  12.990
74198W        W47266  19.929   4.362  13.006
74199W        W47267   2.078  37.884  12.383
74200W        W47268   8.661  21.520   0.862
74201W        W47269  42.952   9.138  12.491
74202W        W47270  16.130   8.645   4.046
74203W        W47271  21.581   3.203   3.311
74204W        W47272  13.410  23.533   1.931
74205W        W47273  10.738  27.667   1.000
74206W        W47274  19.462  33.249  12.162
74207W        W47275   2.727  40.458   0.846
74208W        W47276   4.614  23.687  11.733
74209W        W47277  42.782  11.736  12.613
74210W        W47278   7.974   5.800   2.306
74211W        W47279  39.306  17.156  13.869
74212W        W47280   0.363   6.328  11.436
74213W        W47281  18.828  19.272   3.627
74214W        W47282  17.995   9.673  12.514
74215W        W47283  13.791  16.866  12.951
74216W        W47284   1.325  17.526   2.576
74217W        W47285  13.485  36.869  14.879
74218W        W47286  19.003  25.734  11.214
74219W        W47287  27.210  13.134   2.086
74220W        W47288  15.161  17.134  13.945
74221W        W47289  24.112  22.079  12.591
74222W        W47290  15.509  27.644  11.514
74223W        W47291  16.798  35.008   1.536
74224W        W47292  40.385   0.345  12.025
74225W        W47293  29.731   7.056   0.335
74226W        W47294  14.910  15.138   0.851
74227W        W47295  33.282  29.873   1.797
74228W        W47296  37.920   8.943  14.919
74229W        W47297  19.806   8.226  11.235
74230W        W47298  21.848  33.992  12.523
74231W        W47299  29.050  10.606  14.192
74232W        W47300   3.280  38.966   4.110
74233W        W47301  15.581  29.668  10.664
74234W        W47302  38.096  14.228   0.722
74235W        W47303  37.671  42.830  13.879
74236W        W47304   4.352  17.546   2.445
74237W        W47305   5.680  11.358  13.378
74238W        W47306  36.404  26.715   9.867
74239W        W47307  30.653  13.411  12.127
74240W        W47308   5.930   0.214  12.958
74241W        W47309  12.633  13.196   0.611
74242W        W47310  12.340  36.529  10.654
74243W        W47311   6.213  13.759   3.441
74244W        W47312  43.447  35.333   4.646
74245W        W47313  34.539   8.199   2.115
74246W        W47314  31.124   3.666  14.911
74247W        W47315  34.173  27.123  10.471
74248W        W47316  16.234  11.724   3.256
74249W        W47317   7.064   6.310  11.910
74250W        W47318  12.611  32.931   1.893
74251W        W47319   9.380  27.453   3.352
74252W        W47320   6.785   1.372  10.973
74253W        W47321   3.315   8.341   2.716
74254W        W47322  19.182  38.932   0.313
74255W        W47323   8.190  37.940   2.888
74256W        W47324   7.193  19.216  13.540
74257W        W47325  29.516  43.062  14.493
74258W        W47326  26.903  31.123  10.530
74259W        W47327  35.948  36.475  13.245
74260W        W47328  24.895  20.158  11.671
74261W        W47329  20.589   5.347   3.325
74262W        W47330  29.171   8.626  13.938
74263W        W47331  37.486   1.225   0.401
74264W        W47332  16.482   2.056   0.987
74265W        W47333   6.369  24.084  11.558
74266W        W47334  24.092   8.664   1.266
74267W        W47335  21.584  31.432  12.068
74268W        W47336  24.941  13.810  12.337
74269W        W47337  13.713  32.446   0.249
74270W        W47338  30.561   6.891  13.382
74271W        W47339  13.799   2.571  10.840
74272W        W47340   6.455  24.566   3.616
74273W        W47341  10.246   6.166  14.406
74274W        W47342   3.958  40.077  12.565
74275W        W47343   0.908  24.400   0.215
74276W        W47344  38.037  13.567   3.231
74277W        W47345  33.619  35.512  12.658
74278W        W47346   6.293  36.228  11.118
74279W        W47347  25.052   3.960  12.633
74280W        W47348   6.397  17.323  13.929
74281W        W47349  35.126  23.027   1.356
74282W        W47350   0.077  31.916   3.704
74283W        W47351   7.948  41.956  10.665
74284W        W47352  13.655  26.975  10.717
74285W        W47353  28.039  12.668  12.471
74286W        W47354   3.108  36.004  11.096
74287W        W47355  13.495  18.715  13.986
74288W        W47356  21.996  36.042  14.930
74289W        W47357  19.000  40.529   2.768
74290W        W47358  15.790  26.009  14.846
74291W        W47359   7.831   3.845  14.611
74292W        W47360  28.999  15.994  12.084
74293W        W47361   9.870  15.360  12.932
74294W        W47362  10.724  12.629   0.641
74295W        W47363  34.068  41.740   2.682
74296W        W47364  32.979   9.075  13.858
74297W        W47365  11.840  13.763   2.119
74298W        W47366   0.225  37.527  12.299
74299W        W47367  36.933   2.246  14.466
74300W        W47368  37.919   4.731   2.780
74301W        W47369  25.155  12.476   1.182
74302W        W47370  24.857  26.563   4.145
74303W        W47371  16.551   0.833  13.088
74304W        W47372  20.619  44.745  14.141
74305W        W47373  35.081  27.676   2.420
74306W        W47374  34.658   3.435   2.848
74307W        W47375  38.453  35.423  10.931
74308W        W47376  32.709  27.796  14.371
74309W        W47377   2.568  28.413  12.757
74310W        W47378   1.309  33.692   2.892
74311W        W47379  40.978   1.994   2.879
74312W        W47380  41.388  21.013  14.739
74313W        W47381   2.421  26.893   3.672
74314W        W47382  26.432  14.060   2.814
74315W        W47383  32.040  37.379  12.789
74316W        W47384  16.386  35.361  10.716
74317W        W47385  18.957  33.364   2.839
74318W        W47386  14.207  13.017  11.940
74319W        W47387  26.923  40.370  12.598
74320W        W47388  35.065  29.924   1.208
74321W        W47389  19.400  40.026   4.271
74322W        W47390   1.942  23.544   4.617
74323W        W47391   6.310  37.059  14.772
74324W        W47392  37.519  44.265  14.479
74325W        W47393  26.219   5.763  13.903
74326W        W47394  24.466  39.021   0.845
74327W        W47395  22.624  10.730  12.527
74328W        W47396  42.037  30.075  13.842
74329W        W47397  34.084  26.069   1.230
74330W        W47398  35.128   4.395   3.042
74331W        W47399  28.570  41.909   4.440
74332W        W47400  33.263   4.991  11.756
74333W        W47401  39.442  36.111  10.884
74334W        W47402  16.967  31.594  13.756
74335W        W47403  40.902  19.676  12.066
74336W        W47404  25.128  34.052   2.860
74337W        W47405  34.122   5.871  10.551
74338W        W47406  29.877   3.402   1.251
74339W        W47407  40.840  30.499  12.136
74340W        W47408   1.579  39.948  11.632
74341W        W47409  28.742  14.733   3.935
74342W        W47410  17.325   8.650   2.212
74343W        W47411  17.455  42.530   0.687
74344W        W47412  33.062  41.392  12.878
74345W        W47413  18.629  38.037   3.613
74346W        W47414  42.533  19.730  12.698
74347W        W47415  37.519  38.536  13.508
74348W        W47416  25.953  37.365   4.414
74349W        W47417  12.357   1.135  13.455
74350W        W47418  14.741  37.365   2.220
74351W        W47419  34.123  40.585   3.211
74352W        W47420  42.617  40.929  12.930
74353W        W47421  43.714  12.129   1.932
74354W        W47422  28.423  38.564  11.143
74355W        W47423   3.363  23.959  13.089
74356W        W47424  44.172   2.358   1.280
74357W        W47425   2.911  14.043  12.457
74358W        W47426  12.778  37.563  11.145
74359W        W47427  30.240  40.892  10.938
74360W        W47428  37.592  24.664  14.975
74361W        W47429  42.504  33.016   2.744
74362W        W47430  43.956  23.567  13.385
74363W        W47431  34.072  12.779   3.577
74364W        W47432  36.607  34.995  10.847
74365W        W47433  14.606  25.983   3.689
74366W        W47434   5.190  10.668  13.006
74367W        W47435  12.753  19.629   4.583
74368W        W47436   2.778   5.378  11.509
74369W        W47437  24.757  38.059   0.792
74370W        W47438  22.429  31.584  11.164
74371W        W47439  22.580  44.486  13.193
74372W        W47440  23.749  34.322   0.844
74373W        W47441  35.382  36.541   2.271
74374W        W47442  39.889  12.894  12.941
74375W        W47443   7.457  23.755   4.834
74376W        W47444  18.738  19.647  12.879
74377W        W47445  39.601  44.912  10.263
74378W        W47446   4.415  24.951   3.687
74379W        W47447   3.470  34.486  12.023
74380W        W47448   9.507  15.760  13.915
74381W        W47449  13.183  30.222  12.164
74382W        W47450   0.926  22.287   1.358
74383W        W47451  35.492  43.821  14.079
74384W        W47452  35.476  10.842  12.614
74385W        W47453  15.133  40.037   3.718
74386W        W47454  14.256  21.073  12.173
74387W        W47455   9.224  41.976  14.889
74388W        W47456  29.631   2.176   1.677
74389W        W47457  39.791  28.866   0.667
74390W        W47458   4.106  14.376  11.975
74391W        W47459  14.205  17.147   2.349
74392W        W47460  13.587   4.897   4.797
74393W        W47461  31.839   0.960   3.657
74394W        W47462  41.853  23.102  12.421
74395W        W47463  27.661  42.969  14.800
74396W        W47464  30.887  18.635  10.713
74397W        W47465  16.155  15.326  11.262
74398W        W47466  13.600   0.985  11.585
74399W        W47467   2.436  40.193  13.853
74400W        W47468  26.727  23.086   4.049
74401W        W47469  14.267  22.572  14.544
74402W        W47470  10.577  44.348   1.002
74403W        W47471  28.946  17.793  12.976
74404W        W47472  34.385   3.748   4.134
74405W        W47473  32.023  28.385   1.362
74406W        W47474  22.580  38.107  12.977
74407W        W47475  25.049  15.539  12.010
74408W        W47476  44.894  41.769  12.080
74409W        W47477  22.245  23.477   2.944
74410W        W47478  36.799  34.295  14.502
74411W        W47479   1.584  34.133   2.786
74412W        W47480  33.906  17.256  14.889
74413W        W47481   8.745   6.704   2.652
74414W        W47482  26.639  19.473  12.587
74415W        W47483  13.522  27.388  11.475
74416W        W47484   5.391  32.237   1.686
74417W        W47485  44.259  42.130  12.149
74418W        W47486  25.328   3.283  10.587
74419W        W47487   3.353   1.268  14.972
74420W        W47488  32.079  13.079   2.669
74421W        W47489  23.141   2.864   2.147
74422W        W47490  44.073  33.471  13.868
74423W        W47491  41.554  30.680  12.188
74424W        W47492   2.457  43.367   4.054
74425W        W47493  33.099  38.110   1.838
74426W        W47494  14.679  35.103  10.519
74427W        W47495   3.297  25.062   0.068
74428W        W47496  36.066  11.221  10.631
74429W        W47497  28.451  43.837   1.802
74430W        W47498  27.355  43.322  14.585
74431W        W47499   8.922  17.733   2.849
74432W        W47500  30.522  12.261  10.885
74433W        W47501  30.403  15.800  12.043
74434W        W47502  28.706  24.730  10.652
74435W        W47503  31.290  34.557  10.652
74436W        W47504  18.258  37.060   0.355
74437W        W47505  32.347  39.246  10.439
74438W        W47506  21.195  33.001  10.832
74439W        W47507  11.448  16.236  14.931
74440W        W47508   4.711  35.985   1.215
74441W        W47509  22.318  44.513  11.637
74442W        W47510  22.010  37.269  10.234
74443W        W47511  41.315  16.157  12.012
74444W        W47512   6.051  32.550   3.299
74445W        W47513   9.622  21.699  10.445
74446W        W47514  42.255  18.247   1.359
74447W        W47515  17.143  18.074  12.475
74448W        W47516  28.858  31.542  13.803
74449W        W47517  25.072   6.739   4.976
74450W        W47518  33.418   0.400  12.355
74451W        W47519  27.924  38.053   2.259
74452W        W47520  35.239  39.196   5.034
74453W        W47521   3.705  41.547   3.181
74454W        W47522  43.440  40.608  12.894
74455W        W47523  23.450  24.724   2.877
74456W        W47524   1.905  31.089   0.726
74457W        W47525   6.246  39.029   2.586
74458W        W47526   7.379  15.052  10.884
74459W        W47527  24.656  27.526  10.709
74460W        W47528  26.165  33.905   3.823
74461W        W47529  41.968  15.280   4.507
74462W        W47530  22.268   7.909   2.223
74463W        W47531   1.821  10.390   4.785
74464W        W47532  41.974  31.860   2.313
74465W        W47533   6.199  29.296  10.269
74466W        W47534  36.335   5.547   1.685
74467W        W47535  31.858  35.549  11.631
74468W        W47536   0.848   0.496  11.140
74469W        W47537   6.420   1.360   4.431
74470W        W47538  34.113   9.296  12.370
74471W        W47539  16.095  15.161  14.498
74472W        W47540   0.974  15.679   3.811
74473W        W47541  40.728  30.870  14.513
74474W        W47542  30.395   3.397   4.964
74475W        W47543  20.218  16.145  11.675
74476W        W47544  42.863   7.891   3.694
74477W        W47545  22.131  39.960   3.792
74478W        W47546  38.917  43.858  11.953
74479W        W47547  14.637  13.349   4.655
74480W        W47548  11.325   0.837   3.282
74481W        W47549  43.526  22.617  12.515
74482W        W47550   1.740  13.755   1.554
74483W        W47551  23.633  11.677   1.275
74484W        W47552  36.015  31.572  10.606
74485W        W47553  40.680   8.679  10.261
74486W        W47554  28.180  27.901   4.050
74487W        W47555  28.138  15.485   0.532
74488W        W47556   4.123  39.592   0.802
74489W        W47557  15.118  37.839   2.934
74490W        W47558  31.752  29.870  12.257
74491W        W47559  41.984  22.268  14.976
74492W        W47560  43.041  30.023  11.628
74493W        W47561  35.502  19.015  12.425
74494W        W47562  36.483  40.019  12.384
74495W        W47563  39.586  12.941   3.651
74496W        W47564   9.907  21.676  11.158
74497W        W47565   6.423   5.621   2.091
74498W        W47566  39.894  37.503   0.878
74499W        W47567   1.480  32.130  13.983
74500W        W47568  22.670  34.071  13.345
74501W        W47569  41.357  12.346  13.389
74502W        W47570  41.971  20.056   4.864
74503W        W47571  12.918  11.148  11.050
74504W        W47572  29.563   7.287   3.289
74505W        W47573   4.626  28.040   4.532
74506W        W47574   0.593  18.660  12.458
74507W        W47575  25.355  33.895   3.324
74508W        W47576  33.444  22.823   2.398
74509W        W47577  15.706  22.186   2.090
74510W        W47578  16.257   0.095   0.257
74511W        W47579   8.836  21.508  11.122
74512W        W47580  18.929  42.836  14.087
74513W        W47581  17.607  30.080   0.377
74514W        W47582  16.353  23.714  12.414
74515W        W47583  20.160  30.916   3.734
74516W        W47584  21.260  10.275   4.138
74517W        W47585  18.708  28.267   2.518
74518W        W47586   0.704  35.776   0.816
74519W        W47587  19.514  38.095   1.815
74520W        W47588  36.347  27.486  11.232
74521W        W47589  24.733  10.893  12.502
74522W        W47590  36.562  15.630   4.359
74523W        W47591  43.866   5.617   4.241
74524W        W47592  33.021  34.380  14.492
74525W        W47593  13.561  14.661  11.097
74526W        W47594   1.221  41.868   4.428
74527W        W47595  44.268   5.914   4.076
74528W        W47596   7.413  27.467   2.632
74529W        W47597  34.828  26.720   1.393
74530W        W47598  14.708  31.857   0.275
74531W        W47599  19.124  40.705  12.468
74532W        W47600  35.283  13.075   4.405
74533W        W47601  39.561  18.584  12.349
74534W        W47602  20.628  12.588  14.012
74535W        W47603  12.513  38.469  12.398
74536W        W47604  27.777  38.132  13.802
74537W        W47605   0.498  30.477  14.201
74538W        W47606   3.725   9.786   2.114
74539W        W47607  35.540  14.045  12.488
74540W        W47608  32.314  34.402   4.581
74541W        W47609   5.798  18.531  13.091
74542W        W47610  38.032  19.755   2.623
74543W        W47611   4.897  15.897   4.066
74544W        W47612  14.162  11.902  13.103
74545W        W47613  34.828  32.792   0.176
74546W        W47614  38.901  36.437  10.689
74547W        W47615  10.624  39.435  11.150
74548W        W47616   6.985   8.758  12.352
74549W        W47617  24.660  28.996   2.531
74550W        W47618  13.263  13.559   2.387
74551W        W47619  39.036  16.320  14.749
74552W        W47620   1.459  35.381   3.897
74553W        W47621  36.348  19.213   4.978
74554W        W47622  13.947  33.182  11.652
74555W        W47623   9.107  30.436   2.757
74556W        W47624  36.456  15.979  12.524
74557W        W47625   2.808   1.721  14.508
74558W        W47626  26.188  35.114  13.354
74559W        W47627  13.049  44.286  11.105
74560W        W47628   8.649   9.321   4.071
74561W        W47629  34.944  24.013  12.462
74562W        W47630  18.836  12.075  14.753
74563W        W47631  31.247  24.936  11.901
74564W        W47632  22.494  32.736   2.732
74565W        W47633  23.004  24.029   0.974
74566W        W47634  18.842  14.261  11.210
74567W        W47635  15.610   2.833  12.328
74568W        W47636   5.317  16.511   3.304
74569W        W47637  23.940  41.802   2.570
74570W        W47638  17.098  25.755   0.510
74571W        W47639  11.906  33.345   5.031
74572W        W47640  22.640  37.899  12.509
74573W        W47641  27.582  40.436  12.476
74574W        W47642  15.553  13.184   4.680
74575W        W47643  21.729  36.357   2.643
74576W        W47644   7.450  23.256  11.634
74577W        W47645  39.059  43.729   4.692
74578W        W47646  30.160   0.910  11.920
74579W        W47647  16.124  44.775  11.533
74580W        W47648   5.902  33.482  11.131
74581W        W47649  37.519   3.012  13.405
74582W        W47650  18.217  23.627   2.888
74583W        W47651  27.560  42.627  12.908
74584W        W47652   5.989  18.502   0.959
74585W        W47653   7.911  17.021   5.039
74586W        W47654  13.566  26.798  12.466
74587W        W47655   3.137   7.204   2.893
74588W        W47656   5.898  24.026   2.889
74589W        W47657  39.463  14.659   2.265
74590W        W47658   8.640   0.839   0.471
74591W        W47659  11.031  40.289  13.984
74592W        W47660  29.940   8.913   2.734
74593W        W47661   9.863  12.635   1.215
74594W        W47662  32.801  24.014  13.119
74595W        W47663  27.991  29.708  11.607
74596W        W47664   8.431  24.925  14.663
74597W        W47665   7.223   8.852  13.338
74598W        W47666  18.595   5.390   4.513
74599W        W47667  20.298   8.662  10.247
74600W        W47668  32.962  29.310   1.197
74601W        W47669  29.641  44.022   4.179
74602W        W47670   1.039   0.970   1.944
74603W        W47671  10.174  42.774  10.621
74604W        W47672   5.437   7.023   0.403
74605W        W47673  15.416  14.930  13.353
74606W        W47674   7.789  43.979  11.092
74607W        W47675  10.408   2.827   2.205
74608W        W47676  26.760  20.981   1.886
74609W        W47677  15.141  41.796  10.425
74610W        W47678  10.212  13.903  14.128
74611W        W47679  33.062  27.624  12.588
74612W        W47680  40.328  43.282   1.134
74613W        W47681  35.031   0.510  11.065
74614W        W47682   9.239  13.170  10.299
74615W        W47683   6.207  25.540  14.942
74616W        W47684  43.342  31.055   3.284
74617W        W47685  10.692  28.815   4.312
74618W        W47686  14.800  27.734   3.429
74619W        W47687  23.155  35.214   2.323
74620W        W47688  39.835  20.283  13.031
74621W        W47689  21.085  18.486   0.896
74622W        W47690   4.927   5.545  12.010
74623W        W47691  28.350  42.594  13.947
74624W        W47692  28.155  16.167   4.674
74625W        W47693  35.181  12.434   4.151
74626W        W47694  24.149  12.931  11.185
74627W        W47695  10.586  41.728   1.746
74628W        W47696  23.033  14.701   1.919
74629W        W47697   8.573  12.183  11.445
74630W        W47698   3.470  26.281  11.211
74631W        W47699  24.928  30.032  11.122
74632W        W47700  43.343  44.833   4.623
74633W        W47701   5.695  41.462  12.425
74634W        W47702  17.593  37.009   2.235
74635W        W47703  21.714   0.020  12.243
74636W        W47704  37.878  22.679  12.226
74637W        W47705   8.225   3.686  10.965
74638W        W47706  41.995   7.690   2.644
74639W        W47707  19.096  21.646   3.773
74640W        W47708   3.523  25.950  14.866
74641W        W47709  42.714   3.844   2.437
74642W        W47710   3.437  28.550  12.890
74643W        W47711  19.278  42.633  12.918
74644W        W47712  26.177  39.026   1.401
74645W        W47713   4.860  16.575  13.786
74646W        W47714  30.016  27.627   0.188
74647W        W47715  19.514  36.640   4.175
74648W        W47716  20.715  16.869  11.669
74649W        W47717  17.483  40.148   0.861
74650W        W47718  14.284  37.405   4.124
74651W        W47719   6.188   3.408   2.297
74652W        W47720   5.645  36.596  13.137
74653W        W47721  24.018  29.442   1.540
74654W        W47722  22.717   2.958  12.139
74655W        W47723  25.803   9.751  12.603
74656W        W47724  20.101  35.062   0.958
74657W        W47725   4.170  39.352  12.541
74658W        W47726  19.468  39.923  11.014
74659W        W47727   8.159   4.692   2.401
74660W        W47728  30.137  12.515   0.277
74661W        W47729   5.782   3.727   0.205
74662W        W47730  19.713  14.807  14.213
74663W        W47731  13.326  42.789  12.007
74664W        W47732  34.424   3.309  13.872
74665W        W47733  35.971   6.701  10.633
74666W        W47734  24.216  39.945  10.466
74667W        W47735  41.077  18.822  12.583
74668W        W47736  29.047   6.482   0.364
74669W        W47737  37.127  18.338   3.229
74670W        W47738  41.269  42.021   2.377
74671W        W47739  42.195  29.113   1.256
74672W        W47740   4.265   0.046  10.686
74673W        W47741  28.119   5.805   3.333
74674W        W47742  35.922   1.176  14.382
74675W        W47743   8.383  24.417   2.232
74676W        W47744  11.175   4.491   1.878
74677W        W47745  19.099   2.742   2.174
74678W        W47746  39.011  28.765   3.380
74679W        W47747  35.496  20.600  10.603
74680W        W47748  44.020  19.503  11.988
74681W        W47749  32.474  13.695   4.342
74682W        W47750  19.454  32.137  10.226
74683W        W47751  15.087  22.734  11.729
74684W        W47752   9.443  24.130  12.098
74685W        W47753  31.603  38.973   3.667
74686W        W47754   4.256  42.323  14.794
74687W        W47755  28.086  34.804   9.983
74688W        W47756   1.171  30.508  14.011
74689W        W47757   4.429  19.768   0.353
74690W        W47758  24.657  34.364  10.719
74691W        W47759  31.628  35.489  14.783
74692W        W47760  36.549  38.585   4.831
74693W        W47761  24.899  20.580  13.368
74694W        W47762  20.896   5.867  12.435
74695W        W47763  21.191   4.728  10.613
74696W        W47764   5.832  37.270   1.680
74697W        W47765   9.436  10.737   1.426
74698W        W47766  20.512   9.680   0.805
74699W        W47767  18.571  41.170   4.133
74700W        W47768  34.926  40.456   2.614
74701W        W47769  32.321  31.459   3.725
74702W        W47770  32.081  28.577  10.692
74703W        W47771   0.917   5.860   3.443
74704W        W47772  31.448  32.093  14.898
74705W        W47773   5.473   3.902  14.793
74706W        W47774  40.395  14.499   4.617
74707W        W47775  13.282  31.093  14.893
74708W        W47776  32.100  11.653   1.947
74709W        W47777  14.793  13.259   3.127
74710W        W47778  14.792  40.529   0.221
74711W        W47779  27.504   0.572  12.796
74712W        W47780  35.135  11.634   1.573
74713W        W47781  16.695   0.434  12.580
74714W        W47782  21.130  25.152   3.559
74715W        W47783  26.715  32.436  12.408
74716W        W47784  43.883  23.500   1.261
74717W        W47785   2.464  41.423   9.963
74718W        W47786  27.643  29.114   3.908
74719W        W47787  35.668   0.296  10.388
74720W        W47788   1.823   6.963  13.016
74721W        W47789  22.582  37.375  14.780
74722W        W47790  31.902  43.666  14.012
74723W        W47791  12.231  30.094   2.426
74724W        W47792  39.837   5.319   1.697
74725W        W47793  37.024  18.181  11.445
74726W        W47794  22.487  27.219   2.747
74727W        W47795  41.746  29.842   1.736
74728W        W47796  22.202  13.249   1.735
74729W        W47797  36.435  27.587   0.705
74730W        W47798   8.211   9.639  11.112
74731W        W47799  34.033  34.921  12.397
74732W        W47800  13.442  22.021  12.414
74733W        W47801   7.494  13.192  12.869
74734W        W47802  33.436   9.144  12.067
74735W        W47803  30.893  20.435   1.899
74736W        W47804  38.307  39.758   1.749
74737W        W47805  40.033  10.572   1.793
74738W        W47806  16.760  30.472   4.911
74739W        W47807  21.106  39.364   0.890
74740W        W47808   1.954  37.515  10.754
74741W        W47809   9.237   6.924   2.447
74742W        W47810   5.208  27.435  13.958
74743W        W47811  11.776  42.891  12.005
74744W        W47812   0.006  34.121  12.431
74745W        W47813  16.878  36.378   0.404
74746W        W47814  36.347  28.549   1.139
74747W        W47815  12.810  13.790  11.407
74748W        W47816  17.084  11.320   2.357
74749W        W47817  27.494   5.752   1.789
74750W        W47818  10.207  26.585  12.605
74751W        W47819  10.293  34.136  13.458
74752W        W47820  28.869  17.112  12.419
74753W        W47821  17.879  34.578   4.846
74754W        W47822  42.871  37.501  12.813
74755W        W47823  18.779  39.486  11.846
74756W        W47824  12.178   1.804   1.484
74757W        W47825  22.598  10.389  14.426
74758W        W47826  36.343  41.472  12.970
74759W        W47827   8.695  20.579  11.123
74760W        W47828  39.251  22.107  13.468
74761W        W47829   3.220  24.219  10.715
74762W        W47830  19.990  10.773  13.510
74763W        W47831  30.136  25.118  11.416
74764W        W47832  41.088  26.216   1.895
74765W        W47833   3.221   7.859  12.470
74766W        W47834  21.233   1.739   0.279
74767W        W47835  21.270   8.876   2.224
74768W        W47836  11.096  40.976  14.337
74769W        W47837  11.303  38.549   3.827
74770W        W47838  39.892   7.909  12.384
74771W        W47839  15.120  13.108  11.058
74772W        W47840   0.235  32.421  11.166
74773W        W47841  26.188  39.465   0.700
74774W        W47842  28.633   5.651   1.821
74775W        W47843  41.865  27.124  13.381
74776W        W47844  17.177  29.688  12.132
74777W        W47845  17.777   9.883   0.471
74778W        W47846  13.193  39.532   2.720
74779W        W47847  21.184  16.782   1.587
74780W        W47848  34.428  29.044  12.467
74781W        W47849  34.915  37.547  14.718
74782W        W47850  39.972  25.986   0.440
74783W        W47851   2.423   9.877   3.903
74784W        W47852  10.846  28.110  11.222
74785W        W47853   7.411   9.391   1.397
74786W        W47854  20.995  34.414   3.783
74787W        W47855  29.443   4.832   3.664
74788W        W47856  30.883  25.218   1.259
74789W        W47857   1.338   9.968   0.881
74790W        W47858  39.996  11.762  11.117
74791W        W47859  28.022  14.568   1.729
74792W        W47860   6.850  34.050   3.815
74793W        W47861  41.451  21.480  11.994
74794W        W47862  29.794  41.906  11.282
74795W        W47863  25.048  22.588   1.376
74796W        W47864  13.785  35.474   2.705
74797W        W47865  24.339   4.760   4.886
74798W        W47866  13.307  39.345  14.478
74799W        W47867  32.268  29.251   1.179
74800W        W47868  11.764   8.179  12.043
74801W        W47869  43.441  11.075   0.232
74802W        W47870  23.545  27.514  14.325
74803W        W47871   2.510  16.717  14.765
74804W        W47872  30.608   1.990  11.050
74805W        W47873  11.724  24.127   3.750
74806W        W47874  32.990  14.754  11.668
74807W        W47875  36.511  28.680   4.632
74808W        W47876   9.322  33.230  12.579
74809W        W47877   7.892   6.389   5.118
74810W        W47878   2.477  12.361  11.285
74811W        W47879   8.820  41.792   2.525
74812W        W47880  35.074  42.379  13.013
74813W        W47881   0.070   7.259  14.799
74814W        W47882  30.037  23.763  13.570
74815W        W47883  39.361  33.660  12.421
74816W        W47884  22.060  20.901  12.097
74817W        W47885   9.129  26.847  12.074
74818W        W47886  22.936  23.983  13.475
74819W        W47887  27.113  32.080   4.752
74820W        W47888  10.281  36.037  12.344
74821W        W47889  41.421  33.961  12.673
74822W        W47890   5.929  18.132   4.633
74823W        W47891  34.013  19.234  14.438
74824W        W47892  20.815   6.057   2.900
74825W        W47893  37.385   7.546  13.719
74826W        W47894  27.839   9.423  14.443
74827W        W47895  27.133  31.580   2.197
74828W        W47896  43.117   0.538   0.204
74829W        W47897  29.847  44.425  14.797
74830W        W47898  29.945  11.622  14.996
74831W        W47899   5.439  15.390  12.139
74832W        W47900  26.957   5.402   0.343
74833W        W47901   3.490  17.567  12.024
74834W        W47902  14.148  10.019   4.534
74835W        W47903  27.915   7.593  11.550
74836W        W47904  22.416  34.517  13.291
74837W        W47905  22.096  21.646   4.560
74838W        W47906  21.717   1.935   2.729
74839W        W47907  36.967   0.529   3.243
74840W        W47908  29.192   9.770   4.961
74841W        W47909  17.239  20.668   2.361
74842W        W47910  24.459  37.569   2.900
74843W        W47911   4.780  12.353   4.733
74844W        W47912  20.852  28.069   4.257
74845W        W47913   8.123  30.828  12.535
74846W        W47914  24.175  16.388   9.664
74847W        W47915  35.317  38.095  12.577
74848W        W47916  23.125  36.064   4.269
74849W        W47917  19.004  14.091   2.263
74850W        W47918  13.686  17.344   1.916
74851W        W47919  21.029  44.062   2.432
74852W        W47920   7.170  31.011   4.700
74853W        W47921  28.933   1.792  14.355
74854W        W47922  27.767  38.519   4.154
74855W        W47923  31.855  21.752  12.960
74856W        W47924  15.400  27.699   1.053
74857W        W47925  18.800  12.747  10.518
74858W        W47926  34.555  26.220  13.467
74859W        W47927  32.878  32.270  10.726
74860W        W47928  32.500  44.331   3.789
74861W        W47929   2.221  13.395   0.798
74862W        W47930  30.269   5.296   2.591
74863W        W47931  38.399   5.168   3.890
74864W        W47932   4.269   7.285  11.975
74865W        W47933   9.484  19.511  10.834
74866W        W47934   1.439  12.975  13.995
74867W        W47935  15.310  29.219  13.790
74868W        W47936   9.275  36.160  10.428
74869W        W47937   6.269  36.373  13.041
74870W        W47938  21.987  35.809   3.196
74871W        W47939  16.025   4.882  14.325
74872W        W47940  14.665  13.853   0.217
74873W        W47941  19.275   2.246  12.829
74874W        W47942   0.945  36.573   0.346
74875W        W47943  13.652  44.841   4.178
74876W        W47944  10.737  15.236  14.384
74877W        W47945  25.081  13.247  12.940
74878W        W47946  13.114  27.628  11.714
74879W        W47947  33.816   5.739   1.997
74880W        W47948  24.874   0.525  11.158
74881W        W47949  29.875   6.311   3.737
74882W        W47950  15.630   9.423   1.873
74883W        W47951   1.314  43.923   4.646
74884W        W47952  24.617   2.936  14.424
74885W        W47953  14.346  32.172   4.624
74886W        W47954  16.342   2.939  11.118
74887W        W47955  20.223  17.014   3.627
74888W        W47956  28.057  38.284   0.720
74889W        W47957  18.668  40.403  11.752
74890W        W47958  36.454  25.547   4.339
74891W        W47959   3.208   2.831  10.962
74892W        W47960  40.220  14.927   1.373
74893W        W47961   8.769   5.661   3.637
74894W        W47962  19.062  27.026   1.419
74895W        W47963  33.905  42.463  14.887
74896W        W47964  43.531  26.952  10.674
74897W        W47965  40.830  36.815   0.246
74898W        W47966   0.800  27.669   3.800
74899W        W47967  27.796  29.250   2.828
74900W        W47968  39.583   9.257  14.496
74901W        W47969  30.371   3.375   1.351
74902W        W47970  20.042  16.830  14.438
74903W        W47971  22.106  32.495   4.881
74904W        W47972   4.255   4.981  10.593
74905W        W47973   8.428  21.558  11.967
74906W        W47974  36.791  18.640   2.798
74907W        W47975   7.450  21.580   4.520
74908W        W47976   4.209   5.592   2.455
74909W        W47977  35.432  28.432   4.068
74910W        W47978  44.261  42.886  11.677
74911W        W47979  19.266   9.396  13.229
74912W        W47980  37.958  20.095  12.515
74913W        W47981  42.403  31.608   4.495
74914W        W47982  31.081   3.887   1.266
74915W        W47983  18.141  43.807  13.433
74916W        W47984  28.851   4.298  10.431
74917W        W47985  14.708  24.699  11.627
74918W        W47986  34.173  14.730  14.006
74919W        W47987  29.506   2.782  11.481
74920W        W47988  39.883  42.953  10.741
74921W        W47989  12.739  39.588  12.560
74922W        W47990  40.415   6.249  14.386
74923W        W47991  20.195   2.885  14.637
74924W        W47992  26.759  15.127   2.652
74925W        W47993   2.808  33.978   2.280
74926W        W47994  13.872  41.025   0.887
74927W        W47995   2.015  33.026   2.003
74928W        W47996  20.587  15.123  14.373
74929W        W47997  14.145  26.047  10.949
74930W        W47998  30.404   9.018   2.907
74931W        W47999   7.563  40.242   2.756
74932W        W48000   2.413  27.368  13.408
74933W        W48001  30.103  41.854   3.378
74934W        W48002  35.045  26.657  10.722
74935W        W48003  19.017  32.477  12.375
74936W        W48004  26.713  39.457  10.985
74937W        W48005  17.970  17.821   3.693
74938W        W48006  34.255   3.393  12.457
74939W        W48007  34.810  24.618  14.429
74940W        W48008  23.137  17.672   3.477
74941W        W48009  39.433  25.089   3.215
74942W        W48010   4.776  16.376   2.278
74943W        W48011   0.987  43.068  12.140
74944W        W48012  12.228   5.799   1.277
74945W        W48013  29.207  17.705   3.179
74946W        W48014  22.613   3.192  14.812
74947W        W48015  11.181  26.245   4.584
74948W        W48016  13.621   5.137   2.404
74949W        W48017  13.155  31.135   2.372
74950W        W48018  26.980  39.959   3.677
74951W        W48019  15.100  21.515  11.169
74952W        W48020  34.945  27.322  13.561
74953W        W48021  11.504  25.459  10.707
74954W        W48022   9.140  43.522   1.978
74955W        W48023  19.420  37.975  12.350
74956W        W48024   9.891  13.875  13.028
74957W        W48025  11.606  38.164  13.875
74958W        W48026  37.574   7.705  14.933
74959W        W48027   9.935  11.906   2.414
74960W        W48028  12.661  26.395   4.702
74961W        W48029  32.373   6.652  11.129
74962W        W48030  14.255  21.191   3.895
74963W        W48031  25.778  30.978   0.271
74964W        W48032  38.535  28.501   0.286
74965W        W48033  32.365   4.733   3.193
74966W        W48034  17.242  36.371  14.219
74967W        W48035  30.482  12.248  13.452
74968W        W48036  12.897  18.197   3.743
74969W        W48037  16.098  42.989   1.379
74970W        W48038  37.581   7.857  11.988
74971W        W48039  26.564   6.342   3.409
74972W        W48040  29.135  38.577  14.840
74973W        W48041   1.953  10.749  11.846
74974W        W48042  43.725  43.848   4.657
74975W        W48043  12.799   4.244  14.996
74976W        W48044   7.688  21.043   2.622
74977W        W48045  18.745  41.149   0.096
74978W        W48046  22.542  36.972   0.882
74979W        W48047   1.873  13.190  12.987
74980W        W48048  24.861  11.765  13.339
74981W        W48049  32.600   8.563  14.791
74982W        W48050  21.234  41.530   2.413
74983W        W48051   0.757   4.839   0.320
74984W        W48052  21.165   9.659   5.014
74985W        W48053   6.115   2.918  14.442
74986W        W48054  39.924  37.836   2.415
74987W        W48055  14.645  25.937   1.432
74988W        W48056   1.932   7.510   1.008
74989W        W48057  28.498   1.022   2.300
74990W        W48058   6.867  36.430   0.957
74991W        W48059  44.551  32.897  12.635
74992W        W48060  27.606  37.704   4.632
74993W        W48061   7.695  35.901   4.510
74994W        W48062  17.593   2.052  14.733
74995W        W48063  39.949  14.023   0.221
74996W        W48064  33.831  15.448   9.942
74997W        W48065  18.547  35.908  14.178
74998W        W48066  19.161  13.098   0.527
74999W        W48067   2.903   0.745  14.360
75000W        W48068  16.988  35.190  11.718
75001W        W48069  17.640   7.257   3.973
75002W        W48070  22.447  22.482   3.206
75003W        W48071   6.382  26.179   3.224
75004W        W48072  42.060  31.875  12.094
75005W        W48073  22.128   8.190  11.853
75006W        W48074  15.684  26.727   1.791
75007W        W48075  36.035  35.908   1.749
75008W        W48076   6.494  38.695   2.887
75009W        W48077   1.435  11.549   4.956
75010W        W48078  20.812  27.584   1.381
75011W        W48079   4.672  17.339   3.601
75012W        W48080  33.028  28.766   0.758
75013W        W48081  33.380  34.929  14.355
75014W        W48082  17.372  25.177  12.918
75015W        W48083  15.679  42.007  12.996
75016W        W48084  41.019   3.739   3.829
75017W        W48085  15.056   0.472   0.891
75018W        W48086  11.517  32.476  13.855
75019W        W48087  25.104  33.975   3.765
75020W        W48088  40.046  20.324  12.114
75021W        W48089  41.578  16.368   4.631
75022W        W48090  37.537  36.544  10.548
75023W        W48091   7.785   4.727   0.851
75024W        W48092   2.921  26.570  12.524
75025W        W48093  30.356  23.626  12.767
75026W        W48094  44.678  31.520  10.995
75027W        W48095  25.649  24.735   2.695
75028W        W48096   7.960  30.026   3.458
75029W        W48097  37.011   5.979   0.638
75030W        W48098  18.155  11.738   0.025
75031W        W48099   9.895  24.076  10.629
75032W        W48100   6.820  12.864   3.150
75033W        W48101   1.221  20.795   3.488
75034W        W48102  22.586   1.677   1.245
75035W        W48103  42.717   9.752   4.786
75036W        W48104  41.021  11.281   3.150
75037W        W48105  12.399  41.115  13.014
75038W        W48106  32.543  32.432   4.624
75039W        W48107  23.487   4.274   2.110
75040W        W48108  10.668  30.054   1.753
75041W        W48109  17.175  40.214  14.471
75042W        W48110   1.143   2.245  14.889
75043W        W48111  22.712   7.479  14.402
75044W        W48112  20.073  20.480  14.860
75045W        W48113   5.757  24.229   3.344
75046W        W48114  38.274  42.973   2.310
75047W        W48115  17.987   3.677  13.947
75048W        W48116   5.309  10.497   3.758
75049W        W48117   3.309  30.115   3.201
75050W        W48118   8.933  38.534   4.169
75051W        W48119   9.252  40.459  12.034
75052W        W48120  10.184  12.721  14.874
75053W        W48121  39.762  43.329   2.423
75054W        W48122  23.257  39.285   2.066
75055W        W48123  36.174  38.435  12.367
75056W        W48124  36.516   2.265   2.813
75057W        W48125  30.608   0.180   4.238
75058W        W48126  42.739  16.637   4.867
75059W        W48127  20.481  11.225  14.857
75060W        W48128  25.982   8.680   1.441
75061W        W48129   3.004  14.162  11.586
75062W        W48130  27.011  43.197  12.481
75063W        W48131  17.746  33.872   2.290
75064W        W48132  17.697  17.041  14.448
75065W        W48133  13.993  39.474   4.256
75066W        W48134  37.815   7.648  12.450
75067W        W48135   6.418   5.252  12.858
75068W        W48136  14.493  32.106  13.014
75069W        W48137   2.313  32.037  10.510
75070W        W48138   5.888   0.034   4.173
75071W        W48139  34.758   2.924  13.983
75072W        W48140  44.096   8.546   9.916
75073W        W48141  33.104  39.472   1.344
75074W        W48142   4.894  23.003  12.446
75075W        W48143  21.353   1.275  12.420
75076W        W48144  32.534   0.912  11.250
75077W        W48145  28.067   2.166  10.226
75078W        W48146  12.845   0.327   1.671
75079W        W48147  13.862   2.071   2.666
75080W        W48148   8.893  44.908   0.722
75081W        W48149   6.905  41.328  13.245
75082W        W48150  21.806  24.680   2.350
75083W        W48151  32.312  29.611  13.030
75084W        W48152  19.315  40.089  13.509
75085W        W48153  38.286  28.112  12.025
75086W        W48154  29.565  15.854   2.696
75087W        W48155   8.867  30.022   1.854
75088W        W48156  35.556  26.115  10.736
75089W        W48157  42.114  37.597  11.172
75090W        W48158   0.825  27.692   0.944
75091W        W48159  34.326  29.911   2.244
75092W        W48160  11.623  12.123  13.871
75093W        W48161  19.016  11.179  14.733
75094W        W48162   6.393  26.262  12.064
75095W        W48163  12.755  17.611   3.712
75096W        W48164  29.945   2.328  12.035
75097W        W48165   8.364  26.539   5.055
75098W        W48166  30.043  22.658   3.668
75099W        W48167  18.703  41.298  14.086
75100W        W48168  24.607  15.142   3.432
75101W        W48169  22.696  18.747  14.815
75102W        W48170   5.441  22.576   1.807
75103W        W48171   2.647  16.593  10.781
75104W        W48172   1.523  25.640   1.300
75105W        W48173  43.846  15.655   0.512
75106W        W48174   8.272  15.774  12.117
75107W        W48175  32.128  11.506  10.327
75108W        W48176  15.774   3.326  14.983
75109W        W48177  15.626   4.137   2.701
75110W        W48178  32.774  30.878   2.086
75111W        W48179  38.930   8.845  14.883
75112W        W48180  25.640   9.807  13.884
75113W        W48181  21.806  16.730  12.273
75114W        W48182  13.971   2.069   4.315
75115W        W48183  22.059  33.620   0.807
75116W        W48184  17.688  30.986  12.857
75117W        W48185  33.070  32.095   2.779
75118W        W48186  30.109  25.662   1.784
75119W        W48187  20.289   2.304   3.879
75120W        W48188  24.181   0.758  13.427
75121W        W48189  13.093  18.840   9.667
75122W        W48190  27.148  26.677   2.666
75123W        W48191  21.230  40.482  11.086
75124W        W48192  44.030  36.776   4.820
75125W        W48193  29.110   0.035  14.504
75126W        W48194  39.086  17.813   2.510
75127W        W48195  12.316  33.339  12.452
75128W        W48196  24.753  17.857   4.069
75129W        W48197  22.244  21.121   3.277
75130W        W48198   1.277  29.304   4.140
75131W        W48199  36.343  27.124   0.911
75132W        W48200  44.746  38.350  12.631
75133W        W48201  15.958  15.630   3.088
75134W        W48202  30.939  19.590   2.878
75135W        W48203  24.663  41.255   1.278
75136W        W48204  22.971   4.795  11.603
75137W        W48205  12.081  22.102  13.378
75138W        W48206   4.160   9.091   2.751
75139W        W48207  35.433  44.406  12.406
75140W        W48208   8.107  19.824   4.590
75141W        W48209  19.235  27.227   1.861
75142W        W48210   8.763   7.220  11.195
75143W        W48211  13.272  43.286  14.450
75144W        W48212  20.393  35.063  10.684
75145W        W48213   4.862  17.814  11.403
75146W        W48214  33.212  31.848  10.707
75147W        W48215  23.614  44.011  14.046
75148W        W48216   9.646   7.357  11.794
75149W        W48217   6.123  38.389   1.622
75150W        W48218  12.611  34.459  12.080
75151W        W48219  24.660  27.515   3.143
75152W        W48220  39.308  40.335  10.954
75153W        W48221  41.038   7.857   1.763
75154W        W48222   8.830  29.707  12.123
75155W        W48223  32.846  27.867   0.788
75156W        W48224  35.725  22.749  10.692
75157W        W48225  32.951   4.519  11.506
75158W        W48226  20.970   2.148   1.373
75159W        W48227  26.495  40.984   4.509
75160W        W48228  41.987  24.003  10.650
75161W        W48229  20.708  41.728  12.468
75162W        W48230   1.177  37.470   3.147
75163W        W48231  28.579  18.951   5.024
75164W        W48232  42.238  41.765   3.206
75165W        W48233   5.110  10.071   2.430
75166W        W48234   1.280  35.349   4.995
75167W        W48235  29.322  28.514  13.873
75168W        W48236  29.130   2.178  12.463
75169W        W48237  36.324   0.429   4.642
75170W        W48238  10.861  38.938   2.300
75171W        W48239   8.112  33.230  12.152
75172W        W48240  24.692  43.691  13.433
75173W        W48241  25.064   5.361  14.757
75174W        W48242  22.743  25.245  12.803
75175W        W48243  27.693  25.505   1.901
75176W        W48244   3.935  27.019   4.577
75177W        W48245   6.623  19.525   4.147
75178W        W48246   7.206  19.718   4.288
75179W        W48247  35.615   4.871  13.409
75180W        W48248   2.204  11.397   3.677
75181W        W48249  10.548  20.129  11.386
75182W        W48250  28.722  25.136   2.933
75183W        W48251  33.598  23.031   0.507
75184W        W48252  23.498  20.277  13.215
75185W        W48253  16.189  22.531  11.745
75186W        W48254   0.761  35.120  13.045
75187W        W48255  16.406   4.320   1.362
75188W        W48256  41.596  34.098   4.840
75189W        W48257   9.761  24.000   3.892
75190W        W48258   5.367  22.338   1.346
75191W        W48259  17.210   0.393   0.360
75192W        W48260   7.886  38.480   2.445
75193W        W48261  18.573  23.820  10.613
75194W        W48262  16.771   6.479   1.433
75195W        W48263  32.147  38.721   2.828
75196W        W48264  31.520  39.036  13.240
75197W        W48265  10.734   9.302  13.855
75198W        W48266   4.215  12.739   4.910
75199W        W48267  14.670  27.215   0.757
75200W        W48268  44.747  25.807  14.278
75201W        W48269  24.991  13.351  13.929
75202W        W48270  10.425  31.317  11.980
75203W        W48271  23.726  11.141  12.031
75204W        W48272  13.033  15.777   2.672
75205W        W48273  21.938  18.110  13.873
75206W        W48274  19.576   5.951  10.274
75207W        W48275   6.041  22.502   9.694
75208W        W48276  38.230   3.070   4.786
75209W        W48277  32.858   8.888  12.517
75210W        W48278  10.913  43.802   4.514
75211W        W48279   0.411  27.468  13.580
75212W        W48280  39.806  38.527  13.406
75213W        W48281   6.211  19.016   2.797
75214W        W48282  39.444  25.972  11.015
75215W        W48283   5.957  16.019   3.666
75216W        W48284   8.801  20.081  11.154
75217W        W48285  15.804  29.864  13.902
75218W        W48286  26.195  30.028  14.370
75219W        W48287  21.083  23.581   4.137
75220W        W48288  36.000   1.449  12.929
75221W        W48289  43.870  14.090  14.110
75222W        W48290  14.151  39.681  10.508
75223W        W48291  27.866   4.464  11.644
75224W        W48292  14.748  39.892   9.912
75225W        W48293   8.242  42.736   4.614
75226W        W48294   9.004   2.290  13.094
75227W        W48295  43.900  23.490  12.862
75228W        W48296  17.755  38.133  11.950
75229W        W48297  32.687  44.839   1.363
75230W        W48298  23.205  35.748   2.404
75231W        W48299  32.698  15.083  12.210
75232W        W48300  39.876   0.389  12.019
75233W        W48301  33.417  22.118   0.540
75234W        W48302  31.349  30.078  13.367
75235W        W48303   9.708  21.325   2.629
75236W        W48304   6.670  18.089   2.948
75237W        W48305  24.495  37.927   3.254
75238W        W48306  40.990  20.215  13.736
75239W        W48307  28.956  25.547   4.610
75240W        W48308  18.352  30.471   1.364
75241W        W48309  24.591  38.851   4.797
75242W        W48310  42.920  10.194  13.367
75243W        W48311  29.199   3.626  13.420
75244W        W48312   5.335  23.819  14.512
75245W        W48313  25.976  39.026  12.297
75246W        W48314  37.320  15.665  13.001
75247W        W48315  17.221  24.998   4.055
75248W        W48316  27.595   0.780  12.027
75249W        W48317  29.163  36.911  11.058
75250W        W48318  36.937  37.494   0.029
75251W        W48319  35.373  32.587  14.251
75252W        W48320  11.691  22.449   4.541
75253W        W48321  20.612  37.916  13.899
75254W        W48322  21.798  12.170   2.340
75255W        W48323  35.052  22.696  12.846
75256W        W48324  21.697   1.919  12.662
75257W        W48325  39.436  44.309   0.938
75258W        W48326  29.093  40.998  12.579
75259W        W48327  23.086  33.332  11.727
75260W        W48328  10.094  23.093  14.233
75261W        W48329  20.244   3.916   3.344
75262W        W48330  22.823  24.972   1.458
75263W        W48331  16.244  19.343   0.045
75264W        W48332   1.468   2.497  11.595
75265W        W48333  40.334  10.966  14.959
75266W        W48334   9.390  35.154  13.925
75267W        W48335  23.712  22.422   2.654
75268W        W48336  20.588   1.812  10.155
75269W        W48337  35.878  40.344  12.505
75270W        W48338  23.752  40.609  11.062
75271W        W48339   6.358  33.406  13.869
75272W        W48340   4.199  24.464  12.461
75273W        W48341  19.323  15.033  11.164
75274W        W48342  12.249  19.273  14.970
75275W        W48343  21.756  12.658  10.943
75276W        W48344   7.828  18.814   0.805
75277W        W48345  41.698  19.821   3.628
75278W        W48346  38.997  34.869  10.674
75279W        W48347  31.117  42.871  14.718
75280W        W48348  41.884  22.300  13.012
75281W        W48349  16.009   9.089   0.957
75282W        W48350  12.271  31.326   3.838
75283W        W48351  32.692   3.914   4.497
75284W        W48352  12.570  37.604  14.439
75285W        W48353  29.049   9.548  11.675
75286W        W48354  19.444   0.723   0.763
75287W        W48355  20.570   3.316  13.405
75288W        W48356  30.281  34.425  11.620
75289W        W48357  31.064   9.182  10.749
75290W        W48358  14.838   9.498   4.109
75291W        W48359  40.003  12.247  10.865
75292W        W48360  32.077  16.820  12.494
75293W        W48361  28.150  20.848  11.188
75294W        W48362  24.930   2.188   4.257
75295W        W48363  16.372  34.677  12.885
75296W        W48364  15.529  30.325  11.046
75297W        W48365  29.791  37.343   4.105
75298W        W48366  32.499   3.355  11.614
75299W        W48367  12.226  20.091   1.797
75300W        W48368   7.611  15.577  12.738
75301W        W48369  25.590  29.567  14.111
75302W        W48370  36.463  20.111  14.118
75303W        W48371  23.312  12.336   1.397
75304W        W48372   0.576  19.117  13.088
75305W        W48373  16.129  27.202   3.171
75306W        W48374  16.324  37.874   4.537
75307W        W48375  18.357  28.029  11.190
75308W        W48376  37.809  27.874  11.940
75309W        W48377  17.762   6.517  11.110
75310W        W48378  26.108  17.541  12.906
75311W        W48379  25.467  17.959   0.059
75312W        W48380  17.720  44.061   0.283
75313W        W48381  36.500  19.718   5.011
75314W        W48382   9.759   4.501  12.485
75315W        W48383  21.754   4.851   1.246
75316W        W48384  29.597   8.924  14.789
75317W        W48385  13.249   9.722   0.283
75318W        W48386  11.328   2.342   3.104
75319W        W48387  42.493  33.616  11.035
75320W        W48388  24.666  20.709  12.870
75321W        W48389  27.104  19.368   2.264
75322W        W48390   6.959  32.375   1.447
75323W        W48391  31.528  14.639   4.312
75324W        W48392  12.453  14.511   2.384
75325W        W48393   7.623  29.371   3.856
75326W        W48394  41.274  18.151  11.049
75327W        W48395  26.460  41.032   3.648
75328W        W48396  24.229  18.127  13.419
75329W        W48397   5.870  40.299  12.884
75330W        W48398  13.663  19.512   2.143
75331W        W48399   0.996  26.521   3.120
75332W        W48400  24.958  20.896  14.919
75333W        W48401  34.396   0.816   0.994
75334W        W48402  34.568  10.890   0.365
75335W        W48403  42.072   5.028  12.729
75336W        W48404  29.846  23.119  11.941
75337W        W48405  15.276  17.123   4.055
75338W        W48406  39.502  18.335   4.075
75339W        W48407  24.960   7.220   3.151
75340W        W48408  16.687  12.603   0.150
75341W        W48409  11.860  27.469  13.520
75342W        W48410   1.324  36.486   1.129
75343W        W48411   3.878  41.892   3.661
75344W        W48412  11.882   9.813  12.053
75345W        W48413  33.477  44.077   0.273
75346W        W48414   7.504  43.328   2.470
75347W        W48415  25.520  12.847  12.571
75348W        W48416  10.230   8.995   3.275
75349W        W48417  34.866  35.225  12.315
75350W        W48418  33.879  26.593   0.378
75351W        W48419  11.113  42.269   4.021
75352W        W48420  18.041  38.797  12.398
75353W        W48421  29.672  10.110   3.351
75354W        W48422   0.912   1.749   3.703
75355W        W48423  26.488  30.862  14.779
75356W        W48424  14.609  32.347   1.984
75357W        W48425  25.625  14.659  14.302
75358W        W48426  39.931   6.968  14.653
75359W        W48427  23.485   0.899  11.532
75360W        W48428  34.416  12.450  12.621
75361W        W48429  16.904  36.863  11.519
75362W        W48430  30.349  27.367  12.468
75363W        W48431   9.188  35.050  10.651
75364W        W48432  29.976   4.868  10.549
75365W        W48433  17.652  30.480  13.897
75366W        W48434  20.715  25.127   4.887
75367W        W48435   4.354   8.199   4.134
75368W        W48436   0.716  23.604   3.245
75369W        W48437  29.203  11.783  13.844
75370W        W48438  24.185  14.150  12.746
75371W        W48439  27.219  13.060  10.858
75372W        W48440   1.174   3.727   2.327
75373W        W48441  29.314  20.552  11.963
75374W        W48442  23.066  40.996  14.482
75375W        W48443  11.463  12.679  11.100
75376W        W48444  26.923  14.216  13.467
75377W        W48445  17.801  12.643   2.466
75378W        W48446  16.690  25.530   0.252
75379W        W48447  29.447  14.728   1.895
75380W        W48448  19.729   1.991   0.357
75381W        W48449   0.368   4.872  13.523
75382W        W48450  14.219  39.706  14.080
75383W        W48451  37.669   1.497   1.800
75384W        W48452   0.298  35.096  13.344
75385W        W48453  13.500  18.822  11.520
75386W        W48454  40.929   6.817   0.651
75387W        W48455  24.216  12.146  10.719
75388W        W48456   0.416   7.150   3.874
75389W        W48457  37.996  21.000  13.879
75390W        W48458  38.050   6.168  14.511
75391W        W48459  25.122  43.951   1.479
75392W        W48460  24.558  18.854   9.759
75393W        W48461  33.189  26.467   5.022
75394W        W48462  35.013  40.338  10.668
75395W        W48463   9.922   5.197   1.273
75396W        W48464  37.993  31.347   0.275
75397W        W48465  26.175  17.235   0.383
75398W        W48466  26.819   4.309  11.541
75399W        W48467   8.323  37.720   4.253
75400W        W48468   8.386  32.494   4.561
75401W        W48469  14.079   3.670  12.516
75402W        W48470  35.305  36.067  11.490
75403W        W48471  19.482  35.324   3.607
75404W        W48472   9.516   7.181  12.982
75405W        W48473   5.544   3.876   2.643
75406W        W48474  38.928   1.300  11.976
75407W        W48475  30.885  29.454  13.862
75408W        W48476  25.550  42.543   2.719
75409W        W48477  10.198  28.580  11.622
75410W        W48478  32.839  13.060   1.495
75411W        W48479   7.304  16.152  10.580
75412W        W48480  15.059  41.336   2.165
75413W        W48481  21.971   4.878  12.481
75414W        W48482   4.469  26.638   0.276
75415W        W48483  44.782  29.020   3.412
75416W        W48484  44.874  10.244   1.936
75417W        W48485  16.305  29.930   2.406
75418W        W48486  14.892  17.301  13.480
75419W        W48487  20.777  17.781   3.134
75420W        W48488   4.248   4.456   4.051
75421W        W48489  26.258  26.854  13.944
75422W        W48490  15.607  20.836   0.871
75423W        W48491  21.247  13.011  14.810
75424W        W48492  16.272   5.884   2.795
75425W        W48493   1.922  14.234   3.821
75426W        W48494  36.289   2.141   4.254
75427W        W48495  13.377  13.360  11.362
75428W        W48496  44.951  39.993  12.557
75429W        W48497  40.014   2.041  13.513
75430W        W48498  25.265  13.258   2.705
75431W        W48499  42.367   0.611  14.280
75432W        W48500  10.064   6.666   1.367
75433W        W48501  29.167   9.218  10.978
75434W        W48502  20.137  30.403   3.592
75435W        W48503   7.623  25.982   1.198
75436W        W48504  11.219  32.393  11.995
75437W        W48505   7.467   8.889   1.758
75438W        W48506  15.132  20.726   3.349
75439W        W48507  23.326  13.458  10.970
75440W        W48508  22.608  19.258  13.092
75441W        W48509   2.344  21.859  10.814
75442W        W48510  32.064   4.446  14.601
75443W        W48511  26.104   4.269  13.764
75444W        W48512  11.654   0.350   0.328
75445W        W48513  10.596  27.957  14.027
75446W        W48514  17.517  32.283  12.463
75447W        W48515  33.164  29.622  11.175
75448W        W48516  42.719   1.284  14.942
75449W        W48517  15.419   8.308  14.804
75450W        W48518   9.755  40.674   0.238
75451W        W48519  18.680  11.726   2.634
75452W        W48520  12.281   1.209  14.533
75453W        W48521  16.610  19.087   3.783
75454W        W48522  14.577  30.108  10.376
75455W        W48523   2.792   2.537   3.789
75456W        W48524  23.278  32.022   1.360
75457W        W48525   3.630  33.626   3.727
75458W        W48526  24.620  29.989   3.660
75459W        W48527  21.687  36.087  11.677
75460W        W48528  39.543  16.198  14.853
75461W        W48529  15.759  44.816   1.482
75462W        W48530   7.413  37.302  12.931
75463W        W48531  13.321  16.652  13.015
75464W        W48532  30.581   4.400   4.420
75465W        W48533   0.488  24.865   2.730
75466W        W48534   7.507  32.025  11.568
75467W        W48535  40.337  41.347  12.725
75468W        W48536  12.758   1.442   4.401
75469W        W48537  15.976   8.754   4.937
75470W        W48538  16.556  12.857  12.168
75471W        W48539  33.880  35.059  13.853
75472W        W48540  33.004  13.240  13.934
75473W        W48541  18.148  42.766   2.702
75474W        W48542   6.474  11.922   0.289
75475W        W48543  15.481  34.534  14.864
75476W        W48544   0.467  35.886  12.980
75477W        W48545  13.079   5.894   2.721
75478W        W48546  23.181   0.965   0.491
75479W        W48547   1.919  28.537   1.263
75480W        W48548  29.027  23.958  13.757
75481W        W48549  34.703  25.203   0.466
75482W        W48550  29.028  25.982   0.935
75483W        W48551   2.193   6.067  12.081
75484W        W48552  32.470   4.729  11.425
75485W        W48553  37.590  41.260   3.386
75486W        W48554  14.687  24.929  14.782
75487W        W48555  37.292  14.405   4.122
75488W        W48556  14.362   3.455   2.377
75489W        W48557  27.876  16.349   3.832
75490W        W48558  39.389  13.625   1.971
75491W        W48559  37.865  26.494   2.920
75492W        W48560  34.170  33.667   3.313
75493W        W48561  28.671  13.294  10.781
75494W        W48562  15.854   1.473  12.255
75495W        W48563  44.460   3.689   0.971
75496W        W48564  24.225  40.465  11.997
75497W        W48565  38.926  31.846  11.427
75498W        W48566   7.977  11.701  13.342
75499W        W48567  18.737  42.895   0.800
75500W        W48568  24.525   0.223  10.856
75501W        W48569  27.540  15.542   2.147
75502W        W48570  37.308  31.368   1.936
75503W        W48571  10.737  37.763  14.971
75504W        W48572  31.864  32.967   0.963
75505W        W48573  16.995  33.340  12.163
75506W        W48574  11.409  13.602  14.356
75507W        W48575   7.453   0.837  13.653
75508W        W48576   3.347  22.413   1.443
75509W        W48577  31.051  17.310   1.938
75510W        W48578  13.553  30.006  12.774
75511W        W48579  41.356  14.781   1.713
75512W        W48580  21.025  21.665  12.846
75513W        W48581  29.054  20.808   4.758
75514W        W48582  42.218  13.665  13.360
75515W        W48583  32.658  25.300  11.191
75516W        W48584   8.084  37.973   2.370
75517W        W48585  27.017  28.939  13.913
75518W        W48586  29.984   0.292  11.195
75519W        W48587   8.839  38.245   4.712
75520W        W48588  26.046  31.147   4.700
75521W        W48589  20.332  27.246   1.745
75522W        W48590  17.497  35.192  12.821
75523W        W48591  16.314  16.531  14.240
75524W        W48592  25.194  32.327   0.725
75525W        W48593  11.756   6.190  14.227
75526W        W48594  42.790  35.375  13.753
75527W        W48595  21.601  36.900  12.972
75528W        W48596   7.379   0.766   2.267
75529W        W48597  34.121  34.953  11.110
75530W        W48598  39.130   4.288   1.521
75531W        W48599  14.278  10.643   0.306
75532W        W48600  13.669  33.601  11.919
75533W        W48601  16.396  29.028   3.944
75534W        W48602  38.252  24.242  12.109
75535W        W48603  27.490   2.343   0.966
75536W        W48604  28.575  40.121   4.249
75537W        W48605  17.219  39.352   3.340
75538W        W48606  34.410   8.309  14.422
75539W        W48607   7.294  18.371   2.155
75540W        W48608   6.470  25.154  13.491
75541W        W48609  25.323  10.700   1.402
75542W        W48610  35.696  42.553   1.289
75543W        W48611   6.938  25.510   1.306
75544W        W48612  13.381  27.784   3.681
75545W        W48613   5.627  18.003   3.365
75546W        W48614  17.104  39.760  11.162
75547W        W48615  20.749  37.684   4.600
75548W        W48616  30.643  44.176  13.052
75549W        W48617   2.732  37.910  11.039
75550W        W48618  39.806  15.373   4.549
75551W        W48619  25.046  38.337  11.185
75552W        W48620  16.367   0.749  11.250
75553W        W48621  41.933   3.346   1.069
75554W        W48622  29.093  14.503   3.606
75555W        W48623   8.660   6.911   1.829
75556W        W48624  35.036   8.651   5.237
75557W        W48625  16.644  36.478  11.715
75558W        W48626  44.192  35.675   2.151
75559W        W48627  16.022  14.245   2.279
75560W        W48628  15.856  10.687   4.844
75561W        W48629  13.263  27.078  13.404
75562W        W48630  41.304  18.218  13.832
75563W        W48631  27.073  39.593  14.292
75564W        W48632   7.235   9.183  14.889
75565W        W48633   7.221   1.474   2.665
75566W        W48634  44.325  26.614   1.828
75567W        W48635  18.782  34.147   2.362
75568W        W48636  12.170  40.531   0.472
75569W        W48637  37.828  39.399   4.782
75570W        W48638  38.343  13.452  11.531
75571W        W48639  38.580   5.701   0.079
75572W        W48640   7.069   2.432  11.942
75573W        W48641   9.066  15.684   2.370
75574W        W48642  31.510  11.956  12.029
75575W        W48643   0.961  15.702   1.521
75576W        W48644  23.488   3.869   3.793
75577W        W48645  25.533  33.369  11.968
75578W        W48646  44.481  10.440  13.302
75579W        W48647  14.132  41.564   2.481
75580W        W48648  10.817  42.371  13.505
75581W        W48649  16.006  23.913   0.024
75582W        W48650   9.459  19.360   3.280
75583W        W48651  41.020  23.791   4.184
75584W        W48652   4.894  11.773   3.634
75585W        W48653  11.139  13.295   4.062
75586W        W48654  14.263   9.384  14.292
75587W        W48655  33.063  40.423   4.091
75588W        W48656  44.463  18.316  12.061
75589W        W48657  22.110  35.800  13.596
75590W        W48658  14.621  32.980  14.721
75591W        W48659  32.561   9.165   2.337
75592W        W48660  24.023  30.245   4.924
75593W        W48661  23.144  28.053   3.307
75594W        W48662   5.020  36.887   0.859
75595W        W48663  20.499  34.572  10.583
75596W        W48664  40.794   2.383  14.803
75597W        W48665  32.468   4.450  12.676
75598W        W48666  35.157  30.695   4.119
75599W        W48667  35.980  10.176  11.514
75600W        W48668  29.396   0.433  11.515
75601W        W48669   7.878  41.250   5.062
75602W        W48670  19.823   6.200  10.661
75603W        W48671   8.868   4.252  12.065
75604W        W48672  39.824  23.012  13.572
75605W        W48673  30.019  35.569   0.794
75606W        W48674  43.577   8.292   4.781
75607W        W48675  31.917   1.345  13.505
75608W        W48676  23.439  26.633  11.158
75609W        W48677   9.783  14.185  11.672
75610W        W48678   7.678  28.091   1.217
75611W        W48679   3.668  19.059   0.129
75612W        W48680  39.514  42.372   2.518
75613W        W48681  24.065  24.893   0.820
75614W        W48682  38.503  38.795   3.887
75615W        W48683  29.354  32.972   1.232
75616W        W48684  21.262  33.440   2.218
75617W        W48685   0.740  28.627   0.517
75618W        W48686  35.438  13.632   1.659
75619W        W48687  29.101  24.971  12.840
75620W        W48688  34.056   7.641   4.576
75621W        W48689  12.363  19.133   2.269
75622W        W48690  13.602  42.321   5.014
75623W        W48691  13.114  40.507  10.612
75624W        W48692   0.906  15.708  11.340
75625W        W48693  19.307   4.770   0.262
75626W        W48694  22.815  39.599  12.604
75627W        W48695  38.987  26.635  10.656
75628W        W48696  16.794   3.166   2.885
75629W        W48697  33.609  11.793   9.935
75630W        W48698  14.522  24.801  13.904
75631W        W48699  15.578   9.961  11.187
75632W        W48700  34.162  10.195   3.635
75633W        W48701  26.101  27.165   4.274
75634W        W48702  12.760  41.306  14.390
75635W        W48703  22.322  19.000  11.541
75636W        W48704  16.845  43.214   0.309
75637W        W48705   2.471  18.852   3.673
75638W        W48706   4.831   8.594   0.908
75639W        W48707  39.635  42.275   0.568
75640W        W48708   2.746   5.273   1.810
75641W        W48709  36.905  15.711   0.227
75642W        W48710  40.039  14.177  10.708
75643W        W48711  16.185  25.839   4.767
75644W        W48712  24.225   4.813  14.863
75645W        W48713  14.550   6.720   0.348
75646W        W48714   2.586  25.060   0.870
75647W        W48715   2.689   9.965   2.156
75648W        W48716  34.065  21.372  14.565
75649W        W48717  10.289  28.677  11.044
75650W        W48718  28.434  18.704   2.328
75651W        W48719  22.935  35.455  13.609
75652W        W48720  12.772  19.126   3.195
75653W        W48721  38.492  34.782  11.926
75654W        W48722  39.391   7.646   4.182
75655W        W48723  27.990  23.742   1.874
75656W        W48724  15.320   1.997   0.869
75657W        W48725  39.983  23.084  11.449
75658W        W48726   9.712   1.723  14.765
75659W        W48727  16.836  29.248  11.065
75660W        W48728  29.138  16.888  11.125
75661W        W48729  36.516  39.433   1.189
75662W        W48730  16.749  14.815   1.241
75663W        W48731  40.246  30.080  11.944
75664W        W48732  35.488  32.006   2.696
75665W        W48733  36.182  13.339   1.211
75666W        W48734  15.812   0.300  10.628
75667W        W48735  28.469  39.353  13.932
75668W        W48736  15.376  39.347   1.741
75669W        W48737  28.635  14.517  11.554
75670W        W48738  19.495  41.487   4.584
75671W        W48739  44.613  14.579  11.909
75672W        W48740   9.132  37.131   4.157
75673W        W48741  26.099  44.288   0.004
75674W        W48742  32.449  25.998   0.659
75675W        W48743  39.151  35.575  12.486
75676W        W48744  12.878   9.770  10.572
75677W        W48745  39.490  28.421   0.636
75678W        W48746  27.103  42.812   4.256
75679W        W48747  31.078  16.397  11.032
75680W        W48748  10.566  17.585  13.442
75681W        W48749   4.883  35.438  10.551
75682W        W48750  36.327  12.713  12.127
75683W        W48751  36.386  17.936   1.183
75684W        W48752   5.596  27.953   3.736
75685W        W48753  16.253  11.335  14.960
75686W        W48754  43.007   9.661   2.278
75687W        W48755  24.650   2.273   1.262
75688W        W48756   3.166  18.281  14.354
75689W        W48757  20.834  14.567   1.481
75690W        W48758  42.365  43.376  14.715
75691W        W48759   9.670  41.518   2.365
75692W        W48760  28.988  34.756  13.615
75693W        W48761  44.484  18.153  13.529
75694W        W48762   0.153  23.702   2.344
75695W        W48763  15.388  23.619   4.545
75696W        W48764  44.068  10.695  10.836
75697W        W48765  10.380  13.197  11.252
75698W        W48766  44.925  39.749   3.658
75699W        W48767  12.183   9.321   0.781
75700W        W48768  40.966   2.948   2.894
75701W        W48769  15.430  29.144   1.946
75702W        W48770  36.406  15.130  10.651
75703W        W48771   0.856  38.627  12.082
75704W        W48772   7.767  39.912  11.659
75705W        W48773  44.859   1.279  10.614
75706W        W48774  31.929   1.685   1.642
75707W        W48775   0.877  29.591  10.335
75708W        W48776  36.118  14.356   2.817
75709W        W48777   8.901  38.093  14.493
75710W        W48778  16.790  21.023   1.181
75711W        W48779  23.517  19.481  13.495
75712W        W48780  28.252  30.160  11.571
75713W        W48781  28.854   7.268  12.941
75714W        W48782  29.670  14.044  13.830
75715W        W48783   9.093  34.538  14.363
75716W        W48784   1.310  31.699   2.261
75717W        W48785  36.566   7.623   1.064
75718W        W48786  44.734  30.340  11.673
75719W        W48787  34.895  33.074  13.703
75720W        W48788  28.623  39.496  11.141
75721W        W48789   1.444   5.497  10.576
75722W        W48790  21.666  10.776   2.107
75723W        W48791   4.108  31.974   4.559
75724W        W48792  40.973  40.698   4.330
75725W        W48793  16.232  20.833  11.241
75726W        W48794   3.690  24.470  12.426
75727W        W48795  28.543  39.486  14.867
75728W        W48796  30.013  20.282  13.631
75729W        W48797  24.507   7.408   1.699
75730W        W48798  15.343  18.590   0.524
75731W        W48799  25.657  31.390   1.402
75732W        W48800  43.564  39.475   1.387
75733W        W48801  12.260  33.484  14.398
75734W        W48802  39.236   5.510   3.786
75735W        W48803  33.425   2.320  11.455
75736W        W48804  33.006  11.373  13.609
75737W        W48805  16.408  43.701   1.838
75738W        W48806  22.502  13.739  10.882
75739W        W48807  39.781  29.104   4.577
75740W        W48808  10.119  41.730  13.927
75741W        W48809   3.295  10.679   3.668
75742W        W48810  12.671  15.253   3.812
75743W        W48811   5.306  31.734   0.277
75744W        W48812  21.603  20.878  12.399
75745W        W48813  44.725  40.620   2.473
75746W        W48814  37.075  34.900   2.717
75747W        W48815  30.340  14.377  14.908
75748W        W48816  16.407  22.014  13.107
75749W        W48817  29.042  15.964   4.186
75750W        W48818  35.420  44.926   0.005
75751W        W48819  11.209  13.396   1.059
75752W        W48820  29.629  44.488   0.272
75753W        W48821   1.659  19.336  12.040
75754W        W48822  21.889  27.357   3.680
75755W        W48823  15.362  23.308  11.211
75756W        W48824  19.779  16.745   0.515
75757W        W48825   5.764  10.479   2.734
75758W        W48826  37.136  39.824  11.220
75759W        W48827  16.298   3.914  13.524
75760W        W48828  14.787  29.112  13.767
75761W        W48829  44.922  21.927  11.533
75762W        W48830  42.293  36.587   0.763
75763W        W48831  25.959  29.649   3.648
75764W        W48832  11.894   6.382   3.169
75765W        W48833  35.594  20.794  13.775
75766W        W48834   8.734  36.658  14.480
75767W        W48835   7.361   6.722   2.349
75768W        W48836  15.350   5.339   2.394
75769W        W48837  33.142  25.013  14.885
75770W        W48838  17.778  18.294   3.830
75771W        W48839  13.080  44.228   0.547
75772W        W48840  16.711  21.239  12.017
75773W        W48841  37.813  44.940  14.952
75774W        W48842  40.185  15.250  12.561
75775W        W48843  41.545  38.683   0.288
75776W        W48844  40.117  15.075   2.655
75777W        W48845   1.215  12.339  10.611
75778W        W48846  31.980   4.372   0.842
75779W        W48847  17.237  15.069   4.084
75780W        W48848  22.077  34.517   4.897
75781W        W48849  42.777  19.757   3.649
75782W        W48850   3.414  28.063  11.363
75783W        W48851   3.199   5.623   3.676
75784W        W48852  20.120  15.115  12.525
75785W        W48853  21.862  33.021   4.673
75786W        W48854   5.191  40.772   2.353
75787W        W48855  41.603   6.720  12.678
75788W        W48856  11.585  39.095   4.584
75789W        W48857  37.491  13.634  12.133
75790W        W48858   2.414   2.068   3.231
75791W        W48859   0.196   8.206   4.025
75792W        W48860  38.357  43.243   1.705
75793W        W48861  36.361  11.262   2.372
75794W        W48862  41.014  11.734   2.765
75795W        W48863   1.725  10.345  12.098
75796W        W48864   6.094  20.834  13.900
75797W        W48865   2.847  27.384  11.569
75798W        W48866  16.798  43.307   4.116
75799W        W48867   4.752  14.498  13.921
75800W        W48868  36.234  22.780  13.617
75801W        W48869   7.080  20.439  11.609
75802W        W48870  21.003  39.267  14.821
75803W        W48871  31.986  14.550  11.728
75804W        W48872  20.686  11.807   1.230
75805W        W48873  11.111   8.471   2.750
75806W        W48874   8.810  30.910   1.971
75807W        W48875  22.774  15.303   1.682
75808W        W48876  36.941  25.501  14.800
75809W        W48877  40.384   0.265   0.805
75810W        W48878  40.579  36.285  14.386
75811W        W48879  21.126  11.888  14.008
75812W        W48880  21.936  31.616   2.854
75813W        W48881   0.889  32.359   2.235
75814W        W48882  28.950  44.730  11.100
75815W        W48883  37.358  22.311   5.121
75816W        W48884  32.939  19.484   4.532
75817W        W48885  36.637  18.220   3.057
75818W        W48886  16.258  31.107  14.900
75819W        W48887  38.784  37.141  11.939
75820W        W48888  29.899  12.408   2.474
75821W        W48889  11.402  30.524   1.860
75822W        W48890   5.549   1.053   2.790
75823W        W48891   6.226   1.989  11.205
75824W        W48892  29.032  19.512   0.878
75825W        W48893  20.603  20.572   4.634
75826W        W48894   5.693   1.832   0.805
75827W        W48895  35.023  43.513   4.296
75828W        W48896  39.481  12.128   0.386
75829W        W48897  40.246  14.414   5.144
75830W        W48898  41.341  30.595  10.719
75831W        W48899  11.615  36.544   0.917
75832W        W48900  33.314  43.773   4.790
75833W        W48901  17.597  14.750   2.927
75834W        W48902   6.325  34.264   4.325
75835W        W48903  18.406   1.976  12.904
75836W        W48904  17.633  41.985   0.395
75837W        W48905  15.384   8.770   4.653
75838W        W48906  30.505  22.347  10.422
75839W        W48907   8.723  39.490  14.358
75840W        W48908   2.498  35.213  11.605
75841W        W48909  28.573  36.430  12.871
75842W        W48910  24.898  36.751  13.850
75843W        W48911  18.192  43.860  14.431
75844W        W48912  17.246  38.574   1.256
75845W        W48913  38.545  12.716   3.939
75846W        W48914  32.120  37.944   3.145
75847W        W48915  23.056  37.312  11.489
75848W        W48916  14.186  32.628  10.777
75849W        W48917  28.212  43.847  12.889
75850W        W48918  13.931  11.183  13.544
75851W        W48919  18.126  22.588  13.822
75852W        W48920  27.231  20.336   2.214
75853W        W48921   0.950  17.056  14.866
75854W        W48922   5.608   7.268  11.570
75855W        W48923  27.422  30.516   4.166
75856W        W48924  27.933  43.382  10.780
75857W        W48925   5.903  20.780   0.272
75858W        W48926  18.945  16.441  13.964
75859W        W48927   6.945  44.312  11.530
75860W        W48928  34.824   0.340  12.878
75861W        W48929   8.450  35.460  11.513
75862W        W48930  32.149  39.716  14.935
75863W        W48931  42.871  13.046  13.832
75864W        W48932  40.326   8.407  11.949
75865W        W48933  44.849  17.275  12.741
75866W        W48934  40.544  21.715  13.327
75867W        W48935   8.326  13.138   1.376
75868W        W48936   4.415  10.124  13.011
75869W        W48937  13.581   5.887  12.807
75870W        W48938  44.064  30.928  12.361
75871W        W48939  22.810   2.446  10.210
75872W        W48940  27.657  15.385   0.793
75873W        W48941  10.612   9.308   4.132
75874W        W48942  17.505  35.937  13.045
75875W        W48943  43.253  21.664   0.739
75876W        W48944  40.996  12.166  12.487
75877W        W48945  20.199  34.031   0.965
75878W        W48946  29.206  39.249  14.311
75879W        W48947  13.116   5.285   0.341
75880W        W48948   0.733  27.177   3.602
75881W        W48949   7.106  13.824   3.982
75882W        W48950  31.839  29.346  12.022
75883W        W48951  34.313  34.876   3.836
75884W        W48952   3.236  35.106  11.132
75885W        W48953  18.107  25.197   5.068
75886W        W48954  29.077  44.018  14.449
75887W        W48955  19.565  36.972  12.894
75888W        W48956  13.837  18.086  14.571
75889W        W48957  24.711  41.521   2.890
75890W        W48958  19.278   6.751   3.225
75891W        W48959  20.047  34.949  11.583
75892W        W48960  35.940  23.008  14.827
75893W        W48961  10.981  15.877  13.954
75894W        W48962  42.608   2.266   0.495
75895W        W48963   0.195  23.126   0.954
75896W        W48964  25.982  18.867  11.569
75897W        W48965  37.585  29.212   2.613
75898W        W48966  44.837  22.628  14.754
75899W        W48967  28.034  12.313   2.353
75900W        W48968  38.000  21.507  14.957
75901W        W48969  37.095   2.466   1.786
75902W        W48970  33.726  43.915  14.270
75903W        W48971  38.990  30.920   2.947
75904W        W48972  38.805  44.025  13.508
75905W        W48973   2.679  11.242   0.149
75906W        W48974  19.080  23.687   0.036
75907W        W48975  43.428   3.182  11.666
75908W        W48976  21.671  43.534  13.860
75909W        W48977  29.380  31.021   0.297
75910W        W48978  42.141  24.019   0.962
75911W        W48979  33.485  15.197  14.473
75912W        W48980  26.671  15.180   4.555
75913W        W48981  40.415  24.531   2.249
75914W        W48982  13.753  18.164   2.351
75915W        W48983  41.887  41.693  14.256
75916W        W48984  14.707  44.375  12.725
75917W        W48985  15.826  31.214   4.174
75918W        W48986  14.610  22.600  13.998
75919W        W48987  13.751  14.292  12.143
75920W        W48988  15.277  34.822  11.604
75921W        W48989  42.753  23.314  11.050
75922W        W48990  25.535   1.145  13.435
75923W        W48991   4.962  26.028  14.776
75924W        W48992   7.389  43.233   4.629
75925W        W48993  23.083  13.459   4.171
75926W        W48994  33.486  23.244  11.624
75927W        W48995  38.456  28.573   1.180
75928W        W48996  42.979  29.844   0.399
75929W        W48997  27.465  22.148  13.063
75930W        W48998  25.181  11.011  12.236
75931W        W48999  27.028   5.927   0.507
75932W        W49000  12.595  20.753  11.139
75933W        W49001   7.626   7.669  13.395
75934W        W49002  14.920  33.045   4.151
75935W        W49003  15.227  29.761  12.841
75936W        W49004  16.721  37.381  12.174
75937W        W49005  41.999   6.440  12.892
75938W        W49006  22.627  14.620   0.403
75939W        W49007  22.188  17.159  10.268
75940W        W49008  22.139  27.073   1.240
75941W        W49009  25.151  41.384   1.195
75942W        W49010  29.869   5.810  12.415
75943W        W49011  39.380  20.546  13.043
75944W        W49012   6.667  32.671   2.291
75945W        W49013  42.469  15.228   1.378
75946W        W49014   1.302  11.631  13.349
75947W        W49015  11.336  13.893   2.858
75948W        W49016  32.055  29.348  13.408
75949W        W49017   1.148  22.216   0.017
75950W        W49018  38.031   9.812  13.000
75951W        W49019  19.585  38.051  12.826
75952W        W49020  22.852  28.962  13.923
75953W        W49021  41.276  32.572   3.011
75954W        W49022  18.075  19.307  14.160
75955W        W49023  10.756  28.510  10.868
75956W        W49024  36.398  20.123  12.569
75957W        W49025  30.377  18.672  10.694
75958W        W49026  36.446  16.317  13.525
75959W        W49027  30.082  28.983  11.992
75960W        W49028  39.249  43.436  14.434
75961W        W49029  28.503  24.571  11.085
75962W        W49030  23.652  29.474   4.394
75963W        W49031  20.065   7.380   2.258
75964W        W49032  37.035  41.741  14.215
75965W        W49033   7.787  43.390   3.560
75966W        W49034   1.836   7.432   4.620
75967W        W49035  33.608  38.502  12.439
75968W        W49036  28.318  25.671  13.305
75969W        W49037  27.629  15.102  12.789
75970W        W49038   5.483  32.163   2.689
75971W        W49039  35.549  12.187   2.424
75972W        W49040   1.307  22.008   4.038
75973W        W49041   4.692  26.648  11.617
75974W        W49042   0.113  37.475  10.706
75975W        W49043  23.004   3.887   2.734
75976W        W49044  34.623  20.743  13.517
75977W        W49045  14.540  15.081   2.606
75978W        W49046  35.885   9.168   3.658
75979W        W49047   3.768  19.531  13.065
75980W        W49048  28.926   1.149   4.857
75981W        W49049  16.346  32.050   0.797
75982W        W49050  14.091  33.941  14.343
75983W        W49051  38.917   7.657  12.761
75984W        W49052   3.453   9.784   0.818
75985W        W49053  40.940  22.070  11.605
75986W        W49054  12.013  26.896   1.387
75987W        W49055   8.473  42.935   0.079
75988W        W49056   5.385  43.767  10.983
75989W        W49057   9.030  36.348   1.922
75990W        W49058  28.492  15.132  14.350
75991W        W49059  43.406  40.749   2.813
75992W        W49060  14.644  19.775  14.433
75993W        W49061  40.705  23.146  12.599
75994W        W49062  38.201   7.721   1.866
75995W        W49063   4.422   4.417   1.757
75996W        W49064  37.428  21.753   4.344
75997W        W49065  36.874   9.429  14.422
75998W        W49066  27.802  40.393  14.113
75999W        W49067  24.975  44.196   2.449
76000W        W49068  16.138  35.830  10.729
76001W        W49069   1.426  15.098  10.531
76002W        W49070  25.301   2.450   0.530
76003W        W49071  16.152  16.930   4.162
76004W        W49072  29.438   4.876   2.535
76005W        W49073  13.727  18.327  11.480
76006W        W49074  26.722  37.304   3.145
76007W        W49075  32.516  26.619   2.341
76008W        W49076   0.402  44.817  14.314
76009W        W49077  13.085  16.063   1.720
76010W        W49078  11.160  23.269   4.411
76011W        W49079  34.470   7.193  10.672
76012W        W49080  26.370  28.930   3.276
76013W        W49081  16.837   7.350  12.082
76014W        W49082  28.431  18.047   0.203
76015W        W49083  38.425  25.762   4.416
76016W        W49084   9.261  26.268  14.955
76017W        W49085  25.315  37.547  14.780
76018W        W49086  19.618  40.500   5.008
76019W        W49087  16.627  27.967  14.300
76020W        W49088   6.181  28.727   4.122
76021W        W49089  20.134  20.008   1.672
76022W        W49090   5.399  35.120   0.777
76023W        W49091  42.204   4.411  12.603
76024W        W49092  18.884  43.792   5.169
76025W        W49093  13.251  32.917   2.683
76026W        W49094  30.679  24.051   2.503
76027W        W49095  27.978   5.377   2.270
76028W        W49096  24.485  12.184  11.158
76029W        W49097  12.155  33.834  12.347
76030W        W49098  38.818   1.908  12.616
76031W        W49099  14.865   2.350   2.870
76032W        W49100   3.233  38.434  12.242
76033W        W49101   6.005  31.922   0.794
76034W        W49102  42.759  44.432  14.385
76035W        W49103  32.373  14.720   4.718
76036W        W49104  43.708  40.606   2.241
76037W        W49105  12.048  44.558  14.384
76038W        W49106   5.941  25.090  14.904
76039W        W49107  44.241  44.915   2.428
76040W        W49108   6.037   8.613  12.578
76041W        W49109  10.689  44.259  10.187
76042W        W49110  27.076   7.936   4.203
76043W        W49111  19.753  44.464   2.518
76044W        W49112   5.688  25.578  13.422
76045W        W49113   4.471  21.545  12.575
76046W        W49114  27.930  43.637  12.499
76047W        W49115  31.258  41.986   4.526
76048W        W49116  24.312  21.720  13.993
76049W        W49117   0.898  11.296   4.366
76050W        W49118  13.559  31.514   3.572
76051W        W49119  39.707  24.981  11.011
76052W        W49120  18.318  28.036   2.812
76053W        W49121  32.820  33.803   4.251
76054W        W49122   6.583   3.355  10.134
76055W        W49123  14.727  12.151   2.255
76056W        W49124   3.780  40.532  13.969
76057W        W49125  18.778   0.924  12.971
76058W        W49126  28.906  22.953  13.488
76059W        W49127  32.515  25.059  13.468
76060W        W49128   6.493  21.127   4.459
76061W        W49129  17.580  41.310  12.558
76062W        W49130  17.138  28.625  13.949
76063W        W49131  23.996  15.844  10.439
76064W        W49132  32.610  26.235   4.010
76065W        W49133  18.363  41.452   2.365
76066W        W49134   4.213  33.301  13.928
76067W        W49135  39.013   5.503  10.162
76068W        W49136  16.806  24.783  11.229
76069W        W49137  23.205  22.496  14.864
76070W        W49138  29.927  22.928  11.045
76071W        W49139  19.279  15.770  13.306
76072W        W49140   5.709  38.386   3.693
76073W        W49141  36.550  42.506   2.761
76074W        W49142  14.291  16.193  11.941
76075W        W49143  32.189  38.292  11.184
76076W        W49144  33.209  31.328  10.514
76077W        W49145   0.465  14.262  12.465
76078W        W49146  37.213  26.270  11.099
76079W        W49147  34.762  11.631  12.183
76080W        W49148  12.788  11.057   4.083
76081W        W49149   1.995  16.166   2.829
76082W        W49150  18.596   6.447   4.580
76083W        W49151  29.633  27.171  11.130
76084W        W49152  43.067  17.104  12.547
76085W        W49153  41.638  16.530   3.251
76086W        W49154  22.117   0.463   5.123
76087W        W49155  16.224  35.014  10.346
76088W        W49156  18.207  18.662   4.236
76089W        W49157  44.011  35.572  10.828
76090W        W49158  23.178  28.213   4.539
76091W        W49159  27.995  44.526   2.668
76092W        W49160  31.870  44.730   1.762
76093W        W49161  35.120  16.605   1.736
76094W        W49162  23.933  11.811   2.856
76095W        W49163   5.991  31.896  11.608
76096W        W49164  21.464  29.557  14.969
76097W        W49165  44.261  18.280   2.370
76098W        W49166  35.040   4.906  10.301
76099W        W49167  23.181  18.710  11.645
76100W        W49168  23.110  33.239  13.793
76101W        W49169  26.641   9.128  13.813
76102W        W49170  33.463  25.055  10.739
76103W        W49171   0.275  20.476  11.358
76104W        W49172  35.380  26.095  13.128
76105W        W49173  44.722   5.454  11.481
76106W        W49174   0.454  11.918   0.891
76107W        W49175  30.687  37.532  13.387
76108W        W49176   9.330  36.302   0.964
76109W        W49177  17.828  29.718  13.441
76110W        W49178  11.120  35.274  13.096
76111W        W49179  28.958  44.860  12.155
76112W        W49180  43.583  44.050  11.099
76113W        W49181  41.976  10.699   4.298
76114W        W49182  11.136  30.994  11.153
76115W        W49183  16.834  41.494   0.972
76116W        W49184  24.995   5.250   1.172
76117W        W49185   1.724  12.271  10.628
76118W        W49186  21.149  17.107  13.487
76119W        W49187  37.688   0.746   1.405
76120W        W49188  22.145   7.682   4.867
76121W        W49189  27.787  24.104  14.970
76122W        W49190  39.215  35.108  14.174
76123W        W49191  36.915   4.188   4.612
76124W        W49192  26.879  15.254  10.364
76125W        W49193  39.293  29.368   4.585
76126W        W49194   1.202   3.733   3.636
76127W        W49195  26.028   8.118   0.002
76128W        W49196  20.065  25.043   0.804
76129W        W49197  23.547  44.328  13.258
76130W        W49198  11.621  19.193  11.649
76131W        W49199  16.397  21.321  11.202
76132W        W49200  20.235  11.486  11.932
76133W        W49201  19.414  38.863   2.944
76134W        W49202  26.604   3.843  11.612
76135W        W49203  35.353  44.321  11.005
76136W        W49204   3.249  21.086   3.213
76137W        W49205   1.849  44.056   2.619
76138W        W49206   2.548  35.526  10.870
76139W        W49207  10.888  19.176   4.620
76140W        W49208   3.427  22.752   1.845
76141W        W49209  36.566  43.530   2.735
76142W        W49210  17.547  23.504   1.705
76143W        W49211  37.141  14.329  12.821
76144W        W49212  30.572   5.109  14.091
76145W        W49213  39.235   7.801  10.932
76146W        W49214   8.393  34.521  14.001
76147W        W49215  10.119  25.276  12.480
76148W        W49216  30.981  14.693  11.544
76149W        W49217  33.490  10.620   1.286
76150W        W49218  21.660  35.120  14.070
76151W        W49219  20.712  22.522  11.623
76152W        W49220  21.931  38.912  14.023
76153W        W49221  33.652  27.889  14.510
76154W        W49222  18.751  43.988   4.343
76155W        W49223  42.808  15.594   1.175
76156W        W49224  27.571  23.246  12.102
76157W        W49225  36.605   8.689  14.023
76158W        W49226   9.733  16.923  11.882
76159W        W49227  16.663  17.528   2.852
76160W        W49228  17.635  26.487   1.349
76161W        W49229  14.552  19.094   4.377
76162W        W49230  16.253  16.694  11.112
76163W        W49231  30.974  11.466   2.000
76164W        W49232   2.849  24.185  13.747
76165W        W49233  39.356  34.493   3.421
76166W        W49234  34.924  13.788   3.691
76167W        W49235  28.300  32.464   4.105
76168W        W49236  41.691   2.882  10.543
76169W        W49237   7.918  43.307  11.573
76170W        W49238   8.285   0.515  11.874
76171W        W49239  15.855  40.629  13.821
76172W        W49240  12.776  14.099  10.824
76173W        W49241  13.163  16.600   4.743
76174W        W49242  11.184  23.152   0.856
76175W        W49243  18.499   2.943   4.709
76176W        W49244  44.581  31.041  13.416
76177W        W49245   4.003   7.239  14.379
76178W        W49246  10.380   7.321  14.501
76179W        W49247  18.902  27.015  13.059
76180W        W49248  19.786   5.765   0.070
76181W        W49249  14.489  19.529   1.887
76182W        W49250  33.115  39.077  13.018
76183W        W49251  34.737  41.544  12.489
76184W        W49252  42.340  12.266   3.364
76185W        W49253   9.634  22.946   0.416
76186W        W49254  14.523   3.706   2.796
76187W        W49255  27.799   8.797   0.071
76188W        W49256  27.421  13.818  13.036
76189W        W49257  19.985  44.420   1.686
76190W        W49258  24.994  33.048  11.991
76191W        W49259   8.463   9.781  10.684
76192W        W49260  39.516  44.329  11.631
76193W        W49261   3.251  24.776  12.408
76194W        W49262  17.668   4.202  12.408
76195W        W49263  42.420  27.284   1.173
76196W        W49264  41.855   9.208   2.799
76197W        W49265  19.033  14.592   3.769
76198W        W49266  17.264  44.520  11.181
76199W        W49267  12.362  38.604   2.831
76200W        W49268  33.495  14.085  10.741
76201W        W49269  36.653  29.980  12.066
76202W        W49270  15.097   3.896   2.717
76203W        W49271  23.646  38.466   2.340
76204W        W49272  11.157  42.928   1.325
76205W        W49273  37.607  17.564  11.381
76206W        W49274  43.784  42.891  11.858
76207W        W49275  35.777   7.978   0.319
76208W        W49276  40.414  33.363  14.434
76209W        W49277  43.528  41.583   2.376
76210W        W49278  11.111  28.453   1.268
76211W        W49279  39.853   7.766   2.395
76212W        W49280  33.065  21.261  14.406
76213W        W49281  28.962  15.785   0.087
76214W        W49282  23.561  36.678  11.588
76215W        W49283  26.118  41.015   0.860
76216W        W49284  20.079  15.193  14.462
76217W        W49285   7.519  38.424   2.078
76218W        W49286   6.897  30.697  14.869
76219W        W49287  14.732   6.218   1.400
76220W        W49288  40.200   0.039   3.775
76221W        W49289  32.563  34.301  13.321
76222W        W49290  34.043  32.243  11.142
76223W        W49291  19.073  35.522  10.729
76224W        W49292  27.518  41.469   4.857
76225W        W49293   5.279  29.008   4.414
76226W        W49294  19.208   6.922  13.339
76227W        W49295  28.155  44.921  14.426
76228W        W49296  32.116   2.921   2.279
76229W        W49297  21.336  19.687  13.669
76230W        W49298   5.844  14.090   0.958
76231W        W49299  13.785   8.677   3.685
76232W        W49300  34.596   8.860  12.063
76233W        W49301  40.227  35.941  14.652
76234W        W49302   9.210  24.622   1.805
76235W        W49303  27.923  36.928   0.718
76236W        W49304  19.229  17.066  12.478
76237W        W49305  12.692  22.246  12.046
76238W        W49306  22.819   3.815  11.041
76239W        W49307  41.119   4.269   2.644
76240W        W49308  13.524   2.974  11.009
76241W        W49309  22.785   5.315   1.746
76242W        W49310  11.077   0.991   0.202
76243W        W49311   3.842  13.766   2.495
76244W        W49312   3.327  12.749  11.675
76245W        W49313  32.564   2.343   1.821
76246W        W49314  18.170  19.288  13.291
76247W        W49315  11.311  13.204  11.021
76248W        W49316  33.937  40.591  10.730
76249W        W49317  11.431  36.260   0.404
76250W        W49318  21.115  26.294   3.189
76251W        W49319  41.340  21.046   1.468
76252W        W49320   9.116  25.423  14.031
76253W        W49321  11.206   2.360   2.090
76254W        W49322  34.422  11.535  11.817
76255W        W49323  15.096  10.294  12.350
76256W        W49324  43.876   6.059   2.169
76257W        W49325  30.409  35.957   3.062
76258W        W49326   4.941  11.886   2.823
76259W        W49327  24.118  23.643  11.240
76260W        W49328  33.601  41.844  10.664
76261W        W49329   3.185  21.335   4.105
76262W        W49330  19.117   8.641  14.015
76263W        W49331  29.415   9.625   0.459
76264W        W49332  24.808  32.873   1.461
76265W        W49333  38.322  19.585   3.895
76266W        W49334  14.624  41.718   3.756
76267W        W49335  37.135  22.122  11.669
76268W        W49336  27.921  10.173   1.873
76269W        W49337  14.733   0.729  14.058
76270W        W49338   9.230  32.418   0.484
76271W        W49339   8.683  33.657   0.295
76272W        W49340  14.150  23.492   4.031
76273W        W49341  36.556  10.277   4.796
76274W        W49342  15.730  16.760  12.105
76275W        W49343  42.864  12.262   4.131
76276W        W49344  40.309  12.323   4.287
76277W        W49345  35.084   7.272  13.879
76278W        W49346  25.840  28.085   0.356
76279W        W49347  27.108  43.527   1.966
76280W        W49348  40.868  40.374  13.095
76281W        W49349  30.743  27.184  13.261
76282W        W49350  27.281  34.955  12.825
76283W        W49351  32.634   7.457   4.081
76284W        W49352  33.984  42.277  13.930
76285W        W49353  14.371  26.865  12.175
76286W        W49354  21.030  26.551  14.016
76287W        W49355  40.296  40.059   2.850
76288W        W49356   8.736  24.700   4.137
76289W        W49357  28.049  24.984   2.195
76290W        W49358   9.145  23.086   0.429
76291W        W49359  17.628  19.653   4.168
76292W        W49360  12.257  24.853  12.527
76293W        W49361  21.261  33.154  13.540
76294W        W49362  12.770  27.741  14.468
76295W        W49363   2.329   2.331   2.455
76296W        W49364  31.553  39.804   3.263
76297W        W49365  20.610  11.637   2.668
76298W        W49366  18.819  18.202  13.527
76299W        W49367  22.735  31.508   0.282
76300W        W49368  29.292  32.049  14.273
76301W        W49369  25.653  26.033  14.554
76302W        W49370   5.733  11.395  10.555
76303W        W49371  11.710  44.313   3.838
76304W        W49372   5.959   9.891   4.343
76305W        W49373   4.823  15.115  14.741
76306W        W49374  13.090  37.005  13.827
76307W        W49375  22.584  22.026  11.389
76308W        W49376   2.892  25.903  14.079
76309W        W49377   7.443  21.072   4.616
76310W        W49378  44.508   7.872   0.483
76311W        W49379  22.673  37.342   2.869
76312W        W49380  24.240  24.121  11.482
76313W        W49381  26.102  18.688  12.040
76314W        W49382  15.459  27.115   4.381
76315W        W49383  22.529   0.356  11.698
76316W        W49384  15.644  38.966  12.980
76317W        W49385  42.934  17.722   1.223
76318W        W49386  32.159  18.139  13.538
76319W        W49387  39.315  15.234   4.265
76320W        W49388   7.458  40.550  14.305
76321W        W49389  34.989   8.883   1.932
76322W        W49390  35.446  35.063  12.491
76323W        W49391  36.934  12.674   4.004
76324W        W49392  44.235  29.961   2.379
76325W        W49393  37.567  37.001  14.753
76326W        W49394  16.089  26.073  14.011
76327W        W49395  25.216  14.624   0.521
76328W        W49396   2.202  38.902   0.159
76329W        W49397  14.281  25.784   4.746
76330W        W49398  12.351  39.392  13.519
76331W        W49399   5.526   5.639   3.118
76332W        W49400  28.055   2.763   1.478
76333W        W49401  35.775  28.964   0.487
76334W        W49402  38.217  29.578  12.342
76335W        W49403  14.278  15.233  12.086
76336W        W49404   6.365   8.269  12.386
76337W        W49405   7.885  39.388  11.634
76338W        W49406  37.088  34.118   2.180
76339W        W49407  37.460  31.239  14.334
76340W        W49408   6.055  30.328  10.199
76341W        W49409   7.078  12.611  10.667
76342W        W49410  16.182  22.132  14.402
76343W        W49411  20.704   9.323   3.263
76344W        W49412  37.370  37.775   4.205
76345W        W49413  16.782   8.573  14.418
76346W        W49414  11.258   4.160  14.760
76347W        W49415  28.659  10.479   5.463
76348W        W49416  34.964  26.540  11.608
76349W        W49417   2.685  41.816   1.954
76350W        W49418  44.468  30.652   3.152
76351W        W49419  27.914  43.372  12.062
76352W        W49420  39.819  10.084   0.071
76353W        W49421  34.019   3.337  10.608
76354W        W49422  34.933  17.339  14.871
76355W        W49423  34.941  29.584  10.655
76356W        W49424  40.553  17.694  12.072
76357W        W49425  23.733  19.052  13.311
76358W        W49426  30.415  31.535   3.236
76359W        W49427  34.876  43.444   2.613
76360W        W49428  19.622  31.764  12.006
76361W        W49429   8.409  21.985   0.783
76362W        W49430  35.310  36.642  14.926
76363W        W49431  28.651  28.036  13.986
76364W        W49432  41.413  20.440  12.028
76365W        W49433  39.467  25.828   0.421
76366W        W49434  22.209  21.644   3.053
76367W        W49435  44.581  37.527  10.687
76368W        W49436   0.551  21.255   3.658
76369W        W49437   5.725  40.291   3.566
76370W        W49438   5.018  24.502  12.718
76371W        W49439  11.817  37.635  11.094
76372W        W49440   4.750  28.029   2.673
76373W        W49441  21.771  44.377  12.840
76374W        W49442  13.190   9.826   4.117
76375W        W49443  36.902  27.878  13.499
76376W        W49444  13.137  18.746   3.722
76377W        W49445  21.564   8.103  11.066
76378W        W49446  44.456   0.061   4.122
76379W        W49447  21.048  17.647  11.924
76380W        W49448   7.709  16.539   3.883
76381W        W49449  14.008  20.421  11.507
76382W        W49450  23.226  22.117   1.757
76383W        W49451  16.174  28.478  13.358
76384W        W49452   2.693   9.762  10.595
76385W        W49453   0.985   6.061   2.953
76386W        W49454  39.315  33.550   1.347
76387W        W49455  24.640  15.314   1.890
76388W        W49456  17.925  21.678  11.420
76389W        W49457  32.687  28.967   2.592
76390W        W49458  35.600  18.116   4.289
76391W        W49459  44.375  27.530   0.249
76392W        W49460  37.397  35.168  14.377
76393W        W49461   7.582   5.778  11.619
76394W        W49462  33.987   8.613   2.647
76395W        W49463  13.651  11.838  11.276
76396W        W49464  17.047   7.688  13.373
76397W        W49465  24.220   3.871  13.777
76398W        W49466  37.098  23.348   1.568
76399W        W49467  16.820  15.716   0.756
76400W        W49468  29.672  34.271  13.764
76401W        W49469  18.640  40.942   4.594
76402W        W49470   1.862  19.111   3.231
76403W        W49471  38.127  16.683  12.447
76404W        W49472  44.953  22.236  11.092
76405W        W49473   9.131  26.046   3.997
76406W        W49474  17.621   3.050  11.419
76407W        W49475  31.049  44.296   2.264
76408W        W49476  38.434   2.923   3.466
76409W        W49477   2.033  23.012   3.348
76410W        W49478  23.399  41.003  12.684
76411W        W49479   9.364   5.695  14.500
76412W        W49480   9.837  40.494  13.063
76413W        W49481  19.604   2.747   1.794
76414W        W49482  35.585   5.913   3.192
76415W        W49483  11.211  36.972  13.318
76416W        W49484   5.023  38.329   4.544
76417W        W49485  10.924  16.106   4.198
76418W        W49486  31.223  34.603  11.554
76419W        W49487  23.246  40.193   0.622
76420W        W49488  20.209  28.961   2.888
76421W        W49489  41.341  14.400   0.806
76422W        W49490  13.691  26.195  11.201
76423W        W49491  15.643  11.268   0.608
76424W        W49492  17.687  39.790  10.559
76425W        W49493  32.149  20.657   1.357
76426W        W49494  18.294  34.437  11.165
76427W        W49495   6.322   6.877  11.375
76428W        W49496  22.023  12.256  10.734
76429W        W49497   8.363   8.593   2.700
76430W        W49498   8.327  19.163   0.011
76431W        W49499  43.383  19.709   3.228
76432W        W49500  33.087   2.000   2.348
76433W        W49501   5.871  28.919  10.689
76434W        W49502  43.081   2.436   4.945
76435W        W49503  30.097  25.684  12.988
76436W        W49504  13.894  11.318   1.853
76437W        W49505  26.103  16.047   3.705
76438W        W49506  38.844  40.809   1.020
76439W        W49507  30.480  18.722   3.628
76440W        W49508   3.732  31.364  13.223
76441W        W49509  11.170  15.516  14.300
76442W        W49510  35.463  41.367  13.186
76443W        W49511  44.375   6.559   0.932
76444W        W49512  42.666  31.271   4.164
76445W        W49513  29.476  23.112   2.561
76446W        W49514  32.535  43.907  11.913
76447W        W49515   0.351  25.478   4.780
76448W        W49516  20.725   8.351   2.785
76449W        W49517  12.388  44.352  11.675
76450W        W49518  37.431  40.466  13.701
76451W        W49519   9.701  29.874   0.305
76452W        W49520  11.662   3.779   4.228
76453W        W49521  33.606  35.929   0.283
76454W        W49522  12.369  41.979   4.181
76455W        W49523   8.761  13.210   0.198
76456W        W49524  19.325   0.255   3.750
76457W        W49525  33.873   8.204   4.219
76458W        W49526  29.112  30.623   4.801
76459W        W49527  13.790  19.650  13.174
76460W        W49528  34.100  41.730  12.589
76461W        W49529  32.310  28.121   2.654
76462W        W49530   3.351  20.682   0.761
76463W        W49531  27.717  10.499  12.911
76464W        W49532  40.544  30.707  12.499
76465W        W49533  41.354  44.466  12.308
76466W        W49534  37.860  14.405   0.284
76467W        W49535  33.555  21.589  11.249
76468W        W49536   8.833  42.526   2.736
76469W        W49537  28.679   7.730  12.539
76470W        W49538  20.657   5.330  14.579
76471W        W49539  40.864  12.884  12.963
76472W        W49540  19.720  39.554   4.811
76473W        W49541  31.761  19.460  12.532
76474W        W49542  31.042  18.968  14.472
76475W        W49543   0.865  44.456   4.668
76476W        W49544  28.919  23.233   3.698
76477W        W49545   6.791  13.770  14.115
76478W        W49546  27.492  36.427  14.838
76479W        W49547  19.994   0.773  11.637
76480W        W49548  10.644  37.567  10.698
76481W        W49549  22.660  30.829  10.666
76482W        W49550   7.466  32.513   3.717
76483W        W49551  42.359  15.377   0.343
76484W        W49552  34.823  11.802   1.964
76485W        W49553  24.999  15.856   1.419
76486W        W49554   6.363  40.100   4.186
76487W        W49555   1.877  37.344   4.185
76488W        W49556  25.086  39.531   2.753
76489W        W49557  43.332  17.931  12.408
76490W        W49558  35.592  31.605   2.380
76491W        W49559  15.594  17.025  12.564
76492W        W49560  25.641  28.127   9.849
76493W        W49561  42.459  39.289   2.263
76494W        W49562  17.067  29.895   0.430
76495W        W49563  38.895  37.983  14.413
76496W        W49564  36.892  42.369  13.364
76497W        W49565  21.634   1.853  13.156
76498W        W49566  31.408   3.512   0.390
76499W        W49567  44.335   5.396   1.852
76500W        W49568   2.836  22.112  10.627
76501W        W49569  33.053  22.493   0.080
76502W        W49570  20.453   0.358   1.943
76503W        W49571  31.880  15.808   2.231
76504W        W49572   0.054  24.767   3.011
76505W        W49573  15.094  19.194   4.908
76506W        W49574  21.538  10.677   3.166
76507W        W49575  33.306  23.754   1.285
76508W        W49576  31.393  41.270   2.268
76509W        W49577  28.723  38.489   1.146
76510W        W49578  15.335   2.484   2.646
76511W        W49579  44.435   5.414  12.562
76512W        W49580  41.843   8.676   2.839
76513W        W49581   2.284  41.566  12.906
76514W        W49582  26.972  23.006  12.402
76515W        W49583  42.735  44.773  13.095
76516W        W49584  10.331  10.096  11.117
76517W        W49585   6.826  42.408  14.654
76518W        W49586  22.113  18.245   4.246
76519W        W49587  16.195  28.139   4.871
76520W        W49588  36.964  21.640   2.951
76521W        W49589   1.999  29.155   3.640
76522W        W49590  23.716  43.490  12.032
76523W        W49591  10.869  33.352   0.775
76524W        W49592  19.018  11.212  14.230
76525W        W49593  11.726  33.832   1.825
76526W        W49594  11.788  42.362   0.775
76527W        W49595  34.778  31.154  14.802
76528W        W49596  11.556  39.237   0.638
76529W        W49597  18.670  28.204   3.692
76530W        W49598  11.293  12.565  13.879
76531W        W49599  39.865  41.598   1.081
76532W        W49600  13.907   9.278  12.352
76533W        W49601  11.656  35.832  11.636
76534W        W49602  34.230  19.664  11.046
76535W        W49603   4.011   4.690   2.911
76536W        W49604  44.823  29.804  12.967
76537W        W49605  31.315  19.645  12.718
76538W        W49606  13.045   1.922   1.313
76539W        W49607   5.114  29.960   1.339
76540W        W49608   0.374   5.154   1.200
76541W        W49609  15.307  37.030   3.326
76542W        W49610   3.395  20.366  14.795
76543W        W49611  10.312  36.944  13.290
76544W        W49612  12.969  14.195  14.521
76545W        W49613  26.107  16.300   0.371
76546W        W49614   5.657  14.209   2.057
76547W        W49615   9.996   2.271  12.446
76548W        W49616  30.968  33.440  13.039
76549W        W49617  43.232  11.674  12.938
76550W        W49618  31.046  42.574  14.235
76551W        W49619  19.061  30.547   1.964
76552W        W49620  41.100  37.018  14.842
76553W        W49621  17.347   5.141  12.397
76554W        W49622  35.808  13.194  12.124
76555W        W49623   7.411   0.973  12.635
76556W        W49624  24.016  34.650   1.150
76557W        W49625  43.767   7.722  14.780
76558W        W49626  16.165  34.502  14.220
76559W        W49627  17.410  37.560  13.565
76560W        W49628  19.779   7.993  14.531
76561W        W49629  28.523  42.840   2.635
76562W        W49630   6.995  32.162  12.914
76563W        W49631  40.557   1.950  12.655
76564W        W49632  26.497  15.529  11.222
76565W        W49633  43.388  33.397  10.411
76566W        W49634  36.394   5.504  12.138
76567W        W49635  41.807  35.989  10.513
76568W        W49636  43.828   9.380  14.744
76569W        W49637  35.566  22.773  12.030
76570W        W49638   6.604  44.687   0.082
76571W        W49639  25.100  15.592   0.588
76572W        W49640  34.837   9.331   1.724
76573W        W49641  19.660  14.862  12.417
76574W        W49642  17.301  29.663   3.205
76575W        W49643   3.657  22.227   0.015
76576W        W49644  43.074  31.980  11.169
76577W        W49645  44.436  22.748   3.292
76578W        W49646  19.004  29.391  13.067
76579W        W49647   8.039  42.988   1.345
76580W        W49648  21.364  36.458   1.837
76581W        W49649  13.043   5.689  14.668
76582W        W49650  11.849  11.621  12.845
76583W        W49651  35.468  11.287   2.398
76584W        W49652  13.246  27.198   1.778
76585W        W49653  14.307   8.927   1.878
76586W        W49654  16.983  39.549  13.700
76587W        W49655  32.036  38.913  13.260
76588W        W49656  23.988   3.433   1.005
76589W        W49657  30.617  19.749  11.216
76590W        W49658  32.700  18.809  12.870
76591W        W49659   0.909  10.877   4.730
76592W        W49660  27.729   1.479   1.784
76593W        W49661  39.541  42.526  13.882
76594W        W49662  22.465  37.278  12.568
76595W        W49663  32.582  10.928   3.533
76596W        W49664  21.004  16.696  12.614
76597W        W49665  42.352  17.456  14.883
76598W        W49666  11.265  11.786   3.678
76599W        W49667  32.635  37.354   3.697
76600W        W49668  22.978  40.962   2.807
76601W        W49669   0.454  44.547  11.008
76602W        W49670   0.519  39.022   3.644
76603W        W49671  40.467  32.600   1.370
76604W        W49672   8.886  44.245  13.566
76605W        W49673  30.997  20.006  12.854
76606W        W49674  28.978  10.867   3.181
76607W        W49675  35.435  36.823   3.104
76608W        W49676  42.825  18.753   1.765
76609W        W49677  43.777  23.977  13.114
76610W        W49678  18.240  41.765  12.106
76611W        W49679  13.068  28.141   1.070
76612W        W49680  13.192  33.407   4.614
76613W        W49681  28.433  20.029   3.342
76614W        W49682  23.791   1.795   1.723
76615W        W49683  33.126  19.769  13.475
76616W        W49684   0.898  11.895  12.495
76617W        W49685  10.197  41.820  13.015
76618W        W49686  22.943  40.347  11.573
76619W        W49687   3.283  20.314  12.991
76620W        W49688  19.369   4.579  11.213
76621W        W49689   2.867  22.563   4.255
76622W        W49690  32.134  42.272   2.266
76623W        W49691   1.033  16.715   1.666
76624W        W49692  24.031  37.848   3.033
76625W        W49693   4.151  32.185  14.731
76626W        W49694  16.197  35.484   3.890
76627W        W49695  41.010  31.447   4.295
76628W        W49696  32.892  20.814  13.456
76629W        W49697  28.124  43.436   1.825
76630W        W49698   7.428  28.519   1.330
76631W        W49699  15.904  31.736   4.162
76632W        W49700  12.753   2.293   0.461
76633W        W49701  23.280  38.084   4.113
76634W        W49702   5.255  43.905  11.883
76635W        W49703   7.471  10.171  12.614
76636W        W49704  39.475   9.472  13.458
76637W        W49705  28.077  30.978  14.979
76638W        W49706  37.422   5.636   1.973
76639W        W49707   9.883  34.879  14.293
76640W        W49708  15.155  28.667   0.856
76641W        W49709  32.871  19.930  11.054
76642W        W49710   3.336  12.137  10.512
76643W        W49711   3.884  38.772   4.671
76644W        W49712  36.667  29.748   1.791
76645W        W49713  29.792  35.938   1.938
76646W        W49714  41.244  15.363  13.480
76647W        W49715  35.567  12.757   4.091
76648W        W49716  35.618  36.084   2.450
76649W        W49717  20.333   3.824   0.858
76650W        W49718  27.981  30.771  12.845
76651W        W49719  34.501  37.832   2.797
76652W        W49720  31.531  15.775  12.088
76653W        W49721  31.136  44.467   4.599
76654W        W49722   2.878  12.175   3.292
76655W        W49723  35.860  28.699   0.948
76656W        W49724   7.438  31.440  14.791
76657W        W49725   9.077  44.428   2.609
76658W        W49726  18.986  17.586  12.949
76659W        W49727  34.557   4.671   3.321
76660W        W49728   8.167  28.086   1.049
76661W        W49729  30.123   8.245  10.927
76662W        W49730  20.702  16.129   0.620
76663W        W49731  15.158  43.351  12.866
76664W        W49732  27.998  25.340  10.058
76665W        W49733  37.954   2.392   4.242
76666W        W49734  11.625  28.315  12.612
76667W        W49735  21.624   4.432  10.647
76668W        W49736  20.191  23.227   3.751
76669W        W49737  31.909  40.269  13.568
76670W        W49738  25.261  33.101  11.560
76671W        W49739   3.816  35.918  14.300
76672W        W49740  36.779  25.169   0.199
76673W        W49741  26.118  29.112   2.761
76674W        W49742  43.282  41.742  13.555
76675W        W49743  24.657  28.536   2.733
76676W        W49744  17.045  32.423  12.537
76677W        W49745   7.202  42.372   0.441
76678W        W49746  23.224   4.444  10.547
76679W        W49747  39.094  37.891   3.906
76680W        W49748   5.747  23.629   1.229
76681W        W49749  10.332   4.471   3.175
76682W        W49750  21.691  34.474   3.124
76683W        W49751  31.032  13.855   1.003
76684W        W49752  10.085  11.089   0.590
76685W        W49753   2.440   6.434  14.485
76686W        W49754  29.562  35.830  11.211
76687W        W49755   1.670  16.479  14.501
76688W        W49756  42.090  14.771   4.505
76689W        W49757  20.163  35.794  11.463
76690W        W49758  40.832  27.167  13.918
76691W        W49759   7.194  33.238   0.542
76692W        W49760  10.392  20.689  12.540
76693W        W49761  19.327   5.548  11.069
76694W        W49762  40.288  19.366   3.693
76695W        W49763  42.521  39.327   3.146
76696W        W49764  22.551  26.098  13.399
76697W        W49765  11.827  12.118   0.388
76698W        W49766  11.161  19.827   4.161
76699W        W49767   5.626   9.175   0.930
76700W        W49768  13.815  29.363   2.731
76701W        W49769  11.783  10.747  10.633
76702W        W49770   4.913   6.231   4.111
76703W        W49771  36.008  19.741  10.721
76704W        W49772   4.020   0.324   3.129
76705W        W49773  20.477  32.735   4.571
76706W        W49774  28.067  44.428   0.292
76707W        W49775   2.959  21.105   2.775
76708W        W49776  28.077  42.503   4.612
76709W        W49777   4.898  38.444  11.896
76710W        W49778   2.803   3.735  13.827
76711W        W49779  21.356   5.145  13.755
76712W        W49780  43.456  30.672  14.396
76713W        W49781   7.239  15.252  11.801
76714W        W49782   8.866  21.968   3.844
76715W        W49783   7.860   3.311  11.729
76716W        W49784  17.269  42.980  12.164
76717W        W49785  43.938  11.259  13.093
76718W        W49786  20.198  23.554   0.691
76719W        W49787  30.699   9.678   2.180
76720W        W49788   6.479  15.001  10.639
76721W        W49789   3.183  19.569   4.609
76722W        W49790  43.961  27.521   4.562
76723W        W49791  14.426  15.344  13.410
76724W        W49792  37.523   8.922   3.006
76725W        W49793  16.627  15.148   1.647
76726W        W49794  11.144  10.357   1.901
76727W        W49795   7.984  35.777  13.217
76728W        W49796  36.399   6.746   0.498
76729W        W49797  12.210  33.819  10.839
76730W        W49798  44.559  38.863  10.639
76731W        W49799  39.980  20.097   3.498
76732W        W49800  34.089  41.622   3.192
76733W        W49801  28.937  24.212   0.797
76734W        W49802  10.893   0.833  12.528
76735W        W49803  24.795  38.799  14.326
76736W        W49804   4.264   9.268   1.490
76737W        W49805  19.832  21.243  13.062
76738W        W49806   9.282  16.759   1.485
76739W        W49807  21.698  20.633   0.168
76740W        W49808  35.339   3.709   0.545
76741W        W49809  24.213  39.344   1.812
76742W        W49810  41.515  10.633  11.711
76743W        W49811  17.648   0.986   2.587
76744W        W49812   2.565  13.859  11.168
76745W        W49813   5.154  13.338   0.768
76746W        W49814  32.078  12.552   1.461
76747W        W49815  27.518   3.005   2.204
76748W        W49816  37.856   8.201   5.027
76749W        W49817  17.585   1.846   4.837
76750W        W49818  21.613  36.383   0.490
76751W        W49819  20.648   0.891   3.640
76752W        W49820  39.297  21.643   0.305
76753W        W49821  14.337  39.093   2.467
76754W        W49822  16.061  13.797  13.980
76755W        W49823  31.665  15.171  14.252
76756W        W49824  20.093  26.894   1.402
76757W        W49825  28.109  42.430   2.817
76758W        W49826   3.834  14.791   4.197
76759W        W49827  15.522  35.088   2.486
76760W        W49828  27.914  42.026   0.248
76761W        W49829  38.617  44.962   3.122
76762W        W49830  16.487  18.287   4.170
76763W        W49831  11.476  40.299  14.833
76764W        W49832   2.680  39.464  13.920
76765W        W49833   4.123   5.240  11.069
76766W        W49834  33.546  29.916   3.595
76767W        W49835  15.145  32.637   0.453
76768W        W49836  38.648  26.050   1.141
76769W        W49837  14.129  37.551  12.888
76770W        W49838  36.698  29.465   4.267
76771W        W49839  41.852  40.525   2.366
76772W        W49840  38.478  38.895   4.444
76773W        W49841  34.405   6.813  13.790
76774W        W49842  16.792   9.643  11.347
76775W        W49843  35.567   8.451   2.840
76776W        W49844   7.233  38.386  14.311
76777W        W49845  21.146  11.266   4.162
76778W        W49846  17.819   2.940  14.907
76779W        W49847  14.624  30.918  12.187
76780W        W49848  10.629   0.971   2.878
76781W        W49849  43.321  18.223  14.947
76782W        W49850  38.447  42.134   4.151
76783W        W49851  22.644   0.475  10.726
76784W        W49852  39.302   7.257  13.884
76785W        W49853  24.452   1.265  13.339
76786W        W49854   6.198  22.680   1.287
76787W        W49855  22.666   8.847  14.610
76788W        W49856  19.531   8.881   3.245
76789W        W49857  16.577  39.866   3.707
76790W        W49858  26.642  39.587  12.014
76791W        W49859  14.954   6.655   1.683
76792W        W49860   7.154  44.981  12.371
76793W        W49861  38.969  38.680   2.738
76794W        W49862  35.694  17.107  11.569
76795W        W49863  24.664  27.195   1.319
76796W        W49864   0.346   6.758  11.150
76797W        W49865   5.375  39.502   2.661
76798W        W49866  36.090  11.490  11.070
76799W        W49867   1.750   3.475  13.224
76800W        W49868  18.991  31.536  11.197
76801W        W49869  26.979  11.904   3.276
76802W        W49870  12.857  34.464  12.990
76803W        W49871  24.963  19.645  13.401
76804W        W49872  37.821  20.047  13.935
76805W        W49873  16.796  10.190  10.642
76806W        W49874  25.873  23.292   0.700
76807W        W49875  12.546  30.921   2.929
76808W        W49876  44.790  41.706  13.318
76809W        W49877   0.952  12.246   3.861
76810W        W49878   1.883  31.119  12.009
76811W        W49879  13.774  23.668  12.511
76812W        W49880  11.848  25.015  11.017
76813W        W49881  44.504  34.002  12.921
76814W        W49882  30.371  13.789   4.544
76815W        W49883  36.375  11.389  11.613
76816W        W49884   1.905   6.901   4.598
76817W        W49885  11.269  29.640  13.931
76818W        W49886  43.910  41.127  11.717
76819W        W49887   1.162  15.638   2.676
76820W        W49888   4.997  25.377  13.979
76821W        W49889  35.376   6.140  13.868
76822W        W49890  16.723  30.402  14.411
76823W        W49891  25.446  36.232  10.871
76824W        W49892  11.634  32.830  14.202
76825W        W49893  36.352  35.402   2.522
76826W        W49894  44.355  10.607   0.069
76827W        W49895  40.564  31.901  13.072
76828W        W49896  12.236  25.251  12.851
76829W        W49897  16.263  35.328  14.613
76830W        W49898  22.934  31.606  12.582
76831W        W49899  42.748  16.628  14.548
76832W        W49900  29.129  31.652   3.759
76833W        W49901  21.219  29.929   3.657
76834W        W49902  10.217  10.687  12.266
76835W        W49903  15.258  40.321   0.444
76836W        W49904   0.313  44.740  11.476
76837W        W49905  30.548  10.970  12.661
76838W        W49906  27.494   0.088   0.009
76839W        W49907  36.290  13.355   4.206
76840W        W49908  31.351   1.818  12.248
76841W        W49909  26.528  27.512   0.761
76842W        W49910  29.921  24.204  11.212
76843W        W49911  36.289  18.503  12.884
76844W        W49912   9.484  40.531   0.708
76845W        W49913   2.916  11.586  12.102
76846W        W49914  38.365   0.380   4.573
76847W        W49915  17.647   2.919   2.304
76848W        W49916  19.111  33.425   4.562
76849W        W49917   2.240  34.518   0.110
76850W        W49918  17.551  43.373  12.564
76851W        W49919  33.457  43.865   0.777
76852W        W49920  41.870  30.155  13.325
76853W        W49921  19.039  16.634  13.149
76854W        W49922  19.775  40.839  13.010
76855W        W49923  37.906  32.370   3.211
76856W        W49924  25.542  37.889   3.161
76857W        W49925  36.121  15.208  11.107
76858W        W49926  35.312   8.333  13.841
76859W        W49927   5.475  29.504   3.288
76860W        W49928  37.054  11.333   0.237
76861W        W49929  22.725  28.670  12.414
76862W        W49930   7.216   7.109  12.600
76863W        W49931  19.847   3.848   0.748
76864W        W49932  39.277  15.667  11.452
76865W        W49933  39.321  14.410   1.309
76866W        W49934  35.535   5.001  14.880
76867W        W49935  39.886  34.674   4.131
76868W        W49936  10.778  24.252   4.718
76869W        W49937  22.792  39.271   3.262
76870W        W49938  38.909  44.881   2.683
76871W        W49939  33.176  12.336   3.070
76872W        W49940  41.318   0.341   3.253
76873W        W49941   6.683  21.847  11.010
76874W        W49942  23.039  21.777   3.118
76875W        W49943  39.093  38.050   3.423
76876W        W49944  19.015   3.385  11.975
76877W        W49945  35.043  30.599  11.988
76878W        W49946   1.242   1.171  12.988
76879W        W49947  21.160   1.601  10.198
76880W        W49948  29.458   7.197  13.979
76881W        W49949  26.301  31.957  13.591
76882W        W49950  19.610  44.955  12.474
76883W        W49951  40.644  35.063   0.402
76884W        W49952  10.316  10.134   4.137
76885W        W49953  26.499   3.521   2.259
76886W        W49954  21.550  29.822   0.875
76887W        W49955  12.444  20.102   2.804
76888W        W49956  15.447  39.080   0.852
76889W        W49957  28.128  42.774   4.094
76890W        W49958  40.250  16.373   0.367
76891W        W49959  22.457   2.320  13.440
76892W        W49960  28.227  44.371  12.967
76893W        W49961  31.923  21.206   4.561
76894W        W49962  39.020  10.134  11.041
76895W        W49963  17.239  30.306   0.089
76896W        W49964  11.188   7.656  12.561
76897W        W49965  28.439  27.599  11.081
76898W        W49966   1.139  31.107   1.177
76899W        W49967  24.065  30.147   4.417
76900W        W49968   6.859  37.073   2.321
76901W        W49969  33.522   3.701   2.329
76902W        W49970  15.803  10.675  14.421
76903W        W49971  21.520   9.656  11.738
76904W        W49972  22.739   4.779  12.062
76905W        W49973  12.251   9.965  13.634
76906W        W49974  41.061  42.841   0.052
76907W        W49975  18.811  44.889  14.083
76908W        W49976   9.845  34.577  11.001
76909W        W49977  12.120  39.198  13.975
76910W        W49978  16.363  32.117  14.248
76911W        W49979  36.434  42.752  13.389
76912W        W49980  38.390  38.068  14.414
76913W        W49981  23.213  23.616   3.347
76914W        W49982  24.442  17.880   0.651
76915W        W49983   3.500  15.749  14.905
76916W        W49984   3.398  38.726   2.636
76917W        W49985   3.005   3.998   4.438
76918W        W49986   0.805  44.651   0.482
76919W        W49987  31.951  36.357  14.559
76920W        W49988  28.981  43.452   4.042
76921W        W49989  35.122  43.565  14.368
76922W        W49990   0.347  16.328   1.301
76923W        W49991  11.910  22.198  12.455
76924W        W49992   6.934  27.137   4.372
76925W        W49993   4.221  44.711  12.433
76926W        W49994  43.704  20.630  13.275
76927W        W49995  37.650  25.499  13.974
76928W        W49996  13.146  28.695   3.732
76929W        W49997  28.412  26.491   3.261
76930W        W49998  30.165  18.593  13.251
76931W        W49999   1.541  43.396  13.885
76932W        W50000   4.485  29.427   3.143
76933W        W50001  42.265  30.469  13.608
76934W        W50002   7.424  10.249  14.047
76935W        W50003  17.189  18.363   4.634
76936W        W50004  14.244  26.690  11.714
76937W        W50005  13.678  42.348  14.579
76938W        W50006  36.419   6.676   4.129
76939W        W50007   6.496  31.638   4.144
76940W        W50008  33.375  29.586  14.070
76941W        W50009  43.270   0.832  11.736
76942W        W50010   6.222  25.521  11.388
76943W        W50011  15.566  32.538  10.784
76944W        W50012  40.742   3.347  12.827
76945W        W50013  15.093  23.633  12.005
76946W        W50014  37.809  23.963   4.168
76947W        W50015  10.459  19.050   0.557
76948W        W50016  13.814  24.996  14.936
76949W        W50017  16.549   7.669  13.515
76950W        W50018   2.768  21.600  10.618
76951W        W50019   2.538  25.649  11.538
76952W        W50020  26.195  31.649   4.639
76953W        W50021  40.571  18.744   0.417
76954W        W50022  21.911  35.598   3.674
76955W        W50023  25.030  19.533   2.305
76956W        W50024  35.575  19.358   0.455
76957W        W50025  37.589  33.207   0.122
76958W        W50026  18.376   7.373  12.978
76959W        W50027  34.040  17.825   0.396
76960W        W50028  33.606  37.571   1.244
76961W        W50029  29.809   8.242  12.401
76962W        W50030   7.939  37.123   4.799
76963W        W50031   2.828  38.581  14.345
76964W        W50032  36.237  32.182  11.545
76965W        W50033  26.819   2.616  11.943
76966W        W50034   1.684  40.714  11.505
76967W        W50035   4.190  39.572   4.489
76968W        W50036  44.337  36.504   3.274
76969W        W50037  35.066  15.718  10.645
76970W        W50038  44.572  32.821   0.753
76971W        W50039  10.831  15.623   4.063
76972W        W50040  18.728   4.853   1.309
76973W        W50041  40.791   8.299   1.796
76974W        W50042  31.850   2.732   1.847
76975W        W50043  22.047  28.284   0.476
76976W        W50044   6.102  27.058  10.738
76977W        W50045  37.335  35.632   0.364
76978W        W50046  33.073   1.528   0.306
76979W        W50047  21.015  43.600  14.388
76980W        W50048  14.996  23.658   3.040
76981W        W50049  23.098  36.823   1.594
76982W        W50050  32.650  33.111   3.186
76983W        W50051  11.268   1.828   1.840
76984W        W50052  23.562   4.250   1.609
76985W        W50053  29.496  13.833   2.134
76986W        W50054  22.248  38.908  12.001
76987W        W50055  42.843  44.333  11.940
76988W        W50056  42.885  21.648   3.578
76989W        W50057  12.250  27.940   3.365
76990W        W50058  42.315   7.480  14.483
76991W        W50059  14.021  36.148  12.075
76992W        W50060  20.647  43.236  11.195
76993W        W50061  32.950  28.485  11.685
76994W        W50062  32.387  34.813  11.133
76995W        W50063  28.728  41.535   0.414
76996W        W50064   0.745  15.214   3.796
76997W        W50065  23.320  44.840   1.867
76998W        W50066  38.484   2.295   1.191
76999W        W50067  17.429  39.557  13.385
77000W        W50068  36.464  23.503   0.754
77001W        W50069  16.718  19.304  13.429
77002W        W50070  20.693   7.970   1.197
77003W        W50071  27.364  21.708   0.429
77004W        W50072  26.436  44.373  11.457
77005W        W50073  23.257  41.968  11.105
77006W        W50074  20.131  35.928   1.339
77007W        W50075  32.684   7.737   4.595
77008W        W50076   6.843  37.749  14.630
77009W        W50077  21.657  30.484   2.932
77010W        W50078  25.706   8.288  13.787
77011W        W50079  15.522  30.178  13.579
77012W        W50080  20.096  28.943   0.693
77013W        W50081  37.385  19.065  10.676
77014W        W50082  33.628  20.530  14.589
77015W        W50083  40.563   9.434  14.707
77016W        W50084  24.218  34.460   0.111
77017W        W50085  13.591  34.169  14.402
77018W        W50086   9.656   3.595   2.445
77019W        W50087  31.014  44.913   3.407
77020W        W50088  25.088   9.133   4.824
77021W        W50089  22.147  31.055  14.738
77022W        W50090  37.234  37.518  12.045
77023W        W50091  16.038  33.916  11.599
77024W        W50092  17.210  27.414  11.187
77025W        W50093  14.822  42.536   1.771
77026W        W50094  35.865  27.262   0.892
77027W        W50095   3.682  23.622   4.691
77028W        W50096  29.494  30.646   2.744
77029W        W50097   4.944  12.200  11.592
77030W        W50098   1.697  27.151   0.417
77031W        W50099  25.072  11.041   1.687
77032W        W50100  17.815   9.312  14.176
77033W        W50101  18.076  23.233  14.975
77034W        W50102  33.554  24.900  14.280
77035W        W50103   5.251  40.046   3.676
77036W        W50104  42.263  23.560  11.105
77037W        W50105  27.439  31.443   3.658
77038W        W50106   1.963  33.169  11.518
77039W        W50107   8.134  23.975   2.311
77040W        W50108   6.586  32.634   3.373
77041W        W50109  38.087  44.811   0.961
77042W        W50110  44.977   3.919   0.991
77043W        W50111  30.172  13.176  12.353
77044W        W50112  14.555   0.749  10.805
77045W        W50113  27.115  40.984   4.154
77046W        W50114  35.255  27.513   4.646
77047W        W50115  41.410  25.499   4.829
77048W        W50116  25.269  10.843  13.005
77049W        W50117  28.011   4.516   5.164
77050W        W50118  43.415  36.824   4.224
77051W        W50119   3.004  25.613   3.311
77052W        W50120   1.748  26.159   3.335
77053W        W50121  41.364  20.609   4.472
77054W        W50122  32.152  12.171   0.227
77055W        W50123  24.043  41.396   3.128
77056W        W50124  15.273  19.077   0.358
77057W        W50125  19.574  43.803   3.831
77058W        W50126  21.221  34.835  11.935
77059W        W50127  15.669  16.967   3.404
77060W        W50128   3.458  11.406  11.195
77061W        W50129  32.190  43.215   3.347
77062W        W50130  21.585  11.855  14.803
77063W        W50131  30.746  26.975   0.525
77064W        W50132  21.181  27.696  11.557
77065W        W50133  14.543   8.247  12.174
77066W        W50134  28.168  11.222   4.231
77067W        W50135  24.664  38.384   4.050
77068W        W50136  10.657   6.521   2.742
77069W        W50137  26.486  44.977  10.741
77070W        W50138  44.922  33.482   4.290
77071W        W50139  33.326   5.958   1.899
77072W        W50140   9.322   1.809  13.943
77073W        W50141  12.361  19.056   3.583
77074W        W50142  24.039  17.659   1.943
77075W        W50143  39.624  12.688   4.088
77076W        W50144  12.762  34.254  12.534
77077W        W50145   1.473  15.675   3.653
77078W        W50146  25.362  39.141  12.862
77079W        W50147  22.742  26.545  10.701
77080W        W50148  40.868   5.355   2.249
77081W        W50149  19.978  44.160   3.955
77082W        W50150  43.807  18.013  10.703
77083W        W50151   5.526  18.660  11.398
77084W        W50152  40.873  24.292   2.349
77085W        W50153  20.756   1.958   2.731
77086W        W50154  37.435  27.240   2.749
77087W        W50155  21.860   8.949   0.821
77088W        W50156  16.543  25.490   1.453
77089W        W50157  44.659  19.616  13.220
77090W        W50158  12.843  22.033  14.799
77091W        W50159   7.264  20.212  14.101
77092W        W50160  20.616  29.583   1.938
77093W        W50161   1.370   1.665  13.007
77094W        W50162  27.489  20.160   2.651
77095W        W50163  10.233  31.807  13.070
77096W        W50164   7.580  44.293  12.511
77097W        W50165  44.829  13.370  12.426
77098W        W50166  35.939   3.295  12.003
77099W        W50167  12.776  31.949  14.951
77100W        W50168  39.842  39.303  14.071
77101W        W50169  28.685  17.056   2.231
77102W        W50170  25.620  23.675   2.658
77103W        W50171  34.004  31.595  14.748
77104W        W50172   5.844   7.671  12.385
77105W        W50173  17.161  42.937   4.584
77106W        W50174  32.566  19.169  14.458
77107W        W50175  35.963   0.714  13.414
77108W        W50176  10.643  19.343   3.854
77109W        W50177  14.676  41.392   4.690
77110W        W50178  40.926   0.713   1.757
77111W        W50179  37.914  44.840   2.902
77112W        W50180  41.306  15.237   0.399
77113W        W50181  43.594  42.893   2.638
77114W        W50182  36.946  28.573  14.639
77115W        W50183  33.836  24.535   3.943
77116W        W50184   5.285  41.973  10.583
77117W        W50185  30.491  13.469   4.137
77118W        W50186  41.282   5.496   1.931
77119W        W50187  34.191  28.616  13.984
77120W        W50188  18.284  21.319  11.564
77121W        W50189   7.678   9.401   4.205
77122W        W50190   9.852  26.260  14.469
77123W        W50191  10.558  40.532   1.525
77124W        W50192  35.540  36.646  13.524
77125W        W50193  34.713  20.263  11.839
77126W        W50194  33.479  23.330  13.417
77127W        W50195  12.640  34.594  14.895
77128W        W50196  10.674  18.865  12.625
77129W        W50197  42.048  10.505  11.807
77130W        W50198  38.805   3.478   1.412
77131W        W50199  43.905  21.459  10.606
77132W        W50200  30.413   0.321  13.660
77133W        W50201  43.304  35.099   0.809
77134W        W50202  34.352  26.202  12.079
77135W        W50203  40.914  21.510   3.404
77136W        W50204   9.788  43.323   2.819
77137W        W50205  11.640  26.041  14.509
77138W        W50206  35.885  28.722  12.420
77139W        W50207   2.835  28.440  14.048
77140W        W50208  38.315  24.906   4.995
77141W        W50209  37.482  44.424  13.070
77142W        W50210  35.932  28.615  13.733
77143W        W50211   7.963   8.965   1.945
77144W        W50212  19.451  39.811  11.986
77145W        W50213  14.278  25.082   3.724
77146W        W50214   5.542  20.628   4.023
77147W        W50215  10.787  30.089  13.126
77148W        W50216  44.732  28.057   4.174
77149W        W50217  25.020  20.172   4.658
77150W        W50218  14.383   8.647  11.154
77151W        W50219   2.224  33.433   0.298
77152W        W50220   3.991  13.133   3.715
77153W        W50221  20.599   3.232  11.516
77154W        W50222  12.799   4.476   2.330
77155W        W50223   6.891   6.208   0.725
77156W        W50224  32.479  38.613   4.151
77157W        W50225   7.311  26.914  13.477
77158W        W50226  24.607  33.332   4.188
77159W        W50227  13.554  27.559   3.237
77160W        W50228  26.382  22.835   2.301
77161W        W50229   9.757  32.475   0.457
77162W        W50230   2.906   1.460  11.446
77163W        W50231  31.950  37.692   2.200
77164W        W50232  27.081  14.735   2.801
77165W        W50233  19.049  17.627   1.407
77166W        W50234   9.149  31.875  13.805
77167W        W50235  31.467  15.538  10.935
77168W        W50236  17.338  25.562  11.958
77169W        W50237  28.693  11.156  14.471
77170W        W50238  18.054  44.253  11.642
77171W        W50239  18.659   6.363  10.660
77172W        W50240  12.755  31.063  14.813
77173W        W50241   4.902   3.357  12.978
77174W        W50242   1.531  19.966   4.080
77175W        W50243  41.122  32.358   5.219
77176W        W50244   7.724  17.762  13.811
77177W        W50245  11.459  10.874   4.422
77178W        W50246  28.926  20.796  13.884
77179W        W50247  10.652  34.390   4.171
77180W        W50248  31.918  28.646  13.999
77181W        W50249  33.714  40.049  12.363
77182W        W50250  26.197   1.860   1.524
77183W        W50251  38.097  36.996  14.802
77184W        W50252   4.862  31.444  11.979
77185W        W50253  42.474  14.001   5.049
77186W        W50254  18.307  18.201  13.547
77187W        W50255  26.659  17.203   3.587
77188W        W50256  24.365  26.527  12.416
77189W        W50257  18.611  35.279  12.386
77190W        W50258  21.722   6.507  11.709
77191W        W50259  15.621  19.772  14.004
77192W        W50260  19.184  34.804   0.479
77193W        W50261   1.589   8.467  12.622
77194W        W50262  33.951   0.497   1.807
77195W        W50263  34.434  36.330  10.732
77196W        W50264  31.594  22.223   3.291
77197W        W50265   3.191  32.169   3.801
77198W        W50266  15.576  30.696  13.633
77199W        W50267  30.098  26.941  11.110
77200W        W50268  17.779  43.823  12.353
77201W        W50269  31.630   0.460   0.136
77202W        W50270  15.391  36.862  14.898
77203W        W50271  34.142   5.489  10.882
77204W        W50272   9.725  21.737  14.773
77205W        W50273  27.988  35.906  14.440
77206W        W50274  31.545  37.476  14.417
77207W        W50275  23.394  39.337  13.866
77208W        W50276   9.821   1.585   4.618
77209W        W50277  38.509  16.885   4.171
77210W        W50278  16.061  21.408  14.959
77211W        W50279  22.989  19.675  11.516
77212W        W50280   9.340  16.215  11.770
77213W        W50281   6.724  39.759  13.073
77214W        W50282  24.723   1.171   3.526
77215W        W50283   5.796   5.326  14.291
77216W        W50284  34.604  42.009   0.982
77217W        W50285  23.164   3.562   4.997
77218W        W50286   0.492  15.617   4.001
77219W        W50287  22.690   0.946  10.489
77220W        W50288  25.449  18.413  13.961
77221W        W50289   3.438  43.466   3.131
77222W        W50290  43.578   9.920   3.861
77223W        W50291   6.468  29.943  13.483
77224W        W50292  31.981  42.870   0.880
77225W        W50293  26.158  17.865   1.581
77226W        W50294  42.782   1.717  13.791
77227W        W50295  40.061  37.334  13.592
77228W        W50296   2.519   1.920  13.317
77229W        W50297  11.730   7.687   3.855
77230W        W50298  41.382  28.603   4.514
77231W        W50299  27.102  10.774   2.723
77232W        W50300  42.965  14.378  14.468
77233W        W50301  43.202  38.060   4.737
77234W        W50302  28.693  41.487   3.423
77235W        W50303  35.283  10.392   2.798
77236W        W50304  44.870  12.837  11.539
77237W        W50305  27.111  44.559   0.367
77238W        W50306   0.271  43.545  12.626
77239W        W50307  35.421  29.600  12.882
77240W        W50308  22.519   3.761  12.462
77241W        W50309  23.076  22.619   4.273
77242W        W50310   6.203  42.864  14.510
77243W        W50311  31.091  44.062   5.115
77244W        W50312   8.060  22.572  12.479
77245W        W50313  42.964   4.184  13.965
77246W        W50314  10.331  13.337  12.710
77247W        W50315  24.482  43.484  14.431
77248W        W50316  44.991  14.376  10.812
77249W        W50317   4.462  29.928   0.146
77250W        W50318   1.194   4.358  11.671
77251W        W50319  22.740  10.863  13.860
77252W        W50320  16.200  43.846   3.705
77253W        W50321  35.312  35.321   4.289
77254W        W50322   2.702   5.701  11.045
77255W        W50323   1.096   1.093   5.009
77256W        W50324   2.128  30.676  11.844
77257W        W50325  33.165   5.054   2.268
77258W        W50326  28.215  15.358   3.752
77259W        W50327  28.494  21.132   4.178
77260W        W50328  44.328  41.526   0.640
77261W        W50329  10.808  10.883  11.038
77262W        W50330  27.673  14.707   4.598
77263W        W50331   7.473  10.742   3.215
77264W        W50332  17.314  21.367   1.838
77265W        W50333  26.099  17.146  11.996
77266W        W50334  42.299   5.087   2.657
77267W        W50335   6.352  39.299   1.502
77268W        W50336   6.423  37.531  12.925
77269W        W50337   3.382  12.865   4.264
77270W        W50338  29.471  21.246   4.105
77271W        W50339  23.498  42.413  13.904
77272W        W50340  18.639   4.434  11.380
77273W        W50341  16.305  33.611  11.140
77274W        W50342  43.665  31.656   3.587
77275W        W50343  42.366  17.637  10.626
77276W        W50344  43.271   3.735   3.588
77277W        W50345   1.200   1.239   1.190
77278W        W50346   3.026  13.895   2.806
77279W        W50347  37.068  23.676  10.583
77280W        W50348  14.848  12.241  13.036
77281W        W50349   6.308  36.463  10.666
77282W        W50350  36.705  36.685  14.943
77283W        W50351  26.030  11.605  10.586
77284W        W50352   7.008  26.536   0.309
77285W        W50353   6.312   8.618  14.908
77286W        W50354  30.652  38.980   4.948
77287W        W50355  26.188   8.309   0.472
77288W        W50356   8.455  40.485   0.572
77289W        W50357   3.320  13.668   4.624
77290W        W50358  40.561  22.338  12.400
77291W        W50359  40.977  13.553  14.405
77292W        W50360  44.971  44.510   2.674
77293W        W50361  38.111  43.918  14.957
77294W        W50362  13.329   2.351   1.133
77295W        W50363  38.873  42.227  10.720
77296W        W50364  17.439  12.277  14.209
77297W        W50365  26.144  14.305   1.310
77298W        W50366  37.973  36.537   3.256
77299W        W50367   2.260  26.160   4.698
77300W        W50368  41.817  24.364   3.810
77301W        W50369  13.752  33.359   0.058
77302W        W50370  41.828  16.111  12.049
77303W        W50371   3.740   8.380   4.160
77304W        W50372  36.319  19.778  13.399
77305W        W50373  31.655  33.776  13.821
77306W        W50374  31.032  25.711   1.170
77307W        W50375  36.995   7.133  10.468
77308W        W50376   5.260  20.200   1.124
77309W        W50377  23.249  21.049  12.871
77310W        W50378  30.405  38.962  10.643
77311W        W50379  36.844  35.415   0.392
77312W        W50380   3.843  13.846   4.337
77313W        W50381  40.362  42.053  11.616
77314W        W50382   7.442   6.306  11.455
77315W        W50383   9.271   5.897  11.725
77316W        W50384  28.057  25.216  13.397
77317W        W50385  19.356   8.440  11.052
77318W        W50386   8.263  38.851   2.229
77319W        W50387  38.127  17.072  11.998
77320W        W50388  31.131  36.632  14.400
77321W        W50389  33.303  44.792   0.973
77322W        W50390   2.199   5.795   4.263
77323W        W50391   0.014  44.348  14.962
77324W        W50392  23.085  14.009   0.886
77325W        W50393  18.127   3.499  11.521
77326W        W50394   1.876  36.788   0.185
77327W        W50395  21.272  41.663   1.453
77328W        W50396   2.906  31.490   2.207
77329W        W50397  34.006  35.478  12.288
77330W        W50398  26.125  23.636   1.520
77331W        W50399  31.176   5.896  12.373
77332W        W50400  16.002  34.983  14.310
77333W        W50401   8.319  41.576  13.093
77334W        W50402  16.399  14.340  11.161
77335W        W50403  42.787  20.723  10.287
77336W        W50404   8.232  14.838   0.802
77337W        W50405   4.568  34.433   2.120
77338W        W50406  27.969  19.157   3.717
77339W        W50407  13.102  21.037   3.615
77340W        W50408  18.509  17.613  14.788
77341W        W50409   0.410  31.994  10.904
77342W        W50410  43.845  43.990  14.763
77343W        W50411   0.884  36.070   4.655
77344W        W50412  33.442   1.351   5.261
77345W        W50413  18.750  33.343   3.330
77346W        W50414   4.895  27.650  11.252
77347W        W50415  25.240  40.636  11.005
77348W        W50416  15.730  40.634  11.381
77349W        W50417  23.368  13.752   3.823
77350W        W50418   2.512  36.085  14.795
77351W        W50419  28.155  44.376   2.190
77352W        W50420  17.714   6.904   3.065
77353W        W50421  17.770  15.644  14.792
77354W        W50422  31.810  11.729   0.956
77355W        W50423  33.866  15.216  10.641
77356W        W50424  31.517  36.068   1.090
77357W        W50425  34.200  44.098  14.284
77358W        W50426   2.797  30.258  12.720
77359W        W50427  14.563  35.866  13.914
77360W        W50428  24.725  31.634  10.618
77361W        W50429   8.955  36.213   1.403
77362W        W50430  32.112  21.559   0.473
77363W        W50431  23.097  36.428  14.589
77364W        W50432  21.606  12.521   2.939
77365W        W50433  30.008  26.465   4.783
77366W        W50434  44.339   9.383  11.514
77367W        W50435   4.781   7.912   4.176
77368W        W50436  38.021   0.566   2.161
77369W        W50437  21.974  27.589   2.420
77370W        W50438   7.620  21.971   2.718
77371W        W50439  42.147  37.229   3.136
77372W        W50440  22.690  15.035   2.748
77373W        W50441  35.113  11.653   3.708
77374W        W50442  43.292  41.902  12.579
77375W        W50443   1.088   7.549  14.859
77376W        W50444  26.131   1.798   4.422
77377W        W50445  43.770  22.854  11.613
77378W        W50446  19.520  36.097  14.742
77379W        W50447  24.033  32.444  12.510
77380W        W50448  29.374  30.104  13.312
77381W        W50449  28.642  15.687  12.515
77382W        W50450  27.117  21.886   0.859
77383W        W50451  24.827  32.362   4.125
77384W        W50452   1.117   5.568   3.053
77385W        W50453  31.477  36.522   2.168
77386W        W50454  24.135  14.563  11.998
77387W        W50455  14.041  39.721   1.779
77388W        W50456  25.501   2.958   1.414
77389W        W50457  38.515  41.494   3.125
77390W        W50458   6.702  38.153   3.713
77391W        W50459  33.646  29.930  11.960
77392W        W50460  39.866  26.729  14.332
77393W        W50461  34.485   6.708   3.887
77394W        W50462  30.543   6.174  14.028
77395W        W50463   1.291  18.274   4.710
77396W        W50464  14.231  17.755  11.643
77397W        W50465  25.788  41.378  13.964
77398W        W50466  15.762  13.392   1.835
77399W        W50467   3.372  39.134   5.082
77400W        W50468  40.968  44.801  11.464
77401W        W50469  22.636   5.964   4.191
77402W        W50470   8.024   3.818  14.130
77403W        W50471  41.984  32.092  10.738
77404W        W50472  20.995  13.843   1.783
77405W        W50473   2.573  41.915   4.130
77406W        W50474  29.140  19.763   2.370
77407W        W50475  24.321   9.024  12.787
77408W        W50476  29.902  20.737  10.572
77409W        W50477  41.840  40.263  10.394
77410W        W50478  36.058  29.181   2.776
77411W        W50479  42.845   5.743   3.796
77412W        W50480  11.508  38.281  12.472
77413W        W50481   9.502  42.038   5.234
77414W        W50482   9.760  19.393   2.046
77415W        W50483  19.220  27.961  10.732
77416W        W50484  43.083  18.669   3.084
77417W        W50485  37.407  18.708  13.856
77418W        W50486  32.700   4.297  11.133
77419W        W50487   3.760   7.347   2.010
77420W        W50488  41.058  35.495  11.507
77421W        W50489   7.653  32.670   4.191
77422W        W50490  16.302   7.105  12.031
77423W        W50491   5.884  28.396  10.658
77424W        W50492  32.402  11.896  12.481
77425W        W50493   1.896  37.227  11.768
77426W        W50494   8.354  32.730   3.661
77427W        W50495  25.998  40.171  12.300
77428W        W50496  43.923  40.062   0.309
77429W        W50497  21.573  44.407   1.416
77430W        W50498   2.442  29.930  12.488
77431W        W50499  17.370  27.947   2.809
77432W        W50500   7.870  35.610  10.676
77433W        W50501  39.834  23.613  11.230
77434W        W50502   8.148   6.148  14.937
77435W        W50503  28.127  37.462  13.383
77436W        W50504   0.733  33.455  11.198
77437W        W50505   5.239  35.095   1.291
77438W        W50506  20.949  14.001  14.893
77439W        W50507  36.587  19.706  14.460
77440W        W50508  37.557  14.031  12.932
77441W        W50509  18.746  44.719   2.162
77442W        W50510  24.172  11.463   1.852
77443W        W50511  38.004   2.230   0.938
77444W        W50512  39.778   0.804  14.825
77445W        W50513  11.879  37.302  11.609
77446W        W50514  10.197  27.022  11.517
77447W        W50515  35.511  39.487  13.905
77448W        W50516  42.390  22.042   4.199
77449W        W50517  16.584   7.824   3.962
77450W        W50518   3.026  40.054   0.444
77451W        W50519  19.844  27.850   0.517
77452W        W50520   5.521  35.562   0.360
77453W        W50521   2.893  10.772   3.108
77454W        W50522  24.107  39.350  11.860
77455W        W50523  25.127  21.907   3.590
77456W        W50524  33.034  17.994  13.965
77457W        W50525  40.070   8.726   5.010
77458W        W50526  41.212  23.236   1.218
77459W        W50527  18.091  23.670  13.392
77460W        W50528  42.743   2.864   4.876
77461W        W50529  20.204   6.408  10.374
77462W        W50530   4.485  42.045   1.355
77463W        W50531  43.619  37.113  13.588
77464W        W50532   4.217   1.895  13.917
77465W        W50533  15.749  28.998  14.630
77466W        W50534  19.760   5.663  10.698
77467W        W50535  28.595  35.944  13.092
77468W        W50536  44.489  30.629   4.168
77469W        W50537  22.427  12.824  13.484
77470W        W50538  12.270  39.405   3.865
77471W        W50539  22.204  37.395  14.138
77472W        W50540  30.117  35.854   1.235
77473W        W50541  37.467  42.245  14.901
77474W        W50542  28.605  39.863  14.069
77475W        W50543  27.483  33.407  13.928
77476W        W50544  17.587  29.507   1.354
77477W        W50545  14.789  11.788   1.176
77478W        W50546   7.313   0.177   3.259
77479W        W50547  38.687  38.481   2.324
77480W        W50548  15.238  12.065   0.301
77481W        W50549  10.651  20.709   4.154
77482W        W50550   7.695  27.195  13.189
77483W        W50551  13.771  30.110  11.746
77484W        W50552  37.450  36.658   3.302
77485W        W50553   0.676   8.938   1.833
77486W        W50554  43.438  18.829  10.484
77487W        W50555  38.029  10.977   4.413
77488W        W50556  42.508  43.366   0.698
77489W        W50557  20.044  41.292   2.422
77490W        W50558  23.091  25.654  11.058
77491W        W50559  12.438  10.190  11.080
77492W        W50560   8.843   0.513   2.895
77493W        W50561  11.593   3.036  11.204
77494W        W50562   8.859   2.855  12.386
77495W        W50563  18.738  26.587  10.835
77496W        W50564  20.073  34.919  14.780
77497W        W50565  37.300  22.244  12.776
77498W        W50566  11.229  34.126  11.627
77499W        W50567  44.492  38.422  14.241
77500W        W50568   4.816   2.988   0.567
77501W        W50569  25.613  24.932  13.515
77502W        W50570   9.874  28.998   2.886
77503W        W50571   1.331  21.258  14.208
77504W        W50572  41.492  36.126  12.544
77505W        W50573  30.027  28.473  12.112
77506W        W50574  12.557  23.709   3.218
77507W        W50575  30.574  16.349  10.517
77508W        W50576  31.121  11.772   4.640
77509W        W50577  16.222  18.083  10.781
77510W        W50578  32.582  16.869   2.756
77511W        W50579  18.344   8.357   0.718
77512W        W50580  36.637  40.269  14.413
77513W        W50581  14.059  16.867  12.507
77514W        W50582  32.875  39.939   1.439
77515W        W50583  41.114  16.080   3.620
77516W        W50584  24.569   7.073   4.016
77517W        W50585  40.883   8.217   2.713
77518W        W50586   5.936  36.101  10.707
77519W        W50587  37.261  10.436   1.248
77520W        W50588  14.255  15.333   4.898
77521W        W50589  43.623  12.517   2.286
77522W        W50590   9.770  30.315  13.387
77523W        W50591  37.239   3.377  10.142
77524W        W50592   9.196  24.583   3.343
77525W        W50593  12.339   7.668   2.764
77526W        W50594  20.052  21.159   0.883
77527W        W50595  33.122  34.996  14.796
77528W        W50596  13.778  34.554   1.421
77529W        W50597   6.721  15.613   1.696
77530W        W50598  32.130  21.765   3.704
77531W        W50599  22.572  34.398  11.101
77532W        W50600  44.780  36.896   4.942
77533W        W50601   3.703  27.867  13.969
77534W        W50602  29.547  19.626   2.073
77535W        W50603   9.344  44.714  10.695
77536W        W50604  43.796  27.019   4.706
77537W        W50605  19.761  40.160   4.638
77538W        W50606   5.324   9.946   3.658
77539W        W50607  38.163  37.165  10.738
77540W        W50608  16.700  20.781   0.737
77541W        W50609  12.568  35.932  12.602
77542W        W50610   1.243  32.554  12.817
77543W        W50611  19.142  28.117  13.569
77544W        W50612  21.776   6.735  14.038
77545W        W50613  34.340   8.131  12.970
77546W        W50614   1.344   4.941   3.640
77547W        W50615  30.989   6.544   2.680
77548W        W50616  27.042  25.208   1.352
77549W        W50617  42.584  15.897  11.597
77550W        W50618  37.388  40.254   1.362
77551W        W50619  14.254  21.306  13.116
77552W        W50620  10.461   8.178   2.300
77553W        W50621  11.156  43.583   1.843
77554W        W50622   8.789  40.053   5.032
77555W        W50623  18.992  24.246   3.227
77556W        W50624  31.535  11.404   4.664
77557W        W50625  34.941  23.795  11.150
77558W        W50626  11.625  11.353  10.687
77559W        W50627  21.151  25.405   5.008
77560W        W50628   9.984  32.615  12.955
77561W        W50629   1.681  31.090   1.200
77562W        W50630  37.806   9.261  11.190
77563W        W50631  18.521  20.675   0.451
77564W        W50632  16.098  23.825  10.554
77565W        W50633  37.162  18.063  11.929
77566W        W50634  17.644  42.327  12.476
77567W        W50635   3.711  20.691   1.776
77568W        W50636   1.577  15.221   3.414
77569W        W50637  28.501   3.417  10.465
77570W        W50638  29.681  32.657   4.218
77571W        W50639  27.642  26.681   4.590
77572W        W50640  19.723   3.878   4.551
77573W        W50641  34.666  18.743  14.836
77574W        W50642  14.339  42.963  11.476
77575W        W50643  16.547   4.688  14.469
77576W        W50644   5.329  19.816   1.447
77577W        W50645  11.063  18.656  12.912
77578W        W50646   6.431  42.404  10.361
77579W        W50647  23.650  15.624  14.987
77580W        W50648   0.176  35.706   0.917
77581W        W50649  39.262   6.666   2.998
77582W        W50650  12.307  18.168  12.060
77583W        W50651   4.975   3.149  14.839
77584W        W50652  15.310   3.343   3.289
77585W        W50653   9.327  31.148  13.351
77586W        W50654  21.724  35.574   2.220
77587W        W50655   1.867   8.155   0.218
77588W        W50656   8.415  40.476   4.622
77589W        W50657  29.614  20.078   1.803
77590W        W50658  35.902  28.890   2.360
77591W        W50659  12.674   5.396   3.747
77592W        W50660  18.988  25.124  10.537
77593W        W50661  24.708  33.566   0.435
77594W        W50662  32.941  14.196   3.102
77595W        W50663   0.378  11.372  10.510
77596W        W50664   7.327  10.869  11.062
77597W        W50665  14.689  30.671  12.853
77598W        W50666  38.173  41.153  12.897
77599W        W50667  43.899  42.580   3.697
77600W        W50668  35.584   4.455   2.752
77601W        W50669  41.829  13.763   3.765
77602W        W50670   4.479  19.453  12.474
77603W        W50671  20.697  15.347   4.238
77604W        W50672   4.907  12.674  14.320
77605W        W50673  26.443  23.754  14.839
77606W        W50674  21.168  25.926   4.749
77607W        W50675  28.863  44.907   2.741
77608W        W50676   5.315  27.526  12.573
77609W        W50677   6.466   2.368  11.839
77610W        W50678   5.892  30.620  14.788
77611W        W50679  21.812   1.505  12.367
77612W        W50680  36.698  17.944  12.092
77613W        W50681  19.880  23.474  11.201
77614W        W50682  19.415  10.177   4.516
77615W        W50683  41.359   2.479  11.692
77616W        W50684   6.584  37.430  14.330
77617W        W50685  28.574  16.172   4.236
77618W        W50686  23.320  41.432   3.633
77619W        W50687  42.292  44.408  11.178
77620W        W50688  14.728   9.954  12.529
77621W        W50689  21.812  26.790  10.543
77622W        W50690  10.818  15.652  12.966
77623W        W50691   6.540  43.771   1.868
77624W        W50692  24.686  44.345   0.377
77625W        W50693   6.834  13.292   1.414
77626W        W50694   9.186  32.241   1.286
77627W        W50695   7.890  29.118   3.105
77628W        W50696  32.443  31.692   1.141
77629W        W50697  38.121  14.239   3.907
77630W        W50698  16.812  27.013   4.622
77631W        W50699  30.037   9.924   1.466
77632W        W50700  38.469  13.699  11.107
77633W        W50701  30.243  39.225   3.437
77634W        W50702  15.691  16.566   5.030
77635W        W50703  23.085  44.827  10.594
77636W        W50704   4.754  41.975  10.569
77637W        W50705  23.141  21.647  13.622
77638W        W50706  18.962  27.090  14.575
77639W        W50707  43.469  36.375   4.558
77640W        W50708  34.789  17.071   3.021
77641W        W50709  22.594  16.494   3.367
77642W        W50710  24.505   5.428   1.231
77643W        W50711  30.645   7.463  11.252
77644W        W50712  36.942   1.162  12.929
77645W        W50713  37.430  37.323  13.807
77646W        W50714   6.436  29.710   3.189
77647W        W50715  28.647   2.342  13.391
77648W        W50716  14.868  43.462   1.688
77649W        W50717   9.506  29.233   1.875
77650W        W50718  13.570  15.160   1.240
77651W        W50719  38.834   3.227   2.769
77652W        W50720  44.022  11.862  13.867
77653W        W50721  36.244  22.667   5.093
77654W        W50722  18.753  38.373  13.394
77655W        W50723  40.349  22.287  13.883
77656W        W50724  32.523  12.489   0.358
77657W        W50725  27.154  23.632   5.213
77658W        W50726  40.169   7.800   4.658
77659W        W50727  39.410   1.760  13.421
77660W        W50728  15.147   2.850   4.102
77661W        W50729  20.735  39.051   3.759
77662W        W50730  16.824  21.181   4.967
77663W        W50731  14.722   8.870   0.231
77664W        W50732   8.901  16.979   5.229
77665W        W50733  23.032  40.786  14.944
77666W        W50734  36.618  28.023   3.730
77667W        W50735  44.926  38.133   4.236
77668W        W50736  40.539   9.752  12.863
77669W        W50737  26.131  23.367  10.737
77670W        W50738  11.818  41.103  10.872
77671W        W50739   0.560  32.845  13.508
77672W        W50740  32.377  37.245  12.003
77673W        W50741  20.062  19.964  14.826
77674W        W50742  38.023  11.399  13.584
77675W        W50743  11.208  11.229   1.487
77676W        W50744   3.140  17.786  14.945
77677W        W50745  26.011  20.946   0.472
77678W        W50746   5.793  27.746   2.407
77679W        W50747  20.190  25.715   3.237
77680W        W50748  40.421  18.009   5.076
77681W        W50749  12.584  44.860  10.603
77682W        W50750  41.050  11.261  12.423
77683W        W50751   5.389  37.244  12.369
77684W        W50752  43.492  23.296  13.414
77685W        W50753  38.447  25.406  12.598
77686W        W50754   5.708  34.350   1.841
77687W        W50755  13.635  37.533   4.968
77688W        W50756  28.991  20.307   4.113
77689W        W50757  32.880   7.791  10.565
77690W        W50758  17.645  27.663  13.054
77691W        W50759  41.737   5.149  13.955
77692W        W50760  28.629   9.048   1.415
77693W        W50761  22.054  14.133   0.714
77694W        W50762   8.773  12.761   2.069
77695W        W50763   9.328  40.747  11.586
77696W        W50764  19.492   2.880   0.729
77697W        W50765  22.740  22.578   1.010
77698W        W50766  25.007  18.600  13.321
77699W        W50767  11.657  31.101  11.161
77700W        W50768   5.758  19.117  11.502
77701W        W50769   2.343  41.558   3.686
77702W        W50770  25.145   5.729  12.931
77703W        W50771  21.616  13.683   3.217
77704W        W50772  11.845  44.522  14.854
77705W        W50773  35.640  30.963  12.969
77706W        W50774  27.019  33.427  14.833
77707W        W50775   8.609  26.640   3.644
77708W        W50776  22.841  22.161   4.123
77709W        W50777  34.200  20.787  11.250
77710W        W50778  28.386   0.350   4.597
77711W        W50779  13.589   4.608   2.763
77712W        W50780  20.985   6.760  12.631
77713W        W50781   8.121   8.315   1.249
77714W        W50782  28.213   4.384   3.734
77715W        W50783  35.755   9.554  11.072
77716W        W50784  19.662   5.770  12.139
77717W        W50785  35.575  32.462  13.218
77718W        W50786  35.465  21.995  12.473
77719W        W50787   4.143  44.056  14.358
77720W        W50788  36.634  35.136   2.872
77721W        W50789  25.895   7.089  12.450
77722W        W50790  36.853  25.173   0.749
77723W        W50791  24.150  16.537  12.007
77724W        W50792   1.264  44.968   0.730
77725W        W50793  32.949   9.662  13.580
77726W        W50794  21.568   1.314   3.562
77727W        W50795  24.682  23.643  14.551
77728W        W50796  42.943  18.740   3.558
77729W        W50797  29.183  41.380   0.210
77730W        W50798  39.444   2.458  10.928
77731W        W50799   2.471   8.581   3.637
77732W        W50800  20.674  29.133  11.441
77733W        W50801  22.255  44.993  10.108
77734W        W50802   5.758  25.591   2.172
77735W        W50803  30.930  19.083   2.412
77736W        W50804  18.461   9.994  10.965
77737W        W50805  26.293   9.263   2.704
77738W        W50806  28.950   1.672   1.330
77739W        W50807  23.975   0.882  13.951
77740W        W50808  20.624  18.583  12.914
77741W        W50809   4.982  37.052   3.814
77742W        W50810  26.671  25.215  12.720
77743W        W50811  22.142  25.533   2.439
77744W        W50812   0.567  24.925   0.860
77745W        W50813  35.847  37.450   5.113
77746W        W50814  11.193  40.100  12.575
77747W        W50815  35.658   9.302  12.498
77748W        W50816  38.585  18.730   3.931
77749W        W50817  17.948   0.384   1.370
77750W        W50818  14.337  10.195  14.426
77751W        W50819  40.646  17.050  13.545
77752W        W50820  28.873   7.865   4.100
77753W        W50821  44.847   8.611   2.965
77754W        W50822   2.042   3.378   0.433
77755W        W50823  37.021   3.590   2.938
77756W        W50824  28.905   6.664  14.883
77757W        W50825  13.288  38.856   0.814
77758W        W50826  32.057  35.797   2.313
77759W        W50827  25.650   3.773   0.769
77760W        W50828  39.829   6.322   3.794
77761W        W50829  26.862  22.569   4.761
77762W        W50830  20.237  42.516  11.527
77763W        W50831  40.425  31.080   0.465
77764W        W50832   7.847  12.788  11.476
77765W        W50833  13.277   1.852  11.973
77766W        W50834  16.749  37.049  11.038
77767W        W50835  20.997  25.319   2.785
77768W        W50836  13.531  40.958   4.313
77769W        W50837  18.489  10.468  13.024
77770W        W50838  34.954  21.476   1.870
77771W        W50839  24.556  12.359   0.816
77772W        W50840  38.415  18.010   2.439
77773W        W50841  36.524  40.003   2.856
77774W        W50842  36.145   8.186   4.552
77775W        W50843  42.267  19.349   4.315
77776W        W50844  41.446  10.444   0.900
77777W        W50845   8.167  11.748   2.753
77778W        W50846   3.772  20.089  12.686
77779W        W50847  32.080   9.694   2.294
77780W        W50848   6.877  30.656  12.505
77781W        W50849   8.284  26.553  14.002
77782W        W50850  16.478  34.998   2.331
77783W        W50851  26.460   1.856  13.995
77784W        W50852  10.247   8.652  14.609
77785W        W50853   3.250  23.990   0.341
77786W        W50854  40.950  17.673   3.887
77787W        W50855  28.867  30.109  13.354
77788W        W50856  40.519  39.437   1.892
77789W        W50857   6.725  22.720  11.291
77790W        W50858  29.503  31.117   4.160
77791W        W50859  24.566  43.678   2.707
77792W        W50860  15.734  35.018   0.736
77793W        W50861  43.740  29.950   2.279
77794W        W50862  29.069  28.505   4.578
77795W        W50863  31.069  38.569  14.871
77796W        W50864  16.067   2.245  11.878
77797W        W50865  22.065   3.250  14.502
77798W        W50866  42.315  41.879  14.043
77799W        W50867   9.486   6.320  11.543
77800W        W50868  13.918  17.592   2.311
77801W        W50869  22.100  36.821  11.262
77802W        W50870  39.208  24.994  11.113
77803W        W50871   6.842  18.113  12.498
77804W        W50872  40.773  25.517   4.104
77805W        W50873  31.578  43.298   2.870
77806W        W50874  18.114  30.988   2.630
77807W        W50875  40.749   3.182  10.257
77808W        W50876  44.290  44.722  13.124
77809W        W50877  14.444  28.575   3.344
77810W        W50878  13.727  15.871  13.643
77811W        W50879   2.215  36.552   3.398
77812W        W50880  10.554   1.357   2.187
77813W        W50881   3.848  21.221  10.103
77814W        W50882  11.408  30.477   2.841
77815W        W50883  13.894  12.513  14.891
77816W        W50884  22.294  28.940   3.628
77817W        W50885  33.929  17.145   3.829
77818W        W50886  17.666  12.080  13.719
77819W        W50887   9.358   0.464   2.758
77820W        W50888  36.061  16.083  12.863
77821W        W50889  34.107  31.383   3.228
77822W        W50890  23.752  23.549  14.951
77823W        W50891  29.468  22.637   3.400
77824W        W50892  24.834  37.320  10.334
77825W        W50893  10.258   0.216  10.403
77826W        W50894  44.868  24.435   2.032
77827W        W50895  22.164  15.202  12.243
77828W        W50896  28.810   0.030  13.144
77829W        W50897  34.655  23.629  10.731
77830W        W50898  18.731  27.188   3.857
77831W        W50899  18.036  31.126  13.454
77832W        W50900  32.690  15.315   0.792
77833W        W50901   7.200  34.459   0.943
77834W        W50902  26.038  30.581   0.478
77835W        W50903  29.231  17.771  12.509
77836W        W50904  44.872  10.540   0.977
77837W        W50905  35.999   2.193   0.021
77838W        W50906  35.462   0.947  14.520
77839W        W50907  24.137   9.675   2.211
77840W        W50908  15.293  43.826  14.036
77841W        W50909  12.300   5.216   4.421
77842W        W50910  26.149   5.482  13.258
77843W        W50911   9.357  31.075  11.406
77844W        W50912   3.485  20.580   4.512
77845W        W50913  44.879  30.590   2.732
77846W        W50914   8.702  13.311   2.770
77847W        W50915   8.411  35.001  12.985
77848W        W50916   9.096  26.543   2.189
77849W        W50917  17.060   5.126  11.937
77850W        W50918  25.951  30.532  10.920
77851W        W50919  20.997  34.929  11.487
77852W        W50920  32.834  14.727   0.041
77853W        W50921   3.923  29.470  11.931
77854W        W50922   2.461  27.890   3.650
77855W        W50923  31.101  10.666   2.910
77856W        W50924  31.443  41.590   3.084
77857W        W50925  32.431  29.473   4.279
77858W        W50926  16.080  35.845  14.502
77859W        W50927  33.886  32.189   3.141
77860W        W50928  41.548  14.146   2.746
77861W        W50929  34.494  33.894   1.160
77862W        W50930  10.391  23.920  10.617
77863W        W50931  37.977  13.681   1.318
77864W        W50932   0.880  21.947   4.311
77865W        W50933   0.839  43.933  14.074
77866W        W50934  39.243  33.376  11.544
77867W        W50935   4.132   2.528   3.137
77868W        W50936  42.129  39.063  11.192
77869W        W50937  21.169  39.872  13.950
77870W        W50938  37.918  31.944  11.141
77871W        W50939  39.439  26.602  12.446
77872W        W50940   7.666  11.272   0.288
77873W        W50941  30.671  36.884  14.465
77874W        W50942   1.164   6.819  12.406
77875W        W50943  25.692  24.054  12.001
77876W        W50944   2.817  27.813  14.490
77877W        W50945  13.235   2.942  12.056
77878W        W50946   6.524  18.139   3.583
77879W        W50947  32.419  43.826   3.777
77880W        W50948  28.190  13.889   4.878
77881W        W50949  33.391   0.376  14.405
77882W        W50950  10.398  19.549  13.357
77883W        W50951  29.615  24.220   3.668
77884W        W50952  31.489  39.872   0.788
77885W        W50953  34.222   8.499  14.869
77886W        W50954  12.172  28.011  10.707
77887W        W50955  14.319  26.160   3.260
77888W        W50956  33.666  28.702  13.991
77889W        W50957  37.129  42.360   4.687
77890W        W50958  36.799  11.912  14.308
77891W        W50959   8.166   1.591  12.463
77892W        W50960   5.286  42.553  14.864
77893W        W50961  27.660  17.231  11.481
77894W        W50962  42.217  30.405   1.649
77895W        W50963   7.162   2.772   1.809
77896W        W50964  26.449  29.445  11.208
77897W        W50965  19.696  37.814   0.815
77898W        W50966  10.832  10.402  14.809
77899W        W50967  44.452   6.251  10.417
77900W        W50968   9.934   0.268  11.889
77901W        W50969  44.385  28.549   1.208
77902W        W50970   7.971   8.194   3.350
77903W        W50971  34.137  14.178  13.346
77904W        W50972  19.531  10.768   3.932
77905W        W50973  22.488  25.058   5.094
77906W        W50974   1.716  17.193   2.723
77907W        W50975   4.371  13.759  14.383
77908W        W50976  29.661   7.986   4.428
77909W        W50977  11.659  43.815  12.193
77910W        W50978  33.157   9.233  13.395
77911W        W50979  28.154  24.316  10.697
77912W        W50980   5.295  12.867   1.351
77913W        W50981  44.809  13.422   4.759
77914W        W50982   4.153  15.562  13.807
77915W        W50983  34.510  17.082   1.477
77916W        W50984  19.674  15.378  12.482
77917W        W50985  15.254  12.843   0.772
77918W        W50986   2.439   5.671   2.723
77919W        W50987  38.785  23.393  11.082
77920W        W50988  25.148   5.693   2.453
77921W        W50989  38.771  18.138   1.268
77922W        W50990  40.896  37.429  11.260
77923W        W50991  23.697  17.176  10.083
77924W        W50992  23.828  22.695   9.855
77925W        W50993   4.008   1.910  12.992
77926W        W50994   2.640  32.131   0.888
77927W        W50995  13.394  37.287   4.546
77928W        W50996  35.488  15.904  13.545
77929W        W50997  25.065  32.115  12.115
77930W        W50998  29.886  10.316   4.695
77931W        W50999  42.941  15.207   0.135
77932W        W51000  19.465  43.359   0.735
77933W        W51001   8.843   8.628  12.258
77934W        W51002  34.458   7.624  14.984
77935W        W51003   5.145  43.551   2.668
77936W        W51004  12.774  10.123   4.579
77937W        W51005  26.904  29.505   3.664
77938W        W51006  24.511  12.697  14.560
77939W        W51007  27.671  22.744   3.759
77940W        W51008  11.229  24.458  12.814
77941W        W51009  15.837  12.697   1.292
77942W        W51010   0.842   6.074  11.095
77943W        W51011  13.271   6.606   2.067
77944W        W51012   9.594  41.895   4.217
77945W        W51013  22.350  31.929  13.872
77946W        W51014  17.005  15.768  13.946
77947W        W51015   4.482  18.641  11.524
77948W        W51016  39.593  10.781   4.555
77949W        W51017  37.318  44.741   1.366
77950W        W51018   0.335   5.904  12.170
77951W        W51019   0.618  26.125   0.027
77952W        W51020  32.475  15.269   0.320
77953W        W51021  27.681   6.676  12.956
77954W        W51022   6.715   1.161  14.247
77955W        W51023   9.312  18.313  13.732
77956W        W51024  38.062  35.198  10.715
77957W        W51025   7.990  38.907   0.837
77958W        W51026   9.235  40.226  10.228
77959W        W51027  22.856  39.904  11.106
77960W        W51028   6.232   1.558   0.015
77961W        W51029  31.563  18.132   4.129
77962W        W51030  36.639  25.094  13.447
77963W        W51031   2.821  35.567  10.428
77964W        W51032  40.040  43.982  12.917
77965W        W51033  39.026  43.222   4.621
77966W        W51034  34.644  34.551  13.927
77967W        W51035  43.352  11.445   2.730
77968W        W51036  24.505  25.731  11.133
77969W        W51037  23.912  41.096  14.841
77970W        W51038  22.069  39.487  10.485
77971W        W51039   7.922  23.500  10.212
77972W        W51040  34.807   4.648  11.343
77973W        W51041   8.135   5.682   4.157
77974W        W51042   8.251  28.810  14.806
77975W        W51043  25.095  19.354  10.646
77976W        W51044  36.660   7.946  13.015
77977W        W51045  28.912  41.447   1.307
77978W        W51046  20.815   4.866   3.224
77979W        W51047  23.461  17.776   0.819
77980W        W51048  44.276  19.362  12.653
77981W        W51049  11.583   4.850   4.992
77982W        W51050  20.778  14.379   1.014
77983W        W51051  38.216  44.534   1.466
77984W        W51052   4.403   5.195   1.258
77985W        W51053   4.349  22.613  14.755
77986W        W51054  16.724  16.546   2.636
77987W        W51055  29.985  14.741   0.843
77988W        W51056  42.850  32.151  13.000
77989W        W51057   0.754   7.775   2.561
77990W        W51058  34.964  38.875   1.828
77991W        W51059  43.500  25.597  12.834
77992W        W51060  14.346   2.867  14.243
77993W        W51061  19.737  22.668  14.741
77994W        W51062  40.090   0.931  12.017
77995W        W51063  10.507  36.365   2.696
77996W        W51064   6.098   1.725   1.774
77997W        W51065   4.401  27.789   3.278
77998W        W51066   0.840  43.310   0.287
77999W        W51067   2.032  17.705  12.872
78000W        W51068  29.815   0.089  11.648
78001W        W51069  16.728  16.339  11.992
78002W        W51070  23.503  33.009  14.103
78003W        W51071  26.791  44.248  11.074
78004W        W51072  10.696  38.864  12.098
78005W        W51073  37.768  11.263  14.013
78006W        W51074  10.377   8.902   2.772
78007W        W51075   0.996  26.495   3.653
78008W        W51076  40.016  35.931   4.064
78009W        W51077   1.738   0.463  12.401
78010W        W51078  40.941  28.397   4.845
78011W        W51079  40.906  44.534  11.031
78012W        W51080  17.074  14.821   2.807
78013W        W51081  41.422  10.974  11.342
78014W        W51082   2.740  42.374   3.905
78015W        W51083  16.811  35.978   4.858
78016W        W51084  32.169   2.381  13.249
78017W        W51085  17.216  39.260  10.367
78018W        W51086  29.924  13.674  14.300
78019W        W51087  19.228  30.384  12.177
78020W        W51088  35.424  33.652   9.772
78021W        W51089  18.065  18.791   4.829
78022W        W51090   7.992  29.584  11.522
78023W        W51091   2.450  20.572  13.556
78024W        W51092  20.460  21.579  10.387
78025W        W51093  20.229  16.696   3.178
78026W        W51094  36.408  31.168  12.474
78027W        W51095  41.857  19.862   1.184
78028W        W51096  13.507  38.437  12.594
78029W        W51097  12.015  15.443  11.477
78030W        W51098  23.202  35.977  12.024
78031W        W51099  28.048   4.384  13.382
78032W        W51100  40.008  29.421  11.577
78033W        W51101  12.337   8.833   1.455
78034W        W51102  31.068  31.575   4.287
78035W        W51103   1.747  40.576  14.463
78036W        W51104  23.718  28.077   2.709
78037W        W51105   8.172  15.594  14.028
78038W        W51106  43.052  34.581   3.683
78039W        W51107  11.098   3.365   0.254
78040W        W51108   9.253  17.589  11.581
78041W        W51109   4.420  16.818  10.728
78042W        W51110  17.164  31.616   0.766
78043W        W51111  22.302  11.797   1.948
78044W        W51112  38.145  34.526  13.310
78045W        W51113  19.661  22.591   2.230
78046W        W51114  27.555  29.584  14.052
78047W        W51115   9.183   5.632   0.382
78048W        W51116  31.043   8.167  10.576
78049W        W51117  31.688  39.295   3.269
78050W        W51118  24.720  23.518   0.045
78051W        W51119  30.045  11.868   4.617
78052W        W51120  40.493  27.278   3.926
78053W        W51121  24.012  32.185  11.219
78054W        W51122  13.130   2.449  14.343
78055W        W51123  33.217  35.287   1.498
78056W        W51124  16.291  31.902   3.107
78057W        W51125  22.519  14.262   0.024
78058W        W51126  31.629  20.589   0.444
78059W        W51127  32.561  11.417   2.681
78060W        W51128  28.669  38.088  11.145
78061W        W51129  12.602   5.350   0.365
78062W        W51130   1.456  26.402   4.694
78063W        W51131   2.718  42.947  13.556
78064W        W51132  26.610  28.969  11.199
78065W        W51133  41.464  22.634   0.480
78066W        W51134   4.745  16.229   4.543
78067W        W51135  22.096   1.971  11.476
78068W        W51136  26.145  19.174   1.217
78069W        W51137   0.942  22.047   2.878
78070W        W51138  33.107  13.231  14.454
78071W        W51139   6.952  41.174  11.320
78072W        W51140  42.876  14.552  14.950
78073W        W51141  35.280   8.083   0.425
78074W        W51142   8.883  31.998  12.817
78075W        W51143  35.667  28.678  11.665
78076W        W51144   7.648  15.638   2.109
78077W        W51145  40.134  10.105   2.012
78078W        W51146  27.099  18.998   1.308
78079W        W51147  29.889   4.848   2.821
78080W        W51148  12.876  36.459   1.270
78081W        W51149   3.497   7.899   4.067
78082W        W51150   2.030   2.508   0.110
78083W        W51151  36.583  39.526   4.134
78084W        W51152  10.857  27.533   2.974
78085W        W51153   9.813  32.541  14.943
78086W        W51154  27.177   7.299   2.222
78087W        W51155  36.512  15.135   3.597
78088W        W51156  32.428  38.358   1.474
78089W        W51157   9.184  16.202   1.211
78090W        W51158  14.140   5.730  13.863
78091W        W51159  22.228  34.807   1.569
78092W        W51160  14.075  39.410   3.144
78093W        W51161   9.564  35.658   5.060
78094W        W51162  44.043  27.083  10.600
78095W        W51163  44.717  24.721  14.885
78096W        W51164  44.006  41.062  13.419
78097W        W51165   8.326   3.035   0.824
78098W        W51166  16.700  39.968   2.730
78099W        W51167  19.694  12.687   1.134
78100W        W51168  40.082  39.404  13.186
78101W        W51169   1.914  24.601   4.488
78102W        W51170  14.681  22.254  12.373
78103W        W51171   0.945  31.586   1.070
78104W        W51172  39.609  10.165   4.510
78105W        W51173  19.616  34.744  13.565
78106W        W51174  31.483   7.576   1.460
78107W        W51175  11.800   1.725   0.447
78108W        W51176  20.736   3.827   3.234
78109W        W51177   9.483  32.612   2.695
78110W        W51178  42.547  25.679   2.733
78111W        W51179  36.311  15.607  12.853
78112W        W51180  14.673  21.661   1.962
78113W        W51181   7.316  10.217   2.605
78114W        W51182  17.240   8.138  14.382
78115W        W51183  17.086   8.151  10.430
78116W        W51184  33.899  41.319   3.571
78117W        W51185  42.192  10.298  10.598
78118W        W51186  13.275  13.659   4.840
78119W        W51187   1.156  10.839   4.258
78120W        W51188  39.568  17.357  13.032
78121W        W51189  13.196  38.744   2.343
78122W        W51190  14.100  27.954   2.199
78123W        W51191  28.456  36.618  10.658
78124W        W51192   7.680   4.894  10.790
78125W        W51193  36.895   0.711   2.747
78126W        W51194  23.741   9.796   4.848
78127W        W51195  10.575  10.848  14.795
78128W        W51196  31.839  25.139   0.761
78129W        W51197  23.556   6.725   4.306
78130W        W51198  36.465  14.921   3.110
78131W        W51199  28.979  15.611  11.604
78132W        W51200  43.780  10.928   4.671
78133W        W51201   3.913  44.496   1.143
78134W        W51202  19.819  37.989   0.014
78135W        W51203  29.882  36.890   4.426
78136W        W51204   2.365   2.934  13.957
78137W        W51205  36.908  40.879  11.676
78138W        W51206  27.490  32.636  13.590
78139W        W51207  39.344  37.858   1.304
78140W        W51208  28.065  33.038   3.594
78141W        W51209  18.843  18.702  13.915
78142W        W51210  15.653  14.758   2.902
78143W        W51211  37.012  12.626   3.487
78144W        W51212  25.257  32.770   0.183
78145W        W51213  44.048  38.858  12.432
78146W        W51214  10.625  12.832  14.053
78147W        W51215  14.941   8.776  10.499
78148W        W51216   8.160  13.824  11.562
78149W        W51217  40.805  33.011   2.453
78150W        W51218   5.965  23.997   1.869
78151W        W51219  18.782   9.654   2.422
78152W        W51220   0.561  11.426   3.973
78153W        W51221   8.241   5.519   0.992
78154W        W51222   5.253  44.637   3.163
78155W        W51223  34.986  18.013  10.285
78156W        W51224  42.868   0.703  12.976
78157W        W51225  21.318  12.560   4.211
78158W        W51226  30.316   4.782   2.495
78159W        W51227   1.716  14.731   0.481
78160W        W51228   1.787  19.059   2.289
78161W        W51229  12.138  18.456  10.703
78162W        W51230  25.243  31.811  12.542
78163W        W51231   6.929  11.145   2.784
78164W        W51232  41.363  41.056  10.440
78165W        W51233  19.804  17.319   3.751
78166W        W51234  18.646  32.671  10.627
78167W        W51235  36.347  30.608  11.050
78168W        W51236  25.030  25.756  11.028
78169W        W51237  16.061   2.559  13.115
78170W        W51238  38.230  25.113   1.290
78171W        W51239  29.158  27.125  12.038
78172W        W51240  34.938  38.979   3.291
78173W        W51241  18.134  26.452   3.711
78174W        W51242   4.641  36.471   0.174
78175W        W51243  43.854  34.596  14.372
78176W        W51244  43.643  11.644  13.274
78177W        W51245  39.534  13.561   1.436
78178W        W51246  24.448  38.112   1.237
78179W        W51247  10.506   2.305  12.376
78180W        W51248   9.766  27.649  13.037
78181W        W51249  29.318  39.076  14.963
78182W        W51250  28.246  39.495  13.412
78183W        W51251  44.848  11.012  13.033
78184W        W51252  43.065  35.413  12.471
78185W        W51253  30.607  40.056   3.043
78186W        W51254   0.034  26.004   0.863
78187W        W51255  34.973  23.288   3.405
78188W        W51256  25.054  33.435   3.841
78189W        W51257   1.906  12.870  13.444
78190W        W51258  34.021  18.094  11.861
78191W        W51259   7.858  31.154  14.926
78192W        W51260  34.026  24.072  10.772
78193W        W51261  27.128  16.720  13.038
78194W        W51262  12.198  15.321   1.253
78195W        W51263  39.911  17.008   2.920
78196W        W51264  19.110   3.556  14.244
78197W        W51265  44.860   8.322  13.266
78198W        W51266  33.483  33.621  14.906
78199W        W51267  20.603  36.438   1.349
78200W        W51268  26.916   0.446   1.422
78201W        W51269  12.979  28.935  11.629
78202W        W51270  20.322  21.786   4.103
78203W        W51271   8.213  23.522  11.577
78204W        W51272  18.147  10.921   4.089
78205W        W51273  21.528  18.151   2.722
78206W        W51274  41.626  14.928  14.362
78207W        W51275  20.834  13.019  11.575
78208W        W51276  38.612  31.435  13.896
78209W        W51277   3.228   2.014  14.457
78210W        W51278  18.337  36.392   2.138
78211W        W51279   1.268  18.774   4.533
78212W        W51280  43.216  43.427   4.113
78213W        W51281  14.719  37.605  14.740
78214W        W51282  35.159  37.270   1.739
78215W        W51283   0.014  44.874   1.194
78216W        W51284  39.391  27.272   0.586
78217W        W51285   9.398   4.353   1.877
78218W        W51286  18.536  18.190   2.389
78219W        W51287  20.537  13.277  10.644
78220W        W51288  22.629  22.786   1.881
78221W        W51289  41.288   4.453  13.511
78222W        W51290  32.571  33.356   4.176
78223W        W51291  35.345  35.406   0.322
78224W        W51292  43.444  43.502  11.395
78225W        W51293  13.848   5.748   0.814
78226W        W51294  35.793  27.008   0.022
78227W        W51295  18.611  10.708   4.257
78228W        W51296  24.464  32.421  11.318
78229W        W51297  43.560  33.134   0.950
78230W        W51298  24.852   7.164   2.354
78231W        W51299   2.225   0.384   0.479
78232W        W51300  34.629  10.352  11.245
78233W        W51301  35.461  11.187  12.017
78234W        W51302  30.455  24.093  13.594
78235W        W51303  32.545  32.975   4.553
78236W        W51304  41.420   2.929  14.496
78237W        W51305  44.048   9.501  14.305
78238W        W51306  20.295  36.895   0.307
78239W        W51307  29.466  37.799   1.759
78240W        W51308  25.748  34.141   4.351
78241W        W51309   7.750  43.456   3.052
78242W        W51310  30.864  28.499   3.027
78243W        W51311   5.775  11.146   3.355
78244W        W51312  37.820   7.446  14.051
78245W        W51313  27.104  34.789   1.354
78246W        W51314  11.884  20.014   1.388
78247W        W51315   2.896  21.980  12.576
78248W        W51316   7.708  37.566   2.378
78249W        W51317  31.084   9.379  14.105
78250W        W51318   5.197  43.170  12.381
78251W        W51319  29.031  20.916   3.329
78252W        W51320   6.208  12.085   3.362
78253W        W51321  21.052  28.271   2.791
78254W        W51322   3.390  33.895  14.023
78255W        W51323  40.149  44.864  13.054
78256W        W51324  11.442  11.695   1.427
78257W        W51325  20.505   6.700   1.842
78258W        W51326   5.790  20.557  11.977
78259W        W51327  22.584  14.008   2.901
78260W        W51328  10.851  12.836   4.429
78261W        W51329  19.261  11.811  11.162
78262W        W51330   3.667  43.520  12.512
78263W        W51331   3.295  23.056  12.241
78264W        W51332   2.918  25.054   2.836
78265W        W51333  22.441  42.342  11.049
78266W        W51334  10.917   3.872   2.689
78267W        W51335   9.374  19.918   5.085
78268W        W51336  34.112  38.323  12.412
78269W        W51337  26.730  41.764   3.164
78270W        W51338  14.183  16.861   0.714
78271W        W51339  13.820  39.986   4.393
78272W        W51340  24.854  41.584  13.997
78273W        W51341  16.116  22.987  10.806
78274W        W51342  30.678   1.234   3.031
78275W        W51343  33.783  19.496   4.548
78276W        W51344  42.917  31.229  10.689
78277W        W51345  10.437  32.285  12.946
78278W        W51346  20.157  27.949  11.752
78279W        W51347  11.170  11.256   3.725
78280W        W51348  22.488  43.014   1.201
78281W        W51349  44.296  25.147  13.862
78282W        W51350   4.409   6.288  11.837
78283W        W51351  40.121   4.857  14.898
78284W        W51352  34.513  29.259  12.014
78285W        W51353  40.456  26.127  13.991
78286W        W51354  27.463   3.103  13.489
78287W        W51355  24.109  19.153  12.113
78288W        W51356   6.818  15.792  11.596
78289W        W51357  37.594  29.245   4.447
78290W        W51358   5.261  34.671   0.495
78291W        W51359  32.048  20.979   0.428
78292W        W51360  24.958  32.684   2.647
78293W        W51361   9.438  25.982   1.279
78294W        W51362  41.900  12.100   0.403
78295W        W51363   3.288  39.047  13.092
78296W        W51364  31.214  12.638   4.052
78297W        W51365  16.240  34.534   0.459
78298W        W51366  33.125   8.702  13.465
78299W        W51367  15.912  41.474  13.385
78300W        W51368   7.200  19.597   4.787
78301W        W51369  10.599  13.853   2.245
78302W        W51370  17.295   6.706  13.396
78303W        W51371   1.379  41.498  14.747
78304W        W51372  13.080  28.100  11.564
78305W        W51373   4.199  11.164  10.594
78306W        W51374  38.941   3.273   1.864
78307W        W51375  37.907  26.952   1.639
78308W        W51376  36.401   0.029  11.957
78309W        W51377  25.062  30.707   1.435
78310W        W51378   5.054  41.637   3.240
78311W        W51379   0.015   0.246  14.796
78312W        W51380  43.852  15.413  14.529
78313W        W51381  15.230  35.084  13.879
78314W        W51382   1.857   7.448  13.876
78315W        W51383  44.419  34.121  13.444
78316W        W51384  25.600  28.171  10.931
78317W        W51385  14.149  40.790   5.107
78318W        W51386  37.231  19.747   1.878
78319W        W51387  15.876  10.333  14.027
78320W        W51388  42.564  30.176   1.331
78321W        W51389  23.963  23.677   9.750
78322W        W51390  40.320   9.293  12.777
78323W        W51391  16.075  18.796  11.961
78324W        W51392  11.273   8.428   0.348
78325W        W51393  41.726  16.650   9.735
78326W        W51394  32.463  31.664  12.377
78327W        W51395   7.282  40.798   0.250
78328W        W51396  34.543  28.740  12.059
78329W        W51397  44.253  37.569  12.025
78330W        W51398   9.232  18.577  11.896
78331W        W51399  13.276   2.154  13.902
78332W        W51400   9.165  29.251   0.615
78333W        W51401  34.497  28.701   1.761
78334W        W51402  21.916   8.652  13.927
78335W        W51403  19.327  22.630   3.819
78336W        W51404   3.811   6.389   1.734
78337W        W51405  25.211  41.456  10.343
78338W        W51406  13.249  19.294  13.935
78339W        W51407   6.386   6.346   0.124
78340W        W51408  17.544  16.746   0.260
78341W        W51409  17.588  41.513  12.049
78342W        W51410   3.806  33.266   3.411
78343W        W51411  12.671  40.706  10.419
78344W        W51412  41.304  11.641  10.595
78345W        W51413  40.347  14.626  10.874
78346W        W51414  27.336  23.997  14.037
78347W        W51415  30.546  36.667   1.825
78348W        W51416  20.627  34.199  13.326
78349W        W51417  31.029  13.730   2.860
78350W        W51418  38.816   2.401   3.280
78351W        W51419  15.370   9.011  13.602
78352W        W51420  19.760  18.758  12.862
78353W        W51421  26.576  20.125   2.481
78354W        W51422   0.413   1.258  12.416
78355W        W51423  18.475  44.468  11.392
78356W        W51424  20.577  28.904   1.455
78357W        W51425  42.917  42.976  11.913
78358W        W51426   0.992  22.629  11.877
78359W        W51427   0.834   8.571   4.296
78360W        W51428  10.839  30.992   3.451
78361W        W51429  21.629  15.237   2.358
78362W        W51430  15.196  14.274   1.182
78363W        W51431   6.082  17.750   2.325
78364W        W51432  16.634  38.330   0.452
78365W        W51433  15.146  39.099   3.071
78366W        W51434   6.590  15.345  11.597
78367W        W51435   7.374   7.593   1.749
78368W        W51436  24.519  15.053   2.354
78369W        W51437   8.861  12.063  13.147
78370W        W51438  19.746  39.350  12.004
78371W        W51439  29.464  28.425  12.564
78372W        W51440  43.381  16.723   2.649
78373W        W51441  16.375   1.072   4.147
78374W        W51442  33.608  16.772   4.542
78375W        W51443  33.538  21.512   1.937
78376W        W51444   7.385  16.652  10.517
78377W        W51445   4.151  34.061   4.855
78378W        W51446  19.252  19.558   3.336
78379W        W51447  27.478  30.296  12.438
78380W        W51448  22.740  18.585  13.912
78381W        W51449  22.784  11.099   1.449
78382W        W51450  29.503   6.951   0.804
78383W        W51451   1.425  41.754   3.626
78384W        W51452  44.797  24.240  12.044
78385W        W51453   5.452  38.870   1.907
78386W        W51454  11.082  39.312  13.923
78387W        W51455  26.548  39.174   2.683
78388W        W51456  36.008  17.515  13.053
78389W        W51457  19.576  14.431  13.846
78390W        W51458  35.987  23.166   2.365
78391W        W51459  14.482  31.581   1.456
78392W        W51460  32.581  29.755  14.450
78393W        W51461   2.551   3.387   0.273
78394W        W51462  25.185  32.842   2.191
78395W        W51463   7.857  25.603   4.614
78396W        W51464  37.045  22.793  10.583
78397W        W51465  30.067   6.046   2.275
78398W        W51466   8.720  42.851  14.177
78399W        W51467  11.746   5.482  11.957
78400W        W51468  28.031  33.608   0.454
78401W        W51469  39.409  17.208  11.591
78402W        W51470   4.815   3.913   0.821
78403W        W51471  35.950  22.113  12.333
78404W        W51472   5.511  29.984   0.371
78405W        W51473  40.390  32.141  14.009
78406W        W51474   5.226  26.524   1.358
78407W        W51475   4.214  35.302   0.403
78408W        W51476  42.047  13.687   5.099
78409W        W51477  38.909   1.006  11.539
78410W        W51478  26.756   2.010   0.302
78411W        W51479  30.552  44.762   0.566
78412W        W51480   2.020  12.660   4.194
78413W        W51481   2.364   5.911   0.457
78414W        W51482   5.795  10.878  14.886
78415W        W51483   3.644   4.561   1.499
78416W        W51484  28.107  33.519   4.979
78417W        W51485  44.596  41.358   4.792
78418W        W51486  31.586  27.044   2.224
78419W        W51487   9.230  29.842  13.986
78420W        W51488  14.703  13.914  12.609
78421W        W51489  42.888  16.644   0.538
78422W        W51490   8.722   3.196  11.113
78423W        W51491  15.832  25.206  11.247
78424W        W51492  36.011  22.282  12.824
78425W        W51493  16.768  39.295  14.094
78426W        W51494   0.876   1.538  13.151
78427W        W51495  30.266  43.226   2.830
78428W        W51496   6.350  33.827   0.319
78429W        W51497  17.738  29.238   1.803
78430W        W51498  17.243   0.214   2.308
78431W        W51499   8.161  18.038   2.268
78432W        W51500   7.179  23.266  13.534
78433W        W51501  34.049  15.637  10.384
78434W        W51502  31.990   6.886   3.630
78435W        W51503  42.347  20.195   3.913
78436W        W51504  34.966  34.939  10.604
78437W        W51505  27.440  38.483   1.343
78438W        W51506  34.001  30.329  14.281
78439W        W51507  33.957  39.319  12.590
78440W        W51508  34.024  16.801   1.324
78441W        W51509  29.112  39.604  12.849
78442W        W51510   2.756   5.798  11.861
78443W        W51511  29.671  30.607  12.376
78444W        W51512   0.248  41.393  12.048
78445W        W51513  21.278  12.136   2.427
78446W        W51514  26.988  43.960   1.274
78447W        W51515  11.685  14.357   3.201
78448W        W51516  11.887  38.412   2.760
78449W        W51517  22.076   2.705  13.068
78450W        W51518  27.946  41.401  11.644
78451W        W51519  17.329  23.639   4.732
78452W        W51520  31.970  28.891  12.978
78453W        W51521  31.424  27.002  14.856
78454W        W51522  19.124  17.590  10.649
78455W        W51523   8.330  37.467  11.411
78456W        W51524  10.469  17.428   4.536
78457W        W51525   4.760   5.832   0.038
78458W        W51526  41.820  26.584   3.135
78459W        W51527  42.400  29.080   4.744
78460W        W51528  10.993  20.036   2.493
78461W        W51529  13.244   6.497   0.997
78462W        W51530  28.192  26.967  12.884
78463W        W51531   8.378  36.795  13.045
78464W        W51532  14.889  24.687   0.205
78465W        W51533  26.078  18.023  13.119
78466W        W51534  24.179  36.802  12.556
78467W        W51535  37.456  28.883   2.236
78468W        W51536  27.620   9.712   2.957
78469W        W51537  16.628  19.279  12.594
78470W        W51538  20.167  26.120   3.596
78471W        W51539   1.480  38.090   3.956
78472W        W51540   6.786  16.291   2.705
78473W        W51541  25.110   4.901   3.566
78474W        W51542  15.603   9.295   4.670
78475W        W51543  29.114   3.446   2.901
78476W        W51544  43.671  31.984   1.836
78477W        W51545  28.600   2.679   3.716
78478W        W51546  21.308  23.920   3.844
78479W        W51547   6.845  19.573  12.170
78480W        W51548   5.998  24.010   4.176
78481W        W51549  13.447  27.206  14.531
78482W        W51550  39.912  35.359  10.756
78483W        W51551  23.858  32.986   1.950
78484W        W51552  42.537  27.648   4.536
78485W        W51553   1.666  41.545  11.148
78486W        W51554  27.084  32.946  11.602
78487W        W51555   8.227   7.763   4.098
78488W        W51556   9.206  26.644   3.672
78489W        W51557  23.674   5.888  14.708
78490W        W51558  43.327  22.647  10.715
78491W        W51559  10.363  36.482   0.431
78492W        W51560  39.763   6.619   1.158
78493W        W51561   5.411   1.023  11.974
78494W        W51562  32.604  39.752  13.266
78495W        W51563  35.346  15.198  13.773
78496W        W51564   1.692  30.442  14.502
78497W        W51565   4.395  23.995   0.050
78498W        W51566   7.911  17.557  11.483
78499W        W51567  40.447  23.573  12.439
78500W        W51568  17.203  15.244   4.571
78501W        W51569  15.199  37.334   0.561
78502W        W51570  36.328  20.932   1.956
78503W        W51571  40.799  12.281   4.123
78504W        W51572  30.428  19.470   4.754
78505W        W51573  30.576  34.273   0.714
78506W        W51574  22.074  19.051   2.163
78507W        W51575   5.609  36.102   0.308
78508W        W51576   5.487  40.812   0.719
78509W        W51577   9.240  27.605  11.718
78510W        W51578  39.172  23.215  10.774
78511W        W51579  39.076  27.384   2.885
78512W        W51580  34.901  40.997   1.911
78513W        W51581  37.944   6.911   0.853
78514W        W51582  34.690   5.313  12.653
78515W        W51583   7.112  39.925  12.184
78516W        W51584  19.653  36.125   2.242
78517W        W51585  19.202  24.162   0.760
78518W        W51586   1.828  38.415   2.363
78519W        W51587  15.336  25.720  12.125
78520W        W51588   8.880  34.969  12.680
78521W        W51589   1.936  41.095   4.177
78522W        W51590  25.596  24.229  13.030
78523W        W51591  12.819   1.568   1.720
78524W        W51592  14.097  25.672   2.002
78525W        W51593  35.008  14.574  11.089
78526W        W51594   8.855  18.142   0.557
78527W        W51595  31.436  37.070   2.155
78528W        W51596  39.026   2.269   5.029
78529W        W51597  28.608  19.420  13.803
78530W        W51598  12.615  26.716   0.762
78531W        W51599   0.741  22.528   0.941
78532W        W51600   4.152  23.754   1.807
78533W        W51601  37.051  25.996  10.471
78534W        W51602  30.862  40.292   4.237
78535W        W51603  21.313  14.305   2.710
78536W        W51604  26.448  16.166   2.617
78537W        W51605  29.907   2.028  14.396
78538W        W51606  41.746  32.163   4.541
78539W        W51607  30.168  34.565   1.734
78540W        W51608  40.538  16.045  13.129
78541W        W51609  22.600  22.530  11.545
78542W        W51610  21.181   7.381  13.274
78543W        W51611  31.601  32.851   2.667
78544W        W51612  38.604   5.671   3.189
78545W        W51613  11.685  32.213  12.148
78546W        W51614  12.821  24.648  14.333
78547W        W51615  23.568  19.243   4.143
78548W        W51616  15.268  28.232  14.161
78549W        W51617  31.978   2.411  10.676
78550W        W51618  14.755  40.976   2.453
78551W        W51619  12.719   9.908   3.334
78552W        W51620  32.581  14.804   0.969
78553W        W51621  23.155  40.773   1.714
78554W        W51622  40.483  21.059  11.135
78555W        W51623  11.699  28.000   5.109
78556W        W51624  38.492  31.600   1.841
78557W        W51625  25.210  31.405  11.910
78558W        W51626  41.261  35.851  12.127
78559W        W51627  25.008  40.336  10.658
78560W        W51628   3.006  41.741  14.342
78561W        W51629  34.902  34.160   2.520
78562W        W51630  36.121  27.373  13.353
78563W        W51631  39.318  25.515  13.318
78564W        W51632  38.730  42.309   4.537
78565W        W51633  30.258  15.597   0.305
78566W        W51634  32.524  20.841  12.854
78567W        W51635   3.237  38.520  14.035
78568W        W51636  20.293  34.771   3.333
78569W        W51637   1.552   2.684   3.637
78570W        W51638   9.597  23.549   3.682
78571W        W51639  11.637  24.527  10.964
78572W        W51640   9.385   6.295   3.742
78573W        W51641  25.012  17.063   0.828
78574W        W51642   8.722   0.840   4.573
78575W        W51643   0.503  28.507   3.271
78576W        W51644  36.258  38.380  14.746
78577W        W51645  36.384   1.001  13.587
78578W        W51646  19.670  30.584   2.891
78579W        W51647  38.455  12.690  11.115
78580W        W51648  28.629   8.167   3.724
78581W        W51649   1.241  10.694   0.286
78582W        W51650  28.561  13.170   0.291
78583W        W51651  34.397  21.783   3.547
78584W        W51652  44.488  36.586  12.592
78585W        W51653  43.578  25.885  12.400
78586W        W51654  11.881  12.650  10.124
78587W        W51655  38.823  44.853  13.875
78588W        W51656  18.000  37.492   4.030
78589W        W51657  10.209   4.512  12.233
78590W        W51658   2.070  24.598  11.105
78591W        W51659  18.124  24.479  13.887
78592W        W51660  38.274  21.697  14.515
78593W        W51661  33.416  26.120   3.859
78594W        W51662  44.825  31.014  11.080
78595W        W51663   5.308  39.245  11.125
78596W        W51664  29.214  32.837  13.577
78597W        W51665  31.371  19.274   2.196
78598W        W51666  44.030  36.107  12.506
78599W        W51667   8.304  36.327  12.797
78600W        W51668  38.586   5.437  13.371
78601W        W51669  24.041  26.670  11.965
78602W        W51670   5.940  36.316  14.932
78603W        W51671  43.462  35.400  14.215
78604W        W51672  36.802  33.550  14.041
78605W        W51673  22.567  41.909  13.546
78606W        W51674  13.989   4.947  13.017
78607W        W51675   9.326  22.989   0.914
78608W        W51676  23.704  11.368  14.287
78609W        W51677  32.586   7.777  13.356
78610W        W51678  27.125  24.275  14.429
78611W        W51679  33.550  43.436  14.380
78612W        W51680  13.626  21.535   0.985
78613W        W51681  25.076  22.073   1.304
78614W        W51682  34.995  38.387   2.722
78615W        W51683  43.722  33.239   2.244
78616W        W51684  29.111  30.534   1.448
78617W        W51685  29.989  31.541  12.111
78618W        W51686  41.855  44.035   3.143
78619W        W51687  18.717  26.526   3.112
78620W        W51688   1.265  38.272  12.116
78621W        W51689  34.939   6.492   4.036
78622W        W51690   4.685  19.576   4.893
78623W        W51691  16.185  26.977   1.771
78624W        W51692  34.410   1.319   4.456
78625W        W51693  40.552   8.111   5.030
78626W        W51694   1.026  20.085  12.539
78627W        W51695  43.006  25.510  14.026
78628W        W51696  24.507  17.078   0.236
78629W        W51697   2.903  28.165  13.538
78630W        W51698  30.986   8.339  11.067
78631W        W51699  43.682   3.722  13.781
78632W        W51700  17.562   6.249  13.528
78633W        W51701  11.971  26.681   4.117
78634W        W51702  27.816  27.703  14.857
78635W        W51703  19.402  16.067   0.009
78636W        W51704  37.353   0.083  14.051
78637W        W51705  32.646  32.936   1.804
78638W        W51706  40.713   8.810   1.011
78639W        W51707  24.571  30.668  10.625
78640W        W51708  31.233  36.480   4.884
78641W        W51709   2.923   8.381   1.357
78642W        W51710  26.429  39.501  12.927
78643W        W51711   1.446  35.549   2.802
78644W        W51712  42.881  32.941  11.913
78645W        W51713  20.042   3.287  12.778
78646W        W51714  18.299  43.451  12.067
78647W        W51715  28.961   2.170   1.183
78648W        W51716   0.300  13.845  10.782
78649W        W51717  24.709  21.242   4.007
78650W        W51718  13.456  22.095   1.800
78651W        W51719  30.132  33.948   4.187
78652W        W51720  36.487  30.355  14.337
78653W        W51721  31.408  19.617  10.634
78654W        W51722  20.333   4.484   1.402
78655W        W51723  24.394  22.979   3.730
78656W        W51724   3.728  44.247   0.662
78657W        W51725   2.426  41.224  11.320
78658W        W51726  12.786  30.514  14.011
78659W        W51727  42.725  43.064   2.319
78660W        W51728  30.052  25.228  10.409
78661W        W51729  33.899   8.412   3.269
78662W        W51730   3.451  35.014   0.238
78663W        W51731  42.047   0.471  14.889
78664W        W51732  24.189  15.262  11.155
78665W        W51733  35.908  41.009  10.766
78666W        W51734   7.903  34.650   3.779
78667W        W51735   9.813  26.563  13.630
78668W        W51736  41.709  16.033   2.293
78669W        W51737  15.070  14.633  13.076
78670W        W51738   3.723   5.875  10.349
78671W        W51739  44.863  33.414   3.791
78672W        W51740  39.543   4.607  12.833
78673W        W51741  10.767   5.021  12.894
78674W        W51742   9.783  18.763  13.353
78675W        W51743  41.348  25.556  11.915
78676W        W51744  40.376  12.178   4.788
78677W        W51745   1.708  42.519   0.467
78678W        W51746  32.478  24.520   2.811
78679W        W51747  34.304  37.505   3.136
78680W        W51748  11.110  19.647   4.636
78681W        W51749  41.050   5.292   3.310
78682W        W51750  18.349  28.970  11.542
78683W        W51751   9.324  32.199  13.426
78684W        W51752  25.309  26.028  14.969
78685W        W51753  10.630  17.322  14.755
78686W        W51754  28.420  21.820  14.576
78687W        W51755  33.398  30.143   3.152
78688W        W51756   2.389  37.520  11.055
78689W        W51757  14.906  34.643  12.754
78690W        W51758  28.474  38.045  13.021
78691W        W51759  28.402  33.447   3.695
78692W        W51760   9.486  18.527   3.729
78693W        W51761   6.648  19.134   3.772
78694W        W51762  42.545  15.252   5.107
78695W        W51763  21.243   3.764  13.320
78696W        W51764   9.870  14.994  11.755
78697W        W51765  36.550  16.172  12.058
78698W        W51766  18.824  21.228   3.626
78699W        W51767  18.152  11.247  14.806
78700W        W51768  44.413   4.008   2.723
78701W        W51769   5.272  15.678  13.839
78702W        W51770  44.096  43.058   2.304
78703W        W51771  38.544   9.263   3.306
78704W        W51772  11.863  43.892   3.549
78705W        W51773  26.337  10.028   3.167
78706W        W51774  39.431  17.176   2.793
78707W        W51775   9.139  21.611  13.840
78708W        W51776  30.157  37.378   0.846
78709W        W51777   3.448  36.711   4.599
78710W        W51778  11.869   9.336  12.594
78711W        W51779  10.899  36.380   0.343
78712W        W51780  18.080  23.591  10.625
78713W        W51781  15.492   4.420   2.295
78714W        W51782  13.185  14.356  11.422
78715W        W51783  35.780  31.437  11.048
78716W        W51784  20.836  42.656   1.633
78717W        W51785  13.090  25.338   3.517
78718W        W51786   7.218  29.132  11.618
78719W        W51787  34.462  26.324   3.237
78720W        W51788  31.019  38.985  14.321
78721W        W51789  23.802  19.644   1.497
78722W        W51790  14.307  11.068  10.818
78723W        W51791   4.163   5.507   4.213
78724W        W51792  27.864  38.788  14.938
78725W        W51793   1.783  43.553  13.456
78726W        W51794  38.558  28.677  13.471
78727W        W51795   7.654  35.016  13.497
78728W        W51796  14.404  23.998   1.365
78729W        W51797  36.472  43.804  11.574
78730W        W51798  26.148  42.576   1.293
78731W        W51799  37.763  22.428  11.825
78732W        W51800   2.450  37.653  14.424
78733W        W51801  40.380  25.944   2.107
78734W        W51802  10.232  16.567  14.372
78735W        W51803   1.186  36.429   3.211
78736W        W51804   6.449  25.030  14.059
78737W        W51805  15.632  23.221  10.754
78738W        W51806  32.589  34.011  12.340
78739W        W51807  44.541  16.587  14.832
78740W        W51808  38.989  40.039   3.240
78741W        W51809   7.035   8.338   3.324
78742W        W51810   9.529  38.925  11.281
78743W        W51811   3.690  11.868  14.319
78744W        W51812  10.290   4.750   0.637
78745W        W51813  11.159   6.292   4.624
78746W        W51814  22.855  32.086   1.618
78747W        W51815  34.076  21.227   3.627
78748W        W51816   5.834   6.339  13.354
78749W        W51817  37.143  33.226   0.384
78750W        W51818  31.091  42.130  14.523
78751W        W51819  35.641  13.765  13.825
78752W        W51820  30.542  16.199   4.307
78753W        W51821  34.307   6.193  11.576
78754W        W51822  28.840   7.692   0.790
78755W        W51823  21.577  13.887  14.449
78756W        W51824  35.542  42.807   3.250
78757W        W51825   6.429  38.635  13.752
78758W        W51826  25.051  28.871  11.579
78759W        W51827  40.460   4.760  13.846
78760W        W51828  21.687   0.852  14.078
78761W        W51829   2.777  12.833  10.595
78762W        W51830  15.749  17.075  11.699
78763W        W51831  17.671  29.028   2.597
78764W        W51832  18.182  18.018   0.956
78765W        W51833  16.698  13.453   2.037
78766W        W51834   1.560  17.096  13.111
78767W        W51835  13.727  30.968  13.082
78768W        W51836  36.804   5.450   1.225
78769W        W51837  36.537  22.125  13.472
78770W        W51838  18.560   7.283   3.340
78771W        W51839  11.895  26.577  12.139
78772W        W51840  39.468  34.943  12.179
78773W        W51841  18.200  26.938   0.742
78774W        W51842  28.026  32.659   1.839
78775W        W51843  38.246  19.596   0.945
78776W        W51844  40.769  23.449   0.852
78777W        W51845  40.904  14.788   0.762
78778W        W51846  25.514  31.694  12.972
78779W        W51847  39.877  43.341   1.902
78780W        W51848  15.997   2.121   0.840
78781W        W51849   8.293   5.729   1.485
78782W        W51850   3.236  30.038   0.074
78783W        W51851  41.482  15.777   3.780
78784W        W51852  13.832  35.639   4.722
78785W        W51853  36.181  23.573  11.908
78786W        W51854  34.565  14.725   0.883
78787W        W51855  26.943  32.923  14.911
78788W        W51856  38.055  40.350  12.130
78789W        W51857  24.163  40.658   2.209
78790W        W51858  41.490  12.425   3.034
78791W        W51859  21.700  43.735   2.268
78792W        W51860  18.095  23.569  11.539
78793W        W51861  10.013   0.681  14.523
78794W        W51862  21.757  32.131  11.538
78795W        W51863  23.702  37.099  14.347
78796W        W51864  34.277  26.756  11.235
78797W        W51865  30.912  17.040   4.241
78798W        W51866  30.623  39.088   0.263
78799W        W51867  10.753  28.918   2.524
78800W        W51868  41.215  11.660   0.452
78801W        W51869  25.236   9.413  13.011
78802W        W51870   0.977   9.351   1.896
78803W        W51871  43.513  22.086  14.018
78804W        W51872  35.222   4.854   2.794
78805W        W51873  38.504  22.532   4.289
78806W        W51874   0.052  32.914  13.543
78807W        W51875   6.185  22.365   3.778
78808W        W51876   0.795  30.510   4.611
78809W        W51877  20.987  10.504   0.297
78810W        W51878  25.698  16.342   1.811
78811W        W51879  16.793   6.879  11.891
78812W        W51880  28.383   6.323   4.796
78813W        W51881  23.314  14.214  10.648
78814W        W51882   9.450  17.155   3.843
78815W        W51883  13.321  40.921   4.781
78816W        W51884  15.877  42.119  14.714
78817W        W51885  37.392   7.462   1.395
78818W        W51886  40.066  11.514  14.806
78819W        W51887   7.217  13.168  11.336
78820W        W51888  43.183  44.476  10.196
78821W        W51889  10.936  34.881  11.169
78822W        W51890  15.099  33.065   1.720
78823W        W51891   2.809  19.220  10.503
78824W        W51892   6.722  29.008  11.642
78825W        W51893  21.667  13.976  11.887
78826W        W51894  31.953  14.702  12.493
78827W        W51895  34.807  17.634   1.730
78828W        W51896   4.839   8.368  12.428
78829W        W51897   9.138  42.397   3.360
78830W        W51898  15.566   5.918  14.875
78831W        W51899   5.409   3.934  11.409
78832W        W51900  39.037  39.537   3.184
78833W        W51901   7.191   6.627   0.032
78834W        W51902  44.013  37.526   0.324
78835W        W51903  40.715  16.661   3.820
78836W        W51904  32.567  12.411   2.825
78837W        W51905  11.294  27.441   4.076
78838W        W51906  12.669  42.368   3.522
78839W        W51907  32.434  24.264   4.207
78840W        W51908  32.411   7.758   0.917
78841W        W51909   0.243   9.170   1.387
78842W        W51910  37.526  11.496   2.375
78843W        W51911  22.567  13.613   2.590
78844W        W51912  23.197  27.406   3.225
78845W        W51913   3.695  28.620  13.508
78846W        W51914  15.826  35.355  12.344
78847W        W51915   2.613  41.939  11.603
78848W        W51916  14.484  22.543   2.412
78849W        W51917  10.716   5.188  10.738
78850W        W51918  17.657  16.869   1.204
78851W        W51919  31.121  29.509   3.183
78852W        W51920   7.602   6.687   1.864
78853W        W51921   8.460  37.626  10.900
78854W        W51922  26.634  38.265   5.247
78855W        W51923   0.500  24.103   2.341
78856W        W51924  44.263  39.600   1.841
78857W        W51925  27.996  32.045  11.663
78858W        W51926  40.079  22.570  14.470
78859W        W51927  24.870  33.812   4.205
78860W        W51928  34.493  37.401   1.196
78861W        W51929   3.589  11.875   0.944
78862W        W51930  32.474  20.953   2.914
78863W        W51931  31.738   2.943   0.512
78864W        W51932  35.613   9.313   1.317
78865W        W51933   3.163   4.787   1.532
78866W        W51934  11.305  18.641  13.376
78867W        W51935  17.155  22.091  14.560
78868W        W51936  34.000   7.706   0.810
78869W        W51937  12.134   2.465   3.844
78870W        W51938  33.044  39.909  14.969
78871W        W51939  20.775   0.945   0.755
78872W        W51940  14.342  28.714  14.899
78873W        W51941   8.764  23.004   2.692
78874W        W51942  39.976  39.453  11.323
78875W        W51943  30.669  14.484   2.159
78876W        W51944  37.173  20.102  11.124
78877W        W51945  37.084   4.667   5.177
78878W        W51946   8.417  20.201   3.376
78879W        W51947   7.258  30.157  10.699
78880W        W51948  42.988  19.707   1.834
78881W        W51949   0.509   8.307  12.485
78882W        W51950  35.371  18.483  13.405
78883W        W51951  11.500  35.309  13.932
78884W        W51952  10.691  26.305  14.856
78885W        W51953  33.934  36.659  13.574
78886W        W51954   8.695  18.126   1.595
78887W        W51955  23.274  18.494   4.528
78888W        W51956  33.095  10.435   0.686
78889W        W51957  36.901  30.401   0.096
78890W        W51958   5.786  29.230  13.395
78891W        W51959   6.417  24.274   1.786
78892W        W51960  39.324  21.576   1.797
78893W        W51961  27.277  29.509  11.998
78894W        W51962  44.288  19.531  11.548
78895W        W51963  36.546  17.805   3.891
78896W        W51964  30.455   2.504   3.522
78897W        W51965  10.821  31.957   0.052
78898W        W51966  24.404  19.646  10.239
78899W        W51967   2.227  14.623   0.440
78900W        W51968  19.776  34.683   2.323
78901W        W51969  43.912  13.863  10.470
78902W        W51970  33.454  14.900  13.124
78903W        W51971  16.702   6.769  12.613
78904W        W51972  13.839  27.921   3.903
78905W        W51973  18.397  16.009   1.419
78906W        W51974  24.595  23.691  10.704
78907W        W51975  19.714  20.840  13.466
78908W        W51976  20.687  32.000   3.193
78909W        W51977   1.948  28.335  11.538
78910W        W51978  23.669  24.632  13.555
78911W        W51979   2.430   5.278   1.392
78912W        W51980   7.624  29.999  12.759
78913W        W51981  25.096  28.907  12.508
78914W        W51982  29.052  29.263   4.200
78915W        W51983  38.028   0.487  12.742
78916W        W51984  25.045  19.327  14.752
78917W        W51985  24.859  42.372   3.353
78918W        W51986  25.777  27.445  11.634
78919W        W51987  18.665  19.511  13.980
78920W        W51988  43.251  15.410   0.967
78921W        W51989  12.137   0.961  11.895
78922W        W51990  31.961  20.897   1.832
78923W        W51991   6.191  14.783  13.827
78924W        W51992  28.495   3.947   3.648
78925W        W51993  29.161  32.949   4.094
78926W        W51994  24.959  10.770  10.516
78927W        W51995  13.757   3.895  12.104
78928W        W51996  36.970   3.695  13.416
78929W        W51997  21.997  41.062   1.446
78930W        W51998  44.785  19.163   2.339
78931W        W51999  19.764   9.412  13.047
78932W        W52000  38.032  25.538   1.520
78933W        W52001  35.908  32.994  11.702
78934W        W52002  13.629  43.908  12.444
78935W        W52003   2.810   5.815   4.069
78936W        W52004  39.082  27.924   3.789
78937W        W52005   3.350  35.513   3.484
78938W        W52006  17.487  14.784   1.064
78939W        W52007  19.972  24.623  13.639
78940W        W52008  35.528   3.711  11.637
78941W        W52009  21.625  41.423   2.798
78942W        W52010   0.873  35.064   1.360
78943W        W52011  24.187  21.201  12.365
78944W        W52012  43.466  43.368   2.812
78945W        W52013  34.553   4.759   0.258
78946W        W52014  16.319  15.144  13.100
78947W        W52015  14.706   9.626  12.966
78948W        W52016  25.658  32.142  10.746
78949W        W52017  30.936   9.470   1.755
78950W        W52018  36.899  36.069   4.457
78951W        W52019   7.632  34.508  12.011
78952W        W52020  35.293  28.643  14.362
78953W        W52021  43.869   4.059   1.937
78954W        W52022   8.034  12.097   2.328
78955W        W52023  41.298   6.482   0.834
78956W        W52024  21.975  39.123  12.396
78957W        W52025  43.433  28.549   3.356
78958W        W52026  27.178  41.485  12.948
78959W        W52027  13.256  32.416   3.990
78960W        W52028   2.919  21.887  13.940
78961W        W52029  10.910  30.457   1.410
78962W        W52030   4.711  24.447   3.226
78963W        W52031  15.874  22.245   4.836
78964W        W52032  39.856  44.070   0.682
78965W        W52033  29.425   4.966  11.074
78966W        W52034  31.095   8.446   1.563
78967W        W52035   5.826  23.034   2.706
78968W        W52036   7.223  25.626   1.874
78969W        W52037  31.874  35.000  12.391
78970W        W52038   1.974   7.240   2.412
78971W        W52039  16.385  38.338   1.226
78972W        W52040  25.244   0.164  12.640
78973W        W52041  10.166   7.585   3.641
78974W        W52042  11.842  43.050  12.846
78975W        W52043  42.394  30.645  12.634
78976W        W52044  35.970  31.209   2.900
78977W        W52045  15.413  21.034  11.094
78978W        W52046   9.685   5.249   1.745
78979W        W52047  21.514  14.256  11.507
78980W        W52048  44.107  35.044   3.634
78981W        W52049  28.430  42.250  12.619
78982W        W52050   8.888   2.025  12.160
78983W        W52051   6.210  16.326   1.859
78984W        W52052   1.482  37.355  10.950
78985W        W52053  13.099  34.429   2.187
78986W        W52054  38.301  37.469   3.857
78987W        W52055  29.460  38.849  14.017
78988W        W52056   4.758  20.025  11.667
78989W        W52057   5.344  12.256  13.744
78990W        W52058  18.043   8.581   3.952
78991W        W52059  16.748  28.733  11.054
78992W        W52060  43.424  29.410  10.725
78993W        W52061  20.903   5.255  13.026
78994W        W52062  38.127  14.741  14.995
78995W        W52063  20.966  22.540   0.311
78996W        W52064  10.341  19.824  10.215
78997W        W52065  41.329  31.278  14.980
78998W        W52066  33.619  28.076  10.012
78999W        W52067   7.242  20.592   1.736
79000W        W52068  11.628  38.787  11.662
79001W        W52069  40.322  14.617  13.750
79002W        W52070  25.939  13.718  13.977
79003W        W52071  32.596  33.546  14.017
79004W        W52072  33.593  31.452  12.192
79005W        W52073   6.935  13.604  12.073
79006W        W52074  31.181  17.467  10.104
79007W        W52075  28.237  29.779   4.099
79008W        W52076  40.677  18.867   4.481
79009W        W52077   0.985  13.177   4.876
79010W        W52078   6.467   4.759   1.065
79011W        W52079  14.261  22.288  11.183
79012W        W52080  22.913   4.806   1.709
79013W        W52081  44.356  22.998   2.175
79014W        W52082  12.196  44.284   3.611
79015W        W52083  22.632  22.802   3.568
79016W        W52084  38.472  18.338  14.030
79017W        W52085  24.433  19.495  13.441
79018W        W52086  41.329   1.057  14.738
79019W        W52087  28.513  10.840  14.845
79020W        W52088  24.550  44.088  11.517
79021W        W52089  23.651  19.106  11.907
79022W        W52090  28.986  16.928   3.775
79023W        W52091  13.390  42.488   4.109
79024W        W52092  41.536  23.120  14.737
79025W        W52093  38.491  32.942   0.574
79026W        W52094  17.635  36.567   0.808
79027W        W52095   0.536  12.551  11.130
79028W        W52096  37.123  18.496  14.930
79029W        W52097  23.624  29.433  14.843
79030W        W52098  31.625  33.540   1.470
79031W        W52099  41.368  43.791  13.093
79032W        W52100   6.969  16.228  11.367
79033W        W52101  43.441  30.680   1.473
79034W        W52102   6.140  14.263   1.854
79035W        W52103   7.177  24.638  10.684
79036W        W52104   6.287  15.146   4.690
79037W        W52105  26.191  22.219  14.743
79038W        W52106   3.544   3.831  12.502
79039W        W52107  39.540   6.057  12.021
79040W        W52108  43.466  12.763  13.093
79041W        W52109  22.057  13.654   0.894
79042W        W52110   9.361   3.941  14.783
79043W        W52111  24.638  43.875   2.242
79044W        W52112   1.668  34.958   3.671
79045W        W52113  33.810  21.065   1.011
79046W        W52114  29.043  35.331   4.452
79047W        W52115  17.635   5.928  12.747
79048W        W52116   2.779  28.921  11.378
79049W        W52117  28.340  13.862   0.963
79050W        W52118   2.903   1.762  13.616
79051W        W52119  39.454  23.449  12.826
79052W        W52120  43.803   1.840  11.852
79053W        W52121  24.578  17.659  13.391
79054W        W52122  18.992  28.099  14.461
79055W        W52123   4.753  41.499  10.215
79056W        W52124  33.430  34.120  13.853
79057W        W52125  10.379  23.122  14.693
79058W        W52126  16.224  36.354   2.362
79059W        W52127  16.434  36.147   0.263
79060W        W52128  12.687  33.996   3.474
79061W        W52129  28.974  21.161   3.954
79062W        W52130  29.791   1.215  11.548
79063W        W52131  18.735   6.647  11.192
79064W        W52132  25.178  27.141  12.114
79065W        W52133  16.234  31.645  14.089
79066W        W52134  26.943   9.339  12.411
79067W        W52135  31.682  38.965   2.800
79068W        W52136  27.714  30.541   4.597
79069W        W52137  33.904  42.415   4.915
79070W        W52138   0.751  41.467   0.609
79071W        W52139  20.325  30.758   1.213
79072W        W52140  43.005  39.643  12.102
79073W        W52141  14.119  22.565   0.076
79074W        W52142  16.974  27.871  11.235
79075W        W52143  36.580  12.550  10.032
79076W        W52144  38.873  11.294  12.142
79077W        W52145   2.066  28.435  10.573
79078W        W52146  31.905  29.099   0.830
79079W        W52147  28.115  31.668   1.919
79080W        W52148  39.114   7.875   2.823
79081W        W52149  34.025   9.360  10.647
79082W        W52150  23.630  18.236  10.648
79083W        W52151  44.437  33.105  13.902
79084W        W52152  22.705   5.916   0.841
79085W        W52153  22.067  42.893   1.965
79086W        W52154  14.191  14.779  14.165
79087W        W52155  21.037  38.907  12.944
79088W        W52156  38.370  16.203  14.242
79089W        W52157  27.642   2.417  10.398
79090W        W52158  28.962   4.316   4.231
79091W        W52159  10.750  23.466  13.759
79092W        W52160  40.323  16.762   4.581
79093W        W52161  21.142   7.938  13.486
79094W        W52162  36.665   4.610  12.911
79095W        W52163  41.977  29.067   3.863
79096W        W52164  24.162  39.437  12.769
79097W        W52165  18.257  31.354  10.548
79098W        W52166   6.410  39.322   4.357
79099W        W52167  31.585  30.590   0.906
79100W        W52168  23.685  20.619  11.960
79101W        W52169  11.641  34.330  10.603
79102W        W52170  25.745   7.727  13.477
79103W        W52171   7.377  34.588  14.932
79104W        W52172  32.373   3.638   5.122
79105W        W52173  44.917  24.586   1.523
79106W        W52174   2.277  40.968   2.444
79107W        W52175  37.877  23.385   0.932
79108W        W52176  37.724   0.046  12.640
79109W        W52177  23.018   5.986  10.612
79110W        W52178  22.398  20.183   1.427
79111W        W52179  25.839  18.580   4.033
79112W        W52180  25.057   2.986   2.417
79113W        W52181   7.097   1.772  14.707
79114W        W52182   1.157  10.254   1.313
79115W        W52183   5.235   1.773  12.460
79116W        W52184   6.254  41.011   2.891
79117W        W52185  41.470  37.347   4.614
79118W        W52186   6.160  37.460   3.290
79119W        W52187  23.104   6.173  14.542
79120W        W52188  16.519  26.921  11.076
79121W        W52189  20.178  34.810  13.765
79122W        W52190   3.091   5.825   0.048
79123W        W52191  20.695  42.313  11.635
79124W        W52192  16.587  31.658  11.608
79125W        W52193  42.893  31.124  11.184
79126W        W52194  44.896   8.138  14.267
79127W        W52195  43.603  41.419  11.032
79128W        W52196   2.822  27.495  10.983
79129W        W52197   1.372  22.717  13.658
79130W        W52198  33.519  34.125  12.866
79131W        W52199   1.491   0.360   4.149
79132W        W52200  42.858  10.628   1.230
79133W        W52201   8.906  19.195  12.909
79134W        W52202  17.064  39.558   2.878
79135W        W52203  13.771  38.345  11.596
79136W        W52204  11.064   2.375  11.538
79137W        W52205  24.105  43.089  12.089
79138W        W52206  15.259  10.345   0.054
79139W        W52207  36.991  11.633   4.428
79140W        W52208   3.250   9.339  14.865
79141W        W52209  25.688  35.187  13.475
79142W        W52210  28.478  27.110  14.629
79143W        W52211  41.504  31.581  13.886
79144W        W52212  23.177  16.255  10.678
79145W        W52213  14.797  17.684  12.538
79146W        W52214  23.251  42.998   4.609
79147W        W52215  10.779  26.004   1.704
79148W        W52216   2.872  38.495   1.665
79149W        W52217  17.967   9.876  14.522
79150W        W52218   0.332  15.684   4.494
79151W        W52219  27.623   4.854   0.795
79152W        W52220  33.056  38.266  11.002
79153W        W52221  32.487  16.829  14.191
79154W        W52222  17.380  17.116   3.335
79155W        W52223  22.014  32.495   2.808
79156W        W52224  23.765  14.847  13.858
79157W        W52225  27.633   3.477  12.026
79158W        W52226  35.366  28.471  12.525
79159W        W52227   1.568  15.630  11.962
79160W        W52228  19.649  10.853   4.942
79161W        W52229  14.160  29.420  13.850
79162W        W52230  40.812  20.192   2.837
79163W        W52231  37.335  27.692   3.813
79164W        W52232  17.565  26.668   2.237
79165W        W52233  12.843  40.528  13.922
79166W        W52234  43.821  11.378  11.094
79167W        W52235  23.758  13.102  14.379
79168W        W52236  16.761  31.406   2.787
79169W        W52237  31.779  34.624   2.829
79170W        W52238  28.818   9.445   3.307
79171W        W52239   0.704  14.725  11.595
79172W        W52240  29.653   2.788   4.358
79173W        W52241   4.198  16.059   3.710
79174W        W52242  37.918  14.318  13.800
79175W        W52243   4.862  13.785   0.717
79176W        W52244  33.059  44.866   2.878
79177W        W52245   4.097  36.609  11.973
79178W        W52246  12.777  18.588  12.532
79179W        W52247  15.065  11.285  14.470
79180W        W52248  11.376  19.762   5.097
79181W        W52249  15.634   2.613   1.273
79182W        W52250  34.912  14.622  12.049
79183W        W52251  13.859  29.413  14.858
79184W        W52252  32.484  23.248  13.540
79185W        W52253  29.895  19.612   1.128
79186W        W52254  11.613  17.096  11.997
79187W        W52255  33.354  33.169  13.910
79188W        W52256  43.639  38.601   4.005
79189W        W52257  31.241  29.603   2.252
79190W        W52258  31.067   7.174  11.352
79191W        W52259  39.637   4.771   4.199
79192W        W52260  15.230   7.229  13.820
79193W        W52261  13.102  30.209   0.093
79194W        W52262  40.369   2.739   0.581
79195W        W52263  43.554  20.013  11.482
79196W        W52264  10.292  41.041   4.385
79197W        W52265  29.075  35.615  13.083
79198W        W52266  30.206  19.711   0.731
79199W        W52267   7.275  14.262   1.234
79200W        W52268  13.856  43.155  13.357
79201W        W52269  10.305   0.721   1.439
79202W        W52270  17.708   6.909   4.344
79203W        W52271  23.579   9.193   2.131
79204W        W52272   9.754  39.252  14.999
79205W        W52273  38.889   4.712  13.435
79206W        W52274  39.950  33.553  14.454
79207W        W52275  25.420   0.778   1.932
79208W        W52276  43.381   3.450   1.378
79209W        W52277  42.254  39.000   1.879
79210W        W52278  44.532  11.838  12.500
79211W        W52279  37.377  27.570  12.767
79212W        W52280  24.807  19.157   0.278
79213W        W52281  43.889   6.743  10.816
79214W        W52282  14.367  41.848   3.333
79215W        W52283  21.574  44.562   0.859
79216W        W52284   3.953  22.983  11.458
79217W        W52285  11.628  40.102  14.370
79218W        W52286  28.168  21.142   1.421
79219W        W52287  35.304   8.843   0.607
79220W        W52288  18.114   2.251  14.013
79221W        W52289   6.429  44.961   4.154
79222W        W52290  19.136  14.780  13.516
79223W        W52291   6.291  23.184   0.144
79224W        W52292  29.388  27.479   3.543
79225W        W52293  31.948  36.317  13.045
79226W        W52294  13.267  21.150   4.579
79227W        W52295   0.779  28.160   1.241
79228W        W52296   9.370   9.790  12.067
79229W        W52297  13.657  18.616   0.874
79230W        W52298  33.150  40.766   2.286
79231W        W52299   9.148  16.781   0.490
79232W        W52300   7.318   2.329   0.289
79233W        W52301  32.950  29.547   4.175
79234W        W52302  32.334  24.229  13.076
79235W        W52303   0.004  12.094   2.239
79236W        W52304  13.776  17.571   1.084
79237W        W52305  21.737  44.934  12.744
79238W        W52306  44.889  27.700  14.988
79239W        W52307  42.995  30.984  11.671
79240W        W52308   2.832  18.586  12.213
79241W        W52309  27.670  34.871  13.813
79242W        W52310  28.673   5.023   3.199
79243W        W52311  24.135  36.168  14.755
79244W        W52312  34.410  22.107   0.063
79245W        W52313  22.730  39.006   0.415
79246W        W52314  42.789  19.448  13.455
79247W        W52315  23.214  30.104   4.544
79248W        W52316  15.061  21.410  12.058
79249W        W52317  35.836  11.075   2.122
79250W        W52318  22.734  35.510  12.623
79251W        W52319  30.473   3.512   2.848
79252W        W52320  14.149  41.859  12.949
79253W        W52321  10.465   0.796   3.672
79254W        W52322  18.697   8.278  13.164
79255W        W52323  14.637  26.605   0.774
79256W        W52324   1.684  10.219   1.294
79257W        W52325   9.314  25.689   1.846
79258W        W52326  12.076  32.033  10.833
79259W        W52327  19.872   8.119  13.739
79260W        W52328  20.097   4.505  11.157
79261W        W52329  22.840  24.471   2.298
79262W        W52330   8.923  26.664   2.663
79263W        W52331  27.444  26.029  11.546
79264W        W52332  10.612  42.869  12.066
79265W        W52333  16.232  17.818   3.005
79266W        W52334  36.549  38.101  12.898
79267W        W52335  39.833  37.987  12.838
79268W        W52336  20.176  11.152   0.281
79269W        W52337  22.968   6.819  12.516
79270W        W52338   2.813  13.056  11.928
79271W        W52339  22.600  19.663   1.504
79272W        W52340  41.802   8.339   2.398
79273W        W52341  38.861  39.844  13.818
79274W        W52342   7.784  27.964  14.379
79275W        W52343  31.349  10.117   2.798
79276W        W52344  44.983  15.994  12.212
79277W        W52345  12.141  26.411   1.300
79278W        W52346  26.408   9.404  14.214
79279W        W52347  31.861  12.138  11.593
79280W        W52348  40.817   2.850  12.886
79281W        W52349   0.522  37.852  11.049
79282W        W52350  12.370  12.626   4.060
79283W        W52351   1.976  35.560  14.590
79284W        W52352   9.784  43.022   3.698
79285W        W52353  21.666  43.323   0.253
79286W        W52354  23.048  13.151  14.926
79287W        W52355   0.582  36.911   1.696
79288W        W52356   4.867  40.964   3.622
79289W        W52357   5.255  20.992  11.474
79290W        W52358   5.007  37.395  13.545
79291W        W52359  33.924  37.223  10.695
79292W        W52360  39.574  17.298   1.260
79293W        W52361  11.376   2.237  13.445
79294W        W52362  17.866   6.843  10.691
79295W        W52363  25.632   1.023   0.920
79296W        W52364   1.888  33.763  12.328
79297W        W52365   9.301   1.219  14.536
79298W        W52366  38.490  32.118  12.168
79299W        W52367  27.717  32.245   0.014
79300W        W52368  13.000  22.792   1.547
79301W        W52369  44.568  12.538  12.528
79302W        W52370   6.623  41.899   2.869
79303W        W52371  34.842   5.213   2.724
79304W        W52372  37.287  28.403   2.353
79305W        W52373  42.441  30.028  14.833
79306W        W52374  10.465  10.083   5.043
79307W        W52375  39.661  40.638  11.190
79308W        W52376   4.275   0.344   3.615
79309W        W52377  37.942  26.219   3.855
79310W        W52378  42.080  15.062   4.953
79311W        W52379   6.923   6.155   4.089
79312W        W52380  39.536  44.329  14.266
79313W        W52381   3.770  29.574  14.613
79314W        W52382  22.451  39.073   0.862
79315W        W52383  15.256  22.000   2.877
79316W        W52384  20.472  18.122   4.148
79317W        W52385  30.655  38.070   2.496
79318W        W52386  13.349   6.354  10.646
79319W        W52387  36.514  20.063   0.057
79320W        W52388  32.873  15.830   3.281
79321W        W52389  11.713  28.929   2.913
79322W        W52390  10.966   3.298  14.499
79323W        W52391  31.515  11.692  13.639
79324W        W52392   2.158   9.917  11.954
79325W        W52393   0.311  11.310   2.569
79326W        W52394   4.835  21.752  13.661
79327W        W52395  40.955  43.074  11.155
79328W        W52396  25.643  40.686   5.452
79329W        W52397  35.869  24.115   3.274
79330W        W52398  15.575  15.845  10.316
79331W        W52399  17.835  23.328   2.693
79332W        W52400  14.887  33.438   2.522
79333W        W52401  30.388  12.715  12.340
79334W        W52402  34.371  41.548   0.876
79335W        W52403  30.472  23.146  12.086
79336W        W52404  14.856  42.855  11.639
79337W        W52405  35.954  40.941   3.762
79338W        W52406   5.754   5.472   3.989
79339W        W52407  39.344  19.747  10.896
79340W        W52408  35.887  33.657   1.257
79341W        W52409  25.362  26.604  13.290
79342W        W52410  36.042  11.621   3.647
79343W        W52411   5.948  36.798   0.816
79344W        W52412   8.822  21.471   3.691
79345W        W52413  26.257  25.535   2.278
79346W        W52414  30.377  38.812  14.294
79347W        W52415  43.397   3.266   3.777
79348W        W52416  11.962  30.857  13.583
79349W        W52417  29.386  18.065  12.928
79350W        W52418  11.822   7.078  14.226
79351W        W52419   2.210  22.002   0.161
79352W        W52420  10.212  11.678  13.311
79353W        W52421  10.131  41.302  11.908
79354W        W52422  20.236  28.450  10.412
79355W        W52423  37.582   9.693   2.700
79356W        W52424  30.452  43.812   1.022
79357W        W52425  13.726  14.295  13.023
79358W        W52426  12.199   1.299   3.621
79359W        W52427  40.623   1.389   4.714
79360W        W52428   9.334  29.045  11.139
79361W        W52429  41.518  38.985   3.202
79362W        W52430  19.825  44.988  13.332
79363W        W52431  14.835  29.113  12.900
79364W        W52432  43.265  42.122  12.109
79365W        W52433  34.571  33.084   5.036
79366W        W52434  39.282   4.707   1.246
79367W        W52435  26.530  32.081  10.683
79368W        W52436  36.331  29.196   4.519
79369W        W52437  14.646  28.570  12.011
79370W        W52438  36.200   5.240   4.336
79371W        W52439  20.028  39.509   3.189
79372W        W52440  23.345  19.547  10.266
79373W        W52441   6.557  41.554  10.277
79374W        W52442  39.928  13.463  10.162
79375W        W52443  40.900   2.439   1.185
79376W        W52444   0.773  43.558   1.769
79377W        W52445   0.529  33.618  12.602
79378W        W52446  12.937  35.448  13.983
79379W        W52447   3.318  13.712  11.557
79380W        W52448   1.042  36.100  12.974
79381W        W52449  13.269   5.346   3.200
79382W        W52450  18.508  30.927  13.495
79383W        W52451  36.122  44.555   4.244
79384W        W52452  41.975  43.334  11.093
79385W        W52453   8.084  31.013   0.368
79386W        W52454  28.799   4.577  11.701
79387W        W52455  39.048   9.661  14.523
79388W        W52456  10.129  23.990  11.491
79389W        W52457  26.034  29.692  11.445
79390W        W52458  13.461  16.562  11.960
79391W        W52459  42.125  21.295   2.472
79392W        W52460  20.594  40.550   2.937
79393W        W52461  32.108  11.880  13.858
79394W        W52462  33.383  28.236   4.091
79395W        W52463  37.766  32.729   2.821
79396W        W52464  36.153  10.217  10.643
79397W        W52465  26.564  15.738  13.809
79398W        W52466  29.561  14.801   3.342
79399W        W52467   1.419  32.179   2.468
79400W        W52468  14.858  19.660  13.525
79401W        W52469  14.536  12.421  14.418
79402W        W52470  10.623  17.451  12.599
79403W        W52471   2.277  16.187   2.394
79404W        W52472   2.828  19.621  12.629
79405W        W52473  33.371  12.139  10.737
79406W        W52474  24.635  33.597  12.015
79407W        W52475  12.737  19.275  11.672
79408W        W52476  42.195  32.911   3.239
79409W        W52477  40.391  17.811   4.597
79410W        W52478  16.132  20.969   3.194
79411W        W52479  31.576   0.148   0.829
79412W        W52480   7.120   8.732  13.976
79413W        W52481  14.752  31.635  13.048
79414W        W52482  39.377  14.357  13.085
79415W        W52483  31.691  10.244   3.168
79416W        W52484   9.832  31.170  10.463
79417W        W52485  35.144  36.009   2.666
79418W        W52486  16.618  16.837  11.919
79419W        W52487  25.936  30.587   0.986
79420W        W52488  24.171  40.421   4.045
79421W        W52489   6.491  37.455  11.579
79422W        W52490  42.312  13.101  12.090
79423W        W52491  19.708  20.701  11.623
79424W        W52492   5.755  10.681  13.766
79425W        W52493  41.958   9.024  10.973
79426W        W52494  19.569  37.039   2.718
79427W        W52495  14.602   8.197  14.544
79428W        W52496   9.873  36.885   3.278
79429W        W52497  43.520  44.890   1.795
79430W        W52498  10.585  36.161  11.831
79431W        W52499  19.972  44.317  13.493
79432W        W52500  26.983  14.206  14.363
79433W        W52501   5.816  11.524  14.296
79434W        W52502  32.698  14.233  12.401
79435W        W52503  16.613  14.802  11.982
79436W        W52504  24.384  22.439  13.405
79437W        W52505   9.467   8.283  14.928
79438W        W52506  16.180   4.772  12.095
79439W        W52507   4.306  30.004   2.476
79440W        W52508  25.156   3.758  11.726
79441W        W52509   4.881  22.232   2.229
79442W        W52510  34.455   0.538   2.263
79443W        W52511  10.279   4.008   1.858
79444W        W52512  28.364   1.328  13.124
79445W        W52513  32.695  12.606  12.093
79446W        W52514  17.791  42.539  12.967
79447W        W52515  18.749  24.332  13.542
79448W        W52516  28.479   3.876  12.973
79449W        W52517  40.121  40.915   4.309
79450W        W52518  32.894   2.966   2.661
79451W        W52519   4.581  36.423  11.933
79452W        W52520  41.884   2.200   1.949
79453W        W52521  17.797  13.634  14.280
79454W        W52522  14.225  30.238   2.820
79455W        W52523  22.254  30.181  12.922
79456W        W52524  40.894  38.371   3.793
79457W        W52525   5.853  11.758   3.641
79458W        W52526  24.541  39.305   4.461
79459W        W52527  34.506  40.278   3.368
79460W        W52528  12.349  34.975   0.090
79461W        W52529   0.302  16.212  11.440
79462W        W52530  21.577  31.352  11.171
79463W        W52531  30.577  24.602   3.748
79464W        W52532  19.202  11.158  13.225
79465W        W52533  37.757  33.521   0.512
79466W        W52534  27.523  42.055   4.537
79467W        W52535  37.023  43.729  11.193
79468W        W52536   3.684  29.409   4.142
79469W        W52537  26.718  22.466   2.311
79470W        W52538   8.137  29.671  10.836
79471W        W52539   5.019  28.367  14.713
79472W        W52540  31.577   1.029   2.780
79473W        W52541   7.948  36.378  13.788
79474W        W52542  20.426  27.089   2.231
79475W        W52543  13.033  19.068   4.167
79476W        W52544  22.153  35.208  14.215
79477W        W52545  11.330   5.250   4.455
79478W        W52546  29.118  24.230  11.579
79479W        W52547  12.536  39.816   4.135
79480W        W52548  33.579   4.577  13.885
79481W        W52549  32.564   3.188   2.269
79482W        W52550  40.069  32.138   1.766
79483W        W52551  32.658  41.890  14.093
79484W        W52552  25.715  36.822   0.948
79485W        W52553  37.401   3.393   1.717
79486W        W52554  33.570   3.910  12.491
79487W        W52555  14.875  36.551  14.396
79488W        W52556  40.598   1.898  14.978
79489W        W52557  35.576  19.561   0.933
79490W        W52558  34.173  32.535  14.985
79491W        W52559  18.997  12.291  13.433
79492W        W52560   9.951  22.528  11.124
79493W        W52561   9.711  17.783  14.501
79494W        W52562   9.992  40.467  14.797
79495W        W52563  36.441   5.468   4.822
79496W        W52564  29.263  10.421   3.186
79497W        W52565  39.503   6.400  14.438
79498W        W52566  11.620  37.377  14.440
79499W        W52567  10.770  37.778   2.773
79500W        W52568   3.255  30.242  10.407
79501W        W52569  35.489   8.272  14.714
79502W        W52570   4.561  23.558   2.725
79503W        W52571  26.935  12.346  12.023
79504W        W52572  37.932  36.871  14.321
79505W        W52573  28.229  15.594  14.576
79506W        W52574  37.860   5.814   2.791
79507W        W52575  38.388  10.133  10.741
79508W        W52576  32.092   5.615  11.566
79509W        W52577  10.813  32.105  12.106
79510W        W52578  19.781  43.921   1.762
79511W        W52579  36.687  41.255  13.432
79512W        W52580  29.037  10.886   4.188
79513W        W52581  30.422  21.545  10.452
79514W        W52582  23.015  19.835   4.445
79515W        W52583   7.790  23.657   3.855
79516W        W52584  12.050  25.957   2.269
79517W        W52585  17.269  24.139   0.469
79518W        W52586   7.722  29.404   2.712
79519W        W52587   0.619  41.044  12.037
79520W        W52588  32.383  41.341   3.141
79521W        W52589  17.240  18.779   0.471
79522W        W52590  10.793   2.479   4.803
79523W        W52591  32.335   9.196   1.035
79524W        W52592  42.279  29.597   2.649
79525W        W52593  30.255  21.689   2.791
79526W        W52594  22.469   8.385   3.250
79527W        W52595  34.080  28.515  12.198
79528W        W52596  29.270   0.467  12.809
79529W        W52597   9.920  37.317   4.732
79530W        W52598   5.451  44.933  12.893
79531W        W52599  25.213  36.461  12.082
79532W        W52600  10.346  27.957  14.488
79533W        W52601  12.213  41.337   2.402
79534W        W52602  20.279  25.532  14.955
79535W        W52603  43.768  43.503  14.344
79536W        W52604  17.329  40.868   4.693
79537W        W52605   8.578  32.862  13.619
79538W        W52606  25.972  21.539   1.320
79539W        W52607  25.966  21.533   0.412
79540W        W52608  41.585   1.367   4.714
79541W        W52609  20.067   7.804  11.569
79542W        W52610  27.519  39.541  13.955
79543W        W52611  16.543  41.478  11.924
79544W        W52612  41.026  21.640  10.503
79545W        W52613   0.434  34.573  11.591
79546W        W52614  35.534  13.301  12.964
79547W        W52615   1.894   5.236   0.314
79548W        W52616   6.284  29.455   1.261
79549W        W52617  39.498  33.425   1.937
79550W        W52618   5.328  33.045   2.117
79551W        W52619  37.881  35.787   2.482
79552W        W52620  43.788  19.387  12.428
79553W        W52621  13.301   1.392  12.549
79554W        W52622   9.786  18.781  11.505
79555W        W52623  34.229  19.620   0.991
79556W        W52624   2.729  32.618   1.660
79557W        W52625  31.096  14.787   0.959
79558W        W52626  29.940  35.089   3.239
79559W        W52627  37.372   6.307   1.299
79560W        W52628  35.123  19.783   4.938
79561W        W52629  28.765  36.592  11.060
79562W        W52630   2.540  20.060   1.998
79563W        W52631  35.044  36.968  12.220
79564W        W52632  28.403  11.665  12.299
79565W        W52633  25.425  20.585   3.700
79566W        W52634  15.851  24.034   1.787
79567W        W52635   3.811   1.203   3.262
79568W        W52636  27.182  38.533   2.964
79569W        W52637  38.843  19.735  13.084
79570W        W52638  41.471  11.350   1.761
79571W        W52639  26.198   3.992   4.485
79572W        W52640  41.797  19.305   2.176
79573W        W52641   0.851  21.153   1.407
79574W        W52642  39.249  19.760   5.008
79575W        W52643  43.820  39.423  12.540
79576W        W52644  35.059   6.351  13.241
79577W        W52645  13.017  29.995   3.430
79578W        W52646  36.332  35.485   0.306
79579W        W52647  17.814  28.700   3.678
79580W        W52648  20.498  27.374  11.290
79581W        W52649  23.218  36.376  13.107
79582W        W52650  38.713  32.064  14.434
79583W        W52651  43.057  22.011   4.959
79584W        W52652   9.612  43.537   3.744
79585W        W52653  34.000  18.546   4.554
79586W        W52654  23.122  24.608  14.405
79587W        W52655   8.500  23.981  14.777
79588W        W52656  37.873   1.088   3.266
79589W        W52657  42.686  34.096   1.934
79590W        W52658  42.647  41.153   0.915
79591W        W52659  22.505  33.452   4.807
79592W        W52660  19.076  42.780  13.376
79593W        W52661   8.235  11.775   3.729
79594W        W52662   2.729  34.402  14.255
79595W        W52663  39.789  27.166   0.919
79596W        W52664   4.422  10.729  13.487
79597W        W52665  25.472  21.169   2.332
79598W        W52666   1.939  23.294  14.111
79599W        W52667  27.980  20.493   0.026
79600W        W52668  18.583   7.593   2.222
79601W        W52669   1.486   2.405   0.333
79602W        W52670   5.049  21.780  10.574
79603W        W52671   0.822  12.891  12.597
79604W        W52672   1.859  13.463   2.313
79605W        W52673  44.569  16.232  14.443
79606W        W52674  16.373  24.196   3.978
79607W        W52675  44.840  17.013  11.924
79608W        W52676   5.358  38.548  14.521
79609W        W52677   6.449  32.187   3.108
79610W        W52678  10.768  12.746  12.609
79611W        W52679  36.314  41.071  13.916
79612W        W52680  18.647  34.106   4.358
79613W        W52681  39.511  36.484   4.098
79614W        W52682  38.378   5.502   0.507
79615W        W52683  25.375   7.899  13.847
79616W        W52684   1.921   1.409  14.467
79617W        W52685  24.504  29.601   2.295
79618W        W52686  24.768  41.976   1.614
79619W        W52687  13.444   2.382   1.744
79620W        W52688  10.763  12.607   1.181
79621W        W52689  35.072  33.127   1.590
79622W        W52690   5.868  44.305   2.100
79623W        W52691  33.996  23.760  14.027
79624W        W52692  15.977  37.412  12.481
79625W        W52693  14.782  14.768   5.068
79626W        W52694  34.379  12.061  13.470
79627W        W52695   6.442  29.473  11.503
79628W        W52696  28.623  35.140  11.661
79629W        W52697  42.676  14.039  14.840
79630W        W52698  17.584  19.935   3.738
79631W        W52699  14.117   5.140   0.516
79632W        W52700  36.363   1.611  13.717
79633W        W52701  16.282  29.607  11.817
79634W        W52702  32.626  25.015   1.199
79635W        W52703  34.467  33.051  11.851
79636W        W52704  19.738  43.797  12.983
79637W        W52705   8.108  11.260  14.354
79638W        W52706  27.010  31.006  13.883
79639W        W52707  38.220   2.802  11.422
79640W        W52708  39.739  37.033  13.842
79641W        W52709   7.273  15.957   2.391
79642W        W52710  44.014  18.198   1.912
79643W        W52711   7.645  25.215  14.382
79644W        W52712  17.628  12.702  14.426
79645W        W52713  22.918  11.684  11.487
79646W        W52714  34.495  31.239   4.661
79647W        W52715  26.169  37.810   3.602
79648W        W52716  34.144  34.423   4.021
79649W        W52717  11.854   3.898  14.510
79650W        W52718  18.249  27.494  11.127
79651W        W52719   3.235   1.516   2.746
79652W        W52720  14.343   9.843  11.564
79653W        W52721   7.668  37.529  13.341
79654W        W52722  20.584  30.666   3.706
79655W        W52723  16.023  23.536  10.955
79656W        W52724  24.253   8.003   0.525
79657W        W52725   0.671  16.083   3.736
79658W        W52726  21.466  18.369  10.373
79659W        W52727  24.709  15.843  12.863
79660W        W52728  35.559  33.053   1.765
79661W        W52729  17.319  38.969  13.044
79662W        W52730  26.571  14.350   1.036
79663W        W52731  19.630  26.789   4.149
79664W        W52732  24.303   3.942   1.717
79665W        W52733   9.680   9.781   3.619
79666W        W52734  24.629  41.457   1.824
79667W        W52735  39.457  40.271  11.492
79668W        W52736   1.330  38.454   2.289
79669W        W52737   7.612   0.974  12.057
79670W        W52738  24.477  24.790   2.783
79671W        W52739  23.953   0.269   4.729
79672W        W52740  36.608  25.202  12.299
79673W        W52741  43.745  15.047  11.738
79674W        W52742  21.748  15.441  12.091
79675W        W52743  16.334  27.579  13.041
79676W        W52744  12.427  20.891  12.439
79677W        W52745  16.147  40.443   2.132
79678W        W52746  25.277  34.288   4.160
79679W        W52747  33.479   9.145  14.843
79680W        W52748  24.615   1.248  10.705
79681W        W52749  38.125  23.480   4.247
79682W        W52750  25.411  25.156  14.486
79683W        W52751  21.550  20.595   2.711
79684W        W52752  30.445  39.256   1.706
79685W        W52753   9.874  16.113  11.260
79686W        W52754  42.576   6.054  13.482
79687W        W52755  14.389   5.230  13.148
79688W        W52756  16.162   0.442   3.689
79689W        W52757  29.030  34.011  12.818
79690W        W52758  14.921  17.423  10.142
79691W        W52759  13.262  28.327   3.352
79692W        W52760  30.451  27.469   3.267
79693W        W52761  25.088  15.895   5.040
79694W        W52762  14.569  37.949  10.610
79695W        W52763   3.238  28.986   2.218
79696W        W52764  29.072  18.219  11.027
79697W        W52765  15.217  21.055  12.440
79698W        W52766  37.507  14.233  10.679
79699W        W52767   9.310   5.525  12.099
79700W        W52768  20.551  11.893   1.716
79701W        W52769   6.695  42.816  14.287
79702W        W52770  30.465  11.144  13.133
79703W        W52771   0.185   9.138   2.246
79704W        W52772  31.645  41.770  11.066
79705W        W52773  43.004  38.995   0.509
79706W        W52774   2.964  43.365   3.855
79707W        W52775  20.032  14.879   4.602
79708W        W52776  12.252  12.161   3.803
79709W        W52777   8.493   3.660  13.856
79710W        W52778  43.291  34.666  12.077
79711W        W52779  26.210   4.887   0.285
79712W        W52780   2.545  20.859  12.570
79713W        W52781  42.220  36.362   4.116
79714W        W52782  26.481  31.487   2.927
79715W        W52783   0.698  42.321  10.448
79716W        W52784  40.852  14.393  14.928
79717W        W52785  31.868   9.455  11.119
79718W        W52786  25.042  30.523  10.430
79719W        W52787   3.713  18.248  13.028
79720W        W52788  11.713   8.154   1.798
79721W        W52789  16.113  15.772  11.588
79722W        W52790   9.854   6.858   4.590
79723W        W52791  36.909  43.541  14.855
79724W        W52792   1.204   9.804   1.759
79725W        W52793  21.549  21.962   0.887
79726W        W52794  42.542  42.962  10.356
79727W        W52795   4.929  38.278   0.237
79728W        W52796  35.744  20.550   0.736
79729W        W52797  43.543   2.374  13.105
79730W        W52798  42.214  28.245   2.648
79731W        W52799   5.779  15.166   4.586
79732W        W52800  25.168  15.290  14.872
79733W        W52801  25.937  42.780   3.703
79734W        W52802  36.180  12.172   1.089
79735W        W52803  10.245  35.517   0.269
79736W        W52804  39.040  35.186   4.411
79737W        W52805  27.380  18.560  10.739
79738W        W52806  43.083   5.333  13.146
79739W        W52807  28.142  33.210   2.698
79740W        W52808  44.547  30.007  13.963
79741W        W52809   1.314  27.870   3.673
79742W        W52810  31.395   8.596   1.197
79743W        W52811  24.968   9.235  14.051
79744W        W52812  20.233  21.040  12.081
79745W        W52813  30.688  38.601  13.619
79746W        W52814  10.328  12.854   1.428
79747W        W52815  26.972  44.535   2.905
79748W        W52816  41.614   2.508   0.461
79749W        W52817   6.655  23.790  13.308
79750W        W52818  20.440  39.481   0.163
79751W        W52819   4.400  39.531   2.175
79752W        W52820  42.977  34.188   2.758
79753W        W52821  32.385  12.998   0.319
79754W        W52822  34.886  29.275  12.422
79755W        W52823  41.323  25.670  12.488
79756W        W52824  16.247  19.789   4.601
79757W        W52825  12.996   7.247   2.439
79758W        W52826  33.851  22.208  10.152
79759W        W52827  16.402   1.798   5.214
79760W        W52828  41.490  23.546   4.208
79761W        W52829   8.336   4.297   4.697
79762W        W52830  26.980  42.679  12.493
79763W        W52831  15.611  44.782  13.056
79764W        W52832  11.294  18.121  13.345
79765W        W52833  31.409  31.819   3.428
79766W        W52834  23.606  35.426   3.296
79767W        W52835  11.560  19.499  10.395
79768W        W52836  13.648   3.767   2.197
79769W        W52837  34.400  43.511  12.517
79770W        W52838  15.648  17.064  10.770
79771W        W52839  40.377  34.593  14.162
79772W        W52840  28.242  21.065  12.393
79773W        W52841  10.695   1.125  12.920
79774W        W52842  28.654   5.409   0.955
79775W        W52843  16.787  29.638   3.208
79776W        W52844  29.521  20.335   4.205
79777W        W52845   9.143  25.514   2.347
79778W        W52846  44.847   1.848  12.000
79779W        W52847  27.937  40.919   3.744
79780W        W52848  17.541   8.375   4.862
79781W        W52849  32.718  36.917   2.863
79782W        W52850  11.249   5.461   3.989
79783W        W52851  21.748  42.991  13.221
79784W        W52852  16.921  23.740   1.753
79785W        W52853  39.498  10.850   3.288
79786W        W52854  12.767  19.970   2.199
79787W        W52855  28.500  43.095   9.827
79788W        W52856  13.352  32.400   1.317
79789W        W52857  40.918  44.738  12.320
79790W        W52858   9.677  38.461  12.321
79791W        W52859  34.569  31.447   4.172
79792W        W52860  36.787  12.904  12.009
79793W        W52861  29.930  32.952   4.578
79794W        W52862  44.717   7.696   0.030
79795W        W52863  18.686  34.590   2.617
79796W        W52864   2.963   6.327  11.833
79797W        W52865  20.234   9.583  11.183
79798W        W52866  17.232  41.861   1.165
79799W        W52867  44.696  26.534  12.834
79800W        W52868  37.541  30.700   0.707
79801W        W52869  31.458  39.913   1.678
79802W        W52870   0.883  32.122  11.114
79803W        W52871  24.449  22.158   3.084
79804W        W52872  33.975  10.553   2.413
79805W        W52873  12.115  23.457   0.497
79806W        W52874   3.925   5.422  12.431
79807W        W52875  41.477  31.124  12.468
79808W        W52876  17.161  24.717  13.900
79809W        W52877  39.917  19.300  10.798
79810W        W52878  21.124  28.784   2.844
79811W        W52879  27.445  22.005  10.978
79812W        W52880   3.706   0.961  13.873
79813W        W52881   9.106  14.166   1.324
79814W        W52882  21.315  35.424   1.413
79815W        W52883  34.011   9.576   1.429
79816W        W52884  25.472   3.478  11.030
79817W        W52885  15.904  35.515  11.860
79818W        W52886  27.754  42.878  10.740
79819W        W52887   4.022   5.926   2.783
79820W        W52888  19.043  43.892   0.992
79821W        W52889  21.974  11.732   4.886
79822W        W52890   3.298  12.722  12.694
79823W        W52891   3.415  19.411   1.441
79824W        W52892   8.907   1.895   3.692
79825W        W52893  13.320  37.909  12.541
79826W        W52894   1.995  35.153  11.569
79827W        W52895  39.432   4.211  14.060
79828W        W52896  18.061   5.709   0.395
79829W        W52897   1.774  15.572  14.692
79830W        W52898   5.364  10.885  12.515
79831W        W52899  28.477  17.780  12.122
79832W        W52900  43.541   6.449  12.051
79833W        W52901  40.999  40.758   0.740
79834W        W52902  44.244  34.463   4.857
79835W        W52903  35.416  32.884  10.719
79836W        W52904  16.572   4.810   4.280
79837W        W52905  32.459  43.938  10.583
79838W        W52906  39.307   1.178   9.788
79839W        W52907   3.933  21.508   2.866
79840W        W52908  35.633  18.374   3.327
79841W        W52909  10.448  33.110  13.144
79842W        W52910  13.169  19.817  14.877
79843W        W52911   8.398  33.916  11.041
79844W        W52912  16.074   9.294  14.010
79845W        W52913  12.106  12.261   4.295
79846W        W52914  15.979  40.760   2.815
79847W        W52915  43.789  18.720   2.598
79848W        W52916  23.232  33.979   2.669
79849W        W52917  16.460  25.993  11.189
79850W        W52918  11.779  36.526   3.609
79851W        W52919  27.528   5.657   4.514
79852W        W52920  32.991  23.235  12.314
79853W        W52921   3.939  29.638   0.114
79854W        W52922  11.328  32.246  10.780
79855W        W52923  10.728  22.991   4.290
79856W        W52924  40.259  19.159   0.431
79857W        W52925  14.306  40.754   1.799
79858W        W52926  18.566  38.044  14.782
79859W        W52927   7.400   3.417   1.029
79860W        W52928  19.567  15.018  10.706
79861W        W52929  16.394  33.560   4.855
79862W        W52930  27.676   1.026  13.468
79863W        W52931  10.373  10.806  13.362
79864W        W52932  21.535  36.170  12.487
79865W        W52933  28.533  19.445   0.713
79866W        W52934   5.936  29.627  11.472
79867W        W52935  13.861  19.183  12.879
79868W        W52936  27.670   4.772   4.890
79869W        W52937  40.962   1.461   3.805
79870W        W52938  16.079  27.296  14.440
79871W        W52939  33.549  33.633  10.104
79872W        W52940  29.298  39.282   2.128
79873W        W52941   9.130  44.252  10.805
79874W        W52942  11.744  38.093   3.149
79875W        W52943  42.606  14.398  11.475
79876W        W52944  42.392  43.164  13.793
79877W        W52945  20.947  31.913   1.928
79878W        W52946  25.599  33.516   4.555
79879W        W52947  19.503   1.008  11.669
79880W        W52948   9.169   7.391   1.309
79881W        W52949   4.458  27.848  14.424
79882W        W52950  15.656  29.451   0.853
79883W        W52951   2.706  37.646  13.924
79884W        W52952   3.284  44.320   3.112
79885W        W52953  38.023   6.876   2.323
79886W        W52954  40.992   1.978   0.959
79887W        W52955   9.399  35.430   2.024
79888W        W52956   9.708  20.878  14.265
79889W        W52957  10.418  16.632   2.398
79890W        W52958  32.563  14.809   1.937
79891W        W52959   8.405  43.703   0.566
79892W        W52960  36.448  19.603   0.348
79893W        W52961  16.556   2.481   2.400
79894W        W52962  41.379   6.949   1.784
79895W        W52963   2.081  33.945   2.806
79896W        W52964  19.194  22.148  14.499
79897W        W52965  14.403  41.839   4.206
79898W        W52966  11.193  20.024  14.365
79899W        W52967  24.215  16.097  11.723
79900W        W52968  31.467   6.771  12.387
79901W        W52969  40.397   9.654  12.366
79902W        W52970  23.978  17.975   2.352
79903W        W52971  33.385   0.557   3.234
79904W        W52972  13.152   8.409  11.649
79905W        W52973  14.624  15.764  14.131
79906W        W52974   4.406  31.207  10.707
79907W        W52975   4.748  43.298   0.905
79908W        W52976  20.693  32.204   3.680
79909W        W52977  26.160  14.305   0.181
79910W        W52978  18.662  18.667  13.418
79911W        W52979  42.900   8.439   0.182
79912W        W52980  42.886  22.470   4.760
79913W        W52981  12.662  22.779   3.309
79914W        W52982   1.632  29.157   2.774
79915W        W52983   8.217  20.516  12.390
79916W        W52984  15.746  26.935  12.981
79917W        W52985  39.019  38.169   2.909
79918W        W52986  14.123  35.404   0.924
79919W        W52987  22.063  32.358  13.877
79920W        W52988   9.149  13.394  11.577
79921W        W52989  34.202  16.263   4.160
79922W        W52990  42.303  15.151  11.138
79923W        W52991  28.684   2.767   0.327
79924W        W52992  38.431  14.402  13.884
79925W        W52993  12.953  31.970   4.809
79926W        W52994  37.105  42.106  12.348
79927W        W52995  33.628  43.394   3.863
79928W        W52996  25.413  23.685   4.612
79929W        W52997   1.371  21.762   3.090
79930W        W52998  10.671   8.254  10.859
79931W        W52999  34.560  29.526  14.295
79932W        W53000  33.480   2.587  11.873
79933W        W53001  29.620  34.216  11.938
79934W        W53002  21.680  31.728  12.492
79935W        W53003  33.435  21.701  11.719
79936W        W53004  16.323  14.623  11.567
79937W        W53005  27.101  28.574   3.685
79938W        W53006  38.364   0.889  12.622
79939W        W53007  13.720  44.783   2.286
79940W        W53008  39.108  24.204   2.391
79941W        W53009  24.961  22.867  14.327
79942W        W53010  25.089   4.467  13.334
79943W        W53011  21.923   0.987  10.262
79944W        W53012  28.458  15.095   1.412
79945W        W53013  39.085  31.707   3.638
79946W        W53014  12.586  33.918  14.337
79947W        W53015  38.108   4.213   2.809
79948W        W53016  32.306   9.057  12.011
79949W        W53017  42.021  25.606  13.628
79950W        W53018  29.880   1.296  12.884
79951W        W53019  34.371  41.513  11.179
79952W        W53020  25.122  28.960  10.585
79953W        W53021   8.966  39.613   0.798
79954W        W53022  10.088  14.433   1.552
79955W        W53023  17.802   7.241   1.211
79956W        W53024   5.114  17.148  13.852
79957W        W53025  15.101  37.890  13.291
79958W        W53026   4.238   1.776  12.541
79959W        W53027  21.580   0.254  11.017
79960W        W53028   4.481   9.355   2.332
79961W        W53029  13.066  30.973  14.386
79962W        W53030  14.663  15.049   4.665
79963W        W53031  34.671  31.447  12.032
79964W        W53032  41.810  24.276  12.175
79965W        W53033  29.862  32.139   2.917
79966W        W53034  24.067  40.570  14.789
79967W        W53035   3.069  10.742  14.974
79968W        W53036   3.315  16.767   4.344
79969W        W53037  16.086   6.967  11.580
79970W        W53038  15.702   4.505  14.126
79971W        W53039   8.824  15.657  10.608
79972W        W53040  16.409  44.279   2.838
79973W        W53041  20.030  39.275  14.958
79974W        W53042  42.774   5.638  11.465
79975W        W53043  29.898  26.406  12.015
79976W        W53044   3.042   0.374  13.013
79977W        W53045  27.714  25.610  13.883
79978W        W53046  28.066  44.405  11.689
79979W        W53047  28.460  26.157   2.844
79980W        W53048   7.880   4.356  12.074
79981W        W53049  32.500   2.806  13.289
79982W        W53050   9.120  15.710  13.556
79983W        W53051  12.144  27.416  12.051
79984W        W53052  13.083   5.934  12.998
79985W        W53053  12.188  37.007   1.547
79986W        W53054  38.501   4.446  14.393
79987W        W53055   3.303  13.406   1.779
79988W        W53056  20.174   2.834  12.039
79989W        W53057  30.113  35.571   1.744
79990W        W53058  20.044  10.087  10.339
79991W        W53059  25.009   9.448   0.885
79992W        W53060  16.986  38.893  11.504
79993W        W53061  20.172   4.201   0.415
79994W        W53062  36.300   2.189  12.876
79995W        W53063   2.287   9.749   4.370
79996W        W53064  19.601  43.863   0.815
79997W        W53065  33.802  34.856   3.940
79998W        W53066  26.502  21.125  13.038
79999W        W53067   8.267   9.899  12.438
80000W        W53068  39.667  38.004   4.291
80001W        W53069  18.299  39.263  13.777
80002W        W53070   4.599  34.981  12.849
80003W        W53071  33.384   8.957   3.855
80004W        W53072  41.236   4.203  11.103
80005W        W53073   7.862   6.401   4.612
80006W        W53074  34.573   9.301   0.295
80007W        W53075  11.607  27.062  10.940
80008W        W53076  43.274  37.747  11.030
80009W        W53077  11.753  26.620  12.638
80010W        W53078  43.088  15.079   2.772
80011W        W53079   2.563  40.340  10.724
80012W        W53080  37.868  28.150   0.742
80013W        W53081  14.765   5.339   4.542
80014W        W53082  38.575   2.757   1.406
80015W        W53083  35.431   0.433  14.406
80016W        W53084  43.776  27.112  11.867
80017W        W53085  34.813  23.723   3.148
80018W        W53086  41.524  19.161   4.329
80019W        W53087  37.542  28.063  12.815
80020W        W53088  33.122   1.335   3.090
80021W        W53089  37.045  34.567  12.558
80022W        W53090  40.837  17.815   1.864
80023W        W53091   6.912  37.421  13.026
80024W        W53092  28.131  33.832   3.939
80025W        W53093  40.335  19.105  11.702
80026W        W53094  23.998  11.105   4.114
80027W        W53095  23.894  42.281  11.584
80028W        W53096   7.024  39.879  11.228
80029W        W53097  14.539  44.450  13.719
80030W        W53098  26.018   8.442   3.749
80031W        W53099  44.497  13.267   3.320
80032W        W53100   9.616   9.695   0.952
80033W        W53101  36.313  42.829  11.635
80034W        W53102  41.493   7.169   4.810
80035W        W53103  21.256  31.632   4.200
80036W        W53104  36.078   9.355   4.711
80037W        W53105  43.269  43.976  12.552
80038W        W53106   5.108  20.860  10.633
80039W        W53107  30.547  12.433   0.818
80040W        W53108  42.987  18.651   2.248
80041W        W53109  31.584   2.664   3.535
80042W        W53110  12.684   6.480   2.680
80043W        W53111   0.010  12.073  11.157
80044W        W53112  40.884  11.062  13.284
80045W        W53113  21.554  31.470   4.918
80046W        W53114  42.806  44.721   4.231
80047W        W53115  39.614   7.802   2.836
80048W        W53116  35.317  12.153   4.825
80049W        W53117   4.800  27.958   2.166
80050W        W53118  24.802  44.253  11.109
80051W        W53119  33.181  43.236  13.026
80052W        W53120   5.777  21.764   0.059
80053W        W53121   5.742  40.811   3.581
80054W        W53122  15.770  27.394  11.103
80055W        W53123  26.526  39.847  10.653
80056W        W53124   6.380  20.284   4.070
80057W        W53125   3.173  32.572  13.318
80058W        W53126  44.744  15.789   3.130
80059W        W53127  16.152  44.906  14.339
80060W        W53128   6.815  35.501   3.362
80061W        W53129  24.683  12.199  14.388
80062W        W53130  29.061  35.208   3.665
80063W        W53131  38.356  31.556  14.932
80064W        W53132  37.949  11.883   2.001
80065W        W53133  31.138  16.367   1.825
80066W        W53134   2.793  26.828  14.423
80067W        W53135  14.166  11.084  12.132
80068W        W53136  25.497   0.923  13.896
80069W        W53137  29.579  42.217   0.187
80070W        W53138  11.918   1.856  14.014
80071W        W53139   4.728  35.005  14.235
80072W        W53140   4.327  26.126  10.633
80073W        W53141  10.823  36.749  11.027
80074W        W53142   7.263  11.304   4.568
80075W        W53143  32.098  30.353  13.524
80076W        W53144  40.343  29.818  10.922
80077W        W53145   2.552  40.310  14.914
80078W        W53146  15.826  44.394   2.372
80079W        W53147   2.542  17.563  13.010
80080W        W53148  40.899   7.966  14.258
80081W        W53149  42.526  10.629   2.341
80082W        W53150  15.914  17.190  13.461
80083W        W53151   9.594  14.081   3.586
80084W        W53152  13.157  31.228   3.701
80085W        W53153   1.197  40.949   1.411
80086W        W53154  37.276  19.871  12.469
80087W        W53155  35.477  10.275   2.300
80088W        W53156  14.030  38.147   2.377
80089W        W53157  23.631  36.412   3.802
80090W        W53158  42.048   5.217   0.377
80091W        W53159   7.936   8.486   0.571
80092W        W53160   9.759   2.474   1.181
80093W        W53161  13.588  10.029  14.956
80094W        W53162   3.499   9.862   1.338
80095W        W53163  41.973   1.052   0.444
80096W        W53164  18.310  31.493   2.521
80097W        W53165   2.447  22.327   3.000
80098W        W53166   8.744   1.872  12.800
80099W        W53167   6.411   6.383  11.286
80100W        W53168  33.426  38.497   2.700
80101W        W53169   7.399  38.889   4.404
80102W        W53170  34.406  44.426   4.821
80103W        W53171  44.307  24.264  13.791
80104W        W53172  39.554  16.683   4.121
80105W        W53173  28.585  22.778   2.143
80106W        W53174  41.401  13.241  13.821
80107W        W53175  18.538  21.266   3.163
80108W        W53176   7.854  14.645  12.387
80109W        W53177  39.957  14.192   4.626
80110W        W53178  29.456  14.640  12.703
80111W        W53179  16.674  20.337  12.486
80112W        W53180  36.851  11.526   1.831
80113W        W53181   4.681  28.959  11.852
80114W        W53182   7.029  23.145  14.452
80115W        W53183  30.428  30.921   4.629
80116W        W53184  19.837   4.704   1.004
80117W        W53185  22.743  22.383  12.027
80118W        W53186  36.012  26.559   2.425
80119W        W53187   9.679  38.801  14.767
80120W        W53188  37.037  20.129   0.825
80121W        W53189  28.513  19.210  10.443
80122W        W53190  44.211  29.532   3.575
80123W        W53191   5.294  25.588   0.852
80124W        W53192  13.726  39.231   3.876
80125W        W53193  18.177   5.275   4.213
80126W        W53194   8.393  35.714  11.948
80127W        W53195  42.754   6.445  12.420
80128W        W53196  29.315  18.282   0.327
80129W        W53197   6.415  41.377   1.349
80130W        W53198  31.870  41.866  12.396
80131W        W53199  27.712  33.179  14.393
80132W        W53200  30.615  19.127  10.672
80133W        W53201   8.743  31.192   1.113
80134W        W53202   4.839  36.115   4.547
80135W        W53203  14.420  10.329   2.374
80136W        W53204  28.828  25.433  14.482
80137W        W53205  44.915  17.922   4.091
80138W        W53206  15.235  23.238  11.710
80139W        W53207  38.905  35.105  12.020
80140W        W53208  23.129  37.484   3.014
80141W        W53209  18.528  29.068  14.497
80142W        W53210  36.585  33.966   1.456
80143W        W53211  11.279  42.231   0.792
80144W        W53212  27.040  17.826  11.095
80145W        W53213  35.329  31.592   0.837
80146W        W53214  24.189  40.947   4.918
80147W        W53215  44.972  28.860  13.280
80148W        W53216  23.008  20.366  13.369
80149W        W53217  38.765  44.890  14.414
80150W        W53218  21.157  30.206   0.211
80151W        W53219  33.913  15.014   1.735
80152W        W53220  17.976   1.853   0.822
80153W        W53221  34.056   2.969  13.363
80154W        W53222  39.530  42.062   3.954
80155W        W53223  10.746  12.132   1.421
80156W        W53224  23.143   0.531  10.964
80157W        W53225  17.273  22.109  10.778
80158W        W53226  17.111  26.679   3.728
80159W        W53227  14.032  27.629  14.929
80160W        W53228  26.127  33.815  12.470
80161W        W53229  26.044   1.266   3.249
80162W        W53230  22.738  23.133  12.532
80163W        W53231  17.235  35.261   1.818
80164W        W53232  32.426   9.790   4.184
80165W        W53233  37.489  37.758   0.658
80166W        W53234  26.106  22.659  14.482
80167W        W53235  34.616  43.764  14.406
80168W        W53236   0.076  22.257   0.372
80169W        W53237   0.515  34.074   2.682
80170W        W53238  34.400  37.012  11.553
80171W        W53239  41.398  44.479  13.896
80172W        W53240   0.845   0.185  10.744
80173W        W53241  32.711   0.005   2.480
80174W        W53242  11.128   7.197   4.347
80175W        W53243  13.266   4.317   3.233
80176W        W53244  33.904   6.887  12.462
80177W        W53245  37.749   1.936  14.406
80178W        W53246  29.960  18.725   3.572
80179W        W53247   2.310  34.440   4.572
80180W        W53248  10.225   7.345  13.976
80181W        W53249  21.294  32.849   1.742
80182W        W53250   4.991  16.619   1.882
80183W        W53251   8.899  17.635  12.917
80184W        W53252  41.204  10.183   1.265
80185W        W53253  33.032  10.340   1.179
80186W        W53254  19.164   5.667  12.933
80187W        W53255  37.038  44.336  11.899
80188W        W53256  31.547   6.272  12.091
80189W        W53257  35.807  40.685  12.055
80190W        W53258  40.303  42.094   3.234
80191W        W53259  31.630  13.247   0.997
80192W        W53260  40.059  40.008   2.400
80193W        W53261   4.490  15.567  14.790
80194W        W53262   1.209  17.545   3.815
80195W        W53263  41.421   0.355  12.068
80196W        W53264  31.365  40.520  12.149
80197W        W53265  36.839  15.757  11.925
80198W        W53266  15.137  25.595  10.794
80199W        W53267  26.700  43.799   3.132
80200W        W53268  19.999  33.412   5.122
80201W        W53269  37.034  16.621  11.583
80202W        W53270  31.616  29.007  14.956
80203W        W53271  11.735   7.614   0.336
80204W        W53272  34.605  35.393   2.746
80205W        W53273   3.481   7.225  14.488
80206W        W53274  37.347   0.488   2.820
80207W        W53275   9.114  26.931   4.124
80208W        W53276   8.399  44.848  11.665
80209W        W53277  16.683  43.984  11.461
80210W        W53278  40.722  33.844   2.291
80211W        W53279   7.762  13.620   0.770
80212W        W53280  22.523  27.729  11.692
80213W        W53281   2.934   8.227  14.063
80214W        W53282  35.942   2.777   4.643
80215W        W53283  21.395  16.370  10.328
80216W        W53284  27.447   7.752  10.645
80217W        W53285  24.959   9.948   0.789
80218W        W53286  28.193  12.243   0.284
80219W        W53287  12.625  32.002  12.140
80220W        W53288  39.430   2.692  10.453
80221W        W53289  36.682  22.081   0.337
80222W        W53290  19.930  39.543  12.482
80223W        W53291  33.590  28.139   3.377
80224W        W53292   2.433  24.756  12.025
80225W        W53293  13.704  21.007   0.981
80226W        W53294   7.896  31.665  14.962
80227W        W53295  17.548  12.576   4.613
80228W        W53296  23.216  10.904  10.998
80229W        W53297  21.063  12.025   4.893
80230W        W53298  23.289  13.296  12.318
80231W        W53299  38.932  16.759   1.702
80232W        W53300  38.250  13.103   0.262
80233W        W53301  30.987  43.729   0.266
80234W        W53302   9.754   6.964  12.138
80235W        W53303  11.802  12.655  13.084
80236W        W53304  27.492  35.833  11.199
80237W        W53305  20.516   7.751  12.559
80238W        W53306  20.767   9.848  12.424
80239W        W53307  29.558  30.921  13.979
80240W        W53308  14.618  17.611   0.843
80241W        W53309  43.097   0.471  11.341
80242W        W53310   4.017   3.312   1.225
80243W        W53311  16.310   4.284   3.840
80244W        W53312   5.234  28.169   2.811
80245W        W53313  42.935  22.697   2.369
80246W        W53314   8.932  34.104   0.440
80247W        W53315  29.981   4.905  11.104
80248W        W53316  23.610   8.317   3.197
80249W        W53317  25.938  26.467  12.453
80250W        W53318  43.879   6.413   4.728
80251W        W53319  44.817  35.407  13.398
80252W        W53320  33.634  23.948   0.853
80253W        W53321  43.433  18.688  14.717
80254W        W53322  31.302  38.948   0.833
80255W        W53323  23.216  36.083   3.748
80256W        W53324  35.593  18.834   3.589
80257W        W53325  31.449  26.242   3.871
80258W        W53326  10.884   9.697   1.294
80259W        W53327  33.029  30.832  10.755
80260W        W53328  37.278  36.503   2.829
80261W        W53329  16.595  30.885   3.809
80262W        W53330   8.276   0.468  12.874
80263W        W53331  43.521  12.625  12.379
80264W        W53332  23.266  18.210   1.728
80265W        W53333  23.482  42.719   1.275
80266W        W53334  37.828  40.417   3.260
80267W        W53335  34.988  21.644   4.481
80268W        W53336   9.807  26.555  11.141
80269W        W53337   2.417  29.207  14.408
80270W        W53338  32.758   5.726  11.967
80271W        W53339  37.516  41.283  11.489
80272W        W53340  17.605  33.474  12.939
80273W        W53341  14.808  24.554   1.257
80274W        W53342  17.615  17.713  11.934
80275W        W53343  10.593  38.798  12.613
80276W        W53344  43.687  15.173   0.458
80277W        W53345  21.094  35.149   4.549
80278W        W53346  21.093  42.241  10.676
80279W        W53347   4.873  12.203  13.558
80280W        W53348   0.500  30.573   4.127
80281W        W53349  11.152  24.648  12.336
80282W        W53350   6.794   9.514  12.969
80283W        W53351  23.289  39.410   0.172
80284W        W53352   9.105  23.134  10.726
80285W        W53353   4.750  19.767   4.441
80286W        W53354  19.234  27.582   2.702
80287W        W53355   2.991   3.854  12.561
80288W        W53356   0.467   6.649   3.756
80289W        W53357   4.011  31.142   0.471
80290W        W53358  44.558   9.710  13.406
80291W        W53359  42.299   0.906   0.816
80292W        W53360   6.256   7.452   2.850
80293W        W53361  24.065   9.117   2.189
80294W        W53362   5.662   2.768  14.263
80295W        W53363  33.516   6.203  14.541
80296W        W53364  29.411  21.789   2.875
80297W        W53365   6.421   4.786  12.661
80298W        W53366  43.319   3.934  14.683
80299W        W53367  33.352  25.716   0.356
80300W        W53368  10.568  33.203  12.109
80301W        W53369  30.222  36.094   1.677
80302W        W53370  26.890  17.754  14.696
80303W        W53371   6.411   1.283  12.001
80304W        W53372  19.330  14.820   4.113
80305W        W53373  44.263   3.150  13.404
80306W        W53374  44.953  25.568   0.260
80307W        W53375   8.220  32.159  14.055
80308W        W53376  35.393  38.849  12.856
80309W        W53377  16.879  23.003  12.832
80310W        W53378  29.395  12.978  11.195
80311W        W53379  26.064  28.590  14.434
80312W        W53380  21.180   1.678   9.479
80313W        W53381  41.014   2.874   0.930
80314W        W53382  33.386  21.568   0.902
80315W        W53383  32.387  43.389  11.986
80316W        W53384  42.959  26.409   2.597
80317W        W53385  39.562  20.808  13.882
80318W        W53386  10.273  39.864   1.637
80319W        W53387  44.365  27.048   0.057
80320W        W53388   6.227   0.934  12.713
80321W        W53389  12.307  31.473   4.634
80322W        W53390  13.421  24.098   1.294
80323W        W53391  18.639  17.777  11.640
80324W        W53392   4.400  12.111  13.444
80325W        W53393   8.080  11.510  11.120
80326W        W53394   6.612  21.026   3.661
80327W        W53395  18.290  27.000   2.726
80328W        W53396  32.861   0.196  13.006
80329W        W53397  32.063  34.613   0.309
80330W        W53398  21.971  17.662  10.355
80331W        W53399  39.375   5.086  12.794
80332W        W53400  22.563  36.865  14.963
80333W        W53401  35.508  32.949   2.877
80334W        W53402  11.296  40.612  12.605
80335W        W53403  39.113   7.811  10.446
80336W        W53404  35.359  10.636   3.512
80337W        W53405  22.971  10.220   1.790
80338W        W53406  41.812  27.611   3.865
80339W        W53407  29.937  18.367   4.372
80340W        W53408  41.531  29.394   2.241
80341W        W53409  10.629  12.250   2.841
80342W        W53410  13.063  23.685   2.321
80343W        W53411  31.141  43.044   1.034
80344W        W53412  11.643  11.353  12.119
80345W        W53413  34.859  15.224  13.997
80346W        W53414  28.415   1.190   3.812
80347W        W53415  41.635   1.448   3.215
80348W        W53416  33.880  43.411   3.223
80349W        W53417   8.681  25.999   4.222
80350W        W53418  41.774  11.158   3.637
80351W        W53419  32.484  18.537   0.516
80352W        W53420  18.279   1.777   4.218
80353W        W53421  32.976   1.889  14.303
80354W        W53422  20.287  36.371   1.754
80355W        W53423  14.263  33.858   3.255
80356W        W53424  36.185  17.332  14.357
80357W        W53425   8.662   6.873  13.041
80358W        W53426  41.139  30.179   4.167
80359W        W53427  15.398  18.013   5.013
80360W        W53428  34.957  43.471  12.130
80361W        W53429   7.736   9.825   1.712
80362W        W53430  17.843  15.577   2.780
80363W        W53431  42.003  26.282  12.045
80364W        W53432   1.760  27.553  14.741
80365W        W53433  17.456  23.557   3.615
80366W        W53434  37.629   7.877  12.868
80367W        W53435  14.227  43.544   2.872
80368W        W53436  34.014   2.035   0.743
80369W        W53437  28.594  27.816   4.655
80370W        W53438  12.713  14.282  13.052
80371W        W53439  28.488  38.654   2.523
80372W        W53440  36.421  11.830   1.667
80373W        W53441  13.319  39.970  12.921
80374W        W53442  44.226  25.462  11.078
80375W        W53443   7.775  17.585   0.689
80376W        W53444   6.901   2.264   2.872
80377W        W53445   7.268  16.748   0.696
80378W        W53446   6.112  22.694   0.266
80379W        W53447  44.647  12.149  13.630
80380W        W53448   7.131  20.965  11.546
80381W        W53449  38.481  13.282   3.122
80382W        W53450  37.094  13.868   2.142
80383W        W53451  14.730  14.167  13.037
80384W        W53452   8.599  27.440  12.498
80385W        W53453  21.459   9.659  14.338
80386W        W53454  10.348  26.996  14.401
80387W        W53455  15.022  25.703   1.131
80388W        W53456  41.021  15.857   0.801
80389W        W53457  44.284  18.825   2.701
80390W        W53458   6.230  37.934  12.015
80391W        W53459   3.215   1.965  12.110
80392W        W53460  16.604  21.815   1.571
80393W        W53461  29.872  10.686   4.042
80394W        W53462  43.230   0.343   4.494
80395W        W53463  16.936  26.467  12.966
80396W        W53464   0.689  40.863   3.563
80397W        W53465  14.062  17.895   2.729
80398W        W53466  32.119  31.093  13.191
80399W        W53467   4.382  30.934  11.666
80400W        W53468  42.416  44.579  12.734
80401W        W53469  18.081  41.361  12.429
80402W        W53470  44.270  34.792   0.936
80403W        W53471   8.341  29.343  14.756
80404W        W53472  28.439  33.938   4.601
80405W        W53473  13.310  38.861  14.298
80406W        W53474  10.911  22.443  13.813
80407W        W53475  28.020  21.970  13.160
80408W        W53476  12.800  26.046  14.106
80409W        W53477   8.393  13.100   4.176
80410W        W53478   0.528   1.336  11.495
80411W        W53479   7.443  23.438   1.738
80412W        W53480  31.118  23.494   1.699
80413W        W53481  10.254  31.647   2.306
80414W        W53482   0.973  11.227   3.329
80415W        W53483  23.682  42.028  14.526
80416W        W53484  41.731   9.812   0.213
80417W        W53485  42.199  44.423   1.265
80418W        W53486  40.209  44.389  13.618
80419W        W53487  23.531   3.288   4.068
80420W        W53488   9.881  35.167   4.730
80421W        W53489  27.457  34.938   1.709
80422W        W53490  34.505  44.397   3.717
80423W        W53491  19.113  11.739   0.425
80424W        W53492  28.975  42.556   1.461
80425W        W53493  26.627   2.441   3.728
80426W        W53494  44.963   9.878  14.863
80427W        W53495  19.269  32.970  13.534
80428W        W53496  39.854  29.124  13.512
80429W        W53497   7.159  12.850  12.592
80430W        W53498   6.645  31.158  14.805
80431W        W53499  17.763  11.294  14.286
80432W        W53500  16.756   9.096  14.485
80433W        W53501  23.656  14.737   2.231
80434W        W53502  34.424  27.511  12.938
80435W        W53503  16.542  21.292  13.493
80436W        W53504  36.541  35.495  11.662
80437W        W53505   2.044  35.002   0.092
80438W        W53506   8.145  36.812  13.517
80439W        W53507  35.011   1.416  10.443
80440W        W53508  39.827  22.278  11.093
80441W        W53509   4.055  19.062  13.217
80442W        W53510   8.372   4.223  12.103
80443W        W53511  14.544  32.989  13.259
80444W        W53512  14.170  16.809   1.683
80445W        W53513  23.474  22.423  14.048
80446W        W53514  32.956  10.204   1.671
80447W        W53515  22.176   2.188  12.921
80448W        W53516  20.325  42.421  12.930
80449W        W53517  35.102  25.109   3.406
80450W        W53518   9.062  30.930   3.967
80451W        W53519  15.957  25.989  11.140
80452W        W53520  30.195   2.147  13.977
80453W        W53521  44.417  11.348   4.598
80454W        W53522  27.488  36.097   0.471
80455W        W53523   9.308  28.018   2.128
80456W        W53524  37.795  24.239   0.256
80457W        W53525  19.480   1.516   4.950
80458W        W53526  40.758  13.058   5.283
80459W        W53527  39.055  38.967   0.974
80460W        W53528   7.879  40.989  10.450
80461W        W53529   5.637   1.312   1.303
80462W        W53530  20.513  24.155  10.763
80463W        W53531  34.370   8.417   0.353
80464W        W53532  38.014  21.878   0.947
80465W        W53533  19.427  12.257  10.917
80466W        W53534   2.928  43.939   1.916
80467W        W53535   1.741   3.172   0.815
80468W        W53536  23.538  39.050   3.202
80469W        W53537  26.338  30.830  12.318
80470W        W53538  33.969   9.134   2.689
80471W        W53539  30.650  23.297  13.612
80472W        W53540  16.242  20.575   1.899
80473W        W53541  41.238  20.262   3.113
80474W        W53542  34.368  27.964   2.206
80475W        W53543  33.442  35.113  12.377
80476W        W53544  14.035  19.146  14.474
80477W        W53545  21.712   9.246  12.651
80478W        W53546  33.942   2.124   4.130
80479W        W53547  19.187  42.997   1.046
80480W        W53548  27.109  17.549  13.800
80481W        W53549  37.618   0.384  13.276
80482W        W53550  34.505  16.820   0.501
80483W        W53551  19.164  31.940   3.729
80484W        W53552  11.439  40.983  13.346
80485W        W53553  13.628  19.620  14.120
80486W        W53554  27.841  24.218  13.311
80487W        W53555  21.978   3.730   1.315
80488W        W53556  13.362   3.435  13.425
80489W        W53557  16.331   1.066   0.877
80490W        W53558   9.108  19.242   4.474
80491W        W53559  16.593  10.183  12.575
80492W        W53560  27.982  17.790   0.321
80493W        W53561  29.595  23.497  11.685
80494W        W53562  28.950  18.141   1.839
80495W        W53563  35.882  25.038   1.226
80496W        W53564   4.757  28.156   4.997
80497W        W53565   5.834  22.625  10.614
80498W        W53566   1.000   7.011  14.964
80499W        W53567  22.599  41.519   2.218
80500W        W53568  31.948  31.568   1.884
80501W        W53569  22.772   5.884  12.903
80502W        W53570  23.265  40.369  14.092
80503W        W53571   1.304  42.482   3.146
80504W        W53572  25.826  37.586   9.539
80505W        W53573  31.649   0.492  11.102
80506W        W53574   8.994  20.463  12.877
80507W        W53575   8.844  20.199   3.094
80508W        W53576  14.865   1.304  12.576
80509W        W53577  22.645  25.663  12.438
80510W        W53578  34.859  35.710   1.310
80511W        W53579  35.609  32.483   2.514
80512W        W53580  18.031   4.617   4.846
80513W        W53581   3.743   7.705  14.358
80514W        W53582  44.537   2.980  13.003
80515W        W53583  32.394  35.048  12.345
80516W        W53584  13.584  25.412  11.488
80517W        W53585  19.208  26.921   5.009
80518W        W53586  10.617  15.695  11.121
80519W        W53587  31.946  13.807  11.171
80520W        W53588  43.161  38.835   0.983
80521W        W53589  44.055  23.261   1.812
80522W        W53590  36.411   4.180   0.469
80523W        W53591  26.449  13.309  12.593
80524W        W53592   6.296  14.569   2.269
80525W        W53593  36.659  33.838   2.297
80526W        W53594  21.979  17.817   0.740
80527W        W53595   9.135  15.264   3.373
80528W        W53596  27.040  42.107   1.915
80529W        W53597  44.200  25.603   4.530
80530W        W53598  25.549  36.572   3.701
80531W        W53599  32.704  31.777  11.605
80532W        W53600   7.821  24.573   4.139
80533W        W53601   6.230  35.250  11.047
80534W        W53602   7.872  20.858   4.902
80535W        W53603  15.788  11.230   1.614
80536W        W53604  30.652  21.118   4.175
80537W        W53605  24.476   8.607   0.348
80538W        W53606  22.407  33.352  11.166
80539W        W53607  42.338  35.020  14.927
80540W        W53608  24.196   0.929  12.920
80541W        W53609   6.425  34.917   1.901
80542W        W53610   1.779   4.762   3.881
80543W        W53611  14.589  30.300  14.938
80544W        W53612  20.714  21.666   1.291
80545W        W53613  28.686   0.001   2.234
80546W        W53614  28.518  44.002  10.466
80547W        W53615  38.811   3.686  11.980
80548W        W53616  36.937   7.453  12.483
80549W        W53617  30.627  43.564  11.809
80550W        W53618  30.306   5.666  12.187
80551W        W53619  22.143   5.392  10.646
80552W        W53620  39.157  20.281   2.251
80553W        W53621  34.447  13.388  13.739
80554W        W53622  11.628  16.721  12.367
80555W        W53623   7.775  40.889   0.160
80556W        W53624  11.539  22.975  13.409
80557W        W53625   6.688   1.814   3.740
80558W        W53626  17.576   2.814   3.710
80559W        W53627  35.658   6.938  12.967
80560W        W53628   4.926  21.597   0.460
80561W        W53629  13.199  12.387  12.881
80562W        W53630   2.732  43.886  13.612
80563W        W53631  20.064   6.621   3.693
80564W        W53632  32.393  17.577   3.326
80565W        W53633  17.661  34.066  10.730
80566W        W53634  20.258  20.203  11.566
80567W        W53635   1.753   0.016   0.417
80568W        W53636  25.292  18.587  11.079
80569W        W53637  10.700  37.189   0.887
80570W        W53638   9.119  12.783   1.634
80571W        W53639   8.722   1.284  13.804
80572W        W53640  18.136   0.702   2.466
80573W        W53641  40.461  32.819  11.467
80574W        W53642  14.009  17.384  12.425
80575W        W53643  13.400  40.065   4.094
80576W        W53644  15.699  40.927   1.282
80577W        W53645  27.879  33.681  11.116
80578W        W53646   1.279  30.941   4.356
80579W        W53647  29.393  44.932  11.368
80580W        W53648  37.802  25.509   2.000
80581W        W53649   0.632  28.279   4.189
80582W        W53650  11.504  27.890   4.100
80583W        W53651  15.396  26.519  10.222
80584W        W53652  21.828  32.457   4.129
80585W        W53653   9.355   9.230   3.281
80586W        W53654   0.807  29.124   1.376
80587W        W53655  15.320  15.541  14.869
80588W        W53656  17.971  13.033  14.697
80589W        W53657   1.533   3.360   0.366
80590W        W53658   2.413  17.011   5.050
80591W        W53659   8.235   6.874  12.445
80592W        W53660  13.827  26.551   1.429
80593W        W53661  18.281  22.094  14.528
80594W        W53662  31.564  31.811  11.618
80595W        W53663  34.948  16.641   3.273
80596W        W53664  42.993  10.573  10.662
80597W        W53665   6.845  38.072  13.592
80598W        W53666   0.849   3.301  14.927
80599W        W53667  40.724   9.812   0.396
80600W        W53668  35.448  34.604  13.427
80601W        W53669  23.608   8.639   0.504
80602W        W53670  37.838  28.616  14.103
80603W        W53671  17.328  22.757  12.044
80604W        W53672  16.879  14.388   0.493
80605W        W53673  27.539   0.277   4.046
80606W        W53674  35.868  24.430   4.924
80607W        W53675   9.600  34.867   3.288
80608W        W53676  36.020  21.031  14.544
80609W        W53677  42.301  23.240  11.494
80610W        W53678  43.581  11.316  13.677
80611W        W53679  10.604  39.361  11.995
80612W        W53680  12.704  20.985   0.825
80613W        W53681  38.420  42.660   4.167
80614W        W53682   9.270  44.877   4.427
80615W        W53683  19.031  37.964  12.689
80616W        W53684  37.267   7.914  11.533
80617W        W53685  11.228  12.968   4.907
80618W        W53686   9.391  43.978   1.833
80619W        W53687  41.025  25.184   4.721
80620W        W53688   4.682  41.363   4.051
80621W        W53689  39.550   1.719   4.106
80622W        W53690  34.936   5.725   2.719
80623W        W53691  10.518  11.843   3.162
80624W        W53692  36.971  36.523  11.186
80625W        W53693   9.821  37.798  11.073
80626W        W53694  16.673  17.482  13.158
80627W        W53695   1.312  29.546  10.624
80628W        W53696  36.701  43.658   0.358
80629W        W53697   9.628  39.761  10.975
80630W        W53698  27.621  41.434  11.234
80631W        W53699   8.920  22.140   2.392
80632W        W53700  13.271  19.418   5.374
80633W        W53701  33.531  26.059  11.019
80634W        W53702  17.144   8.218   3.095
80635W        W53703  22.555  15.209  11.916
80636W        W53704  12.220  36.924  11.540
80637W        W53705  17.622  23.044   4.758
80638W        W53706   1.603  19.248   0.980
80639W        W53707  12.582   0.430  13.820
80640W        W53708  27.657   1.749   2.730
80641W        W53709  33.329   4.295  13.484
80642W        W53710   8.040  18.130   3.229
80643W        W53711  14.941  34.913  13.452
80644W        W53712   7.316  14.416   5.121
80645W        W53713  42.788   3.712   3.416
80646W        W53714  25.952  23.769   0.492
80647W        W53715  43.425   0.266   2.626
80648W        W53716  12.623  37.089  11.263
80649W        W53717  24.232  23.521  14.768
80650W        W53718  24.513  38.090  13.985
80651W        W53719  33.160   1.448   4.838
80652W        W53720  26.995  12.172  12.889
80653W        W53721  44.301  29.376   1.769
80654W        W53722  16.173  27.692  10.954
80655W        W53723  14.224   1.748   2.397
80656W        W53724  27.452   9.362  13.664
80657W        W53725  40.851   5.900  10.742
80658W        W53726   9.790  43.851   2.632
80659W        W53727  25.642  15.653   2.778
80660W        W53728  39.779  17.699   1.957
80661W        W53729  13.886   3.040  10.617
80662W        W53730  22.101  15.079   3.579
80663W        W53731  34.621   2.000  11.558
80664W        W53732   9.795   4.903   0.844
80665W        W53733  38.607   8.773   4.163
80666W        W53734  15.951   4.835   0.684
80667W        W53735   9.933  10.715  14.520
80668W        W53736  20.591  36.047  11.586
80669W        W53737  18.503   6.994  13.789
80670W        W53738  29.020  26.991  13.366
80671W        W53739  37.520  28.252   4.665
80672W        W53740  17.677  38.171  14.106
80673W        W53741  14.258  32.606  13.052
80674W        W53742   3.804   2.749   2.202
80675W        W53743  36.316   3.171  13.096
80676W        W53744  14.036  31.625  14.731
80677W        W53745  22.104  41.959   4.629
80678W        W53746   9.755   8.625   2.440
80679W        W53747   9.060  26.390  11.603
80680W        W53748   5.344   4.824  11.352
80681W        W53749  27.562  27.484   0.281
80682W        W53750   2.259  43.974   3.103
80683W        W53751  43.976  32.881   1.869
80684W        W53752  14.826  36.926   3.024
80685W        W53753  38.866  26.637   0.437
80686W        W53754  41.618  38.542  10.757
80687W        W53755   7.486  29.206  13.790
80688W        W53756  15.166  27.368  11.264
80689W        W53757  19.389  30.604   1.536
80690W        W53758   9.397  14.762  11.629
80691W        W53759  34.058  29.097  13.922
80692W        W53760  20.218  13.418  14.017
80693W        W53761   0.730  31.082   1.480
80694W        W53762  27.157  11.104  13.001
80695W        W53763  40.825  27.090  11.994
80696W        W53764  29.136  32.682  11.041
80697W        W53765  31.464  18.699  12.429
80698W        W53766  16.437  21.835  11.183
80699W        W53767   5.488  26.660  12.905
80700W        W53768   8.156  42.001  14.829
80701W        W53769  28.464  30.797   1.733
80702W        W53770   1.460  35.968   4.150
80703W        W53771  30.924  38.480   3.820
80704W        W53772  17.778  28.538  12.710
80705W        W53773  37.290  39.442  12.969
80706W        W53774  19.778   7.247  12.083
80707W        W53775  11.889  11.586   4.177
80708W        W53776  24.100  15.695  11.433
80709W        W53777  10.456  19.468  11.164
80710W        W53778   3.882  28.393   2.626
80711W        W53779  32.761  44.321  12.151
80712W        W53780  43.066  35.049   0.366
80713W        W53781  28.006   5.955  12.545
80714W        W53782  17.265   0.047  13.000
80715W        W53783   6.197   2.640  13.402
80716W        W53784  37.627   3.635  13.951
80717W        W53785  37.134  18.259  12.544
80718W        W53786  12.564  15.927  10.722
80719W        W53787  29.900  26.271  13.408
80720W        W53788  17.374  43.320   0.408
80721W        W53789  30.957  43.836  14.230
80722W        W53790  24.598  18.300  10.203
80723W        W53791  37.866  27.709   3.834
80724W        W53792   0.950  38.552  13.268
80725W        W53793  41.727   3.555  11.750
80726W        W53794  18.778  13.591  12.017
80727W        W53795  42.161   0.680   2.342
80728W        W53796  42.663   4.412   0.450
80729W        W53797  26.915  30.928  12.073
80730W        W53798  13.359  43.434   1.269
80731W        W53799  35.162  18.587   5.108
80732W        W53800  24.594  35.988  11.023
80733W        W53801  31.135  44.824   2.185
80734W        W53802  32.649  34.878  14.930
80735W        W53803  18.534  12.230  11.206
80736W        W53804   1.194  15.512   0.790
80737W        W53805  32.657  28.627   1.914
80738W        W53806  35.515   6.439  10.632
80739W        W53807  11.644  26.647  13.934
80740W        W53808  15.188  20.510   1.789
80741W        W53809  29.023  10.787  14.655
80742W        W53810   6.763  28.893  10.427
80743W        W53811   2.432  27.668  12.528
80744W        W53812  13.931  42.073  11.630
80745W        W53813  23.884  14.728  14.981
80746W        W53814  14.728  26.113  14.084
80747W        W53815  29.685   4.375   4.856
80748W        W53816   0.912  36.062   4.132
80749W        W53817  39.296   6.221   5.222
80750W        W53818  37.886  14.473   3.109
80751W        W53819  26.126  16.248   4.222
80752W        W53820  15.451  24.681  14.763
80753W        W53821  41.602  35.765  14.374
80754W        W53822  20.864   5.248  13.558
80755W        W53823  24.753  11.755   4.298
80756W        W53824  21.136  31.801  10.370
80757W        W53825  39.756  15.731  12.892
80758W        W53826  11.639   3.939  12.371
80759W        W53827  15.829   1.701   3.696
80760W        W53828  23.501  30.997   0.842
80761W        W53829  23.439  30.023  13.419
80762W        W53830  32.985  40.289  11.397
80763W        W53831  40.295  29.994   2.785
80764W        W53832  21.752  24.748  14.356
80765W        W53833  13.330   3.138  12.551
80766W        W53834  36.573   0.317  14.352
80767W        W53835   4.267  39.049  11.376
80768W        W53836  32.288  13.777   3.004
80769W        W53837  17.278  34.061  13.454
80770W        W53838  37.939  44.250  12.898
80771W        W53839  36.004  34.660  12.907
80772W        W53840   4.344   6.377   1.748
80773W        W53841  20.788  43.735   1.645
80774W        W53842  40.582  39.525  13.928
80775W        W53843   9.447  13.744   4.710
80776W        W53844  36.849  29.922  12.540
80777W        W53845  43.527  24.645   1.372
80778W        W53846  30.341  39.868  10.478
80779W        W53847  42.508  29.085  12.935
80780W        W53848  23.279  18.253  14.334
80781W        W53849  42.729  11.629   1.380
80782W        W53850   8.317   0.106   1.314
80783W        W53851  18.200  12.677  12.253
80784W        W53852  37.326  16.581   2.795
80785W        W53853  20.615  37.583  12.678
80786W        W53854  19.430  31.026   2.788
80787W        W53855  43.759  42.499  13.112
80788W        W53856  32.871   7.840  12.491
80789W        W53857  15.285  44.113   3.113
80790W        W53858  40.575  20.158   0.104
80791W        W53859  14.055  35.793   3.343
80792W        W53860   4.976   2.364   3.567
80793W        W53861   3.952   6.268  13.412
80794W        W53862  20.299  19.492   4.176
80795W        W53863  32.480  26.170   0.130
80796W        W53864   6.236  18.784  13.452
80797W        W53865   7.861  40.888  12.922
80798W        W53866  18.672  23.395   0.172
80799W        W53867  10.363   3.836  11.640
80800W        W53868   5.099  40.453   2.760
80801W        W53869  34.445  29.570   1.328
80802W        W53870  25.219  28.856  13.366
80803W        W53871  38.794  21.050  11.980
80804W        W53872  22.441   5.863   0.417
80805W        W53873  10.339  26.634   5.106
80806W        W53874   2.080  24.678  13.829
80807W        W53875  14.370  14.139  14.895
80808W        W53876   6.635   0.889   3.723
80809W        W53877  20.567  33.016   4.139
80810W        W53878  44.314  31.897  14.681
80811W        W53879  10.129  43.737  13.086
80812W        W53880  25.488  41.979   4.938
80813W        W53881  39.065  40.031   2.447
80814W        W53882  20.011  42.281   1.346
80815W        W53883  19.285  12.713  10.710
80816W        W53884  32.558   9.632  14.753
80817W        W53885  26.578  43.084   4.935
80818W        W53886  42.202  13.555  11.698
80819W        W53887   1.979   0.766  13.115
80820W        W53888  31.205  36.898  12.542
80821W        W53889  43.786   2.723  12.508
80822W        W53890  14.767   7.703   1.783
80823W        W53891   4.755  41.991  13.006
80824W        W53892   9.288  23.953   1.323
80825W        W53893  29.903  27.638  12.418
80826W        W53894   0.274  25.400  11.898
80827W        W53895  34.577  26.904  11.642
80828W        W53896  13.855  13.038  13.556
80829W        W53897   3.411  13.091   2.855
80830W        W53898  43.822  39.563  13.594
80831W        W53899   7.438   7.731   3.684
80832W        W53900   8.548  38.824  10.193
80833W        W53901  27.627  10.130  12.118
80834W        W53902  44.387  26.642  13.806
80835W        W53903  39.107   8.750  12.996
80836W        W53904  37.989  41.778  10.727
80837W        W53905  39.734   4.350  13.637
80838W        W53906  43.550  40.522  11.172
80839W        W53907  29.126   1.102  13.725
80840W        W53908   4.325  24.571   4.600
80841W        W53909  42.877  29.049  11.119
80842W        W53910  25.005  12.811   2.813
80843W        W53911   4.549  25.156  10.424
80844W        W53912  23.642  15.778  13.931
80845W        W53913  43.977  14.360  12.552
80846W        W53914   4.852  21.611   3.386
80847W        W53915  25.155  37.619  10.068
80848W        W53916  36.384  16.143   4.994
80849W        W53917  38.762  40.458  12.961
80850W        W53918  10.058  30.888  12.019
80851W        W53919   9.470  40.135   1.881
80852W        W53920  38.476   2.842   2.923
80853W        W53921  26.423  38.939  12.531
80854W        W53922  35.293   0.659   2.800
80855W        W53923  16.634  25.079   0.532
80856W        W53924  37.641  41.271  13.662
80857W        W53925  20.034  34.591   1.203
80858W        W53926  31.010  44.439   3.111
80859W        W53927   4.806  11.351   2.851
80860W        W53928  19.124  29.463  14.041
80861W        W53929  24.651   8.281  12.080
80862W        W53930  27.717  31.324  12.262
80863W        W53931   4.802  15.040  13.269
80864W        W53932   7.714  16.142   2.191
80865W        W53933   3.325  18.785  12.122
80866W        W53934  22.045  10.068  11.837
80867W        W53935  42.762  41.267  10.370
80868W        W53936  27.725   8.447  11.526
80869W        W53937  10.897  23.954  13.693
80870W        W53938  10.830   0.913  10.871
80871W        W53939  37.339   2.962  12.103
80872W        W53940  34.837  36.604   4.065
80873W        W53941  28.155   7.445  13.435
80874W        W53942   5.861  13.696   0.604
80875W        W53943   6.319  37.186  11.136
80876W        W53944  40.762  22.597  13.780
80877W        W53945  12.717  35.697  13.538
80878W        W53946   5.389  28.105   4.191
80879W        W53947   8.786   2.080  14.268
80880W        W53948  42.807   6.924   0.788
80881W        W53949  13.546  42.351   0.541
80882W        W53950  21.762  41.919  11.163
80883W        W53951  25.086  42.411  14.245
80884W        W53952  30.157  12.337  12.590
80885W        W53953   4.655  41.525   4.578
80886W        W53954   5.751   2.516   4.426
80887W        W53955  26.949   1.737   2.178
80888W        W53956  30.335  16.186  14.456
80889W        W53957  33.531  23.955  12.012
80890W        W53958  43.991   9.867  14.721
80891W        W53959  44.470   9.173  11.998
80892W        W53960  37.370  42.003   2.977
80893W        W53961   5.143   8.933   1.724
80894W        W53962  34.610  40.570   4.293
80895W        W53963   2.043  28.114   0.365
80896W        W53964  24.277  20.247   2.794
80897W        W53965  37.025  36.513  10.668
80898W        W53966  37.359  15.828  12.068
80899W        W53967  28.099  43.843   3.088
80900W        W53968  40.780  22.045  10.724
80901W        W53969  29.936  38.542   2.854
80902W        W53970  31.096  41.684   1.064
80903W        W53971  16.812  25.942   3.168
80904W        W53972  31.497  15.725   3.616
80905W        W53973  11.087   9.823  12.506
80906W        W53974  12.752  44.779  12.527
80907W        W53975  12.393   0.997   0.535
80908W        W53976  21.001  11.648  12.883
80909W        W53977  43.007  29.529   2.080
80910W        W53978  18.611  33.068  12.865
80911W        W53979   7.691  31.079   2.189
80912W        W53980  38.847  23.690  13.003
80913W        W53981  15.781   9.070   0.459
80914W        W53982  17.707  34.000  14.541
80915W        W53983  36.301  21.131   0.026
80916W        W53984   9.262  25.135  11.600
80917W        W53985  42.878  12.782  11.619
80918W        W53986  21.641  42.504  10.406
80919W        W53987  31.190  41.499  11.151
80920W        W53988   1.258   2.452   4.106
80921W        W53989  26.792  34.972   4.376
80922W        W53990  42.234  19.757   3.652
80923W        W53991  13.077  35.904  12.513
80924W        W53992  38.372   9.809   2.410
80925W        W53993  16.086  29.567  10.842
80926W        W53994  19.718  43.795   5.650
80927W        W53995  13.434  43.763  14.246
80928W        W53996  16.109  19.062  12.650
80929W        W53997  32.110  21.695   1.416
80930W        W53998  25.062  31.397  13.062
80931W        W53999  33.145  11.371   2.834
80932W        W54000  30.649  18.999  11.915
80933W        W54001  16.290  40.256  12.954
80934W        W54002  27.914  44.523  14.120
80935W        W54003  42.560   3.923   0.674
80936W        W54004  39.643  34.370  11.332
80937W        W54005  20.679  42.288  12.508
80938W        W54006  14.809  19.357  11.720
80939W        W54007  12.303  15.614   4.587
80940W        W54008  25.872  15.832  12.408
80941W        W54009  18.746  44.421  13.852
80942W        W54010  22.969  14.954  11.160
80943W        W54011  20.436  24.336   0.686
80944W        W54012  37.658  39.096  11.149
80945W        W54013   1.157  14.531   1.385
80946W        W54014  24.216  28.575   0.375
80947W        W54015  23.721  14.119  12.508
80948W        W54016  10.219  21.717  14.946
80949W        W54017  13.920   5.751  14.387
80950W        W54018  32.322  24.585  12.017
80951W        W54019  16.689  29.364  13.708
80952W        W54020  32.508  22.724  13.433
80953W        W54021  42.138   0.017   5.429
80954W        W54022  11.086  23.497  11.435
80955W        W54023  12.880  28.803  13.013
80956W        W54024  10.736  40.964   4.679
80957W        W54025  39.499  11.349  10.560
80958W        W54026   2.153  26.493  14.006
80959W        W54027  17.183   7.190   3.693
80960W        W54028  21.582  24.189  13.827
80961W        W54029  25.867  22.696   2.321
80962W        W54030  25.434  25.624  12.342
80963W        W54031  17.848   3.368  14.631
80964W        W54032  42.202  24.078  11.114
80965W        W54033   4.220  12.750  11.944
80966W        W54034   8.761  37.587  12.926
80967W        W54035  25.475  41.469  13.550
80968W        W54036   7.672  19.495  13.187
80969W        W54037   9.864  11.634   4.166
80970W        W54038  28.302  17.986   2.635
80971W        W54039  27.019  16.752   1.224
80972W        W54040  37.160  39.494  13.468
80973W        W54041  40.456   4.018  13.563
80974W        W54042  11.311  19.045   3.799
80975W        W54043   2.721  32.677  12.961
80976W        W54044  31.649  21.476   3.715
80977W        W54045   4.459  42.082  13.431
80978W        W54046  33.914  11.916  14.723
80979W        W54047  32.467   2.185   3.725
80980W        W54048  44.858  15.426  13.006
80981W        W54049  23.654  42.687   3.957
80982W        W54050  25.945  21.662   4.194
80983W        W54051   6.707  32.094   2.396
80984W        W54052  15.829  26.526   2.811
80985W        W54053   4.275  40.102   3.690
80986W        W54054   7.061  41.846   5.555
80987W        W54055  16.797  26.870  14.847
80988W        W54056  42.514  21.468   2.161
80989W        W54057  16.201   7.199  14.265
80990W        W54058   7.650  24.140   2.278
80991W        W54059  44.789  13.630   2.422
80992W        W54060  25.384  37.492  14.252
80993W        W54061  17.125  16.193  13.657
80994W        W54062  18.107  15.264  14.321
80995W        W54063  33.303  15.220  13.969
80996W        W54064  40.846  14.804   3.363
80997W        W54065  26.956  43.583  14.405
80998W        W54066  36.376  39.206   1.681
80999W        W54067  31.516  19.121  12.092
81000W        W54068  25.508   4.745  13.543
81001W        W54069   2.887  39.035   3.461
81002W        W54070  22.235  31.936  14.807
81003W        W54071  23.736  42.342   0.986
81004W        W54072  19.267  32.587   2.314
81005W        W54073  20.225  22.135   0.504
81006W        W54074  31.069  44.131   1.287
81007W        W54075  17.541  38.919  11.616
81008W        W54076  25.573  37.529   4.070
81009W        W54077   4.400  36.590   0.887
81010W        W54078  16.102  20.711  11.978
81011W        W54079  41.050   2.032  12.488
81012W        W54080   5.031  43.045  11.882
81013W        W54081   2.487  22.207  12.360
81014W        W54082  37.834   0.334   2.628
81015W        W54083   7.821   7.405   4.274
81016W        W54084  21.195  22.577   0.862
81017W        W54085   4.591   4.314  12.082
81018W        W54086   0.468   5.357  14.679
81019W        W54087  21.543  12.352   0.036
81020W        W54088   6.331  20.474  12.517
81021W        W54089  32.654   3.775  13.839
81022W        W54090  39.382  20.037  13.133
81023W        W54091  13.163   2.868   2.448
81024W        W54092  26.923   7.842  10.668
81025W        W54093   4.443  24.185  14.061
81026W        W54094  17.700  30.208  13.439
81027W        W54095  20.617   9.418   4.222
81028W        W54096  44.313  32.196   1.229
81029W        W54097   6.926  17.650   3.106
81030W        W54098   5.401  26.813   0.837
81031W        W54099  27.566  13.066  14.867
81032W        W54100  44.917   6.200  13.143
81033W        W54101  28.083  34.064   0.175
81034W        W54102  23.415  30.617   1.387
81035W        W54103   9.556  43.348   0.544
81036W        W54104  34.758  13.638   0.937
81037W        W54105  42.965  28.072   0.435
81038W        W54106  44.127  38.937  13.905
81039W        W54107  20.588  33.914   0.265
81040W        W54108  20.826   3.824   0.817
81041W        W54109   2.405   0.482  11.914
81042W        W54110  24.069  39.558   4.463
81043W        W54111   2.637  22.214  14.969
81044W        W54112   1.422  44.450   3.353
81045W        W54113  22.260  34.426  12.408
81046W        W54114   5.877  10.950  12.444
81047W        W54115  14.112  21.564  12.098
81048W        W54116  38.980   2.751   1.782
81049W        W54117  29.822  38.994  14.974
81050W        W54118   1.244  24.457  13.357
81051W        W54119  25.036  26.714  14.026
81052W        W54120  33.234  25.781   3.089
81053W        W54121  18.724  16.781  12.288
81054W        W54122  44.912   4.795  11.988
81055W        W54123  21.027   3.731  10.659
81056W        W54124  31.433   4.318   0.820
81057W        W54125  42.551  35.339  10.742
81058W        W54126  21.210  35.588   4.230
81059W        W54127  33.690  26.680  13.324
81060W        W54128   9.628  16.581   0.524
81061W        W54129  24.281  19.426  11.269
81062W        W54130  32.930  18.711  10.653
81063W        W54131  14.229  24.420  14.217
81064W        W54132  30.850  28.175   2.611
81065W        W54133   8.833  11.932  13.651
81066W        W54134  17.372  22.131   0.849
81067W        W54135   7.195  44.366   4.936
81068W        W54136  24.988  11.288   4.238
81069W        W54137  17.755  20.560  13.847
81070W        W54138  37.153  24.576  14.044
81071W        W54139  25.035  44.788   4.169
81072W        W54140  10.143  23.452  11.507
81073W        W54141  36.974  13.897   1.492
81074W        W54142  42.703  24.614  10.508
81075W        W54143  31.109  31.578  12.400
81076W        W54144   4.446  16.615   1.896
81077W        W54145  26.941  13.630   0.375
81078W        W54146  31.174  38.928   2.686
81079W        W54147  35.647  23.975   1.411
81080W        W54148  16.885  12.284  13.446
81081W        W54149  38.381   6.347  11.428
81082W        W54150  21.726   0.517  12.123
81083W        W54151  25.609  16.248   3.683
81084W        W54152  27.451  26.135  10.650
81085W        W54153  43.260  16.204   3.238
81086W        W54154  17.843  20.953   3.676
81087W        W54155  19.077   5.415  11.544
81088W        W54156  28.459  39.751  10.709
81089W        W54157  34.542  20.473   0.989
81090W        W54158  29.575   8.455  11.119
81091W        W54159  26.165  11.062  12.509
81092W        W54160  19.494  15.571  12.032
81093W        W54161  29.479   8.438   2.289
81094W        W54162  18.055  10.632   1.011
81095W        W54163   0.592  22.537   5.120
81096W        W54164  19.972  29.400  10.765
81097W        W54165  10.357   2.728   4.652
81098W        W54166  36.784   2.165   0.422
81099W        W54167  40.838   4.834   2.349
81100W        W54168  32.035   3.318  12.975
81101W        W54169  29.580  40.737  13.463
81102W        W54170  44.207  43.394   4.207
81103W        W54171  44.511  15.898   2.179
81104W        W54172  18.800   6.994   0.445
81105W        W54173  19.358  36.458   4.661
81106W        W54174   2.855  10.631  12.126
81107W        W54175   9.745  41.732   3.751
81108W        W54176  40.990  24.103   3.778
81109W        W54177  41.545  26.224   1.666
81110W        W54178  28.639   8.779  13.978
81111W        W54179  40.032  42.654  11.158
81112W        W54180  12.215  28.929  14.532
81113W        W54181  17.726  41.393   4.873
81114W        W54182  33.356  31.220   1.312
81115W        W54183  39.908   9.281  11.066
81116W        W54184  36.357  36.519   3.633
81117W        W54185  21.265  22.513   1.707
81118W        W54186  14.665  40.495   2.632
81119W        W54187  12.097  15.329   2.579
81120W        W54188  12.080  21.668   4.599
81121W        W54189  37.073  40.298   3.859
81122W        W54190   8.294  17.645   3.897
81123W        W54191   5.249   2.999   3.661
81124W        W54192  25.441  23.611  13.862
81125W        W54193   0.775  27.797   4.297
81126W        W54194  12.879  21.784  12.896
81127W        W54195  33.425  27.958  12.644
81128W        W54196  19.452  16.736  10.855
81129W        W54197   3.825  20.317   1.423
81130W        W54198  10.371  17.988   2.812
81131W        W54199  18.245   9.460  14.438
81132W        W54200  13.303  22.971   4.912
81133W        W54201   4.080  28.206   3.296
81134W        W54202   0.108   9.583  11.124
81135W        W54203  43.930  32.559  13.528
81136W        W54204  32.371   4.709  13.588
81137W        W54205  13.292   1.348  13.637
81138W        W54206  38.522   9.954  12.621
81139W        W54207   8.315  21.149  13.070
81140W        W54208  38.966  22.766  12.190
81141W        W54209   1.389  12.555   0.233
81142W        W54210  35.813  37.281   2.758
81143W        W54211   6.588   6.180  11.736
81144W        W54212  44.353   5.403   4.139
81145W        W54213  27.550  14.681  10.757
81146W        W54214  29.607  13.460  11.086
81147W        W54215  15.365  24.645  13.296
81148W        W54216  35.499  26.052  14.129
81149W        W54217   3.240  32.581  11.311
81150W        W54218  14.351   6.386  10.687
81151W        W54219  40.004  23.204   2.252
81152W        W54220  12.157  24.456  12.159
81153W        W54221   2.239  43.482  13.149
81154W        W54222  22.620  42.826  11.085
81155W        W54223  35.624  39.023   2.881
81156W        W54224   1.364  21.530   0.450
81157W        W54225  12.807  15.037  12.426
81158W        W54226  25.347  21.531   1.865
81159W        W54227  20.979  11.851   0.356
81160W        W54228  31.725   6.469   0.781
81161W        W54229  25.068   1.712  12.898
81162W        W54230   2.467  42.439  14.457
81163W        W54231  11.355  13.284   1.536
81164W        W54232   6.818  16.581   2.266
81165W        W54233  31.517   8.774  10.937
81166W        W54234  22.709  39.781   9.982
81167W        W54235  34.826   8.900   1.424
81168W        W54236  11.262  16.122   4.583
81169W        W54237  37.103  26.200   4.410
81170W        W54238  21.272  33.936  10.585
81171W        W54239  34.871   4.463  11.839
81172W        W54240  32.389  20.911  14.939
81173W        W54241   2.726  17.060  12.457
81174W        W54242  26.054  34.817   3.345
81175W        W54243  27.931   7.266  11.956
81176W        W54244  13.470  38.796  13.801
81177W        W54245  25.105  31.163  13.886
81178W        W54246  15.423   0.045  13.478
81179W        W54247  23.459  13.272   3.251
81180W        W54248  27.228  19.789   0.997
81181W        W54249  26.657  19.697   1.694
81182W        W54250  35.394  42.503  12.449
81183W        W54251   2.470  19.155  11.149
81184W        W54252   1.407   6.785   4.586
81185W        W54253  20.253   5.884   4.137
81186W        W54254  24.171  24.117  14.153
81187W        W54255  37.640   5.705  12.212
81188W        W54256  40.453  25.060  14.472
81189W        W54257  23.641   3.199  10.817
81190W        W54258   4.661  42.471   5.090
81191W        W54259  33.334  44.663   9.917
81192W        W54260  12.088  39.097  10.068
81193W        W54261   2.494  12.361   3.673
81194W        W54262   8.823  39.002   3.163
81195W        W54263  20.123  12.794   0.863
81196W        W54264   4.807  26.945   2.135
81197W        W54265   7.822  42.089   3.054
81198W        W54266  15.168   4.065  11.666
81199W        W54267   5.340  11.652   0.753
81200W        W54268  23.731  33.543  14.780
81201W        W54269   1.870  25.662   0.905
81202W        W54270  32.054  43.418   3.795
81203W        W54271   4.881  17.367  14.261
81204W        W54272  17.243   8.732  12.453
81205W        W54273  10.256  16.374  11.579
81206W        W54274   5.740  37.037   1.225
81207W        W54275  16.217   8.903   1.677
81208W        W54276   4.941  34.390   0.805
81209W        W54277  31.416  15.239  13.371
81210W        W54278   1.770  25.386  14.824
81211W        W54279  41.992  20.603   1.764
81212W        W54280   6.779  13.202   4.407
81213W        W54281  40.309   7.107  11.478
81214W        W54282  32.513  40.267   4.843
81215W        W54283  11.611  17.710  12.549
81216W        W54284  42.056  40.339   1.054
81217W        W54285  22.253   9.295  11.809
81218W        W54286  23.832   8.856  12.815
81219W        W54287  22.909   6.467  14.977
81220W        W54288  13.044  20.051  11.060
81221W        W54289  16.890  43.128  14.417
81222W        W54290   4.945  44.781  13.080
81223W        W54291  17.902  16.129   1.338
81224W        W54292  44.142  26.671   0.320
81225W        W54293  23.954  41.716  14.125
81226W        W54294  43.930  30.112  10.597
81227W        W54295  18.638  41.529   0.455
81228W        W54296  15.707  21.932   1.220
81229W        W54297  24.506  18.618   0.734
81230W        W54298  35.491  16.785   3.158
81231W        W54299  42.367  17.535   2.423
81232W        W54300  21.784  39.611  12.315
81233W        W54301  18.848  24.158  11.289
81234W        W54302   4.412  10.491  13.945
81235W        W54303  25.200  14.608   4.092
81236W        W54304  22.092  20.556   2.434
81237W        W54305  14.279  13.336  10.566
81238W        W54306   7.247  13.243  11.848
81239W        W54307   1.525   1.957   2.759
81240W        W54308   8.079  28.773   5.198
81241W        W54309  42.735  38.377  12.497
81242W        W54310  19.561  11.808   4.653
81243W        W54311   0.264  13.262   0.745
81244W        W54312  33.139  24.419   4.736
81245W        W54313  14.358  28.931  12.956
81246W        W54314  14.658  27.623  12.970
81247W        W54315  33.243  20.999   5.026
81248W        W54316  11.409  12.851  13.427
81249W        W54317   1.283  33.659   3.821
81250W        W54318  24.943   2.876  11.520
81251W        W54319   0.795  34.730   1.748
81252W        W54320  41.477  41.825  12.015
81253W        W54321  34.939   2.516  12.367
81254W        W54322  43.481  26.518   3.322
81255W        W54323  27.980  26.167   2.673
81256W        W54324  32.656  12.717   4.120
81257W        W54325  11.849  12.656  12.063
81258W        W54326  25.793  34.438   0.259
81259W        W54327  21.749  14.903  12.053
81260W        W54328  29.263   0.776   3.108
81261W        W54329  42.525  23.816   1.283
81262W        W54330  21.184   5.605  11.127
81263W        W54331   4.268  23.767  10.926
81264W        W54332   5.652  43.735  10.538
81265W        W54333  43.445  12.860   3.992
81266W        W54334  25.752  10.254  14.392
81267W        W54335  39.179  18.829   3.179
81268W        W54336  16.351  42.784  13.036
81269W        W54337  41.565   0.612  14.609
81270W        W54338  37.975  42.320   1.950
81271W        W54339  27.977   6.990  13.633
81272W        W54340   7.706   1.279   0.896
81273W        W54341  13.778  12.539  12.523
81274W        W54342  28.295   5.478   4.204
81275W        W54343   7.696  14.959  13.001
81276W        W54344  12.898   8.967  14.334
81277W        W54345   1.766  33.467   2.879
81278W        W54346  11.706  37.779   4.159
81279W        W54347   2.503  33.058   1.860
81280W        W54348  17.755  14.346  13.443
81281W        W54349   2.956   2.034   1.704
81282W        W54350  29.015  12.244   4.051
81283W        W54351  14.578  15.880  14.620
81284W        W54352  16.794  16.254  12.828
81285W        W54353  17.351   6.263  11.951
81286W        W54354   9.336  20.658  11.424
81287W        W54355  26.444  17.735   0.298
81288W        W54356   2.849  35.457   2.348
81289W        W54357   5.439  29.589  11.590
81290W        W54358  10.104  14.433  10.227
81291W        W54359  38.134  20.085   1.488
81292W        W54360  29.536   9.248  13.495
81293W        W54361   0.467  33.215  13.894
81294W        W54362  37.576  13.195  11.875
81295W        W54363  39.089  21.435  13.366
81296W        W54364  42.242   5.709  13.249
81297W        W54365  11.028  18.524   2.217
81298W        W54366  22.219  39.717   0.821
81299W        W54367  23.539  16.146   3.951
81300W        W54368   0.396   8.818  11.824
81301W        W54369  15.709  41.843   0.969
81302W        W54370  21.616  38.123   1.357
81303W        W54371  13.150  38.029   2.895
81304W        W54372  13.417  19.744  11.665
81305W        W54373  14.071  40.677   3.600
81306W        W54374  13.187  34.730  12.016
81307W        W54375  39.975  32.844   3.633
81308W        W54376  42.467  16.502   2.496
81309W        W54377  43.391  22.782   1.465
81310W        W54378   5.030  20.490  11.498
81311W        W54379  25.159  43.036  12.004
81312W        W54380  31.652  44.975   2.156
81313W        W54381  32.469   0.270  13.695
81314W        W54382  22.163   1.778  10.605
81315W        W54383  27.513  35.602   1.263
81316W        W54384  32.579  34.561  14.294
81317W        W54385  25.574  14.376   5.056
81318W        W54386   0.771  30.407  13.231
81319W        W54387   0.707   4.314   1.826
81320W        W54388  11.413  22.172  11.199
81321W        W54389   1.904  17.573   4.320
81322W        W54390  41.879  21.713   3.906
81323W        W54391   2.872   8.788   1.683
81324W        W54392  18.599  13.649   2.960
81325W        W54393  20.317  24.019  11.560
81326W        W54394  23.270  24.793   2.368
81327W        W54395  44.192   8.735   2.186
81328W        W54396  15.623  20.765   3.192
81329W        W54397  44.957   4.849   1.726
81330W        W54398  22.626   6.203   2.667
81331W        W54399  39.461   3.497  13.880
81332W        W54400  36.644  39.655   1.680
81333W        W54401   4.831  31.206  12.437
81334W        W54402  22.076  18.297   5.131
81335W        W54403  43.119  17.870   0.750
81336W        W54404  32.475  34.758   1.837
81337W        W54405  13.618  41.012  11.149
81338W        W54406  16.810   3.378  14.962
81339W        W54407  33.075   0.408  14.831
81340W        W54408   4.390   0.489  14.662
81341W        W54409  35.874   4.848   3.565
81342W        W54410  24.731   3.454  14.439
81343W        W54411  10.908  42.256  12.644
81344W        W54412  21.204  20.711  14.909
81345W        W54413  18.591  44.256  10.914
81346W        W54414  33.877  44.828  12.111
81347W        W54415  39.680  15.372  12.528
81348W        W54416  30.579   0.898   1.759
81349W        W54417   1.726   5.861   1.369
81350W        W54418   7.449  25.850  13.427
81351W        W54419   6.857   4.114   3.115
81352W        W54420  39.298  10.681   3.731
81353W        W54421  30.050   9.123   2.211
81354W        W54422  43.243  36.086  10.708
81355W        W54423  20.687   9.257   0.501
81356W        W54424   9.468  42.025  10.008
81357W        W54425  33.881  36.785  10.948
81358W        W54426   5.452   6.185   2.128
81359W        W54427   5.980  22.434  12.972
81360W        W54428   8.808  35.024   0.822
81361W        W54429   2.379  16.718  11.540
81362W        W54430   6.997  42.799   0.972
81363W        W54431  28.425  42.388  12.114
81364W        W54432  42.996  38.539  12.922
81365W        W54433  31.209  15.697   4.602
81366W        W54434  35.931  21.554   2.696
81367W        W54435  18.243   3.974   3.430
81368W        W54436  10.938  16.591   2.332
81369W        W54437  36.938  40.712   0.322
81370W        W54438   7.383  33.133   1.391
81371W        W54439  13.206   3.758   2.470
81372W        W54440   4.753   2.737   0.108
81373W        W54441  28.662  44.335  12.054
81374W        W54442  28.635  36.471  14.324
81375W        W54443  20.655  34.068  14.753
81376W        W54444  35.011  21.739  12.469
81377W        W54445  32.495  13.834   3.839
81378W        W54446   9.452   7.890   1.323
81379W        W54447   8.797  29.046  13.334
81380W        W54448  12.112  29.162   4.965
81381W        W54449  10.464  34.385  12.499
81382W        W54450  37.828  10.980   4.917
81383W        W54451  43.234   6.075  12.408
81384W        W54452   4.283  38.085   0.899
81385W        W54453   9.859   1.391   2.743
81386W        W54454  36.613   0.386   0.333
81387W        W54455  31.071  28.332  10.250
81388W        W54456  27.525  15.847  14.937
81389W        W54457  16.417   3.180   4.121
81390W        W54458  25.487  38.818   1.904
81391W        W54459   8.783   6.810  12.529
81392W        W54460   2.666  17.984   3.113
81393W        W54461  18.639  30.964   1.199
81394W        W54462  20.052   8.732   4.606
81395W        W54463  36.132   0.499  12.013
81396W        W54464  43.312  34.157  12.102
81397W        W54465  18.592  37.605  11.100
81398W        W54466  23.465  33.116   0.050
81399W        W54467  16.661  28.114   3.934
81400W        W54468  25.750  40.033   1.444
81401W        W54469  43.712  34.001  11.811
81402W        W54470  27.980  43.271   4.058
81403W        W54471  20.473  19.686  11.594
81404W        W54472  42.579  29.664  14.483
81405W        W54473  23.951   9.365   1.000
81406W        W54474  26.102  42.984  11.856
81407W        W54475  36.056   4.949   3.089
81408W        W54476  42.053  43.008  11.930
81409W        W54477  28.194  13.204  10.635
81410W        W54478  12.777  41.323   3.987
81411W        W54479  41.868  13.396  12.079
81412W        W54480  10.287  20.792   2.375
81413W        W54481  35.407  37.363  10.576
81414W        W54482  14.090  11.168  14.485
81415W        W54483  41.914  22.086   1.049
81416W        W54484  37.005   0.351  11.486
81417W        W54485  20.545   4.287  10.834
81418W        W54486  30.160  33.235  14.431
81419W        W54487  28.932  40.726   1.744
81420W        W54488   2.169  27.568   4.426
81421W        W54489  32.845  43.059  13.385
81422W        W54490  24.203  14.637   0.415
81423W        W54491  17.019  27.642   0.507
81424W        W54492   1.927  34.862  12.558
81425W        W54493  17.986  39.907  11.757
81426W        W54494   1.142  13.387  12.642
81427W        W54495  44.488  13.873  14.853
81428W        W54496  30.702  40.533  11.576
81429W        W54497  36.020  20.881  13.469
81430W        W54498  19.078   8.681   3.344
81431W        W54499  40.079  44.753  11.145
81432W        W54500   5.944  22.784  12.421
81433W        W54501   0.958  23.196   1.448
81434W        W54502   4.172   9.676  11.958
81435W        W54503   6.293  32.789   0.314
81436W        W54504  22.161  23.995   2.849
81437W        W54505  21.240  17.291  13.974
81438W        W54506  40.942   0.975  10.619
81439W        W54507  30.925   3.196  14.737
81440W        W54508   9.611  22.891  12.613
81441W        W54509  16.555  31.882   2.039
81442W        W54510  22.178  41.559   1.367
81443W        W54511  30.712   3.892   2.004
81444W        W54512  24.707  21.647  12.867
81445W        W54513   7.351  25.249  12.441
81446W        W54514  28.095   1.368  11.924
81447W        W54515   1.370  35.648   1.379
81448W        W54516  27.436  20.785   0.503
81449W        W54517  42.827  29.914  13.541
81450W        W54518  44.740  21.925  14.980
81451W        W54519  30.395  19.637  10.774
81452W        W54520  35.900  34.414  11.160
81453W        W54521  29.558  35.418   3.695
81454W        W54522   5.640   8.468  11.981
81455W        W54523   2.948   3.434  12.861
81456W        W54524  20.754  35.502   2.269
81457W        W54525  28.043  42.956   2.797
81458W        W54526  41.560   4.508   1.842
81459W        W54527  26.658  41.807  14.337
81460W        W54528  10.205   0.317   3.717
81461W        W54529  18.124  37.038   3.103
81462W        W54530  39.234   1.966   0.529
81463W        W54531  17.852  44.899  11.138
81464W        W54532  31.061  12.272  12.617
81465W        W54533  31.635  26.595   0.951
81466W        W54534  42.355   3.636   0.268
81467W        W54535   3.435   9.215   3.684
81468W        W54536  35.807  42.252   0.796
81469W        W54537  20.533  27.170  14.554
81470W        W54538  10.442  22.159   0.912
81471W        W54539   8.209  35.919   0.986
81472W        W54540  17.183  36.104  10.095
81473W        W54541  31.644  23.987  14.902
81474W        W54542  18.662   3.376   4.122
81475W        W54543  30.601   6.682  14.001
81476W        W54544  40.236  23.666   3.775
81477W        W54545  12.930  20.013  10.555
81478W        W54546  35.393   3.950  12.966
81479W        W54547  38.949   3.436  12.410
81480W        W54548  27.259  16.290   4.731
81481W        W54549   5.517   4.387   0.901
81482W        W54550  18.575  29.616   1.901
81483W        W54551  38.579  43.520   4.665
81484W        W54552  20.509  11.548  11.181
81485W        W54553  35.232   1.364   0.858
81486W        W54554  26.229  22.348   2.160
81487W        W54555   9.352   3.161   0.850
81488W        W54556  33.581  41.037   2.409
81489W        W54557   4.255  26.239   4.195
81490W        W54558   8.458   4.745  14.446
81491W        W54559  22.662  43.301   3.391
81492W        W54560  41.748  13.862  13.452
81493W        W54561   7.769  20.577   3.921
81494W        W54562  10.721   3.716   1.826
81495W        W54563  19.392  15.674   1.174
81496W        W54564  16.918  38.462  12.090
81497W        W54565  14.432   8.441   0.223
81498W        W54566  42.047   8.134   3.362
81499W        W54567  23.923  42.753   5.094
81500W        W54568  43.775  20.964  11.621
81501W        W54569  43.370   7.411  13.052
81502W        W54570  43.808  18.774   4.634
81503W        W54571  11.170  39.374   4.424
81504W        W54572  22.258  17.043   0.405
81505W        W54573  12.563  20.991   4.510
81506W        W54574  24.944  44.904  12.313
81507W        W54575   5.497  14.855  13.483
81508W        W54576  13.347  23.504   5.113
81509W        W54577   8.057  20.678   3.064
81510W        W54578  13.062  16.134  10.707
81511W        W54579  24.047  18.736   3.655
81512W        W54580  38.842   5.057   1.246
81513W        W54581  34.369  31.851  10.242
81514W        W54582  15.937  33.507  13.425
81515W        W54583  20.587  13.503   3.763
81516W        W54584  39.501  19.258   1.030
81517W        W54585  17.218  41.729   3.594
81518W        W54586  14.701  10.735  10.813
81519W        W54587  37.271   2.196   0.547
81520W        W54588  38.990  35.426  13.824
81521W        W54589  40.016  16.655  14.652
81522W        W54590   0.369  16.598   0.407
81523W        W54591  13.061  38.555   0.441
81524W        W54592   3.734  12.672  11.041
81525W        W54593  21.110   1.945  11.704
81526W        W54594   1.903  40.759   0.738
81527W        W54595  32.623   6.858  10.697
81528W        W54596   0.036  30.026   3.711
81529W        W54597  36.204   3.544  12.362
81530W        W54598  33.175   6.691   4.083
81531W        W54599  14.765  18.024  11.535
81532W        W54600  27.529   3.800  12.831
81533W        W54601   0.459  33.333   0.932
81534W        W54602  20.259  31.979  10.673
81535W        W54603  33.588  43.907  11.165
81536W        W54604   3.779   5.625   0.497
81537W        W54605   8.598  36.481  12.068
81538W        W54606  21.745  22.690   1.731
81539W        W54607  44.532   7.393   2.816
81540W        W54608  30.501  38.995  13.336
81541W        W54609   9.635   1.355  10.863
81542W        W54610  17.830  31.984   0.943
81543W        W54611  17.711  38.030  13.607
81544W        W54612  23.205  15.151  10.745
81545W        W54613   3.809  14.843  13.771
81546W        W54614  21.969   8.741   0.303
81547W        W54615  32.028  21.036   0.936
81548W        W54616  28.190   6.299   0.729
81549W        W54617  22.571   3.682  13.556
81550W        W54618  31.190  20.659   1.459
81551W        W54619  27.493   9.653  14.081
81552W        W54620  12.874   3.182   0.738
81553W        W54621   9.716  14.336  10.969
81554W        W54622  17.567   4.372   0.044
81555W        W54623  25.728  39.878   4.922
81556W        W54624  37.603  42.262   1.455
81557W        W54625  42.930   3.824   2.910
81558W        W54626  18.487  37.254  12.551
81559W        W54627  10.745   1.920  11.605
81560W        W54628  42.874  22.027   1.380
81561W        W54629  15.537  26.510  12.761
81562W        W54630   2.363  12.275  12.955
81563W        W54631   0.187  16.673  14.581
81564W        W54632   5.803  36.567   0.385
81565W        W54633  41.911  28.130  13.114
81566W        W54634  14.638   8.444  10.744
81567W        W54635   8.909  36.437   4.124
81568W        W54636   1.200  16.967   4.743
81569W        W54637  15.997  22.037  12.134
81570W        W54638  34.857  39.490  12.089
81571W        W54639   7.455  22.191  11.228
81572W        W54640   5.216  25.892  11.694
81573W        W54641  27.074  22.151  10.614
81574W        W54642   9.157  24.193   2.559
81575W        W54643  10.634  22.256  14.189
81576W        W54644  30.239  12.770   3.148
81577W        W54645   2.795  11.692  13.304
81578W        W54646   7.980   1.496   0.366
81579W        W54647  35.755  12.446  11.087
81580W        W54648  24.185  19.535   1.072
81581W        W54649  12.152  24.161   0.825
81582W        W54650  12.146  37.896  10.755
81583W        W54651  42.883  24.131   0.313
81584W        W54652  33.910   2.026  14.255
81585W        W54653  36.383  43.812   1.868
81586W        W54654   3.228   5.137   3.840
81587W        W54655   4.677  18.537   1.356
81588W        W54656  38.965   4.968  13.905
81589W        W54657  30.742  15.067  11.043
81590W        W54658  17.692  20.852   1.258
81591W        W54659  16.156  34.008   3.208
81592W        W54660   5.741  29.078   0.740
81593W        W54661  19.190  14.763  12.971
81594W        W54662  41.458  33.953  13.557
81595W        W54663  43.427  34.019  13.121
81596W        W54664  14.826  32.538   4.840
81597W        W54665  24.716  34.444  14.917
81598W        W54666  28.484  43.291   4.022
81599W        W54667  30.939  28.129   1.196
81600W        W54668  24.757  34.581   2.975
81601W        W54669  12.109  19.260   3.992
81602W        W54670  33.517   0.982   4.167
81603W        W54671   1.896  19.127  12.560
81604W        W54672   0.796  41.514  12.007
81605W        W54673  20.162  34.522  12.332
81606W        W54674  20.498  26.514   3.687
81607W        W54675  43.437  31.838  12.569
81608W        W54676  24.773   4.086   1.961
81609W        W54677  44.836  21.528   4.895
81610W        W54678   7.811  29.451   4.318
81611W        W54679   3.897  31.471   4.772
81612W        W54680   4.211  10.594  11.961
81613W        W54681  14.089  34.599   4.618
81614W        W54682  17.132  27.453   1.993
81615W        W54683   6.638  36.533   2.316
81616W        W54684  13.688  38.290  14.799
81617W        W54685  19.766  32.748   2.340
81618W        W54686  10.707   2.229   1.941
81619W        W54687   7.368  42.084  12.172
81620W        W54688  42.819  34.555   4.699
81621W        W54689   8.643  33.335  13.876
81622W        W54690  35.406  17.131  11.085
81623W        W54691  19.199  30.896  11.848
81624W        W54692   7.492   6.761   3.358
81625W        W54693   7.376   6.997  13.901
81626W        W54694  23.164  18.658   2.356
81627W        W54695  36.157   0.776   2.313
81628W        W54696  11.961   2.901  11.554
81629W        W54697   7.666  32.420   0.396
81630W        W54698  20.121  42.282   2.234
81631W        W54699  15.964  39.113   3.383
81632W        W54700   2.977  14.389   2.752
81633W        W54701  12.580   0.522   0.759
81634W        W54702  32.077  36.531   3.656
81635W        W54703  10.625  37.279   2.682
81636W        W54704   8.579  12.774   3.705
81637W        W54705  10.779  39.645   3.072
81638W        W54706  33.559  19.221   4.171
81639W        W54707  11.312   8.299  11.243
81640W        W54708  31.972  38.487   0.718
81641W        W54709   1.388  33.602  12.607
81642W        W54710  21.478   9.266  13.287
81643W        W54711   4.680  24.341   3.790
81644W        W54712  17.657   3.954  10.646
81645W        W54713  25.497  42.728  13.880
81646W        W54714  31.244  23.735  14.013
81647W        W54715  19.756   8.208  14.985
81648W        W54716  33.727  31.972  10.533
81649W        W54717  37.047  23.564  12.507
81650W        W54718  39.486  44.027  13.837
81651W        W54719   5.158  16.844  11.636
81652W        W54720  33.035  14.585  13.080
81653W        W54721  26.545  13.282  10.239
81654W        W54722   4.389  10.084   1.879
81655W        W54723  11.244  22.053  13.980
81656W        W54724  34.106  29.616  12.514
81657W        W54725  38.803  13.361  14.170
81658W        W54726   4.930  38.957   1.905
81659W        W54727  25.523   1.181  12.536
81660W        W54728  16.347  12.867  14.784
81661W        W54729  42.128  11.751  10.774
81662W        W54730  29.925  26.525   1.425
81663W        W54731  38.467  17.550   1.735
81664W        W54732  15.387  17.349   2.669
81665W        W54733   4.787  43.015   1.370
81666W        W54734  35.144  40.628   2.168
81667W        W54735  13.333   8.717   2.754
81668W        W54736   7.383  38.056  12.409
81669W        W54737  10.700  17.580   4.973
81670W        W54738  12.379  43.921  11.988
81671W        W54739  30.930  44.910   4.924
81672W        W54740  33.940  19.902   0.105
81673W        W54741  43.938  30.633  14.606
81674W        W54742  27.643  34.056   1.235
81675W        W54743  28.730  20.077   2.234
81676W        W54744  24.749  33.491  14.852
81677W        W54745  43.494   2.866  12.913
81678W        W54746  15.938  11.212  10.059
81679W        W54747  28.084  28.536   3.438
81680W        W54748  10.342   2.140  14.408
81681W        W54749   6.288  32.110   4.074
81682W        W54750   7.430  20.119   3.116
81683W        W54751  43.007  33.405  14.948
81684W        W54752  27.604  16.119  10.559
81685W        W54753   0.559  28.998   2.749
81686W        W54754  35.055  39.710   0.320
81687W        W54755  35.461  35.294  13.077
81688W        W54756  15.088  39.889  13.888
81689W        W54757   7.926  32.881  11.823
81690W        W54758  12.500  24.749  11.156
81691W        W54759  39.457  13.871   2.456
81692W        W54760  15.170   6.758   2.138
81693W        W54761  38.161  26.463  11.263
81694W        W54762  31.576  20.799  13.859
81695W        W54763  21.457  14.792   1.675
81696W        W54764   3.244  28.891   1.667
81697W        W54765  26.485  18.668  10.701
81698W        W54766  16.825  21.009  13.858
81699W        W54767  39.057  21.340  11.114
81700W        W54768  40.993   1.218  11.094
81701W        W54769   3.271  37.148   3.082
81702W        W54770  36.897  31.738   9.694
81703W        W54771  14.174  41.486   1.869
81704W        W54772  36.952  41.365   1.792
81705W        W54773  18.204  17.216  10.700
81706W        W54774  16.163  30.622   1.718
81707W        W54775  31.751  43.353  10.380
81708W        W54776  13.808  11.782   2.568
81709W        W54777   4.817  23.153   4.604
81710W        W54778  10.341  32.576   1.281
81711W        W54779  28.693  23.308   4.891
81712W        W54780  17.578  37.590   3.693
81713W        W54781  41.188   2.874   3.384
81714W        W54782  25.140   2.086   1.365
81715W        W54783  37.807  38.474   1.960
81716W        W54784  30.358  40.480  11.990
81717W        W54785  28.922  43.948   1.946
81718W        W54786  22.781  19.171  13.574
81719W        W54787  37.009   6.740  11.934
81720W        W54788  16.258   9.448  13.534
81721W        W54789   2.009  29.095  13.907
81722W        W54790  41.511  10.699  12.203
81723W        W54791  40.009  18.622  11.546
81724W        W54792  18.110  39.037  10.496
81725W        W54793  43.899  33.492   1.298
81726W        W54794  27.682  31.696   1.272
81727W        W54795  37.338  16.523   4.742
81728W        W54796   3.751   8.928   4.125
81729W        W54797   2.920  13.607   3.237
81730W        W54798  27.159   4.195   4.581
81731W        W54799   9.854  26.813   0.299
81732W        W54800  31.529  28.436   2.326
81733W        W54801  43.470   2.679  10.592
81734W        W54802  40.696  36.799  13.456
81735W        W54803  14.244  32.138  12.551
81736W        W54804  13.173  21.449  10.829
81737W        W54805  29.073  21.263   4.448
81738W        W54806  21.822  28.421  14.241
81739W        W54807  40.340   2.459   5.375
81740W        W54808   1.444  16.158  12.572
81741W        W54809  13.225  44.522   0.962
81742W        W54810   9.934  34.394  13.822
81743W        W54811  44.817  25.738   2.694
81744W        W54812  18.492  43.984  14.017
81745W        W54813  24.115  22.767   4.704
81746W        W54814  33.076  42.427  12.433
81747W        W54815  16.139   2.954  14.362
81748W        W54816   7.993  28.604   4.709
81749W        W54817   5.739  25.762  11.596
81750W        W54818  11.288  32.925   2.672
81751W        W54819  25.991  14.238  10.867
81752W        W54820  33.968  24.216  12.157
81753W        W54821  36.405  38.493   3.896
81754W        W54822  42.343   2.798  13.428
81755W        W54823   5.753  22.042   2.743
81756W        W54824   0.941  22.974   0.313
81757W        W54825   3.727   7.749  12.519
81758W        W54826  17.685  15.352  12.030
81759W        W54827  33.440  32.254  12.542
81760W        W54828  27.680  27.135  10.624
81761W        W54829  16.169  15.811   2.633
81762W        W54830  41.580  18.731  12.385
81763W        W54831  25.792  22.121  12.416
81764W        W54832  30.088  18.722   0.970
81765W        W54833  38.413  24.005  13.074
81766W        W54834  10.783  20.521   2.398
81767W        W54835  12.999  17.830  10.221
81768W        W54836  11.097  11.339  14.478
81769W        W54837  15.408   5.277   0.300
81770W        W54838  35.647  34.252  12.041
81771W        W54839   8.922   1.567  12.370
81772W        W54840  41.983   9.830  11.050
81773W        W54841  37.911   6.764   3.233
81774W        W54842  18.259   5.898   0.851
81775W        W54843  29.692  29.094   2.882
81776W        W54844  43.658  13.399  11.913
81777W        W54845  25.535  24.319  11.160
81778W        W54846  26.515  13.278   1.833
81779W        W54847   8.926  40.531  12.459
81780W        W54848  41.108   8.416   4.206
81781W        W54849  25.430  26.510  12.343
81782W        W54850  15.803  42.496  10.677
81783W        W54851  22.901   8.211  12.423
81784W        W54852  29.502  24.244  14.524
81785W        W54853   5.651  26.682  13.478
81786W        W54854  18.046  19.480   2.879
81787W        W54855   3.741  36.592  13.550
81788W        W54856  26.527  44.053   1.550
81789W        W54857  24.455  13.136  11.616
81790W        W54858  42.828  26.332   4.477
81791W        W54859   1.714  18.832  12.154
81792W        W54860  15.540  11.554  14.251
81793W        W54861  18.497  23.227   2.013
81794W        W54862  33.368  15.585   3.298
81795W        W54863  13.128  29.503   1.619
81796W        W54864  18.603  20.223   3.680
81797W        W54865  30.503  33.688   1.867
81798W        W54866  11.360  12.875  12.895
81799W        W54867   6.674   3.945  13.308
81800W        W54868  27.049  41.105   1.808
81801W        W54869  34.507  33.957   4.976
81802W        W54870  39.525   8.240  11.603
81803W        W54871  10.521  28.228  11.810
81804W        W54872  29.005  23.191   2.838
81805W        W54873  29.356  36.100   2.325
81806W        W54874  33.097   8.861   1.787
81807W        W54875  42.859   2.170  12.909
81808W        W54876  39.395   1.176  11.600
81809W        W54877  29.917  18.972  11.054
81810W        W54878   6.778  40.473   4.218
81811W        W54879  33.881  32.081  11.954
81812W        W54880  21.495  36.574  10.800
81813W        W54881   6.697  10.618  12.469
81814W        W54882   3.804  24.995  11.151
81815W        W54883  30.071  16.887   3.701
81816W        W54884  11.129  42.777  13.513
81817W        W54885  19.953   8.424  12.552
81818W        W54886  13.044   6.190  11.966
81819W        W54887  35.795  17.975   3.602
81820W        W54888  28.101  33.961  12.462
81821W        W54889   2.186  39.351  13.990
81822W        W54890  39.805  21.625  14.290
81823W        W54891  44.049   5.735   0.665
81824W        W54892   8.780  43.571   0.075
81825W        W54893  16.212  11.660  11.078
81826W        W54894  15.088  39.919  12.372
81827W        W54895   5.907  40.095   1.343
81828W        W54896   9.464  18.304   3.240
81829W        W54897   6.161  27.944  11.697
81830W        W54898   6.799   7.142   0.422
81831W        W54899  19.805   4.213   3.241
81832W        W54900  17.155  29.135  13.832
81833W        W54901  37.911  15.202   3.864
81834W        W54902  30.481  35.892   3.570
81835W        W54903  19.456  16.494  14.081
81836W        W54904   4.372   4.596  12.451
81837W        W54905  32.004  15.685  10.327
81838W        W54906  17.012   3.431  12.592
81839W        W54907  22.588  41.636   1.704
81840W        W54908  21.399  38.011   2.679
81841W        W54909  22.011  13.829  10.679
81842W        W54910  14.359  41.785   1.477
81843W        W54911  36.414  12.181   4.844
81844W        W54912  21.557  38.619   0.571
81845W        W54913  26.184  11.832  11.017
81846W        W54914  24.402  36.597  14.892
81847W        W54915   6.168   1.866   2.670
81848W        W54916  32.979  33.079  13.394
81849W        W54917  16.541  29.585   1.215
81850W        W54918  27.754  15.099  12.305
81851W        W54919  35.771   4.277   4.567
81852W        W54920  10.933  41.538  12.869
81853W        W54921   3.886  19.192  14.140
81854W        W54922  38.921  18.626   2.777
81855W        W54923  11.791  34.213  14.650
81856W        W54924  37.056  23.785  13.434
81857W        W54925  10.294   7.915  12.051
81858W        W54926  37.054   2.330  12.417
81859W        W54927  10.799  32.357   3.201
81860W        W54928  23.097  39.749   3.668
81861W        W54929  26.026  26.157  13.397
81862W        W54930  36.942  28.826   2.335
81863W        W54931  27.950  41.910  11.869
81864W        W54932  23.188  33.829  11.675
81865W        W54933  30.386  40.503   4.255
81866W        W54934  27.692  29.339   0.959
81867W        W54935  14.146   7.620   2.760
81868W        W54936   8.192  25.554  10.706
81869W        W54937   7.636  23.011   0.415
81870W        W54938   1.964  31.083  14.707
81871W        W54939  41.592  25.110   4.549
81872W        W54940  39.373  23.130   0.957
81873W        W54941  10.741  29.932  12.638
81874W        W54942  15.694  25.078   0.981
81875W        W54943   6.902  28.357  14.864
81876W        W54944   2.533  10.595   0.811
81877W        W54945  32.316  23.560   0.428
81878W        W54946  29.625  12.263  11.917
81879W        W54947  39.554  44.338   4.148
81880W        W54948   3.778  25.690   4.731
81881W        W54949   7.666  34.894  14.428
81882W        W54950  34.852  22.752   2.626
81883W        W54951  44.316  39.586  13.772
81884W        W54952  35.985   2.206  14.454
81885W        W54953  23.064   1.992   1.438
81886W        W54954  21.109  26.594  10.620
81887W        W54955  11.654  14.684   4.264
81888W        W54956  42.889  18.824  11.191
81889W        W54957   3.934  17.337   4.124
81890W        W54958  20.298   8.247  11.629
81891W        W54959   5.609  17.838   2.147
81892W        W54960  24.574  11.517  12.951
81893W        W54961  31.214  34.571  12.955
81894W        W54962   1.373  16.396  11.086
81895W        W54963  10.274  20.543   1.408
81896W        W54964  27.592  28.038   4.618
81897W        W54965  19.088  37.787  11.081
81898W        W54966  27.500  14.714  12.109
81899W        W54967  17.092  36.102   3.235
81900W        W54968  20.521  41.791  13.838
81901W        W54969  43.987  17.761  13.848
81902W        W54970  13.773  20.747  12.483
81903W        W54971  36.949  41.881   0.173
81904W        W54972  26.962  33.550   2.197
81905W        W54973   5.243  24.637  11.000
81906W        W54974  33.968   4.851   0.921
81907W        W54975  38.311  13.792  14.787
81908W        W54976  10.629  44.999   1.850
81909W        W54977   2.307   0.329   3.759
81910W        W54978  10.972  20.060   4.939
81911W        W54979  36.600  30.773   0.286
81912W        W54980   7.862  39.496  10.757
81913W        W54981   3.970  36.565   0.066
81914W        W54982   9.890  37.297   0.397
81915W        W54983  25.928  27.997  13.809
81916W        W54984  24.180   8.388   4.084
81917W        W54985  32.010  37.017   3.392
81918W        W54986  15.069  17.670   4.104
81919W        W54987  14.947   3.474  13.267
81920W        W54988  38.126   9.141  11.590
81921W        W54989  22.551   1.469  10.432
81922W        W54990  29.684  28.663  13.017
81923W        W54991  16.903  28.340   1.020
81924W        W54992  13.327  31.675  11.095
81925W        W54993  13.354  10.583   3.620
81926W        W54994   2.532  39.271   1.818
81927W        W54995  36.437   4.290  10.427
81928W        W54996  16.646  24.730   0.967
81929W        W54997  16.638   6.247   2.857
81930W        W54998  24.217  22.472  12.912
81931W        W54999   5.091  18.073  10.422
81932W        W55000  41.830  24.742  14.401
81933W        W55001   1.978  32.615  14.490
81934W        W55002  43.328  11.542   3.255
81935W        W55003   1.485  40.810  14.931
81936W        W55004   3.184  33.238   2.788
81937W        W55005   9.101   0.744  14.308
81938W        W55006  13.825  21.133  10.809
81939W        W55007  15.721  42.728  13.915
81940W        W55008   1.413  33.119  13.740
81941W        W55009  42.921   0.801  13.500
81942W        W55010   7.381  23.017   3.904
81943W        W55011  24.002  28.483  14.891
81944W        W55012  28.441  29.901   1.252
81945W        W55013  29.641   2.174   0.885
81946W        W55014   6.445  25.054  14.991
81947W        W55015  25.548  38.022   5.090
81948W        W55016   8.127   2.662  13.067
81949W        W55017  26.029  21.284   0.876
81950W        W55018  20.297   1.213   2.920
81951W        W55019   8.335  26.314  12.978
81952W        W55020  20.631   4.847  12.893
81953W        W55021  40.862  16.406  12.310
81954W        W55022  30.010  21.327  11.997
81955W        W55023  10.326  38.341  14.308
81956W        W55024  15.421  11.778  14.867
81957W        W55025  31.717  13.342  12.478
81958W        W55026  11.652   5.100   2.672
81959W        W55027  18.838   2.051   1.459
81960W        W55028   8.961  19.227   3.408
81961W        W55029  16.149  19.667   0.470
81962W        W55030  25.602  10.885  12.002
81963W        W55031  29.921   7.718   1.942
81964W        W55032   2.298  44.898   2.576
81965W        W55033  39.124  41.277  11.507
81966W        W55034   0.831   7.713   4.047
81967W        W55035   1.290   0.364  14.479
81968W        W55036  23.505  34.777  12.880
81969W        W55037  20.103  16.755  12.865
81970W        W55038   0.239  22.489  14.466
81971W        W55039  27.562   4.323  14.023
81972W        W55040   8.871  29.664  12.628
81973W        W55041  33.608  20.512   1.831
81974W        W55042  21.203  29.288   2.842
81975W        W55043  12.602  11.822   1.830
81976W        W55044  18.811   0.304  14.428
81977W        W55045  39.788  44.418   4.670
81978W        W55046   6.338  39.594  11.860
81979W        W55047  15.820   6.986   1.745
81980W        W55048  24.551   1.616   3.100
81981W        W55049  27.347   4.391  11.624
81982W        W55050  26.223   2.173   2.374
81983W        W55051  26.520  19.668  12.112
81984W        W55052  20.789  36.063   4.382
81985W        W55053   9.614   5.116  13.839
81986W        W55054  29.989  31.137   4.918
81987W        W55055  30.045   8.180   4.093
81988W        W55056  13.214  26.737  14.493
81989W        W55057  29.395   6.294  14.466
81990W        W55058  32.634  34.528  13.784
81991W        W55059  26.943   7.075   1.801
81992W        W55060  38.274  15.583  12.479
81993W        W55061  42.706   5.886  12.366
81994W        W55062   2.035   8.431  11.901
81995W        W55063   1.384  32.148   3.960
81996W        W55064  12.678  34.964   3.335
81997W        W55065  31.013  18.609  14.077
81998W        W55066  10.094   2.316  11.147
81999W        W55067   8.930  28.062   2.896
82000W        W55068  33.480  23.637   3.019
82001W        W55069  41.795  12.079   4.047
82002W        W55070   8.095  27.894  12.505
82003W        W55071  25.224   5.146  11.614
82004W        W55072  29.947  25.607   2.305
82005W        W55073  27.214   6.798  11.232
82006W        W55074  30.874  39.925  10.420
82007W        W55075   5.993  17.799   0.425
82008W        W55076  31.029  17.155  10.535
82009W        W55077   0.101   2.844   3.880
82010W        W55078  18.223  41.497  14.059
82011W        W55079  11.459   5.753  14.347
82012W        W55080  18.116  17.226  13.314
82013W        W55081  35.095  10.624  13.750
82014W        W55082  18.208  33.975  11.423
82015W        W55083   6.679   5.695  11.634
82016W        W55084  40.427  15.035   0.853
82017W        W55085  36.261  25.089   5.026
82018W        W55086  18.884  20.249   3.173
82019W        W55087  39.931  10.426  12.464
82020W        W55088  10.713  10.536   0.796
82021W        W55089  42.514  21.679  10.559
82022W        W55090  36.982  34.083   3.689
82023W        W55091  14.241  35.880   1.707
82024W        W55092  15.771  19.898  12.602
82025W        W55093  39.779  10.774   0.282
82026W        W55094   7.709  12.798   3.349
82027W        W55095  25.135  33.323   0.603
82028W        W55096   3.597  36.404   0.511
82029W        W55097  27.095   3.767  10.645
82030W        W55098   7.470   5.356  12.084
82031W        W55099   1.441  24.185   2.211
82032W        W55100   8.118   4.171  11.661
82033W        W55101  15.372  36.430  14.521
82034W        W55102  27.564  26.652  11.916
82035W        W55103  10.191  37.330  10.571
82036W        W55104  35.081   5.334   0.425
82037W        W55105   5.694  43.312   4.475
82038W        W55106  39.952  26.742  12.449
82039W        W55107  29.383  31.526  13.808
82040W        W55108   0.372  10.404   1.757
82041W        W55109  16.733  33.208  13.103
82042W        W55110  21.447  35.602  14.076
82043W        W55111  38.746  16.113  10.930
82044W        W55112  29.020   7.838  11.551
82045W        W55113  25.642  23.973   0.885
82046W        W55114  30.921  19.761  12.396
82047W        W55115  44.119  33.877  14.892
82048W        W55116  17.571  34.894  12.412
82049W        W55117  12.784   1.903   4.697
82050W        W55118  12.840   0.982   0.821
82051W        W55119   7.535  40.350   0.238
82052W        W55120   0.843  30.114  14.080
82053W        W55121  25.546  13.706  13.625
82054W        W55122  29.614  17.666   0.843
82055W        W55123  26.414  43.083  14.965
82056W        W55124  39.904   3.544   4.656
82057W        W55125   3.870  42.890   5.091
82058W        W55126  23.629  35.151   1.775
82059W        W55127  35.370  10.347  13.403
82060W        W55128  28.448  11.997   9.936
82061W        W55129   2.209  16.876  10.675
82062W        W55130  30.454  17.303   1.190
82063W        W55131  10.200  34.620   3.273
82064W        W55132   2.274  44.415   3.375
82065W        W55133  31.695   4.796   0.915
82066W        W55134   0.100   8.112  12.806
82067W        W55135   7.210  20.498   3.364
82068W        W55136   5.948  18.253   4.119
82069W        W55137   5.894  42.868  12.036
82070W        W55138   2.871  11.190  13.347
82071W        W55139  24.958  28.117   3.627
82072W        W55140   0.944   2.820  14.756
82073W        W55141  18.582   4.373  10.873
82074W        W55142   9.152   2.313  10.787
82075W        W55143   2.612   2.620   4.695
82076W        W55144   6.131   1.031   4.989
82077W        W55145  30.624  27.269  11.168
82078W        W55146  22.131  30.574  14.950
82079W        W55147  22.075  28.788   1.906
82080W        W55148  10.134  17.667   4.188
82081W        W55149   9.331  18.710   2.241
82082W        W55150  22.096  25.045   0.910
82083W        W55151  15.119   7.456   2.728
82084W        W55152  37.570  14.298   0.711
82085W        W55153  38.021  44.235  12.097
82086W        W55154  38.747  41.850   2.384
82087W        W55155  23.538  26.544  11.989
82088W        W55156   9.442  13.632  12.917
82089W        W55157  37.310  34.371   0.852
82090W        W55158   7.757  36.232   2.872
82091W        W55159  11.171  22.536   1.494
82092W        W55160  29.221  17.781   2.145
82093W        W55161  43.928  10.164   4.175
82094W        W55162   4.769  37.438   4.102
82095W        W55163  21.791  15.622  14.747
82096W        W55164  18.189  17.720  13.368
82097W        W55165  25.347  12.040   3.879
82098W        W55166   6.512   2.860  12.454
82099W        W55167  22.510  23.035  11.549
82100W        W55168  37.343  33.446   0.797
82101W        W55169  40.514  43.425  11.163
82102W        W55170  31.877  37.563   4.256
82103W        W55171   4.338  30.724  13.026
82104W        W55172   4.416  19.577  14.871
82105W        W55173  31.697  18.622  12.875
82106W        W55174  21.301  34.858   1.663
82107W        W55175  15.450  30.846  11.087
82108W        W55176  30.462  22.625  12.464
82109W        W55177   8.940  39.693   5.499
82110W        W55178  31.183   3.954   2.240
82111W        W55179   6.229  25.463  10.874
82112W        W55180   6.815  44.227   1.795
82113W        W55181  44.638  28.274   3.711
82114W        W55182   9.630   5.868  11.348
82115W        W55183  37.058  23.770   1.991
82116W        W55184  10.151  22.582   3.196
82117W        W55185  36.467   2.870   4.774
82118W        W55186  25.692  41.881  11.322
82119W        W55187  40.754  15.665  10.560
82120W        W55188  39.834  36.406   2.314
82121W        W55189   2.266  31.747  14.386
82122W        W55190   9.446  44.998  12.949
82123W        W55191  25.080   9.532   3.221
82124W        W55192   1.343  43.920   2.629
82125W        W55193   0.969  24.981  13.303
82126W        W55194   4.161  27.625   0.935
82127W        W55195  35.834   1.249   4.874
82128W        W55196  38.347  41.954  13.873
82129W        W55197  40.036  11.868   1.471
82130W        W55198  41.187  25.284   0.459
82131W        W55199  36.418  27.061  10.587
82132W        W55200  11.346  15.308   1.267
82133W        W55201  16.961  30.666   4.082
82134W        W55202  19.815  27.509  13.320
82135W        W55203  37.634  34.871   5.112
82136W        W55204  27.565  10.734   2.459
82137W        W55205  44.847  43.971   1.840
82138W        W55206  31.569   2.648  11.679
82139W        W55207   7.175   1.287  13.443
82140W        W55208  11.271  30.439   3.352
82141W        W55209  20.776  11.091   2.091
82142W        W55210  29.161  41.417  12.285
82143W        W55211   6.397   4.452  11.476
82144W        W55212  21.187   8.464  14.890
82145W        W55213  14.874   1.180  11.634
82146W        W55214   4.485  36.128  12.807
82147W        W55215  19.986  31.565  12.838
82148W        W55216   0.887  16.360   3.358
82149W        W55217  22.344   2.826  14.359
82150W        W55218  20.047  24.584   2.359
82151W        W55219  15.172  15.838  13.423
82152W        W55220  40.562  37.295  13.466
82153W        W55221  17.357  11.985   2.689
82154W        W55222   8.205  28.218   4.971
82155W        W55223   2.140   0.792   0.159
82156W        W55224   1.725  35.022   4.174
82157W        W55225  28.540  30.030  13.787
82158W        W55226  22.407  30.397   1.408
82159W        W55227  14.876   0.231  12.098
82160W        W55228  41.706  16.892   3.721
82161W        W55229  32.290   2.543  11.110
82162W        W55230  10.805  28.014  10.710
82163W        W55231   2.296  15.104   4.579
82164W        W55232  43.292  32.378  10.418
82165W        W55233   5.364  26.693  11.953
82166W        W55234  44.285   1.989  12.782
82167W        W55235  42.471  23.748  12.630
82168W        W55236  32.053  33.855  14.148
82169W        W55237  27.574  21.603  14.335
82170W        W55238   4.956  17.025  11.205
82171W        W55239  24.022  18.232   4.543
82172W        W55240  30.974  29.531   0.987
82173W        W55241  26.063   7.934  13.876
82174W        W55242   0.993  12.681  13.586
82175W        W55243  43.042  37.112   4.584
82176W        W55244  39.078   1.977   3.124
82177W        W55245  29.491  13.769   4.246
82178W        W55246  32.253  29.642  10.211
82179W        W55247  25.479   9.807   2.640
82180W        W55248  37.769  18.877   2.825
82181W        W55249   9.697  42.310  11.084
82182W        W55250  11.999  29.166  10.797
82183W        W55251  44.869   7.697   3.083
82184W        W55252  13.332  26.074  14.496
82185W        W55253   8.408  18.606   1.726
82186W        W55254  19.492   3.399   4.757
82187W        W55255  27.199  40.873   3.221
82188W        W55256  40.455  36.405  13.890
82189W        W55257   3.916  23.019   3.819
82190W        W55258   0.496  32.213  11.890
82191W        W55259  21.610  26.996  14.563
82192W        W55260   1.517  26.108   1.952
82193W        W55261  22.081  33.375  11.599
82194W        W55262  40.501  17.550   4.151
82195W        W55263  44.970  25.633   1.255
82196W        W55264  40.306  41.831  11.124
82197W        W55265  20.210  41.318   5.060
82198W        W55266  39.835  24.712  13.119
82199W        W55267   8.368  27.532  14.058
82200W        W55268  19.191  11.103   2.979
82201W        W55269   9.923  20.963   1.348
82202W        W55270  26.591   6.660  12.018
82203W        W55271  26.153  11.595   1.762
82204W        W55272   6.201  36.338   2.627
82205W        W55273  11.861  23.358   3.651
82206W        W55274  14.631  33.959  14.969
82207W        W55275  22.754  22.972   2.341
82208W        W55276  33.282  13.201   1.295
82209W        W55277   8.210  31.314  10.998
82210W        W55278  35.079  13.254  12.629
82211W        W55279  18.481   0.350   1.284
82212W        W55280  38.518  25.011   2.234
82213W        W55281  20.787  34.737   0.871
82214W        W55282  40.500   8.725   1.830
82215W        W55283  21.036  38.850  13.465
82216W        W55284   6.206  31.988  12.419
82217W        W55285  40.966  44.206  13.809
82218W        W55286  36.981  38.950   3.212
82219W        W55287  15.528  25.564   1.110
82220W        W55288  18.178  16.205  14.517
82221W        W55289  11.620  30.932   2.696
82222W        W55290  30.744  32.056   0.324
82223W        W55291  42.071  23.665  13.530
82224W        W55292  31.399  18.859   2.511
82225W        W55293  21.627   5.454  10.672
82226W        W55294   9.405   6.283   5.232
82227W        W55295  43.073   3.443  10.788
82228W        W55296  19.805   0.584   5.080
82229W        W55297  38.829   6.010  11.400
82230W        W55298  15.184  31.721   0.432
82231W        W55299  25.629  41.274  10.078
82232W        W55300  42.858  24.660   5.113
82233W        W55301  27.241   5.338  13.043
82234W        W55302  40.098   6.267   1.767
82235W        W55303  41.786  12.292   4.535
82236W        W55304  41.223  38.104   4.138
82237W        W55305  32.397  18.310  11.103
82238W        W55306   4.378  37.501   2.776
82239W        W55307  38.161   5.432   2.540
82240W        W55308  37.616  15.702  13.412
82241W        W55309  16.414   4.926   3.071
82242W        W55310   5.241  13.122   2.653
82243W        W55311  21.626  42.491   1.348
82244W        W55312  12.558  28.159   3.804
82245W        W55313  38.602   1.863   1.868
82246W        W55314   8.235   9.158   4.330
82247W        W55315  18.209  24.589  10.690
82248W        W55316   0.769  41.022   0.258
82249W        W55317  42.580  21.062  14.726
82250W        W55318  32.837  29.962  12.358
82251W        W55319  32.654  33.557  12.613
82252W        W55320  12.928  26.729   3.804
82253W        W55321  32.044  29.949  11.323
82254W        W55322  18.619  19.779  10.797
82255W        W55323  28.303  23.603   1.465
82256W        W55324  17.160  41.877  13.995
82257W        W55325  28.654  38.318   1.615
82258W        W55326   9.887  23.940   0.119
82259W        W55327  25.727  41.593   4.193
82260W        W55328   0.980  16.613   0.801
82261W        W55329  22.491  21.116  13.328
82262W        W55330  23.432   0.337   1.884
82263W        W55331  40.820   1.445  13.307
82264W        W55332  30.447  18.041  13.953
82265W        W55333  26.938  40.136  10.358
82266W        W55334  40.295  23.237   3.080
82267W        W55335   8.284  27.257   3.831
82268W        W55336  30.587  20.339   4.920
82269W        W55337  14.097  43.536  13.653
82270W        W55338   7.713  22.970   1.814
82271W        W55339  33.015  38.262   3.589
82272W        W55340   9.641  22.163  14.455
82273W        W55341  14.175  39.886  11.710
82274W        W55342  31.212   9.368   2.651
82275W        W55343  42.490  41.819   4.929
82276W        W55344  23.741   3.879  12.073
82277W        W55345  43.119   3.433  12.592
82278W        W55346  32.601  36.550  10.750
82279W        W55347  19.513  23.525   2.810
82280W        W55348  21.207   4.477  11.565
82281W        W55349  30.404  33.929  11.543
82282W        W55350  41.575  43.531  14.401
82283W        W55351  42.376  20.488   2.578
82284W        W55352  17.017  11.607  10.896
82285W        W55353  31.364   8.866   4.138
82286W        W55354   4.836  11.679  11.664
82287W        W55355  25.509   6.865   0.317
82288W        W55356  10.619  38.918  10.212
82289W        W55357   1.505  18.362  14.841
82290W        W55358  12.082  17.265   9.916
82291W        W55359  34.706   4.246   4.470
82292W        W55360  36.115  10.956  11.429
82293W        W55361  32.568  26.873   3.337
82294W        W55362  32.360  10.427   2.642
82295W        W55363  11.620   7.398   0.815
82296W        W55364  25.612  44.824   2.115
82297W        W55365  11.629  16.839   1.893
82298W        W55366  22.667  27.391  14.534
82299W        W55367  12.179  38.019   1.890
82300W        W55368  29.679  27.156   3.843
82301W        W55369  44.395  14.195   1.014
82302W        W55370   0.846  32.906   1.420
82303W        W55371  21.094  38.814  11.515
82304W        W55372  30.615  43.372  14.746
82305W        W55373  29.141  41.038  13.585
82306W        W55374  35.643  21.151   2.513
82307W        W55375  17.637   3.532   3.233
82308W        W55376  24.630  17.396  10.444
82309W        W55377  37.790  19.578  13.116
82310W        W55378  13.339  40.991   0.877
82311W        W55379  33.436  14.524   2.372
82312W        W55380  32.148  33.581  10.700
82313W        W55381  35.653  17.334  14.381
82314W        W55382  13.263  38.987  10.470
82315W        W55383  43.314  11.233  11.102
82316W        W55384  35.494  44.823   2.688
82317W        W55385   7.220  26.384   1.143
82318W        W55386  36.060  32.529   0.383
82319W        W55387  16.187   3.928  14.717
82320W        W55388  33.943   7.731   2.151
82321W        W55389   7.608  25.345  11.123
82322W        W55390  31.208  22.741   0.496
82323W        W55391  20.131  26.955   4.156
82324W        W55392  34.840  24.552   4.600
82325W        W55393  31.424  37.046   0.731
82326W        W55394  10.809  25.513  11.139
82327W        W55395   8.840   1.492   2.806
82328W        W55396   4.257  44.319   3.613
82329W        W55397   0.717  41.450  13.378
82330W        W55398  17.835  17.763  10.807
82331W        W55399  43.716  42.040  12.832
82332W        W55400  30.321  43.806   3.514
82333W        W55401   0.513  20.145   1.869
82334W        W55402  32.080  25.478   1.649
82335W        W55403  12.691  23.101  11.673
82336W        W55404  31.405  29.148  12.895
82337W        W55405  37.837   3.448   1.365
82338W        W55406  13.716  30.772   1.824
82339W        W55407  36.511  31.601   1.980
82340W        W55408  33.062  15.875  11.860
82341W        W55409  14.367  32.683  14.001
82342W        W55410  27.226   5.792  11.046
82343W        W55411   8.332  21.321   1.419
82344W        W55412  43.095  29.716  14.425
82345W        W55413  32.852  36.864   2.370
82346W        W55414  33.840   2.364   1.341
82347W        W55415   6.637  30.421  13.374
82348W        W55416  34.386   2.464  11.586
82349W        W55417  31.929   8.329   0.442
82350W        W55418  36.890  28.697  11.070
82351W        W55419  42.845   4.696   4.942
82352W        W55420  39.435  42.036  11.937
82353W        W55421  19.823  36.614   0.318
82354W        W55422   2.620  27.937   2.233
82355W        W55423  11.105  27.222  11.184
82356W        W55424  42.269  14.495   4.110
82357W        W55425  16.776  13.889   4.050
82358W        W55426   3.775  12.418   4.440
82359W        W55427  10.129  11.654  13.870
82360W        W55428  27.483   1.232   1.391
82361W        W55429  32.983  44.352   3.598
82362W        W55430  29.628  42.276   2.170
82363W        W55431   0.298   2.657  11.581
82364W        W55432  12.635   1.030   3.723
82365W        W55433   3.010  23.102   0.947
82366W        W55434   9.770   8.959  12.048
82367W        W55435  28.161  24.818  10.771
82368W        W55436  18.107  10.401   4.674
82369W        W55437   7.517  36.843   0.365
82370W        W55438  36.202  19.668  11.217
82371W        W55439  29.676  42.411   1.684
82372W        W55440  14.218   7.668  12.344
82373W        W55441  32.618  25.803  11.138
82374W        W55442  44.062   8.079  12.865
82375W        W55443  39.050  25.025  11.607
82376W        W55444   8.667   4.439  11.072
82377W        W55445  30.442  23.973   4.318
82378W        W55446  19.211   6.179  13.860
82379W        W55447  26.022  15.640  11.045
82380W        W55448  33.834   6.365  11.565
82381W        W55449   7.707  41.559   0.928
82382W        W55450  20.838   5.748  14.297
82383W        W55451  28.223  40.077  12.127
82384W        W55452  34.606  10.176  14.327
82385W        W55453  12.625  32.574  12.884
82386W        W55454   4.790  22.623   3.699
82387W        W55455  25.781  29.061   2.331
82388W        W55456  31.108  26.764  10.028
82389W        W55457  43.120  25.011  14.752
82390W        W55458   8.774   9.376   3.211
82391W        W55459  39.343   7.515   2.500
82392W        W55460   2.032   4.136   0.883
82393W        W55461  27.653  44.445   2.212
82394W        W55462   0.172  22.209  14.879
82395W        W55463  20.808  22.096  12.592
82396W        W55464  31.011  23.512  11.273
82397W        W55465  21.686  21.504  13.933
82398W        W55466  30.849  42.095   4.175
82399W        W55467   4.362  28.720  13.059
82400W        W55468  36.463  36.931   4.705
82401W        W55469  43.568  31.136   1.769
82402W        W55470  23.892   6.301  14.955
82403W        W55471  42.757  18.300   1.419
82404W        W55472   0.456   1.909  10.940
82405W        W55473  29.167   5.254   4.596
82406W        W55474  17.878  30.639   3.809
82407W        W55475  11.758  43.581  12.782
82408W        W55476   7.672  38.747   3.665
82409W        W55477  16.625  40.241  13.378
82410W        W55478  12.823  29.996  13.864
82411W        W55479   8.322  31.286  12.364
82412W        W55480  16.806  38.045  14.080
82413W        W55481  33.462  15.722   0.917
82414W        W55482   1.287  43.023   2.338
82415W        W55483  11.100  30.557  10.657
82416W        W55484  41.535   0.530  10.172
82417W        W55485  32.415  40.507   0.938
82418W        W55486  42.352  10.311  12.801
82419W        W55487  33.374  17.808   1.723
82420W        W55488  11.827  43.726  13.368
82421W        W55489  26.957  22.250  12.895
82422W        W55490   0.426  35.023  13.858
82423W        W55491  11.629  29.146  12.845
82424W        W55492  37.347   5.144   2.186
82425W        W55493  36.131   7.403   3.143
82426W        W55494  40.007  34.668   1.712
82427W        W55495   8.408   4.350  13.519
82428W        W55496  19.505  33.697   2.061
82429W        W55497  25.733  12.099  14.227
82430W        W55498  24.824  21.128  10.358
82431W        W55499  21.989  22.736  14.365
82432W        W55500   9.758  12.724  14.410
82433W        W55501  16.289  31.723   3.802
82434W        W55502  16.910  16.535  10.482
82435W        W55503  20.852   7.349  11.081
82436W        W55504   5.914  13.343  13.035
82437W        W55505  14.310  16.614  10.786
82438W        W55506  11.913  11.084  12.575
82439W        W55507   4.486  32.145  14.333
82440W        W55508  11.723  43.488  13.803
82441W        W55509  14.378   5.927   3.794
82442W        W55510  21.033  24.501  11.826
82443W        W55511   9.113  17.220  14.812
82444W        W55512   3.454  28.011   0.609
82445W        W55513  10.125   4.871  13.711
82446W        W55514  44.524   1.959   2.852
82447W        W55515  10.911  40.968  13.252
82448W        W55516  31.502  26.188   0.054
82449W        W55517  40.378  11.125  12.983
82450W        W55518  12.341  29.508  12.468
82451W        W55519  17.204   1.473  11.161
82452W        W55520  33.850  18.761  14.341
82453W        W55521  20.674  12.676  11.936
82454W        W55522  40.409   0.882   3.548
82455W        W55523  42.243  17.307  13.897
82456W        W55524  22.235  41.879  10.964
82457W        W55525   1.659  11.249  11.151
82458W        W55526  15.784   1.207   3.756
82459W        W55527   8.261  15.901   3.309
82460W        W55528   1.666  10.781   4.258
82461W        W55529  28.472  14.320   4.708
82462W        W55530   8.092   3.382   4.570
82463W        W55531  28.829  31.612   3.318
82464W        W55532  40.916  33.446   2.718
82465W        W55533  28.447  36.034   3.629
82466W        W55534  33.020  24.973   3.072
82467W        W55535   5.391  37.033   4.718
82468W        W55536  17.187  25.732   1.358
82469W        W55537  35.578  37.496  14.949
82470W        W55538   9.624  28.900  12.554
82471W        W55539  31.429   9.797   3.306
82472W        W55540   1.442  23.541  12.924
82473W        W55541   1.003  37.668   2.003
82474W        W55542   8.229  29.955  11.957
82475W        W55543  37.002  40.228  13.562
82476W        W55544  31.502  27.277   1.763
82477W        W55545  18.307  15.717  14.437
82478W        W55546  21.580   1.222  11.403
82479W        W55547  30.633  40.440   3.798
82480W        W55548  40.062   9.515  11.509
82481W        W55549  10.666  44.755   1.389
82482W        W55550   6.823   6.334  13.340
82483W        W55551  10.742  24.184  11.496
82484W        W55552  35.035  31.984  11.486
82485W        W55553  18.855  14.795  11.201
82486W        W55554  12.716  43.067   2.371
82487W        W55555  39.942  15.174   3.158
82488W        W55556  24.074  24.040  12.941
82489W        W55557  19.688   4.937   4.594
82490W        W55558   7.082  18.107  12.971
82491W        W55559  22.027  24.083   4.235
82492W        W55560  34.082  19.957  13.716
82493W        W55561  26.868  25.778  12.539
82494W        W55562   9.159  12.638  12.897
82495W        W55563  22.625  36.033   2.222
82496W        W55564  21.118  39.807   0.622
82497W        W55565  13.701  22.808   0.264
82498W        W55566  22.348  17.789  11.980
82499W        W55567  25.272  40.352   4.074
82500W        W55568  17.282   2.260   2.360
82501W        W55569   2.039  24.958  14.567
82502W        W55570  21.468  43.904   2.692
82503W        W55571   3.716  41.402   0.705
82504W        W55572  42.518  22.151  13.858
82505W        W55573  16.701  44.973  12.984
82506W        W55574  24.594  25.455   4.888
82507W        W55575   7.384  30.900  14.817
82508W        W55576  25.433  21.606   1.322
82509W        W55577  44.367  38.899   2.288
82510W        W55578  36.010  44.097  10.563
82511W        W55579  20.599  11.504   0.272
82512W        W55580  42.474  32.918   4.763
82513W        W55581  42.111   5.795  14.244
82514W        W55582  26.428  13.719   3.182
82515W        W55583  34.825  27.900   3.377
82516W        W55584   4.398  25.096   2.290
82517W        W55585  38.453  39.280   4.054
82518W        W55586   5.472  17.501  13.984
82519W        W55587  37.483   1.186  11.635
82520W        W55588  37.775   4.738   3.749
82521W        W55589   2.707  21.093  14.206
82522W        W55590  36.513  23.100   2.362
82523W        W55591  10.154  40.924   0.014
82524W        W55592  14.413  18.714  11.216
82525W        W55593  21.318  24.958   2.241
82526W        W55594  38.496  30.428  12.495
82527W        W55595  16.525  30.367   3.897
82528W        W55596   9.240  35.540   3.630
82529W        W55597   5.743  18.263  12.636
82530W        W55598  41.910  42.781   1.772
82531W        W55599   6.495  40.482  11.970
82532W        W55600  15.783  29.000   1.540
82533W        W55601  40.822  36.278   3.816
82534W        W55602  32.549  39.073  11.782
82535W        W55603  15.291  31.248   0.711
82536W        W55604  39.579  43.410  11.570
82537W        W55605  24.233  23.624  14.275
82538W        W55606  21.227  13.829  11.636
82539W        W55607  35.769  42.272  13.672
82540W        W55608  34.091  38.754   3.701
82541W        W55609  20.964  15.514  14.542
82542W        W55610  36.939  29.884  13.453
82543W        W55611   1.506  28.703  14.452
82544W        W55612   2.286  10.597  10.428
82545W        W55613  12.325  37.423   1.259
82546W        W55614  27.350   3.242   4.229
82547W        W55615  14.751  31.658  13.971
82548W        W55616   4.201   2.256   0.963
82549W        W55617  20.761  42.514   0.831
82550W        W55618  16.344  34.007   4.322
82551W        W55619  22.078  16.209   3.610
82552W        W55620  20.815  10.888   1.607
82553W        W55621  11.569   8.563   3.395
82554W        W55622  35.521  34.757   1.405
82555W        W55623  17.416  30.571   3.624
82556W        W55624   1.983  29.826   4.892
82557W        W55625  11.967  32.305  10.141
82558W        W55626   4.888   5.152   1.922
82559W        W55627  24.700   0.449  14.836
82560W        W55628  37.114  14.019   3.838
82561W        W55629  35.336  11.224   1.300
82562W        W55630  19.446  18.047  11.048
82563W        W55631  22.989   4.765  13.391
82564W        W55632  21.083  15.161  14.184
82565W        W55633  15.479  19.275   0.794
82566W        W55634   0.570  29.480  13.469
82567W        W55635  35.090   2.418  10.749
82568W        W55636  34.751  26.958  14.967
82569W        W55637   8.878   7.201   2.782
82570W        W55638  19.258  18.270  11.777
82571W        W55639  41.090  20.942  10.323
82572W        W55640  22.139  23.182   1.226
82573W        W55641  41.214  31.807   0.081
82574W        W55642  29.433  23.028   3.072
82575W        W55643  22.694  35.450  11.002
82576W        W55644   5.290   2.747  14.896
82577W        W55645  21.560  16.214   2.144
82578W        W55646  16.940  21.104   2.284
82579W        W55647  24.552   8.084  14.470
82580W        W55648  29.023   1.733  10.606
82581W        W55649  39.517  31.226  11.649
82582W        W55650  29.663   0.372   3.528
82583W        W55651  38.019  17.048   3.472
82584W        W55652  42.855  27.435   3.316
82585W        W55653  33.468  40.069  10.902
82586W        W55654  19.344  26.231   3.353
82587W        W55655   8.867  25.432   2.802
82588W        W55656  19.132  42.401  14.307
82589W        W55657  43.611   8.271   3.169
82590W        W55658  37.202  10.925  13.128
82591W        W55659   6.291  39.315   3.856
82592W        W55660  36.057   0.862   4.587
82593W        W55661  34.086  21.705  14.956
82594W        W55662  26.985  37.683   2.899
82595W        W55663  16.630   2.778   4.383
82596W        W55664  12.294   4.865   3.274
82597W        W55665   1.375  22.102  11.699
82598W        W55666  26.582  38.266   2.228
82599W        W55667  31.030  15.197   2.739
82600W        W55668   7.127  11.640  14.006
82601W        W55669  11.662   0.887   0.748
82602W        W55670  12.955  38.830  13.880
82603W        W55671  23.117   9.006   3.212
82604W        W55672  44.767  20.212  12.073
82605W        W55673  28.214  12.239   4.943
82606W        W55674  13.310  33.240  13.299
82607W        W55675   2.857  30.799  14.740
82608W        W55676   4.324   8.365  12.475
82609W        W55677  37.918  34.351  12.866
82610W        W55678  20.282  30.567  14.928
82611W        W55679  23.941  30.735   0.233
82612W        W55680   2.223  42.296   0.847
82613W        W55681  12.177   0.944  12.979
82614W        W55682   2.115  28.949   4.133
82615W        W55683  34.925  12.647  14.987
82616W        W55684   5.750  30.485   1.742
82617W        W55685  33.376  18.153  12.596
82618W        W55686  36.872  40.551  12.576
82619W        W55687   7.373  39.164   1.685
82620W        W55688  11.222  14.926  11.438
82621W        W55689  31.896  27.843   5.396
82622W        W55690   8.208  41.391  13.555
82623W        W55691  34.510   1.501  10.650
82624W        W55692   3.240  29.403  10.007
82625W        W55693  16.811  20.973   0.242
82626W        W55694  26.942  37.792  13.874
82627W        W55695  40.052   6.511  12.912
82628W        W55696  10.221  18.234   5.028
82629W        W55697  16.885  40.528  12.124
82630W        W55698  44.104  29.712  11.250
82631W        W55699   3.964  41.647   0.306
82632W        W55700  13.452   0.408  13.339
82633W        W55701  36.157  40.592   3.356
82634W        W55702  34.253  24.345  11.739
82635W        W55703  43.545  31.698  13.053
82636W        W55704   8.213  44.080   3.777
82637W        W55705  10.790  22.147  11.703
82638W        W55706  36.423  30.392  13.371
82639W        W55707  22.450   7.285   1.730
82640W        W55708  40.525  22.577  13.309
82641W        W55709  44.814   7.956   1.370
82642W        W55710   1.848   2.694  12.428
82643W        W55711   7.877   9.154   1.435
82644W        W55712  36.518  32.538  13.837
82645W        W55713  18.237  38.565   2.094
82646W        W55714  43.787  37.539   2.429
82647W        W55715  24.622  43.842  10.662
82648W        W55716  36.823  24.084  11.382
82649W        W55717  10.578  35.640  14.329
82650W        W55718  15.113   9.348   1.746
82651W        W55719   5.325  40.098  12.885
82652W        W55720  26.088  23.771   3.527
82653W        W55721   1.605  31.875   2.926
82654W        W55722  40.028   9.101   0.419
82655W        W55723  36.533  23.228  12.127
82656W        W55724   1.252  22.377   0.910
82657W        W55725  26.002  34.366   3.625
82658W        W55726  42.326   3.914  12.525
82659W        W55727  11.753  19.430   3.152
82660W        W55728  36.342   8.369  13.047
82661W        W55729  36.755  43.374   2.252
82662W        W55730  42.811  12.897   1.944
82663W        W55731   4.024   5.693   0.029
82664W        W55732   2.542  22.541   3.837
82665W        W55733   6.660  24.284   0.475
82666W        W55734  39.365  10.908  14.646
82667W        W55735   8.460  21.345   2.079
82668W        W55736  39.992  31.824  13.933
82669W        W55737   8.397   4.563  12.489
82670W        W55738  36.288  12.546  14.910
82671W        W55739  19.990   4.925   4.172
82672W        W55740  10.950  36.477  13.464
82673W        W55741   7.807  38.338  12.432
82674W        W55742  28.418  25.185   2.521
82675W        W55743  37.624   0.817  13.592
82676W        W55744  38.564   8.661  10.940
82677W        W55745  16.096  31.965   2.286
82678W        W55746  14.682  20.163  14.783
82679W        W55747  31.478  43.231  12.430
82680W        W55748   1.860  35.956  12.356
82681W        W55749  37.864  29.415  13.242
82682W        W55750  43.811  32.989   1.389
82683W        W55751   6.573   4.970  14.810
82684W        W55752  23.984  19.491  13.716
82685W        W55753  42.404  26.464   2.347
82686W        W55754  13.312  21.158  14.893
82687W        W55755  29.378  29.932  12.432
82688W        W55756  12.456  30.773  13.687
82689W        W55757   9.151  35.041  14.501
82690W        W55758  38.010  40.752   0.936
82691W        W55759  26.751   4.539  10.152
82692W        W55760  27.101  42.821   1.375
82693W        W55761  22.169   4.234  14.598
82694W        W55762  38.991  22.066  12.558
82695W        W55763   2.730  23.419  11.725
82696W        W55764   5.202   3.010  14.363
82697W        W55765  39.797  15.761   2.275
82698W        W55766   3.744  37.444   4.781
82699W        W55767   8.186  35.038   4.698
82700W        W55768  30.699  39.018  11.944
82701W        W55769  10.353  34.965   2.778
82702W        W55770   4.929   4.167  11.604
82703W        W55771  19.696   0.754   1.226
82704W        W55772  27.515  32.886   3.370
82705W        W55773  40.796  19.785  11.125
82706W        W55774  11.649  16.699  14.321
82707W        W55775  10.004  43.054  11.818
82708W        W55776  24.226  18.623  11.374
82709W        W55777  11.094  10.213   0.968
82710W        W55778  36.268  38.799   0.393
82711W        W55779  44.396  14.519  13.755
82712W        W55780  22.621  25.545   0.317
82713W        W55781  43.233  35.453   2.147
82714W        W55782  41.865   3.334   3.874
82715W        W55783  16.513  43.416  14.854
82716W        W55784  37.289  13.440   1.901
82717W        W55785  40.104   9.183  14.617
82718W        W55786  20.722  40.568  14.417
82719W        W55787  27.917  14.583  10.387
82720W        W55788  21.221  22.617   3.710
82721W        W55789   3.286  36.814  12.507
82722W        W55790  34.982  38.586   4.102
82723W        W55791   9.126  32.951   2.491
82724W        W55792  16.623  22.723   1.953
82725W        W55793  23.375  44.802  11.000
82726W        W55794   3.501  10.724   1.206
82727W        W55795   4.734  15.029  13.816
82728W        W55796   4.948  10.792  13.503
82729W        W55797  19.115  35.747  14.940
82730W        W55798  22.877  33.620  11.311
82731W        W55799  39.736  36.698   1.792
82732W        W55800  23.080   3.187  11.847
82733W        W55801  15.777   4.645   2.665
82734W        W55802   9.799  25.471   1.958
82735W        W55803  31.165   1.244   2.192
82736W        W55804  44.216  15.323   1.838
82737W        W55805  26.562  12.755   3.074
82738W        W55806  22.547  21.464   4.771
82739W        W55807  14.179  26.590   2.404
82740W        W55808   2.450  17.503  14.374
82741W        W55809  21.524  39.077   0.825
82742W        W55810  22.299  15.563  11.014
82743W        W55811  12.633  14.775  12.864
82744W        W55812  14.144   6.693   1.344
82745W        W55813   5.935  42.512   2.360
82746W        W55814  23.102  44.782   3.901
82747W        W55815  36.548   9.238   0.218
82748W        W55816  11.607  24.073  10.746
82749W        W55817   6.483  31.738   9.890
82750W        W55818  35.540  38.329  12.979
82751W        W55819  13.151  27.206  10.720
82752W        W55820  37.917  25.652  14.965
82753W        W55821  15.237  12.812  13.826
82754W        W55822  13.292  42.914   1.207
82755W        W55823  12.133  38.067   4.234
82756W        W55824  19.392  27.680   0.371
82757W        W55825  16.706  37.584  14.993
82758W        W55826  39.905  24.054  11.505
82759W        W55827  11.344   2.984   3.840
82760W        W55828   1.484   0.891   4.097
82761W        W55829  32.669  28.014   4.466
82762W        W55830  17.582  32.928   0.043
82763W        W55831  24.892  19.584  13.913
82764W        W55832  27.769  16.767  11.863
82765W        W55833  17.151  43.945  14.312
82766W        W55834   3.038   5.688   1.877
82767W        W55835  34.987   7.221  14.380
82768W        W55836  38.102   9.355   3.558
82769W        W55837  24.553  23.601  13.837
82770W        W55838  41.482  27.394  14.928
82771W        W55839  35.067   8.396  12.463
82772W        W55840   3.697  12.816   0.047
82773W        W55841  14.221  25.993  11.462
82774W        W55842  27.180   9.331   4.827
82775W        W55843   5.389   7.037  12.949
82776W        W55844  42.566  16.994   2.371
82777W        W55845  34.082  34.121   0.917
82778W        W55846  23.920   7.662   3.830
82779W        W55847  39.916  31.839  10.437
82780W        W55848   1.941  28.466   4.095
82781W        W55849  33.809  16.731  14.914
82782W        W55850  27.566   4.717   3.331
82783W        W55851  38.801   1.555   3.267
82784W        W55852  31.478  38.306  12.122
82785W        W55853  19.627  13.714   0.003
82786W        W55854  34.121  15.254  14.853
82787W        W55855   2.734  32.145   4.953
82788W        W55856  22.802  43.083   2.824
82789W        W55857  11.068  38.474  12.680
82790W        W55858  12.546  43.355  12.126
82791W        W55859   8.661  33.303  12.076
82792W        W55860  34.326  44.833   3.209
82793W        W55861   3.177  19.706   2.416
82794W        W55862  15.242  15.815   4.580
82795W        W55863  34.525   0.015   2.298
82796W        W55864  18.519  39.365   0.670
82797W        W55865  21.250  27.271  12.878
82798W        W55866  13.899   8.699  10.963
82799W        W55867   5.860  11.643   1.214
82800W        W55868  20.474  39.391  12.529
82801W        W55869  35.102   8.909   3.185
82802W        W55870  18.556  39.857   2.316
82803W        W55871  43.455   7.330  10.999
82804W        W55872  30.845  34.958  14.245
82805W        W55873  36.038  32.329   1.844
82806W        W55874   0.238  41.974  12.422
82807W        W55875   0.978  20.800   0.246
82808W        W55876  10.730  14.600   4.156
82809W        W55877  26.593  27.013  14.731
82810W        W55878  37.474  19.612  10.688
82811W        W55879  18.833  23.180   4.017
82812W        W55880  14.516   3.406  12.009
82813W        W55881  30.199  33.560   0.991
82814W        W55882  43.785  17.503  10.721
82815W        W55883  33.910  44.723   4.087
82816W        W55884  31.639   7.658  11.125
82817W        W55885  38.588   1.034   5.580
82818W        W55886  32.253  35.512   1.905
82819W        W55887  35.727  34.009  13.370
82820W        W55888   0.823  33.007   4.888
82821W        W55889  11.315   0.917   4.154
82822W        W55890   2.442   7.320  10.622
82823W        W55891  19.575  14.726   3.674
82824W        W55892  18.419  29.325  11.173
82825W        W55893  40.379  26.151   1.256
82826W        W55894   0.444  12.657   3.315
82827W        W55895  27.089   0.806   1.920
82828W        W55896  39.482  37.056   3.649
82829W        W55897  35.968   5.178  10.721
82830W        W55898  37.018  17.982  14.898
82831W        W55899  35.825  17.762   1.971
82832W        W55900  39.510  26.671   3.237
82833W        W55901  35.017  31.377  14.368
82834W        W55902   1.772  29.342  11.627
82835W        W55903  23.036  25.122   4.350
82836W        W55904  35.998  11.351   4.101
82837W        W55905   2.209  25.492  11.111
82838W        W55906   0.444  44.607   4.273
82839W        W55907   0.206  43.261   0.649
82840W        W55908   7.676  43.268  13.084
82841W        W55909  32.645  36.299   0.327
82842W        W55910  21.458   5.253  11.985
82843W        W55911  38.541  10.288   4.595
82844W        W55912  38.974  31.587   4.564
82845W        W55913  37.277  33.589  14.304
82846W        W55914  11.225  18.795   2.595
82847W        W55915  19.728  34.149  14.273
82848W        W55916  29.021  20.818  10.683
82849W        W55917  25.770   8.744   3.344
82850W        W55918  43.005  11.367  10.538
82851W        W55919  13.904  43.842  14.022
82852W        W55920   9.465  12.838  13.268
82853W        W55921  25.748   8.202   3.360
82854W        W55922  24.121  37.511   3.871
82855W        W55923  35.323   5.673   4.908
82856W        W55924  12.346  44.416  12.209
82857W        W55925   2.857   4.913  13.280
82858W        W55926   0.336  10.339   0.798
82859W        W55927   0.945  43.170   1.378
82860W        W55928  16.807  12.637   4.082
82861W        W55929  43.116  41.024  12.950
82862W        W55930  25.305   3.877  14.472
82863W        W55931  17.153  17.312  11.500
82864W        W55932  34.116  30.029   2.725
82865W        W55933  36.910  27.522  14.541
82866W        W55934  32.014  43.066  11.222
82867W        W55935   1.291  38.170   4.445
82868W        W55936  37.280   6.099   4.651
82869W        W55937  43.994  14.748   2.098
82870W        W55938  37.891  36.314   1.796
82871W        W55939   3.980  11.441  14.430
82872W        W55940   7.928  30.192  11.051
82873W        W55941  10.570  34.496  11.580
82874W        W55942  34.694  43.216  13.093
82875W        W55943  21.094  29.740   1.813
82876W        W55944  40.750  13.044   1.325
82877W        W55945   1.417  36.434  13.125
82878W        W55946  17.114  32.887  13.352
82879W        W55947  40.079  22.152   2.345
82880W        W55948  38.571  28.552   1.695
82881W        W55949  16.097  22.018   0.761
82882W        W55950  19.381   7.821  12.339
82883W        W55951  42.800  42.736  13.487
82884W        W55952  36.174  44.773  13.310
82885W        W55953   5.125   4.263   0.524
82886W        W55954  31.228  14.606  11.992
82887W        W55955  36.175   9.137  12.449
82888W        W55956  30.903   9.243  14.779
82889W        W55957  38.401  43.009   0.533
82890W        W55958   2.378   1.217   3.402
82891W        W55959  15.821  26.526  14.896
82892W        W55960  20.141   3.418   4.183
82893W        W55961   0.864  33.153  11.654
82894W        W55962   9.697  33.995   0.882
82895W        W55963  26.252  37.744  13.540
82896W        W55964  40.394  35.133  10.737
82897W        W55965  27.392  21.207  12.554
82898W        W55966  10.560  13.641  14.796
82899W        W55967  29.631   7.725   2.937
82900W        W55968  22.540  27.169   4.137
82901W        W55969  17.345  31.094   0.890
82902W        W55970   5.861  12.364   2.741
82903W        W55971   4.742   4.789   3.849
82904W        W55972  13.138  42.676  14.378
82905W        W55973  17.778  21.249   4.150
82906W        W55974  25.764  33.204  11.541
82907W        W55975  29.348   3.228   4.349
82908W        W55976  23.559   1.854   3.097
82909W        W55977  29.663  41.092  14.352
82910W        W55978   7.486  14.307   0.391
82911W        W55979   3.021  40.896  12.486
82912W        W55980  14.060   0.536  14.925
82913W        W55981  28.652  16.250   1.963
82914W        W55982  13.651   4.740   0.778
82915W        W55983  32.506   2.277  11.506
82916W        W55984  20.458  36.043  14.051
82917W        W55985   0.257  44.239  11.604
82918W        W55986  22.472   5.369  10.229
82919W        W55987   5.489  26.443   0.397
82920W        W55988   9.644  36.892   2.812
82921W        W55989  12.275  23.732  11.098
82922W        W55990  16.320   9.181   0.547
82923W        W55991  33.525  22.423  13.826
82924W        W55992   8.551  14.165  10.342
82925W        W55993   9.757  41.051  10.715
82926W        W55994   6.845  32.909   4.582
82927W        W55995   5.686  39.035  12.522
82928W        W55996  34.629  24.566   2.716
82929W        W55997   5.314  37.986  12.963
82930W        W55998  30.250  44.607  13.016
82931W        W55999   5.826  44.754   2.332
82932W        W56000   2.523  42.763   3.559
82933W        W56001  12.754   8.645   4.550
82934W        W56002  27.000  35.518   1.947
82935W        W56003  41.688  17.597  13.914
82936W        W56004  39.014  18.330   3.222
82937W        W56005  25.599  28.829   3.766
82938W        W56006  36.805  15.159   2.761
82939W        W56007  25.657  19.595   1.709
82940W        W56008  21.702  30.082  10.715
82941W        W56009  26.845  24.757  13.003
82942W        W56010  25.699   5.829  13.953
82943W        W56011  15.548  18.791   0.045
82944W        W56012  26.082  36.392  12.456
82945W        W56013  41.361  33.638  10.718
82946W        W56014  11.912  43.014   2.600
82947W        W56015  42.465   9.705  12.823
82948W        W56016   7.337  32.643   1.218
82949W        W56017  16.818   4.501   1.698
82950W        W56018  25.586  17.943   9.760
82951W        W56019   2.013  13.230   0.341
82952W        W56020  14.721  15.770  13.128
82953W        W56021  37.882  33.622   0.020
82954W        W56022  39.516   9.755  14.322
82955W        W56023  28.170   7.938  13.307
82956W        W56024  18.631  19.093  13.114
82957W        W56025  15.759  12.838  12.600
82958W        W56026  15.360   0.978   3.289
82959W        W56027  41.519  41.390   4.776
82960W        W56028  34.700  27.945  13.033
82961W        W56029  41.497  44.213   2.619
82962W        W56030   4.507  21.495  13.355
82963W        W56031  13.876  20.909  11.476
82964W        W56032  12.706  37.019   0.716
82965W        W56033  30.400  28.475   3.364
82966W        W56034  11.289  42.328  13.787
82967W        W56035  17.269  29.211   4.182
82968W        W56036  41.173  43.271  14.190
82969W        W56037  37.306  27.225  13.180
82970W        W56038   2.823  38.304   4.186
82971W        W56039  12.700  32.936  14.524
82972W        W56040  10.892  31.199  14.233
82973W        W56041   6.802  31.918   5.011
82974W        W56042  36.568  10.528   0.215
82975W        W56043  27.068  26.458   2.209
82976W        W56044  28.079   1.865  12.027
82977W        W56045  13.595   3.409   0.336
82978W        W56046  32.161   7.348   1.180
82979W        W56047  38.729  37.609   4.111
82980W        W56048  10.275  13.393   1.482
82981W        W56049  18.544   9.198  12.976
82982W        W56050  30.095  25.299  13.363
82983W        W56051  35.856  33.048  13.557
82984W        W56052  17.244   2.407  12.526
82985W        W56053  22.061  44.003  14.837
82986W        W56054  13.110  36.936   1.175
82987W        W56055  23.604   2.508  12.059
82988W        W56056  35.546  40.952   3.260
82989W        W56057  35.620  26.734   5.244
82990W        W56058  44.232  22.639   0.336
82991W        W56059  23.911  38.335   0.357
82992W        W56060  42.301  44.120   2.857
82993W        W56061  15.033  33.695  14.272
82994W        W56062  30.017   1.889   2.782
82995W        W56063  18.560  19.498   0.413
82996W        W56064  14.095  27.541   1.271
82997W        W56065   2.631  15.138   1.408
82998W        W56066  39.337   9.143  12.017
82999W        W56067   2.942  44.005   4.722
83000W        W56068  23.031  37.571   0.010
83001W        W56069  40.834  13.082  14.942
83002W        W56070  33.870  32.699   2.445
83003W        W56071  32.932  34.419   0.942
83004W        W56072  14.615   3.262   0.368
83005W        W56073  24.549  39.631   2.881
83006W        W56074  13.235  30.445  12.750
83007W        W56075  41.388  13.288   3.196
83008W        W56076  15.698   8.084  13.523
83009W        W56077  31.123  22.264   3.754
83010W        W56078  37.988   1.875   4.469
83011W        W56079  36.064  11.697  14.902
83012W        W56080   0.827  44.999  13.119
83013W        W56081  16.762  15.998  13.281
83014W        W56082   0.711  18.744  13.996
83015W        W56083  12.190  18.575  14.369
83016W        W56084  36.111  31.993   0.515
83017W        W56085   0.582  43.951  12.578
83018W        W56086  28.009  27.614  10.751
83019W        W56087  32.964  15.091   0.394
83020W        W56088  31.086  25.696  12.315
83021W        W56089   8.524   3.761  11.390
83022W        W56090  16.696  41.110   3.321
83023W        W56091  26.577  20.703   2.736
83024W        W56092  23.171  32.659  11.196
83025W        W56093  20.674  24.529   2.929
83026W        W56094  24.556  34.877  10.582
83027W        W56095  22.579  25.423   2.182
83028W        W56096  40.428   7.417  11.086
83029W        W56097   0.321   0.066   0.322
83030W        W56098   8.417  18.541  12.931
83031W        W56099  17.591  43.961  13.426
83032W        W56100   6.884  42.282  12.059
83033W        W56101  35.957  21.691  10.681
83034W        W56102   8.654  26.173   1.349
83035W        W56103  28.855  12.715   0.466
83036W        W56104  19.647   5.019  14.503
83037W        W56105  13.085  33.430   2.384
83038W        W56106  17.865  30.507   1.219
83039W        W56107  22.635  44.910  11.458
83040W        W56108   7.344  12.107   3.628
83041W        W56109  44.886  14.682   4.565
83042W        W56110  36.843  41.416  12.904
83043W        W56111  10.262   5.980   1.802
83044W        W56112  27.045  21.992   2.651
83045W        W56113   4.010  30.996  14.385
83046W        W56114  28.017   2.741   4.821
83047W        W56115   7.330   9.468   0.365
83048W        W56116  34.366  35.082   1.693
83049W        W56117  35.660  26.122   2.664
83050W        W56118  40.828  13.647   0.660
83051W        W56119   4.834   0.990   1.039
83052W        W56120   4.979   1.497   4.546
83053W        W56121  12.772  37.863  11.574
83054W        W56122  27.567  35.361   3.475
83055W        W56123   7.123  40.016  13.944
83056W        W56124  17.594   6.936  13.812
83057W        W56125  18.225  37.969  11.109
83058W        W56126  25.148   8.656   3.366
83059W        W56127  22.408  26.380   3.113
83060W        W56128   0.657  37.678   2.380
83061W        W56129  12.594  21.750  12.136
83062W        W56130  22.817  31.846   1.160
83063W        W56131   8.194   6.321  11.018
83064W        W56132  44.369  40.503  10.674
83065W        W56133  18.108   3.080   3.305
83066W        W56134  33.969  40.435  12.618
83067W        W56135  20.596  34.147  11.965
83068W        W56136  16.706  32.112   2.913
83069W        W56137   9.968  11.269  10.280
83070W        W56138  44.261  20.684   0.177
83071W        W56139  24.105  35.023   1.949
83072W        W56140  32.515  27.124  11.494
83073W        W56141  16.758  43.612  14.439
83074W        W56142   1.354  39.387   0.239
83075W        W56143  23.705  24.567   1.485
83076W        W56144  10.726  39.977   4.863
83077W        W56145  14.577  27.198  10.966
83078W        W56146  28.942  16.359  12.468
83079W        W56147   5.218  33.820  12.776
83080W        W56148  35.050  32.321  12.131
83081W        W56149  41.407  15.826   9.989
83082W        W56150  28.101  20.988   3.325
83083W        W56151  22.847  14.661  14.923
83084W        W56152  33.134  30.422  11.625
83085W        W56153  42.809  15.628  13.431
83086W        W56154  35.000   7.204  10.571
83087W        W56155   4.972  32.851   0.905
83088W        W56156  22.642  21.466   3.254
83089W        W56157  34.074   5.911   3.578
83090W        W56158   0.228   9.910  11.993
83091W        W56159  20.740  43.029   0.687
83092W        W56160  14.685  19.626  13.022
83093W        W56161  33.620  35.009  10.369
83094W        W56162  36.726   6.691   2.380
83095W        W56163  13.672  26.496  14.593
83096W        W56164  18.183   4.907   3.854
83097W        W56165  35.041  44.181  10.599
83098W        W56166  22.597   5.237   1.253
83099W        W56167  37.349  38.846   4.435
83100W        W56168  32.421  23.479  11.600
83101W        W56169  12.160   2.958  13.056
83102W        W56170  19.152   1.240   2.215
83103W        W56171  13.757   8.282  13.981
83104W        W56172  42.910  25.244   3.660
83105W        W56173  24.987  44.278  14.353
83106W        W56174  17.439  20.473  11.456
83107W        W56175  40.906   4.584  11.180
83108W        W56176   6.859  35.285   2.858
83109W        W56177  14.378   3.329  14.469
83110W        W56178  44.099  37.170   2.797
83111W        W56179   4.218  15.117   4.666
83112W        W56180  28.497   2.368  11.983
83113W        W56181  44.798  14.639   2.130
83114W        W56182   8.162   9.397  12.473
83115W        W56183  37.296  39.107  11.520
83116W        W56184  43.336   5.829  10.674
83117W        W56185   6.542  44.520   4.417
83118W        W56186  42.320  32.298  12.805
83119W        W56187  11.805   4.007   3.786
83120W        W56188   4.345  39.039  12.913
83121W        W56189   9.885  10.612   0.486
83122W        W56190  14.363  44.357   1.402
83123W        W56191   9.762  21.737   0.703
83124W        W56192  44.216   0.718   0.856
83125W        W56193  29.584  25.490   1.906
83126W        W56194  15.518  42.974  14.997
83127W        W56195   9.824   7.186  11.347
83128W        W56196  16.314   5.162  13.998
83129W        W56197  23.139  32.635   4.692
83130W        W56198  30.556  34.851  11.082
83131W        W56199   1.816  13.895  11.972
83132W        W56200   4.471  30.282  13.882
83133W        W56201  42.964   7.243  10.256
83134W        W56202  29.342  33.524  10.990
83135W        W56203  18.520  32.374  12.454
83136W        W56204   1.285  33.521   0.538
83137W        W56205  11.575  11.748   3.265
83138W        W56206  17.986  12.144  11.446
83139W        W56207  34.720  32.906  11.052
83140W        W56208  15.535   0.740  10.586
83141W        W56209   4.988  25.385  10.568
83142W        W56210   3.176  30.467  11.118
83143W        W56211  17.185   1.721  10.321
83144W        W56212  11.534  19.155   2.778
83145W        W56213  30.418  42.367   4.068
83146W        W56214   5.629  20.943  12.848
83147W        W56215  26.930   0.540   0.428
83148W        W56216   8.825  10.338  12.424
83149W        W56217   5.419   1.805   1.254
83150W        W56218  27.737  22.793  11.050
83151W        W56219  36.318  34.463  14.341
83152W        W56220  15.516  42.986  14.463
83153W        W56221   9.945  25.201   3.411
83154W        W56222   2.484   3.262  11.938
83155W        W56223  11.167   6.330   3.755
83156W        W56224  11.151  36.129   4.305
83157W        W56225  30.699  31.092  11.231
83158W        W56226  16.470  33.311  14.286
83159W        W56227  15.371  39.933  10.921
83160W        W56228  27.063   7.285  14.208
83161W        W56229  10.255  10.566  11.282
83162W        W56230  15.667  27.283   0.309
83163W        W56231   2.963  10.219  11.637
83164W        W56232  16.095  38.107   3.143
83165W        W56233  13.843  10.327  12.229
83166W        W56234  26.980  36.319  13.862
83167W        W56235  36.977  24.162  13.796
83168W        W56236  16.147  43.833   0.461
83169W        W56237  21.713  38.142  12.383
83170W        W56238  15.893  21.688   4.098
83171W        W56239  25.777  33.116  14.383
83172W        W56240  27.411  21.629  14.850
83173W        W56241   6.680  24.093   3.568
83174W        W56242  12.817  15.588   1.282
83175W        W56243  26.510  42.425  11.062
83176W        W56244  33.654  28.924  11.453
83177W        W56245  38.521  20.001   1.791
83178W        W56246   2.307  30.681  12.886
83179W        W56247  40.959  19.044  13.894
83180W        W56248   2.940  29.482   4.863
83181W        W56249  30.005  16.294   2.216
83182W        W56250  41.752  33.616  12.476
83183W        W56251  16.657  23.928   1.324
83184W        W56252  12.014   9.067   4.122
83185W        W56253  14.337  17.754  11.150
83186W        W56254  19.985  21.829   1.996
83187W        W56255  41.473   3.154   4.162
83188W        W56256  35.153  12.521   2.398
83189W        W56257  11.597  21.232  12.509
83190W        W56258   7.093  21.516  13.845
83191W        W56259  30.539  28.628  12.931
83192W        W56260  25.823  37.397  14.703
83193W        W56261  33.976  21.708  12.930
83194W        W56262   2.338  11.078  10.597
83195W        W56263  19.207  25.823  12.026
83196W        W56264  28.932  35.147  14.361
83197W        W56265   0.252  34.596  13.231
83198W        W56266  40.359  39.234   2.340
83199W        W56267  32.150  31.580   4.580
83200W        W56268   8.293  32.011  12.067
83201W        W56269   6.229   7.790  11.595
83202W        W56270  11.623  15.209  11.700
83203W        W56271  34.996  13.794   4.537
83204W        W56272  35.032  11.281  10.644
83205W        W56273  10.028  30.306   3.429
83206W        W56274  38.985   8.253  12.914
83207W        W56275  34.389  16.050  10.394
83208W        W56276  23.737  38.964   0.357
83209W        W56277  26.695  19.536  13.448
83210W        W56278  11.670   2.045  11.623
83211W        W56279   5.224   4.655   2.216
83212W        W56280  28.050  32.547   0.370
83213W        W56281  26.774  43.574   0.260
83214W        W56282  27.398  13.043  11.620
83215W        W56283  14.790  29.126  12.009
83216W        W56284   0.433  43.674   2.826
83217W        W56285   2.667  44.696  13.380
83218W        W56286  33.586  22.960   3.761
83219W        W56287  26.750  12.214  10.774
83220W        W56288   7.870  30.137  14.980
83221W        W56289   7.362  17.729  14.196
83222W        W56290  40.891  41.974  12.016
83223W        W56291   3.445   2.867   2.633
83224W        W56292  42.845  32.613   2.892
83225W        W56293  21.063  16.612   4.799
83226W        W56294   4.401  13.607  12.536
83227W        W56295   0.858  17.833   0.308
83228W        W56296   2.005  38.810  12.345
83229W        W56297  44.316   9.203  14.970
83230W        W56298  31.828  28.013  10.741
83231W        W56299  12.668  35.075   4.387
83232W        W56300  18.221  27.760  13.994
83233W        W56301  22.253  24.277  11.101
83234W        W56302  15.228  21.318   3.684
83235W        W56303  23.054   0.402   4.655
83236W        W56304   0.233  12.193   0.168
83237W        W56305   4.789  42.995  10.003
83238W        W56306  13.110   1.870  12.471
83239W        W56307   9.035  18.102  12.047
83240W        W56308  17.294  39.153   4.182
83241W        W56309  35.463  36.046   4.735
83242W        W56310  30.443  15.706   3.927
83243W        W56311   5.933  17.667  10.678
83244W        W56312  11.948  23.707   0.954
83245W        W56313  19.534   5.440   4.659
83246W        W56314  20.186   8.885  10.726
83247W        W56315  32.508  32.138   0.879
83248W        W56316  40.487   9.371   0.239
83249W        W56317   1.162  14.731  12.473
83250W        W56318  35.419  36.356   3.370
83251W        W56319  23.982  13.012  12.957
83252W        W56320  11.556  27.592  13.935
83253W        W56321  12.550  13.756  11.880
83254W        W56322   1.525  10.537  11.631
83255W        W56323  11.942  21.447  10.962
83256W        W56324  25.188   1.981  14.731
83257W        W56325  37.095  10.423   2.424
83258W        W56326  18.524  14.645   4.562
83259W        W56327  43.376  31.211   4.569
83260W        W56328  35.824  24.049  14.928
83261W        W56329  34.085  30.592   1.383
83262W        W56330   4.144  30.548   0.880
83263W        W56331  12.211  27.623  11.584
83264W        W56332  14.987  12.359   3.555
83265W        W56333   3.691  17.339  13.886
83266W        W56334  43.451  17.127  11.013
83267W        W56335  13.417  33.595   3.340
83268W        W56336  21.569  13.415   0.941
83269W        W56337  19.565  25.321   2.602
83270W        W56338  28.051  21.334  11.047
83271W        W56339  18.395   7.133   2.330
83272W        W56340  39.551   0.784   1.198
83273W        W56341  21.578   5.492   0.029
83274W        W56342  26.004   1.323  13.347
83275W        W56343  25.938  23.803   5.024
83276W        W56344  28.392  13.406   2.671
83277W        W56345  30.407  30.977  13.532
83278W        W56346   7.875  35.438   0.273
83279W        W56347  12.732  10.535   1.767
83280W        W56348   0.934  31.220  10.505
83281W        W56349  39.416  28.676  11.027
83282W        W56350  42.422   6.027  11.490
83283W        W56351   5.535  10.160  10.948
83284W        W56352  25.706  32.387  11.200
83285W        W56353   9.227  24.989  13.792
83286W        W56354   7.779  37.591  10.215
83287W        W56355   7.115  42.435   4.249
83288W        W56356  25.877   0.369   0.263
83289W        W56357  37.045  34.503  14.041
83290W        W56358  31.063  18.287   1.901
83291W        W56359  25.411  16.633  13.541
83292W        W56360  13.776  13.557  11.646
83293W        W56361  33.615   2.317  13.495
83294W        W56362  11.626  28.786  12.426
83295W        W56363  20.821  11.292  12.496
83296W        W56364  10.091   6.479  13.455
83297W        W56365  40.813  30.980   4.024
83298W        W56366  31.681  13.194   4.627
83299W        W56367   8.553  44.892   1.741
83300W        W56368  34.538  44.412   1.748
83301W        W56369  37.929  44.559  13.480
83302W        W56370   5.410  38.479   0.046
83303W        W56371  26.626   7.357  14.552
83304W        W56372  41.698  29.033   4.365
83305W        W56373  10.193  24.899  14.385
83306W        W56374  33.047  37.730  12.477
83307W        W56375   5.399  34.125   3.771
83308W        W56376  20.654  10.395   3.958
83309W        W56377  30.523  19.142   0.879
83310W        W56378  35.056  22.866  13.916
83311W        W56379   5.836  37.740  10.391
83312W        W56380  23.256  32.922  12.525
83313W        W56381  33.191   0.961   1.624
83314W        W56382   9.783  42.427  13.384
83315W        W56383   2.442   3.861   3.106
83316W        W56384   9.935   7.527  14.345
83317W        W56385  34.221  43.440  13.014
83318W        W56386  21.585   1.888   1.296
83319W        W56387  24.244   1.512  11.433
83320W        W56388   8.979   3.637   3.655
83321W        W56389  11.250   6.978   1.711
83322W        W56390   6.725  39.530  12.184
83323W        W56391  21.064  21.137   4.190
83324W        W56392  12.347  43.841   1.911
83325W        W56393  21.930  25.608  13.839
83326W        W56394  27.460  44.759   2.565
83327W        W56395  40.378   8.742  11.338
83328W        W56396  32.669  42.247   2.806
83329W        W56397  14.804  14.280  13.860
83330W        W56398  14.786   5.325   1.541
83331W        W56399  42.039  26.064  11.277
83332W        W56400  32.986  18.824   0.331
83333W        W56401   1.929  11.650  13.020
83334W        W56402  33.136   7.232  14.502
83335W        W56403  21.123  19.660   3.926
83336W        W56404  25.040  23.546  14.211
83337W        W56405  34.582  22.452   1.775
83338W        W56406  15.722  24.542   1.215
83339W        W56407  42.559  34.747   1.514
83340W        W56408  35.584  32.341   0.402
83341W        W56409  29.389  41.734  10.967
83342W        W56410  43.485  38.490  14.430
83343W        W56411  30.946  15.127  13.136
83344W        W56412  29.574  36.544  12.862
83345W        W56413  25.192  37.806   0.256
83346W        W56414  13.898  12.636  13.857
83347W        W56415  23.172   4.945   4.106
83348W        W56416  22.911  30.509   1.423
83349W        W56417  40.435   9.289  14.232
83350W        W56418   6.396   9.717  10.489
83351W        W56419  37.862   7.440  11.978
83352W        W56420  38.177  41.015   1.901
83353W        W56421   4.032  39.814  10.592
83354W        W56422  34.877  38.091  14.014
83355W        W56423  19.626  33.022  10.725
83356W        W56424  28.220  12.371   3.645
83357W        W56425  42.970  26.625   1.292
83358W        W56426  43.386  10.425  11.545
83359W        W56427  33.463  36.427   4.580
83360W        W56428  43.823  30.831   3.240
83361W        W56429  33.680  34.938  10.872
83362W        W56430  12.405  37.910  11.194
83363W        W56431  30.495   8.371  11.260
83364W        W56432   1.746  25.635   1.843
83365W        W56433  29.038  13.007   4.702
83366W        W56434   5.335  18.272   2.105
83367W        W56435  22.046   4.286  11.898
83368W        W56436  18.517  29.920  11.606
83369W        W56437  29.438  34.423  11.189
83370W        W56438  41.331   0.692   3.833
83371W        W56439   9.904  27.489   1.621
83372W        W56440   6.827  10.926   0.763
83373W        W56441  35.055  41.068  13.025
83374W        W56442  37.234   9.595  14.954
83375W        W56443   5.138   6.754  12.088
83376W        W56444  36.028  15.154   2.282
83377W        W56445  13.297  16.178  12.801
83378W        W56446  31.893  18.614   4.699
83379W        W56447   0.747  12.355  14.511
83380W        W56448   4.349  25.724   3.329
83381W        W56449  41.751  30.880   3.247
83382W        W56450  13.261   9.237   3.726
83383W        W56451   2.294  34.456  14.601
83384W        W56452   4.994  21.966  14.601
83385W        W56453   8.699   8.051  14.326
83386W        W56454  34.347   2.240   4.474
83387W        W56455   1.965  14.765  14.105
83388W        W56456  27.937  41.617   1.844
83389W        W56457  28.026   4.918  13.420
83390W        W56458  10.241   6.637   0.829
83391W        W56459  26.990  35.373  13.716
83392W        W56460   5.986  31.688   4.024
83393W        W56461  38.805  22.320  11.960
83394W        W56462  43.306   4.935   3.667
83395W        W56463   1.245   0.929   0.688
83396W        W56464  31.998   3.690   1.652
83397W        W56465   4.695   6.942  14.861
83398W        W56466  20.652  26.263  12.194
83399W        W56467   2.531  17.161   2.305
83400W        W56468  28.296   1.915  10.636
83401W        W56469  18.051  17.838  14.843
83402W        W56470  24.439  43.061  11.674
83403W        W56471   6.158  28.974   3.658
83404W        W56472  26.162  14.820  13.368
83405W        W56473  32.853   5.428  11.072
83406W        W56474   4.119  16.096  10.642
83407W        W56475  18.242  40.303   0.381
83408W        W56476  38.178  13.063   4.862
83409W        W56477  28.423  20.300  13.545
83410W        W56478   5.300  18.701   3.885
83411W        W56479   0.540  23.026  13.283
83412W        W56480  41.809   3.350   1.582
83413W        W56481  42.761  26.165   1.321
83414W        W56482   6.872  21.491  11.980
83415W        W56483  21.780  10.496  10.590
83416W        W56484  33.574  32.860  10.636
83417W        W56485   6.687  34.215  12.923
83418W        W56486  35.935  23.524  14.808
83419W        W56487  37.448   0.252   1.358
83420W        W56488   1.834  12.870   4.627
83421W        W56489   0.495  20.353   4.539
83422W        W56490   2.887  25.250  12.468
83423W        W56491  32.846  35.021  14.335
83424W        W56492  36.326  10.293  11.134
83425W        W56493   8.324  26.950  12.447
83426W        W56494  38.331  24.454  13.336
83427W        W56495  40.158  23.991  11.948
83428W        W56496  29.464  31.603  12.113
83429W        W56497  10.865   7.287   1.905
83430W        W56498  31.113   9.737  12.812
83431W        W56499  15.582  23.196   3.763
83432W        W56500  25.219  34.574   0.932
83433W        W56501  27.502  15.092  13.388
83434W        W56502  31.153   3.815  10.483
83435W        W56503  20.070  10.665  12.427
83436W        W56504  23.724  27.624   0.320
83437W        W56505  32.072  11.384   4.759
83438W        W56506  12.606  24.060   3.614
83439W        W56507  25.526  15.220  10.693
83440W        W56508  44.857  19.724  13.682
83441W        W56509   3.302  30.704   2.340
83442W        W56510   8.450   3.642   4.856
83443W        W56511  14.111  10.302   4.103
83444W        W56512  35.824  18.610  14.515
83445W        W56513  31.529   6.594  14.053
83446W        W56514  44.862  17.683   5.087
83447W        W56515  35.113  26.195  10.493
83448W        W56516   3.288   0.262   2.677
83449W        W56517   4.760  30.889   4.195
83450W        W56518  29.044  34.083  14.585
83451W        W56519  37.118  28.167   3.718
83452W        W56520  18.283  24.410   0.772
83453W        W56521  19.679  42.919   1.817
83454W        W56522  11.710  10.664  11.130
83455W        W56523  39.529   5.309   0.439
83456W        W56524  15.522  18.547   4.293
83457W        W56525  27.974  42.494   1.443
83458W        W56526  36.117   4.880  13.332
83459W        W56527  44.496  31.568   4.020
83460W        W56528  36.787  13.591   1.845
83461W        W56529  35.551   9.348  10.640
83462W        W56530  41.963  34.896  12.001
83463W        W56531  22.611  20.342   0.146
83464W        W56532   5.391  43.953  13.968
83465W        W56533  39.859  24.262   1.368
83466W        W56534  39.469  24.516  11.079
83467W        W56535  38.962   3.259   4.742
83468W        W56536  20.503  39.414  10.616
83469W        W56537   5.752   9.081   4.821
83470W        W56538  39.754  29.228  10.993
83471W        W56539  11.779  43.435   4.917
83472W        W56540   1.231  33.166   3.653
83473W        W56541  10.776  29.822   4.080
83474W        W56542  10.296  25.278  11.096
83475W        W56543   3.320  12.014  14.911
83476W        W56544  11.098  31.684  14.497
83477W        W56545  38.791  39.136   2.968
83478W        W56546   7.889  17.216  13.138
83479W        W56547  34.132  44.839   0.486
83480W        W56548  15.812  27.048   1.169
83481W        W56549  41.814   4.088  12.294
83482W        W56550  38.996  35.314   3.849
83483W        W56551  32.045  14.318  11.236
83484W        W56552  22.030  33.921   1.759
83485W        W56553  27.033   6.976  10.751
83486W        W56554  24.501  16.650  11.599
83487W        W56555  11.981   7.303   3.572
83488W        W56556  24.618  42.868   1.747
83489W        W56557  28.777  30.197  10.897
83490W        W56558  44.977  22.750  12.958
83491W        W56559  10.876   4.276  10.530
83492W        W56560  36.966  41.294   2.783
83493W        W56561  15.630  14.435   4.209
83494W        W56562  25.024  26.678   1.897
83495W        W56563  21.691  41.457   1.213
83496W        W56564  22.162  30.497   0.971
83497W        W56565  39.825   0.853  12.945
83498W        W56566  21.366   0.407   1.082
83499W        W56567  40.081  17.625  11.365
83500W        W56568  28.249  34.415  12.176
83501W        W56569  40.004  16.758  10.997
83502W        W56570  41.316  20.670   3.947
83503W        W56571  24.759  30.610  11.935
83504W        W56572   2.414   8.169  12.131
83505W        W56573  14.683  34.163  11.436
83506W        W56574  31.515  19.725  13.733
83507W        W56575  23.438  44.242  12.303
83508W        W56576   2.451  21.731  14.507
83509W        W56577  19.059  20.812  14.483
83510W        W56578  30.981  13.371   4.290
83511W        W56579  16.132  17.476   3.367
83512W        W56580  39.056  22.139  14.511
83513W        W56581  14.262  25.889  13.935
83514W        W56582  36.543  18.677  13.825
83515W        W56583   9.745  38.553  12.865
83516W        W56584  15.313   4.008   4.637
83517W        W56585   9.431  17.882  11.177
83518W        W56586  25.967  35.126  11.541
83519W        W56587  13.240  35.372   2.459
83520W        W56588  19.600  25.134  11.574
83521W        W56589  17.375  29.939  10.470
83522W        W56590  44.825  29.815   4.510
83523W        W56591   7.410  14.018   0.796
83524W        W56592   6.825  42.898   2.905
83525W        W56593  22.594  42.437   2.496
83526W        W56594  13.869  26.567  13.792
83527W        W56595  17.778  44.293  14.805
83528W        W56596  18.206  15.621   4.082
83529W        W56597  35.807  44.951  13.644
83530W        W56598  38.986  35.205   0.770
83531W        W56599  44.361   2.589  14.242
83532W        W56600  32.590  29.676   3.807
83533W        W56601  33.405   6.009   0.486
83534W        W56602  27.094  33.436  10.711
83535W        W56603  14.220   6.179   1.387
83536W        W56604  39.160  12.250  11.387
83537W        W56605  17.495  34.987  14.480
83538W        W56606  42.206  20.221   3.431
83539W        W56607   3.399   3.799   2.749
83540W        W56608  23.046  17.655   2.032
83541W        W56609  38.590  16.691  14.096
83542W        W56610  26.686  19.663   2.224
83543W        W56611  21.703   5.844   0.761
83544W        W56612  14.783  44.011   0.851
83545W        W56613  39.022   5.438  14.857
83546W        W56614  28.097  10.554   0.986
83547W        W56615  18.628  18.981  11.951
83548W        W56616  18.918  32.217  14.892
83549W        W56617   0.187  24.652   4.633
83550W        W56618   0.968  30.848  12.003
83551W        W56619  23.053  36.244   2.403
83552W        W56620  40.242   1.276   0.770
83553W        W56621  28.444  34.677  12.577
83554W        W56622  26.192  38.733   0.089
83555W        W56623  38.805  25.065   3.374
83556W        W56624  25.177  26.654   4.536
83557W        W56625  41.549  15.138  14.837
83558W        W56626  43.551   9.140   3.102
83559W        W56627  22.737  32.107  12.501
83560W        W56628  15.931  18.058  13.540
83561W        W56629   9.430   2.920   4.404
83562W        W56630  21.080  33.395   4.957
83563W        W56631  19.799  25.578   5.048
83564W        W56632  25.450  21.093  14.853
83565W        W56633  31.667  25.114   4.301
83566W        W56634  20.806   0.732  12.069
83567W        W56635  28.139   9.785   3.083
83568W        W56636  24.546  13.742  14.462
83569W        W56637  13.410  17.636  12.971
83570W        W56638  23.803   7.082   2.490
83571W        W56639  44.266  38.884   9.931
83572W        W56640  13.184   3.972  10.613
83573W        W56641  37.484  24.557  13.026
83574W        W56642   6.501   7.262  14.483
83575W        W56643   5.351  28.189  14.318
83576W        W56644  20.070  44.784  10.279
83577W        W56645   2.052  39.419   3.281
83578W        W56646  36.493  40.543  13.992
83579W        W56647   8.741  35.068   0.298
83580W        W56648   9.945  42.561  13.873
83581W        W56649  26.654  10.689   4.155
83582W        W56650   2.267  37.904  14.016
83583W        W56651  36.339  23.023   1.878
83584W        W56652   4.654  23.125   1.413
83585W        W56653  16.199  31.411   2.346
83586W        W56654   2.549  38.620  14.883
83587W        W56655  26.811  43.149  10.025
83588W        W56656  28.580  15.333   2.804
83589W        W56657   0.207  35.949  14.504
83590W        W56658  43.339   8.675  10.204
83591W        W56659  33.957  33.397  11.418
83592W        W56660  26.987   7.931  12.956
83593W        W56661  19.901   5.190   5.018
83594W        W56662  40.508  11.662  10.239
83595W        W56663   5.244   0.187   4.263
83596W        W56664  16.122  25.209   2.246
83597W        W56665  22.321  28.570  12.976
83598W        W56666  11.151  20.863  11.057
83599W        W56667  24.490  12.604  14.055
83600W        W56668  35.071  36.012   3.203
83601W        W56669   5.156  41.473  13.896
83602W        W56670  37.587  26.378  13.695
83603W        W56671   1.202  34.916   4.158
83604W        W56672   7.949  30.422   4.708
83605W        W56673  39.960  15.088   0.471
83606W        W56674  17.580  34.456   3.461
83607W        W56675   4.814   3.035   4.627
83608W        W56676   3.449  14.693  12.755
83609W        W56677  25.778  19.317  14.916
83610W        W56678  12.595  31.637   3.289
83611W        W56679  42.462  38.599  12.894
83612W        W56680  29.924  25.213   1.554
83613W        W56681  36.501  37.926  14.893
83614W        W56682  21.158  33.384  10.415
83615W        W56683  39.832   6.716   4.166
83616W        W56684  25.202  24.243   4.507
83617W        W56685  22.103  13.809   2.574
83618W        W56686  27.518  20.736  13.298
83619W        W56687  12.362  31.166  14.028
83620W        W56688  35.520  43.459   3.214
83621W        W56689  39.299   1.363  14.824
83622W        W56690  36.842  24.036  12.394
83623W        W56691  35.616  39.251  13.098
83624W        W56692  19.128  34.039  11.476
83625W        W56693   9.119  26.019   2.225
83626W        W56694  11.352  41.018   3.522
83627W        W56695  10.434  15.789   1.266
83628W        W56696  21.555  21.209  11.342
83629W        W56697  38.488  24.516  10.844
83630W        W56698  34.150   0.936  14.402
83631W        W56699  40.942  26.030  13.270
83632W        W56700  14.424  28.466  12.678
83633W        W56701  14.209   6.842  12.972
83634W        W56702  21.860  36.934   4.569
83635W        W56703   8.388   9.699  14.016
83636W        W56704  13.228  10.890  12.953
83637W        W56705   3.217  18.849  14.934
83638W        W56706  39.960  24.147  12.389
83639W        W56707  18.340   8.354  11.120
83640W        W56708  39.531  24.961  14.388
83641W        W56709  16.350  19.063  14.619
83642W        W56710  10.233   4.146  12.578
83643W        W56711  17.965  44.014  12.999
83644W        W56712  37.286  38.499   1.772
83645W        W56713  13.472  20.655   4.794
83646W        W56714  22.593  16.767   1.312
83647W        W56715   2.216  27.048   3.228
83648W        W56716   8.330  20.181   2.865
83649W        W56717  35.875  32.847  12.188
83650W        W56718  13.875  24.966   2.933
83651W        W56719  36.458   3.341   3.603
83652W        W56720  22.276  40.419   3.029
83653W        W56721  20.690  27.956  14.925
83654W        W56722   6.259  39.121  13.735
83655W        W56723  29.087  27.102   3.313
83656W        W56724   5.440  38.573  10.298
83657W        W56725  41.984  26.702  14.824
83658W        W56726  44.747  19.471   1.630
83659W        W56727  43.008  44.390   3.828
83660W        W56728  35.906  22.540   2.756
83661W        W56729  36.255  14.311  11.827
83662W        W56730   9.317  42.273  10.447
83663W        W56731  37.015  12.350   1.330
83664W        W56732   4.826  31.634   3.746
83665W        W56733  26.540  38.775   3.847
83666W        W56734  27.437   2.478   4.299
83667W        W56735  44.163  23.171  11.462
83668W        W56736  37.360  29.684   3.507
83669W        W56737  37.543  34.920   3.745
83670W        W56738  44.656  21.435  13.397
83671W        W56739  10.610  12.543   4.049
83672W        W56740  17.568  15.208   1.741
83673W        W56741  10.294  28.639   0.285
83674W        W56742  20.683  12.473   3.791
83675W        W56743  23.386   9.880  14.308
83676W        W56744  32.183  40.098   3.258
83677W        W56745  44.868  34.904  13.546
83678W        W56746  14.574  43.521   0.822
83679W        W56747   8.272  32.626  12.917
83680W        W56748  31.727  27.589  14.388
83681W        W56749  38.455  21.276  13.805
83682W        W56750  23.661   6.213  12.661
83683W        W56751  33.602  11.192  12.905
83684W        W56752  13.218  28.470   1.906
83685W        W56753  20.078  13.063  10.805
83686W        W56754   6.824   6.189   3.165
83687W        W56755  26.266  29.288   0.888
83688W        W56756  11.710   0.348   2.435
83689W        W56757  16.073  39.902  14.946
83690W        W56758  12.432  27.818  12.875
83691W        W56759   4.238  24.831   0.356
83692W        W56760  42.765  44.888  10.521
83693W        W56761  12.814  35.767  10.591
83694W        W56762  26.533  26.128  13.283
83695W        W56763  39.053   9.144  14.452
83696W        W56764  26.241  41.803   3.301
83697W        W56765  33.446  34.535   0.283
83698W        W56766  13.865  39.061  13.554
83699W        W56767  18.406   5.694  11.258
83700W        W56768  28.406  11.760  10.378
83701W        W56769  29.580  33.147   1.734
83702W        W56770  28.210  26.600  12.509
83703W        W56771  21.042  36.960  14.746
83704W        W56772   6.968   0.279   4.183
83705W        W56773  20.196  33.066  13.983
83706W        W56774  27.664  44.961  14.260
83707W        W56775   2.779  26.443   2.810
83708W        W56776  17.618   5.751   2.200
83709W        W56777  21.095  28.570   2.364
83710W        W56778  42.775  11.805   0.515
83711W        W56779  34.989  16.219  12.359
83712W        W56780  37.828  10.431  13.878
83713W        W56781  33.738   1.270  12.743
83714W        W56782  15.242  44.753  12.650
83715W        W56783  13.244  41.357  14.538
83716W        W56784  27.212   9.543   5.329
83717W        W56785  10.806   6.785  12.482
83718W        W56786  16.843  17.663  13.630
83719W        W56787  35.568  16.338   2.346
83720W        W56788   0.876   9.970   4.761
83721W        W56789  28.292  30.901   2.282
83722W        W56790  42.468  18.511  11.192
83723W        W56791   0.297  39.909   3.167
83724W        W56792  15.127  28.724  11.956
83725W        W56793  19.938  17.283   1.449
83726W        W56794  30.935  38.278  10.689
83727W        W56795  26.945  23.590  11.510
83728W        W56796  24.761   2.374  12.680
83729W        W56797  20.226  32.654  11.258
83730W        W56798  32.634  16.090  12.031
83731W        W56799  40.258  43.906   2.831
83732W        W56800  36.086  15.519  10.581
83733W        W56801   8.768  40.869   4.646
83734W        W56802  12.098  13.665   3.447
83735W        W56803   2.268  32.143  13.495
83736W        W56804  30.184  11.764   1.701
83737W        W56805  36.267  43.284   4.527
83738W        W56806  12.054  12.312  10.525
83739W        W56807  10.228  20.019   1.351
83740W        W56808  43.506  30.884  10.399
83741W        W56809   3.651  43.011   3.272
83742W        W56810  11.662  21.263   1.966
83743W        W56811  17.816  22.931  11.036
83744W        W56812   5.263  28.232  12.103
83745W        W56813  20.944  26.477   3.972
83746W        W56814  31.027  12.147  11.997
83747W        W56815  16.669  19.126   4.683
83748W        W56816  39.544  14.366   2.682
83749W        W56817  30.136   2.653  13.947
83750W        W56818   6.745   3.124   1.757
83751W        W56819  13.376  39.501   1.330
83752W        W56820  30.558  15.683   1.908
83753W        W56821  28.426  35.047  14.263
83754W        W56822  27.120  42.058  11.627
83755W        W56823  33.371  41.557   4.723
83756W        W56824  33.093  20.018   0.779
83757W        W56825  42.043  16.700  11.580
83758W        W56826  33.312  44.555   3.244
83759W        W56827  32.931  35.985   2.859
83760W        W56828  27.053  31.964   1.835
83761W        W56829  41.031  18.104   0.681
83762W        W56830  20.651  16.342   5.021
83763W        W56831  17.274   4.244   1.592
83764W        W56832  42.860   2.213   0.034
83765W        W56833  12.121  13.823  12.193
83766W        W56834  13.070   6.257  11.053
83767W        W56835   6.345  14.227   3.184
83768W        W56836  34.186  42.989   4.126
83769W        W56837   1.832  14.333   3.328
83770W        W56838   2.378  15.548   0.382
83771W        W56839  30.678  35.796  14.686
83772W        W56840   7.139  42.226   0.930
83773W        W56841  42.242   4.962  13.337
83774W        W56842  27.975   7.941   3.832
83775W        W56843  38.580  31.549   4.152
83776W        W56844  11.615  19.922   0.915
83777W        W56845   4.716  26.192   4.579
83778W        W56846  26.609  22.725   1.844
83779W        W56847  17.288   8.234  12.258
83780W        W56848   3.492  16.591   2.325
83781W        W56849  22.929  10.100   0.217
83782W        W56850  20.213   5.683   3.646
83783W        W56851   9.672  22.571  10.692
83784W        W56852  10.345  26.492   0.602
83785W        W56853   8.712  38.037  10.582
83786W        W56854  21.493  44.803   2.751
83787W        W56855   2.807  19.618   1.990
83788W        W56856  40.446  25.977   0.757
83789W        W56857  22.789   6.733   1.422
83790W        W56858  12.726   0.056  14.781
83791W        W56859  20.070  37.717   2.847
83792W        W56860  35.677   2.987  11.180
83793W        W56861  38.818   8.374  13.384
83794W        W56862   2.762   3.429   1.747
83795W        W56863   6.941  21.609   2.852
83796W        W56864   5.887  23.729  10.416
83797W        W56865  19.490   2.217   1.668
83798W        W56866  18.030  24.156  14.794
83799W        W56867  37.982  17.421  11.081
83800W        W56868   0.431  21.504   0.449
83801W        W56869  36.523  37.047  12.553
83802W        W56870  21.104   7.874  10.302
83803W        W56871  18.758  28.595  10.663
83804W        W56872  34.663  33.041  12.313
83805W        W56873   8.438  13.775  11.126
83806W        W56874  26.189   7.920  11.939
83807W        W56875   3.694  26.971  12.141
83808W        W56876  36.124  29.059   1.910
83809W        W56877  26.409  43.310   2.172
83810W        W56878  31.009  42.815  12.820
83811W        W56879  29.481  25.903  10.462
83812W        W56880  26.793   1.956   3.813
83813W        W56881  12.807   4.172   0.877
83814W        W56882   0.914   9.888  10.580
83815W        W56883   7.365   8.291  11.074
83816W        W56884  30.451   2.186  12.081
83817W        W56885  23.157  30.736  12.879
83818W        W56886  35.469   3.529  14.381
83819W        W56887  43.029   1.283  14.000
83820W        W56888   2.428   7.449  11.579
83821W        W56889  17.846  11.769   4.175
83822W        W56890  12.255   9.751   3.170
83823W        W56891   0.469  38.448  12.370
83824W        W56892  16.529  39.276  13.611
83825W        W56893  10.653   1.533   3.275
83826W        W56894   9.319  42.250  13.530
83827W        W56895  14.233  18.699   4.533
83828W        W56896  26.266  18.581   2.364
83829W        W56897  12.702  12.417   3.698
83830W        W56898  20.451  27.875   1.152
83831W        W56899  14.328  36.326   1.441
83832W        W56900  38.804  10.424  10.678
83833W        W56901  16.745   3.319   4.541
83834W        W56902  34.348  27.187  12.016
83835W        W56903   3.494   3.183   2.171
83836W        W56904  29.704  31.692   4.985
83837W        W56905  24.200  40.826   0.695
83838W        W56906  16.943  20.546  11.613
83839W        W56907  35.076  34.663   0.162
83840W        W56908   9.240   0.252  14.529
83841W        W56909  36.433  25.709  12.558
83842W        W56910  12.040  22.752  11.647
83843W        W56911  18.635   7.992   4.626
83844W        W56912  40.493  32.437  13.450
83845W        W56913  31.594   4.386   3.573
83846W        W56914  22.020  14.705  12.460
83847W        W56915  26.034  21.108  14.957
83848W        W56916  30.175  11.999   0.325
83849W        W56917  32.853  39.120   3.222
83850W        W56918  42.750   9.313  13.462
83851W        W56919  33.930   6.920  14.105
83852W        W56920   6.783  33.698  13.821
83853W        W56921  27.202   0.012  12.034
83854W        W56922   1.090  29.882   0.846
83855W        W56923   2.827   9.730   1.726
83856W        W56924  14.280  21.775  11.141
83857W        W56925  43.787  20.778   3.568
83858W        W56926  16.168  36.442   3.393
83859W        W56927  40.252  40.501  12.557
83860W        W56928   6.958  17.595   2.202
83861W        W56929  20.123  11.689   0.219
83862W        W56930  20.220  43.022   1.809
83863W        W56931  14.530  26.629   1.963
83864W        W56932  10.111  38.011  12.000
83865W        W56933  34.044  35.131  13.352
83866W        W56934  40.627  25.014  10.749
83867W        W56935   6.108  31.401  11.649
83868W        W56936  27.164  38.999  10.320
83869W        W56937  39.307   4.535   1.976
83870W        W56938   9.605  13.872   0.855
83871W        W56939  19.711  28.076  11.001
83872W        W56940   4.814  26.751   3.707
83873W        W56941  32.156  41.113  11.131
83874W        W56942  36.657  31.712  13.818
83875W        W56943  15.717  24.032  13.602
83876W        W56944  23.560   4.821   3.315
83877W        W56945  10.416  27.077  12.519
83878W        W56946  18.587  22.810  10.607
83879W        W56947   0.442  40.853  14.007
83880W        W56948  31.241  36.053  12.064
83881W        W56949  44.878  35.867   4.599
83882W        W56950  41.378   5.316   2.926
83883W        W56951  41.446  35.035   4.659
83884W        W56952   9.141  28.188   3.670
83885W        W56953   4.223  34.572  11.328
83886W        W56954  24.432  28.520   4.114
83887W        W56955  35.048  32.839  12.023
83888W        W56956  28.104   1.553   3.603
83889W        W56957  11.523   3.573   0.467
83890W        W56958   5.085  25.898  13.920
83891W        W56959   6.913  38.810   2.506
83892W        W56960  35.040  35.511   2.428
83893W        W56961  27.521  38.363  14.924
83894W        W56962  30.677  11.850  10.616
83895W        W56963  40.895  32.341   3.839
83896W        W56964   6.212  36.968  10.637
83897W        W56965  35.549  33.040  12.552
83898W        W56966  21.166   7.206  12.773
83899W        W56967  31.958  20.771  12.114
83900W        W56968  15.654   2.741   2.946
83901W        W56969  38.023  36.880   4.500
83902W        W56970   7.956  31.603  12.162
83903W        W56971   8.153  24.451   1.769
83904W        W56972   5.550  20.240   3.661
83905W        W56973  18.258  44.826  14.222
83906W        W56974  28.961  39.970   2.108
83907W        W56975   3.749   1.905  14.919
83908W        W56976  38.385  34.620   2.209
83909W        W56977   2.766  31.816  12.775
83910W        W56978  23.587  31.893   4.500
83911W        W56979  27.613  28.701   3.579
83912W        W56980  26.953   8.925   1.507
83913W        W56981  30.145  32.018   0.897
83914W        W56982  43.278  38.972  12.884
83915W        W56983  40.686  14.856   4.254
83916W        W56984  34.600  19.080   0.254
83917W        W56985   2.485  30.091   2.776
83918W        W56986  43.029  34.171  12.812
83919W        W56987  43.924  17.998  14.956
83920W        W56988   4.383  31.713  12.065
83921W        W56989  12.357  44.260  13.621
83922W        W56990  24.588  16.689   9.795
83923W        W56991   4.468  31.746  13.101
83924W        W56992  38.806  12.767   2.645
83925W        W56993  18.574   1.405  11.108
83926W        W56994  12.040  38.475  13.850
83927W        W56995   6.132   3.881  11.216
83928W        W56996  20.350  38.119  11.139
83929W        W56997  29.478  31.244  14.595
83930W        W56998  26.052  22.930  10.987
83931W        W56999  10.260  39.321  11.508
83932W        W57000  37.377  22.976   1.844
83933W        W57001  22.498  44.895  11.961
83934W        W57002  41.424   5.679   3.294
83935W        W57003  37.247  43.770   0.241
83936W        W57004  10.219  34.359  10.754
83937W        W57005  42.322   0.168  10.445
83938W        W57006  31.723   8.967  14.773
83939W        W57007  31.014  20.163   0.946
83940W        W57008  38.402   7.195   2.592
83941W        W57009  38.303  29.408  14.536
83942W        W57010   4.146   4.767  12.871
83943W        W57011  23.722  35.504   4.200
83944W        W57012   8.870  26.476   4.073
83945W        W57013   1.748   5.583  14.385
83946W        W57014  39.015  13.593   0.469
83947W        W57015  38.681  11.927  13.481
83948W        W57016   4.234  14.640  12.397
83949W        W57017  21.777  25.915   0.752
83950W        W57018  36.085  10.817  11.941
83951W        W57019  34.580   6.277  11.163
83952W        W57020   6.930  30.866  13.427
83953W        W57021  36.374   6.149  11.547
83954W        W57022  19.302  10.347  14.791
83955W        W57023   3.911  33.633  10.658
83956W        W57024  40.695   4.149  11.007
83957W        W57025  39.387  38.815  10.481
83958W        W57026  15.371   9.834  14.433
83959W        W57027  14.810  25.330   3.247
83960W        W57028   9.739  32.566   3.694
83961W        W57029  33.536  35.566   3.603
83962W        W57030  43.420  21.231   9.846
83963W        W57031  28.945   2.321   0.283
83964W        W57032  40.434  27.004   4.355
83965W        W57033  44.264   6.202  14.019
83966W        W57034  22.643   9.846  10.553
83967W        W57035   6.208  39.030  10.562
83968W        W57036  42.774  20.044   0.916
83969W        W57037  23.439  14.374   3.295
83970W        W57038  14.717  42.333  13.272
83971W        W57039  18.796  43.710   1.929
83972W        W57040  23.726  19.317  11.456
83973W        W57041  16.841  21.542   1.208
83974W        W57042  44.693   7.850   2.627
83975W        W57043  34.220  41.894  14.344
83976W        W57044  25.635   4.967   1.763
83977W        W57045  29.531  25.245   3.647
83978W        W57046  32.155  22.495  10.094
83979W        W57047  11.112  27.581  13.508
83980W        W57048  34.577  17.650  14.691
83981W        W57049  42.535  37.300   1.275
83982W        W57050   4.690   2.882  12.099
83983W        W57051  28.932  17.031   4.272
83984W        W57052  18.923   5.286  13.143
83985W        W57053   1.095  40.114   4.646
83986W        W57054  32.117  44.649  13.131
83987W        W57055  35.880  31.981  14.503
83988W        W57056  34.174  18.633  13.952
83989W        W57057  38.035  32.652   0.432
83990W        W57058  38.580  31.811  10.131
83991W        W57059  34.946  10.246  12.085
83992W        W57060  41.913  19.034   1.684
83993W        W57061  27.221   5.807  13.909
83994W        W57062  41.606  34.940   1.324
83995W        W57063  40.187  29.472   2.833
83996W        W57064  30.921  20.079   3.050
83997W        W57065   4.735  24.476   2.660
83998W        W57066   7.945   8.895  13.875
83999W        W57067   5.292   6.226   1.253
84000W        W57068  32.516  28.525   2.882
84001W        W57069   6.319   4.247   4.360
84002W        W57070  10.405  14.473  14.837
84003W        W57071   3.506  24.673  12.865
84004W        W57072  44.069  30.963  13.343
84005W        W57073  31.778  44.999  11.026
84006W        W57074  34.975  20.697  14.756
84007W        W57075  15.590  40.858   3.288
84008W        W57076   3.428  14.708   0.840
84009W        W57077  11.179  43.067   1.823
84010W        W57078   3.013  24.144   4.299
84011W        W57079   7.862  26.353   4.104
84012W        W57080   7.024   9.354  13.924
84013W        W57081  22.738  34.751  12.062
84014W        W57082   0.766  27.460   0.464
84015W        W57083  43.247   1.283   1.723
84016W        W57084  20.774  19.499   2.832
84017W        W57085   3.869  10.024  12.973
84018W        W57086  37.292  21.576  14.373
84019W        W57087  40.343  33.039   1.635
84020W        W57088  18.194  31.623   0.884
84021W        W57089   8.762   0.871   3.306
84022W        W57090   1.791  33.094  10.688
84023W        W57091  25.257  27.194   2.221
84024W        W57092   2.820   6.151   0.367
84025W        W57093  23.343  15.843   2.830
84026W        W57094  24.639  41.928   2.123
84027W        W57095   0.319  26.887  13.949
84028W        W57096  30.135  33.337  12.502
84029W        W57097   7.843  21.661  14.268
84030W        W57098  23.468  23.509   1.775
84031W        W57099   1.300  34.144   1.169
84032W        W57100  16.842  21.993  12.824
84033W        W57101  25.477  36.619  11.183
84034W        W57102  12.566  32.055  10.716
84035W        W57103  27.457  29.993  14.825
84036W        W57104  33.576  28.405   0.258
84037W        W57105  27.260  12.679  11.182
84038W        W57106  14.946  36.399   0.432
84039W        W57107   2.332  29.731  14.355
84040W        W57108  20.230  12.044   1.325
84041W        W57109  37.587  24.504  11.439
84042W        W57110  14.056  31.631   3.413
84043W        W57111  17.865   4.732  14.843
84044W        W57112  42.616  16.422   1.480
84045W        W57113   6.378  21.597  14.358
84046W        W57114  12.521  43.260   3.203
84047W        W57115  38.311   8.865   3.527
84048W        W57116  24.077  28.146   3.556
84049W        W57117  19.508  21.665  13.168
84050W        W57118  28.702  22.071   0.334
84051W        W57119  36.036  18.174   2.200
84052W        W57120   7.103  12.939   0.722
84053W        W57121  21.801  10.927  13.875
84054W        W57122  22.434  12.358   4.955
84055W        W57123  11.129   1.066   0.717
84056W        W57124  27.408  22.971   2.476
84057W        W57125  19.145   9.732  14.178
84058W        W57126  34.483  42.933  11.205
84059W        W57127  44.708  12.622  13.437
84060W        W57128  33.225  21.053  11.987
84061W        W57129  16.702   4.437   4.649
84062W        W57130  30.419   1.727  12.337
84063W        W57131  21.157   9.752  11.399
84064W        W57132  17.318   2.246  11.650
84065W        W57133  27.938  11.681  12.554
84066W        W57134   8.868  33.961   3.774
84067W        W57135  34.069  10.745   0.396
84068W        W57136  42.384   8.951  13.560
84069W        W57137  29.837  26.463  11.050
84070W        W57138  14.705  20.624  14.509
84071W        W57139  31.486  27.802  13.538
84072W        W57140  41.760  18.242   2.148
84073W        W57141  29.944  19.714   0.254
84074W        W57142  18.935  12.107  10.917
84075W        W57143  16.541  27.104  11.901
84076W        W57144  23.395   9.951   1.874
84077W        W57145   3.294   2.397   1.512
84078W        W57146  26.142  41.101   1.730
84079W        W57147  42.661   0.821   3.119
84080W        W57148  11.593  29.890  13.620
84081W        W57149   7.163  37.536   3.118
84082W        W57150  12.232  31.075   4.298
84083W        W57151  32.027  32.144  14.325
84084W        W57152  35.940  17.636   1.086
84085W        W57153  10.385  11.377   3.375
84086W        W57154  14.877  40.024   0.229
84087W        W57155  44.956  27.564   3.315
84088W        W57156   5.779  44.221  12.865
84089W        W57157  24.558  25.916   0.271
84090W        W57158   4.928  43.465  11.582
84091W        W57159  26.489  27.573  12.042
84092W        W57160  42.239   6.733   1.325
84093W        W57161  10.025  27.656   0.250
84094W        W57162   5.741  29.614  12.434
84095W        W57163  36.464  11.684  12.832
84096W        W57164   8.105  25.720  12.178
84097W        W57165  42.715  10.446  12.368
84098W        W57166  36.838   4.294   0.118
84099W        W57167  17.188  42.965   3.289
84100W        W57168  38.866  39.832  14.948
84101W        W57169   7.731  10.267  13.564
84102W        W57170  39.897  35.064   2.935
84103W        W57171  14.059  41.085   2.207
84104W        W57172  23.525  37.955  13.077
84105W        W57173  20.950   9.233   0.944
84106W        W57174   3.519   7.205   0.504
84107W        W57175  38.528   6.782  11.162
84108W        W57176   1.099  30.530   5.042
84109W        W57177  36.165   8.734   4.262
84110W        W57178  15.749   4.810  11.799
84111W        W57179  44.360  30.098  13.014
84112W        W57180   4.712  11.302   4.275
84113W        W57181  44.249   4.503   2.878
84114W        W57182  27.506   2.389  14.292
84115W        W57183  13.278  15.122   4.812
84116W        W57184  17.082   7.376  12.522
84117W        W57185  39.059   1.072  12.421
84118W        W57186   5.589  30.978   1.567
84119W        W57187  30.180  43.349  12.507
84120W        W57188  44.556  20.493   2.267
84121W        W57189  21.678  20.055   4.743
84122W        W57190  37.773  13.702  10.701
84123W        W57191  10.715  42.100  14.892
84124W        W57192  25.899  29.687   1.968
84125W        W57193  27.811   2.068  10.796
84126W        W57194  19.269  29.104   1.252
84127W        W57195   4.247  35.832  14.021
84128W        W57196  25.213  41.984  12.993
84129W        W57197  36.562   4.125  13.024
84130W        W57198   1.448  25.254   2.816
84131W        W57199  12.610  20.000   3.787
84132W        W57200  40.282  43.759   4.248
84133W        W57201  13.833  27.514  14.083
84134W        W57202  25.381  28.473   4.427
84135W        W57203   1.435  14.657  11.148
84136W        W57204  39.992  29.966  12.391
84137W        W57205   3.585   3.790   0.940
84138W        W57206   6.293  29.447  13.365
84139W        W57207  18.206   3.950   2.181
84140W        W57208  40.659   8.357   9.669
84141W        W57209  31.404  29.504  13.863
84142W        W57210  41.729  15.734   1.863
84143W        W57211  22.436  18.218  13.015
84144W        W57212   1.564  43.031  13.511
84145W        W57213  42.282  23.880   3.061
84146W        W57214  34.655  26.572  13.087
84147W        W57215  23.555  16.108   5.227
84148W        W57216  40.804  18.320   0.273
84149W        W57217  15.570  41.297   2.324
84150W        W57218   3.363  41.034  12.074
84151W        W57219  10.648   0.527  13.840
84152W        W57220  15.148  15.009  11.149
84153W        W57221  24.262   4.059  11.577
84154W        W57222  33.506  40.324   1.753
84155W        W57223  10.196  12.358   3.755
84156W        W57224  10.339  37.921  14.011
84157W        W57225  21.628  18.999   0.409
84158W        W57226  14.504  26.005  11.925
84159W        W57227   4.757  43.313  13.088
84160W        W57228  32.025  29.613   0.873
84161W        W57229  14.859  19.557  14.871
84162W        W57230   5.196  16.356  11.387
84163W        W57231  27.597  18.632  13.377
84164W        W57232  31.063  42.590   1.306
84165W        W57233  37.922  16.264  11.471
84166W        W57234  40.861  26.542   3.755
84167W        W57235  39.010  32.924   4.165
84168W        W57236  25.147  16.383  13.961
84169W        W57237  25.696   8.884  14.459
84170W        W57238  32.844  19.550  14.786
84171W        W57239  31.994  14.632  13.909
84172W        W57240   6.688   1.704   0.537
84173W        W57241  43.536  36.208   0.886
84174W        W57242  23.492   7.795   4.080
84175W        W57243  30.048  42.104  14.994
84176W        W57244  22.456  21.615   0.519
84177W        W57245  23.483  42.208   1.454
84178W        W57246  38.758  35.457   1.196
84179W        W57247  18.071  19.683  11.540
84180W        W57248   5.619   3.831  12.852
84181W        W57249  28.620  32.893  12.999
84182W        W57250  25.517  26.995  12.486
84183W        W57251  19.544  30.642   0.742
84184W        W57252   6.739  11.268   1.282
84185W        W57253  19.242  38.341   2.771
84186W        W57254  34.324   5.139  14.963
84187W        W57255  31.881  32.385  14.984
84188W        W57256  13.445  22.286  10.962
84189W        W57257  19.506  20.102  14.284
84190W        W57258  31.370  38.360  11.624
84191W        W57259  30.930  10.829  13.894
84192W        W57260  11.346  26.131   2.687
84193W        W57261  44.843  20.179  14.432
84194W        W57262  33.661  35.180   0.891
84195W        W57263  29.056  33.125  13.092
84196W        W57264  30.185   4.930   1.154
84197W        W57265   4.979  35.929   0.789
84198W        W57266  40.844   2.238   4.950
84199W        W57267  30.953   3.994   0.768
84200W        W57268  24.765  24.082  11.644
84201W        W57269  12.028  18.380   4.298
84202W        W57270   0.699   4.317  11.910
84203W        W57271  12.136  44.890  12.408
84204W        W57272   5.791  19.590   1.350
84205W        W57273   3.224   4.194  12.280
84206W        W57274  33.850  33.417   4.720
84207W        W57275  42.016  42.640   2.325
84208W        W57276  37.543  13.079  13.521
84209W        W57277  18.283  26.657  12.462
84210W        W57278  40.836  20.013   3.352
84211W        W57279   3.675   1.212  12.856
84212W        W57280  25.147   4.879   4.570
84213W        W57281  22.943  31.822   2.616
84214W        W57282  32.186  21.108   2.257
84215W        W57283   1.972  34.050  14.455
84216W        W57284  39.831  40.406   3.059
84217W        W57285  39.290   4.573  13.719
84218W        W57286  42.436  34.110  11.107
84219W        W57287  23.227  15.716  12.197
84220W        W57288  38.137  29.665  11.385
84221W        W57289  27.416  41.740   3.709
84222W        W57290  44.700  12.272  10.755
84223W        W57291   6.201   8.285   1.885
84224W        W57292   2.491  14.199   3.627
84225W        W57293  18.841   0.665  10.750
84226W        W57294   8.859  16.998   3.182
84227W        W57295  29.622  37.868  13.797
84228W        W57296  40.524  15.399   4.279
84229W        W57297   5.123  16.537   1.003
84230W        W57298   8.877  42.651  13.313
84231W        W57299  24.645   6.611   2.880
84232W        W57300  13.214  20.020   1.867
84233W        W57301  37.609  24.588  11.953
84234W        W57302  25.540  22.958  12.493
84235W        W57303  10.748   0.037  10.412
84236W        W57304  19.081  28.943  13.864
84237W        W57305   2.957  28.046   1.325
84238W        W57306  19.749   9.377   3.300
84239W        W57307   5.819  38.850   4.409
84240W        W57308  12.828   7.588  10.720
84241W        W57309  28.363  17.213  12.572
84242W        W57310   1.662  19.656   4.513
84243W        W57311  19.539  12.270   3.383
84244W        W57312  27.009  32.387  10.754
84245W        W57313  39.498  31.149   2.300
84246W        W57314  42.826  41.916  12.323
84247W        W57315  33.926  38.795   0.495
84248W        W57316  21.177  11.099  12.160
84249W        W57317  14.464  10.688  14.811
84250W        W57318   1.076  31.842  13.880
84251W        W57319  17.055  42.202  11.737
84252W        W57320  17.627  17.020  11.170
84253W        W57321   1.420  40.506  13.250
84254W        W57322  41.979  36.077  12.389
84255W        W57323  13.069  20.242  12.973
84256W        W57324  32.190  28.904   2.710
84257W        W57325  10.930   6.826  10.534
84258W        W57326  40.216  40.159   5.159
84259W        W57327  41.944  20.447  12.531
84260W        W57328  10.299  36.970  11.885
84261W        W57329  39.949  31.459   4.229
84262W        W57330  16.641  22.935  14.590
84263W        W57331  13.087  40.298  11.106
84264W        W57332  39.901  38.822  11.540
84265W        W57333   9.828   1.216  14.728
84266W        W57334  35.602  42.061  11.114
84267W        W57335  32.498  42.628   1.493
84268W        W57336   5.157   7.759   2.354
84269W        W57337  36.047  19.299   0.253
84270W        W57338  22.536   6.289   2.183
84271W        W57339  43.445   8.594   0.046
84272W        W57340  32.917  25.968   3.639
84273W        W57341  18.044  42.236   3.686
84274W        W57342  25.061  36.144   3.205
84275W        W57343  21.218  36.462   0.828
84276W        W57344  40.115  34.561  13.332
84277W        W57345  17.273  19.620  12.831
84278W        W57346  21.109  30.146   2.199
84279W        W57347   7.797   8.958   2.869
84280W        W57348  23.094  12.870  13.974
84281W        W57349  24.296  42.608  11.912
84282W        W57350  23.450  25.128   4.678
84283W        W57351  32.433  39.471  10.886
84284W        W57352  33.535  10.841  10.750
84285W        W57353  30.096  40.276  10.690
84286W        W57354  17.495  20.544  11.959
84287W        W57355  28.589  34.958  11.176
84288W        W57356   3.805  14.752   0.491
84289W        W57357  15.759  37.882   2.306
84290W        W57358  25.442  10.384   3.380
84291W        W57359  27.173  33.594   3.450
84292W        W57360  20.342   0.529   0.892
84293W        W57361  43.065  30.618  14.854
84294W        W57362  43.562  44.958  12.020
84295W        W57363  18.053  37.948  14.894
84296W        W57364  14.262  43.313   1.423
84297W        W57365  39.978  24.929  14.649
84298W        W57366  14.141   9.785   2.215
84299W        W57367   1.947  30.195   3.071
84300W        W57368  14.230  19.615   1.395
84301W        W57369  44.772   0.818  12.161
84302W        W57370  24.583  26.970   3.172
84303W        W57371  11.071   9.409  12.060
84304W        W57372  25.518  10.413  10.480
84305W        W57373  14.680  29.445   2.105
84306W        W57374  35.732   4.798  10.049
84307W        W57375  33.927  13.351  10.688
84308W        W57376  11.284  35.229   4.104
84309W        W57377  24.558  43.966   4.133
84310W        W57378  34.860   4.775   3.750
84311W        W57379  15.329  35.608  14.061
84312W        W57380  11.274  43.911  10.872
84313W        W57381   5.721  16.099   4.596
84314W        W57382  30.025  22.938   0.761
84315W        W57383  38.278  20.015   2.241
84316W        W57384  13.259  41.909   2.939
84317W        W57385  24.254  42.997  10.362
84318W        W57386  37.998  13.699   0.777
84319W        W57387  32.160  18.143  10.689
84320W        W57388  40.838  28.474   1.382
84321W        W57389  35.935  38.753  12.984
84322W        W57390  34.489  25.767  11.155
84323W        W57391  41.054  26.541  14.792
84324W        W57392   3.849  19.705  13.987
84325W        W57393  43.002  38.002  13.629
84326W        W57394   2.865  27.145  13.434
84327W        W57395   8.179  30.072  10.523
84328W        W57396   1.927  20.134  14.981
84329W        W57397  43.653  29.056   1.387
84330W        W57398  20.223  21.752   2.794
84331W        W57399  41.456  39.961  12.624
84332W        W57400  32.637  15.839  14.220
84333W        W57401  30.924  18.172   0.434
84334W        W57402  38.781  13.611  12.426
84335W        W57403  23.534  40.466  12.809
84336W        W57404  40.369   4.911  13.336
84337W        W57405  18.931  12.923   5.084
84338W        W57406  22.747  44.795  13.560
84339W        W57407   0.650   4.708  11.082
84340W        W57408   6.187  23.892   1.392
84341W        W57409  29.689   3.373   4.738
84342W        W57410  15.750  17.566  14.280
84343W        W57411  14.637  13.142   4.155
84344W        W57412  17.663   1.294   4.080
84345W        W57413  11.607   9.682   1.975
84346W        W57414  13.048   6.180  13.476
84347W        W57415   5.898  37.896  10.897
84348W        W57416   2.433   9.037  13.507
84349W        W57417  31.621  34.920   0.310
84350W        W57418  37.551  18.584   2.313
84351W        W57419  30.442   9.325   1.906
84352W        W57420  44.225   7.205   4.617
84353W        W57421  30.427  29.550  12.537
84354W        W57422  42.024  29.588  13.546
84355W        W57423  20.638  39.449   1.753
84356W        W57424  23.188  41.529   0.672
84357W        W57425  36.852   7.340   1.882
84358W        W57426   9.609  30.455  14.501
84359W        W57427  42.855  18.844   0.753
84360W        W57428   1.776  24.137  12.145
84361W        W57429  10.442  11.610   4.141
84362W        W57430  29.839  15.237  11.159
84363W        W57431  15.363  13.928   2.819
84364W        W57432  20.721  21.193  10.624
84365W        W57433   0.006  12.587  11.119
84366W        W57434  19.136  26.134   0.746
84367W        W57435  36.441  23.131   4.422
84368W        W57436  32.015   4.455  12.450
84369W        W57437  14.845  27.755   3.931
84370W        W57438  13.150  18.812  10.586
84371W        W57439  29.061  27.538  13.441
84372W        W57440  41.968  40.594  12.422
84373W        W57441  41.754  19.323  10.724
84374W        W57442   7.404  19.249  14.009
84375W        W57443  41.982   5.184  11.181
84376W        W57444  31.170  42.078   1.390
84377W        W57445  35.351  24.135  11.008
84378W        W57446  41.307  44.872  11.064
84379W        W57447   3.195  19.321  12.448
84380W        W57448  16.393  22.737   0.323
84381W        W57449  16.286  44.252  12.417
84382W        W57450   5.665  37.482   4.696
84383W        W57451   3.807  13.666   1.447
84384W        W57452  26.053   5.723   1.882
84385W        W57453  28.605  35.465   0.459
84386W        W57454  20.550  23.870   0.914
84387W        W57455   4.360  27.465  11.943
84388W        W57456   9.911  37.117   2.431
84389W        W57457  17.778  21.496   4.605
84390W        W57458   6.045  42.857   0.050
84391W        W57459  28.028  36.342   1.443
84392W        W57460  11.787  34.033  12.939
84393W        W57461  21.190  29.046  10.286
84394W        W57462  30.584  14.186  13.951
84395W        W57463  43.301  12.776   2.835
84396W        W57464  15.585  41.726  11.585
84397W        W57465  28.295  24.387   4.049
84398W        W57466  28.915   4.788   0.486
84399W        W57467  35.813  38.979  14.083
84400W        W57468  11.784  15.604   1.317
84401W        W57469  28.674   0.524   4.204
84402W        W57470  36.620  13.301   3.291
84403W        W57471   0.467   3.466   1.217
84404W        W57472  30.999  19.687   3.401
84405W        W57473  23.992   5.916   4.375
84406W        W57474  40.882   0.925   3.733
84407W        W57475  27.474   0.278   2.589
84408W        W57476  15.236  28.476   4.371
84409W        W57477  19.044  18.476   1.550
84410W        W57478  12.702   7.387   4.774
84411W        W57479  20.690  11.676   0.743
84412W        W57480  16.845  23.807   4.682
84413W        W57481   4.051  32.435   1.390
84414W        W57482  31.959  28.905   1.438
84415W        W57483  21.184  20.075  12.462
84416W        W57484  40.070  12.038  13.916
84417W        W57485  36.079   9.625  12.447
84418W        W57486  16.503   7.686   1.466
84419W        W57487  30.623  17.208  12.059
84420W        W57488  34.348  21.679   1.312
84421W        W57489  21.570  18.995   4.643
84422W        W57490  21.814  39.067  10.766
84423W        W57491   3.601  44.553   1.574
84424W        W57492  12.152   6.915  13.810
84425W        W57493  22.702  18.647  11.467
84426W        W57494  28.540  11.481  14.113
84427W        W57495   8.254  31.002   2.642
84428W        W57496   1.761   4.279  14.097
84429W        W57497  33.020  16.530  12.741
84430W        W57498  10.851  25.493   3.764
84431W        W57499  37.043  14.218  11.192
84432W        W57500   5.458   6.396  13.715
84433W        W57501   0.220  27.198  14.389
84434W        W57502  27.496  21.223  13.058
84435W        W57503  10.745  23.425  11.071
84436W        W57504  23.649  38.336   1.823
84437W        W57505   2.398  36.832  12.429
84438W        W57506   1.318  30.833  14.388
84439W        W57507  38.016   9.049   3.164
84440W        W57508   4.400  41.464  11.174
84441W        W57509  43.969  18.852   3.122
84442W        W57510  12.289  42.029  13.511
84443W        W57511  20.209   1.788   0.376
84444W        W57512  37.328   0.538   4.437
84445W        W57513  13.681   9.721   1.959
84446W        W57514  29.581  10.148   1.497
84447W        W57515  31.493  22.526  10.410
84448W        W57516   6.893  17.594   1.679
84449W        W57517   2.772  20.535  12.128
84450W        W57518  27.624  39.310  11.166
84451W        W57519  22.945  17.114  11.993
84452W        W57520  15.342  32.941  11.669
84453W        W57521  31.911  26.456   0.249
84454W        W57522  37.009  10.997   1.059
84455W        W57523  42.043  28.066   2.091
84456W        W57524  18.975  10.873   1.475
84457W        W57525   4.787  22.341   0.886
84458W        W57526  22.727  24.206   1.863
84459W        W57527   1.476  27.173  14.423
84460W        W57528  38.099  44.998   3.353
84461W        W57529  30.724   5.375  12.315
84462W        W57530  32.971  23.449   0.001
84463W        W57531  38.948  19.180   3.839
84464W        W57532  28.593   1.680   3.724
84465W        W57533  43.047   1.983  12.433
84466W        W57534  14.737  40.912  13.905
84467W        W57535  36.470  34.877  12.923
84468W        W57536   9.889  22.614  11.840
84469W        W57537  17.752   4.270   3.824
84470W        W57538  32.422  31.560   1.661
84471W        W57539   6.454  38.508  11.930
84472W        W57540  15.696  27.816   3.689
84473W        W57541   4.780  14.156  13.499
84474W        W57542  11.848  24.992   4.747
84475W        W57543  30.553  27.779   1.230
84476W        W57544  34.633  13.864  13.833
84477W        W57545  28.371   0.082  14.903
84478W        W57546  40.413  30.124   2.289
84479W        W57547  41.553  28.407   0.746
84480W        W57548  20.257   6.383  11.890
84481W        W57549   3.662  25.069  14.301
84482W        W57550  42.509  16.001   2.806
84483W        W57551  30.492  27.362   0.762
84484W        W57552  41.677   4.702   3.106
84485W        W57553   6.136   0.797  10.699
84486W        W57554  23.124   3.376   2.742
84487W        W57555  17.297  12.722   4.206
84488W        W57556  24.027  38.038  12.921
84489W        W57557   3.772  35.111  14.022
84490W        W57558  16.721  25.528   2.854
84491W        W57559   4.718  42.233  11.041
84492W        W57560   6.186  17.261  11.415
84493W        W57561   9.712  40.984   3.141
84494W        W57562  31.034  31.383  13.989
84495W        W57563  30.612  19.879  13.695
84496W        W57564   5.985  21.349  11.041
84497W        W57565   8.034   5.295  12.136
84498W        W57566  18.612  24.676  13.196
84499W        W57567   8.021  32.862   0.749
84500W        W57568  13.770  38.240   0.710
84501W        W57569  16.640  17.641  11.505
84502W        W57570  21.456  39.073   4.326
84503W        W57571  31.625   3.927  13.075
84504W        W57572  15.214  10.383   4.098
84505W        W57573   0.517  38.980  10.556
84506W        W57574  41.137  18.769   4.276
84507W        W57575  25.066  23.295  14.667
84508W        W57576  43.575  26.978   4.227
84509W        W57577  20.504  43.803   1.228
84510W        W57578   7.740  36.844   1.855
84511W        W57579  24.843  16.333   4.304
84512W        W57580  16.704  42.338   2.675
84513W        W57581  40.835   9.904  12.446
84514W        W57582  29.756  15.452   0.349
84515W        W57583   5.170   0.091  10.781
84516W        W57584  22.063  27.074   2.434
84517W        W57585   0.950   2.252   3.755
84518W        W57586   1.224   3.497  12.437
84519W        W57587  44.904  23.060   0.019
84520W        W57588  28.789   5.170  10.668
84521W        W57589  12.988  10.430   2.693
84522W        W57590  33.075   8.157  10.860
84523W        W57591   3.711  27.655   4.626
84524W        W57592  33.179  12.857  11.586
84525W        W57593  12.337  36.056  13.348
84526W        W57594  39.500  19.994   3.660
84527W        W57595   7.876  32.634  10.803
84528W        W57596  20.530  14.794  14.805
84529W        W57597  23.030   4.849  14.949
84530W        W57598  44.740  34.626   0.852
84531W        W57599  12.633  28.088   2.830
84532W        W57600   7.444   7.674   2.819
84533W        W57601   5.155  14.196   2.165
84534W        W57602  40.743  30.587   4.823
84535W        W57603  29.708  21.534  13.221
84536W        W57604  37.947  34.844   3.393
84537W        W57605  10.668   6.577   0.467
84538W        W57606  41.545  35.621  12.491
84539W        W57607   1.758  15.098  14.930
84540W        W57608  11.868  34.873   0.354
84541W        W57609  43.948  16.669  10.989
84542W        W57610   9.296  13.998  10.924
84543W        W57611   6.002  42.249   3.565
84544W        W57612  11.761  15.893  13.976
84545W        W57613  27.677   0.255  11.953
84546W        W57614  43.295   2.955   4.174
84547W        W57615   5.117  31.409   1.228
84548W        W57616  17.148  12.580  14.549
84549W        W57617   5.870   4.444   3.545
84550W        W57618  39.777  35.428   2.277
84551W        W57619  36.808  31.830  14.321
84552W        W57620  12.287   4.657  14.382
84553W        W57621   9.760  25.983   1.914
84554W        W57622  12.329  39.362  10.773
84555W        W57623   8.080  21.621   4.101
84556W        W57624  30.737  26.973   4.159
84557W        W57625   6.180  42.985   2.246
84558W        W57626  40.331  13.110  11.054
84559W        W57627  12.421  17.733   3.311
84560W        W57628  38.305  16.130   1.276
84561W        W57629  13.614   8.354   4.611
84562W        W57630  25.069   2.255   1.896
84563W        W57631  44.024  14.226   1.958
84564W        W57632  21.332  16.087  13.930
84565W        W57633   9.659  19.796   3.526
84566W        W57634  28.234  40.874  11.669
84567W        W57635  11.705  40.398   0.734
84568W        W57636  41.283  23.633   3.736
84569W        W57637  14.268  17.117  10.687
84570W        W57638   0.329  10.854   0.765
84571W        W57639  24.012  26.149  11.965
84572W        W57640  32.416   3.925   3.297
84573W        W57641   2.123  37.547   2.382
84574W        W57642   3.481  28.871   2.837
84575W        W57643  20.312  44.525  10.662
84576W        W57644  23.887   0.992   3.814
84577W        W57645  16.386  21.987   3.241
84578W        W57646  40.840  29.670  11.586
84579W        W57647   8.156  34.437   1.608
84580W        W57648  22.292  35.589  12.910
84581W        W57649   9.765  19.970   1.107
84582W        W57650  15.845   1.775   0.052
84583W        W57651   9.186   2.334   0.603
84584W        W57652  27.697  36.047   2.863
84585W        W57653  40.599   7.421  14.267
84586W        W57654   2.355  18.785  11.571
84587W        W57655  27.704   6.429  13.434
84588W        W57656  13.300  29.926  14.105
84589W        W57657  26.203  21.075   1.347
84590W        W57658  19.271  15.498   1.638
84591W        W57659  39.521   3.725  12.866
84592W        W57660   6.891   0.580   0.025
84593W        W57661   8.656  12.953  12.186
84594W        W57662  36.101   1.267  12.438
84595W        W57663  16.518   1.775  11.654
84596W        W57664  37.314  40.000   0.869
84597W        W57665  10.943  31.587   2.757
84598W        W57666  34.369   2.699   4.186
84599W        W57667   4.561  39.954  10.339
84600W        W57668  41.286  14.622   3.600
84601W        W57669  23.505  29.494  11.989
84602W        W57670  43.317  25.937   1.305
84603W        W57671  20.604  18.558   4.931
84604W        W57672   5.575  41.496  10.625
84605W        W57673   0.877  27.529  13.362
84606W        W57674  21.254  37.880  14.678
84607W        W57675  30.483  12.755   4.626
84608W        W57676  22.967  23.055   1.029
84609W        W57677  19.037  35.386   4.695
84610W        W57678  16.709  10.549  13.444
84611W        W57679  28.936  38.879  11.559
84612W        W57680   9.693  14.246   0.472
84613W        W57681  37.233   8.201   2.732
84614W        W57682  42.234  32.775  13.030
84615W        W57683  42.507  34.236   1.451
84616W        W57684  35.752  20.317   2.224
84617W        W57685  18.022   2.764   2.878
84618W        W57686  12.119  30.624   0.962
84619W        W57687  28.675  26.637   2.807
84620W        W57688   5.730  24.381  13.999
84621W        W57689  29.505  22.032  13.304
84622W        W57690   2.307  37.458  12.641
84623W        W57691  36.189  44.024  11.032
84624W        W57692  13.448   9.210  13.317
84625W        W57693  14.259  24.150   2.807
84626W        W57694   2.724  22.422  11.951
84627W        W57695  23.223  15.063   0.792
84628W        W57696  19.021   6.153   0.288
84629W        W57697  38.021  18.531   2.526
84630W        W57698  37.125   6.463   2.145
84631W        W57699  15.208  21.543  13.477
84632W        W57700  19.599   8.340   0.462
84633W        W57701  40.876  13.935  12.076
84634W        W57702   3.957   8.681  12.047
84635W        W57703  29.734  32.940  14.536
84636W        W57704   6.741   3.851   0.622
84637W        W57705  13.737   3.020  11.923
84638W        W57706  29.656   3.196  11.196
84639W        W57707  17.248  34.478  11.240
84640W        W57708  21.484  22.973   2.366
84641W        W57709  15.198  42.227   2.450
84642W        W57710  24.639  11.332  10.597
84643W        W57711  44.070  32.853  12.490
84644W        W57712  36.817  42.231  11.637
84645W        W57713  34.565  25.061  14.549
84646W        W57714  29.006  39.836   0.201
84647W        W57715   9.859  39.811  13.743
84648W        W57716  23.013   4.423   0.877
84649W        W57717  43.774  12.981   0.393
84650W        W57718  19.544  13.555   3.157
84651W        W57719  25.991  30.138   1.281
84652W        W57720  21.262  29.453  11.201
84653W        W57721  13.114  21.716   2.775
84654W        W57722  31.405  25.547  10.672
84655W        W57723   0.572  25.781  12.386
84656W        W57724  20.688  12.314   1.401
84657W        W57725  44.256   1.580   9.800
84658W        W57726  40.653  12.909   1.976
84659W        W57727  25.727  36.468   2.681
84660W        W57728  22.187  38.158  12.587
84661W        W57729  20.737  37.577  10.594
84662W        W57730  22.149  40.806  11.999
84663W        W57731  34.227  23.620   0.239
84664W        W57732  41.058  28.293  14.271
84665W        W57733   8.782   8.037   3.289
84666W        W57734  27.179   4.023   2.394
84667W        W57735  24.403  34.492  13.334
84668W        W57736  17.581   0.961   4.489
84669W        W57737  39.932   7.978  10.192
84670W        W57738  29.622   9.754  13.611
84671W        W57739  40.862  21.820   1.213
84672W        W57740  44.790  40.986   1.338
84673W        W57741   1.367  34.545  14.337
84674W        W57742  20.819  35.451   1.349
84675W        W57743  24.631  35.513   1.395
84676W        W57744  27.473  39.812   1.753
84677W        W57745  29.113   7.879   1.704
84678W        W57746  43.573  15.982  10.774
84679W        W57747  12.869  30.934   1.502
84680W        W57748  31.694  35.010   4.140
84681W        W57749  38.928  39.406  14.107
84682W        W57750   1.437  43.991  12.277
84683W        W57751  37.773  40.876  10.616
84684W        W57752  31.162   8.211   2.023
84685W        W57753   8.814  13.234   3.898
84686W        W57754  11.284   7.862   0.033
84687W        W57755  41.265  19.020  11.401
84688W        W57756   4.411  27.540  11.400
84689W        W57757  32.619  20.505  12.397
84690W        W57758  27.077   2.841  10.940
84691W        W57759  12.792  12.758   4.311
84692W        W57760  13.074  28.045   9.847
84693W        W57761   4.974   1.239   4.992
84694W        W57762  33.920  30.112  11.154
84695W        W57763  16.010   4.388   3.431
84696W        W57764   6.323  38.862   3.576
84697W        W57765   1.008  13.979   4.188
84698W        W57766   0.398  23.628   4.574
84699W        W57767  16.050  39.428  14.742
84700W        W57768   7.360   4.827  14.056
84701W        W57769  25.630   2.745  13.522
84702W        W57770  13.831   0.416   0.396
84703W        W57771  41.437  39.986  11.623
84704W        W57772   0.851  10.079  13.088
84705W        W57773  13.233   9.236   0.065
84706W        W57774  21.711  42.020  15.000
84707W        W57775  29.579  11.150   4.177
84708W        W57776  17.296  36.802  13.916
84709W        W57777  31.225  28.513  11.230
84710W        W57778  20.586  37.312   1.561
84711W        W57779  14.379  30.436   3.279
84712W        W57780  16.805  42.497  11.405
84713W        W57781  21.605  33.101  14.982
84714W        W57782  21.623  13.865   3.725
84715W        W57783   4.371  14.063  14.819
84716W        W57784  15.289  37.316  11.013
84717W        W57785   8.311  31.775  11.174
84718W        W57786  31.822  25.060  12.583
84719W        W57787  37.337   5.661  12.666
84720W        W57788  31.537   6.948   2.369
84721W        W57789  17.153   3.231  10.542
84722W        W57790   8.211  13.555  14.425
84723W        W57791   2.413  33.262   3.259
84724W        W57792   7.899  20.861  13.131
84725W        W57793  12.548  39.092  11.162
84726W        W57794  36.794  29.891   3.509
84727W        W57795  35.996  33.538   2.475
84728W        W57796  33.904  33.292  14.838
84729W        W57797   0.426  38.812  11.024
84730W        W57798  19.605  29.627   3.552
84731W        W57799   8.610  10.318   4.538
84732W        W57800  18.082  27.475   0.800
84733W        W57801  18.658   0.943  13.861
84734W        W57802   4.645  40.534   4.503
84735W        W57803  31.831   7.810   1.836
84736W        W57804  40.573  36.541   2.842
84737W        W57805   0.843   9.907  10.059
84738W        W57806  35.677  12.179  11.518
84739W        W57807  14.395   5.348   0.125
84740W        W57808  28.584  32.059  13.865
84741W        W57809  16.788   5.775   0.699
84742W        W57810  25.146  24.076   0.760
84743W        W57811   5.381   5.474  14.003
84744W        W57812  13.058  11.921   3.223
84745W        W57813   2.766  43.463  11.679
84746W        W57814  15.396   0.528   4.203
84747W        W57815  21.720   1.966   0.770
84748W        W57816  38.789  43.318   3.731
84749W        W57817  44.542  18.636   0.240
84750W        W57818  34.632   7.262  13.543
84751W        W57819   7.194  18.032   4.668
84752W        W57820  12.686  36.363  14.328
84753W        W57821  35.389  21.252  13.569
84754W        W57822   9.669  15.618   1.727
84755W        W57823  31.042  37.440  11.267
84756W        W57824  35.816  18.696  12.746
84757W        W57825  27.919  11.565  14.984
84758W        W57826  13.340  25.152  12.106
84759W        W57827  10.852  23.422  11.873
84760W        W57828  20.271  27.972  12.246
84761W        W57829  25.063   1.546   0.424
84762W        W57830  39.930   9.786   0.801
84763W        W57831  28.154  10.442  10.867
84764W        W57832  39.882   5.199   1.195
84765W        W57833  35.401   6.893   0.973
84766W        W57834  18.301   2.315   3.147
84767W        W57835   1.542  13.770  12.380
84768W        W57836  44.923  18.772  13.319
84769W        W57837   1.989  17.211  14.449
84770W        W57838   7.659  22.613   1.413
84771W        W57839  14.345  26.115   1.828
84772W        W57840  19.006  19.752   2.904
84773W        W57841  24.484  30.703   3.299
84774W        W57842  10.679  10.862  12.026
84775W        W57843   4.982  12.401   2.816
84776W        W57844  27.980   5.840   0.048
84777W        W57845   0.822  26.707  12.379
84778W        W57846   8.781   3.264  12.992
84779W        W57847  29.657  30.217  11.097
84780W        W57848  28.623  32.514  14.634
84781W        W57849  11.396  31.010  10.704
84782W        W57850  40.340   6.263   4.797
84783W        W57851   5.304  18.698  11.881
84784W        W57852  11.700   5.726  13.322
84785W        W57853  27.972  32.079  10.673
84786W        W57854  38.862  38.333   3.786
84787W        W57855   4.999   2.882  10.792
84788W        W57856  20.202  36.296   3.220
84789W        W57857  25.996  12.269  12.973
84790W        W57858  32.360  30.153  12.255
84791W        W57859  39.728  16.214  14.019
84792W        W57860  17.049  38.354  10.437
84793W        W57861  31.502  18.735  13.350
84794W        W57862   3.932  20.718   4.147
84795W        W57863  38.741   4.544   1.287
84796W        W57864  29.068  21.457   3.154
84797W        W57865  37.491  24.172  13.674
84798W        W57866   0.424   4.224   3.450
84799W        W57867  42.007  33.007   2.618
84800W        W57868  35.011  28.487  12.029
84801W        W57869  37.410  26.926   2.342
84802W        W57870  41.222  28.635   2.649
84803W        W57871   4.771  19.364  12.918
84804W        W57872  33.080  18.010  13.024
84805W        W57873  32.147   4.936   2.353
84806W        W57874  25.135  36.126  12.449
84807W        W57875  13.110  25.516   3.043
84808W        W57876  12.877  28.527  10.677
84809W        W57877  40.682  26.807   1.762
84810W        W57878  13.564  44.361   4.557
84811W        W57879  34.821   5.456   1.800
84812W        W57880   5.910   9.897  10.561
84813W        W57881   1.404  25.718   0.348
84814W        W57882  30.627  21.234   0.497
84815W        W57883  12.622  22.756   0.919
84816W        W57884  16.785   1.009   2.250
84817W        W57885  39.788  30.548   1.711
84818W        W57886  20.391  43.889   0.313
84819W        W57887  10.894  44.291   1.416
84820W        W57888   4.472  12.399  11.628
84821W        W57889   4.253  40.328  13.827
84822W        W57890  17.181  10.465  13.229
84823W        W57891  38.431  11.138   3.851
84824W        W57892  19.966  30.652  10.964
84825W        W57893   3.289  32.583  13.844
84826W        W57894  29.810  27.019   2.167
84827W        W57895  23.085   4.839   4.717
84828W        W57896   9.660  39.808  13.264
84829W        W57897  18.293  21.153  12.866
84830W        W57898  11.851   1.191   1.311
84831W        W57899   0.266   4.753   3.599
84832W        W57900  22.646   1.073   2.652
84833W        W57901   9.497  37.774  11.510
84834W        W57902  17.907  37.312   1.255
84835W        W57903  31.696   1.394  14.485
84836W        W57904  20.509  30.079  12.461
84837W        W57905  21.954  10.667  13.437
84838W        W57906  24.951  21.712  10.714
84839W        W57907   7.773   1.685  10.227
84840W        W57908   5.290  17.230  10.382
84841W        W57909   3.216  28.935  14.855
84842W        W57910  41.946  20.305   0.257
84843W        W57911   1.423  10.782  11.165
84844W        W57912  35.366  27.098  13.042
84845W        W57913  11.895  26.195  13.920
84846W        W57914  38.485  42.035  12.880
84847W        W57915  22.486   3.774   1.372
84848W        W57916  19.059  10.895  12.286
84849W        W57917   3.901  26.696   4.973
84850W        W57918  11.680  11.329   3.695
84851W        W57919  25.156   2.978  12.399
84852W        W57920  22.739  17.706  13.834
84853W        W57921   6.744  41.449  13.738
84854W        W57922  13.353  19.312   3.830
84855W        W57923  18.703  30.053   4.684
84856W        W57924  12.866   3.923   0.407
84857W        W57925  39.848   4.010   4.875
84858W        W57926   8.323   0.504   1.782
84859W        W57927  16.274   7.957  11.614
84860W        W57928  22.907  20.134  14.757
84861W        W57929  10.476  13.811   4.650
84862W        W57930  41.027  10.680  11.510
84863W        W57931  41.081   8.226   3.187
84864W        W57932  37.959   2.686  14.683
84865W        W57933  36.903  19.835  10.760
84866W        W57934  38.829  10.030   4.992
84867W        W57935  12.127  37.285   0.796
84868W        W57936  41.052  21.731   1.674
84869W        W57937   6.236   0.538  13.948
84870W        W57938  18.384  18.943  11.082
84871W        W57939  31.378  13.670   3.240
84872W        W57940  14.798  33.526  13.470
84873W        W57941  31.932  17.138  10.633
84874W        W57942   2.875  37.909  11.547
84875W        W57943   1.613  32.592   4.110
84876W        W57944   7.168  29.616  13.961
84877W        W57945  16.247  32.173   3.557
84878W        W57946  16.819  21.079  11.489
84879W        W57947  13.682  34.970   4.186
84880W        W57948   8.873  43.891  13.941
84881W        W57949  11.126  10.294  10.551
84882W        W57950  17.071  10.786  11.497
84883W        W57951   5.327  40.016  14.760
84884W        W57952  43.789  36.886  14.101
84885W        W57953  24.611   8.891   2.174
84886W        W57954   3.386  41.497  10.599
84887W        W57955  20.984   7.442   3.991
84888W        W57956  33.394  31.410   0.284
84889W        W57957  30.263  32.930   2.735
84890W        W57958  19.642  33.914  14.754
84891W        W57959  22.999  20.569   1.931
84892W        W57960  32.530   7.103  12.899
84893W        W57961  22.062  21.441  14.726
84894W        W57962   9.433  39.289  14.591
84895W        W57963  32.761  44.192  10.945
84896W        W57964  11.688  37.272   2.807
84897W        W57965  22.120  31.015   0.777
84898W        W57966  21.768   5.808   3.709
84899W        W57967  13.855   6.262   0.223
84900W        W57968  12.239  26.517   3.204
84901W        W57969  41.925  35.764   2.729
84902W        W57970  13.335  34.583  13.616
84903W        W57971  17.185  35.765   1.848
84904W        W57972   0.324  19.948   0.929
84905W        W57973  27.070  27.659  10.672
84906W        W57974  31.606  35.555  10.300
84907W        W57975  39.564  16.508  14.427
84908W        W57976  40.007  21.559   3.152
84909W        W57977   3.353   9.406  11.552
84910W        W57978  24.867  30.110  11.983
84911W        W57979  28.201  14.656   0.439
84912W        W57980  38.793   6.843   1.367
84913W        W57981  36.062   1.045   3.164
84914W        W57982  15.955   3.915   3.651
84915W        W57983   8.572  44.596  14.897
84916W        W57984  26.052  39.397   2.666
84917W        W57985  16.010  42.041  11.533
84918W        W57986   7.737  13.649   1.698
84919W        W57987   4.776  34.763   4.190
84920W        W57988  20.184   9.287   4.531
84921W        W57989  11.713  25.728   4.262
84922W        W57990  19.099  32.014   1.721
84923W        W57991   8.145  21.508  12.377
84924W        W57992  32.612   2.482   4.147
84925W        W57993  33.953   3.725   1.843
84926W        W57994  39.810  20.988  11.623
84927W        W57995  24.064  39.552   2.723
84928W        W57996  20.037   1.045  12.544
84929W        W57997  38.254   3.664   2.284
84930W        W57998  37.398   8.274   1.053
84931W        W57999  22.068  14.341   4.125
84932W        W58000  38.809   5.896  13.546
84933W        W58001  12.377  39.875   3.659
84934W        W58002  31.046  44.701  13.857
84935W        W58003  43.960   9.823   0.244
84936W        W58004  32.855  22.943  14.926
84937W        W58005   6.400  23.558   1.991
84938W        W58006  44.952  15.163   4.410
84939W        W58007  28.929  31.513  12.125
84940W        W58008  37.100   0.659   0.470
84941W        W58009  32.968  20.690   2.870
84942W        W58010  41.520  27.479  13.563
84943W        W58011  19.112  34.774  10.986
84944W        W58012  20.525  43.951   2.591
84945W        W58013  24.208   3.508   3.391
84946W        W58014  27.702  26.460   1.867
84947W        W58015  25.916  31.531   0.960
84948W        W58016  39.895  15.874   4.484
84949W        W58017  27.148  23.283  14.281
84950W        W58018  21.620  27.641   3.353
84951W        W58019  12.160  32.407   4.533
84952W        W58020  14.093  11.675  13.559
84953W        W58021  21.448  31.833   3.658
84954W        W58022  44.950  25.591  14.705
84955W        W58023  26.633  30.367   3.763
84956W        W58024  44.908  26.013   3.159
84957W        W58025   5.293   0.703   4.172
84958W        W58026  38.107  12.307   2.771
84959W        W58027  23.273   7.365   0.887
84960W        W58028  23.632  41.449  12.858
84961W        W58029  31.837   7.910  12.648
84962W        W58030  41.016   1.801   2.399
84963W        W58031  23.110   1.260   2.828
84964W        W58032   0.802  22.827   2.338
84965W        W58033  37.895  21.756   4.651
84966W        W58034  29.422  13.713  10.648
84967W        W58035   1.499  38.774   3.329
84968W        W58036  11.989  30.715  11.273
84969W        W58037  34.101  41.974   0.733
84970W        W58038  34.405  18.594  11.442
84971W        W58039  34.533  19.079  12.505
84972W        W58040   4.775  12.568  10.732
84973W        W58041  37.961  26.661   2.430
84974W        W58042  31.190  18.309  13.298
84975W        W58043  33.462  41.347   4.241
84976W        W58044  37.098  37.775  13.566
84977W        W58045  19.692  16.018  10.751
84978W        W58046  44.324  34.765  14.239
84979W        W58047  27.555  31.866   4.929
84980W        W58048  35.515  42.719   1.764
84981W        W58049  34.055   6.995  14.611
84982W        W58050  29.908  30.977  13.388
84983W        W58051  18.206  34.650  13.447
84984W        W58052  39.673   0.999  14.354
84985W        W58053  22.726   9.310   3.403
84986W        W58054  18.266  40.398  12.111
84987W        W58055  21.282  18.814  14.105
84988W        W58056   6.750  32.682  12.034
84989W        W58057  38.503   2.371  11.456
84990W        W58058  15.327  34.484  13.446
84991W        W58059  20.780  23.773  11.032
84992W        W58060  23.074  39.400  13.387
84993W        W58061   0.462   1.866  13.063
84994W        W58062   8.323  32.669  14.420
84995W        W58063  39.781  33.658  14.945
84996W        W58064   8.124  33.149   0.286
84997W        W58065  14.112   6.372   3.744
84998W        W58066  12.380   4.358  13.331
84999W        W58067  16.921  44.458  10.777
85000W        W58068  35.839  30.111   0.788
85001W        W58069  32.580  11.175  10.054
85002W        W58070  43.854  17.763  12.491
85003W        W58071  21.409   8.727   4.326
85004W        W58072   8.227  42.356   0.474
85005W        W58073  23.170  34.884  10.539
85006W        W58074  29.507  32.465   2.594
85007W        W58075   9.384  16.093  14.301
85008W        W58076  31.763  32.898   0.453
85009W        W58077   9.774  13.832   1.716
85010W        W58078  17.053   3.188   2.287
85011W        W58079  21.474  38.825   1.930
85012W        W58080  24.570  44.847  10.366
85013W        W58081  26.973  24.565   0.901
85014W        W58082  13.378   3.136  13.844
85015W        W58083   9.236  42.982   0.719
85016W        W58084  11.849   8.628   0.254
85017W        W58085  26.924  37.060  11.157
85018W        W58086  31.906   7.078   0.764
85019W        W58087   7.651  35.039  11.662
85020W        W58088  32.004   7.112   2.233
85021W        W58089  22.189  19.150  14.397
85022W        W58090   3.687   3.839  11.126
85023W        W58091  16.384  35.019   4.165
85024W        W58092  34.354  35.825  10.772
85025W        W58093  24.189  13.139  13.435
85026W        W58094  40.952  14.207  10.422
85027W        W58095   8.282  29.606  14.314
85028W        W58096   7.863  34.142   3.840
85029W        W58097  36.982  40.448   1.954
85030W        W58098  13.360  35.063  10.917
85031W        W58099   9.936  20.387  14.286
85032W        W58100  21.134  16.554  11.766
85033W        W58101   1.215  38.402   3.558
85034W        W58102  34.925  17.332   1.301
85035W        W58103  44.535  42.767   2.465
85036W        W58104   2.001  42.632   2.757
85037W        W58105   0.812  26.658  13.941
85038W        W58106  44.442  22.469   0.773
85039W        W58107  18.782  29.019   1.298
85040W        W58108  20.211  41.485  14.476
85041W        W58109  19.462  27.172  14.480
85042W        W58110   1.004  17.783  14.298
85043W        W58111  10.184  16.088  12.580
85044W        W58112   3.330  33.694   4.779
85045W        W58113  41.079  31.445  12.017
85046W        W58114   1.743  18.172  11.538
85047W        W58115   7.265  18.761  12.068
85048W        W58116  42.609   5.202   4.185
85049W        W58117  11.188   1.469   3.218
85050W        W58118  25.575  21.550   3.587
85051W        W58119  16.791   5.490   4.778
85052W        W58120  42.003  36.262   2.676
85053W        W58121  15.694   9.662  12.432
85054W        W58122  36.676  22.491  14.910
85055W        W58123   9.674  22.492  12.286
85056W        W58124  33.990   7.775  13.835
85057W        W58125  14.317  36.868   4.317
85058W        W58126   2.993  33.128  11.598
85059W        W58127  34.488  15.564   3.859
85060W        W58128  25.521  44.792   1.224
85061W        W58129  16.539  26.968  14.386
85062W        W58130  42.265  21.358   1.145
85063W        W58131   0.887  18.600  12.045
85064W        W58132  29.039   5.880   4.114
85065W        W58133  27.062   9.816   4.527
85066W        W58134  21.690  21.780   4.242
85067W        W58135  19.627  37.992   2.769
85068W        W58136  14.889   3.652  11.501
85069W        W58137  11.474   4.915  12.572
85070W        W58138  10.264  15.799   4.661
85071W        W58139   4.710  11.735  12.548
85072W        W58140   2.347   8.286   0.388
85073W        W58141  29.388  21.217   0.286
85074W        W58142  17.063  23.207  12.089
85075W        W58143  27.098  34.263  11.091
85076W        W58144   9.478   7.345  14.450
85077W        W58145  27.076  36.970   4.062
85078W        W58146   7.011   3.725  10.959
85079W        W58147  12.793  20.008   4.262
85080W        W58148  33.417   8.210  11.885
85081W        W58149  41.780   5.777  14.666
85082W        W58150  10.193  33.888  13.915
85083W        W58151   3.261   2.248  13.982
85084W        W58152  33.773  20.459   3.941
85085W        W58153  10.599   5.934   2.236
85086W        W58154  32.078  11.154   3.568
85087W        W58155  19.047  10.296  10.233
85088W        W58156   8.731  31.535   3.130
85089W        W58157   5.269  44.105  10.602
85090W        W58158   3.951  12.410  13.485
85091W        W58159  22.422  30.459   2.303
85092W        W58160  11.102   8.663   4.116
85093W        W58161  39.014   8.574  12.497
85094W        W58162  21.050  28.993  14.086
85095W        W58163  40.877   7.352   5.222
85096W        W58164  40.586  39.775  14.421
85097W        W58165  11.372  35.033  13.512
85098W        W58166  16.269  25.141  14.891
85099W        W58167  11.213  21.157   2.184
85100W        W58168  17.823  15.822  14.317
85101W        W58169  30.453  37.949   4.622
85102W        W58170  14.858  26.332   1.182
85103W        W58171   3.026  25.762   1.596
85104W        W58172  20.626  27.100   4.717
85105W        W58173   1.042  17.959   0.805
85106W        W58174  26.406  29.682   1.851
85107W        W58175  14.325  13.107   3.224
85108W        W58176  42.527  18.524  13.384
85109W        W58177  22.060   5.256  14.272
85110W        W58178   0.634  36.837  11.596
85111W        W58179  41.547  26.263  13.572
85112W        W58180   2.748   8.360   4.229
85113W        W58181  41.481  42.319  13.031
85114W        W58182  13.384  29.182   3.751
85115W        W58183   7.692   0.006   0.283
85116W        W58184  22.751  27.269   0.030
85117W        W58185  44.299  41.317   2.893
85118W        W58186  41.054  20.328  13.253
85119W        W58187  33.163  11.374   2.229
85120W        W58188  24.609  36.389  10.672
85121W        W58189   2.237   7.827  13.980
85122W        W58190   3.213  36.561   0.187
85123W        W58191  18.180  42.348  14.549
85124W        W58192   9.896  26.256  10.334
85125W        W58193  20.279  23.750   3.775
85126W        W58194  22.061  20.655   1.943
85127W        W58195  27.097  22.044   4.646
85128W        W58196  41.946  14.793  14.989
85129W        W58197  40.353  35.174   2.709
85130W        W58198  35.143  32.484  13.526
85131W        W58199  11.350  26.203  13.954
85132W        W58200  24.041  33.076  13.011
85133W        W58201  24.171  11.063   4.601
85134W        W58202  35.656  29.561  10.909
85135W        W58203   8.919  41.066   4.185
85136W        W58204   2.375  19.036   0.315
85137W        W58205   5.062  40.250  11.114
85138W        W58206  23.438  39.435  10.610
85139W        W58207  31.700  34.164  12.888
85140W        W58208  28.640   4.500  11.241
85141W        W58209  25.326  39.232   1.101
85142W        W58210  18.606  41.238   5.036
85143W        W58211  18.509  37.577   2.237
85144W        W58212  19.887   6.499   1.698
85145W        W58213   0.248   1.938  14.084
85146W        W58214   5.447  10.870  13.411
85147W        W58215  30.057  41.314  14.598
85148W        W58216   6.932  19.997   1.288
85149W        W58217  15.987   2.052  13.348
85150W        W58218  14.056   8.561  10.159
85151W        W58219  28.526  23.362  10.622
85152W        W58220  20.733  16.818  14.332
85153W        W58221  37.585  34.833   0.756
85154W        W58222  11.547  42.899  11.138
85155W        W58223   3.643  16.122   1.422
85156W        W58224  17.085  29.406   3.712
85157W        W58225  13.420   1.276  12.026
85158W        W58226  12.454  29.199   2.398
85159W        W58227  35.762  38.377  14.835
85160W        W58228  12.898  27.483  13.938
85161W        W58229  23.073  35.155  14.566
85162W        W58230  27.676   8.659   4.384
85163W        W58231   4.010   6.086   0.416
85164W        W58232  30.473  26.527   4.156
85165W        W58233  29.022  35.994   0.549
85166W        W58234  20.977  35.923  14.038
85167W        W58235  33.529  23.066  11.121
85168W        W58236  15.498  24.463  13.840
85169W        W58237   2.737   8.770  11.405
85170W        W58238  38.914  27.585  11.653
85171W        W58239  14.008  10.718  12.519
85172W        W58240  32.912  22.736  12.584
85173W        W58241  17.430   0.452   1.252
85174W        W58242   0.279  40.578  12.558
85175W        W58243  36.374  30.191   3.658
85176W        W58244  22.662  14.825  11.544
85177W        W58245  22.877  37.474  12.321
85178W        W58246  39.350   8.100   0.342
85179W        W58247  11.867   1.759   4.522
85180W        W58248   8.874  19.666  13.569
85181W        W58249  33.500  27.218   1.501
85182W        W58250  25.008  39.894   4.105
85183W        W58251  15.861  41.327   0.609
85184W        W58252  15.617   0.232   4.622
85185W        W58253  37.982  33.662   4.549
85186W        W58254   3.889  36.431   3.269
85187W        W58255  28.018  33.410  11.569
85188W        W58256  34.980  42.317   1.727
85189W        W58257  21.559  22.487   2.179
85190W        W58258  23.986  33.600   4.184
85191W        W58259  13.692  30.016  13.278
85192W        W58260  11.612  17.079  11.099
85193W        W58261  14.727  23.228  10.417
85194W        W58262  26.032  10.216   4.200
85195W        W58263  10.536  31.461   0.876
85196W        W58264  36.855   8.382  13.236
85197W        W58265  32.539  15.847   2.875
85198W        W58266  34.877   0.959   0.950
85199W        W58267  26.933  34.457  12.672
85200W        W58268  22.082  27.386  12.562
85201W        W58269  17.157  32.915  12.412
85202W        W58270  15.831  29.887   2.215
85203W        W58271  24.169  43.104   4.635
85204W        W58272  27.526  14.087  12.534
85205W        W58273  32.408   6.667   3.334
85206W        W58274  21.685  34.620  12.801
85207W        W58275   4.269  41.600   3.852
85208W        W58276  31.864   0.234  11.501
85209W        W58277   6.037   4.627  11.122
85210W        W58278  24.693  14.058  11.533
85211W        W58279  25.084  29.436  12.431
85212W        W58280  12.941   7.111  10.099
85213W        W58281  27.546  10.194  13.306
85214W        W58282  14.018   3.428  12.076
85215W        W58283   7.276  10.245   3.138
85216W        W58284  41.964   3.968  14.383
85217W        W58285  41.498  11.662  13.945
85218W        W58286  36.521   9.701   0.489
85219W        W58287  20.615   0.925   9.910
85220W        W58288  30.595  34.935   1.359
85221W        W58289  29.992  31.830   3.324
85222W        W58290  32.726  44.885  13.435
85223W        W58291  18.927  24.514   1.459
85224W        W58292  15.198  16.210  13.952
85225W        W58293  18.159  18.747  13.322
85226W        W58294  25.188  41.047   3.720
85227W        W58295   1.488  14.175   2.113
85228W        W58296  16.412  26.303  11.611
85229W        W58297  15.415  33.563   2.374
85230W        W58298  19.192  30.159   3.223
85231W        W58299  32.970  39.583  12.114
85232W        W58300  35.061   9.323   1.221
85233W        W58301   4.924  35.285   4.111
85234W        W58302  22.688  40.318   1.302
85235W        W58303   4.103  30.095   1.364
85236W        W58304  15.251  27.389   2.795
85237W        W58305  17.951  33.924  13.032
85238W        W58306  37.970   2.180  14.806
85239W        W58307  24.707  39.907   0.888
85240W        W58308  40.253  17.136   0.735
85241W        W58309  27.784   5.216  10.630
85242W        W58310  40.877  28.735   0.004
85243W        W58311  11.085  31.936  11.160
85244W        W58312   0.913  38.142  13.945
85245W        W58313  24.514  40.956   2.509
85246W        W58314  34.090   4.871   3.244
85247W        W58315   8.756  14.661  13.538
85248W        W58316   7.657  27.188   3.154
85249W        W58317  44.919  23.510   3.661
85250W        W58318   2.743   5.339  13.015
85251W        W58319   0.680  31.989   1.308
85252W        W58320   3.421   3.657  10.718
85253W        W58321  17.207  33.128  12.886
85254W        W58322  41.726  28.164  12.092
85255W        W58323  36.365  13.356   0.302
85256W        W58324   6.667   2.771   3.681
85257W        W58325  29.374  44.759  14.870
85258W        W58326  31.677  30.997   3.757
85259W        W58327  42.244  43.609   2.795
85260W        W58328   9.906  39.503   4.094
85261W        W58329  31.026  28.636  13.480
85262W        W58330  24.419  40.630   3.215
85263W        W58331  29.643  35.384   0.301
85264W        W58332  35.417  12.661   1.172
85265W        W58333  24.633  21.183  13.095
85266W        W58334  27.023  19.583   0.425
85267W        W58335  33.949  34.483   2.603
85268W        W58336   2.068  21.618   3.668
85269W        W58337   1.823  31.384   4.623
85270W        W58338  23.494   5.670  13.701
85271W        W58339  37.581  42.789   3.160
85272W        W58340  27.231  11.267   4.616
85273W        W58341  42.562  17.091  14.272
85274W        W58342  37.783  16.300  12.368
85275W        W58343  40.594  17.265   1.092
85276W        W58344   0.966  37.443   3.644
85277W        W58345  32.811  39.032   4.195
85278W        W58346  42.405  40.915   3.832
85279W        W58347   0.009  10.743   1.907
85280W        W58348  42.014   0.221   1.882
85281W        W58349  18.183  42.245  13.394
85282W        W58350  22.722  23.553   3.190
85283W        W58351  37.524   2.727  12.512
85284W        W58352  30.491  28.694  12.103
85285W        W58353  13.707  24.929   0.939
85286W        W58354  29.049   9.208   3.707
85287W        W58355  36.994   6.906  14.842
85288W        W58356  12.116  41.921  11.528
85289W        W58357   2.219  26.617   4.076
85290W        W58358   9.460   7.884   0.449
85291W        W58359  24.755  37.472   5.109
85292W        W58360  22.259  35.882   0.353
85293W        W58361  29.677   0.302  12.485
85294W        W58362  41.338  32.657  12.586
85295W        W58363  15.558  32.807   2.642
85296W        W58364  34.261  19.388  12.199
85297W        W58365  40.570  19.360   0.798
85298W        W58366   1.866  35.299   0.517
85299W        W58367  17.196  22.294   1.694
85300W        W58368  39.818  38.845   2.756
85301W        W58369   7.262   8.867   4.571
85302W        W58370  23.768  43.910   4.574
85303W        W58371  13.057   2.874  14.728
85304W        W58372  26.497   2.248  11.219
85305W        W58373  31.614   1.209   4.341
85306W        W58374   2.954   2.907   2.900
85307W        W58375  42.330  24.106  13.438
85308W        W58376   0.840  40.079  13.803
85309W        W58377  35.968  19.849   0.260
85310W        W58378   3.667   4.344  11.198
85311W        W58379  37.486  18.680  13.340
85312W        W58380  32.834  17.610   4.167
85313W        W58381  14.878   7.282  14.575
85314W        W58382   7.463  42.612   0.837
85315W        W58383  10.186  36.886   0.815
85316W        W58384  29.607  15.659  13.534
85317W        W58385   3.068   1.271   3.168
85318W        W58386  41.526  27.021  10.634
85319W        W58387  15.100  32.893  14.613
85320W        W58388  32.169  37.822  10.437
85321W        W58389  16.565  25.589  10.770
85322W        W58390  21.278  35.103   4.084
85323W        W58391  21.247  13.831  14.058
85324W        W58392  35.884   6.955   1.959
85325W        W58393  27.174   0.052  14.057
85326W        W58394  14.379   0.915   3.331
85327W        W58395  23.758   2.987   0.353
85328W        W58396  29.083  20.607  11.530
85329W        W58397  10.198  24.983   2.759
85330W        W58398  30.029  31.383   1.154
85331W        W58399  36.273  29.027   3.266
85332W        W58400  43.431  31.999   0.101
85333W        W58401   1.410  25.923   0.845
85334W        W58402  31.446  16.275   2.671
85335W        W58403   3.311  37.995  13.138
85336W        W58404  24.140  34.164   1.218
85337W        W58405  21.939  27.700  14.880
85338W        W58406  35.565   2.161   1.908
85339W        W58407  21.730  43.958  12.528
85340W        W58408  19.904  11.376  10.600
85341W        W58409  12.582  34.170   2.229
85342W        W58410  33.163  37.393   0.516
85343W        W58411   2.667  19.597   4.652
85344W        W58412   2.498  26.512  10.201
85345W        W58413   9.408   6.338  14.405
85346W        W58414  10.617  35.850   1.758
85347W        W58415  13.523  44.043   0.388
85348W        W58416  25.258  37.845   5.528
85349W        W58417  36.905  10.708  14.630
85350W        W58418  12.188  24.031  13.038
85351W        W58419  19.117   2.477   3.188
85352W        W58420  20.124   9.876  14.469
85353W        W58421  16.613   4.160  14.447
85354W        W58422  22.681  10.920   0.432
85355W        W58423  24.834   9.041   3.281
85356W        W58424  11.909  36.043   0.361
85357W        W58425  43.485  22.532   1.027
85358W        W58426  38.753  36.965  13.270
85359W        W58427  19.754   8.352   4.332
85360W        W58428  40.307  21.640   2.726
85361W        W58429  27.659  36.309  14.355
85362W        W58430  30.825  21.628  12.993
85363W        W58431  13.495  38.721   4.058
85364W        W58432   5.745  39.280  12.981
85365W        W58433  36.945   7.240   1.194
85366W        W58434   3.972  13.141   1.391
85367W        W58435  43.346  23.446  10.272
85368W        W58436  23.414   8.859   1.773
85369W        W58437  39.997  14.600   2.848
85370W        W58438  44.168  31.862  13.324
85371W        W58439  40.920   1.211  11.980
85372W        W58440   0.894   7.379  12.998
85373W        W58441   2.732  39.022   9.984
85374W        W58442   0.441  36.059   1.783
85375W        W58443  17.104  19.022  12.557
85376W        W58444  10.699  44.433   3.753
85377W        W58445  42.008   6.595  14.624
85378W        W58446   4.817  41.314   1.667
85379W        W58447  36.792   0.167  11.049
85380W        W58448  20.571  11.606   2.137
85381W        W58449  11.652  20.000  10.594
85382W        W58450  28.166  15.690   3.260
85383W        W58451  28.990  44.445  12.426
85384W        W58452  20.315  43.798   4.328
85385W        W58453  24.257  31.537   2.448
85386W        W58454  34.568   3.466  11.459
85387W        W58455   8.978  23.099   1.298
85388W        W58456  27.781   1.244  14.810
85389W        W58457  26.253  26.491   2.568
85390W        W58458  14.826  25.624  12.047
85391W        W58459  11.673   3.749  13.446
85392W        W58460  33.190  25.534  14.895
85393W        W58461  39.803  23.208   4.719
85394W        W58462  44.057  21.233   2.845
85395W        W58463  30.997  43.805  12.880
85396W        W58464  25.347  20.603  14.734
85397W        W58465   7.709   7.491   0.318
85398W        W58466   3.193  41.992   2.829
85399W        W58467  37.472  42.996   2.568
85400W        W58468  14.634   9.187  10.650
85401W        W58469  39.993  18.511  14.934
85402W        W58470  20.231  14.262  12.162
85403W        W58471  32.177  39.822  13.528
85404W        W58472  20.751  33.565  12.051
85405W        W58473  21.101  10.553   4.601
85406W        W58474   3.350  10.771  12.931
85407W        W58475   8.719  19.296  11.549
85408W        W58476  42.251  29.483  11.422
85409W        W58477   5.795  29.221   2.399
85410W        W58478  15.904  12.185   2.565
85411W        W58479  36.827   2.156  12.877
85412W        W58480  33.005  26.135  14.337
85413W        W58481   6.914   4.027  14.592
85414W        W58482  20.148  27.598  12.907
85415W        W58483   5.087   5.217  11.162
85416W        W58484  38.439   3.903   3.694
85417W        W58485  22.555  18.632  11.949
85418W        W58486  42.239  33.928  13.922
85419W        W58487  30.529   5.615   1.658
85420W        W58488  30.522  43.898  14.498
85421W        W58489  37.799  22.963  12.631
85422W        W58490  35.960  29.714  12.880
85423W        W58491  35.592  30.959   0.876
85424W        W58492  37.866   1.053  12.810
85425W        W58493  13.046  29.982  12.620
85426W        W58494  24.305   2.251  13.105
85427W        W58495  18.921  41.627  14.420
85428W        W58496  35.832   5.831   0.302
85429W        W58497  15.731  23.254   4.668
85430W        W58498  17.238  37.373  10.570
85431W        W58499   2.918   2.194   4.698
85432W        W58500  17.513  31.224  14.592
85433W        W58501  39.404  29.399  10.587
85434W        W58502   2.896  38.029   3.703
85435W        W58503  13.122  24.165  11.712
85436W        W58504   4.684  39.359  12.521
85437W        W58505  29.192  12.303   0.462
85438W        W58506  36.659  35.958   3.540
85439W        W58507  22.580   2.700   2.166
85440W        W58508  25.151  34.322  13.423
85441W        W58509   6.915  22.103   1.401
85442W        W58510  37.634  13.812  14.012
85443W        W58511  15.208  10.814   0.973
85444W        W58512  12.355  42.770   0.837
85445W        W58513  36.670  36.515  12.668
85446W        W58514  30.108  31.490   4.147
85447W        W58515  12.831  40.058  14.807
85448W        W58516   7.095   4.874   3.300
85449W        W58517  36.200  15.558  14.083
85450W        W58518  39.983  25.237   4.612
85451W        W58519   1.918   9.455  11.872
85452W        W58520  41.438   0.432  11.151
85453W        W58521  14.531  44.571   3.211
85454W        W58522  14.176  33.117   3.726
85455W        W58523  19.258  14.046   0.313
85456W        W58524  32.243  11.218   2.208
85457W        W58525  29.483   6.308  13.049
85458W        W58526   6.662   0.902  12.432
85459W        W58527  27.637  26.423  11.068
85460W        W58528   9.289  42.913  11.060
85461W        W58529   7.733   7.933  12.927
85462W        W58530   4.197  24.474   3.709
85463W        W58531  28.990   8.357  14.369
85464W        W58532  27.391   4.405   0.030
85465W        W58533  32.526  31.408  13.277
85466W        W58534   0.523  17.205  13.511
85467W        W58535  21.052  21.165  11.013
85468W        W58536  21.136   2.574   3.945
85469W        W58537  20.276  23.704  13.936
85470W        W58538   2.407   6.939  11.496
85471W        W58539   5.221  23.647  14.978
85472W        W58540  14.998   9.808  14.055
85473W        W58541  37.463  20.594   1.807
85474W        W58542   0.097   4.237  13.163
85475W        W58543  44.293  16.484   1.205
85476W        W58544  22.983  28.426   2.354
85477W        W58545  40.480  40.268   2.229
85478W        W58546  29.088  36.999   1.409
85479W        W58547  34.926   7.700  14.167
85480W        W58548  33.176  28.560   1.777
85481W        W58549  10.723  32.041   3.650
85482W        W58550   3.271  22.083  14.274
85483W        W58551  34.991  40.535  13.633
85484W        W58552   2.446   3.202   2.222
85485W        W58553  12.425  24.939  14.504
85486W        W58554  22.024   1.948   2.297
85487W        W58555  26.358  43.114   1.702
85488W        W58556  17.515  33.392   2.861
85489W        W58557  18.076  38.889   1.727
85490W        W58558  16.784  33.467  14.913
85491W        W58559  18.093   9.081  14.942
85492W        W58560  11.635  25.410   1.935
85493W        W58561  17.625  33.969   0.048
85494W        W58562   4.889  16.816   3.343
85495W        W58563  30.705  15.756   4.770
85496W        W58564  44.869  42.028   4.236
85497W        W58565  39.447  34.092   0.217
85498W        W58566  18.694  41.268  11.636
85499W        W58567  12.297  35.922  14.799
85500W        W58568  40.731  14.674  13.415
85501W        W58569  19.750  24.718   4.097
85502W        W58570  33.158  42.805  12.037
85503W        W58571  40.419  24.539  11.152
85504W        W58572  19.572  18.495   0.794
85505W        W58573  35.887  26.137   3.162
85506W        W58574  13.593   7.793   0.854
85507W        W58575  37.322   1.163  12.114
85508W        W58576  18.508  16.472  10.192
85509W        W58577   9.669  41.477  13.959
85510W        W58578  29.394   3.909  13.834
85511W        W58579   7.174  37.519   4.161
85512W        W58580  36.977  10.701   3.788
85513W        W58581  38.333  42.832  13.429
85514W        W58582  31.594  16.743  13.074
85515W        W58583  36.841  27.574   4.466
85516W        W58584  29.428  31.895  13.399
85517W        W58585  42.886  42.641  14.761
85518W        W58586  20.479  14.259  13.385
85519W        W58587  18.785  37.179   1.370
85520W        W58588  43.836   7.709  12.072
85521W        W58589  38.291  29.934  14.458
85522W        W58590  25.175   6.211  11.434
85523W        W58591   6.018  38.449   3.079
85524W        W58592   5.879  32.157   2.375
85525W        W58593  13.564  36.335  14.844
85526W        W58594   3.930  40.458  14.501
85527W        W58595  11.711  10.054   4.129
85528W        W58596  10.398  33.563   0.769
85529W        W58597  24.042  44.297  10.667
85530W        W58598  11.641  25.793   0.487
85531W        W58599   8.285   1.783  13.583
85532W        W58600  26.730  13.324  14.245
85533W        W58601  22.703  35.026  10.715
85534W        W58602  10.286  22.659   0.847
85535W        W58603   6.218  30.510   1.524
85536W        W58604  15.119   5.147  13.318
85537W        W58605  30.193  24.103  12.853
85538W        W58606  15.580  16.755  13.004
85539W        W58607  38.553  28.419  10.732
85540W        W58608  24.607  19.825  13.075
85541W        W58609  30.075  25.620  11.601
85542W        W58610  20.767  24.727   0.796
85543W        W58611  19.520   0.913  12.463
85544W        W58612  36.407  14.392   4.155
85545W        W58613  12.044  25.671  13.791
85546W        W58614  38.485  34.312   2.647
85547W        W58615  27.728  32.538  10.620
85548W        W58616  18.708  41.766   2.117
85549W        W58617  36.786   5.268   4.481
85550W        W58618  33.004  29.683   0.280
85551W        W58619  37.840  25.457   0.960
85552W        W58620   7.274  15.177  10.401
85553W        W58621   2.877  33.861  10.519
85554W        W58622  43.871   4.174  13.976
85555W        W58623  43.963  41.005   0.820
85556W        W58624  12.284   8.428   4.221
85557W        W58625  12.637  44.467   3.789
85558W        W58626   6.958   1.357   1.789
85559W        W58627  25.576  20.717   2.696
85560W        W58628  17.350   4.009  11.621
85561W        W58629  22.082  11.312   0.484
85562W        W58630   6.642  33.429   1.880
85563W        W58631  30.969  29.946   2.908
85564W        W58632  23.250  13.655  14.887
85565W        W58633  36.905  25.466  12.601
85566W        W58634  25.168  17.570  12.101
85567W        W58635  10.931  29.710   4.571
85568W        W58636  23.451  21.955  10.819
85569W        W58637   6.913  24.501  14.547
85570W        W58638  26.404   1.693   3.576
85571W        W58639  36.817  22.312  12.028
85572W        W58640  13.974  38.435   3.296
85573W        W58641  35.005  42.752  10.974
85574W        W58642   0.616  11.904   0.406
85575W        W58643   4.425  39.033   3.650
85576W        W58644  17.501   7.672   3.221
85577W        W58645  43.310  43.656   0.682
85578W        W58646  35.423  31.275  11.384
85579W        W58647  20.238   4.779  13.955
85580W        W58648  12.701  14.476  14.865
85581W        W58649   6.889  41.880   3.311
85582W        W58650  10.790  37.550   2.256
85583W        W58651   7.382  22.282  11.951
85584W        W58652  32.127  16.999  12.973
85585W        W58653  44.394  11.355   0.829
85586W        W58654  17.950  37.592  13.522
85587W        W58655  36.869   6.828   1.905
85588W        W58656  19.599   2.208  10.869
85589W        W58657  36.340   1.769   1.633
85590W        W58658  29.485  15.254  14.500
85591W        W58659  29.559   5.676   1.913
85592W        W58660  18.002  24.033  13.034
85593W        W58661   5.757  23.220   3.305
85594W        W58662  37.566  42.717   1.215
85595W        W58663  13.814  32.670   1.203
85596W        W58664  20.634   0.956   4.654
85597W        W58665  17.598  34.870  11.142
85598W        W58666  17.891  24.247   4.004
85599W        W58667  32.009  17.713   2.648
85600W        W58668   6.135  25.470   3.744
85601W        W58669  22.719  30.092   1.142
85602W        W58670  42.234  18.898   3.394
85603W        W58671  31.162  21.666   1.373
85604W        W58672  44.295  36.125  10.798
85605W        W58673  42.931  42.600   2.476
85606W        W58674  24.488  16.057   3.135
85607W        W58675  23.739   1.720  13.355
85608W        W58676   5.735  19.577  13.028
85609W        W58677   2.506  27.738  11.919
85610W        W58678   6.731  34.614   2.171
85611W        W58679  23.572   2.177  11.026
85612W        W58680   1.541  20.511   0.531
85613W        W58681   3.840  14.792  10.752
85614W        W58682   4.860  21.169  12.451
85615W        W58683   7.896  40.570   4.990
85616W        W58684  24.689  21.146   4.541
85617W        W58685  25.083  38.484  14.640
85618W        W58686   0.470  16.860  14.975
85619W        W58687   2.274  41.646  14.811
85620W        W58688  42.807  21.035  12.546
85621W        W58689   2.306  44.459  10.656
85622W        W58690  12.928  19.501  10.388
85623W        W58691  35.368  13.570  13.414
85624W        W58692  12.883   4.757  11.084
85625W        W58693  41.973   3.324  10.726
85626W        W58694  37.620  42.930  11.122
85627W        W58695  40.289   9.924   1.176
85628W        W58696  36.304   6.200  12.801
85629W        W58697  13.680  18.252   1.842
85630W        W58698  11.590  43.926   1.070
85631W        W58699  20.866  16.289  13.900
85632W        W58700  25.053  36.637  12.555
85633W        W58701  28.320  42.404   3.767
85634W        W58702  33.618  14.097   3.603
85635W        W58703  38.062  38.960   4.135
85636W        W58704  33.026   4.661   4.167
85637W        W58705  26.796  20.799  10.677
85638W        W58706   9.601  35.305  14.382
85639W        W58707   8.674   7.952  13.011
85640W        W58708  30.744   2.891   0.511
85641W        W58709  24.264  15.645   1.739
85642W        W58710  22.465  16.586  11.534
85643W        W58711   6.270  12.815   1.424
85644W        W58712   9.419  20.498  14.429
85645W        W58713   5.978  17.696  13.951
85646W        W58714   7.047  20.608  13.853
85647W        W58715  20.273   6.616   0.446
85648W        W58716   2.529  11.109   3.363
85649W        W58717  24.635  33.680   1.774
85650W        W58718   5.054   6.495   2.210
85651W        W58719  41.783  14.317   3.224
85652W        W58720   1.002  13.663  11.051
85653W        W58721   0.886  31.388  12.734
85654W        W58722  32.177  23.649   3.123
85655W        W58723  32.127  28.540   3.807
85656W        W58724  14.002  40.754  11.427
85657W        W58725  25.235  17.591  12.995
85658W        W58726  18.687  31.662  12.062
85659W        W58727  10.668  34.907   4.199
85660W        W58728  30.616  32.168  13.812
85661W        W58729  32.994  10.773  11.472
85662W        W58730  11.262  11.950   4.182
85663W        W58731   5.033  13.443   1.684
85664W        W58732  43.425  12.629   0.544
85665W        W58733  33.519  32.356   0.221
85666W        W58734  13.507  10.606  12.504
85667W        W58735  26.638   9.949  14.073
85668W        W58736  31.015  21.482   1.829
85669W        W58737  44.309  29.333  13.013
85670W        W58738   0.778   8.619  10.620
85671W        W58739  26.197  12.601  13.351
85672W        W58740  24.959  17.326   3.169
85673W        W58741  38.965  37.397  13.610
85674W        W58742  30.876  44.678   1.300
85675W        W58743  25.247  12.061  11.468
85676W        W58744   1.071  20.242  11.621
85677W        W58745   9.907  17.781   2.732
85678W        W58746   3.769  15.278   0.405
85679W        W58747  32.650   4.170   2.211
85680W        W58748  38.792  15.538  11.625
85681W        W58749  24.183  36.002  10.202
85682W        W58750   0.830  29.666   0.006
85683W        W58751  13.826  21.680  13.239
85684W        W58752  24.535  18.241  13.833
85685W        W58753  29.252   7.678  13.827
85686W        W58754  11.198   6.452   1.700
85687W        W58755   4.179  28.000   1.324
85688W        W58756  15.221   4.317  10.757
85689W        W58757  33.136  28.941  11.451
85690W        W58758  39.252  17.700   1.946
85691W        W58759  37.557  31.689   5.020
85692W        W58760  24.109  22.567   3.047
85693W        W58761  32.043  24.186  11.615
85694W        W58762  17.574  38.126   0.016
85695W        W58763  37.890  36.156   2.858
85696W        W58764  44.236  19.899  13.356
85697W        W58765  28.552  15.275   5.027
85698W        W58766   3.939   1.367  10.409
85699W        W58767  30.702  28.651   3.739
85700W        W58768  17.870  30.001  13.907
85701W        W58769  28.958  19.474  14.470
85702W        W58770  18.273  24.033  12.588
85703W        W58771  33.301  17.728   3.162
85704W        W58772  27.419  26.214   1.330
85705W        W58773  35.348   6.094  11.575
85706W        W58774  38.591  27.663   2.223
85707W        W58775  42.515  10.764  10.636
85708W        W58776  15.862  38.422  14.434
85709W        W58777  27.858   5.416   0.312
85710W        W58778  14.283   5.252  13.663
85711W        W58779  28.413  17.639   3.721
85712W        W58780  42.384  11.879   1.838
85713W        W58781  39.772   2.900  14.388
85714W        W58782  28.856  39.037  14.739
85715W        W58783  43.114   8.444   4.582
85716W        W58784  33.951  25.052  12.556
85717W        W58785   6.926   7.154   3.263
85718W        W58786   8.094   1.434   2.334
85719W        W58787  32.048  33.434   2.406
85720W        W58788  38.357  10.671  10.775
85721W        W58789  28.167  44.889   2.297
85722W        W58790  42.810  27.102  13.516
85723W        W58791  18.797  27.672   4.140
85724W        W58792  22.197   2.446   3.733
85725W        W58793  21.663  22.468  12.642
85726W        W58794  36.009  26.575  13.483
85727W        W58795  14.082  44.194   4.526
85728W        W58796  12.660  39.954  12.068
85729W        W58797  37.360  44.606  12.600
85730W        W58798  18.227   3.925   1.659
85731W        W58799   7.737  25.856   4.138
85732W        W58800  14.496  23.542  14.882
85733W        W58801  11.138  31.111   2.118
85734W        W58802  10.088  30.433   2.605
85735W        W58803  23.505  10.904  13.458
85736W        W58804  38.805   7.762  14.465
85737W        W58805   5.644  29.388  12.904
85738W        W58806  35.624  20.070   1.791
85739W        W58807  41.455   7.217   1.318
85740W        W58808   0.895  34.680  14.462
85741W        W58809  44.974  33.626  10.724
85742W        W58810  33.327  36.702   2.320
85743W        W58811  41.001  11.250  11.215
85744W        W58812  12.388  39.459  14.372
85745W        W58813  42.490  19.679  14.455
85746W        W58814  39.509  20.219   1.368
85747W        W58815   5.324   5.412   0.826
85748W        W58816  37.011  19.851  11.550
85749W        W58817  44.358  40.430  13.112
85750W        W58818  13.131   9.762  11.201
85751W        W58819  23.817   8.339  13.367
85752W        W58820  40.047  21.667  13.338
85753W        W58821  26.174  24.183  14.717
85754W        W58822   3.099  17.677   1.865
85755W        W58823  18.853  37.355   1.884
85756W        W58824  22.744  26.949   0.925
85757W        W58825  23.118   4.492   3.824
85758W        W58826   8.701   2.589  14.086
85759W        W58827  39.599   7.199   3.329
85760W        W58828  17.431   1.002   0.787
85761W        W58829  14.297  27.203  11.787
85762W        W58830  37.426  20.612  12.048
85763W        W58831   7.836  41.331  11.322
85764W        W58832  17.272   9.530   3.694
85765W        W58833  42.839   7.407   0.987
85766W        W58834  31.451  38.682  13.590
85767W        W58835  33.442  24.021   0.292
85768W        W58836  35.150  39.599  12.524
85769W        W58837  18.731   6.071   0.947
85770W        W58838  14.058  10.829  13.895
85771W        W58839  32.926  30.352   4.901
85772W        W58840   8.356  12.753  11.286
85773W        W58841  36.852  18.740  10.686
85774W        W58842  39.008   8.037   3.310
85775W        W58843  39.420  40.786   1.885
85776W        W58844  38.543  17.796   4.569
85777W        W58845  25.961  28.025   3.831
85778W        W58846  15.291  19.711  12.670
85779W        W58847  33.384  12.113  11.662
85780W        W58848  38.042  36.023   3.327
85781W        W58849  21.268  37.099  13.340
85782W        W58850   3.357  16.609   0.666
85783W        W58851  20.044  35.943   2.806
85784W        W58852  30.914  26.038   4.641
85785W        W58853   5.883  28.592  11.604
85786W        W58854   4.549  28.672  14.876
85787W        W58855  13.938  18.576   4.046
85788W        W58856  26.063  34.092   1.821
85789W        W58857  33.485  27.010   4.409
85790W        W58858  24.562  26.419   3.200
85791W        W58859  41.266  17.282  13.902
85792W        W58860  42.655  43.882  10.598
85793W        W58861  31.927   6.784   2.649
85794W        W58862   8.403  30.540   2.341
85795W        W58863  44.898  11.909  11.631
85796W        W58864   1.476  41.993  13.377
85797W        W58865   9.925  27.063   1.957
85798W        W58866  11.906   0.701  11.058
85799W        W58867  42.951  15.356  14.108
85800W        W58868   6.752  35.972   1.274
85801W        W58869  30.410   4.120  13.745
85802W        W58870  27.080  32.298  14.381
85803W        W58871  43.483  17.198   0.450
85804W        W58872  17.688  24.095   2.260
85805W        W58873  15.355  10.387   2.872
85806W        W58874  38.627  32.416  14.833
85807W        W58875  42.133   4.502   1.647
85808W        W58876  43.264  23.229  11.144
85809W        W58877   3.329   0.112  11.581
85810W        W58878  29.488  36.917   4.096
85811W        W58879  18.205  25.173   1.283
85812W        W58880  39.193   7.515   0.781
85813W        W58881  11.780  19.967   4.082
85814W        W58882  43.015  29.914   1.426
85815W        W58883   0.810   1.873  11.926
85816W        W58884  11.611  21.818   3.807
85817W        W58885  41.758  33.044   3.596
85818W        W58886  20.950  15.146   0.527
85819W        W58887  44.907  32.539  12.775
85820W        W58888   0.793   7.806  13.816
85821W        W58889   1.820  33.352  12.618
85822W        W58890   8.844  19.518   0.870
85823W        W58891   8.565   3.169   1.749
85824W        W58892  31.115  30.521  13.414
85825W        W58893  33.310  22.249   3.297
85826W        W58894  44.029   0.031  14.940
85827W        W58895   3.908  38.607   0.736
85828W        W58896  25.128  17.375  13.948
85829W        W58897  36.068  17.060   2.418
85830W        W58898  31.492   5.457   4.161
85831W        W58899  19.172  41.341   3.242
85832W        W58900  25.985  10.920   2.224
85833W        W58901  20.200  35.482   2.241
85834W        W58902  32.533   3.239  13.010
85835W        W58903  35.092  35.141   3.252
85836W        W58904   9.366  14.376  13.795
85837W        W58905   6.462  28.218   0.729
85838W        W58906  40.599  38.081  14.964
85839W        W58907  31.984   4.575   2.707
85840W        W58908   7.494  29.920   2.727
85841W        W58909   8.996  38.409   0.311
85842W        W58910   8.864  44.355   1.290
85843W        W58911   1.098  30.969   3.866
85844W        W58912  15.686  22.329   0.768
85845W        W58913  35.435  15.062   1.878
85846W        W58914  38.292  10.131   4.126
85847W        W58915  34.997   2.992   2.172
85848W        W58916   4.815   3.337   2.834
85849W        W58917  34.732  33.964  11.087
85850W        W58918   0.670  32.396  13.965
85851W        W58919  43.383   8.695   3.881
85852W        W58920  34.373  26.201   0.815
85853W        W58921  34.082  35.163   2.942
85854W        W58922   3.145   2.708  13.135
85855W        W58923  32.496   3.688   2.278
85856W        W58924  32.012  22.538   1.870
85857W        W58925  30.571   5.767  12.613
85858W        W58926   2.873  41.251  13.433
85859W        W58927  44.183  27.030   3.343
85860W        W58928  27.723  20.743   4.368
85861W        W58929  42.835  32.918  13.428
85862W        W58930  36.148  18.864  11.252
85863W        W58931  38.936   9.518   5.043
85864W        W58932   5.484  16.812   1.888
85865W        W58933  15.350   8.500  13.550
85866W        W58934  25.278  28.527   0.439
85867W        W58935  34.587  22.217  14.556
85868W        W58936  13.680  38.593  12.092
85869W        W58937  20.492  34.403  13.813
85870W        W58938  33.566   6.952   4.279
85871W        W58939   5.757  23.044   4.584
85872W        W58940  27.169  34.276   1.276
85873W        W58941  19.123  31.938   2.748
85874W        W58942   8.415  17.034   2.374
85875W        W58943   9.272  11.103  13.952
85876W        W58944   7.134  34.807  14.510
85877W        W58945   8.115   9.581   2.673
85878W        W58946  24.135   6.675  12.841
85879W        W58947   5.805  38.415  11.064
85880W        W58948  19.833  11.822  14.793
85881W        W58949   6.643  31.659   2.727
85882W        W58950  24.935   9.591  14.441
85883W        W58951  26.662  26.625  13.110
85884W        W58952  31.520  36.191   1.750
85885W        W58953   7.625  42.832  11.529
85886W        W58954  30.276  39.358   2.405
85887W        W58955  13.421   7.008   4.325
85888W        W58956  15.505  44.285  13.994
85889W        W58957  32.018   0.182  13.973
85890W        W58958  32.959  19.101   3.659
85891W        W58959  44.457  25.239   0.449
85892W        W58960  15.932   9.417   2.320
85893W        W58961  20.158  41.650  11.780
85894W        W58962  27.996  27.225  14.811
85895W        W58963  26.012  40.570  11.390
85896W        W58964   2.801  36.657   0.971
85897W        W58965   0.748  34.565  12.986
85898W        W58966  27.726  43.264  14.001
85899W        W58967  34.935   5.253  11.884
85900W        W58968   0.448  23.539   1.890
85901W        W58969  30.342  27.938  11.664
85902W        W58970   8.631  29.732   2.457
85903W        W58971   4.451  30.779  14.136
85904W        W58972  31.863  38.300   2.756
85905W        W58973  22.319  42.398   1.768
85906W        W58974  13.590   8.423  10.360
85907W        W58975  42.532  18.040  11.004
85908W        W58976  34.492   7.125   0.108
85909W        W58977  16.463  28.385   3.144
85910W        W58978  20.677  29.060  10.416
85911W        W58979  17.709   1.079   4.981
85912W        W58980  36.331   0.850  11.702
85913W        W58981   9.529  24.360  13.820
85914W        W58982   4.038  19.804  13.456
85915W        W58983   9.243  33.932   2.421
85916W        W58984  17.844   7.033  12.040
85917W        W58985  16.327   0.036  11.987
85918W        W58986  27.153  20.253  12.877
85919W        W58987  37.399  43.707  11.570
85920W        W58988  38.479  38.004  10.821
85921W        W58989  32.835   1.025  13.856
85922W        W58990  40.589   2.360   0.278
85923W        W58991  11.200   2.892   4.340
85924W        W58992  13.365  24.919  13.463
85925W        W58993  44.255   5.820  11.207
85926W        W58994  42.296   6.479   3.684
85927W        W58995  31.848   9.928   1.385
85928W        W58996  34.363  41.742   1.384
85929W        W58997  32.717  24.542   3.262
85930W        W58998  36.042  12.122  13.911
85931W        W58999  35.989  33.378  12.065
85932W        W59000  27.935  43.895   1.644
85933W        W59001  27.704  24.416   3.707
85934W        W59002  34.895  21.590  11.974
85935W        W59003  25.278  30.899   0.253
85936W        W59004  27.547   2.420  12.800
85937W        W59005  15.733  28.667  10.620
85938W        W59006  26.010  18.345   1.402
85939W        W59007  17.844  31.962   2.324
85940W        W59008   0.812   9.173   0.506
85941W        W59009  14.760   5.855  11.097
85942W        W59010  27.537  25.540  14.489
85943W        W59011  33.336  30.408   3.598
85944W        W59012  23.167   1.993   3.635
85945W        W59013  25.958   5.032   1.211
85946W        W59014  13.478  34.958   2.853
85947W        W59015  43.528  23.175   1.789
85948W        W59016  33.078  20.690   1.360
85949W        W59017  41.181  21.750   0.267
85950W        W59018   3.471  10.974  11.452
85951W        W59019  26.057  26.060   0.451
85952W        W59020   7.389  11.663   1.287
85953W        W59021  14.272  11.823   1.027
85954W        W59022  22.256  37.480  13.225
85955W        W59023  14.170  17.868   0.829
85956W        W59024  34.631  29.232  14.716
85957W        W59025   9.540  42.437   4.890
85958W        W59026   3.736  34.900  13.114
85959W        W59027  12.279  20.710  10.708
85960W        W59028  14.339  17.362   4.862
85961W        W59029  29.128  35.565   0.277
85962W        W59030   1.625  28.086  13.519
85963W        W59031  37.617  44.065   4.678
85964W        W59032  21.578  44.044  13.948
85965W        W59033  21.246  36.030   4.850
85966W        W59034  40.944  16.208   1.779
85967W        W59035  14.746  27.684  11.176
85968W        W59036  39.438  36.153   0.755
85969W        W59037   1.150  30.110  12.524
85970W        W59038  33.527  15.830   1.883
85971W        W59039  28.427  20.545  12.334
85972W        W59040  11.756  10.738  13.863
85973W        W59041  18.522  17.097   0.876
85974W        W59042  41.584  17.673  11.133
85975W        W59043  20.215  25.515  10.769
85976W        W59044   1.949   3.842  11.628
85977W        W59045  43.476  20.223   3.283
85978W        W59046   2.217  27.693   2.805
85979W        W59047  32.913   6.662  12.444
85980W        W59048  29.995  25.561   3.229
85981W        W59049  22.054  42.057  13.387
85982W        W59050  42.389  12.750  11.368
85983W        W59051  37.131  25.488  13.894
85984W        W59052   8.278  35.303  10.649
85985W        W59053  14.774  17.210   4.122
85986W        W59054  28.945  43.012  11.708
85987W        W59055  24.655  30.412  14.742
85988W        W59056  38.505  43.811   2.615
85989W        W59057  11.277   2.878   0.439
85990W        W59058  20.514  16.352  12.529
85991W        W59059  25.660  31.677  10.208
85992W        W59060  11.440  23.987   2.178
85993W        W59061  20.955  13.305  13.445
85994W        W59062  11.381  23.270  14.859
85995W        W59063   8.056  40.989   0.786
85996W        W59064  13.414   4.340  13.411
85997W        W59065  27.043  15.520  13.831
85998W        W59066  32.549  40.566   2.011
85999W        W59067  33.646  15.858   3.646
86000W        W59068  12.799  23.566   3.668
86001W        W59069  43.384  38.837   1.901
86002W        W59070  32.556  34.377  11.969
86003W        W59071  41.044   3.755  11.924
86004W        W59072  20.802  23.979  12.594
86005W        W59073  24.551  25.118  14.069
86006W        W59074  11.284  17.799   2.648
86007W        W59075  44.551   8.454   1.399
86008W        W59076  10.937   0.949  13.901
86009W        W59077  20.989  31.429  13.001
86010W        W59078  26.642  42.983  12.165
86011W        W59079  12.785   3.734  12.932
86012W        W59080  10.593  35.058  10.423
86013W        W59081  30.028  22.183  13.815
86014W        W59082  37.425  23.510   0.677
86015W        W59083  31.228  43.448   3.652
86016W        W59084   2.347  29.560   2.764
86017W        W59085  30.249  32.825   0.387
86018W        W59086  43.979  19.698  13.805
86019W        W59087  42.812  44.864   3.744
86020W        W59088  44.754  33.506  14.350
86021W        W59089  30.521   5.276  12.782
86022W        W59090  38.412   8.731  14.822
86023W        W59091  12.794   1.278   0.354
86024W        W59092   8.726   6.483  10.709
86025W        W59093  33.884  15.808   3.157
86026W        W59094  37.058  21.993   1.146
86027W        W59095  31.561  23.300   0.908
86028W        W59096  30.811  28.607   1.385
86029W        W59097  43.185   0.986  14.945
86030W        W59098  29.713  32.891  11.689
86031W        W59099  43.784  42.894  14.967
86032W        W59100  42.306   5.233   2.150
86033W        W59101  21.068  36.270   2.231
86034W        W59102  22.195  43.251  10.544
86035W        W59103  22.134  32.424   3.725
86036W        W59104   9.274  26.515  13.614
86037W        W59105   9.894  43.389  13.510
86038W        W59106   8.866  44.729  13.357
86039W        W59107  12.186  32.970   3.202
86040W        W59108  24.956  17.605  14.371
86041W        W59109   1.883  22.549   1.456
86042W        W59110  43.394  37.897  12.254
86043W        W59111  22.635  34.031  10.647
86044W        W59112  19.347  13.308   3.880
86045W        W59113  28.422   6.381  13.009
86046W        W59114  44.742  44.447   1.292
86047W        W59115  15.118  16.783  13.552
86048W        W59116   0.881   2.247  13.720
86049W        W59117  43.838  15.625   1.431
86050W        W59118  21.326   7.150  11.145
86051W        W59119  28.974  12.358   1.745
86052W        W59120  32.293  22.676   2.329
86053W        W59121  37.116  10.699   1.961
86054W        W59122  43.505  44.289  12.962
86055W        W59123  24.712  35.672  11.933
86056W        W59124  43.309   3.288   0.883
86057W        W59125  19.227  18.192   2.582
86058W        W59126  30.001  25.615   4.487
86059W        W59127  43.001   3.324   4.618
86060W        W59128  41.227  19.720   3.929
86061W        W59129  42.317  32.189   2.135
86062W        W59130  17.979  11.768   1.422
86063W        W59131  44.811  37.611  14.915
86064W        W59132  20.585   1.974  10.663
86065W        W59133  15.142  19.244  10.997
86066W        W59134   7.367  41.838   3.117
86067W        W59135  27.605  17.036  11.005
86068W        W59136  26.480  27.003   0.888
86069W        W59137  11.694  34.199   2.201
86070W        W59138  38.495  29.494  13.056
86071W        W59139  27.982  30.447  14.493
86072W        W59140  11.727  33.091   4.606
86073W        W59141  13.743   6.762   0.920
86074W        W59142  26.080  37.447   4.917
86075W        W59143  29.848   9.619  12.688
86076W        W59144  11.716   6.930  14.838
86077W        W59145  30.647  35.441  14.130
86078W        W59146  37.489  30.747  12.469
86079W        W59147   6.767  36.560  13.467
86080W        W59148  16.022  29.032   2.001
86081W        W59149  30.208   3.780   3.611
86082W        W59150  29.716  36.444   2.397
86083W        W59151  22.130  22.676   4.264
86084W        W59152  14.174   0.690   1.360
86085W        W59153   4.888   1.415  10.695
86086W        W59154  38.731  36.681   0.917
86087W        W59155   2.696   2.223  14.528
86088W        W59156  24.815   5.993   1.630
86089W        W59157   8.306   0.498  10.474
86090W        W59158  36.618  12.859  13.974
86091W        W59159   5.195  40.828   1.183
86092W        W59160  33.847  39.988   4.079
86093W        W59161   9.216  43.957   4.400
86094W        W59162  42.998  35.419  14.994
86095W        W59163  40.067  12.544  13.914
86096W        W59164  42.414  17.968   3.255
86097W        W59165  11.780  40.803   3.271
86098W        W59166  29.160   3.944   2.734
86099W        W59167  16.118   8.454   2.717
86100W        W59168  30.609  32.518   2.393
86101W        W59169   6.649  42.433   1.715
86102W        W59170  10.241  13.550   4.223
86103W        W59171  24.093  23.331  11.681
86104W        W59172  13.843  29.811   0.818
86105W        W59173   4.651  11.700   3.196
86106W        W59174  33.057  37.204   1.401
86107W        W59175  31.323  12.769  11.150
86108W        W59176  11.497   0.680   3.735
86109W        W59177  10.438  30.144  14.219
86110W        W59178  33.612  18.794   1.762
86111W        W59179  32.528  35.358   4.576
86112W        W59180   8.381  12.274   3.711
86113W        W59181  11.204  23.574   3.129
86114W        W59182  37.879  30.875  11.992
86115W        W59183   8.258  41.546  12.067
86116W        W59184  10.371   3.793   3.682
86117W        W59185   2.207  23.705   0.690
86118W        W59186  23.811  12.868   2.295
86119W        W59187  13.081  43.287  12.090
86120W        W59188  26.667  19.991  12.559
86121W        W59189  15.012  12.600  11.077
86122W        W59190  33.373  30.008   0.907
86123W        W59191  13.661  27.648   2.212
86124W        W59192  19.570   1.985   2.139
86125W        W59193  26.158  44.826  12.480
86126W        W59194  11.612  23.772  14.823
86127W        W59195  27.875  11.840   2.220
86128W        W59196  30.961   2.147   1.809
86129W        W59197  26.118  44.422  13.268
86130W        W59198  33.850  24.623   2.482
86131W        W59199   0.575  31.851   3.768
86132W        W59200  38.077  41.363   0.301
86133W        W59201   0.547  37.458   1.817
86134W        W59202  39.959  33.634   1.724
86135W        W59203  15.285  36.769   2.882
86136W        W59204  30.976  16.366   0.854
86137W        W59205   3.439  15.755   3.157
86138W        W59206  31.864  42.364   0.832
86139W        W59207  31.675  29.082  13.901
86140W        W59208  11.682   6.160  11.925
86141W        W59209  22.542   2.734  12.557
86142W        W59210  37.045  16.233  11.960
86143W        W59211   4.117  23.280   2.697
86144W        W59212  42.465  36.815   3.224
86145W        W59213  21.120  39.369  13.356
86146W        W59214  27.954  32.534   3.708
86147W        W59215  38.436  37.595  12.844
86148W        W59216   4.768  19.255   1.839
86149W        W59217  42.281  39.247   1.422
86150W        W59218  10.796  14.711  12.088
86151W        W59219   9.291  21.217  12.079
86152W        W59220  36.645  13.150   4.555
86153W        W59221  30.615  41.540   0.268
86154W        W59222  27.979  35.095   3.256
86155W        W59223  21.817  18.366  12.391
86156W        W59224   9.539   9.391  11.788
86157W        W59225  41.751  14.228  13.903
86158W        W59226  25.594   0.670  14.329
86159W        W59227  25.536  11.426  12.974
86160W        W59228  40.543   6.055   4.256
86161W        W59229   0.305  16.078   4.103
86162W        W59230  30.416  19.751  12.534
86163W        W59231  38.516  11.299   1.961
86164W        W59232   0.741  25.324   2.768
86165W        W59233  40.483  35.927  11.102
86166W        W59234  18.219  27.973   0.755
86167W        W59235  37.056  21.823  13.876
86168W        W59236   4.163  38.788  10.699
86169W        W59237  28.978  40.856  10.425
86170W        W59238  27.800  28.323  13.933
86171W        W59239  30.277  43.806  11.024
86172W        W59240   9.424   5.105   4.278
86173W        W59241  28.263   5.718  12.000
86174W        W59242  28.440  22.553  13.916
86175W        W59243  39.070  30.387  14.707
86176W        W59244  39.318  10.742   1.298
86177W        W59245  33.587  17.797   4.565
86178W        W59246   4.738  41.175   4.946
86179W        W59247  34.403  19.126  11.740
86180W        W59248  22.657  43.796  11.471
86181W        W59249   0.101  41.612   4.975
86182W        W59250  33.928  21.227  11.230
86183W        W59251   8.248  38.100  10.800
86184W        W59252  40.280   1.028  13.881
86185W        W59253  14.169  19.826   0.374
86186W        W59254   8.271  15.831   0.409
86187W        W59255  17.763  26.567  11.236
86188W        W59256  38.000  43.831   0.869
86189W        W59257  31.028  40.523  11.113
86190W        W59258   7.332   3.770   2.396
86191W        W59259  23.409  43.168   2.220
86192W        W59260   7.295   9.332   3.249
86193W        W59261  25.713   2.253   0.308
86194W        W59262   5.638   9.330   4.339
86195W        W59263  37.873  12.398  12.576
86196W        W59264   6.133  34.471  12.075
86197W        W59265  19.583   7.762   5.001
86198W        W59266  39.034  27.164  13.003
86199W        W59267  24.467   4.475   1.801
86200W        W59268  29.308  32.866   2.081
86201W        W59269  39.002   1.887  13.968
86202W        W59270  36.586  18.209   0.781
86203W        W59271  24.514   0.305  13.498
86204W        W59272   3.276  36.424  11.322
86205W        W59273   0.305   8.671  10.199
86206W        W59274  36.516  25.135   3.496
86207W        W59275  21.589  26.489   3.123
86208W        W59276  30.414   9.151   3.408
86209W        W59277  28.287  36.632   3.273
86210W        W59278  26.205  36.457   0.307
86211W        W59279  43.976  10.103   2.209
86212W        W59280  37.938  20.723   2.703
86213W        W59281  22.749  35.880   0.187
86214W        W59282  21.298  21.173  13.940
86215W        W59283  18.018  20.635   0.540
86216W        W59284  42.988  17.636   4.609
86217W        W59285   8.780  40.817   3.698
86218W        W59286  19.137  16.063  11.206
86219W        W59287  31.080   0.444   1.633
86220W        W59288  24.965   1.044  11.116
86221W        W59289  15.201  41.354  10.722
86222W        W59290   2.391   8.922   1.851
86223W        W59291   6.367  22.032   2.249
86224W        W59292  36.326  36.882   1.460
86225W        W59293  44.157  39.726   2.576
86226W        W59294  35.545  41.296   4.061
86227W        W59295  43.392  31.397  10.516
86228W        W59296  10.296  12.643   0.935
86229W        W59297  34.806  33.839   4.134
86230W        W59298  33.622  12.864  11.255
86231W        W59299  35.268   7.615   2.172
86232W        W59300  32.020  27.883   0.400
86233W        W59301  38.159  26.150  12.089
86234W        W59302  17.656  43.016  13.453
86235W        W59303  41.605  31.568   1.441
86236W        W59304   6.122   4.649   1.415
86237W        W59305   3.008  31.135   3.919
86238W        W59306  34.550  32.184  11.576
86239W        W59307  40.716   7.457   2.232
86240W        W59308   6.750   7.206  13.466
86241W        W59309  25.207  36.157   1.922
86242W        W59310  22.241  34.853  10.602
86243W        W59311  38.613   6.807  14.876
86244W        W59312  16.125  10.366   1.805
86245W        W59313   1.772   5.703  13.011
86246W        W59314  38.625  26.222   0.658
86247W        W59315  31.645  37.118   4.372
86248W        W59316   3.675  41.551  11.032
86249W        W59317   6.944   5.765   2.236
86250W        W59318  19.221  40.581  13.667
86251W        W59319  19.623  28.115   0.913
86252W        W59320  26.585  12.875   5.013
86253W        W59321   7.940  21.672   1.365
86254W        W59322  29.127  43.415   1.131
86255W        W59323  39.036  25.798  12.014
86256W        W59324   5.734  15.812  14.101
86257W        W59325  17.748   2.615   4.192
86258W        W59326   8.665  15.108   0.840
86259W        W59327   9.368  24.097  10.735
86260W        W59328   0.765  12.734   1.961
86261W        W59329  16.152  22.012   2.326
86262W        W59330  22.272  14.688  13.522
86263W        W59331   0.968   0.772  12.835
86264W        W59332  11.621  42.308   3.323
86265W        W59333  27.186  14.850   1.469
86266W        W59334  31.998  14.955  12.954
86267W        W59335  13.626  10.366   5.067
86268W        W59336  22.504  21.964   2.313
86269W        W59337  23.283  24.733  10.816
86270W        W59338  11.635  42.026  13.005
86271W        W59339  24.044   5.288   1.461
86272W        W59340  22.543  14.070  11.308
86273W        W59341  43.710  16.243  12.848
86274W        W59342  42.943  10.583   4.184
86275W        W59343  22.141  10.563  12.065
86276W        W59344   0.492  41.302   3.289
86277W        W59345  26.381  24.616  12.100
86278W        W59346   6.882  13.341   3.929
86279W        W59347  26.278   3.242   1.884
86280W        W59348   5.425  41.031  14.011
86281W        W59349  26.613  36.911  13.404
86282W        W59350   3.278  16.343   4.671
86283W        W59351   3.774  33.289  12.527
86284W        W59352  12.056   3.429  12.872
86285W        W59353  10.742   7.449   0.876
86286W        W59354  43.396  33.866  14.435
86287W        W59355  16.696  26.241  13.386
86288W        W59356  10.257   8.109  12.517
86289W        W59357  12.150   6.206  12.115
86290W        W59358  11.872  34.593  12.814
86291W        W59359  11.738   4.355   3.389
86292W        W59360  23.582   5.821  11.382
86293W        W59361  32.352  17.271  12.555
86294W        W59362   4.387  12.873  11.457
86295W        W59363  25.251  19.735   3.705
86296W        W59364  19.429  22.342  11.512
86297W        W59365   3.844  36.154  13.836
86298W        W59366  34.077  25.676  13.923
86299W        W59367  16.616   7.087   0.696
86300W        W59368  21.054   1.936   3.172
86301W        W59369  37.456  16.146  14.618
86302W        W59370  13.112  34.863   2.470
86303W        W59371  38.402  31.864   4.608
86304W        W59372  25.086   1.497  14.564
86305W        W59373  22.529   5.757   1.353
86306W        W59374  32.849  38.269   2.934
86307W        W59375   6.383  19.820  13.914
86308W        W59376  43.273  22.119  12.509
86309W        W59377  44.914   4.627  12.489
86310W        W59378  30.433  13.701  11.580
86311W        W59379  37.934  42.780   2.736
86312W        W59380  11.587  18.513   2.277
86313W        W59381  10.588  20.252   1.063
86314W        W59382  21.619  16.774   1.265
86315W        W59383  19.725  42.462  11.608
86316W        W59384   0.830  34.060  12.836
86317W        W59385  15.152   8.079   1.327
86318W        W59386  23.953  18.220   2.799
86319W        W59387  24.491   8.302   0.928
86320W        W59388  14.699   5.188   2.311
86321W        W59389  31.373  16.245  11.479
86322W        W59390  20.343  23.549  12.745
86323W        W59391   1.914  10.596  13.062
86324W        W59392  11.413  17.738  11.527
86325W        W59393  30.850  32.160   2.752
86326W        W59394  13.693   6.828  13.536
86327W        W59395  25.591  15.381  11.169
86328W        W59396  24.773  26.209  11.072
86329W        W59397  10.742  39.524  13.342
86330W        W59398  38.732  19.703   0.853
86331W        W59399  25.795   9.647   4.985
86332W        W59400  33.129   4.632   1.427
86333W        W59401  26.939  10.391  12.276
86334W        W59402  42.493  39.531  12.078
86335W        W59403  39.457   8.770   3.242
86336W        W59404  34.479  12.886   3.265
86337W        W59405   6.167  23.013  13.550
86338W        W59406  21.581  35.849  13.591
86339W        W59407  11.130  14.493  14.337
86340W        W59408  42.037  17.078   4.990
86341W        W59409   5.644   6.198   0.560
86342W        W59410   9.068   9.091  14.966
86343W        W59411  34.955  37.633  10.581
86344W        W59412  39.348  36.625  13.271
86345W        W59413   0.547  30.920  12.357
86346W        W59414  15.311  38.539   2.193
86347W        W59415   0.841  11.646   2.633
86348W        W59416   8.674  19.657   2.209
86349W        W59417  26.682  24.552  14.341
86350W        W59418  44.245  26.971  13.356
86351W        W59419  40.015   7.514   4.258
86352W        W59420  29.974  22.988  14.729
86353W        W59421  20.137  16.279   1.344
86354W        W59422  44.820  12.504  14.351
86355W        W59423  28.064  27.026  13.383
86356W        W59424  43.412   3.255   1.894
86357W        W59425   2.601  23.354   4.172
86358W        W59426  27.595  36.977   4.220
86359W        W59427  21.964  16.652  11.505
86360W        W59428  13.912  28.444   0.821
86361W        W59429  12.322  39.920  14.765
86362W        W59430  17.045   3.368  13.113
86363W        W59431   6.952  33.367  12.473
86364W        W59432  14.590  33.473   4.034
86365W        W59433  32.769  12.101   3.219
86366W        W59434  42.445  29.617   3.200
86367W        W59435  35.573  10.238  12.351
86368W        W59436  42.888   8.203   1.780
86369W        W59437   8.366  17.838  14.439
86370W        W59438  35.965  23.925   4.785
86371W        W59439  39.051  20.232   4.874
86372W        W59440  10.437  42.831  12.836
86373W        W59441  35.849  17.914   2.639
86374W        W59442  37.283  36.568  14.815
86375W        W59443  39.151   1.591  12.376
86376W        W59444  24.995  16.201   3.124
86377W        W59445  22.300  33.457  12.069
86378W        W59446  42.027  10.284   4.597
86379W        W59447  26.281  43.440   0.316
86380W        W59448   4.318   3.089  13.306
86381W        W59449  33.833  11.177  13.392
86382W        W59450  29.582  36.752  10.828
86383W        W59451  10.290  21.470  14.457
86384W        W59452  39.572   7.615   0.402
86385W        W59453  44.209  12.647  12.100
86386W        W59454  43.928  22.588   0.777
86387W        W59455   9.338  36.422   4.727
86388W        W59456  12.620  37.807  12.964
86389W        W59457  34.627  18.145   3.371
86390W        W59458  18.636  37.964   2.587
86391W        W59459  40.648  10.484  13.986
86392W        W59460  22.968  39.400  14.747
86393W        W59461  30.410  37.556   1.682
86394W        W59462  40.047   8.744   2.732
86395W        W59463  13.384  35.548  11.113
86396W        W59464  27.637  35.397   2.724
86397W        W59465  20.525  23.252  14.845
86398W        W59466  22.768  11.512   1.127
86399W        W59467  39.518  34.030   3.190
86400W        W59468  29.752  42.965   4.260
86401W        W59469  14.768  14.821   1.268
86402W        W59470   3.522  43.364   0.447
86403W        W59471   4.882  10.216   1.909
86404W        W59472   5.245  37.280  14.189
86405W        W59473  25.715   5.148  11.528
86406W        W59474  35.578  20.490  12.404
86407W        W59475  12.279  44.479   0.799
86408W        W59476  38.786  22.439   0.757
86409W        W59477  29.286  37.484   4.143
86410W        W59478  16.472  43.949  14.863
86411W        W59479  31.206  20.243  12.453
86412W        W59480   2.884  31.841  14.915
86413W        W59481  10.850  27.775   3.428
86414W        W59482  26.934  21.012  12.403
86415W        W59483  13.819  42.386   3.866
86416W        W59484   0.490   4.868  14.883
86417W        W59485  16.503   0.303   3.273
86418W        W59486   7.388   2.258  14.259
86419W        W59487  11.993   8.163   1.343
86420W        W59488  40.227  27.071   3.557
86421W        W59489   4.907  24.004  13.915
86422W        W59490   2.302   6.695   4.332
86423W        W59491  30.066  18.104  13.372
86424W        W59492  19.656  12.165   2.025
86425W        W59493  32.381   7.916   4.203
86426W        W59494  33.076  27.564  12.071
86427W        W59495  10.379  44.701  10.215
86428W        W59496  39.902  27.994   2.770
86429W        W59497  35.998  16.580   3.241
86430W        W59498   4.315  38.860  12.406
86431W        W59499  16.648   9.394   1.768
86432W        W59500  44.414  42.735  14.327
86433W        W59501   6.469  30.731   3.135
86434W        W59502   6.551  11.734  12.937
86435W        W59503  20.495  25.969  10.784
86436W        W59504   5.420   7.286   4.998
86437W        W59505  17.672   2.285  10.843
86438W        W59506   5.751  43.840   4.495
86439W        W59507  29.445  35.612   4.245
86440W        W59508  22.997  21.342  12.423
86441W        W59509  12.834   0.758   3.311
86442W        W59510  29.525  12.344  13.323
86443W        W59511  16.754  30.636   2.425
86444W        W59512  37.987  18.199  14.223
86445W        W59513  32.886  17.007  13.920
86446W        W59514  27.498  16.764  11.421
86447W        W59515   1.710  29.128   0.861
86448W        W59516  35.076  32.332   0.335
86449W        W59517   1.996   3.368   3.742
86450W        W59518  36.606   9.742  10.519
86451W        W59519  16.552  41.378  10.944
86452W        W59520  26.442  21.293  13.841
86453W        W59521  35.064   9.108   0.239
86454W        W59522  11.102  35.833   1.923
86455W        W59523  38.087   6.248   2.646
86456W        W59524  12.178  13.066  11.517
86457W        W59525  13.713  15.607   0.742
86458W        W59526  43.368  34.923   4.337
86459W        W59527  19.617  13.405  11.382
86460W        W59528  14.187   5.375  14.651
86461W        W59529  31.457  29.641  13.037
86462W        W59530  35.565   1.948   4.097
86463W        W59531  39.575  30.141   4.193
86464W        W59532  40.318  32.863  14.955
86465W        W59533   9.606   8.672   3.322
86466W        W59534   6.677  37.572   2.296
86467W        W59535   2.223  19.869  14.294
86468W        W59536  38.546   4.440   4.492
86469W        W59537  41.492  19.705  12.497
86470W        W59538  42.300   6.164  14.557
86471W        W59539   5.132   8.570  12.003
86472W        W59540  38.873  16.069  14.301
86473W        W59541  25.131  17.184   4.109
86474W        W59542   8.666  15.602  13.826
86475W        W59543   5.775   2.959   0.171
86476W        W59544   3.816  21.376  11.999
86477W        W59545  21.632  25.946   3.853
86478W        W59546  36.182  44.100   1.356
86479W        W59547   1.301  40.358  11.428
86480W        W59548  38.508  23.237  14.739
86481W        W59549  44.775  26.160  11.970
86482W        W59550   3.948   7.204   2.464
86483W        W59551  24.559   8.292   4.418
86484W        W59552  26.707  26.436   2.825
86485W        W59553   7.698  26.307  11.469
86486W        W59554  34.819   8.585  11.162
86487W        W59555  40.576  34.138   1.274
86488W        W59556  42.466  14.079  13.033
86489W        W59557  25.488   5.223   1.328
86490W        W59558  40.501  43.972  13.679
86491W        W59559  41.971  42.851   0.230
86492W        W59560   3.397   4.752  13.748
86493W        W59561   8.154  38.481   3.722
86494W        W59562  12.233   0.228  14.821
86495W        W59563  43.038  24.677   1.169
86496W        W59564  21.425   4.331  11.119
86497W        W59565  28.044  24.793   3.841
86498W        W59566  30.772  16.557   1.324
86499W        W59567  37.949  18.001  14.735
86500W        W59568  16.356  27.146  14.848
86501W        W59569  20.879   0.626   3.256
86502W        W59570  33.138  37.929   3.216
86503W        W59571  21.708   3.901   4.153
86504W        W59572  17.524  25.474   0.396
86505W        W59573   6.613  39.960  14.691
86506W        W59574  23.607  32.010  14.342
86507W        W59575  20.210  21.234  11.580
86508W        W59576  14.576   1.021   1.459
86509W        W59577  30.500  32.681  10.758
86510W        W59578  33.663  39.056  14.336
86511W        W59579  42.973  33.404   3.299
86512W        W59580  38.510  19.570   2.396
86513W        W59581  26.786   0.687   4.138
86514W        W59582  14.407   4.378  11.861
86515W        W59583  27.230  38.614  14.522
86516W        W59584   0.308  11.720  13.406
86517W        W59585  43.469  13.787   1.940
86518W        W59586  33.916  44.610  14.371
86519W        W59587  10.335  39.464  14.483
86520W        W59588  23.175   6.592   0.425
86521W        W59589  27.047  19.484   5.092
86522W        W59590   3.459  22.431   3.617
86523W        W59591  28.075  13.446  11.087
86524W        W59592  30.690   5.168  10.608
86525W        W59593  10.378   9.488   3.373
86526W        W59594   9.994  15.505  13.420
86527W        W59595   0.436  40.112  12.376
86528W        W59596  30.071  25.908  14.789
86529W        W59597   8.261  14.084  14.265
86530W        W59598  31.445  21.335  11.623
86531W        W59599  27.197  21.859  12.107
86532W        W59600  13.334   1.561   2.734
86533W        W59601  26.462  12.613  14.543
86534W        W59602   1.901  37.706  11.606
86535W        W59603  33.657  11.203  11.091
86536W        W59604  16.810  11.263   2.819
86537W        W59605  31.130  27.177  11.074
86538W        W59606   5.383   9.397  11.362
86539W        W59607  20.700  26.156   4.648
86540W        W59608   6.401   1.808   3.142
86541W        W59609  36.255  32.216  12.837
86542W        W59610  28.613  24.197   4.486
86543W        W59611   3.267  30.051   2.317
86544W        W59612  11.426  42.921   0.466
86545W        W59613  43.950  35.186  11.189
86546W        W59614  31.910  19.004  13.539
86547W        W59615  26.968  17.641  11.589
86548W        W59616  10.397  36.865   2.467
86549W        W59617  22.220  11.645  14.337
86550W        W59618  13.253  17.073   1.686
86551W        W59619  36.117  18.589   0.874
86552W        W59620  20.847   9.716   4.573
86553W        W59621  31.498  22.471  12.244
86554W        W59622   1.651  17.063  12.160
86555W        W59623  31.467  20.213  11.549
86556W        W59624  35.422  38.913  12.340
86557W        W59625  30.917  12.337  14.865
86558W        W59626  30.753  23.753  13.825
86559W        W59627  29.359  12.843  12.619
86560W        W59628  41.291  33.163   3.817
86561W        W59629  11.343  44.570  14.883
86562W        W59630  41.932  28.943  10.204
86563W        W59631  25.463   4.694  11.512
86564W        W59632   3.741  16.223   1.925
86565W        W59633  25.028  41.875  10.595
86566W        W59634  11.109   4.662  14.757
86567W        W59635  17.235  44.178   2.182
86568W        W59636  18.037  16.981  11.552
86569W        W59637  20.904  40.931  11.041
86570W        W59638  28.973   5.471  12.502
86571W        W59639  27.945  33.643   2.891
86572W        W59640  26.073  13.591   1.890
86573W        W59641  10.784  39.273   2.701
86574W        W59642   4.149  10.284  12.579
86575W        W59643  37.052   4.929   4.179
86576W        W59644   7.851  44.221   4.161
86577W        W59645  27.183  21.291  14.473
86578W        W59646  25.935   2.047   2.819
86579W        W59647  21.993  32.050   1.513
86580W        W59648   9.168  38.447   3.700
86581W        W59649  22.016   0.332  13.488
86582W        W59650   5.543   4.723   4.304
86583W        W59651  21.249  40.529  14.423
86584W        W59652  33.430  10.948   1.708
86585W        W59653  34.941  39.226   0.469
86586W        W59654   6.378   6.837   1.397
86587W        W59655  43.990   8.240  11.089
86588W        W59656  26.180  17.497  10.967
86589W        W59657   4.966   1.521  12.082
86590W        W59658  13.507  42.459  11.657
86591W        W59659  29.445  34.581  13.399
86592W        W59660  21.145  26.091   3.686
86593W        W59661   3.843  23.964  13.330
86594W        W59662  39.459   1.253   3.875
86595W        W59663   5.717  26.717   1.267
86596W        W59664  30.624  37.804  11.491
86597W        W59665  32.706  36.098  13.003
86598W        W59666   3.342  43.096  14.900
86599W        W59667   0.911  28.643  12.337
86600W        W59668   0.581  34.620  12.480
86601W        W59669  16.175  32.457  10.607
86602W        W59670  19.787   7.857   4.511
86603W        W59671  15.134  29.675  10.385
86604W        W59672  32.043  29.898   3.193
86605W        W59673  21.873   7.146  11.172
86606W        W59674   0.846  24.470   2.896
86607W        W59675  40.050  33.822  10.587
86608W        W59676  43.093  14.891  11.053
86609W        W59677  31.458  28.017  12.507
86610W        W59678  29.982  36.124  10.605
86611W        W59679  18.012   4.619   3.029
86612W        W59680  32.061  31.021  14.750
86613W        W59681  37.364   6.313  12.913
86614W        W59682   0.999  20.047  14.555
86615W        W59683  20.112  29.196   0.214
86616W        W59684  40.950  23.700   0.442
86617W        W59685   0.855  40.327  14.605
86618W        W59686  21.224  27.851   5.049
86619W        W59687  38.558   0.230  13.357
86620W        W59688  23.572  41.557  11.087
86621W        W59689  41.817  35.410   1.394
86622W        W59690  22.454  32.428  11.755
86623W        W59691  40.236  22.066   1.849
86624W        W59692  21.066  13.295   3.855
86625W        W59693  33.635  28.426   4.522
86626W        W59694  19.128  13.223  11.852
86627W        W59695  36.846   9.664   4.951
86628W        W59696  20.144  12.185   0.004
86629W        W59697  43.818  25.925   2.275
86630W        W59698  34.987   9.377   4.076
86631W        W59699  27.364   3.576  13.344
86632W        W59700  44.918  30.894   0.052
86633W        W59701  34.214  20.148  11.907
86634W        W59702  42.920  27.090  12.996
86635W        W59703  43.939  27.661  11.214
86636W        W59704  33.925  21.480  11.683
86637W        W59705  18.551  28.732  14.012
86638W        W59706  37.292   3.934   2.599
86639W        W59707  15.912  38.965  14.503
86640W        W59708  11.859   9.919  10.494
86641W        W59709  31.969  44.675  14.057
86642W        W59710  28.495  25.057  13.584
86643W        W59711  44.747   2.875   0.518
86644W        W59712  12.728  12.182  12.979
86645W        W59713  11.746  41.235   1.354
86646W        W59714   1.747  16.652  13.667
86647W        W59715  38.032  23.574  13.476
86648W        W59716   7.906   5.158   0.052
86649W        W59717  16.144  34.577   3.531
86650W        W59718  40.471   1.308   3.839
86651W        W59719  43.273   6.067  11.126
86652W        W59720  21.291  33.056   0.824
86653W        W59721  25.512  35.567  14.544
86654W        W59722   0.719  42.684   1.381
86655W        W59723  11.253  39.420   0.266
86656W        W59724  24.036  13.338  13.933
86657W        W59725  24.739  26.865   2.285
86658W        W59726  13.298  43.917   0.904
86659W        W59727  36.143  27.564  10.743
86660W        W59728  19.049  16.883   0.715
86661W        W59729  27.764  40.314  11.633
86662W        W59730  35.068   7.890  12.363
86663W        W59731  41.806  33.930  12.035
86664W        W59732  31.656  36.617   2.649
86665W        W59733  41.384  32.549   2.476
86666W        W59734  21.317   1.700   3.804
86667W        W59735  34.853  34.090   1.993
86668W        W59736  21.300  21.603   3.933
86669W        W59737  20.533  19.149  14.319
86670W        W59738  14.054   6.893   3.779
86671W        W59739  18.207  29.448   0.227
86672W        W59740  39.108   8.736   0.368
86673W        W59741   8.318  19.548   0.742
86674W        W59742  31.116  12.768   1.743
86675W        W59743  37.853  44.247  13.919
86676W        W59744  41.545  42.053   1.369
86677W        W59745   2.909   8.730   3.867
86678W        W59746  26.092  12.815  12.092
86679W        W59747  27.549  33.952   2.691
86680W        W59748  40.847   4.970  13.516
86681W        W59749   5.328  18.865  12.374
86682W        W59750  34.956  12.193   3.741
86683W        W59751  28.042   9.343   3.843
86684W        W59752  20.292   8.667   2.712
86685W        W59753  44.320   0.465  10.123
86686W        W59754  18.724  24.726   0.745
86687W        W59755  17.256  42.771   2.394
86688W        W59756  34.085   3.917  12.412
86689W        W59757  14.274   3.828  14.313
86690W        W59758   4.935  22.679   4.177
86691W        W59759  20.044  14.094   1.402
86692W        W59760  40.893  12.878   2.437
86693W        W59761   0.284  28.532   1.920
86694W        W59762  37.621  12.074  10.985
86695W        W59763  33.832  32.252   2.141
86696W        W59764  16.663   3.635  14.485
86697W        W59765   8.281   7.868   0.964
86698W        W59766   3.793   3.741  12.041
86699W        W59767  31.017   7.553   2.896
86700W        W59768  16.186  16.825  11.606
86701W        W59769  42.819  39.253   3.818
86702W        W59770  21.219  15.614   0.649
86703W        W59771  28.239  30.499  12.000
86704W        W59772   8.945   6.674   4.545
86705W        W59773  31.671  10.277   0.829
86706W        W59774  19.104   5.782   3.731
86707W        W59775  21.014  38.548  10.695
86708W        W59776   0.947   4.298  10.954
86709W        W59777  22.762  15.549  13.218
86710W        W59778  38.909  41.830  13.101
86711W        W59779   0.728  44.056   1.825
86712W        W59780  32.789  39.997   4.143
86713W        W59781   6.702  23.622   1.137
86714W        W59782  38.384  12.765   2.308
86715W        W59783  40.482  42.772   0.693
86716W        W59784  25.028  44.089  13.561
86717W        W59785  19.117  18.957   1.373
86718W        W59786   1.700  28.072  10.662
86719W        W59787   7.597  35.887   0.182
86720W        W59788  32.666   5.187   9.682
86721W        W59789   3.256  42.509  12.186
86722W        W59790  36.608  26.912   4.031
86723W        W59791  31.987  30.880   0.262
86724W        W59792  13.314  34.682  11.280
86725W        W59793  33.528  27.058  12.543
86726W        W59794  41.807  37.273   4.205
86727W        W59795   0.852  30.979   2.821
86728W        W59796   9.248  18.792   4.242
86729W        W59797  25.736  29.773   3.161
86730W        W59798  38.861  25.736  13.452
86731W        W59799  41.883  31.364   2.297
86732W        W59800  10.444  10.688   1.404
86733W        W59801  13.695   9.995   4.053
86734W        W59802  25.618  12.416   9.570
86735W        W59803  23.743  41.842   1.868
86736W        W59804  23.821  35.026  13.760
86737W        W59805  14.277   6.898  11.275
86738W        W59806  33.393  25.217   4.407
86739W        W59807  36.385   5.275  14.087
86740W        W59808  29.892  26.646   0.238
86741W        W59809  22.218  10.160  10.721
86742W        W59810  18.109  35.394  10.396
86743W        W59811  39.498  23.291  13.941
86744W        W59812   9.276  36.518  13.270
86745W        W59813  29.305  14.155  12.856
86746W        W59814  22.565   7.731   4.530
86747W        W59815  35.471  35.062   4.707
86748W        W59816  26.654   5.882   0.147
86749W        W59817  44.274  24.492   0.801
86750W        W59818  22.918   0.187   1.998
86751W        W59819  14.974   8.404   4.811
86752W        W59820  42.038   4.274  13.684
86753W        W59821  43.341  26.133   2.391
86754W        W59822   8.265  23.547   2.063
86755W        W59823  11.519  22.196  14.454
86756W        W59824  41.054  34.057   4.159
86757W        W59825  37.505  26.012  10.752
86758W        W59826  29.216  21.942   3.326
86759W        W59827  36.646   2.291  10.687
86760W        W59828  22.370  32.476   0.300
86761W        W59829  10.506  29.484   3.715
86762W        W59830  32.958  34.611  10.668
86763W        W59831  17.783   0.265  12.171
86764W        W59832   3.261  25.016  11.080
86765W        W59833   7.658  31.473  13.803
86766W        W59834   8.191   5.067  10.693
86767W        W59835   8.022  33.073  12.781
86768W        W59836  30.070   7.343   1.113
86769W        W59837  19.275  23.294  11.151
86770W        W59838  40.432  31.560   2.795
86771W        W59839  11.466  18.114   3.096
86772W        W59840   8.095  19.531   1.601
86773W        W59841  10.664  36.935  12.302
86774W        W59842   0.026  35.450  12.458
86775W        W59843  25.910  22.502  13.342
86776W        W59844  29.372   3.994  12.902
86777W        W59845  36.958  13.370   2.317
86778W        W59846  32.576  30.915  14.864
86779W        W59847   7.360  31.138   3.126
86780W        W59848  33.115  24.487  14.956
86781W        W59849   8.582  16.686   4.667
86782W        W59850   8.376  37.233   4.079
86783W        W59851   7.616  35.415  11.078
86784W        W59852  20.503   7.247  10.719
86785W        W59853  11.171  28.760  11.023
86786W        W59854  35.490  33.159  12.029
86787W        W59855   7.779   9.766   4.830
86788W        W59856  22.429   1.836  13.576
86789W        W59857  20.703  24.573  10.511
86790W        W59858   9.020  18.761   3.699
86791W        W59859  12.793  24.703   1.266
86792W        W59860   0.828  10.120   0.922
86793W        W59861   0.220  12.798   1.960
86794W        W59862  37.963  39.254  11.541
86795W        W59863  35.116  44.992   3.833
86796W        W59864  15.630   7.699  12.672
86797W        W59865  34.433  15.492   2.311
86798W        W59866  13.324  21.589  13.337
86799W        W59867  26.991   5.642   1.819
86800W        W59868  12.273   8.281  12.005
86801W        W59869  34.957   3.832   4.704
86802W        W59870   5.361  18.046   2.569
86803W        W59871   8.227  38.040  11.308
86804W        W59872  17.140  40.438   5.355
86805W        W59873  13.666  40.813   2.464
86806W        W59874  31.503  28.016  14.558
86807W        W59875  16.178  33.369  12.994
86808W        W59876  13.653  11.763  13.252
86809W        W59877  24.256  11.390   0.629
86810W        W59878  43.710  20.667  12.453
86811W        W59879  14.336  20.505   1.721
86812W        W59880   7.808  40.071   3.283
86813W        W59881   9.789  24.572   0.859
86814W        W59882  11.009  36.289  11.037
86815W        W59883  28.056  11.896  13.000
86816W        W59884  44.547  15.400  10.755
86817W        W59885  22.412  24.463   4.174
86818W        W59886  37.408   4.122  11.256
86819W        W59887  37.605  35.161   3.161
86820W        W59888  43.249  43.379  10.896
86821W        W59889  26.280  44.852   4.953
86822W        W59890  36.623   9.011  11.954
86823W        W59891  43.264   7.835  14.180
86824W        W59892  13.116   4.319   4.588
86825W        W59893  22.956   0.494   0.531
86826W        W59894  32.540  39.947   0.175
86827W        W59895  35.305   1.727   3.157
86828W        W59896  25.219  20.669  11.999
86829W        W59897  23.013  20.216   0.770
86830W        W59898  30.946  12.727  12.395
86831W        W59899  23.736  32.485  12.048
86832W        W59900  43.853  25.940   4.754
86833W        W59901  28.289  39.000   2.158
86834W        W59902   9.696  14.202  10.477
86835W        W59903   0.554  14.108   2.585
86836W        W59904  39.451  23.790  11.586
86837W        W59905  20.813  39.200  14.325
86838W        W59906  11.779   8.128  12.876
86839W        W59907  18.813  10.418   1.218
86840W        W59908   3.785  43.276   1.483
86841W        W59909   8.799  31.159  10.583
86842W        W59910  24.081  29.342  11.922
86843W        W59911  27.844  32.248  10.184
86844W        W59912  24.443   8.430   4.897
86845W        W59913  22.023  44.412  13.294
86846W        W59914  16.309   0.320  10.744
86847W        W59915   4.247  34.792   0.390
86848W        W59916   5.675  39.291   3.207
86849W        W59917  23.504  19.616   1.936
86850W        W59918  38.042  28.017   2.643
86851W        W59919  39.347  31.374  12.955
86852W        W59920  38.302  41.651   0.890
86853W        W59921   1.699   1.919   4.331
86854W        W59922  44.784  21.541   0.913
86855W        W59923  42.975  14.666  12.390
86856W        W59924  33.543  13.742  11.554
86857W        W59925   0.814  42.464   0.470
86858W        W59926  15.188  39.814  14.847
86859W        W59927   8.195  36.421  14.297
86860W        W59928  21.502  13.902   1.883
86861W        W59929  21.215  20.152   2.262
86862W        W59930   1.551  29.503   2.036
86863W        W59931  43.318  21.151  10.885
86864W        W59932  13.801  36.572   4.633
86865W        W59933  40.095  27.478  10.827
86866W        W59934  28.577  22.585   3.145
86867W        W59935  25.101  36.575   1.110
86868W        W59936  44.083  44.128  11.101
86869W        W59937   3.983  24.764  12.093
86870W        W59938  36.566   0.819  13.150
86871W        W59939  36.910   7.194   0.261
86872W        W59940  20.257   2.082  13.391
86873W        W59941  33.847  22.957   2.713
86874W        W59942  14.172  28.262   1.785
86875W        W59943  43.476   6.337   0.061
86876W        W59944  25.249  15.700  14.251
86877W        W59945  38.540   2.471   0.717
86878W        W59946  44.460  30.087  11.184
86879W        W59947  25.752  19.209   0.873
86880W        W59948  12.647  33.346  13.431
86881W        W59949  17.143  37.938  12.939
86882W        W59950  42.805  41.082   3.568
86883W        W59951  26.230   6.444   0.602
86884W        W59952  35.827   8.922   4.629
86885W        W59953  36.391  27.012  13.100
86886W        W59954   8.354  41.080  10.265
86887W        W59955  36.305  27.573   4.553
86888W        W59956   4.967  29.374  12.015
86889W        W59957  11.015  28.175  11.731
86890W        W59958   0.692  14.063  11.178
86891W        W59959  17.350  37.144  11.666
86892W        W59960   8.342  32.847  12.445
86893W        W59961  42.160  25.694   4.101
86894W        W59962  16.240  14.157  10.710
86895W        W59963   7.695  38.644   1.229
86896W        W59964   0.512  20.308   4.026
86897W        W59965  21.729  12.285  14.551
86898W        W59966  14.957  17.345  12.167
86899W        W59967   8.439  19.270   3.404
86900W        W59968  30.081  27.969   1.041
86901W        W59969  20.644  22.906   3.804
86902W        W59970  30.689  31.596  11.496
86903W        W59971  44.252  14.594   2.824
86904W        W59972  29.092  15.490   2.347
86905W        W59973  15.744  12.208   1.144
86906W        W59974   4.804  28.545   3.844
86907W        W59975  19.569  19.852  12.049
86908W        W59976  42.447  39.795  11.499
86909W        W59977  25.605   8.916  10.758
86910W        W59978  28.590  27.436   0.425
86911W        W59979  24.702  24.355  12.071
86912W        W59980  21.654   2.457   0.621
86913W        W59981  18.583  44.456   2.880
86914W        W59982  37.082  18.954  13.541
86915W        W59983   3.661   7.129  10.785
86916W        W59984  27.531  43.942  12.425
86917W        W59985  31.531  41.718  12.959
86918W        W59986   2.799  34.821   0.746
86919W        W59987  42.372  24.411   2.332
86920W        W59988  13.327  28.500   2.415
86921W        W59989  13.110  23.654  11.650
86922W        W59990  30.416   4.777  10.820
86923W        W59991  18.651  38.064   4.626
86924W        W59992  11.941  39.967  13.006
86925W        W59993  40.483   2.191   0.902
86926W        W59994  13.287   2.859   1.941
86927W        W59995  25.430  29.060  12.940
86928W        W59996  38.782  32.742   0.986
86929W        W59997  11.172  31.069   4.149
86930W        W59998  35.237  15.257   4.797
86931W        W59999  26.078   8.881   2.431
86932W        W60000  22.571  17.397   0.974
86933W        W60001  24.146  24.093  10.975
86934W        W60002  44.826  14.847  14.947
86935W        W60003  16.954  14.673  14.367
86936W        W60004  42.842  19.560  14.828
86937W        W60005  30.636  12.323   0.323
86938W        W60006  35.257   7.630  11.978
86939W        W60007   8.723   0.229  13.077
86940W        W60008   6.425  33.093  12.051
86941W        W60009  18.815  21.136   5.139
86942W        W60010  39.086  42.034   2.758
86943W        W60011  14.617  29.487   1.601
86944W        W60012  39.825  23.404   2.734
86945W        W60013   8.895  44.831   3.439
86946W        W60014  35.067   1.219   1.750
86947W        W60015  10.921  33.305   1.746
86948W        W60016   9.785  34.441  14.928
86949W        W60017   3.425   5.637  10.710
86950W        W60018   4.916  32.383  14.565
86951W        W60019  40.189  30.663  11.190
86952W        W60020   9.737  19.616  14.870
86953W        W60021   3.254   3.459   3.117
86954W        W60022   6.842  30.612   2.268
86955W        W60023  27.132  16.238  14.974
86956W        W60024  16.924  27.319   4.197
86957W        W60025  14.597   0.495   3.617
86958W        W60026  34.536  13.089  13.331
86959W        W60027  19.759  38.992   1.350
86960W        W60028   1.968  10.273  11.640
86961W        W60029  27.036  28.264  14.754
86962W        W60030   5.822   5.402   3.470
86963W        W60031   6.018  14.139  13.527
86964W        W60032  14.369   0.430   3.158
86965W        W60033  44.275  21.500   0.816
86966W        W60034  17.737  22.082  11.038
86967W        W60035  28.578  18.700   0.271
86968W        W60036  34.576  27.022   0.570
86969W        W60037  19.463  26.644   3.654
86970W        W60038  30.517  29.737   2.699
86971W        W60039   5.226  19.827  10.647
86972W        W60040  16.122   8.074  13.815
86973W        W60041  15.266  44.098   1.050
86974W        W60042  18.242   6.215   0.421
86975W        W60043  44.820  30.672  10.689
86976W        W60044  22.969   8.614   1.875
86977W        W60045  14.631  44.021  10.534
86978W        W60046  26.769  40.562   0.278
86979W        W60047   7.246  33.180   0.032
86980W        W60048  22.647   2.697  10.642
86981W        W60049  36.494  30.174   2.230
86982W        W60050   2.948   4.908  12.296
86983W        W60051  36.581  44.845   2.500
86984W        W60052  38.959  41.364   0.824
86985W        W60053  43.556  18.722   0.243
86986W        W60054  32.135  40.475  10.374
86987W        W60055  44.572   3.312  12.607
86988W        W60056  30.859   7.259  14.046
86989W        W60057  32.380  37.460   0.365
86990W        W60058   1.855  44.735   3.241
86991W        W60059  13.749  30.454  12.982
86992W        W60060  41.786   4.677  12.462
86993W        W60061   4.523   3.264   3.822
86994W        W60062  10.654  24.943   1.673
86995W        W60063  35.865  27.480  12.912
86996W        W60064  21.719  14.208  13.096
86997W        W60065  10.714  20.895   3.683
86998W        W60066  43.998  43.095  10.988
86999W        W60067  40.466   2.363   1.437
87000W        W60068  12.566   2.295  12.966
87001W        W60069   0.475  43.675   0.428
87002W        W60070   1.446  23.810   0.169
87003W        W60071  35.984  23.636   1.193
87004W        W60072  14.649  43.248   3.796
87005W        W60073  31.652  12.609  12.765
87006W        W60074   4.298  25.989   3.753
87007W        W60075  27.422  24.114  11.033
87008W        W60076   9.695  35.844  11.676
87009W        W60077  33.631   5.501   3.238
87010W        W60078  20.968   6.629  13.980
87011W        W60079   4.941   5.208  14.223
87012W        W60080  43.101  27.025  13.946
87013W        W60081  18.534   1.166   1.591
87014W        W60082  38.549  31.893   1.272
87015W        W60083  44.335  40.872   4.705
87016W        W60084  27.915  13.763  12.977
87017W        W60085   8.121   8.687   5.108
87018W        W60086  41.578  31.049  11.473
87019W        W60087  23.439  39.417   1.390
87020W        W60088  39.578   0.287   3.647
87021W        W60089  14.062  12.725  13.036
87022W        W60090  12.597  29.955  12.355
87023W        W60091  42.356  33.301  12.890
87024W        W60092  29.404  34.971  10.589
87025W        W60093  29.620  11.158  12.507
87026W        W60094  44.532  30.723  12.017
87027W        W60095  39.778   4.164  12.939
87028W        W60096  15.154  13.021   3.451
87029W        W60097   7.804  13.071   4.661
87030W        W60098   2.379   3.142  10.432
87031W        W60099  30.393  20.453  12.090
87032W        W60100  38.112  10.266  14.313
87033W        W60101   2.978   7.890   2.670
87034W        W60102   4.245  11.872  14.284
87035W        W60103  20.224  16.722   4.356
87036W        W60104   3.340  15.968  14.329
87037W        W60105  37.340  33.662   0.170
87038W        W60106   7.192   5.557   2.659
87039W        W60107   1.505  42.395  14.742
87040W        W60108  29.921  13.628  12.441
87041W        W60109   7.298  40.479  13.822
87042W        W60110  25.674  15.151   1.151
87043W        W60111  42.950  21.525  14.907
87044W        W60112   2.188   2.884  12.083
87045W        W60113   7.435   5.546  12.944
87046W        W60114   3.233  41.410   4.043
87047W        W60115  10.817  10.733  10.546
87048W        W60116   0.197  42.361   4.914
87049W        W60117  33.171  14.066   2.661
87050W        W60118  18.953  25.965   1.907
87051W        W60119   7.650  31.445   2.812
87052W        W60120   0.973  44.430   4.167
87053W        W60121  19.120   8.192   4.633
87054W        W60122  26.652  16.310  10.736
87055W        W60123  41.794  34.369   3.276
87056W        W60124  12.338  32.515  11.527
87057W        W60125  12.100  18.730  12.936
87058W        W60126   1.985  16.208  13.498
87059W        W60127  17.802  44.544   2.771
87060W        W60128  34.903  44.662  11.972
87061W        W60129  28.587  42.388  11.192
87062W        W60130  15.290  22.952   1.907
87063W        W60131  40.962   0.064  12.738
87064W        W60132  30.384   2.456   0.188
87065W        W60133   6.682   2.923  10.672
87066W        W60134  35.450  21.744   4.871
87067W        W60135   9.679  33.189  11.768
87068W        W60136  24.881  24.744   3.184
87069W        W60137  39.861  34.058  14.492
87070W        W60138   1.030  43.396  13.894
87071W        W60139   3.619  19.821  11.214
87072W        W60140  32.591  40.421   3.367
87073W        W60141  34.259  34.160  11.061
87074W        W60142  16.251  35.569   1.858
87075W        W60143  21.611  23.473  13.476
87076W        W60144  33.939  32.912   4.745
87077W        W60145  29.962  44.305  13.351
87078W        W60146  20.488  20.202  14.529
87079W        W60147  42.859  26.011  13.918
87080W        W60148  39.291  11.212   3.645
87081W        W60149  26.438  23.603   2.943
87082W        W60150  41.648  39.843   4.315
87083W        W60151  15.182  36.795   1.443
87084W        W60152  32.417  19.111   4.534
87085W        W60153  38.278  38.425  14.775
87086W        W60154   4.494  41.847   4.229
87087W        W60155  32.358   6.024  12.901
87088W        W60156  37.971  21.922  14.026
87089W        W60157  27.190  14.684  11.137
87090W        W60158   8.742   8.530  11.776
87091W        W60159  13.298  11.832  14.458
87092W        W60160   8.605  35.523   4.637
87093W        W60161   8.873  34.286  14.954
87094W        W60162  28.612   3.304   0.140
87095W        W60163  44.764  20.736   2.769
87096W        W60164  44.437  22.238   3.174
87097W        W60165  13.113  32.445   3.514
87098W        W60166  11.342  43.403  13.082
87099W        W60167  13.260  43.098   0.313
87100W        W60168  41.837  18.150   4.098
87101W        W60169  30.176  12.995  10.654
87102W        W60170  12.314  31.074   2.146
87103W        W60171  28.388  16.655   3.154
87104W        W60172  23.462   3.396   0.921
87105W        W60173  17.733  19.699   3.280
87106W        W60174  13.850  16.233  14.583
87107W        W60175   7.843  25.212   5.085
87108W        W60176  31.571  31.292  14.478
87109W        W60177  44.783  21.717  13.815
87110W        W60178  31.538  43.316   0.313
87111W        W60179  40.468   3.740  11.220
87112W        W60180  27.265  24.044  14.880
87113W        W60181  33.831  44.497  10.080
87114W        W60182  25.605   4.850   3.739
87115W        W60183  25.681  32.094   3.631
87116W        W60184   4.175  14.747   3.277
87117W        W60185  12.797  23.503   2.804
87118W        W60186  16.804  26.663  10.258
87119W        W60187  22.199  17.027  12.434
87120W        W60188  38.426  28.064   2.986
87121W        W60189  35.625  13.597  14.312
87122W        W60190  11.323  19.162   9.780
87123W        W60191  38.076  41.666  13.016
87124W        W60192   2.995  35.523  14.366
87125W        W60193  24.739  38.376   3.186
87126W        W60194  39.994  32.536  14.709
87127W        W60195  43.007  10.763   2.175
87128W        W60196  41.820  41.804   1.722
87129W        W60197  23.490  16.559   1.781
87130W        W60198  29.472   8.242  13.548
87131W        W60199  22.049  21.108  11.112
87132W        W60200  33.989  40.968   4.822
87133W        W60201   7.556   2.962  14.451
87134W        W60202  11.177  12.799   0.395
87135W        W60203  25.907  43.510  11.809
87136W        W60204  41.443  30.089  10.815
87137W        W60205  34.648  11.773   1.459
87138W        W60206  21.548  30.470   4.803
87139W        W60207   7.653  19.998  13.314
87140W        W60208  31.500  24.201   2.767
87141W        W60209  11.801   9.256  13.850
87142W        W60210  38.737  35.558   4.213
87143W        W60211   6.978  12.107   0.395
87144W        W60212  36.089  10.619   3.910
87145W        W60213  33.215  25.048   2.580
87146W        W60214  34.035  35.384   1.466
87147W        W60215  10.356  43.789   0.751
87148W        W60216   1.184  24.110   3.701
87149W        W60217  23.571   6.275  12.167
87150W        W60218  39.962  14.594  11.493
87151W        W60219  40.041  13.938   5.259
87152W        W60220  32.068  12.179  11.111
87153W        W60221   5.176  13.142  13.535
87154W        W60222   8.580  31.124   0.198
87155W        W60223  13.310  33.042  12.809
87156W        W60224  28.691   0.886  10.988
87157W        W60225  15.412  40.059  10.347
87158W        W60226  20.008  10.422  12.931
87159W        W60227   6.347   9.308  10.845
87160W        W60228  40.625  17.994   3.398
87161W        W60229  15.275   6.888   4.643
87162W        W60230   9.379  10.670  12.606
87163W        W60231  20.202  44.976  10.873
87164W        W60232   7.843   9.362   0.486
87165W        W60233  43.530  24.998  14.425
87166W        W60234   1.273   3.717  12.899
87167W        W60235  11.785  15.356   3.053
87168W        W60236  16.228  16.213   4.508
87169W        W60237  35.020  43.417   1.181
87170W        W60238   0.974  37.250  11.580
87171W        W60239  15.254  36.507   3.376
87172W        W60240  17.630  27.714   1.816
87173W        W60241  21.510  44.354   3.299
87174W        W60242  42.607  31.118  12.591
87175W        W60243  13.298  20.540  12.432
87176W        W60244  30.955  21.658   4.660
87177W        W60245  29.497   5.481  11.184
87178W        W60246   5.159  17.817   1.307
87179W        W60247   5.315  34.755   2.599
87180W        W60248  23.505  18.316  11.575
87181W        W60249  16.743  33.138  12.601
87182W        W60250   4.194  11.246  12.530
87183W        W60251   4.209   8.849   3.305
87184W        W60252  35.532   7.722   1.727
87185W        W60253  40.821  22.682  11.199
87186W        W60254  35.285   6.374  14.721
87187W        W60255  44.994   1.132   2.655
87188W        W60256  33.745  28.430   3.812
87189W        W60257  26.536   2.757  12.578
87190W        W60258  22.234  15.917  13.818
87191W        W60259  23.965  12.185   3.281
87192W        W60260  43.262  30.509  11.531
87193W        W60261   4.892  18.029  12.467
87194W        W60262   1.708   8.783  13.348
87195W        W60263  42.829   9.666  10.758
87196W        W60264  16.849   0.969   3.102
87197W        W60265   0.368  32.887  14.584
87198W        W60266   1.727  37.456   2.723
87199W        W60267  16.787  28.043  12.445
87200W        W60268   7.603  10.557  12.942
87201W        W60269  29.951  27.785  10.745
87202W        W60270  17.000  27.544  12.532
87203W        W60271   4.464   7.259   2.413
87204W        W60272  32.520   5.196  13.405
87205W        W60273  40.352  15.606  13.399
87206W        W60274  25.200  36.831  14.390
87207W        W60275  43.248  15.544   0.384
87208W        W60276  34.384   0.360   0.373
87209W        W60277  23.131  42.270  10.694
87210W        W60278  38.820  41.008   3.830
87211W        W60279  20.287  29.386  14.282
87212W        W60280  42.429  21.425   0.675
87213W        W60281  36.946  35.042   4.759
87214W        W60282   7.240   0.706  11.376
87215W        W60283  32.661  42.769   2.840
87216W        W60284  14.243  40.381   3.178
87217W        W60285  34.628  31.355  13.879
87218W        W60286   2.188  38.013   0.963
87219W        W60287  43.984  35.115  13.487
87220W        W60288  41.922  36.581  13.080
87221W        W60289  35.705  29.542  13.815
87222W        W60290  41.795  37.880   1.919
87223W        W60291  32.647  17.277   4.663
87224W        W60292  42.009  23.530   3.296
87225W        W60293  33.101  21.298   4.612
87226W        W60294  10.647  24.260   3.611
87227W        W60295   2.742  34.734  11.511
87228W        W60296   7.868   7.943   2.910
87229W        W60297  35.563   7.539  13.408
87230W        W60298  24.560  44.372  10.663
87231W        W60299  34.412  35.469  11.119
87232W        W60300  23.104   7.555   3.206
87233W        W60301  19.999   4.650  12.581
87234W        W60302  36.416  29.126  11.577
87235W        W60303  21.611  17.065   0.804
87236W        W60304  30.577  19.728   3.700
87237W        W60305   0.631  25.823   2.709
87238W        W60306  43.534   9.860   1.379
87239W        W60307  38.488  18.765   1.192
87240W        W60308  22.680  16.544   4.242
87241W        W60309  42.564  10.243   3.231
87242W        W60310   0.433  40.064   0.379
87243W        W60311  38.372  25.933   1.680
87244W        W60312  36.827  20.558   4.131
87245W        W60313  41.053   3.349   3.193
87246W        W60314  22.030  21.297  12.437
87247W        W60315  32.996  37.271  12.721
87248W        W60316  15.884  17.681   1.727
87249W        W60317  36.454   9.349  11.193
87250W        W60318  17.684  13.565   3.505
87251W        W60319  35.112  10.454   0.773
87252W        W60320  19.571  41.503   2.228
87253W        W60321  11.491  40.926  10.110
87254W        W60322  15.887  17.641  14.769
87255W        W60323  15.645  27.726  13.401
87256W        W60324  23.055   2.920   1.634
87257W        W60325   0.779  29.491  11.993
87258W        W60326   0.088  34.211   3.736
87259W        W60327  19.774   6.280  12.114
87260W        W60328  30.980   4.258   4.127
87261W        W60329  20.671  22.760  13.936
87262W        W60330  20.327  23.615  10.791
87263W        W60331  43.283   9.683   2.725
87264W        W60332  35.152   5.810   0.849
87265W        W60333  14.568   3.832  11.109
87266W        W60334   0.780  43.891  13.072
87267W        W60335   6.786  26.664  10.277
87268W        W60336   0.642  11.861   3.705
87269W        W60337  22.064  12.635   0.811
87270W        W60338  13.354  30.966   3.302
87271W        W60339  12.018  29.510  12.869
87272W        W60340  33.395  13.620  14.322
87273W        W60341  16.631  19.635   3.898
87274W        W60342  24.603  23.425  11.159
87275W        W60343  24.194  25.105   4.909
87276W        W60344  43.866  29.872   3.363
87277W        W60345  27.593  26.624  13.800
87278W        W60346  30.218  26.852   0.750
87279W        W60347   7.820  33.068   2.139
87280W        W60348   7.918  39.383  13.020
87281W        W60349  26.065   9.410   0.794
87282W        W60350  14.363  31.837   0.705
87283W        W60351  20.228  17.801   2.309
87284W        W60352  30.207  17.720   1.434
87285W        W60353  21.818  25.392   0.629
87286W        W60354  22.903  32.189   0.781
87287W        W60355  18.147  38.969   0.040
87288W        W60356   7.271   0.435  13.378
87289W        W60357   0.240   6.585   0.425
87290W        W60358  36.611  18.609  14.916
87291W        W60359  39.790   1.277   4.255
87292W        W60360  42.960  19.568   0.859
87293W        W60361   4.065  24.541  14.005
87294W        W60362  31.648  38.298  12.621
87295W        W60363  40.565   6.622  12.919
87296W        W60364  42.135  16.325   1.242
87297W        W60365  18.937  27.252  11.972
87298W        W60366  24.261   9.002  10.211
87299W        W60367  32.969  41.355   4.409
87300W        W60368  31.659   7.789  13.110
87301W        W60369  43.352  20.155   2.746
87302W        W60370  40.485  22.702   9.945
87303W        W60371  42.679  12.175   2.156
87304W        W60372  14.691  11.333   3.746
87305W        W60373  12.178  42.450   1.795
87306W        W60374  32.631  36.410   2.819
87307W        W60375  31.883   8.734   4.110
87308W        W60376  16.092  39.483  13.274
87309W        W60377  19.515  21.084   1.409
87310W        W60378  11.219  35.326   2.665
87311W        W60379  24.658  13.721   1.435
87312W        W60380  22.788   2.458   4.131
87313W        W60381   1.729   9.418   2.738
87314W        W60382   9.117   4.194   4.133
87315W        W60383  13.474  34.751  10.458
87316W        W60384  27.863  11.845   3.214
87317W        W60385  38.872  14.355  11.258
87318W        W60386  40.011  43.981  13.894
87319W        W60387   9.203  12.594  11.205
87320W        W60388  11.672  19.405   0.809
87321W        W60389  16.634  17.241   1.966
87322W        W60390  44.952  28.239  11.049
87323W        W60391  39.761   2.025   0.430
87324W        W60392  16.733   1.515   2.279
87325W        W60393  30.640  11.803   0.282
87326W        W60394  25.023  27.846  11.598
87327W        W60395   0.422   0.142   4.181
87328W        W60396  17.265   1.107  14.065
87329W        W60397  29.207  28.455  12.989
87330W        W60398   8.687  42.067  14.819
87331W        W60399  24.897   1.680  11.964
87332W        W60400   6.241  28.718   0.682
87333W        W60401  42.006  18.588   0.770
87334W        W60402  17.706  34.084   0.959
87335W        W60403  32.368  30.031   1.784
87336W        W60404  36.615  35.585  14.303
87337W        W60405   3.296  22.728   4.511
87338W        W60406  13.558   9.306  11.980
87339W        W60407  25.916  40.768   0.455
87340W        W60408  25.034  42.461   0.187
87341W        W60409  23.620   6.599   2.364
87342W        W60410  22.138  23.769  11.063
87343W        W60411  41.560  20.989  12.895
87344W        W60412   8.166  11.218   2.275
87345W        W60413  36.178  21.503  11.134
87346W        W60414  22.028  44.719   1.020
87347W        W60415   1.446   0.043  13.988
87348W        W60416  21.485  18.666  14.567
87349W        W60417   7.685  18.991   2.910
87350W        W60418  25.874  15.622  10.558
87351W        W60419  12.632  34.678   2.189
87352W        W60420   3.682  31.561   0.526
87353W        W60421   8.733  37.593  14.722
87354W        W60422  27.128  44.133   4.941
87355W        W60423  22.145  22.074   3.648
87356W        W60424  36.021  24.757   0.336
87357W        W60425  29.360  37.663   2.738
87358W        W60426   0.442   1.538  11.985
87359W        W60427  26.458  33.514   1.291
87360W        W60428  14.468  39.116  14.795
87361W        W60429  31.850  17.262  13.974
87362W        W60430   4.477  38.004   2.861
87363W        W60431  16.820  11.671   0.699
87364W        W60432  26.628  33.740  11.577
87365W        W60433   2.868  43.383  10.695
87366W        W60434  23.108  24.018  12.983
87367W        W60435  33.860  41.514   0.922
87368W        W60436  33.087  13.277   0.470
87369W        W60437   0.883  21.693   0.307
87370W        W60438  37.733  30.859   4.210
87371W        W60439   9.383   8.236   3.708
87372W        W60440  18.504   8.717  14.887
87373W        W60441  44.937  27.462  10.692
87374W        W60442  37.038  31.010   2.217
87375W        W60443   7.875   5.691  14.356
87376W        W60444   7.600  11.282   3.898
87377W        W60445  11.804  40.828   1.669
87378W        W60446  35.548  35.086  13.569
87379W        W60447  26.995  41.794  11.175
87380W        W60448  41.076  11.736  11.050
87381W        W60449   0.802  11.183   2.420
87382W        W60450   8.018  36.765   0.481
87383W        W60451  16.270  36.460  10.641
87384W        W60452  37.649  18.128   4.603
87385W        W60453   0.875  23.126  14.789
87386W        W60454  36.951   6.959  13.843
87387W        W60455  42.357  43.454  10.297
87388W        W60456  31.547  40.880  10.573
87389W        W60457  29.691  25.595   2.772
87390W        W60458  33.105  11.932   0.242
87391W        W60459  13.097  22.747   2.364
87392W        W60460   5.393  25.223  12.619
87393W        W60461   6.210  15.667  11.065
87394W        W60462  40.358  30.571  10.467
87395W        W60463  38.112  24.819   4.538
87396W        W60464   9.385  30.064   2.995
87397W        W60465  21.123   9.904  13.560
87398W        W60466  44.480   2.215   4.591
87399W        W60467   9.228  32.025   0.810
87400W        W60468  19.022  40.950   4.218
87401W        W60469  27.062  42.325   4.504
87402W        W60470   3.166  12.212  13.809
87403W        W60471  44.940  42.955   2.174
87404W        W60472  24.778   7.447  10.998
87405W        W60473  12.579  31.444  11.561
87406W        W60474  10.263   0.381   0.926
87407W        W60475  24.185  10.456   0.380
87408W        W60476  17.803  28.186   3.803
87409W        W60477  33.125  32.005   3.681
87410W        W60478  19.224  40.193  12.871
87411W        W60479  21.959   9.764  14.333
87412W        W60480  14.871  25.174  13.977
87413W        W60481  11.778   0.956  11.487
87414W        W60482  10.953  33.864  11.956
87415W        W60483  14.690  25.221  11.650
87416W        W60484   0.570  27.290   1.165
87417W        W60485  40.847  41.445  14.841
87418W        W60486  37.304  14.745   2.305
87419W        W60487  37.539   3.815   4.058
87420W        W60488  35.401  10.855  10.672
87421W        W60489  22.228  38.167   2.923
87422W        W60490   6.424  17.349  10.966
87423W        W60491  44.004  31.009  10.311
87424W        W60492  40.809  12.672  11.581
87425W        W60493  13.514   3.402  14.304
87426W        W60494  15.183  24.215  13.479
87427W        W60495  29.568  10.208   5.151
87428W        W60496  24.287   6.839  11.997
87429W        W60497   3.248   0.335  12.086
87430W        W60498   5.523  42.386   3.362
87431W        W60499   6.398  28.738   1.511
87432W        W60500  31.337  40.285   3.246
87433W        W60501  16.508   3.963   2.673
87434W        W60502  43.540   5.112   4.425
87435W        W60503  32.287   0.689   3.666
87436W        W60504  22.807  15.440  11.028
87437W        W60505  40.042  10.273   2.777
87438W        W60506  26.003  19.123  12.853
87439W        W60507  25.593  31.337  13.890
87440W        W60508  17.070   9.714   3.236
87441W        W60509   1.417   2.172   1.370
87442W        W60510   6.336   3.470  14.610
87443W        W60511  14.783  42.369   4.693
87444W        W60512  39.938  26.218  14.064
87445W        W60513  20.222  27.026  13.989
87446W        W60514  12.822  33.332  14.898
87447W        W60515  19.983  32.543   3.687
87448W        W60516   3.995  32.827  11.467
87449W        W60517   4.208  31.454  11.593
87450W        W60518  24.906  18.649   2.659
87451W        W60519   7.791   5.240   0.955
87452W        W60520  20.767   1.852  13.475
87453W        W60521  13.741  30.990  13.596
87454W        W60522  14.284  34.947   3.241
87455W        W60523   0.412  34.128   2.176
87456W        W60524   8.700  32.352   3.720
87457W        W60525  28.897  15.259   3.215
87458W        W60526  37.469  22.303  10.150
87459W        W60527  41.017   7.862   0.881
87460W        W60528   9.093  44.465  14.883
87461W        W60529  28.107  10.536  14.929
87462W        W60530  30.118  21.463  13.500
87463W        W60531  25.997   5.430  14.986
87464W        W60532  43.634   5.715  12.431
87465W        W60533   0.813  33.974   4.486
87466W        W60534   5.207  36.532   4.675
87467W        W60535  24.579  23.831  12.075
87468W        W60536  21.514   8.091  14.270
87469W        W60537  28.228   6.167   1.667
87470W        W60538  44.518  36.950   3.060
87471W        W60539  34.253  19.106   3.342
87472W        W60540  19.176  42.935   3.071
87473W        W60541  43.282  17.258  11.968
87474W        W60542  21.787  38.112  13.835
87475W        W60543  15.770  42.308   0.711
87476W        W60544   7.374  42.007   4.128
87477W        W60545  29.413  40.932   4.738
87478W        W60546  21.412  11.212   0.964
87479W        W60547  34.010  15.804   2.217
87480W        W60548   1.975   8.775   4.298
87481W        W60549  14.400   8.620   2.765
87482W        W60550   4.866  33.812  11.071
87483W        W60551  24.126  35.906  10.724
87484W        W60552  28.650  38.847   1.546
87485W        W60553  41.268  10.160  12.396
87486W        W60554  18.713   8.535  10.353
87487W        W60555   7.937  43.353  12.452
87488W        W60556  13.564  32.520   2.242
87489W        W60557  16.072  28.086   2.317
87490W        W60558  35.853  23.563   4.107
87491W        W60559  31.088   1.011  11.109
87492W        W60560  26.091  23.502   2.563
87493W        W60561   8.260  15.842  13.566
87494W        W60562  32.880  26.781  13.063
87495W        W60563  41.307  14.113  14.883
87496W        W60564  36.025  20.363   0.322
87497W        W60565  38.472   8.172  13.003
87498W        W60566   2.702  42.039  13.885
87499W        W60567  17.799  16.121   4.680
87500W        W60568  17.856  20.751  11.601
87501W        W60569  26.172  42.084  13.523
87502W        W60570  38.048  36.624   4.049
87503W        W60571  43.409  35.728   0.736
87504W        W60572  28.981   9.334   0.287
87505W        W60573   7.808   8.406  12.296
87506W        W60574  11.249  26.436  12.502
87507W        W60575  44.633  27.617   2.926
87508W        W60576  11.231  18.790   4.773
87509W        W60577  32.100  20.661  14.093
87510W        W60578  14.410   6.491  14.541
87511W        W60579  36.409  36.164   3.127
87512W        W60580  13.112  21.526   3.801
87513W        W60581  33.145   0.378   4.570
87514W        W60582  20.299  30.694  14.067
87515W        W60583  10.877  17.176  13.412
87516W        W60584  23.892  44.438  12.172
87517W        W60585  14.535   1.843   0.527
87518W        W60586  29.178   5.186  12.901
87519W        W60587   0.464  20.290   2.631
87520W        W60588  22.745  30.472   2.710
87521W        W60589  11.211  16.237  11.217
87522W        W60590   1.714  40.936   4.628
87523W        W60591  19.254  11.143   4.670
87524W        W60592  33.621  24.131   1.357
87525W        W60593  10.612  16.650   1.893
87526W        W60594  38.879  28.240  14.991
87527W        W60595  18.510  15.586  13.964
87528W        W60596  37.127  32.874   3.894
87529W        W60597  30.217   4.435  14.414
87530W        W60598  28.071   6.604   3.954
87531W        W60599   2.800  23.456   1.764
87532W        W60600  40.926  33.124  11.464
87533W        W60601  30.477  30.743   2.759
87534W        W60602  41.333  14.078   4.550
87535W        W60603  11.919  11.606   1.259
87536W        W60604  38.804  44.766  12.944
87537W        W60605  37.104   5.965   2.231
87538W        W60606  17.129  44.950  10.640
87539W        W60607  33.132  16.122   4.152
87540W        W60608   3.833   8.700  10.691
87541W        W60609   5.010   9.824  13.771
87542W        W60610  32.824  40.751   1.209
87543W        W60611  13.056  29.623  14.464
87544W        W60612  42.494  26.250   0.009
87545W        W60613  16.900   4.265   1.198
87546W        W60614  12.127  18.895   4.352
87547W        W60615  34.908   1.831   0.809
87548W        W60616  37.552  21.452  10.992
87549W        W60617  11.856  39.375  13.417
87550W        W60618  28.569  20.657  10.917
87551W        W60619   7.919  11.588  12.834
87552W        W60620  30.422   3.142   4.107
87553W        W60621  30.759   4.296   2.312
87554W        W60622   4.398  32.540  11.263
87555W        W60623   4.732  21.109   9.965
87556W        W60624  43.109  22.137   3.496
87557W        W60625  33.466  16.817   2.637
87558W        W60626  41.269  28.410   1.684
87559W        W60627  17.602  16.598  13.026
87560W        W60628  38.468  27.512   4.187
87561W        W60629  21.071  39.346  11.468
87562W        W60630  41.415  39.866   1.047
87563W        W60631  43.371  41.891   4.280
87564W        W60632   3.344   0.696   3.600
87565W        W60633  25.067  26.002  11.456
87566W        W60634  27.881  43.055   3.607
87567W        W60635  30.383  36.498   1.357
87568W        W60636  40.626  21.444   2.392
87569W        W60637  41.184  43.477   1.101
87570W        W60638  27.078  15.553  11.954
87571W        W60639  22.072  41.557   4.308
87572W        W60640  32.419  28.543  13.153
87573W        W60641  44.213  23.993   0.895
87574W        W60642  31.067  31.472   1.994
87575W        W60643  41.813  27.471  14.291
87576W        W60644   9.440  32.904  14.812
87577W        W60645  30.636  33.021   2.282
87578W        W60646   9.548  15.515  12.405
87579W        W60647   6.625  26.162   2.684
87580W        W60648  40.639  41.519  11.939
87581W        W60649  16.857  24.708   3.487
87582W        W60650  37.079  26.964   1.293
87583W        W60651  21.117  26.403   4.471
87584W        W60652   3.839  36.887  12.755
87585W        W60653  22.617  13.995   5.051
87586W        W60654  30.483  34.205   4.481
87587W        W60655  32.396  32.302  13.627
87588W        W60656  22.813  42.077  11.998
87589W        W60657  18.762  37.850   3.120
87590W        W60658  10.779  33.585   4.612
87591W        W60659  14.699  21.746  10.360
87592W        W60660   7.610   8.538   3.299
87593W        W60661  38.040   6.784  14.884
87594W        W60662  35.972  44.825   3.721
87595W        W60663   0.726  21.095  10.693
87596W        W60664  36.094   6.416  14.267
87597W        W60665  10.729  12.314  14.315
87598W        W60666  19.554  15.212  14.505
87599W        W60667  35.766  37.843  11.595
87600W        W60668   1.879  27.567  12.596
87601W        W60669   2.205  10.237  11.193
87602W        W60670  34.410  39.755  13.386
87603W        W60671  10.177  21.374  11.460
87604W        W60672  12.146  20.640   4.469
87605W        W60673  22.592  42.035  14.182
87606W        W60674  11.110  23.035   1.735
87607W        W60675  33.952  24.788  13.008
87608W        W60676  28.722  39.350   3.388
87609W        W60677   6.619   9.530  10.050
87610W        W60678  36.152  29.707   0.909
87611W        W60679  26.648  39.967  12.858
87612W        W60680  27.701  33.979   3.697
87613W        W60681  41.024  26.688  10.664
87614W        W60682  15.594  36.953  11.222
87615W        W60683   2.216  25.037  13.008
87616W        W60684  17.217  32.180   3.699
87617W        W60685  44.949  42.867  12.794
87618W        W60686  26.445  32.839   0.014
87619W        W60687  33.670  21.674   0.400
87620W        W60688   1.214  23.498   4.172
87621W        W60689  42.576  29.260  14.149
87622W        W60690  21.700  18.294  11.884
87623W        W60691   1.315  33.082  10.909
87624W        W60692   6.114  28.237  11.271
87625W        W60693  41.344  33.926  11.667
87626W        W60694  36.568  37.806  12.013
87627W        W60695  37.822  33.598  12.443
87628W        W60696  37.501  29.692   4.640
87629W        W60697  29.642  19.256  12.098
87630W        W60698  30.431  26.021   1.007
87631W        W60699  40.812   8.981  14.409
87632W        W60700  20.290  15.064   2.606
87633W        W60701  18.574   1.954  13.939
87634W        W60702  35.718  10.629  11.622
87635W        W60703  10.670   4.944   0.926
87636W        W60704  22.521  16.041  13.391
87637W        W60705  23.588  31.456   4.137
87638W        W60706  28.228  34.458   2.781
87639W        W60707   7.296  27.956   3.203
87640W        W60708   1.024   3.436   0.385
87641W        W60709   4.461   2.405   3.550
87642W        W60710  22.703  19.270  11.301
87643W        W60711  41.830  26.425  12.974
87644W        W60712   1.667   1.002   0.210
87645W        W60713  26.193  34.365  14.689
87646W        W60714  42.119   4.599   2.776
87647W        W60715  17.503  35.902  14.459
87648W        W60716   9.577   1.665   4.143
87649W        W60717  26.244  31.650   2.188
87650W        W60718  35.123  39.433  11.641
87651W        W60719   8.430  42.898   3.272
87652W        W60720  42.761  12.793   2.798
87653W        W60721  32.842   0.880  11.654
87654W        W60722  44.942  25.644  13.820
87655W        W60723  30.652  17.797  12.753
87656W        W60724   9.926  22.136   4.414
87657W        W60725  18.284  36.543   0.430
87658W        W60726  10.240  44.065  13.476
87659W        W60727  17.363  19.033  13.017
87660W        W60728  21.622   7.281  10.741
87661W        W60729  33.036  34.628  13.470
87662W        W60730  24.098  25.994   4.301
87663W        W60731  11.791  11.841   3.741
87664W        W60732  37.965  21.164   3.870
87665W        W60733  12.014  32.133   4.038
87666W        W60734  25.382  38.494   3.729
87667W        W60735  21.567   0.758  11.648
87668W        W60736  19.318   5.061  11.108
87669W        W60737  22.978   3.690  14.386
87670W        W60738  20.243  38.568  12.503
87671W        W60739   3.022  20.263   2.619
87672W        W60740  42.258  15.559   4.813
87673W        W60741  20.958  26.205  13.097
87674W        W60742  20.697  17.680   1.342
87675W        W60743  33.690   3.512  10.966
87676W        W60744  44.399  44.539   5.031
87677W        W60745  32.550  29.553  12.543
87678W        W60746   5.249  20.655  11.076
87679W        W60747  22.050  44.248  11.976
87680W        W60748  43.852  20.092   4.737
87681W        W60749   6.408  17.347   2.381
87682W        W60750   2.687  44.716   4.141
87683W        W60751  29.951   0.553   2.424
87684W        W60752   2.779  41.747  12.074
87685W        W60753  11.095   0.764   2.840
87686W        W60754  32.582  25.618   4.865
87687W        W60755  43.428   1.649  10.559
87688W        W60756  27.569  12.309   4.276
87689W        W60757   9.331  11.766   0.889
87690W        W60758  11.884  41.268  13.119
87691W        W60759  13.026  44.178   2.650
87692W        W60760  36.835  17.309  12.475
87693W        W60761  21.038  20.239  11.118
87694W        W60762  28.966  37.750  14.451
87695W        W60763  20.712  18.865   0.773
87696W        W60764  16.373  23.219  11.196
87697W        W60765  20.048  27.609   0.937
87698W        W60766   7.773  29.004  10.892
87699W        W60767  32.998  16.832  12.307
87700W        W60768  12.299  15.872   4.134
87701W        W60769   6.264  24.493   4.816
87702W        W60770  27.463  31.018   3.993
87703W        W60771  40.593   0.815  12.024
87704W        W60772  28.208  14.134   4.158
87705W        W60773  37.938  11.596  11.538
87706W        W60774  13.637   0.792  12.080
87707W        W60775  21.475  33.875   0.325
87708W        W60776  20.918  25.856   2.725
87709W        W60777  13.949   8.724  11.479
87710W        W60778  32.632  39.430  12.843
87711W        W60779  31.921  40.263   0.903
87712W        W60780  32.933  22.512   1.686
87713W        W60781  24.735  21.437  11.111
87714W        W60782   7.164  34.094   3.355
87715W        W60783  40.759   9.403  10.759
87716W        W60784  10.887  15.811  11.953
87717W        W60785  34.112  26.898  14.442
87718W        W60786  15.881   2.405  12.324
87719W        W60787  30.915  15.984  13.402
87720W        W60788  32.843  28.498   3.287
87721W        W60789  19.967  40.984  11.232
87722W        W60790  43.851  25.416   3.768
87723W        W60791   4.315  27.185  13.958
87724W        W60792  23.732  11.827   4.145
87725W        W60793  30.608  34.695   1.934
87726W        W60794   7.350  39.855  10.729
87727W        W60795  42.526  23.476   3.391
87728W        W60796  24.521  40.923  11.922
87729W        W60797  44.299  44.394  14.424
87730W        W60798  43.832  21.623   3.105
87731W        W60799   9.858  44.557  12.384
87732W        W60800  27.599  18.654   2.635
87733W        W60801  43.393  17.796  10.455
87734W        W60802  26.227   0.175  11.890
87735W        W60803  29.391  42.325   4.075
87736W        W60804  17.207   4.890   2.360
87737W        W60805  12.579  16.324   1.866
87738W        W60806  29.754  41.990  11.800
87739W        W60807   2.199  18.782   4.178
87740W        W60808  38.522  34.802   2.797
87741W        W60809   7.815   2.491  14.027
87742W        W60810  20.533  10.083   3.542
87743W        W60811  33.479   2.708   0.891
87744W        W60812  12.291   6.853  11.584
87745W        W60813  23.475   1.701   1.233
87746W        W60814  36.981  14.252  14.775
87747W        W60815  25.468  42.308  12.641
87748W        W60816  30.438  15.293   3.182
87749W        W60817  10.131  31.994  13.940
87750W        W60818  22.854  11.149   2.228
87751W        W60819  44.996   4.465  14.412
87752W        W60820  11.360  17.628   1.220
87753W        W60821  13.030   1.230  14.067
87754W        W60822  37.541  31.706  12.852
87755W        W60823  39.918  40.030   0.824
87756W        W60824   5.693  10.440  12.467
87757W        W60825  22.967  43.443   2.103
87758W        W60826  15.116  26.093  10.952
87759W        W60827  38.364  31.259  10.964
87760W        W60828  26.462  29.795  14.778
87761W        W60829  20.976  26.097  10.669
87762W        W60830  12.778   8.292  12.025
87763W        W60831  34.470  12.485  10.928
87764W        W60832  27.694   9.445  11.528
87765W        W60833   0.818  35.353   3.430
87766W        W60834  41.293  36.026  14.876
87767W        W60835   6.645  31.129  13.889
87768W        W60836  35.857  34.963   1.866
87769W        W60837  44.435  22.171  13.598
87770W        W60838  18.977  33.370  13.338
87771W        W60839  13.165   7.674   3.138
87772W        W60840  12.152  38.303   2.325
87773W        W60841   2.658  20.725  13.065
87774W        W60842  14.648   2.518   2.315
87775W        W60843  44.969   3.235  12.947
87776W        W60844  17.574  24.645  11.439
87777W        W60845   2.990  12.523   0.430
87778W        W60846  11.712  30.719   3.247
87779W        W60847  36.721   2.312   3.329
87780W        W60848  17.247   5.995  14.057
87781W        W60849  35.529  36.419   1.492
87782W        W60850   5.785  18.621   0.053
87783W        W60851  35.615  15.590  14.006
87784W        W60852   3.860  29.141   3.731
87785W        W60853   2.684   5.783   3.153
87786W        W60854  41.831  15.955  14.715
87787W        W60855  29.618  42.093  14.517
87788W        W60856  42.925  34.703   2.714
87789W        W60857  19.845  14.200   2.769
87790W        W60858  33.451   7.557   2.196
87791W        W60859  42.001   6.995  11.986
87792W        W60860   2.656  19.532  10.097
87793W        W60861  31.607   5.749  12.582
87794W        W60862   0.088  27.551  13.982
87795W        W60863   6.792  31.356   3.713
87796W        W60864   0.731  29.516   3.587
87797W        W60865  11.315  39.829   2.246
87798W        W60866   3.228  31.267  13.107
87799W        W60867  27.217  21.517   2.760
87800W        W60868  36.867  40.003  14.018
87801W        W60869  29.482  27.059  14.488
87802W        W60870  10.946  33.899   1.476
87803W        W60871  27.456  29.196  11.578
87804W        W60872  42.036  26.003   0.798
87805W        W60873  37.246  15.717   2.394
87806W        W60874  15.053   8.446  14.451
87807W        W60875  14.060  37.171  11.881
87808W        W60876  42.441   4.688   5.274
87809W        W60877  44.306  35.977   3.423
87810W        W60878  31.572  38.857   4.498
87811W        W60879  30.843  18.504  14.569
87812W        W60880   1.251  21.745  11.038
87813W        W60881  36.100  38.821  12.034
87814W        W60882  32.446  21.082  13.320
87815W        W60883   3.904  10.099  12.146
87816W        W60884  17.607  28.046  10.557
87817W        W60885  37.982  33.347  11.137
87818W        W60886  16.151  41.266   4.032
87819W        W60887  10.905  15.275  11.213
87820W        W60888  33.064   2.478  12.613
87821W        W60889  16.110   2.001  11.401
87822W        W60890   3.143  44.955  14.729
87823W        W60891  16.346  44.899  11.081
87824W        W60892   0.469  40.014  14.396
87825W        W60893  16.179  16.060  10.644
87826W        W60894   7.006  25.560  13.450
87827W        W60895   0.729  26.930  11.122
87828W        W60896  13.720  26.563  12.894
87829W        W60897   5.650  40.819   2.100
87830W        W60898  43.042   4.318   4.204
87831W        W60899  38.829  37.982   0.380
87832W        W60900  30.978  28.056   5.025
87833W        W60901  31.028  27.187  14.015
87834W        W60902  17.016   8.363  13.983
87835W        W60903  37.308  33.087   9.908
87836W        W60904  10.122  20.780   4.896
87837W        W60905  29.592  19.810  14.397
87838W        W60906  41.237   3.207  12.148
87839W        W60907  35.565  25.530  11.050
87840W        W60908  35.529  29.533   3.035
87841W        W60909  31.105   4.963   2.199
87842W        W60910  39.973  22.661   2.292
87843W        W60911  14.452  32.463  12.176
87844W        W60912  13.048  23.659  13.045
87845W        W60913  12.401   5.936  10.553
87846W        W60914  30.435  10.800  13.529
87847W        W60915  43.911  26.916   3.800
87848W        W60916  18.681  24.037   3.607
87849W        W60917   0.564  20.628  11.770
87850W        W60918  14.759  19.225   0.399
87851W        W60919  34.094   8.549  13.224
87852W        W60920  38.525   1.517  11.501
87853W        W60921  37.599  40.638  14.720
87854W        W60922  42.348  17.025  11.295
87855W        W60923  41.644  26.756   9.871
87856W        W60924  19.556   9.990  14.370
87857W        W60925   9.293  24.665  13.413
87858W        W60926  13.784  34.868   3.284
87859W        W60927   5.237  29.608   3.764
87860W        W60928  15.138  32.382  11.079
87861W        W60929  37.966  40.877   0.429
87862W        W60930  44.968  30.061  11.318
87863W        W60931  17.157  10.797  14.231
87864W        W60932   0.760   4.345  11.410
87865W        W60933   7.123  31.361  13.956
87866W        W60934  14.941   0.247   1.343
87867W        W60935  34.525  24.026   0.437
87868W        W60936  33.537  26.091   2.778
87869W        W60937  41.770  21.135   2.829
87870W        W60938   7.643  10.731  11.448
87871W        W60939  30.266  13.740   1.228
87872W        W60940  35.726  14.807   0.194
87873W        W60941  34.440  39.975  13.868
87874W        W60942   2.981  31.534  10.891
87875W        W60943  43.208   4.810  11.069
87876W        W60944  37.187  31.716   3.245
87877W        W60945  23.867  31.313   1.048
87878W        W60946   7.770   8.691   3.800
87879W        W60947  14.783  37.610  14.238
87880W        W60948  28.679  41.146  11.541
87881W        W60949  10.708   6.161   9.695
87882W        W60950  27.452  28.020   2.855
87883W        W60951  19.721   9.848  13.893
87884W        W60952   6.730  41.787   4.745
87885W        W60953  19.658  23.154  14.852
87886W        W60954  14.771   0.832  11.246
87887W        W60955  11.753  21.053  13.514
87888W        W60956  14.870  27.155  12.999
87889W        W60957  11.761  17.219   0.643
87890W        W60958   9.894   7.571  13.657
87891W        W60959  35.503  22.283   4.547
87892W        W60960  14.364   6.833   0.869
87893W        W60961   2.761  19.093   0.682
87894W        W60962  19.678   9.703   2.803
87895W        W60963   2.818  19.766  10.548
87896W        W60964   3.262  37.852  14.957
87897W        W60965  30.355  39.198   0.684
87898W        W60966  27.014  12.893   3.875
87899W        W60967  31.461  31.139  10.798
87900W        W60968  34.830  23.140   0.931
87901W        W60969  40.081   0.034   1.936
87902W        W60970  44.786  37.624   4.290
87903W        W60971  30.412  22.663  14.921
87904W        W60972  14.402   9.320  14.906
87905W        W60973   7.735  32.898   2.642
87906W        W60974  43.887  38.589   3.397
87907W        W60975  30.083  15.823  13.802
87908W        W60976  24.038  12.441  11.208
87909W        W60977  13.077   7.922   2.243
87910W        W60978  39.598  28.631   4.175
87911W        W60979  31.466   0.155   3.860
87912W        W60980  41.480  31.579   1.965
87913W        W60981  22.321  27.717   2.819
87914W        W60982  29.115   9.447  14.384
87915W        W60983  38.434   4.933  13.343
87916W        W60984  36.527  39.275   5.237
87917W        W60985  20.539  24.446   1.188
87918W        W60986  36.960   3.835  12.257
87919W        W60987  24.856  23.915   2.871
87920W        W60988  26.238  10.899  13.173
87921W        W60989  17.158   4.289  12.563
87922W        W60990   1.184  12.179   4.344
87923W        W60991  42.995  19.042  10.727
87924W        W60992  19.234  18.240   3.146
87925W        W60993  21.768  29.620   4.222
87926W        W60994   2.617   5.513  14.553
87927W        W60995   8.755  13.834  10.711
87928W        W60996  34.271  31.087  14.702
87929W        W60997   7.376  39.420  10.974
87930W        W60998  23.239  41.859   4.907
87931W        W60999  33.865   5.240   1.866
87932W        W61000  27.611  13.210  11.171
87933W        W61001  29.124  33.481  12.673
87934W        W61002   3.753  39.051  12.548
87935W        W61003  41.549   9.616  14.323
87936W        W61004  16.561  16.518   0.395
87937W        W61005  22.876  35.567  14.804
87938W        W61006  13.932  38.972  10.962
87939W        W61007   1.023  38.810  11.636
87940W        W61008  39.691  15.437  11.672
87941W        W61009  35.294  29.677  11.773
87942W        W61010  35.958  36.017   4.874
87943W        W61011  26.456  40.530   4.852
87944W        W61012  36.059  31.407   2.177
87945W        W61013  22.105  35.873  11.460
87946W        W61014   5.058  20.987  13.815
87947W        W61015  26.119  22.037  10.931
87948W        W61016  20.059  10.750  11.503
87949W        W61017   4.577  23.976  10.422
87950W        W61018  15.776  35.856  12.435
87951W        W61019  36.123  12.643  13.942
87952W        W61020  37.562   2.884   2.603
87953W        W61021  40.302  32.339  12.946
87954W        W61022  35.607  15.535   5.148
87955W        W61023  32.357  31.985   4.909
87956W        W61024   2.139  26.584   1.356
87957W        W61025  13.705   9.637   0.950
87958W        W61026   6.402  20.213  12.065
87959W        W61027   6.874  44.462   3.617
87960W        W61028  11.801  22.044   4.225
87961W        W61029  25.610  38.597  13.426
87962W        W61030  40.768  39.421   3.632
87963W        W61031  40.519  20.478  11.932
87964W        W61032  44.257  21.660  13.672
87965W        W61033  33.060  28.586   0.269
87966W        W61034  42.498  20.623  10.706
87967W        W61035  44.471  31.697   9.920
87968W        W61036  28.458  19.163   3.886
87969W        W61037  33.106  16.725   3.667
87970W        W61038  24.185  22.217  13.829
87971W        W61039  12.831  37.587   2.198
87972W        W61040   0.608  28.037  13.429
87973W        W61041  43.308  20.252  11.855
87974W        W61042  17.738  22.201  10.528
87975W        W61043  42.506  15.683  14.071
87976W        W61044  11.329  36.592  10.749
87977W        W61045  22.941  19.218  14.918
87978W        W61046  26.000   1.691   3.918
87979W        W61047  13.927  24.698   3.756
87980W        W61048   3.705  15.156   2.075
87981W        W61049  38.521  40.597   2.711
87982W        W61050  24.248   1.760  13.324
87983W        W61051   1.558  15.763  13.315
87984W        W61052  20.619  10.044  14.367
87985W        W61053  28.269  40.620   0.442
87986W        W61054  30.865  40.534  13.943
87987W        W61055  39.395  17.327   0.348
87988W        W61056  20.531  19.552   4.666
87989W        W61057  31.784   0.288  10.605
87990W        W61058  31.040  43.273   0.047
87991W        W61059  36.593  38.737  12.183
87992W        W61060  24.104  43.842  14.328
87993W        W61061  37.421  41.614   5.178
87994W        W61062  27.110  10.376   3.669
87995W        W61063  21.985   3.966   0.023
87996W        W61064   4.945  28.158   0.866
87997W        W61065  19.477  28.575  13.969
87998W        W61066   7.234  41.082   1.989
87999W        W61067  24.667  36.997  12.526
88000W        W61068  35.856  32.860   3.274
88001W        W61069  31.875  11.287   2.590
88002W        W61070  44.746  44.469  12.416
88003W        W61071   0.448  19.482   1.785
88004W        W61072  37.795  30.502  10.664
88005W        W61073  29.068  28.883   1.905
88006W        W61074  24.749  23.163   2.716
88007W        W61075  20.612  17.095  11.213
88008W        W61076  33.340  41.995   1.371
88009W        W61077  42.273  29.227   3.472
88010W        W61078  16.592   5.812  11.366
88011W        W61079  26.635   8.154  12.045
88012W        W61080  30.100  39.895  13.562
88013W        W61081  31.406  15.588  12.989
88014W        W61082  14.192  43.509  13.153
88015W        W61083   1.387  36.818   0.421
88016W        W61084   9.637  25.269   2.407
88017W        W61085  16.807  15.261  14.919
88018W        W61086  14.635   6.785  10.938
88019W        W61087  42.607  13.135  12.526
88020W        W61088  32.811  23.726   0.419
88021W        W61089  35.022  44.068   2.986
88022W        W61090  19.162   9.100   1.649
88023W        W61091  44.740  13.781  11.570
88024W        W61092  32.143  44.005   1.302
88025W        W61093  18.239  32.843  13.186
88026W        W61094  44.272  18.118   1.449
88027W        W61095   0.699  14.409  13.854
88028W        W61096  20.831  23.548   1.197
88029W        W61097  30.599  39.811  13.919
88030W        W61098  10.314  44.821  10.721
88031W        W61099  21.642  26.953   2.735
88032W        W61100  31.891  27.634   0.852
88033W        W61101  12.869   0.246  10.378
88034W        W61102  12.366   0.855  12.484
88035W        W61103  10.837  29.144   3.425
88036W        W61104   7.933  34.996  11.195
88037W        W61105  12.264  28.973   1.234
88038W        W61106  35.852  10.050  11.026
88039W        W61107  17.329  20.831   3.666
88040W        W61108  34.787  22.766   3.569
88041W        W61109   0.009  20.716  13.929
88042W        W61110  35.896  21.243   1.874
88043W        W61111   3.738  23.610  13.969
88044W        W61112  30.480   5.127  14.881
88045W        W61113  12.382  35.435   2.315
88046W        W61114  20.429   5.665   4.593
88047W        W61115   7.655   1.808  14.721
88048W        W61116  20.176  19.535  13.133
88049W        W61117  26.270  26.061  12.461
88050W        W61118   2.538  44.412   1.313
88051W        W61119   1.475   0.576   3.659
88052W        W61120   9.257  34.961  11.555
88053W        W61121   8.325  30.161   0.296
88054W        W61122  32.083  30.237   4.860
88055W        W61123   9.148  39.542   1.294
88056W        W61124  39.734  42.834  13.482
88057W        W61125  39.300  36.292  14.319
88058W        W61126  36.617  24.132  13.453
88059W        W61127  34.660   3.806  14.769
88060W        W61128   9.729  38.637   3.284
88061W        W61129  27.560  26.095   3.373
88062W        W61130  17.240  16.343  14.983
88063W        W61131   3.565  37.373   2.091
88064W        W61132  18.321  42.480  12.944
88065W        W61133  30.023   6.673  14.756
88066W        W61134  39.425  19.009  13.216
88067W        W61135  13.001  20.487   1.690
88068W        W61136  10.304  33.011   4.898
88069W        W61137  21.698  31.567   1.921
88070W        W61138  40.380  14.469   4.082
88071W        W61139  21.788   1.094   0.760
88072W        W61140   8.189  14.781  12.902
88073W        W61141  30.302  11.754  14.247
88074W        W61142  19.844  25.633   2.279
88075W        W61143  39.998  40.094   1.333
88076W        W61144  24.440  21.670  12.402
88077W        W61145  14.789   2.828  10.694
88078W        W61146   4.304  29.536  14.720
88079W        W61147  11.808  22.613  14.383
88080W        W61148  28.074   0.411  11.506
88081W        W61149  42.051  27.642   4.827
88082W        W61150  30.826  12.257  13.884
88083W        W61151  25.278   9.680  12.523
88084W        W61152   5.031  40.825  11.822
88085W        W61153   7.768   6.458   1.261
88086W        W61154   3.901  42.895   1.124
88087W        W61155   1.244   9.250   3.940
88088W        W61156  15.419  33.859  10.413
88089W        W61157  27.925   0.378   0.349
88090W        W61158   2.269  39.063  14.670
88091W        W61159  16.204  24.599  12.584
88092W        W61160  25.511  12.897   1.778
88093W        W61161  18.671  28.986  13.566
88094W        W61162  21.238  30.399  13.839
88095W        W61163   5.761   3.152   3.898
88096W        W61164  27.920  36.564   4.158
88097W        W61165  44.539  12.576  13.917
88098W        W61166  33.020  42.685  10.613
88099W        W61167  22.527  15.997   3.329
88100W        W61168  15.335  31.000  11.564
88101W        W61169   0.348  43.821   3.684
88102W        W61170  13.240  20.102   3.981
88103W        W61171  26.787  32.451  14.781
88104W        W61172  25.449  24.668  13.939
88105W        W61173  20.766   2.990   2.711
88106W        W61174  32.088   1.216   4.114
88107W        W61175  39.058  22.473   1.211
88108W        W61176  25.258  12.557   3.871
88109W        W61177  38.293  25.451  14.656
88110W        W61178  35.209  34.380   1.218
88111W        W61179  16.732   9.762  10.317
88112W        W61180  19.724  44.248   5.377
88113W        W61181   2.331  41.024  11.903
88114W        W61182  19.039   5.630   4.714
88115W        W61183  43.745  34.497   4.697
88116W        W61184  19.169  35.981   3.278
88117W        W61185  33.927  36.586   3.143
88118W        W61186  33.014   1.756  13.775
88119W        W61187  38.856  39.608   2.689
88120W        W61188  26.400  12.384  12.081
88121W        W61189   3.327   0.965  12.552
88122W        W61190  31.468   5.294  14.512
88123W        W61191  23.996  22.528   5.193
88124W        W61192  22.695  25.401  13.285
88125W        W61193  20.723  10.629  12.045
88126W        W61194  12.359   3.236   4.336
88127W        W61195  41.463  30.101   0.017
88128W        W61196  23.465  35.580   3.774
88129W        W61197   5.895   1.540   4.162
88130W        W61198  41.527  12.420  14.277
88131W        W61199   9.737   0.069  12.377
88132W        W61200  25.836   4.629  12.378
88133W        W61201  41.559  31.588  12.981
88134W        W61202  30.215  44.354   2.959
88135W        W61203  36.774  32.189  12.930
88136W        W61204   7.765   0.909   2.932
88137W        W61205  43.252   2.847  12.435
88138W        W61206  44.406  26.119  12.970
88139W        W61207  33.031  30.068   3.968
88140W        W61208  20.602   9.370   1.856
88141W        W61209  17.576  19.624  11.478
88142W        W61210  31.068  19.080   2.895
88143W        W61211   9.872  27.766  14.338
88144W        W61212   8.151  32.814   4.166
88145W        W61213   4.902   3.712  13.931
88146W        W61214  28.215  10.191   0.579
88147W        W61215   8.418  41.729   4.552
88148W        W61216  37.934  39.952   4.054
88149W        W61217  41.275  15.200  12.551
88150W        W61218  11.915   6.910  13.311
88151W        W61219   3.891  14.758   1.034
88152W        W61220  25.750  13.723   0.842
88153W        W61221  25.165  31.437   3.278
88154W        W61222  19.525  41.225  12.059
88155W        W61223   5.803  42.152   1.766
88156W        W61224  43.486  19.623   1.726
88157W        W61225  12.566   3.016  13.415
88158W        W61226  16.437   3.673   1.719
88159W        W61227  26.208  10.298   0.894
88160W        W61228  13.499  21.319  11.194
88161W        W61229  18.653  19.272  14.943
88162W        W61230  26.131   7.785   5.021
88163W        W61231   9.739  18.858   4.057
88164W        W61232  32.505  35.363  11.920
88165W        W61233  15.541  33.645  11.881
88166W        W61234   9.468  25.083   3.226
88167W        W61235  35.421  17.624   4.235
88168W        W61236  10.115   7.939  13.332
88169W        W61237  35.544   3.395   1.356
88170W        W61238  22.622   0.421  11.217
88171W        W61239  20.307  37.820  14.990
88172W        W61240  42.368  19.647  11.478
88173W        W61241  26.630  14.652   4.641
88174W        W61242  30.962   6.457   3.204
88175W        W61243  32.373  19.973   1.658
88176W        W61244   8.482  37.017   1.372
88177W        W61245   4.410  12.335   1.392
88178W        W61246   2.461  29.021   1.637
88179W        W61247  19.260   4.804  14.762
88180W        W61248  40.766  40.403  12.576
88181W        W61249  29.866  16.084  11.616
88182W        W61250  13.312  25.996   3.168
88183W        W61251  28.455  23.637  11.978
88184W        W61252   4.376  36.492  14.714
88185W        W61253   2.323  19.752   1.663
88186W        W61254  32.693   6.720  11.968
88187W        W61255  13.920  25.066  10.681
88188W        W61256   5.361   2.867  13.876
88189W        W61257   3.405  13.778  12.430
88190W        W61258  11.463  27.537  13.118
88191W        W61259  32.855  11.778   0.861
88192W        W61260   0.078  14.225   2.775
88193W        W61261  36.408   5.992  10.407
88194W        W61262  21.274   7.379  14.910
88195W        W61263  25.611  25.450   3.520
88196W        W61264  14.391   6.701  12.087
88197W        W61265  22.173  20.534   0.401
88198W        W61266   7.755  33.431  13.532
88199W        W61267   3.152  18.298   3.277
88200W        W61268  43.380  24.210   4.110
88201W        W61269  10.887  21.112   3.238
88202W        W61270  30.438  14.634   3.537
88203W        W61271   9.893  20.778   0.725
88204W        W61272  23.835  34.629   4.097
88205W        W61273  28.769  39.801   1.432
88206W        W61274   3.812  39.374   2.085
88207W        W61275   1.313  17.137   1.763
88208W        W61276  36.415  38.696   4.355
88209W        W61277  22.010  25.069   4.101
88210W        W61278  28.174  30.386  13.777
88211W        W61279  41.627  40.369  13.774
88212W        W61280   3.306  39.791   3.506
88213W        W61281  16.762  17.036   4.649
88214W        W61282  44.171  27.705  13.624
88215W        W61283  43.400  14.141  10.278
88216W        W61284   1.440  30.580   1.887
88217W        W61285   3.994   4.658   1.882
88218W        W61286  21.939  19.023  13.896
88219W        W61287  16.972  12.291   2.907
88220W        W61288   5.918  32.474   2.794
88221W        W61289   6.477  36.979  12.044
88222W        W61290  28.323  11.156   9.722
88223W        W61291  19.213  20.354   0.471
88224W        W61292  36.804  22.503   4.301
88225W        W61293  36.552  39.997  12.986
88226W        W61294  18.566   9.524  10.749
88227W        W61295  10.678   7.707  14.714
88228W        W61296  29.592  18.616  12.375
88229W        W61297  34.629  14.202   4.590
88230W        W61298   8.331  13.787   2.983
88231W        W61299   1.329  40.290   3.531
88232W        W61300  39.438  14.278  13.968
88233W        W61301  12.342   0.889   3.321
88234W        W61302  11.721   3.926  11.425
88235W        W61303  37.887   6.377  13.670
88236W        W61304   2.724  12.000   1.048
88237W        W61305  41.004  17.612  10.368
88238W        W61306  24.007  11.936  11.139
88239W        W61307  26.270   8.810   4.610
88240W        W61308  15.226  41.558  14.442
88241W        W61309  21.192  44.084   1.541
88242W        W61310  18.568  14.102   2.565
88243W        W61311  41.730   0.954   3.114
88244W        W61312   1.984  41.237  11.577
88245W        W61313   8.448  37.838  14.370
88246W        W61314   3.561  18.735  13.114
88247W        W61315  18.746  31.683  14.269
88248W        W61316   4.873   1.435   3.834
88249W        W61317  31.449   5.818   1.929
88250W        W61318  30.827  35.636   3.290
88251W        W61319  36.878  36.809  13.360
88252W        W61320   8.169  32.717  13.950
88253W        W61321  25.568  21.967  12.945
88254W        W61322  42.580  34.294  13.032
88255W        W61323   6.230  24.551   2.196
88256W        W61324   7.609  35.098   3.890
88257W        W61325  19.545  10.592  10.786
88258W        W61326  37.157  19.181   1.256
88259W        W61327  22.936  31.047   0.162
88260W        W61328  22.403  32.099   1.828
88261W        W61329  40.741  42.461   1.508
88262W        W61330  31.630  39.379  13.921
88263W        W61331  31.397  44.162   0.880
88264W        W61332  30.332  29.594   0.475
88265W        W61333  35.348   4.125   0.876
88266W        W61334   9.070  26.455   3.108
88267W        W61335   1.993  19.535  13.332
88268W        W61336  37.515  28.048  14.487
88269W        W61337  27.598  30.901   0.163
88270W        W61338  18.168  10.035  11.400
88271W        W61339   4.648  31.948  14.783
88272W        W61340  37.948  35.441  11.153
88273W        W61341  15.626  20.117   0.224
88274W        W61342  13.695   3.521   1.271
88275W        W61343  32.037  44.402  11.524
88276W        W61344  21.034  29.311  14.823
88277W        W61345  28.434  19.688  12.275
88278W        W61346  26.051  40.829   4.714
88279W        W61347  19.207  39.431   2.720
88280W        W61348  42.168  18.188  13.529
88281W        W61349  29.118   8.817   1.200
88282W        W61350  35.553  27.061  11.178
88283W        W61351  44.907  40.219   2.804
88284W        W61352  25.189  33.402   0.108
88285W        W61353  19.084  33.397  14.304
88286W        W61354  15.708  33.668   1.426
88287W        W61355   1.030  33.618   3.344
88288W        W61356   5.114   4.664   3.164
88289W        W61357  34.695   6.083   0.900
88290W        W61358  43.434   4.744  14.464
88291W        W61359  25.466  28.554  11.679
88292W        W61360   9.832  24.055   2.093
88293W        W61361   6.428   8.878  11.135
88294W        W61362  20.246   0.396   0.372
88295W        W61363   5.342  16.995   0.959
88296W        W61364   6.148  32.858   4.778
88297W        W61365  26.246   7.471   3.736
88298W        W61366  29.413  41.346  14.739
88299W        W61367  40.041   6.231  13.334
88300W        W61368  26.612  10.287  13.080
88301W        W61369  29.953  18.225   3.359
88302W        W61370  41.850  16.565  10.685
88303W        W61371  32.898  14.663   3.305
88304W        W61372  13.237  17.705  11.175
88305W        W61373   0.201   1.638  14.501
88306W        W61374  25.975  22.032   1.232
88307W        W61375   2.991  39.928  12.971
88308W        W61376  43.939  23.085  13.581
88309W        W61377  24.900  15.215   0.291
88310W        W61378  31.840  11.452  12.781
88311W        W61379   8.265   1.928  11.486
88312W        W61380  12.318  35.226   1.770
88313W        W61381   4.222  23.406   1.386
88314W        W61382   4.358  21.693   1.722
88315W        W61383  19.136  30.264  13.473
88316W        W61384  37.061  27.372  13.608
88317W        W61385  37.712  14.236   1.631
88318W        W61386  20.258  39.409  12.071
88319W        W61387  36.301   5.408   2.993
88320W        W61388  34.639  26.896  14.461
88321W        W61389  19.278   0.222   4.638
88322W        W61390  16.836  10.324   1.489
88323W        W61391  26.353   1.353   4.539
88324W        W61392   9.295   5.846  13.558
88325W        W61393   9.126   4.775  10.353
88326W        W61394  30.097  36.968   3.954
88327W        W61395  29.463   8.689   3.292
88328W        W61396   7.235  44.075  14.759
88329W        W61397   2.395  38.913   3.273
88330W        W61398  10.374  37.799  11.566
88331W        W61399  17.357  42.919  10.859
88332W        W61400   3.603  22.524   0.423
88333W        W61401  14.646  11.258   1.199
88334W        W61402  10.849  20.510  10.649
88335W        W61403  18.580  16.551   0.430
88336W        W61404  15.353  42.488   0.955
88337W        W61405   8.000  15.905  12.608
88338W        W61406  13.071  14.918   0.939
88339W        W61407  36.858  23.178  11.399
88340W        W61408  29.876   9.699  10.573
88341W        W61409   8.586  14.296  14.809
88342W        W61410  18.841  16.667   4.520
88343W        W61411  20.468  10.094  12.911
88344W        W61412  34.354  10.748  13.426
88345W        W61413   4.987  20.725   4.191
88346W        W61414  44.427  40.304  12.628
88347W        W61415  17.880  17.704   0.691
88348W        W61416  10.661  14.710  14.415
88349W        W61417  41.482  20.110  13.440
88350W        W61418  20.191  26.302   2.173
88351W        W61419  38.531   5.406   4.377
88352W        W61420  19.830   6.198   4.343
88353W        W61421   3.921  39.126   0.707
88354W        W61422  43.287  42.575  13.354
88355W        W61423  12.511  16.034  11.509
88356W        W61424  20.467  19.003  13.846
88357W        W61425   5.229  25.976   0.513
88358W        W61426   1.349  34.578   2.973
88359W        W61427  39.595  11.348   3.226
88360W        W61428  31.247  10.139  11.782
88361W        W61429   9.854   9.361   3.332
88362W        W61430  14.103  32.645  12.518
88363W        W61431  29.723  31.336   0.044
88364W        W61432  18.106  25.966   2.761
88365W        W61433  44.878  25.333   5.076
88366W        W61434  18.753   8.618  14.405
88367W        W61435  16.676  24.238  13.255
88368W        W61436   5.960   8.223  11.503
88369W        W61437  32.906  43.497   4.640
88370W        W61438  36.493  17.102  14.806
88371W        W61439  39.274   8.840   2.322
88372W        W61440  20.925  34.587  13.603
88373W        W61441   1.473   8.949  10.976
88374W        W61442  19.642  41.777  14.005
88375W        W61443  19.218  44.818   0.390
88376W        W61444  10.953   3.828   3.461
88377W        W61445  14.898  24.078  14.317
88378W        W61446  44.002  29.058   3.789
88379W        W61447  44.971  40.772  14.269
88380W        W61448  16.668   9.712   1.354
88381W        W61449  21.062  22.621  10.674
88382W        W61450  26.719  11.314   3.754
88383W        W61451   7.623   7.382  14.805
88384W        W61452   0.212  42.757  11.428
88385W        W61453   6.873   1.555  12.913
88386W        W61454   5.090   1.342   3.351
88387W        W61455  11.424   0.356   2.960
88388W        W61456  44.029  38.865  10.686
88389W        W61457  39.436  29.688   0.225
88390W        W61458  41.324  24.733  10.653
88391W        W61459  16.829  25.632  11.970
88392W        W61460  15.818  16.678  14.347
88393W        W61461  21.997   5.739   1.382
88394W        W61462  22.518  24.696  13.784
88395W        W61463  11.246   6.250  14.371
88396W        W61464   2.383  42.854   5.056
88397W        W61465  33.362   0.517   1.391
88398W        W61466  35.416  31.814   1.379
88399W        W61467  11.266  37.955  13.539
88400W        W61468  30.125  17.337  12.150
88401W        W61469  36.187  10.118   5.130
88402W        W61470  11.158  27.127  10.673
88403W        W61471  11.809  31.253  13.264
88404W        W61472  39.011  24.665   2.625
88405W        W61473  19.236  37.690  13.105
88406W        W61474   5.865  36.447  12.704
88407W        W61475  14.706  43.068   4.675
88408W        W61476  40.289  16.345   1.285
88409W        W61477  33.550  31.905   2.754
88410W        W61478   7.660  17.988   0.364
88411W        W61479  38.613  32.161   2.844
88412W        W61480   6.271  37.828  13.386
88413W        W61481  25.469  35.953   1.486
88414W        W61482   5.386  39.462  14.711
88415W        W61483  25.221  14.766  12.363
88416W        W61484  40.587  30.027  13.811
88417W        W61485  36.193  20.688  13.002
88418W        W61486  32.398  15.698   0.038
88419W        W61487  28.382  21.719  12.855
88420W        W61488  30.904   5.315   0.784
88421W        W61489  19.663  21.467   1.055
88422W        W61490  30.180  20.634  11.394
88423W        W61491  31.938  27.229  14.057
88424W        W61492  24.133   6.826  11.486
88425W        W61493  21.622  17.170   3.604
88426W        W61494  36.348  23.503   4.088
88427W        W61495  41.418  44.332   4.126
88428W        W61496  32.896  24.453  11.990
88429W        W61497  25.900  24.405  14.008
88430W        W61498   8.804  15.583  11.393
88431W        W61499   5.858  27.972   3.281
88432W        W61500   6.748  21.611   0.704
88433W        W61501  10.479  43.950   3.812
88434W        W61502  43.062  35.381   4.968
88435W        W61503  17.325  16.692  13.451
88436W        W61504  18.899  36.422   3.381
88437W        W61505  23.978  40.515  11.526
88438W        W61506  25.440  11.309  11.011
88439W        W61507  31.535   0.461  14.614
88440W        W61508  23.788   5.234  12.517
88441W        W61509   9.935  33.034  14.831
88442W        W61510   2.474  15.990  12.817
88443W        W61511   8.573  17.318   1.144
88444W        W61512   1.375  33.272   1.378
88445W        W61513   7.207   9.668  14.313
88446W        W61514   3.366  29.489   4.553
88447W        W61515  39.389   6.815  11.787
88448W        W61516  28.580  12.719  13.627
88449W        W61517  43.371  35.023   2.811
88450W        W61518  36.301   1.801   4.633
88451W        W61519  41.451  19.612   2.462
88452W        W61520  12.427  26.946  13.292
88453W        W61521  29.052  19.356  10.415
88454W        W61522  22.321  27.184  14.225
88455W        W61523  20.037  17.483  10.718
88456W        W61524  24.159  12.112  14.380
88457W        W61525  36.433  31.695   0.188
88458W        W61526  22.142  19.609  11.512
88459W        W61527  12.371  38.925  14.373
88460W        W61528   6.668   7.418  11.534
88461W        W61529  37.849  37.126   0.269
88462W        W61530  11.346  43.940   0.548
88463W        W61531   3.671  17.762   3.134
88464W        W61532  37.896  12.129   3.289
88465W        W61533  31.374  29.375  10.720
88466W        W61534   6.678  35.033   0.382
88467W        W61535  22.700  34.473  14.746
88468W        W61536  26.401  11.708  11.460
88469W        W61537  26.182  15.108  14.863
88470W        W61538   7.435  34.038  11.903
88471W        W61539   3.194  27.615   4.599
88472W        W61540  41.767  29.435   3.539
88473W        W61541  27.637  39.780   2.780
88474W        W61542  12.243  17.392  12.543
88475W        W61543  23.215  40.321   4.562
88476W        W61544   5.915   5.884   4.250
88477W        W61545   8.271  24.633   4.395
88478W        W61546  17.775   6.008  14.053
88479W        W61547  24.989  35.142   2.006
88480W        W61548  23.463   6.118  13.141
88481W        W61549  36.604  42.494   1.152
88482W        W61550  26.627  10.396  11.874
88483W        W61551  18.962  17.079  12.917
88484W        W61552  38.398  19.613   3.396
88485W        W61553  26.125  31.465  14.347
88486W        W61554  37.022  13.104   3.669
88487W        W61555  44.950   7.684  10.514
88488W        W61556  16.843   9.258  10.236
88489W        W61557  40.888  38.600  12.011
88490W        W61558  36.437   2.476  11.987
88491W        W61559  35.816   6.386   3.224
88492W        W61560  31.575  22.063  14.816
88493W        W61561  27.228   8.759   3.546
88494W        W61562  22.740  40.563   3.758
88495W        W61563  15.760  11.525   3.306
88496W        W61564  30.256   4.305  12.481
88497W        W61565  23.196   9.261  14.007
88498W        W61566  25.104  20.243  11.197
88499W        W61567   4.839   3.619   1.880
88500W        W61568  12.179   1.324   3.100
88501W        W61569  34.006  34.991   2.462
88502W        W61570  26.793  14.541   2.395
88503W        W61571   0.862  39.611   0.257
88504W        W61572  41.376  34.793  10.919
88505W        W61573  20.182  40.142   0.766
88506W        W61574   0.829  14.951   4.246
88507W        W61575   2.448   3.706  11.688
88508W        W61576  33.255   2.847  10.590
88509W        W61577  10.237  14.129  13.288
88510W        W61578   1.636  36.270   2.492
88511W        W61579  19.257   3.977   2.312
88512W        W61580  23.730   8.626  11.172
88513W        W61581   6.651  30.630  11.171
88514W        W61582  32.788   2.484  11.117
88515W        W61583   4.933   7.411  14.729
88516W        W61584  12.107  38.936  14.817
88517W        W61585   5.931   6.467   4.908
88518W        W61586   1.338   6.875   4.078
88519W        W61587  27.611  16.291   0.826
88520W        W61588  19.029  13.808  13.569
88521W        W61589  23.471   0.877   3.137
88522W        W61590  22.738  43.308   1.557
88523W        W61591   3.687  11.342   4.167
88524W        W61592  33.465   8.086  14.829
88525W        W61593   9.159  15.195   0.184
88526W        W61594  21.745  42.759  12.348
88527W        W61595   0.862  34.545   0.462
88528W        W61596   7.411  26.192   3.188
88529W        W61597  41.271  13.353   2.180
88530W        W61598  39.451  44.471  12.116
88531W        W61599  21.004  40.788   2.742
88532W        W61600  20.644  41.063   3.029
88533W        W61601   7.967  28.020  12.025
88534W        W61602  24.602  17.984  11.173
88535W        W61603  37.376  38.350  10.983
88536W        W61604   4.824   5.651  10.489
88537W        W61605  22.856  38.692  10.268
88538W        W61606  23.473  11.762   4.591
88539W        W61607  30.439  26.495   1.224
88540W        W61608  25.372  17.776   1.098
88541W        W61609   4.749  12.843   2.680
88542W        W61610  26.991  12.177   2.772
88543W        W61611  43.720  32.780  11.672
88544W        W61612  38.776   6.749   3.178
88545W        W61613  10.094  27.260   2.900
88546W        W61614   5.830  30.877  14.314
88547W        W61615   9.204  28.269   0.267
88548W        W61616  39.344  35.425  12.031
88549W        W61617  15.725  41.937   3.152
88550W        W61618   4.300  36.294   2.936
88551W        W61619  26.554  32.898  11.103
88552W        W61620   5.206  37.449   4.408
88553W        W61621  19.136   4.270  10.872
88554W        W61622  42.860  42.060   4.621
88555W        W61623  38.466  40.776  14.743
88556W        W61624  43.529  43.024  14.485
88557W        W61625  30.481   1.467   3.460
88558W        W61626  18.122  34.550   2.291
88559W        W61627  23.515  17.159  14.895
88560W        W61628  25.670  38.099  11.517
88561W        W61629  19.552  31.122  14.453
88562W        W61630  39.560  22.447  12.953
88563W        W61631   7.365  35.386   0.270
88564W        W61632  30.671  26.908   1.025
88565W        W61633   6.160  25.467  13.227
88566W        W61634  33.753  12.706  10.370
88567W        W61635  19.311  15.135  11.835
88568W        W61636   5.945  27.577   0.972
88569W        W61637  26.898  31.492  11.281
88570W        W61638  22.853  36.666  12.890
88571W        W61639  25.010  24.956   0.772
88572W        W61640  10.680  19.694  12.882
88573W        W61641   0.508  23.988  11.572
88574W        W61642  33.887  26.912   4.112
88575W        W61643  22.125  29.739   2.724
88576W        W61644   3.839  35.704  11.895
88577W        W61645   2.868  42.755  14.376
88578W        W61646   8.237   9.085   2.646
88579W        W61647  20.045  39.044  13.421
88580W        W61648  24.904  10.676  11.583
88581W        W61649  37.646  42.905  11.940
88582W        W61650  35.509   4.451  14.992
88583W        W61651  29.631  17.916  11.637
88584W        W61652  19.054   7.266   3.583
88585W        W61653  41.695  44.507  13.329
88586W        W61654  23.557  23.414  10.816
88587W        W61655   6.400  22.514   2.027
88588W        W61656  34.663   7.777  13.283
88589W        W61657  24.378  41.411  14.047
88590W        W61658   2.978  17.252  11.123
88591W        W61659  31.960   0.936  13.063
88592W        W61660  32.000   2.535  13.703
88593W        W61661  39.054  22.762   3.680
88594W        W61662  31.706  34.159  12.142
88595W        W61663  36.685   4.346   3.519
88596W        W61664  19.585  44.349  11.099
88597W        W61665  30.661  12.105  14.429
88598W        W61666  13.064  31.634   2.436
88599W        W61667  31.460  13.927  11.308
88600W        W61668  25.283  26.236  11.032
88601W        W61669  42.083   8.535  13.432
88602W        W61670  30.479  35.474   1.402
88603W        W61671  22.814  23.101  14.386
88604W        W61672  29.454  26.393  10.721
88605W        W61673  23.111  23.000  14.811
88606W        W61674  34.025  12.522  11.177
88607W        W61675  34.016  19.098  13.833
88608W        W61676   2.655  18.966  11.942
88609W        W61677  14.519   3.887  13.800
88610W        W61678   5.971  41.482  11.975
88611W        W61679   4.683   9.655  11.897
88612W        W61680  11.882  33.784   3.682
88613W        W61681  11.632  24.320  11.573
88614W        W61682  31.947  25.563  12.937
88615W        W61683  23.100  27.037   2.219
88616W        W61684  44.496  23.158  10.508
88617W        W61685  24.656  25.639   3.881
88618W        W61686  10.089  20.084  14.909
88619W        W61687  15.051  12.186  11.387
88620W        W61688  26.874  14.170   4.561
88621W        W61689  17.096  32.928  11.877
88622W        W61690  17.615  36.298   1.226
88623W        W61691  30.132  33.075  12.967
88624W        W61692  26.287  35.011  13.899
88625W        W61693  44.795  28.366   4.603
88626W        W61694  21.991  29.061   3.218
88627W        W61695  40.830  11.392  12.879
88628W        W61696  25.602   7.928  11.128
88629W        W61697  41.815  13.645  12.543
88630W        W61698  20.044  23.985  14.872
88631W        W61699  14.469  38.105   4.601
88632W        W61700  20.568   6.197  14.210
88633W        W61701  15.230  17.666  14.394
88634W        W61702   4.143  10.206   3.313
88635W        W61703   3.323  44.344   3.647
88636W        W61704  15.084   0.657   0.396
88637W        W61705  34.565  33.364   3.342
88638W        W61706  20.932  30.088  11.704
88639W        W61707   2.312  18.023  14.471
88640W        W61708  22.533  13.791  12.302
88641W        W61709   1.995  39.373   0.003
88642W        W61710   2.404   1.242  13.741
88643W        W61711  16.984  12.770  10.684
88644W        W61712  36.350  35.395   1.278
88645W        W61713  40.759  29.154   0.435
88646W        W61714   7.751   1.284  10.584
88647W        W61715  44.819  34.433  12.991
88648W        W61716  28.207  44.418  10.319
88649W        W61717  18.715  19.107  11.465
88650W        W61718  18.771  10.953   4.745
88651W        W61719  42.893   4.442   1.540
88652W        W61720   8.254  22.968   3.601
88653W        W61721  25.286  35.672   3.221
88654W        W61722  43.783  29.611  11.656
88655W        W61723  44.488  37.538   1.689
88656W        W61724  28.894  11.185  14.962
88657W        W61725   1.507  15.617  14.206
88658W        W61726   3.653  38.377   3.585
88659W        W61727   9.422  17.642  12.979
88660W        W61728  11.105  30.435  13.400
88661W        W61729  26.584   8.162   1.025
88662W        W61730  32.656  41.846  10.217
88663W        W61731  23.579  24.777   1.012
88664W        W61732   3.858  13.269  13.867
88665W        W61733  41.648  14.602   4.263
88666W        W61734   1.296  25.935  12.470
88667W        W61735  14.841  29.936   2.212
88668W        W61736  44.229   3.756   0.507
88669W        W61737  32.681  25.816   3.102
88670W        W61738  33.376  10.554  12.287
88671W        W61739  24.523  15.588   4.798
88672W        W61740  42.268  15.523   2.728
88673W        W61741  26.238  25.974  14.751
88674W        W61742   4.497  43.733  14.931
88675W        W61743   2.218  28.596  12.358
88676W        W61744   4.851   4.541  13.439
88677W        W61745  12.774   5.429   4.566
88678W        W61746  16.848  44.321   1.273
88679W        W61747  20.714   8.241   4.197
88680W        W61748  42.511  32.606   0.452
88681W        W61749  23.825  30.513   1.884
88682W        W61750  18.785  35.657   1.040
88683W        W61751   1.005   0.351  14.039
88684W        W61752  23.436  29.958   0.893
88685W        W61753  26.014  17.006  14.937
88686W        W61754  23.961  20.032  12.981
88687W        W61755  27.036  16.347   3.829
88688W        W61756  33.570  15.573   2.370
88689W        W61757  37.344   0.395   0.852
88690W        W61758  10.319  23.740   3.283
88691W        W61759  44.974  18.715   2.050
88692W        W61760  29.645  27.689  11.154
88693W        W61761  23.932  32.157   0.006
88694W        W61762  12.614  19.780   0.427
88695W        W61763   9.697  39.036  13.963
88696W        W61764  15.677  18.014   1.396
88697W        W61765  36.469  35.547  14.795
88698W        W61766   8.590  24.472   0.418
88699W        W61767   2.338   4.391   4.613
88700W        W61768  37.615  23.499  11.876
88701W        W61769  43.487  31.059   2.788
88702W        W61770  40.504  35.020   4.160
88703W        W61771  31.268   2.620  12.091
88704W        W61772  44.271  42.306   2.500
88705W        W61773  15.053  44.289   4.429
88706W        W61774   3.321  40.286   3.615
88707W        W61775  21.212  23.475  11.199
88708W        W61776  31.211   2.788  14.604
88709W        W61777   3.816  13.320   1.849
88710W        W61778  39.605  29.629  13.441
88711W        W61779  25.292  20.773   1.098
88712W        W61780   0.244   2.183   4.146
88713W        W61781  10.705   6.827   0.031
88714W        W61782  25.139   4.239  10.490
88715W        W61783  44.238  15.413  13.346
88716W        W61784  22.916   7.684   3.698
88717W        W61785  19.457  40.855   1.424
88718W        W61786  37.616   3.396   4.379
88719W        W61787  44.396  34.197   4.073
88720W        W61788  14.224  20.086   4.443
88721W        W61789   3.252  33.013   4.158
88722W        W61790  19.717  35.143  14.470
88723W        W61791  27.085  33.463  11.607
88724W        W61792  19.175   1.178   0.628
88725W        W61793  33.881  18.169  12.735
88726W        W61794  29.929  12.135  14.908
88727W        W61795  39.478   9.114   0.379
88728W        W61796   2.415   3.010   3.643
88729W        W61797   3.821  20.678  11.450
88730W        W61798  39.714  28.417  10.667
88731W        W61799  15.687  23.714   2.190
88732W        W61800  27.220  42.323   0.008
88733W        W61801  16.617  32.124  12.474
88734W        W61802  42.827  39.421   0.225
88735W        W61803  27.193  18.282   4.927
88736W        W61804  35.957  25.638   3.228
88737W        W61805  33.664  10.224  11.761
88738W        W61806  22.169  16.429   4.138
88739W        W61807   7.251  25.692   3.219
88740W        W61808  29.151   4.122  13.395
88741W        W61809  40.960   3.378  10.689
88742W        W61810  21.755  19.563   3.781
88743W        W61811   3.015  42.731   1.843
88744W        W61812  30.166  25.431   3.707
88745W        W61813  39.903   9.591  12.915
88746W        W61814  44.702  20.522  14.792
88747W        W61815  15.841  19.499   2.317
88748W        W61816  16.139  43.540  14.011
88749W        W61817  14.747  18.956  12.594
88750W        W61818  11.627  20.658  11.154
88751W        W61819  28.794  44.396  14.218
88752W        W61820   2.924  35.063   0.317
88753W        W61821   4.851   2.653  11.250
88754W        W61822  28.690  43.363   4.484
88755W        W61823  33.833  38.274  14.168
88756W        W61824  38.324   8.261  13.491
88757W        W61825  32.130  35.488  14.634
88758W        W61826  24.496  36.179  13.075
88759W        W61827   8.203  40.015   4.607
88760W        W61828  42.250  21.231  11.482
88761W        W61829  32.129  39.532   4.386
88762W        W61830   6.771   0.730   0.516
88763W        W61831  30.185   0.716  10.961
88764W        W61832  35.980   9.910  14.360
88765W        W61833  32.312   3.804   0.447
88766W        W61834  31.486  16.866  10.681
88767W        W61835  16.068  14.226   1.679
88768W        W61836  31.147  21.712   3.776
88769W        W61837   9.108  42.958  12.091
88770W        W61838  43.475  37.911  13.766
88771W        W61839   6.491  24.179  12.044
88772W        W61840  24.569   6.257   0.743
88773W        W61841  15.476  35.854   3.441
88774W        W61842   6.958  32.102  14.753
88775W        W61843  31.178  22.647   1.403
88776W        W61844  38.838  33.570  12.454
88777W        W61845  13.031  40.455   3.684
88778W        W61846   3.221  26.650  11.469
88779W        W61847  34.823  36.881   1.699
88780W        W61848  38.761  14.493  13.469
88781W        W61849   3.874  41.265   1.359
88782W        W61850  40.717  28.507  11.514
88783W        W61851  44.946  34.649  14.903
88784W        W61852  42.783   1.886  11.950
88785W        W61853   4.751  16.896   2.249
88786W        W61854   9.898   4.178   1.141
88787W        W61855  11.231   1.291  14.315
88788W        W61856  25.133  10.853   0.096
88789W        W61857  12.736   5.091   4.150
88790W        W61858  23.741  38.212   3.865
88791W        W61859  18.780  30.128  12.004
88792W        W61860  41.412  20.066  14.512
88793W        W61861  14.706  22.420   3.112
88794W        W61862  15.950  35.916   4.355
88795W        W61863  41.519   2.708  14.968
88796W        W61864  44.780  41.036   4.425
88797W        W61865   0.999  37.565  11.142
88798W        W61866  22.257  12.995   0.450
88799W        W61867  42.450  30.110   4.384
88800W        W61868  15.839  42.919  13.038
88801W        W61869  14.843  37.459   1.227
88802W        W61870  27.707  18.873  13.819
88803W        W61871  22.830  33.067   1.846
88804W        W61872  38.400  24.281   2.823
88805W        W61873   7.315   8.863   3.047
88806W        W61874   0.456  41.282   4.259
88807W        W61875  29.074   5.886  14.354
88808W        W61876  35.118  18.645  13.837
88809W        W61877  32.358  29.450  14.822
88810W        W61878  41.304  27.921  14.876
88811W        W61879  10.630  40.560  12.028
88812W        W61880   1.897  13.289   1.797
88813W        W61881  22.070  17.351  13.365
88814W        W61882  31.054   9.068   0.810
88815W        W61883  34.800  27.992  13.768
88816W        W61884  10.418  12.901  12.959
88817W        W61885   2.849  35.123  14.053
88818W        W61886  43.336  23.579   2.898
88819W        W61887  32.572  44.428  13.190
88820W        W61888  37.579  41.412   0.415
88821W        W61889  31.362  21.545  10.762
88822W        W61890  15.829  39.047  10.889
88823W        W61891  40.470  23.212  14.893
88824W        W61892   0.148  36.276  12.974
88825W        W61893  27.989  34.023   4.855
88826W        W61894  14.706   1.736  11.647
88827W        W61895  23.718  32.561  13.959
88828W        W61896  10.924  20.670  13.530
88829W        W61897  39.268  12.114  14.426
88830W        W61898  27.004  43.587   3.820
88831W        W61899  41.564  24.236   4.480
88832W        W61900  24.646   5.153  13.327
88833W        W61901   4.897  16.640   0.540
88834W        W61902  11.726   1.541   3.616
88835W        W61903  21.270   0.235   2.880
88836W        W61904  42.498  18.762   3.816
88837W        W61905  28.542   4.717   1.277
88838W        W61906  21.723  40.524   4.537
88839W        W61907  35.463  18.181  11.127
88840W        W61908  11.689   9.647  12.980
88841W        W61909  42.358  24.904  10.760
88842W        W61910   7.383  16.771   4.177
88843W        W61911  23.504  20.621   0.029
88844W        W61912   3.046  41.450  12.980
88845W        W61913  31.163  12.238  14.398
88846W        W61914  25.790  35.819  13.188
88847W        W61915  35.637  13.626   3.121
88848W        W61916  26.585  42.368   1.903
88849W        W61917   9.582  33.503  12.939
88850W        W61918  22.467  15.319   1.194
88851W        W61919  41.816  17.405   3.699
88852W        W61920   8.382  19.064  13.826
88853W        W61921  21.622  26.769  11.791
88854W        W61922  25.233  32.166   3.866
88855W        W61923  20.782  32.131   0.630
88856W        W61924  34.307  44.293   3.200
88857W        W61925   8.169  13.302   2.775
88858W        W61926   3.365  34.248  11.171
88859W        W61927  31.336  40.385   2.345
88860W        W61928  41.611  42.484  10.647
88861W        W61929   6.689   4.031   3.621
88862W        W61930  39.613   9.976   2.743
88863W        W61931  37.599  42.382  11.192
88864W        W61932  14.696  28.637   4.388
88865W        W61933  24.017  35.697  13.009
88866W        W61934  38.770  12.709  12.478
88867W        W61935  28.512  18.792  13.302
88868W        W61936   5.992  26.538   0.298
88869W        W61937   9.693  43.007  13.782
88870W        W61938   7.137  41.322   0.449
88871W        W61939  14.556   3.759   1.455
88872W        W61940  43.388  19.129  13.614
88873W        W61941  28.662  34.295   3.260
88874W        W61942  28.557  31.351   1.651
88875W        W61943   1.066  18.111   1.758
88876W        W61944  15.193   0.053  11.673
88877W        W61945  32.995   8.668  10.977
88878W        W61946   9.861   7.288   3.088
88879W        W61947   6.571  17.184   5.091
88880W        W61948  24.863  31.632  12.226
88881W        W61949  30.469  40.772   0.720
88882W        W61950   5.855   7.638  12.901
88883W        W61951  25.886  38.410   4.950
88884W        W61952  14.894   5.233   2.789
88885W        W61953  11.320  14.278   0.048
88886W        W61954  21.821  10.882   0.753
88887W        W61955  10.592   8.359  14.302
88888W        W61956  15.520  38.584  13.891
88889W        W61957  10.864  34.082  12.399
88890W        W61958  28.202  41.020  10.270
88891W        W61959  10.026  30.407  10.791
88892W        W61960  15.305  16.816   2.704
88893W        W61961  12.111  37.789   0.908
88894W        W61962  43.227  29.851   4.149
88895W        W61963   5.241   7.951  10.598
88896W        W61964  20.026  20.365  12.857
88897W        W61965  22.566  27.009   2.282
88898W        W61966   7.386   8.977   5.085
88899W        W61967  14.193   9.072   1.402
88900W        W61968   0.877  16.381   2.474
88901W        W61969   4.444  29.446   0.303
88902W        W61970  24.277  32.945  12.541
88903W        W61971  24.266  18.684   1.286
88904W        W61972  13.394   7.485   2.152
88905W        W61973  24.585   8.631  11.484
88906W        W61974   7.041  16.095  14.890
88907W        W61975  16.741  27.628  13.379
88908W        W61976  14.167  25.961   0.261
88909W        W61977  19.482  40.415  14.952
88910W        W61978   9.760  39.466  11.424
88911W        W61979  39.515  25.972   3.819
88912W        W61980  20.247  43.271   9.915
88913W        W61981  19.507  27.172  11.973
88914W        W61982  34.415  36.871   3.839
88915W        W61983  33.790   7.187  12.051
88916W        W61984  15.117  26.157   3.803
88917W        W61985  17.037  43.224  11.739
88918W        W61986  39.367   3.955  13.598
88919W        W61987   4.337  24.603   2.357
88920W        W61988   0.738   2.924  14.266
88921W        W61989  30.299  37.810  13.199
88922W        W61990   2.154  39.846  14.158
88923W        W61991  14.159  34.417   1.063
88924W        W61992  33.174  24.150   0.975
88925W        W61993  25.437  23.020   0.613
88926W        W61994  16.530   7.559  14.451
88927W        W61995  28.057  32.469   3.202
88928W        W61996  27.421  39.091   0.855
88929W        W61997  25.564   8.184  11.966
88930W        W61998  18.754   7.929  13.817
88931W        W61999  30.375  35.525   4.398
88932W        W62000  26.501  12.078   2.454
88933W        W62001  13.785  24.714  14.243
88934W        W62002  21.198   2.531   4.443
88935W        W62003  28.341  18.582   4.737
88936W        W62004  35.172  33.140   3.701
88937W        W62005  33.563  19.248   2.793
88938W        W62006   1.265  36.499  12.649
88939W        W62007   3.953   3.775   2.897
88940W        W62008  12.040  25.427   2.300
88941W        W62009  23.882  19.126   9.727
88942W        W62010   1.966  14.735  11.146
88943W        W62011  24.120  44.795   0.934
88944W        W62012  23.652  21.994  13.823
88945W        W62013   3.019  22.540  14.284
88946W        W62014  26.813  22.059  12.425
88947W        W62015  13.168  28.047  14.260
88948W        W62016  26.125  40.026   4.222
88949W        W62017  36.439   9.949   4.231
88950W        W62018  11.454   8.327  14.868
88951W        W62019  30.196  23.674  10.550
88952W        W62020  10.420   5.395  13.472
88953W        W62021   9.259  36.607   3.308
88954W        W62022  43.318  35.001   3.828
88955W        W62023  21.826  44.423  11.500
88956W        W62024  18.426  18.356  13.074
88957W        W62025  28.397   7.346  13.887
88958W        W62026  36.639   7.395  10.799
88959W        W62027  23.107  19.246   2.709
88960W        W62028  10.996  23.513   3.610
88961W        W62029   3.287  21.680  11.909
88962W        W62030  21.158  15.178   0.997
88963W        W62031   3.843  14.240  12.591
88964W        W62032  44.073  37.747   3.758
88965W        W62033  28.582  17.496  14.389
88966W        W62034  23.197  35.534  12.351
88967W        W62035  31.956   5.203  12.924
88968W        W62036  38.781  44.352  12.554
88969W        W62037  11.665  33.326   1.938
88970W        W62038   0.511   5.885  14.562
88971W        W62039  23.393  28.744   2.249
88972W        W62040  23.009  39.781  11.911
88973W        W62041  14.777  32.578   3.802
88974W        W62042  36.181  32.045  10.696
88975W        W62043  21.566  20.270  11.125
88976W        W62044  31.019   6.178   0.261
88977W        W62045   0.059  44.038  12.485
88978W        W62046  29.860  30.029  13.191
88979W        W62047   8.053   1.397   3.279
88980W        W62048  26.909  14.701  12.910
88981W        W62049  44.803  33.554   2.864
88982W        W62050  40.477  37.128  11.415
88983W        W62051   1.129   0.852  14.150
88984W        W62052  11.374  35.351  11.031
88985W        W62053  29.490  18.145   3.592
88986W        W62054  15.056  31.236  13.868
88987W        W62055  21.420  11.765   2.107
88988W        W62056   0.073   0.336   2.152
88989W        W62057  21.059   4.260   2.809
88990W        W62058  41.333  27.868  11.853
88991W        W62059  39.656  43.737   1.649
88992W        W62060  23.513  31.068  13.410
88993W        W62061  17.972  18.736  14.767
88994W        W62062  32.627   6.255   0.012
88995W        W62063  43.455  11.201  12.933
88996W        W62064   7.744  25.119   1.340
88997W        W62065  44.813   8.807  12.319
88998W        W62066  27.024   9.392  10.276
88999W        W62067  36.143   2.752  11.134
89000W        W62068  36.908   9.405   4.151
89001W        W62069  26.672  13.690   4.719
89002W        W62070  24.370  42.594   0.447
89003W        W62071   2.386  34.972  12.805
89004W        W62072  20.272  33.148  13.477
89005W        W62073  10.739  13.210  10.437
89006W        W62074   5.326  38.509  12.969
89007W        W62075  16.283  18.337  14.780
89008W        W62076  38.296   2.851   2.409
89009W        W62077   1.674  17.849   3.961
89010W        W62078  30.004   8.224  11.426
89011W        W62079  33.394  10.456   1.779
89012W        W62080  20.053  32.051   1.488
89013W        W62081  37.985  21.834   1.896
89014W        W62082  41.592  10.362   4.920
89015W        W62083  19.954  16.528   0.940
89016W        W62084  41.720  16.055  11.531
89017W        W62085  10.025   3.863  12.939
89018W        W62086   5.275   2.317  11.616
89019W        W62087   5.497  39.588  11.541
89020W        W62088  38.984  27.693   4.232
89021W        W62089  39.817  22.887   1.855
89022W        W62090  16.215  35.137  12.764
89023W        W62091  25.696   2.453   4.528
89024W        W62092  37.895  30.881  13.402
89025W        W62093  34.002   0.247   4.160
89026W        W62094   0.590  15.355  12.360
89027W        W62095  22.616  35.961  11.181
89028W        W62096   6.939  12.445   0.813
89029W        W62097  33.136  26.660   4.544
89030W        W62098  38.961   2.165   0.936
89031W        W62099  10.032   0.849   0.956
89032W        W62100   2.258  37.375  14.038
89033W        W62101   3.497  10.341   0.827
89034W        W62102  42.528   3.185  10.970
89035W        W62103  32.556  11.158  11.851
89036W        W62104  21.482   4.199   0.059
89037W        W62105  38.458  34.906   3.295
89038W        W62106  40.019   7.743   0.965
89039W        W62107  33.076  26.265   1.261
89040W        W62108  42.768   4.606  14.214
89041W        W62109  25.485   2.659   1.851
89042W        W62110  34.205   2.253   2.956
89043W        W62111   4.984  37.863  10.205
89044W        W62112   4.383  19.123  13.961
89045W        W62113  23.976  37.318   4.734
89046W        W62114  13.158   8.186   2.783
89047W        W62115  43.924  10.941  13.762
89048W        W62116  26.216  44.969   0.441
89049W        W62117   4.861  33.064  11.895
89050W        W62118  26.570  40.299   1.660
89051W        W62119   4.516  38.407  14.412
89052W        W62120  43.038  25.630   0.372
89053W        W62121  19.693  22.054  14.340
89054W        W62122  38.579  29.288  12.567
89055W        W62123  12.136  24.718  14.882
89056W        W62124  24.438  20.863   5.064
89057W        W62125   6.892  36.035  14.741
89058W        W62126  28.016   5.958   4.853
89059W        W62127  27.437  29.536   4.554
89060W        W62128  22.952  34.618   2.207
89061W        W62129   4.183  33.384  12.091
89062W        W62130  25.519  30.316  14.731
89063W        W62131  31.139  19.818   3.879
89064W        W62132   2.487   1.894   1.889
89065W        W62133  12.327  42.301   2.272
89066W        W62134  41.379  30.306   3.704
89067W        W62135  11.404   3.328  13.621
89068W        W62136   4.980  35.508  12.088
89069W        W62137  31.862   9.888  12.381
89070W        W62138  30.043  13.262   1.221
89071W        W62139  24.606  38.366   4.549
89072W        W62140  30.460  44.870   4.658
89073W        W62141   3.447  30.637   3.236
89074W        W62142  10.590  27.330  14.727
89075W        W62143  25.586  14.400  12.362
89076W        W62144   4.816  33.429  13.181
89077W        W62145  11.629  28.572   1.279
89078W        W62146   1.063  34.979   0.272
89079W        W62147  25.580  44.953   4.149
89080W        W62148  18.691  34.691   0.302
89081W        W62149  20.602  37.006   3.352
89082W        W62150  42.876   9.818  11.729
89083W        W62151  44.424  25.623   4.980
89084W        W62152  22.107  19.815   1.678
89085W        W62153  37.815  32.469  10.288
89086W        W62154   6.069  26.976  11.484
89087W        W62155   8.358  42.250   1.449
89088W        W62156  43.022  14.882  14.335
89089W        W62157  37.085  27.397   2.188
89090W        W62158  24.237  13.633  13.548
89091W        W62159   9.859  28.234   0.907
89092W        W62160  30.114  14.111  11.562
89093W        W62161   1.441  24.651  12.061
89094W        W62162  25.182  43.598  13.679
89095W        W62163  30.973  44.514  11.378
89096W        W62164   7.336  14.574  10.698
89097W        W62165  39.594  40.598   2.623
89098W        W62166  15.642  39.615   0.006
89099W        W62167   5.998   4.184   0.085
89100W        W62168  39.927  12.192  11.370
89101W        W62169  22.001  12.086   3.800
89102W        W62170   5.223  31.042   4.378
89103W        W62171  24.217  20.042   4.604
89104W        W62172  37.299  41.474  14.588
89105W        W62173  17.652  35.978   3.676
89106W        W62174  29.364  12.559   2.226
89107W        W62175  26.246  32.537   0.915
89108W        W62176   1.379  36.910  13.963
89109W        W62177  36.558  42.552  11.983
89110W        W62178  31.451   5.347   1.660
89111W        W62179  17.999  18.610  11.432
89112W        W62180  25.158  27.652  12.124
89113W        W62181  25.776  30.397  13.967
89114W        W62182  14.303  34.438   4.152
89115W        W62183  24.662   4.022  10.541
89116W        W62184  13.866   6.219  12.521
89117W        W62185  18.352  14.561  12.600
89118W        W62186   4.666  13.283   0.874
89119W        W62187  26.198  44.413   0.516
89120W        W62188  12.848  12.890   3.797
89121W        W62189  18.424  27.353   0.445
89122W        W62190   6.716  37.560  12.095
89123W        W62191  32.161  44.310   1.723
89124W        W62192  33.034  12.486   4.405
89125W        W62193  34.549   1.752  11.115
89126W        W62194  19.544   1.736   3.194
89127W        W62195  28.000  10.377  11.827
89128W        W62196   1.547  40.434   2.153
89129W        W62197  26.666  32.232  13.915
89130W        W62198  41.301  41.904  11.115
89131W        W62199  16.737  35.433  14.406
89132W        W62200   8.689   8.130   2.603
89133W        W62201  44.562  31.877   3.606
89134W        W62202  29.970  38.847  13.451
89135W        W62203  17.461  41.285  14.754
89136W        W62204  22.805  39.105  10.565
89137W        W62205  38.740  44.025   4.305
89138W        W62206  43.901  20.234  13.562
89139W        W62207  28.634  40.937   3.249
89140W        W62208  29.420  31.962   2.667
89141W        W62209  24.916  14.907   2.664
89142W        W62210  30.749  14.891  11.986
89143W        W62211  34.380   4.386  13.427
89144W        W62212  37.347   2.293  14.144
89145W        W62213  24.743  37.467   3.331
89146W        W62214  40.069   1.623   2.612
89147W        W62215  29.995  42.365   3.175
89148W        W62216  15.690   4.484   3.963
89149W        W62217  21.131  23.984   4.945
89150W        W62218  13.206  29.993   2.928
89151W        W62219  32.161   7.777  13.034
89152W        W62220  30.283  15.669   1.226
89153W        W62221  27.678  38.359   2.802
89154W        W62222  19.676  42.038   2.355
89155W        W62223   2.715  21.532   4.257
89156W        W62224  34.019  25.463   3.827
89157W        W62225  32.392   9.390   4.514
89158W        W62226  29.724  40.925   2.300
89159W        W62227  38.556  31.489  11.618
89160W        W62228  20.224   5.894  10.585
89161W        W62229  25.932  25.637  12.461
89162W        W62230  20.701  42.960   0.156
89163W        W62231  15.142  14.052   0.272
89164W        W62232  16.182   6.001   1.858
89165W        W62233  27.538  30.054   2.843
89166W        W62234  24.658   4.895   3.863
89167W        W62235  41.052   9.752  12.893
89168W        W62236  38.331   0.740   2.845
89169W        W62237  28.473   8.007  11.998
89170W        W62238   2.958   0.976  11.197
89171W        W62239   9.230   7.784   3.216
89172W        W62240  30.213  26.728   2.807
89173W        W62241  12.880  23.119   1.184
89174W        W62242  24.837  25.199   4.105
89175W        W62243  14.886  44.745   1.343
89176W        W62244  21.776  15.908  11.894
89177W        W62245  25.736   4.507  11.098
89178W        W62246   1.882  44.597   2.735
89179W        W62247   3.939  33.771  12.416
89180W        W62248  39.806   6.270   2.874
89181W        W62249  16.756   4.706  11.375
89182W        W62250  30.038  29.026  11.471
89183W        W62251  34.118   1.252   0.284
89184W        W62252  38.779  21.713  14.433
89185W        W62253  11.540   8.325  10.757
89186W        W62254  20.387  17.722  14.454
89187W        W62255  30.269  23.860  11.020
89188W        W62256  17.465  20.044  11.724
89189W        W62257  14.668  21.053   5.015
89190W        W62258  34.814  31.009   3.854
89191W        W62259  39.845   1.405   5.115
89192W        W62260  10.587  21.142  11.256
89193W        W62261  27.506   8.788   2.259
89194W        W62262  10.267   6.487   3.520
89195W        W62263   6.785  39.892  12.572
89196W        W62264  16.655  36.331  13.373
89197W        W62265  31.122  33.199  11.540
89198W        W62266  10.138  17.566  14.317
89199W        W62267  43.427  35.593   0.230
89200W        W62268  21.589  20.338   4.236
89201W        W62269  22.802  21.499  11.150
89202W        W62270  40.854   7.345   0.254
89203W        W62271  12.270  15.420   3.233
89204W        W62272  37.822   5.863  13.573
89205W        W62273   8.631   3.313   3.889
89206W        W62274  35.600  41.878   2.884
89207W        W62275  15.148  42.428   3.883
89208W        W62276  25.543  34.947  12.602
89209W        W62277  15.255  16.157   3.355
89210W        W62278  22.396   7.450  13.492
89211W        W62279  32.888  10.676   4.760
89212W        W62280  27.028  34.891  12.367
89213W        W62281  30.224  44.297  14.378
89214W        W62282  34.560   3.915  11.699
89215W        W62283   8.465   5.230   1.368
89216W        W62284   2.373  28.106  14.485
89217W        W62285  16.250  41.275   0.262
89218W        W62286  11.101  38.792  13.809
89219W        W62287  37.053  44.301  10.918
89220W        W62288  43.637   8.199  14.571
89221W        W62289  20.986  24.772  13.051
89222W        W62290   9.862  27.266   0.551
89223W        W62291  18.843  30.582   1.495
89224W        W62292   2.281  24.222  11.949
89225W        W62293  11.086  33.089   1.264
89226W        W62294  29.436  33.154  14.898
89227W        W62295   1.749   4.683   4.399
89228W        W62296  40.575  19.543   5.102
89229W        W62297  27.370  42.300   2.285
89230W        W62298  27.560  40.921   0.268
89231W        W62299  31.050   4.183   2.740
89232W        W62300  35.605  22.131  14.400
89233W        W62301  14.375  14.723   4.256
89234W        W62302  21.211   0.605   5.247
89235W        W62303  24.725  28.705  13.315
89236W        W62304  20.010  11.230   2.795
89237W        W62305  41.597  12.760   1.361
89238W        W62306  34.317  28.124  13.996
89239W        W62307  11.557  14.564  11.137
89240W        W62308  26.259  35.102   4.655
89241W        W62309  11.436  43.022   2.828
89242W        W62310  29.230   2.766   0.406
89243W        W62311  10.639  37.930  11.984
89244W        W62312  16.343  38.991  14.009
89245W        W62313  42.443   9.119  11.975
89246W        W62314   0.241  31.086   4.177
89247W        W62315   5.202  27.178  14.424
89248W        W62316  22.573  38.046  11.488
89249W        W62317  36.669  43.081  14.834
89250W        W62318  12.413  24.794   1.726
89251W        W62319  25.124  29.099   2.708
89252W        W62320  15.236  27.326  11.837
89253W        W62321  35.581   8.469  10.522
89254W        W62322   4.038  41.557  10.688
89255W        W62323  41.440  26.585  11.380
89256W        W62324   5.147  22.721   0.077
89257W        W62325   3.807  15.366  12.140
89258W        W62326  13.960  44.339   2.374
89259W        W62327  40.420   0.740   3.067
89260W        W62328   6.150  17.140   4.751
89261W        W62329  24.025   1.009   1.418
89262W        W62330  16.521   7.656  11.274
89263W        W62331  33.764  41.046  11.959
89264W        W62332   0.722   4.336   2.694
89265W        W62333  32.016  37.860   4.657
89266W        W62334   6.148  30.681  13.203
89267W        W62335   5.305   8.631   4.094
89268W        W62336  13.834  31.941  11.104
89269W        W62337  20.066  41.300  10.821
89270W        W62338  28.907   6.471   9.740
89271W        W62339  23.020   7.500  10.465
89272W        W62340  14.795  23.679   0.288
89273W        W62341   5.288  27.405   1.677
89274W        W62342  19.694  18.577   2.378
89275W        W62343  20.010  41.940   0.223
89276W        W62344  43.501  41.985  14.487
89277W        W62345  11.214   2.867  10.420
89278W        W62346   6.381  22.832   2.856
89279W        W62347  32.013   8.611   0.866
89280W        W62348   3.678  18.136  14.335
89281W        W62349  28.530  26.520   4.301
89282W        W62350  41.858  20.541   2.660
89283W        W62351  12.009   4.465   1.268
89284W        W62352  15.508  32.058  10.534
89285W        W62353  21.074  18.516  13.187
89286W        W62354  12.065   9.407  10.590
89287W        W62355  10.806  42.847   3.096
89288W        W62356  20.830  43.367   1.227
89289W        W62357  34.790  15.739  12.993
89290W        W62358  33.152  36.856  12.423
89291W        W62359   5.255  37.490   2.797
89292W        W62360  35.995  19.760  11.682
89293W        W62361   8.256  29.694   4.336
89294W        W62362  26.530  28.748  13.567
89295W        W62363  19.837  39.338   3.634
89296W        W62364  34.201  10.258  10.463
89297W        W62365  10.661  17.584   4.084
89298W        W62366   7.644  20.839  14.885
89299W        W62367  23.165  29.663  11.139
89300W        W62368  35.625  33.904   0.376
89301W        W62369  10.284  12.111   0.873
89302W        W62370  39.755  40.383  12.516
89303W        W62371  19.587  38.395   4.920
89304W        W62372  35.541  34.755  13.973
89305W        W62373  37.549  34.019   1.929
89306W        W62374  36.514  44.451   3.308
89307W        W62375   8.733  17.387   2.181
89308W        W62376  12.386  11.839   1.364
89309W        W62377  35.489  19.199  14.549
89310W        W62378  17.168  26.604   9.872
89311W        W62379  39.990  17.776   4.068
89312W        W62380  41.386   7.853  13.576
89313W        W62381  26.006  16.091  13.270
89314W        W62382  21.232  36.281   3.651
89315W        W62383  19.459  26.020  10.719
89316W        W62384  21.928   5.778  12.465
89317W        W62385   3.411  38.229  12.702
89318W        W62386  29.606  14.313   4.535
89319W        W62387  22.527  42.074  10.588
89320W        W62388  39.890   8.230   2.169
89321W        W62389  43.738   4.333  12.855
89322W        W62390  35.967  42.443   1.732
89323W        W62391  31.774  15.609   4.058
89324W        W62392  28.851  27.538  14.902
89325W        W62393  26.142  43.523   1.468
89326W        W62394  15.192  34.305  12.474
89327W        W62395   7.639  14.567   2.739
89328W        W62396   3.687  12.072   3.007
89329W        W62397  16.287  41.196   4.532
89330W        W62398  16.735   8.853  12.412
89331W        W62399   3.440  42.402  10.671
89332W        W62400  12.378  32.379  13.484
89333W        W62401  27.967  41.865  11.355
89334W        W62402  41.104   1.467   0.881
89335W        W62403   7.684   4.676   3.576
89336W        W62404  42.039   4.359   4.351
89337W        W62405  16.632  37.772  11.773
89338W        W62406   9.821  18.840  10.649
89339W        W62407  21.508  16.471  12.598
89340W        W62408  25.800  26.370   5.220
89341W        W62409  42.423  34.882   4.738
89342W        W62410  29.593  35.578  13.301
89343W        W62411  23.081  40.082   2.687
89344W        W62412  40.631  13.313  10.668
89345W        W62413  12.610  23.064   1.754
89346W        W62414   2.009   0.828  12.105
89347W        W62415  10.071  41.398  10.360
89348W        W62416  33.521  29.120  13.251
89349W        W62417  12.343   3.956   0.418
89350W        W62418  10.919  37.452   4.590
89351W        W62419  15.468  21.765   2.302
89352W        W62420   9.925  10.259   4.455
89353W        W62421  17.133   7.131   2.666
89354W        W62422  13.823  31.611  14.242
89355W        W62423   7.337   8.844   4.060
89356W        W62424  19.605  23.200  11.563
89357W        W62425   6.994  27.748   2.754
89358W        W62426  33.598   4.222   0.980
89359W        W62427  36.607  20.023  11.171
89360W        W62428  25.618  14.353   4.281
89361W        W62429  33.366  44.807  12.178
89362W        W62430  25.540   6.488  10.529
89363W        W62431  13.142  21.654   3.307
89364W        W62432  43.213  13.749  13.569
89365W        W62433  30.711   4.394  12.758
89366W        W62434  40.805  28.170   3.276
89367W        W62435  41.527   0.786   1.245
89368W        W62436  42.247   3.467  13.121
89369W        W62437  37.536  36.147   3.253
89370W        W62438  38.519  44.453   1.895
89371W        W62439   7.649  37.731   3.772
89372W        W62440  24.491  21.552   1.844
89373W        W62441  28.327   4.758  11.594
89374W        W62442   5.001  16.558  10.955
89375W        W62443  20.085  28.996   1.639
89376W        W62444  22.358  20.235   1.942
89377W        W62445  23.020   1.736   3.206
89378W        W62446   8.226  23.736  12.113
89379W        W62447   4.169   6.861  13.513
89380W        W62448  15.733  41.289  10.744
89381W        W62449   3.558  10.262  13.901
89382W        W62450  13.739   5.672  11.544
89383W        W62451  25.797  43.581  12.816
89384W        W62452  39.449  24.054   1.107
89385W        W62453  35.034   9.315  10.667
89386W        W62454   3.767   5.025  13.977
89387W        W62455  42.083  21.043  13.824
89388W        W62456  26.195  31.903   1.576
89389W        W62457  42.678  35.847   3.374
89390W        W62458  13.301  12.643   4.553
89391W        W62459   5.245  44.428  12.053
89392W        W62460  35.653  29.060   1.342
89393W        W62461  40.614  33.653  14.025
89394W        W62462  26.942  37.080   3.559
89395W        W62463   3.368  23.217  13.833
89396W        W62464   6.919  13.904  14.623
89397W        W62465   3.151  30.118  13.990
89398W        W62466  16.651   9.746   4.467
89399W        W62467  28.798  30.914  14.436
89400W        W62468  18.540   1.750  14.792
89401W        W62469   9.185  10.134   2.234
89402W        W62470  12.094  15.872  14.538
89403W        W62471  30.328  30.159   1.107
89404W        W62472   7.068   0.747   3.988
89405W        W62473  43.448  44.290   4.749
89406W        W62474  21.253  15.715  13.578
89407W        W62475   4.520  37.355   1.304
89408W        W62476  38.015  36.879  11.564
89409W        W62477  13.699  18.727   3.127
89410W        W62478  19.597   2.174  14.874
89411W        W62479  20.702   8.860   1.883
89412W        W62480  38.329  16.569  11.987
89413W        W62481  42.005   5.674  11.502
89414W        W62482  31.238   3.026   0.522
89415W        W62483  34.964  22.903  13.377
89416W        W62484  13.072  15.731  14.289
89417W        W62485   2.996  37.117   1.783
89418W        W62486  36.023  30.599  13.676
89419W        W62487  18.594  26.494   5.290
89420W        W62488  27.239   7.589   1.799
89421W        W62489  40.042  30.913  12.383
89422W        W62490  17.239  17.208  13.520
89423W        W62491  17.486  39.494  12.329
89424W        W62492  18.074  29.100  14.797
89425W        W62493   1.395  26.921   1.056
89426W        W62494  38.440  42.281   1.685
89427W        W62495   1.444  42.954   0.845
89428W        W62496  27.384  29.580   2.748
89429W        W62497  25.138  34.384   0.314
89430W        W62498   5.095  39.725   4.982
89431W        W62499  41.299  28.916   1.636
89432W        W62500  19.597  33.326  11.169
89433W        W62501  17.555  31.382   3.650
89434W        W62502  27.262   4.707   4.572
89435W        W62503  44.009  21.248  14.532
89436W        W62504   6.737  24.999  11.544
89437W        W62505  31.375  44.455  14.998
89438W        W62506  25.483  25.866   3.819
89439W        W62507  30.543  43.445  14.243
89440W        W62508  15.062  27.445   4.283
89441W        W62509   9.623  20.352   0.627
89442W        W62510  22.207  19.868  14.321
89443W        W62511   4.907   3.368  12.121
89444W        W62512  15.595   7.710  13.170
89445W        W62513  26.178  29.380   4.074
89446W        W62514  35.077  27.813  13.358
89447W        W62515  22.131  14.391  13.954
89448W        W62516  40.290   5.249  14.288
89449W        W62517  13.314  20.639  14.931
89450W        W62518  41.968  33.938   4.054
89451W        W62519   1.337  16.491   4.894
89452W        W62520  37.775  37.722   2.306
89453W        W62521  29.079  37.476  10.777
89454W        W62522  32.797  42.961   0.447
89455W        W62523  31.936  20.125   1.342
89456W        W62524  35.980   3.262   3.773
89457W        W62525   8.967  42.537  13.821
89458W        W62526  38.431   8.161  10.211
89459W        W62527  24.992  20.865   2.054
89460W        W62528  17.743   7.694   0.906
89461W        W62529  10.465  22.219   4.412
89462W        W62530   0.775  32.402   3.269
89463W        W62531  18.551   5.168  14.846
89464W        W62532  25.473  12.555  14.382
89465W        W62533  26.699  23.133  14.069
89466W        W62534  14.021   0.301  13.933
89467W        W62535  40.479   3.927   1.944
89468W        W62536  11.344  42.370  13.289
89469W        W62537  33.506  24.608  13.843
89470W        W62538   6.105  27.214  14.536
89471W        W62539   3.652  28.839   4.103
89472W        W62540  24.725  20.082  13.574
89473W        W62541  42.345  26.273   0.513
89474W        W62542  23.015  32.323   2.742
89475W        W62543  10.883  25.020   4.363
89476W        W62544   7.136  41.511   4.155
89477W        W62545  28.674  17.686   4.641
89478W        W62546  27.083   0.955  11.598
89479W        W62547  37.898   8.500   4.597
89480W        W62548  38.408  36.507  14.308
89481W        W62549  24.192  10.379  11.334
89482W        W62550  26.117  38.345  11.643
89483W        W62551   8.375  42.474  13.434
89484W        W62552   1.723  18.566  13.482
89485W        W62553  16.768  15.811  11.971
89486W        W62554  31.504  25.757   3.739
89487W        W62555  36.365  19.432   2.335
89488W        W62556  37.988   4.169   0.274
89489W        W62557   9.572  10.369  14.292
89490W        W62558  11.277   4.244   2.646
89491W        W62559  21.750  24.615   4.881
89492W        W62560  17.176  44.320  13.950
89493W        W62561  15.083   5.250   0.716
89494W        W62562  36.247  10.837  10.934
89495W        W62563  32.644   6.801   4.777
89496W        W62564  22.242  35.331   2.300
89497W        W62565  35.441   7.363  11.506
89498W        W62566  38.449  41.393   2.228
89499W        W62567  20.588  20.582  12.780
89500W        W62568   7.423  21.743  10.670
89501W        W62569  43.544  19.057  11.567
89502W        W62570   8.608  41.121  13.323
89503W        W62571  38.822  35.636   2.662
89504W        W62572   0.449  36.501  11.221
89505W        W62573  41.546  24.912  14.012
89506W        W62574   3.667  25.749  12.353
89507W        W62575   8.803  21.050  12.148
89508W        W62576  21.974  22.971  13.355
89509W        W62577  12.242   5.261  10.652
89510W        W62578  19.721  11.304  13.533
89511W        W62579  33.683  27.942  13.076
89512W        W62580   1.858  19.149   4.390
89513W        W62581  40.338   8.036   2.293
89514W        W62582  12.770   0.517   4.612
89515W        W62583   9.703  27.638   2.657
89516W        W62584  32.812  42.535   0.732
89517W        W62585  44.864  38.604  13.067
89518W        W62586  15.779  37.854  12.214
89519W        W62587  34.408   1.370   1.276
89520W        W62588  37.317  35.070  12.464
89521W        W62589   7.207  44.779  11.551
89522W        W62590  12.806  36.375   4.537
89523W        W62591  19.618  10.819   2.434
89524W        W62592  42.552  30.728  11.094
89525W        W62593  27.452  40.879   2.767
89526W        W62594  31.926  31.354   2.344
89527W        W62595  32.142  12.645  14.472
89528W        W62596  13.878  41.532  14.005
89529W        W62597   8.286   2.474   3.725
89530W        W62598  40.121  42.542  13.663
89531W        W62599  21.743  32.235  12.469
89532W        W62600  29.980   5.467   0.925
89533W        W62601  21.724  20.919  10.437
89534W        W62602   0.433   7.821  10.652
89535W        W62603   3.655  29.090   3.272
89536W        W62604  42.054   0.403  10.073
89537W        W62605   6.359  37.442   0.796
89538W        W62606  33.844  32.681  12.517
89539W        W62607  11.348  27.119   3.647
89540W        W62608  14.484  10.520  13.886
89541W        W62609  17.086  34.906  12.648
89542W        W62610   8.288  24.530   3.895
89543W        W62611  32.676  11.055  13.860
89544W        W62612  14.885  30.740   4.160
89545W        W62613   4.770  16.556   9.878
89546W        W62614  19.620  33.922   0.849
89547W        W62615  28.576  27.242  13.479
89548W        W62616   8.720   7.869   1.939
89549W        W62617  15.812  44.374  10.562
89550W        W62618   3.509   9.578   0.316
89551W        W62619  27.398  24.620   4.230
89552W        W62620  28.982   1.466   3.393
89553W        W62621  29.108  35.197  12.783
89554W        W62622  14.044  18.259  12.748
89555W        W62623  23.715  41.808  11.506
89556W        W62624  24.386  38.902  13.032
89557W        W62625  28.177  34.146  14.676
89558W        W62626  44.268  41.824  11.323
89559W        W62627  20.232  20.215   2.613
89560W        W62628  12.764  21.017  10.711
89561W        W62629  40.917   1.242  10.177
89562W        W62630  11.157  15.350   0.316
89563W        W62631  41.880  36.633   1.441
89564W        W62632  18.326  19.048  12.353
89565W        W62633  24.621  44.422  13.436
89566W        W62634  26.677   9.907   1.319
89567W        W62635  25.187  43.447  14.190
89568W        W62636   5.327   6.796   4.399
89569W        W62637  22.941   0.103  13.926
89570W        W62638  12.219  26.694   1.821
89571W        W62639   0.294   0.665  14.137
89572W        W62640  28.758  17.757   0.825
89573W        W62641  25.649   5.612   2.690
89574W        W62642  33.057  23.750  10.587
89575W        W62643  39.412  25.946   4.338
89576W        W62644   0.878  24.602   1.698
89577W        W62645  27.207  38.795   4.617
89578W        W62646  30.621  29.041  14.748
89579W        W62647  35.433  29.092   0.891
89580W        W62648  31.886  19.099   4.581
89581W        W62649   8.835  40.337   1.520
89582W        W62650  43.457  21.800   2.212
89583W        W62651  28.980  30.876  11.593
89584W        W62652  11.798  30.979   2.189
89585W        W62653  13.038   3.422   3.740
89586W        W62654  27.478  23.113   3.434
89587W        W62655  33.200  31.233  11.028
89588W        W62656  34.497  30.199   3.603
89589W        W62657  19.386   8.323  13.690
89590W        W62658  43.918  29.211  14.745
89591W        W62659  32.108  21.218   3.687
89592W        W62660  25.187  34.958   4.755
89593W        W62661  43.405  42.512  11.326
89594W        W62662  36.263   1.376  11.076
89595W        W62663  15.042  18.457  13.780
89596W        W62664  20.994   9.488   0.073
89597W        W62665  35.678  30.489   3.261
89598W        W62666  32.595  18.709   0.020
89599W        W62667  14.219  39.460   3.798
89600W        W62668   4.659  44.807  11.610
89601W        W62669  27.038  39.928  10.812
89602W        W62670  29.834  38.086   1.539
89603W        W62671  35.611   2.802  14.913
89604W        W62672  22.886  39.436  13.888
89605W        W62673  24.244   5.407  11.589
89606W        W62674   5.015  12.389   1.844
89607W        W62675  34.484  36.640   3.389
89608W        W62676   1.897  27.393  14.249
89609W        W62677   2.469  19.140   4.439
89610W        W62678  42.469  31.741   4.006
89611W        W62679  26.292   4.248  11.502
89612W        W62680   3.147  40.916   4.882
89613W        W62681  17.935  18.026  13.052
89614W        W62682  12.211   5.423  13.974
89615W        W62683  38.857  36.316  14.024
89616W        W62684  41.056   0.370  14.416
89617W        W62685   7.419  22.520   1.874
89618W        W62686  25.723  37.397   3.069
89619W        W62687  24.058  15.719   4.502
89620W        W62688   9.300  30.666  13.530
89621W        W62689  29.433  19.606   0.308
89622W        W62690  41.573  29.876  13.653
89623W        W62691  10.089  36.648  14.450
89624W        W62692  12.740   6.314   0.818
89625W        W62693  43.869  36.998   1.425
89626W        W62694   9.750  19.026  12.487
89627W        W62695   6.366  30.667  10.728
89628W        W62696  39.530  18.263  14.900
89629W        W62697   2.525  17.797  11.730
89630W        W62698  31.518  24.087  12.300
89631W        W62699  17.094  21.790   1.694
89632W        W62700  19.059  11.635   4.619
89633W        W62701  21.050  44.455  11.975
89634W        W62702  30.182  11.250   2.461
89635W        W62703  28.918  31.896  13.329
89636W        W62704   1.239  13.614   1.503
89637W        W62705   2.278  21.101  12.958
89638W        W62706   3.961  36.564   2.641
89639W        W62707   3.808  33.376   0.537
89640W        W62708   0.323   3.155   4.654
89641W        W62709  20.809  21.705  11.103
89642W        W62710  27.842   3.367   4.091
89643W        W62711  26.173  38.101  14.539
89644W        W62712  37.597  10.753  12.860
89645W        W62713  39.441   5.353   3.319
89646W        W62714  23.075   7.629   0.487
89647W        W62715   7.164  26.423   2.236
89648W        W62716   3.799  39.867   3.670
89649W        W62717  11.897  17.854   3.390
89650W        W62718  29.538  23.937   4.105
89651W        W62719  34.270  41.022  12.078
89652W        W62720   9.695   8.063  13.612
89653W        W62721  24.643   3.119  12.965
89654W        W62722   7.189  14.785  12.193
89655W        W62723  40.728  15.365   2.161
89656W        W62724  16.231   8.694   0.697
89657W        W62725  17.755  28.389   4.605
89658W        W62726  32.257  12.166   3.184
89659W        W62727  20.377  18.124  12.864
89660W        W62728  20.546   8.742   0.803
89661W        W62729  38.144   7.384   0.369
89662W        W62730   9.677  36.329  10.948
89663W        W62731   6.900   1.155  10.499
89664W        W62732  12.125  30.368   3.633
89665W        W62733  34.193  23.065  13.844
89666W        W62734   5.115  24.626   2.983
89667W        W62735  43.520   6.204   1.417
89668W        W62736   3.523  12.349  12.398
89669W        W62737  23.956  39.533   1.395
89670W        W62738  12.565  14.377   3.450
89671W        W62739   9.341  35.557  10.520
89672W        W62740  16.730   4.968   4.747
89673W        W62741  38.255  19.668  12.672
89674W        W62742  39.618  26.597  13.890
89675W        W62743   9.905  17.044  11.092
89676W        W62744  37.859  44.061  13.422
89677W        W62745  35.786  37.408   3.605
89678W        W62746  16.642  11.928  14.743
89679W        W62747   2.243  30.598   0.914
89680W        W62748   1.623  16.514   2.895
89681W        W62749  10.433  32.990   0.475
89682W        W62750  44.578  18.979   4.948
89683W        W62751  41.604  18.289  10.682
89684W        W62752   5.257  23.154  14.834
89685W        W62753  23.395  24.004  11.669
89686W        W62754  42.779  42.792  11.442
89687W        W62755   7.372  23.005   3.347
89688W        W62756   1.216   6.595   3.145
89689W        W62757  36.835  31.440  13.389
89690W        W62758  30.632  41.338  12.612
89691W        W62759   4.243  25.620   0.884
89692W        W62760  16.131  28.604   2.307
89693W        W62761  43.750   0.398  13.379
89694W        W62762  21.737   3.924  13.008
89695W        W62763  30.054   5.745   1.810
89696W        W62764  22.687   4.096  14.533
89697W        W62765  23.151  23.240   2.520
89698W        W62766  39.402  39.860  14.931
89699W        W62767  36.431   5.271  11.573
89700W        W62768  20.741  43.102  12.982
89701W        W62769  29.100  41.226   3.199
89702W        W62770  11.873  34.901  13.413
89703W        W62771  32.548  28.625  11.406
89704W        W62772  20.706  28.504  12.574
89705W        W62773  30.186  44.415   4.445
89706W        W62774  28.461  25.232   0.404
89707W        W62775  32.113  10.333   1.181
89708W        W62776   0.442  13.144   3.569
89709W        W62777   1.997   0.319  14.965
89710W        W62778  33.527  33.652  11.484
89711W        W62779   7.726  21.751  14.781
89712W        W62780  11.917   8.662   1.148
89713W        W62781  42.957  28.669   3.604
89714W        W62782  27.537  12.771   4.046
89715W        W62783  34.914  29.004  14.356
89716W        W62784  44.896  10.112   0.514
89717W        W62785   3.326  18.785   2.350
89718W        W62786   5.271  20.771   2.606
89719W        W62787  39.059  24.367  14.769
89720W        W62788  42.938  33.972   1.262
89721W        W62789  21.121  34.106  13.559
89722W        W62790  36.937  11.168  12.413
89723W        W62791  10.368  39.865  13.850
89724W        W62792  25.159  34.088   1.926
89725W        W62793  35.665  34.301  13.791
89726W        W62794  27.734  40.920  12.505
89727W        W62795  26.912  36.495   4.313
89728W        W62796  44.786  40.746  11.552
89729W        W62797  24.736  33.869  12.442
89730W        W62798  27.561  44.486  11.556
89731W        W62799  22.267  38.867  11.075
89732W        W62800  36.870   4.444   1.135
89733W        W62801   4.481  12.216  12.575
89734W        W62802  26.916  26.464   0.308
89735W        W62803  44.998  44.401   4.089
89736W        W62804   8.676  41.060   3.227
89737W        W62805  43.180  15.078   0.593
89738W        W62806   0.385   9.003  12.942
89739W        W62807  23.297  43.359   1.741
89740W        W62808  41.044   8.732   1.971
89741W        W62809  17.337  42.484   3.319
89742W        W62810  19.977   3.336  13.830
89743W        W62811  15.292  24.035  11.220
89744W        W62812   1.955   7.752  11.600
89745W        W62813  38.813  15.375   3.685
89746W        W62814  17.030  13.762  14.942
89747W        W62815  16.453   2.165  11.048
89748W        W62816   3.262  21.173  14.465
89749W        W62817   6.486  32.346   1.635
89750W        W62818  14.714   9.366  11.117
89751W        W62819   6.620  31.126  12.557
89752W        W62820   6.210  11.265   2.281
89753W        W62821  22.443  21.146  14.510
89754W        W62822   9.252  41.496   0.263
89755W        W62823  44.834  20.076   0.788
89756W        W62824  43.418   6.422   4.290
89757W        W62825  41.088  44.735   1.852
89758W        W62826  10.899  36.394  14.742
89759W        W62827  11.093   8.291   4.506
89760W        W62828   6.237  19.248  13.672
89761W        W62829  22.497  14.127  13.574
89762W        W62830  10.199   3.663  13.363
89763W        W62831  30.107  17.386   3.803
89764W        W62832  29.313  44.270  14.894
89765W        W62833  39.379  19.239  10.686
89766W        W62834  43.865   9.929  12.163
89767W        W62835  40.877   1.479  14.855
89768W        W62836  14.473  23.189  13.404
89769W        W62837  17.232  42.406  13.241
89770W        W62838  14.057  31.209   2.682
89771W        W62839   0.820   5.698   4.444
89772W        W62840   1.003  15.093  12.089
89773W        W62841  14.171  19.588  12.837
89774W        W62842  27.594   1.809   1.398
89775W        W62843  37.464  36.454  11.411
89776W        W62844   9.644  30.053  14.824
89777W        W62845  28.847   6.228   4.581
89778W        W62846   6.728  11.390  14.300
89779W        W62847  13.715  32.062  14.447
89780W        W62848  17.711   1.359  12.466
89781W        W62849  20.741  18.064   1.706
89782W        W62850   5.108  35.072   3.349
89783W        W62851  35.151  20.165  14.951
89784W        W62852  18.184  25.975   4.522
89785W        W62853   8.790  29.061   2.857
89786W        W62854  21.299  33.228   4.497
89787W        W62855  27.902  19.967  11.208
89788W        W62856  33.715   4.320   4.780
89789W        W62857  40.395   8.830   3.723
89790W        W62858  33.959  22.117  13.728
89791W        W62859  44.910  16.866  12.427
89792W        W62860   4.692  17.593   0.976
89793W        W62861  35.087  16.695   3.965
89794W        W62862  29.562  11.426   3.153
89795W        W62863  30.479  30.671   1.830
89796W        W62864  12.855   7.154   3.323
89797W        W62865   1.940  16.729  13.017
89798W        W62866  26.101  33.401  14.083
89799W        W62867  23.653   0.488   3.397
89800W        W62868  39.079  19.200   4.341
89801W        W62869  35.147  18.587  11.144
89802W        W62870   9.171  16.060  10.488
89803W        W62871   4.999   7.178   3.645
89804W        W62872  40.461  41.872   4.048
89805W        W62873   4.340  12.120  12.068
89806W        W62874  13.884  21.992   3.093
89807W        W62875   4.749  11.189  11.848
89808W        W62876  36.952  29.605  10.485
89809W        W62877   3.303  33.069  12.552
89810W        W62878  41.433  22.999  11.903
89811W        W62879  17.355  12.942  12.523
89812W        W62880  26.135  22.521  10.685
89813W        W62881  19.070   4.403   0.839
89814W        W62882  33.655  13.094  14.312
89815W        W62883  11.712  24.573   3.449
89816W        W62884  34.188  27.923  14.453
89817W        W62885   5.705  17.531   0.763
89818W        W62886  41.908  27.148  12.430
89819W        W62887   6.039   7.183   3.573
89820W        W62888  30.738  14.878   3.207
89821W        W62889   2.287  26.547   2.697
89822W        W62890  43.636  39.327  14.926
89823W        W62891  17.018  27.190   0.254
89824W        W62892  34.891  12.886  14.530
89825W        W62893  10.260   9.666   2.450
89826W        W62894  27.777  40.586  12.929
89827W        W62895  22.390  39.140   4.338
89828W        W62896  26.876  24.250  13.958
89829W        W62897   8.712  17.789  12.440
89830W        W62898  38.554  19.070  11.022
89831W        W62899  29.070  38.620   1.721
89832W        W62900  32.140  14.918   2.211
89833W        W62901  19.183  13.650  11.502
89834W        W62902   8.214   4.773   4.845
89835W        W62903  44.699  22.490   4.232
89836W        W62904   9.254  33.428  12.073
89837W        W62905  23.420  24.451  14.003
89838W        W62906  35.878  20.809   2.172
89839W        W62907  23.391   8.695  12.023
89840W        W62908  17.333  33.706   4.606
89841W        W62909   5.360  37.908   4.628
89842W        W62910  42.920  43.108  13.836
89843W        W62911  41.359  27.716  13.120
89844W        W62912  13.244  11.601   1.306
89845W        W62913  30.706  36.518  13.637
89846W        W62914  44.125  29.597  12.582
89847W        W62915  13.574  13.164   2.818
89848W        W62916  31.444  26.031   4.724
89849W        W62917  12.694   2.420   4.643
89850W        W62918  41.024  16.256   2.767
89851W        W62919  36.315  25.628   2.321
89852W        W62920  18.005   3.296   2.222
89853W        W62921   0.119  28.404   4.147
89854W        W62922  39.301  40.351  12.820
89855W        W62923  30.581  21.270  13.287
89856W        W62924  37.874   6.804  10.817
89857W        W62925  30.938  16.283   3.460
89858W        W62926  36.107  22.276  14.369
89859W        W62927  14.026   9.822  14.188
89860W        W62928  31.167  17.297   4.695
89861W        W62929  20.778  29.949   4.553
89862W        W62930  35.548  15.795   4.195
89863W        W62931   9.511  36.333  11.847
89864W        W62932  10.173  13.342   3.713
89865W        W62933  27.202  24.115   3.379
89866W        W62934   5.734  16.689  13.879
89867W        W62935  21.625  38.099   0.438
89868W        W62936  20.788  32.847   1.702
89869W        W62937  44.257  13.789   0.333
89870W        W62938  25.112  25.208   3.169
89871W        W62939  17.140  41.348   3.941
89872W        W62940  26.530  10.236   1.718
89873W        W62941  36.952  23.218  10.876
89874W        W62942  17.746   7.641   2.014
89875W        W62943  37.038  31.524  10.567
89876W        W62944  40.226  18.265  11.121
89877W        W62945  14.697  44.258  11.360
89878W        W62946  13.027   7.851  12.149
89879W        W62947  14.732  13.358   0.217
89880W        W62948  12.164  31.157  11.070
89881W        W62949   2.986  40.473  12.948
89882W        W62950  20.623  34.208   0.692
89883W        W62951  33.633  12.566  13.482
89884W        W62952   0.961  34.399  13.995
89885W        W62953  10.725  35.202  12.559
89886W        W62954  26.814  29.791   4.978
89887W        W62955  17.519  15.784  12.544
89888W        W62956  21.672  41.636  11.583
89889W        W62957  12.890  23.490   1.881
89890W        W62958   1.699  38.909   1.650
89891W        W62959  19.893  21.704  14.663
89892W        W62960  32.895   5.306  14.652
89893W        W62961   7.258  16.829  11.387
89894W        W62962  40.518  31.655  13.986
89895W        W62963  39.872  21.492  13.798
89896W        W62964  19.367  18.873  13.156
89897W        W62965  24.742  39.014   1.356
89898W        W62966  17.330  26.984   4.070
89899W        W62967   4.245   2.015   0.278
89900W        W62968   1.166   5.986  14.894
89901W        W62969  42.908  35.998   1.600
89902W        W62970   1.882  18.118   2.662
89903W        W62971  31.462  34.416  13.433
89904W        W62972   4.710  40.993   0.287
89905W        W62973  26.019  24.487   1.642
89906W        W62974  16.473   6.864  10.542
89907W        W62975  31.600  16.311   4.174
89908W        W62976  23.001  18.823   4.227
89909W        W62977  21.798  27.527  13.483
89910W        W62978  19.827  35.416  11.636
89911W        W62979  36.412  22.046  14.895
89912W        W62980  26.817  20.813   4.950
89913W        W62981  18.994  19.076  13.467
89914W        W62982  37.515  20.815   3.851
89915W        W62983  12.635  40.010   0.979
89916W        W62984  39.298  44.261   3.228
89917W        W62985  14.368  38.102   3.373
89918W        W62986   2.373  12.702  13.631
89919W        W62987  13.139  28.115   2.701
89920W        W62988  27.971  11.050  14.938
89921W        W62989   0.717  28.041   3.223
89922W        W62990   8.214  22.994  14.457
89923W        W62991  12.648   3.925  13.374
89924W        W62992  24.130  25.229  11.105
89925W        W62993   0.100  41.538   2.074
89926W        W62994  15.177   9.698   4.562
89927W        W62995   1.408  14.759   0.059
89928W        W62996  19.689  34.914  12.976
89929W        W62997   8.636  14.559   3.572
89930W        W62998  34.936  11.216  11.975
89931W        W62999  40.825  15.759   4.528
89932W        W63000   0.778  44.535  10.564
89933W        W63001  12.772  10.904   2.768
89934W        W63002  21.686  38.307  13.307
89935W        W63003  25.666  42.736  11.946
89936W        W63004  38.184  37.131  12.977
89937W        W63005  21.483  21.067   2.937
89938W        W63006  26.146  40.470  10.060
89939W        W63007  22.750  30.933   2.890
89940W        W63008  42.922  22.572  11.653
89941W        W63009   3.071  31.123  11.211
89942W        W63010   7.940  30.502  11.461
89943W        W63011  14.248  33.130  10.704
89944W        W63012  17.287  16.828   4.647
89945W        W63013  39.752  10.538  14.783
89946W        W63014  33.466  17.823   2.679
89947W        W63015  25.769  22.106  10.121
89948W        W63016  12.325  18.085   4.621
89949W        W63017  44.001   2.045   1.694
89950W        W63018   0.779  13.832   1.394
89951W        W63019  17.054   0.237  13.957
89952W        W63020  28.909  37.988   1.322
89953W        W63021  35.892  40.320  11.178
89954W        W63022  43.663  23.351  11.506
89955W        W63023   9.575   1.456  11.363
89956W        W63024  27.675  40.423   4.074
89957W        W63025   7.437  17.615  11.718
89958W        W63026   0.331  20.392  12.635
89959W        W63027   1.486  14.091   0.709
89960W        W63028   2.012   8.838   0.970
89961W        W63029  40.025  34.053  11.442
89962W        W63030  13.843  27.088  13.768
89963W        W63031  23.128  31.118  11.927
89964W        W63032  25.916   8.305   2.877
89965W        W63033  25.743   4.218  11.525
89966W        W63034  17.637   0.986   0.258
89967W        W63035  28.230  17.407  13.481
89968W        W63036  10.864  43.067  13.823
89969W        W63037   3.752  16.033  13.460
89970W        W63038  14.170  30.650  12.430
89971W        W63039  13.017  32.888   3.745
89972W        W63040  14.797   2.906  13.965
89973W        W63041   3.711  42.499   3.323
89974W        W63042  17.591  11.262   2.477
89975W        W63043  22.023  41.899  10.488
89976W        W63044  30.985   8.550   0.808
89977W        W63045   2.919  26.368  13.102
89978W        W63046   0.937  11.410  13.682
89979W        W63047  22.198  19.272  11.118
89980W        W63048  12.663  12.587  12.131
89981W        W63049   0.175  26.540   4.113
89982W        W63050  38.111  13.605   4.739
89983W        W63051  11.600  35.609  14.350
89984W        W63052  25.848  10.976   3.736
89985W        W63053   5.881  13.258   3.885
89986W        W63054  39.074  27.416   4.657
89987W        W63055  17.241  32.015  13.649
89988W        W63056  23.619  17.201  12.221
89989W        W63057  23.987  26.117   0.819
89990W        W63058   0.067  30.146  13.995
89991W        W63059  12.828  36.181  13.414
89992W        W63060  43.788  29.117   2.417
89993W        W63061  17.554  40.836   2.492
89994W        W63062  23.363  38.575  10.257
89995W        W63063  42.194  44.201   1.739
89996W        W63064  13.103   3.868   4.307
89997W        W63065   2.331  16.218  14.770
89998W        W63066  10.260  13.374  13.951
89999W        W63067   0.190  30.620  13.816
90000W        W63068  44.965  10.007  10.715
90001W        W63069  11.154   2.940  11.435
90002W        W63070  14.516  13.655  13.035
90003W        W63071  16.988  41.356   2.267
90004W        W63072  33.061  30.921   3.464
90005W        W63073  26.759  33.665   3.148
90006W        W63074  13.611  19.302  11.877
90007W        W63075  33.905  13.601  14.476
90008W        W63076   9.176  26.548  12.508
90009W        W63077  34.415   6.284  10.692
90010W        W63078  29.537  36.375   1.872
90011W        W63079  25.463  22.292   3.853
90012W        W63080  41.597  12.487  12.967
90013W        W63081   6.980  40.345  11.891
90014W        W63082  43.741  17.319   1.856
90015W        W63083  37.383  15.650  13.889
90016W        W63084  24.246   9.807  12.481
90017W        W63085  13.076  12.850   3.324
90018W        W63086  17.488   1.518  13.481
90019W        W63087   5.425  19.363   4.073
90020W        W63088  13.193   4.218  11.295
90021W        W63089  42.390   1.956   4.109
90022W        W63090   9.115  18.901   0.440
90023W        W63091  23.575  28.413   4.113
90024W        W63092  44.069  36.522  10.552
90025W        W63093  17.682  16.283  13.827
90026W        W63094  40.367   2.837  12.569
90027W        W63095  10.011  14.193  12.144
90028W        W63096  10.098  30.350   1.693
90029W        W63097   9.942  17.305  10.655
90030W        W63098  26.717  43.555  13.956
90031W        W63099   2.351  22.225   1.673
90032W        W63100  18.761   9.628   3.768
90033W        W63101  33.198  37.812   0.223
90034W        W63102  42.293  25.843   1.349
90035W        W63103  41.827   6.644   3.548
90036W        W63104  18.717  16.294  11.411
90037W        W63105  15.746   8.676  14.374
90038W        W63106  14.015   3.328  14.097
90039W        W63107   0.805   1.746   3.176
90040W        W63108  20.037  14.347  14.087
90041W        W63109   2.866  23.705  13.032
90042W        W63110   5.428  28.560  12.447
90043W        W63111  28.051  38.550   2.270
90044W        W63112   6.678  17.103  11.540
90045W        W63113  37.775  26.152   5.066
90046W        W63114  24.686  43.337  12.039
90047W        W63115   3.850  23.535  10.700
90048W        W63116  32.945  27.234   3.174
90049W        W63117  43.263  41.270   3.693
90050W        W63118  31.239  15.116   0.570
90051W        W63119  42.358  26.440  12.486
90052W        W63120  11.363   7.143  14.485
90053W        W63121  17.526   9.072   3.657
90054W        W63122  30.629  36.412  14.141
90055W        W63123  15.202  28.055   3.648
90056W        W63124   4.720  43.546   4.876
90057W        W63125  22.203  17.281  12.863
90058W        W63126  16.780  19.270   1.923
90059W        W63127  30.564  25.633   1.446
90060W        W63128  21.002  40.872  13.420
90061W        W63129  43.470   9.883   2.212
90062W        W63130   0.954  40.086   0.485
90063W        W63131   5.877  41.822  14.289
90064W        W63132  42.089  14.743  12.164
90065W        W63133   0.309  26.513   1.603
90066W        W63134  31.051   4.626  11.954
90067W        W63135  40.010  10.742  13.455
90068W        W63136   7.888  19.219   2.233
90069W        W63137  23.036   6.805   4.785
90070W        W63138  32.572   2.269   0.016
90071W        W63139  15.006  39.405  12.357
90072W        W63140  38.038  34.916   3.878
90073W        W63141   2.294   8.419   1.832
90074W        W63142   9.362  13.806   3.188
90075W        W63143  20.907   9.346  12.391
90076W        W63144  35.938  17.732   3.181
90077W        W63145  24.155  23.658   0.244
90078W        W63146   3.237  42.408  11.149
90079W        W63147  43.886  11.381   2.775
90080W        W63148  44.710  18.030  11.655
90081W        W63149  18.584  20.782  10.989
90082W        W63150   6.634  29.079   0.676
90083W        W63151  33.443  18.322   2.631
90084W        W63152  10.809   2.876   3.703
90085W        W63153   9.003  43.478  13.588
90086W        W63154  25.290  24.146   3.718
90087W        W63155  35.860   6.135  11.630
90088W        W63156  38.574   0.218  14.962
90089W        W63157  36.599  23.721  13.760
90090W        W63158   3.248  15.994  10.523
90091W        W63159  24.705  22.274   0.961
90092W        W63160  41.749  11.848  10.443
90093W        W63161   9.387  36.455  13.799
90094W        W63162  25.453   6.361  11.014
90095W        W63163  34.133  38.827   4.595
90096W        W63164  11.669  17.983  13.017
90097W        W63165  17.172  25.241   2.172
90098W        W63166  16.154   1.564   1.733
90099W        W63167  41.436   5.712  12.880
90100W        W63168  14.635  16.806   3.197
90101W        W63169   6.659  28.506   4.155
90102W        W63170  11.668  37.922   1.141
90103W        W63171  34.059  44.776   1.408
90104W        W63172  28.068  31.533   0.004
90105W        W63173  23.427  14.422   4.172
90106W        W63174  41.229  23.182   3.082
90107W        W63175   8.820  43.821  13.280
90108W        W63176  22.494  44.804   1.316
90109W        W63177  13.653  11.263   1.343
90110W        W63178  23.196  18.720   4.973
90111W        W63179  21.110   5.609  13.870
90112W        W63180  26.466  13.316   3.789
90113W        W63181  14.542  15.339  12.518
90114W        W63182  35.400   4.256  11.660
90115W        W63183  31.142  43.390   0.638
90116W        W63184  21.311   6.913   1.432
90117W        W63185   4.788  10.866   4.559
90118W        W63186   4.981  27.138   4.352
90119W        W63187   7.739  26.891  12.209
90120W        W63188  15.277  21.965  11.023
90121W        W63189  22.208  43.744  10.700
90122W        W63190  18.592  43.530  13.416
90123W        W63191  32.767  25.986  13.887
90124W        W63192  32.803   9.608   1.391
90125W        W63193  24.249  36.896   4.662
90126W        W63194   0.582  30.728   0.702
90127W        W63195  32.477  31.423   4.221
90128W        W63196  16.670  15.776   2.083
90129W        W63197  24.531   7.814   1.296
90130W        W63198   4.523   3.292   2.398
90131W        W63199  26.965  14.617   3.304
90132W        W63200   2.376  19.367  12.571
90133W        W63201  16.983  37.832  10.631
90134W        W63202  12.849  20.271   0.486
90135W        W63203   4.701  43.985  13.541
90136W        W63204  23.255   5.432  11.508
90137W        W63205  20.521  29.738  13.288
90138W        W63206  30.114   5.876  12.863
90139W        W63207   3.226  12.946   2.363
90140W        W63208   3.487  38.968  13.902
90141W        W63209  12.387  12.278  13.363
90142W        W63210  22.492  17.307   4.554
90143W        W63211  41.906  28.406   0.354
90144W        W63212  31.002  12.690   4.526
90145W        W63213  32.945  27.239   2.232
90146W        W63214  42.922  24.705   3.671
90147W        W63215  32.576  20.789   0.399
90148W        W63216   5.829  37.491  11.204
90149W        W63217  43.022   8.316  13.377
90150W        W63218  33.948  40.004  13.476
90151W        W63219  35.707  35.417  11.106
90152W        W63220  41.027  39.491   4.552
90153W        W63221   0.443   7.936  11.503
90154W        W63222  43.918   5.349  12.651
90155W        W63223   0.425  25.477   3.594
90156W        W63224  31.201  18.203   4.487
90157W        W63225  33.329  44.460   3.973
90158W        W63226  12.966  18.666  10.125
90159W        W63227  26.108  42.319   4.883
90160W        W63228  14.168   4.912   1.021
90161W        W63229   1.722  41.826   2.320
90162W        W63230  15.667   6.391   1.310
90163W        W63231  15.239   0.974   0.779
90164W        W63232   0.475  19.097   0.329
90165W        W63233   1.644  12.413  13.393
90166W        W63234   4.288  24.714   3.258
90167W        W63235  23.929   2.992   2.791
90168W        W63236  16.105  26.222  10.712
90169W        W63237  10.099   0.080   1.889
90170W        W63238  30.651  19.937  14.788
90171W        W63239   9.729  40.681  13.798
90172W        W63240  34.813  38.966  11.490
90173W        W63241  11.869  12.217  13.375
90174W        W63242  18.205   8.722   0.337
90175W        W63243  42.422  21.535   3.291
90176W        W63244  44.252  18.749  10.050
90177W        W63245  34.564   5.289   0.418
90178W        W63246  18.041  31.079   4.024
90179W        W63247  29.830  18.425   2.281
90180W        W63248  14.325  41.282   0.414
90181W        W63249  18.194  38.309  11.685
90182W        W63250  34.982  11.788   0.540
90183W        W63251  30.006  27.744   1.920
90184W        W63252  21.264  35.291  12.149
90185W        W63253  12.253  22.575  14.106
90186W        W63254  28.414  37.611   3.845
90187W        W63255  41.936  11.613   1.780
90188W        W63256   8.361  42.303  14.452
90189W        W63257   6.707  25.658   1.767
90190W        W63258   3.188  41.569   3.125
90191W        W63259   9.314   7.588   3.690
90192W        W63260  14.790  24.532  13.473
90193W        W63261  22.175  25.306  13.348
90194W        W63262  12.363  10.268   0.228
90195W        W63263  17.175  31.162  11.149
90196W        W63264  12.476  18.646  13.899
90197W        W63265  16.846  42.806   4.192
90198W        W63266   4.538  19.887  13.408
90199W        W63267  12.277  14.152  10.714
90200W        W63268  30.481  42.269  13.827
90201W        W63269  13.280   7.841  10.755
90202W        W63270   2.526   5.149  14.905
90203W        W63271  14.047   3.846  11.191
90204W        W63272  38.917  21.153  12.901
90205W        W63273  42.051  21.554   2.930
90206W        W63274  12.279  16.349   1.416
90207W        W63275  31.576  14.620  14.227
90208W        W63276  11.282  19.209  14.856
90209W        W63277   9.488  42.888   4.153
90210W        W63278  19.599   7.220  11.120
90211W        W63279  19.611  38.268   1.067
90212W        W63280  36.972  28.179   1.837
90213W        W63281  18.307   6.930  10.974
90214W        W63282  39.748   2.738   4.189
90215W        W63283  27.009  38.548  12.938
90216W        W63284   7.613  26.828   4.052
90217W        W63285  14.790  28.631   0.481
90218W        W63286   3.202  43.226  11.601
90219W        W63287   6.401  33.902   1.779
90220W        W63288  26.694   0.028  13.401
90221W        W63289  28.439  25.038   1.812
90222W        W63290   1.901  16.880   4.847
90223W        W63291  30.040  42.551   4.824
90224W        W63292  21.059  35.884   3.387
90225W        W63293   2.719   4.268  14.952
90226W        W63294  43.404  17.543   2.387
90227W        W63295  31.890  37.958  10.843
90228W        W63296  29.578  14.362   1.229
90229W        W63297  43.432  27.925  10.584
90230W        W63298  27.163  39.809  14.976
90231W        W63299  11.307  43.675  11.328
90232W        W63300  34.175  20.919   3.106
90233W        W63301   7.107  21.695   1.093
90234W        W63302  18.632  43.256   1.157
90235W        W63303   1.162  32.342  14.646
90236W        W63304  22.605  36.294  14.365
90237W        W63305  11.070   3.435  11.057
90238W        W63306  44.818  15.773  10.483
90239W        W63307  19.193   1.312  13.733
90240W        W63308   8.792  26.956   0.376
90241W        W63309  21.978   9.486   0.889
90242W        W63310   6.422  20.819  11.184
90243W        W63311  36.446   6.247  13.295
90244W        W63312   3.758  35.087  14.542
90245W        W63313  21.738   6.818  10.421
90246W        W63314   7.328  22.032  12.920
90247W        W63315  17.892  20.650   4.879
90248W        W63316  28.001  36.056   0.459
90249W        W63317  32.955   9.903  11.593
90250W        W63318  17.719   9.817  10.534
90251W        W63319   0.898   3.926  13.187
90252W        W63320  13.861   9.720  12.867
90253W        W63321  10.586  28.594  13.411
90254W        W63322  23.244  29.199   3.598
90255W        W63323  25.269  40.354  14.336
90256W        W63324  16.369  36.962  10.673
90257W        W63325  32.143   1.450  13.030
90258W        W63326  29.403  36.483   1.380
90259W        W63327   3.715  17.142  12.524
90260W        W63328  13.897  36.335   2.816
90261W        W63329  42.750  31.767  13.370
90262W        W63330  10.148  42.267   1.774
90263W        W63331  38.535  28.896  11.521
90264W        W63332  35.411  29.135  11.713
90265W        W63333  42.019  10.899  12.133
90266W        W63334   0.519  14.355   5.239
90267W        W63335  40.385  44.407   1.765
90268W        W63336  33.187  38.222  12.437
90269W        W63337  26.447  33.817   2.498
90270W        W63338  41.260  30.895  14.592
90271W        W63339   0.433  21.478   3.230
90272W        W63340  19.884   1.673  13.149
90273W        W63341  11.162  13.591  13.908
90274W        W63342   1.648  43.060   0.369
90275W        W63343  26.495  39.822   3.846
90276W        W63344  44.541   0.914   2.875
90277W        W63345  25.887  32.570   3.780
90278W        W63346  32.121  31.648   2.756
90279W        W63347  40.191   6.979  13.071
90280W        W63348  21.752  24.898   0.470
90281W        W63349  25.878   3.065   2.731
90282W        W63350   7.139  22.115   2.838
90283W        W63351  25.140  29.388  11.490
90284W        W63352  15.655  44.460   0.957
90285W        W63353  25.203  22.477  12.904
90286W        W63354  24.522  41.764   4.842
90287W        W63355  38.977  24.267   1.301
90288W        W63356  22.960  18.682  10.163
90289W        W63357  20.794   9.176  11.057
90290W        W63358  10.998  35.078  12.031
90291W        W63359  11.704   0.019  14.899
90292W        W63360  13.563   3.071   2.702
90293W        W63361   4.781  40.620   5.001
90294W        W63362  16.136  38.888   1.862
90295W        W63363  33.608   8.764   4.852
90296W        W63364   2.871  24.136   2.933
90297W        W63365  38.566   5.769   0.921
90298W        W63366  11.150  41.840  13.955
90299W        W63367  30.031  20.170   0.989
90300W        W63368  22.500   0.011  10.934
90301W        W63369  34.956   0.265   2.147
90302W        W63370  12.892  13.789   2.680
90303W        W63371  29.194  26.649   2.830
90304W        W63372  33.576  15.067   3.298
90305W        W63373  27.200  22.803  11.114
90306W        W63374  33.467   9.651   0.191
90307W        W63375  24.249  23.763   1.501
90308W        W63376  39.747  13.119   0.269
90309W        W63377  29.701  15.186   0.826
90310W        W63378  28.804  14.953   0.608
90311W        W63379  29.450  12.802   0.372
90312W        W63380  22.397  38.929  13.164
90313W        W63381  36.937  24.937  12.626
90314W        W63382  36.572  11.746   2.642
90315W        W63383  20.063  44.546  14.718
90316W        W63384  26.125  21.604  13.570
90317W        W63385  42.322  11.006   3.621
90318W        W63386   9.021   8.562  14.934
90319W        W63387  33.385  41.529   1.153
90320W        W63388   1.818  27.219   3.629
90321W        W63389  33.551  30.568  14.354
90322W        W63390   5.957  21.572  12.120
90323W        W63391  42.760  20.159  14.431
90324W        W63392   4.778   6.854   2.455
90325W        W63393  20.504  10.790  13.343
90326W        W63394   5.476   8.387   3.505
90327W        W63395   5.694  41.804  14.777
90328W        W63396  19.309  20.570   3.273
90329W        W63397  10.821   1.627  12.914
90330W        W63398   4.912  11.874   0.972
90331W        W63399  29.165  36.485   3.202
90332W        W63400  14.575  23.928   4.687
90333W        W63401   8.447  35.160  11.109
90334W        W63402  21.170   8.442  11.791
90335W        W63403  10.074  40.989  11.124
90336W        W63404   4.879  31.791  10.953
90337W        W63405  19.964  32.178  12.015
90338W        W63406  20.645  18.293  12.441
90339W        W63407  33.870  19.223   0.918
90340W        W63408  29.426   5.862   2.907
90341W        W63409  36.489  10.827   3.627
90342W        W63410  30.093  15.108  11.604
90343W        W63411  37.029   5.473   0.737
90344W        W63412  13.523  41.840   2.042
90345W        W63413   3.339  11.730   0.482
90346W        W63414  12.479  15.259  12.740
90347W        W63415  24.710  12.348  14.908
90348W        W63416  39.461  18.383  13.903
90349W        W63417   5.863  28.115  14.015
90350W        W63418  27.991  30.144   4.786
90351W        W63419  41.230   6.691   2.221
90352W        W63420  35.754  21.222  11.842
90353W        W63421  25.251  16.880  13.983
90354W        W63422  11.429  16.736   1.408
90355W        W63423  25.154  19.779  10.942
90356W        W63424  20.704   6.815  14.434
90357W        W63425  42.173   6.788  13.973
90358W        W63426  32.152   0.876  13.545
90359W        W63427  13.339  44.656  10.415
90360W        W63428  27.472  40.021   3.200
90361W        W63429  20.817   8.609   2.345
90362W        W63430  26.193  31.391   3.339
90363W        W63431   3.687  15.595  14.447
90364W        W63432  38.509   3.708  12.502
90365W        W63433  39.184  15.745   3.751
90366W        W63434  25.688  16.551  13.973
90367W        W63435  39.348  10.174  14.877
90368W        W63436   5.510  44.634   1.888
90369W        W63437  28.930  37.318   0.398
90370W        W63438   2.865  33.239  12.292
90371W        W63439  39.072  19.300   0.697
90372W        W63440   2.315   4.250   2.716
90373W        W63441  34.393   9.369  11.035
90374W        W63442  22.119  17.242  14.909
90375W        W63443   6.436  29.214   4.166
90376W        W63444  14.538  32.993   0.241
90377W        W63445  11.721  33.950   3.206
90378W        W63446   3.979  25.652   1.318
90379W        W63447  25.094  30.173   3.761
90380W        W63448  44.444   7.836   4.653
90381W        W63449   8.880  14.333  10.744
90382W        W63450  36.774  16.668  12.035
90383W        W63451  34.422  22.746  14.255
90384W        W63452  33.468  40.842  10.511
90385W        W63453  29.013  38.363   4.257
90386W        W63454  10.111   4.784  10.548
90387W        W63455  26.713  21.430  14.270
90388W        W63456  31.173   4.498   5.029
90389W        W63457  37.565  37.240   0.697
90390W        W63458  22.165  16.537   9.786
90391W        W63459  39.206   3.376  14.312
90392W        W63460  28.607  43.260   0.988
90393W        W63461  22.993  44.863  12.126
90394W        W63462   9.390  20.556   5.017
90395W        W63463  10.788  39.850  14.746
90396W        W63464  26.275  32.402  14.783
90397W        W63465  20.287  10.358  12.071
90398W        W63466  29.461   6.752   2.609
90399W        W63467  23.129  22.811   4.752
90400W        W63468  41.397  21.635   4.089
90401W        W63469  20.202  27.464   0.449
90402W        W63470  15.246  43.798   4.484
90403W        W63471  38.682  37.048   1.868
90404W        W63472  18.394  32.312  14.820
90405W        W63473   9.939  17.627   4.674
90406W        W63474  20.501  33.203   4.965
90407W        W63475  13.123   8.818  13.598
90408W        W63476  27.459  25.681   0.448
90409W        W63477  12.232  17.658   3.776
90410W        W63478   6.638  22.037  14.581
90411W        W63479  34.567  18.629   0.663
90412W        W63480   5.792   9.382  10.521
90413W        W63481  31.180  11.213   0.995
90414W        W63482  37.068  36.507   2.334
90415W        W63483  13.106  15.527  12.019
90416W        W63484   6.261  19.958  14.948
90417W        W63485  35.970  33.207   2.887
90418W        W63486  24.446  38.396  12.871
90419W        W63487  21.286   5.006   2.333
90420W        W63488  29.207  17.704   1.623
90421W        W63489  30.838   2.213   5.056
90422W        W63490   6.878  26.566  11.665
90423W        W63491  29.001  40.315  11.189
90424W        W63492   8.931  25.546  12.475
90425W        W63493  39.404   5.748  12.846
90426W        W63494  39.605  11.868   1.747
90427W        W63495  29.418  39.913  14.808
90428W        W63496  11.864  17.152   2.875
90429W        W63497  31.242  29.511   1.423
90430W        W63498  24.477  44.223  14.307
90431W        W63499  13.487  35.795  12.892
90432W        W63500   5.461   7.761  11.022
90433W        W63501  18.860   9.479   1.372
90434W        W63502  10.747   7.395  11.337
90435W        W63503  30.942   8.391  11.993
90436W        W63504   9.403  28.978  14.071
90437W        W63505  39.374  26.775  12.936
90438W        W63506  31.212  22.774  10.806
90439W        W63507  43.237  13.808   0.338
90440W        W63508  44.966  38.594  11.697
90441W        W63509  34.853  25.304  12.104
90442W        W63510  42.964  29.999   3.725
90443W        W63511   1.874  30.649  10.759
90444W        W63512   6.652  11.304   3.192
90445W        W63513  34.539  13.680   2.147
90446W        W63514  27.593   6.363  12.546
90447W        W63515  38.549   6.177  10.962
90448W        W63516  44.518  10.642  12.838
90449W        W63517  30.916   5.758   0.540
90450W        W63518  43.279  23.911  12.383
90451W        W63519   0.742  29.180  14.862
90452W        W63520  14.363  43.269  11.049
90453W        W63521  41.250  28.253   2.988
90454W        W63522  11.974   8.281   3.651
90455W        W63523  28.122   9.585   2.604
90456W        W63524  40.987  42.534  11.158
90457W        W63525  16.925  17.561   0.722
90458W        W63526  38.256  11.792  11.922
90459W        W63527   3.670   9.698  11.869
90460W        W63528  10.583  39.396   2.219
90461W        W63529  16.374  20.996  14.907
90462W        W63530   6.303  14.250  12.142
90463W        W63531  27.121  11.871  12.036
90464W        W63532   5.183  16.814   1.450
90465W        W63533  20.978  32.546   2.887
90466W        W63534  25.110  18.249  11.455
90467W        W63535  27.831   4.377   1.739
90468W        W63536  26.772  27.932   0.434
90469W        W63537  22.694  29.927  10.429
90470W        W63538  32.602   9.678   2.294
90471W        W63539  33.140   6.048   4.677
90472W        W63540  36.499  28.414   4.094
90473W        W63541  39.282  22.626   0.751
90474W        W63542   1.966  15.844  10.671
90475W        W63543  24.593   7.770  11.929
90476W        W63544   5.363   3.709  13.537
90477W        W63545  34.759  30.402  11.084
90478W        W63546  10.137   6.686  12.370
90479W        W63547  38.305  36.853  11.128
90480W        W63548  44.507  44.003  12.420
90481W        W63549   5.403  28.657  10.712
90482W        W63550  19.716   1.850   4.610
90483W        W63551  25.119  37.874  11.895
90484W        W63552   5.743  16.118  13.272
90485W        W63553  38.504  18.678  13.661
90486W        W63554  43.325  22.153   0.174
90487W        W63555  22.183  19.379   0.790
90488W        W63556  11.862  21.759  13.698
90489W        W63557  16.300  38.442  13.488
90490W        W63558  44.686  15.120   1.947
90491W        W63559  14.863  43.895  13.788
90492W        W63560  42.857  36.864   0.292
90493W        W63561  29.904  35.107  10.730
90494W        W63562  30.315  16.638  13.654
90495W        W63563  44.834  15.456   2.754
90496W        W63564   4.484  39.123  10.929
90497W        W63565  42.945  13.879  13.054
90498W        W63566  14.825  22.102  13.913
90499W        W63567  42.546  35.071  13.319
90500W        W63568  27.187   6.524  13.432
90501W        W63569  10.869  22.920  11.167
90502W        W63570  27.716  21.389   2.854
90503W        W63571  25.457   6.098  12.795
90504W        W63572  22.510   0.238  13.654
90505W        W63573  11.770  26.065   4.661
90506W        W63574   0.679   7.074   1.191
90507W        W63575  40.524  25.561   2.414
90508W        W63576  32.091  10.813   1.393
90509W        W63577  29.006  24.648  12.441
90510W        W63578  30.080  21.691  13.960
90511W        W63579  35.877  40.865  12.548
90512W        W63580  27.642  11.189   0.348
90513W        W63581  30.982  23.326   4.634
90514W        W63582  17.085  32.500   3.215
90515W        W63583  44.961  42.780  10.607
90516W        W63584   1.788   7.944  13.760
90517W        W63585  11.576  37.890  13.067
90518W        W63586   4.831  25.518   1.679
90519W        W63587  35.460  17.307   4.651
90520W        W63588   9.209  25.037   2.196
90521W        W63589  33.402  42.816  13.392
90522W        W63590   8.732  14.297  14.300
90523W        W63591  40.092  11.093   1.836
90524W        W63592  13.739  15.564   3.108
90525W        W63593  21.254  36.879  11.158
90526W        W63594  31.608  36.879  11.607
90527W        W63595  19.678   9.303   4.318
90528W        W63596   4.286  33.432   1.251
90529W        W63597  12.171  39.883   0.751
90530W        W63598  23.615  19.724  14.519
90531W        W63599  37.829  25.964   1.746
90532W        W63600   6.532   8.834   0.423
90533W        W63601  10.212  26.592   1.581
90534W        W63602  32.958   1.021   0.406
90535W        W63603  19.859  40.303   2.203
90536W        W63604  24.549   0.771   1.348
90537W        W63605   6.753   8.901  14.907
90538W        W63606  43.547  30.054  11.566
90539W        W63607  16.367  22.439  13.432
90540W        W63608  44.088  36.892  13.655
90541W        W63609  29.157  25.657   0.514
90542W        W63610  17.210  10.344  10.262
90543W        W63611  17.643  21.807  12.863
90544W        W63612  25.209  43.839  14.534
90545W        W63613  32.696   5.456   0.341
90546W        W63614   2.476   0.999  11.975
90547W        W63615  28.664  14.765   4.910
90548W        W63616   1.483  29.119   3.686
90549W        W63617  31.137  41.891  11.710
90550W        W63618  43.271  44.904  13.953
90551W        W63619   6.456  19.324   1.001
90552W        W63620  39.059   9.248   2.101
90553W        W63621  42.330  10.637   1.309
90554W        W63622   4.947  38.240  14.699
90555W        W63623  10.206  26.253   1.947
90556W        W63624  25.512  38.350   4.608
90557W        W63625  43.993  31.865  12.822
90558W        W63626   4.432  13.254  14.563
90559W        W63627  21.583  36.794  13.614
90560W        W63628  44.254  17.996   3.674
90561W        W63629  25.799  10.150   2.436
90562W        W63630  41.481   2.656   4.304
90563W        W63631  41.659  20.671   1.318
90564W        W63632  15.991   9.548  10.598
90565W        W63633  32.487  13.688   1.988
90566W        W63634  42.298  30.364  11.637
90567W        W63635  10.233  31.632   0.041
90568W        W63636  26.388  25.140  14.586
90569W        W63637  25.717  39.791  13.363
90570W        W63638  23.507  22.476  11.605
90571W        W63639  35.191  14.718  13.788
90572W        W63640   4.873  32.685   3.670
90573W        W63641  37.562  30.406  12.850
90574W        W63642  18.623  10.663   2.293
90575W        W63643   0.999   6.481  11.990
90576W        W63644  13.624  11.111  14.934
90577W        W63645  20.754  41.547   0.750
90578W        W63646  21.765   1.337  14.909
90579W        W63647   3.811  44.429  14.117
90580W        W63648  31.512  15.852  10.546
90581W        W63649  14.120  18.889   0.871
90582W        W63650   4.269  34.598  10.821
90583W        W63651  12.698  34.799  12.502
90584W        W63652  28.554  16.727  12.501
90585W        W63653  35.467  32.978  14.563
90586W        W63654   0.368  21.098  14.314
90587W        W63655   0.850  25.112   3.622
90588W        W63656   2.910  41.574   0.268
90589W        W63657   7.849  38.409   0.805
90590W        W63658  26.178  17.403  13.945
90591W        W63659  17.067  26.509   2.348
90592W        W63660   1.958  16.782  11.818
90593W        W63661  21.175  28.244   4.671
90594W        W63662  35.394  14.218  13.959
90595W        W63663  10.893  33.868  12.859
90596W        W63664  40.536   3.248   0.364
90597W        W63665  27.686  40.070   2.320
90598W        W63666  41.154  12.674   5.236
90599W        W63667  43.847   1.948  13.092
90600W        W63668  34.620  40.404   1.341
90601W        W63669   9.162   1.740  13.053
90602W        W63670  37.933  39.770  11.562
90603W        W63671  44.390  18.667  14.706
90604W        W63672   0.575  43.185   2.789
90605W        W63673  32.001  15.138   2.653
90606W        W63674  21.666  22.563  12.115
90607W        W63675  22.248  31.409   3.781
90608W        W63676  25.311  36.919   4.541
90609W        W63677  19.999  40.320   0.088
90610W        W63678  35.572   6.678   4.270
90611W        W63679  44.481  32.615   4.164
90612W        W63680  14.359  41.929  10.481
90613W        W63681  37.554  21.110   2.505
90614W        W63682  43.857  14.680  14.893
90615W        W63683  33.413  39.280  11.932
90616W        W63684  32.370  44.555   4.254
90617W        W63685  28.960  26.387  11.149
90618W        W63686  42.500   4.774  12.848
90619W        W63687  15.759   0.401  14.322
90620W        W63688  27.483  30.629  11.553
90621W        W63689  11.858  23.622  10.723
90622W        W63690  33.900  10.188   2.805
90623W        W63691  21.600  34.177   2.142
90624W        W63692   9.663  37.941   1.184
90625W        W63693   5.258   3.871   1.668
90626W        W63694  39.919  42.300  14.630
90627W        W63695  28.515   0.470  10.681
90628W        W63696  32.609   1.735   0.091
90629W        W63697  44.264  24.121   1.985
90630W        W63698  25.999   1.119  12.854
90631W        W63699  14.045  26.109   2.280
90632W        W63700   1.760   3.276   3.276
90633W        W63701  35.918   9.223   4.204
90634W        W63702  43.197  10.673  11.131
90635W        W63703   9.888  26.462   4.181
90636W        W63704  43.346  42.594  11.844
90637W        W63705  13.605  42.668  14.986
90638W        W63706  20.136  22.175   4.364
90639W        W63707  28.559   6.800   2.737
90640W        W63708  30.624   7.934   4.857
90641W        W63709  32.994  28.593  10.640
90642W        W63710  38.402  33.958  12.900
90643W        W63711  23.816  23.580  12.502
90644W        W63712  34.386  25.902  11.643
90645W        W63713  10.379  11.542  12.819
90646W        W63714  43.453  31.684   1.462
90647W        W63715  15.776  25.109   0.463
90648W        W63716  39.403  25.716  10.562
90649W        W63717   2.479   3.431   1.309
90650W        W63718  37.156  43.316  14.423
90651W        W63719  44.948   7.411   2.386
90652W        W63720   8.836  23.601   0.516
90653W        W63721  28.395  12.287  13.881
90654W        W63722  21.534  34.156  14.902
90655W        W63723  14.024   1.238   2.299
90656W        W63724   0.957  14.132  14.805
90657W        W63725  42.320  25.254  14.900
90658W        W63726   2.552   3.486   3.766
90659W        W63727  42.225   2.431  13.784
90660W        W63728  31.342   3.119  10.971
90661W        W63729  12.665  21.688   3.574
90662W        W63730  23.038  18.723   3.710
90663W        W63731  35.740   8.643   2.380
90664W        W63732  25.030  44.911  10.611
90665W        W63733  29.220   4.374   4.666
90666W        W63734  34.576  25.729   2.683
90667W        W63735  15.561  39.364   4.177
90668W        W63736   0.739  26.212   1.345
90669W        W63737  17.271   2.741  12.131
90670W        W63738   0.433  17.247  11.180
90671W        W63739  19.377  31.382  14.905
90672W        W63740  34.550  36.509   0.403
90673W        W63741  38.914  36.815  14.095
90674W        W63742   2.414  31.223  14.460
90675W        W63743   7.161  17.162  11.782
90676W        W63744  31.114  37.158  14.392
90677W        W63745   1.726  10.112  13.095
90678W        W63746  17.033  44.066   0.785
90679W        W63747   2.771  15.604  12.512
90680W        W63748   5.471  37.979   0.865
90681W        W63749  12.805  13.651  12.331
90682W        W63750  35.947   9.328   0.504
90683W        W63751  11.193  33.431   0.280
90684W        W63752  10.062   9.127  11.201
90685W        W63753  13.811  22.722   3.720
90686W        W63754  20.180  19.623   5.067
90687W        W63755  33.136  28.115  10.884
90688W        W63756  31.652  32.335   4.276
90689W        W63757  23.304  30.090   2.260
90690W        W63758  32.171  27.489   1.303
90691W        W63759  34.455  11.832   2.371
90692W        W63760  22.730   8.381  13.270
90693W        W63761  43.799  32.588   2.778
90694W        W63762  14.223  34.528  12.932
90695W        W63763  26.710  27.474   3.140
90696W        W63764   1.972  18.430   0.817
90697W        W63765  33.012  41.226   1.339
90698W        W63766   7.496   8.392  14.111
90699W        W63767  29.177   6.212  14.930
90700W        W63768  31.487  42.772  12.644
90701W        W63769  42.207  19.659  14.018
90702W        W63770  12.931  36.007   1.887
90703W        W63771   6.840  35.742   1.950
90704W        W63772  39.058   8.852   2.846
90705W        W63773  22.684  30.000   4.561
90706W        W63774  43.304  42.277   1.456
90707W        W63775   4.950  29.421   0.411
90708W        W63776  28.869  12.708  14.542
90709W        W63777   0.282  37.512  12.809
90710W        W63778  32.237  39.055  12.805
90711W        W63779  30.337  20.615   0.988
90712W        W63780  35.402  25.201   0.823
90713W        W63781  30.805   1.780   4.743
90714W        W63782   6.778   6.295   2.247
90715W        W63783  24.081  23.571  10.739
90716W        W63784   4.606   1.378  11.673
90717W        W63785  28.401   5.309  13.363
90718W        W63786   2.361  34.376   0.583
90719W        W63787  10.867  33.636  13.321
90720W        W63788  10.656  33.881   3.320
90721W        W63789   1.367   3.181  14.903
90722W        W63790  38.989  22.071  11.531
90723W        W63791   2.287  34.803  11.834
90724W        W63792  39.216  34.393  13.202
90725W        W63793  40.396  11.598   2.850
90726W        W63794  32.081  12.166   0.745
90727W        W63795  13.612  10.593  14.040
90728W        W63796  35.711  26.461  12.889
90729W        W63797   7.729  44.746  11.646
90730W        W63798  42.694  40.497   3.901
90731W        W63799   5.889   4.878  10.650
90732W        W63800  34.407   3.913  10.741
90733W        W63801   3.870  28.802   0.326
90734W        W63802   2.910   2.903   3.430
90735W        W63803   6.460   6.660  11.828
90736W        W63804  35.445   0.284  12.346
90737W        W63805  25.009  44.277   0.832
90738W        W63806  31.943   5.173   1.757
90739W        W63807  31.844  34.968  11.855
90740W        W63808   5.781  28.576   0.907
90741W        W63809  32.948  38.530   4.382
90742W        W63810  40.284  39.645   3.671
90743W        W63811  25.176  37.194   4.947
90744W        W63812   9.159  28.629  13.403
90745W        W63813   1.801  25.863  14.514
90746W        W63814  38.292   2.470   3.264
90747W        W63815   8.880  42.836   0.393
90748W        W63816  14.790  17.864   1.297
90749W        W63817   2.701  26.141  12.289
90750W        W63818   7.814  11.848   4.084
90751W        W63819  33.585  30.114  14.765
90752W        W63820  11.717  31.846   2.277
90753W        W63821  13.130  12.463  11.860
90754W        W63822  15.339  28.084   4.750
90755W        W63823  24.992  38.092   3.724
90756W        W63824  25.949  18.671   3.187
90757W        W63825  10.277  28.222  12.850
90758W        W63826   9.450  10.597   2.317
90759W        W63827   4.025  29.652   4.453
90760W        W63828  41.886  32.552   1.222
90761W        W63829  29.419  14.886  13.162
90762W        W63830  12.268  27.617   4.449
90763W        W63831   8.278  15.771   1.006
90764W        W63832  18.148  15.253  12.321
90765W        W63833   7.016  20.517   2.856
90766W        W63834  22.285  14.856   1.349
90767W        W63835  38.517  40.453   4.544
90768W        W63836  11.155  17.871   0.385
90769W        W63837  14.641  21.134  14.387
90770W        W63838  36.098  19.518  14.405
90771W        W63839  35.053  40.589  11.409
90772W        W63840   6.307  29.472   2.750
90773W        W63841  20.504  32.659   3.779
90774W        W63842  42.563  13.625   2.419
90775W        W63843  14.264  11.579   2.472
90776W        W63844  14.690   2.257  10.721
90777W        W63845  26.659  35.434   3.568
90778W        W63846  33.408  13.645   1.051
90779W        W63847  36.386  28.865  11.131
90780W        W63848   7.187  12.923   3.878
90781W        W63849  43.891  30.709   0.100
90782W        W63850  22.019  33.212  12.874
90783W        W63851   7.673  39.620  12.072
90784W        W63852  32.945  12.763   2.940
90785W        W63853   3.979  15.115   2.867
90786W        W63854  43.852  28.153   0.027
90787W        W63855  20.978   7.008   4.517
90788W        W63856  40.054   6.677   5.128
90789W        W63857   2.385  29.941   4.144
90790W        W63858  36.458  36.112   4.846
90791W        W63859  14.154  26.716   1.004
90792W        W63860  15.208  11.039   0.487
90793W        W63861  25.361  13.437  12.419
90794W        W63862  27.519  22.068  14.528
90795W        W63863  32.110   7.967   3.657
90796W        W63864  29.068   5.269   0.677
90797W        W63865  23.296  13.129  10.570
90798W        W63866   2.129  15.106  12.841
90799W        W63867  12.597  14.762  12.029
90800W        W63868  32.147  18.655  11.955
90801W        W63869  29.944  17.682   0.029
90802W        W63870  26.152   8.496   0.967
90803W        W63871  19.221   7.701  13.909
90804W        W63872  11.882  30.560   0.480
90805W        W63873  28.968   0.187  11.360
90806W        W63874  36.435  22.632  11.716
90807W        W63875  15.511  40.508   3.709
90808W        W63876  17.251  35.615  11.792
90809W        W63877  27.986  43.321   3.164
90810W        W63878  29.577  37.370   4.573
90811W        W63879   2.644  31.014   4.284
90812W        W63880   8.403   6.720   2.243
90813W        W63881   4.425   8.185  13.738
90814W        W63882  26.997  44.501  13.924
90815W        W63883  12.580  15.407  10.712
90816W        W63884  13.398  18.097   5.057
90817W        W63885  10.681  33.946   2.463
90818W        W63886   2.334  10.645   4.793
90819W        W63887   5.359  32.309   0.352
90820W        W63888  40.543   2.167  14.398
90821W        W63889  21.613  32.861   2.707
90822W        W63890  13.868  32.354   4.730
90823W        W63891   5.659  43.866   2.266
90824W        W63892  26.925  17.454  12.500
90825W        W63893  13.672   9.536   0.030
90826W        W63894  43.869  12.335   1.464
90827W        W63895   0.451  26.290  12.341
90828W        W63896   6.667  19.733   3.235
90829W        W63897  24.429  18.357  12.992
90830W        W63898  28.613  41.782  13.507
90831W        W63899  13.573  41.455   0.825
90832W        W63900  21.921  30.128  14.759
90833W        W63901   6.704  42.398   2.777
90834W        W63902  10.173  11.184  10.738
90835W        W63903  44.940  33.157  13.985
90836W        W63904  43.272   7.133  13.507
90837W        W63905  31.196  30.462   4.104
90838W        W63906  28.031  17.628  13.923
90839W        W63907   8.698  29.546  13.543
90840W        W63908  16.427  39.485  12.079
90841W        W63909   0.209  36.491   4.137
90842W        W63910   9.286   8.821  14.568
90843W        W63911   1.852  24.184   1.913
90844W        W63912  19.510  10.894   1.388
90845W        W63913   6.285   6.590  14.666
90846W        W63914  10.175   6.141  12.181
90847W        W63915  29.547  15.110  12.426
90848W        W63916  20.020  37.922  11.523
90849W        W63917  20.019   4.316  13.530
90850W        W63918   4.979   9.426  13.425
90851W        W63919  21.065  32.052   1.441
90852W        W63920  37.151  25.133  13.497
90853W        W63921  30.009  30.558   4.609
90854W        W63922  35.271  20.649  12.843
90855W        W63923   3.150  17.767   3.255
90856W        W63924   8.795  38.591   2.784
90857W        W63925   1.924  34.306   1.405
90858W        W63926  24.415  12.109  13.925
90859W        W63927  19.169   7.454  13.306
90860W        W63928  11.916  31.174   3.052
90861W        W63929  16.684   3.525   3.229
90862W        W63930  30.381  18.075   3.652
90863W        W63931  33.998  26.165  10.770
90864W        W63932  20.274  20.443   3.221
90865W        W63933  33.405  37.975   2.226
90866W        W63934  33.150  36.566   5.032
90867W        W63935  26.944  36.053  14.843
90868W        W63936  12.525  32.192   4.146
90869W        W63937  33.353  29.642  14.865
90870W        W63938  44.971  44.320  12.006
90871W        W63939  32.131   9.924   1.816
90872W        W63940  40.772  23.127   3.310
90873W        W63941  29.013   0.032   0.461
90874W        W63942  11.990  28.509   2.864
90875W        W63943  23.485   2.225  10.514
90876W        W63944   7.931  36.176  14.795
90877W        W63945  27.067  37.583   1.354
90878W        W63946  13.797  41.935   4.190
90879W        W63947  35.837   5.947  14.390
90880W        W63948  21.666   0.711  13.597
90881W        W63949   4.215  19.128  11.501
90882W        W63950  12.772  10.243  12.782
90883W        W63951  44.357   6.357  11.482
90884W        W63952  19.402   9.620  11.047
90885W        W63953  12.802  37.591   5.248
90886W        W63954  37.694   5.779   4.630
90887W        W63955  20.543  18.530  11.076
90888W        W63956   4.183  44.024  13.505
90889W        W63957  43.421  40.325   1.367
90890W        W63958  21.004  44.413   3.285
90891W        W63959   7.879  31.384  12.647
90892W        W63960   8.047  31.809   2.835
90893W        W63961  26.895  41.512  13.962
90894W        W63962  39.083  14.057  10.403
90895W        W63963  35.627  30.425  13.966
90896W        W63964  20.163  12.636  10.525
90897W        W63965  20.617  18.338   0.735
90898W        W63966  29.533  26.418  12.789
90899W        W63967  20.253  39.083  10.288
90900W        W63968   0.056  21.260   2.580
90901W        W63969   9.423   9.815  14.445
90902W        W63970   6.980  29.225   1.848
90903W        W63971  30.710  20.053  12.026
90904W        W63972  15.286  29.511  11.414
90905W        W63973  39.249   6.281  12.602
90906W        W63974  26.747  25.556  10.669
90907W        W63975  24.260  40.377  14.342
90908W        W63976  16.510  14.342   2.455
90909W        W63977  25.668  34.666  14.747
90910W        W63978  39.081  26.399   0.872
90911W        W63979  39.837   5.862  10.664
90912W        W63980  31.655  15.051  10.868
90913W        W63981  12.266  28.567   4.063
90914W        W63982  38.431  21.329  11.699
90915W        W63983   1.216  34.028  11.025
90916W        W63984  40.025  33.585   2.232
90917W        W63985  15.376  20.835   2.177
90918W        W63986  36.509  37.598   3.245
90919W        W63987  44.681   2.227  12.434
90920W        W63988   8.320  43.191   4.869
90921W        W63989   9.557   7.668  12.709
90922W        W63990   5.571  11.582  13.846
90923W        W63991  41.390  15.160  13.961
90924W        W63992  12.827  42.827   1.014
90925W        W63993   3.953   0.974   1.384
90926W        W63994  40.114  17.266   1.730
90927W        W63995  37.464  41.471  14.101
90928W        W63996   9.779  44.791   1.091
90929W        W63997  30.314  20.640  10.876
90930W        W63998   9.985   3.701   2.853
90931W        W63999  22.141  40.101  11.327
90932W        W64000  26.692  32.505   1.708
90933W        W64001  28.610  21.074   1.152
90934W        W64002  42.269  36.133  10.259
90935W        W64003  27.112  33.107   3.632
90936W        W64004  35.236  40.621   0.001
90937W        W64005  36.925  23.471   1.084
90938W        W64006  26.165  39.033  12.980
90939W        W64007   1.836  20.830  13.748
90940W        W64008  26.610  24.742  12.551
90941W        W64009  42.995  32.078  12.520
90942W        W64010  44.761  31.508   2.270
90943W        W64011   5.316  28.149  10.711
90944W        W64012  23.723  19.673  12.048
90945W        W64013  20.499  33.711  14.395
90946W        W64014  11.463  15.659  12.595
90947W        W64015   9.785  23.218   0.990
90948W        W64016   2.491  11.191  11.491
90949W        W64017  24.610  18.661   1.707
90950W        W64018  19.168  20.164  12.063
90951W        W64019  43.323  24.717  11.123
90952W        W64020  37.505   2.841  10.842
90953W        W64021   4.481  27.690  10.914
90954W        W64022   6.777  12.219  11.126
90955W        W64023  22.479  44.525   3.257
90956W        W64024  22.259  12.245   1.368
90957W        W64025  34.121  40.060  12.051
90958W        W64026  10.335   1.490  13.030
90959W        W64027  35.546  24.214   4.560
90960W        W64028  12.223  42.541   1.290
90961W        W64029  10.159  40.762  11.969
90962W        W64030  31.692  26.314  10.822
90963W        W64031  34.755  35.564   4.950
90964W        W64032   0.616  39.005   1.010
90965W        W64033  10.695  25.538   1.908
90966W        W64034  17.171  35.449   4.044
90967W        W64035  21.530  31.489  13.841
90968W        W64036  14.261   7.158   3.244
90969W        W64037   0.180  17.246  10.497
90970W        W64038  30.533  12.269  10.329
90971W        W64039   7.459  40.981  11.262
90972W        W64040  20.132  43.746   2.331
90973W        W64041  44.906  40.133   2.299
90974W        W64042  37.385  35.989   2.769
90975W        W64043  37.330  32.969   4.501
90976W        W64044  24.814   8.714   0.723
90977W        W64045  12.159  35.915  11.644
90978W        W64046  31.480   2.359  10.438
90979W        W64047   2.896  31.079  10.684
90980W        W64048   9.736  23.156  14.573
90981W        W64049  34.427  32.323  13.977
90982W        W64050  32.629  10.264  12.483
90983W        W64051  27.710  20.263   3.830
90984W        W64052   1.882  14.801   4.662
90985W        W64053  10.323   7.572  12.462
90986W        W64054  20.065  23.033   3.273
90987W        W64055   6.770   4.504  14.706
90988W        W64056   9.576  40.287  11.018
90989W        W64057  18.120  28.103   3.367
90990W        W64058   2.075  38.046  14.494
90991W        W64059  14.194  14.338  13.284
90992W        W64060  22.028  11.103  12.024
90993W        W64061   2.497   4.690  10.798
90994W        W64062  37.092   0.968   2.277
90995W        W64063  22.243  12.564  11.105
90996W        W64064  28.163  33.719  13.870
90997W        W64065   7.134  14.692   2.872
90998W        W64066  21.323  16.264   2.776
90999W        W64067  33.099   5.568   2.233
91000W        W64068  19.273  32.066  12.597
91001W        W64069  41.976   2.308  12.781
91002W        W64070  40.852  15.721  13.533
91003W        W64071  13.738  29.110   4.138
91004W        W64072  28.642  21.074   1.660
91005W        W64073  39.065  41.440   2.266
91006W        W64074  10.251   8.680   2.316
91007W        W64075  30.678  20.985   2.344
91008W        W64076  36.097  18.672  14.957
91009W        W64077   0.322  36.108   2.306
91010W        W64078  14.656  10.833   4.012
91011W        W64079   8.752  20.930   4.525
91012W        W64080  38.119   1.681  12.108
91013W        W64081   8.452   9.395   1.376
91014W        W64082  32.435  40.952   2.788
91015W        W64083  38.483   7.911   4.544
91016W        W64084  29.437   9.754  14.620
91017W        W64085   3.689  38.302   4.535
91018W        W64086  32.942   4.263  10.669
91019W        W64087  34.589  32.993  12.828
91020W        W64088  30.113  17.998   2.364
91021W        W64089  30.175  19.979  12.144
91022W        W64090  38.378  28.164  14.843
91023W        W64091   1.927  44.309  14.765
91024W        W64092  39.050   9.750   0.023
91025W        W64093  10.278  18.971   1.359
91026W        W64094   3.299  10.284  12.040
91027W        W64095   4.948  40.760  11.075
91028W        W64096  17.100  24.474  11.509
91029W        W64097   8.793  32.864  11.536
91030W        W64098  41.393  16.423  13.500
91031W        W64099  13.336  44.651   2.692
91032W        W64100  27.497  29.711  11.582
91033W        W64101  32.930   5.324   2.683
91034W        W64102  44.292  42.959   1.471
91035W        W64103  37.000  36.128   1.972
91036W        W64104  29.186  23.295  12.560
91037W        W64105  10.837  40.062  12.952
91038W        W64106   7.470  35.340   0.907
91039W        W64107   4.227  19.918  12.474
91040W        W64108  42.844   1.852   4.343
91041W        W64109  16.320  10.885  13.510
91042W        W64110  44.325   1.750  13.777
91043W        W64111  13.256  17.952   0.648
91044W        W64112  44.787  22.728   1.992
91045W        W64113  13.382  21.545   4.239
91046W        W64114  40.529   8.874  13.013
91047W        W64115  44.434  32.292   0.730
91048W        W64116  22.123  41.900  14.412
91049W        W64117  44.999   6.332  12.114
91050W        W64118   6.891   4.269   2.580
91051W        W64119  25.380  19.736   0.813
91052W        W64120  14.656   4.154  14.530
91053W        W64121   0.417  39.675  13.333
91054W        W64122  27.708  43.517  14.943
91055W        W64123   6.955  30.075   1.730
91056W        W64124  43.537  15.635   4.100
91057W        W64125  10.470  10.229   0.171
91058W        W64126  38.150  22.514  12.635
91059W        W64127  27.197  15.504   4.092
91060W        W64128  36.637  28.421  11.415
91061W        W64129  40.620   7.234   0.709
91062W        W64130   7.336   2.643  11.533
91063W        W64131   3.479  29.601   3.248
91064W        W64132  36.174  17.138  13.446
91065W        W64133   6.896  40.366   2.349
91066W        W64134  11.369  11.758  11.967
91067W        W64135  25.199  31.073  14.415
91068W        W64136  35.580  29.915   4.627
91069W        W64137  17.799  26.101  14.504
91070W        W64138  35.620  16.786  13.896
91071W        W64139  27.096  28.439  13.814
91072W        W64140  36.814  18.620  12.912
91073W        W64141  23.305  32.561  13.028
91074W        W64142   4.191  34.269   0.415
91075W        W64143  21.857  24.551  11.388
91076W        W64144  11.336  21.255  10.778
91077W        W64145   3.631  22.148   1.790
91078W        W64146  40.342  37.764   3.197
91079W        W64147  39.265  40.148  14.500
91080W        W64148  35.512   4.935  10.543
91081W        W64149  42.483  24.373   0.036
91082W        W64150   1.502  11.385  12.011
91083W        W64151  33.102  31.508   0.933
91084W        W64152  14.684  15.532   4.474
91085W        W64153  30.552  18.750  12.336
91086W        W64154  26.478  16.541  14.394
91087W        W64155  13.082   2.359  12.988
91088W        W64156  10.612  19.942  14.802
91089W        W64157  15.673   2.974   0.909
91090W        W64158  22.349  36.609  12.953
91091W        W64159  36.944   7.229   2.806
91092W        W64160  26.222  43.292  12.794
91093W        W64161   7.382   0.457   1.830
91094W        W64162  36.861  22.011  12.578
91095W        W64163   4.396  13.408   1.302
91096W        W64164  29.870  20.792  13.700
91097W        W64165  32.215  40.820   3.233
91098W        W64166  43.288  17.070  11.505
91099W        W64167  18.271   1.947  14.389
91100W        W64168  30.389  21.078  11.237
91101W        W64169  35.147   9.706  13.781
91102W        W64170  37.642   6.456  14.449
91103W        W64171  23.584  26.442   1.718
91104W        W64172  41.025  25.063   3.705
91105W        W64173  18.628  41.972   0.814
91106W        W64174   3.766   2.160   3.230
91107W        W64175  24.489  40.049   0.396
91108W        W64176  31.350  13.583  13.075
91109W        W64177  17.608  42.694  13.953
91110W        W64178  12.375  23.073  14.843
91111W        W64179  12.221  37.826   3.755
91112W        W64180  23.452  18.046  10.184
91113W        W64181  17.257  32.125  12.012
91114W        W64182  11.077  18.214  10.707
91115W        W64183  40.203  42.111  13.391
91116W        W64184  15.047  39.438  10.910
91117W        W64185   4.304  24.117   2.179
91118W        W64186   5.710  40.882  14.426
91119W        W64187   3.456  33.457  13.759
91120W        W64188   7.666   6.374  11.019
91121W        W64189  19.682  12.270  14.586
91122W        W64190  43.845  25.114   3.324
91123W        W64191  11.433  11.640  13.831
91124W        W64192   7.704   3.643   0.675
91125W        W64193  38.109  37.009  13.847
91126W        W64194   5.371  27.485   3.545
91127W        W64195  18.956  40.813  11.017
91128W        W64196  36.904  26.127  11.914
91129W        W64197  42.783  22.584  13.847
91130W        W64198   4.644  23.208  13.821
91131W        W64199  26.313  19.312  13.196
91132W        W64200  10.658  10.182  14.316
91133W        W64201   4.732  18.284  11.231
91134W        W64202   9.653  17.553  14.034
91135W        W64203   1.303  26.273  10.657
91136W        W64204   8.796   1.227   3.683
91137W        W64205  16.819  40.474   2.741
91138W        W64206  27.578  19.028  10.855
91139W        W64207  43.498  33.598   0.031
91140W        W64208  20.706  44.942   1.190
91141W        W64209  42.011  40.399  14.968
91142W        W64210   9.581  36.045   3.800
91143W        W64211  19.035  24.719   4.557
91144W        W64212  25.691  12.189  12.554
91145W        W64213  31.452  37.325   3.578
91146W        W64214   7.295   6.913   0.503
91147W        W64215   2.124  37.844  13.518
91148W        W64216  30.891  26.400  14.393
91149W        W64217  29.889  39.999  11.158
91150W        W64218  25.241  17.721   2.334
91151W        W64219   4.359  32.653   3.756
91152W        W64220  24.166  31.001  11.650
91153W        W64221  10.106  41.433  11.383
91154W        W64222   7.158   5.999  13.619
91155W        W64223  32.317  10.233  11.579
91156W        W64224  44.452  23.657   3.808
91157W        W64225  18.776  36.635   1.943
91158W        W64226  25.449  31.420  13.409
91159W        W64227  12.749  13.855   1.780
91160W        W64228   3.468  15.274   0.841
91161W        W64229  33.983  36.423   0.825
91162W        W64230  40.789  43.209  13.847
91163W        W64231  15.659  28.372   2.459
91164W        W64232  32.043  23.611   0.007
91165W        W64233  27.791  40.594   4.545
91166W        W64234  24.748  43.076  14.284
91167W        W64235  12.723  39.262   4.070
91168W        W64236   5.787  42.089   0.334
91169W        W64237  11.955  41.029   2.736
91170W        W64238  28.523  32.524   0.139
91171W        W64239  25.093  21.814   4.757
91172W        W64240  22.781   5.930   3.669
91173W        W64241   4.938  34.132   1.248
91174W        W64242   1.380  38.761  12.062
91175W        W64243  39.070  14.859   4.791
91176W        W64244  32.492   8.434  11.608
91177W        W64245  34.285  42.094  14.819
91178W        W64246  40.442  14.141  13.553
91179W        W64247   2.775  34.417  14.772
91180W        W64248   3.725  21.265  13.870
91181W        W64249  37.832  35.948   4.985
91182W        W64250  40.909  15.391  10.975
91183W        W64251  25.741   5.134  13.295
91184W        W64252   9.672  36.828  11.012
91185W        W64253  22.213  11.947   2.989
91186W        W64254  13.779  23.014  12.929
91187W        W64255  35.921  16.005  10.499
91188W        W64256  18.218  19.435   1.826
91189W        W64257   1.205  27.478  11.108
91190W        W64258  25.520  11.690  14.822
91191W        W64259  17.866  20.159   4.134
91192W        W64260  21.722  43.861   3.155
91193W        W64261   3.928  24.507  11.567
91194W        W64262  18.247  25.180  12.556
91195W        W64263  27.015   9.452  13.934
91196W        W64264  22.900   8.800  11.967
91197W        W64265  13.493  16.454  10.642
91198W        W64266   3.353  26.598  12.882
91199W        W64267  25.541  26.217   1.289
91200W        W64268   1.710   0.304   1.308
91201W        W64269  12.817  11.648  11.812
91202W        W64270  33.265  31.069   2.234
91203W        W64271  26.418  39.113  14.779
91204W        W64272   9.487  33.661   2.802
91205W        W64273   1.279  37.786  11.991
91206W        W64274  44.997  33.401   2.396
91207W        W64275  16.775  40.882   1.710
91208W        W64276   1.948   9.611  14.347
91209W        W64277   3.743  15.623  13.133
91210W        W64278  29.188   1.951   4.586
91211W        W64279  34.951  37.895  13.401
91212W        W64280   2.401  39.639  12.361
91213W        W64281  33.377  32.084   3.221
91214W        W64282  15.285  15.266   0.325
91215W        W64283  16.627  36.955  14.429
91216W        W64284   3.037  16.749   1.783
91217W        W64285  21.446  26.528   4.082
91218W        W64286   5.922  25.725  14.314
91219W        W64287   8.166  11.266   4.676
91220W        W64288   9.255  40.547  13.925
91221W        W64289   9.399   1.816  12.129
91222W        W64290   2.692  12.297   0.051
91223W        W64291   5.302  43.292   3.125
91224W        W64292  28.106  18.300   4.276
91225W        W64293  29.921   7.797  10.605
91226W        W64294  33.934  27.282   4.462
91227W        W64295  44.075  28.494   0.783
91228W        W64296  26.174  26.420  12.974
91229W        W64297  40.902   9.685   3.374
91230W        W64298  40.031   7.732   3.780
91231W        W64299  12.567  41.826  14.090
91232W        W64300   8.385  44.333   4.200
91233W        W64301  36.091   6.830  12.455
91234W        W64302  29.388  43.067   1.423
91235W        W64303  27.254  12.194   3.613
91236W        W64304  27.463  42.076  12.918
91237W        W64305  40.743  35.997  14.782
91238W        W64306  16.339   1.431   0.283
91239W        W64307  16.134  33.163  12.201
91240W        W64308   3.329  13.920   3.224
91241W        W64309  12.938  19.582  10.895
91242W        W64310   4.544  43.164  12.054
91243W        W64311  37.391   3.170   1.252
91244W        W64312  27.964  21.531  11.530
91245W        W64313  27.664   9.151  11.961
91246W        W64314  35.508  32.438   3.015
91247W        W64315  16.685   0.126   0.707
91248W        W64316  12.871  12.112  13.481
91249W        W64317  34.681  12.723   2.341
91250W        W64318   0.539  41.300   1.948
91251W        W64319  36.570   1.387  13.272
91252W        W64320  30.160  37.832   2.410
91253W        W64321  34.556  24.073   0.989
91254W        W64322  12.222   7.431  10.428
91255W        W64323   1.477   9.713  12.455
91256W        W64324  36.785   1.779  14.637
91257W        W64325   1.341  34.289  14.824
91258W        W64326  21.211  39.895  13.429
91259W        W64327  28.441  36.886  14.603
91260W        W64328   3.333  12.904   3.353
91261W        W64329   6.178   5.461   1.619
91262W        W64330  39.975   2.247   1.442
91263W        W64331  23.030  22.244  11.612
91264W        W64332   7.768  40.124   0.779
91265W        W64333   5.677  44.287   0.270
91266W        W64334   2.863  35.557   3.745
91267W        W64335  21.778  14.769   1.262
91268W        W64336  18.315  29.562  14.346
91269W        W64337  21.813  29.478  14.023
91270W        W64338  25.630  13.074   3.210
91271W        W64339  22.524  37.365   1.705
91272W        W64340  39.871   3.006   2.734
91273W        W64341  13.422  14.638   1.201
91274W        W64342  36.007   9.399   2.252
91275W        W64343  35.292  25.807   1.004
91276W        W64344   7.935  31.433   3.660
91277W        W64345   6.324  21.051   3.168
91278W        W64346  23.723  19.285   3.262
91279W        W64347   9.844   2.768   2.226
91280W        W64348  23.631  30.427   4.594
91281W        W64349   7.307  25.112   0.393
91282W        W64350   2.401  29.516  14.819
91283W        W64351  10.651  19.667   4.862
91284W        W64352  26.937  30.363   4.173
91285W        W64353  14.193  44.252  12.617
91286W        W64354  29.085   3.963  12.467
91287W        W64355  24.457  19.286  13.938
91288W        W64356  28.941  35.454   3.165
91289W        W64357   4.997  24.533   4.572
91290W        W64358   0.961  37.369  14.432
91291W        W64359  15.540   5.668  10.386
91292W        W64360  33.773  20.662  13.028
91293W        W64361  13.939  27.059   1.372
91294W        W64362  14.315  39.033  13.920
91295W        W64363  42.979  13.595  14.924
91296W        W64364  33.720   6.694   2.193
91297W        W64365  26.004   7.379   4.213
91298W        W64366  10.539  21.097   4.999
91299W        W64367  34.878  23.497  12.423
91300W        W64368  32.657   8.404  12.496
91301W        W64369  20.454  35.392  12.283
91302W        W64370   0.886  32.067  14.322
91303W        W64371  39.431   3.898   4.557
91304W        W64372   9.220  29.405   4.170
91305W        W64373  29.855   2.741  13.276
91306W        W64374  16.251  44.924   1.334
91307W        W64375  28.391  18.798   4.260
91308W        W64376  44.927   2.795   1.011
91309W        W64377  13.338  20.943   1.797
91310W        W64378  38.365  43.162  12.228
91311W        W64379  15.104  41.731   0.311
91312W        W64380  41.245  13.744  13.480
91313W        W64381   2.445  32.332   1.350
91314W        W64382   6.720  27.354  14.919
91315W        W64383  20.593   4.332   4.540
91316W        W64384  31.092  23.114   3.172
91317W        W64385  42.451   9.226  13.038
91318W        W64386   8.787  30.088  14.237
91319W        W64387  10.230  32.066   4.636
91320W        W64388  24.670   9.106   0.393
91321W        W64389  33.849  39.578  12.104
91322W        W64390  40.295   5.652  11.554
91323W        W64391  27.195  22.580   2.126
91324W        W64392  27.540  42.589   4.492
91325W        W64393  36.482   1.198   2.298
91326W        W64394   1.757   3.408   1.899
91327W        W64395   7.340  36.767   4.683
91328W        W64396  40.112  24.952  10.693
91329W        W64397  44.352   6.926  10.665
91330W        W64398  26.513  14.970  10.651
91331W        W64399  10.331  26.989   0.445
91332W        W64400  29.549  17.830  13.356
91333W        W64401  39.571  35.059  11.240
91334W        W64402  14.472   2.473  12.068
91335W        W64403   5.903   6.340   3.427
91336W        W64404   5.528  23.782   2.651
91337W        W64405  23.149  28.141   0.066
91338W        W64406  30.156  15.123   1.794
91339W        W64407  44.338  30.889  13.866
91340W        W64408   7.773  10.849   3.632
91341W        W64409  12.500   1.023  14.998
91342W        W64410   7.906  14.875   4.041
91343W        W64411  44.148  42.697  13.887
91344W        W64412  23.612  13.783  10.716
91345W        W64413  39.817  10.696   3.684
91346W        W64414  13.308  38.884  12.343
91347W        W64415  30.737  10.387   4.203
91348W        W64416  42.827   1.949  10.611
91349W        W64417   1.450  13.198  12.247
91350W        W64418  44.563  10.444   4.935
91351W        W64419  31.245  19.144   0.272
91352W        W64420  12.557   9.639   4.548
91353W        W64421   7.858  22.483  12.033
91354W        W64422  34.770  24.140  12.952
91355W        W64423  16.116  27.236  11.617
91356W        W64424  27.001  18.611   2.864
91357W        W64425  40.577   3.815  12.693
91358W        W64426  40.097  25.446   2.690
91359W        W64427   7.087  38.779  13.119
91360W        W64428  25.088  34.496  12.112
91361W        W64429  24.131  36.286  13.433
91362W        W64430  11.745  13.084   1.267
91363W        W64431  14.846   3.224  12.414
91364W        W64432  21.662  29.242  10.403
91365W        W64433  18.712  15.652   0.079
91366W        W64434  21.292   0.936  14.398
91367W        W64435  17.598  26.006  12.440
91368W        W64436  32.834  13.780  11.300
91369W        W64437  21.080  14.059   2.277
91370W        W64438  12.200  29.483   4.171
91371W        W64439   0.449  43.903   1.402
91372W        W64440  23.989   4.311  11.918
91373W        W64441  34.802   1.588   2.654
91374W        W64442   8.192   6.398  14.084
91375W        W64443  43.464   9.345   2.206
91376W        W64444  41.305   0.399   0.958
91377W        W64445  24.971  11.703  14.453
91378W        W64446  17.583  23.665  11.568
91379W        W64447   3.551  20.574  12.638
91380W        W64448  28.712  33.038   0.406
91381W        W64449  27.246   8.833   4.625
91382W        W64450  19.467  17.313  12.071
91383W        W64451  26.553  22.954  14.524
91384W        W64452  18.797  20.825   1.940
91385W        W64453  27.735   9.180   1.924
91386W        W64454  13.229  19.120  10.164
91387W        W64455  27.208   0.763  13.498
91388W        W64456  24.666  27.743   0.019
91389W        W64457   9.017  39.025   1.702
91390W        W64458  16.313  40.329  13.805
91391W        W64459   1.860  23.940   2.381
91392W        W64460  22.122   8.418  12.678
91393W        W64461  40.782  22.201   3.718
91394W        W64462  34.347  37.999   1.808
91395W        W64463   2.057  25.587  12.591
91396W        W64464   6.891   5.359   4.584
91397W        W64465  18.823  43.265   1.680
91398W        W64466  40.779  41.274   2.720
91399W        W64467  43.767  28.992   3.321
91400W        W64468  23.052  26.087  10.715
91401W        W64469   4.103  21.886  11.856
91402W        W64470  36.766  34.072  13.505
91403W        W64471   4.325   1.237   3.106
91404W        W64472   6.333  24.572  12.883
91405W        W64473  34.134  41.083   0.841
91406W        W64474   4.871   6.611  14.497
91407W        W64475  14.078   0.952   2.827
91408W        W64476   4.987  38.171   2.826
91409W        W64477   7.951  13.475   1.232
91410W        W64478  34.209  40.482  14.395
91411W        W64479   0.994  26.207   2.701
91412W        W64480  34.354  41.624   0.047
91413W        W64481  38.828  26.796  11.899
91414W        W64482  24.567  22.056  10.798
91415W        W64483  42.522  18.907   4.314
91416W        W64484   6.353  13.526  11.133
91417W        W64485  44.234  28.990   4.270
91418W        W64486  26.189  12.776   4.659
91419W        W64487  31.630  37.314  10.983
91420W        W64488  19.534  36.008  12.530
91421W        W64489   3.788  33.798  11.550
91422W        W64490  19.281  44.830   2.307
91423W        W64491  22.697  40.329  12.998
91424W        W64492  32.500  30.839  12.022
91425W        W64493  12.867  40.581  14.859
91426W        W64494  17.689  40.487  13.821
91427W        W64495   7.666  12.535  11.911
91428W        W64496  16.828   1.893  11.254
91429W        W64497  21.116  18.765   3.634
91430W        W64498  25.684  39.021   2.440
91431W        W64499  37.160  35.969  13.286
91432W        W64500  32.842   9.970   0.048
91433W        W64501  24.292  35.478   0.230
91434W        W64502   4.446  34.696  11.769
91435W        W64503  21.895  36.898  12.053
91436W        W64504  44.244  12.370   3.558
91437W        W64505  15.358   9.840   1.808
91438W        W64506   0.264  21.653  11.986
91439W        W64507  44.597  43.969   0.307
91440W        W64508  22.799  20.199   2.251
91441W        W64509  23.607  43.392   4.532
91442W        W64510  14.866  11.802  11.685
91443W        W64511  30.953  26.202   0.963
91444W        W64512   4.364   5.907  13.260
91445W        W64513  30.432  33.676   4.556
91446W        W64514  20.660   7.923   0.332
91447W        W64515  10.335  17.285   0.250
91448W        W64516  16.131  10.360   4.108
91449W        W64517   3.852  37.985  14.014
91450W        W64518  35.454  27.446  13.437
91451W        W64519  13.082  19.085  11.102
91452W        W64520  18.043  22.444   0.399
91453W        W64521  22.712  13.142   3.885
91454W        W64522   2.064  25.490  13.821
91455W        W64523   4.832  19.049  14.296
91456W        W64524  44.198   4.476   1.965
91457W        W64525   5.188  24.683   0.792
91458W        W64526  14.277  21.444  12.607
91459W        W64527   8.818  36.466   4.620
91460W        W64528  26.743  30.943   0.694
91461W        W64529  16.104  31.167   4.620
91462W        W64530  34.609  30.344   2.045
91463W        W64531  31.011  11.447   0.294
91464W        W64532  33.647  12.417   3.256
91465W        W64533   6.436  42.964   0.376
91466W        W64534  39.575   9.939   1.874
91467W        W64535   9.612  21.111  12.471
91468W        W64536  11.657  32.408   1.758
91469W        W64537  39.431  28.193   2.852
91470W        W64538  30.102  44.267   0.294
91471W        W64539   6.796  21.071  13.942
91472W        W64540  12.334  13.420  12.446
91473W        W64541   8.157   0.315  10.929
91474W        W64542  40.992  43.375  11.561
91475W        W64543  10.175  11.442   4.555
91476W        W64544   5.878  34.344  14.852
91477W        W64545  12.758  22.593  14.367
91478W        W64546  42.794  12.321   2.624
91479W        W64547   6.732  19.315   0.355
91480W        W64548   2.983   4.606   0.348
91481W        W64549  29.934   7.376  11.280
91482W        W64550   6.343   2.477   2.279
91483W        W64551  22.621  23.290   1.787
91484W        W64552   2.005  39.312  12.420
91485W        W64553  25.659  38.202   0.917
91486W        W64554  10.369   5.793  11.846
91487W        W64555  35.899  26.033   1.729
91488W        W64556  12.202  39.482   1.323
91489W        W64557  39.904  38.352  12.447
91490W        W64558  21.251   4.137   4.145
91491W        W64559  32.426  38.788   1.821
91492W        W64560   8.245  33.502   1.525
91493W        W64561  39.355   6.511   2.199
91494W        W64562  42.983   0.022  11.606
91495W        W64563  31.372  31.660   5.074
91496W        W64564  42.226  33.854  13.179
91497W        W64565  19.062  22.581  10.712
91498W        W64566  15.960  20.722   2.767
91499W        W64567  34.493   7.270  14.590
91500W        W64568   4.197  19.130   3.957
91501W        W64569  41.019  42.506   3.733
91502W        W64570  26.693  12.742   4.546
91503W        W64571  26.108  19.030  10.589
91504W        W64572   3.919  39.954  13.918
91505W        W64573  13.576  17.752   2.645
91506W        W64574  15.437  42.859  10.683
91507W        W64575  42.887  15.736   5.025
91508W        W64576  27.930  40.415   3.619
91509W        W64577  34.770  23.237   2.422
91510W        W64578  26.578  22.579   0.834
91511W        W64579  39.785  31.000  14.200
91512W        W64580  21.623  18.262   2.210
91513W        W64581  25.921  41.875   4.651
91514W        W64582  39.862  16.884   1.465
91515W        W64583  29.805  21.128   5.084
91516W        W64584  44.491   0.267   0.748
91517W        W64585   5.884   8.153  12.885
91518W        W64586   0.005  23.250  11.112
91519W        W64587   4.310  14.660  10.975
91520W        W64588  30.021   4.452  13.914
91521W        W64589  44.033  29.517   2.210
91522W        W64590  41.392  24.948   2.258
91523W        W64591  15.504  24.002   4.192
91524W        W64592  14.744  28.182   2.710
91525W        W64593   8.821  18.811   3.072
91526W        W64594  34.559   0.847   4.200
91527W        W64595   4.209   3.328   2.794
91528W        W64596  31.933  11.132  14.399
91529W        W64597  21.441   4.027  11.562
91530W        W64598  23.908  17.356   1.399
91531W        W64599   5.666  34.980  13.576
91532W        W64600  34.955   8.333  14.534
91533W        W64601  22.228  41.574   3.373
91534W        W64602   4.794  11.710  13.401
91535W        W64603  30.359   1.019  14.499
91536W        W64604  23.752  16.616  11.030
91537W        W64605   9.235  23.944   0.478
91538W        W64606  25.730  24.669   3.536
91539W        W64607  18.981  26.481  12.417
91540W        W64608  26.943  36.494   2.217
91541W        W64609   5.775   3.426  13.419
91542W        W64610  19.516   9.793   4.189
91543W        W64611  21.841   1.463   5.557
91544W        W64612  31.101  30.556   1.177
91545W        W64613   2.364  29.297   2.312
91546W        W64614  28.181  28.630   4.854
91547W        W64615  41.025  40.095  13.547
91548W        W64616  30.022   9.424   2.674
91549W        W64617   9.729  33.355   3.164
91550W        W64618  39.828   1.272  13.929
91551W        W64619  42.741  23.658   2.959
91552W        W64620  30.995  36.128  14.398
91553W        W64621  21.745   0.986  12.624
91554W        W64622  20.352  43.532   1.886
91555W        W64623  37.013   3.144   4.577
91556W        W64624  15.180  29.433  14.961
91557W        W64625   4.524   4.260   3.667
91558W        W64626  32.153  35.047  15.000
91559W        W64627  16.860  44.283   2.559
91560W        W64628  31.923  36.818   2.178
91561W        W64629  36.473  41.806   0.387
91562W        W64630  39.974  31.477   3.711
91563W        W64631  44.932  15.175  11.131
91564W        W64632  30.994  29.060   1.260
91565W        W64633  20.012  30.612  13.623
91566W        W64634  44.267  20.772   2.643
91567W        W64635  44.029  32.865   4.118
91568W        W64636  44.842  43.099   0.289
91569W        W64637  32.392  22.470  11.491
91570W        W64638   8.634  38.258   3.768
91571W        W64639  44.780   6.453   0.228
91572W        W64640  31.998  33.378  14.854
91573W        W64641  43.408  14.820   3.633
91574W        W64642  21.051  10.758   4.132
91575W        W64643   3.372  27.506  12.677
91576W        W64644   5.118  14.680   4.544
91577W        W64645  34.848  15.218  10.689
91578W        W64646  31.048  37.293   5.025
91579W        W64647  43.782  23.121   0.902
91580W        W64648   4.976  40.244   0.047
91581W        W64649   9.882  19.356   4.682
91582W        W64650  22.084  32.753  13.067
91583W        W64651  19.062  36.918   3.266
91584W        W64652   9.233  38.574  14.884
91585W        W64653  27.878  25.520   4.864
91586W        W64654  39.891  25.601  11.682
91587W        W64655  11.821   9.712  11.490
91588W        W64656   3.314  23.465  12.981
91589W        W64657  27.453  40.230   3.668
91590W        W64658   8.708  43.533   4.792
91591W        W64659  25.606  11.902   9.700
91592W        W64660  17.606  21.689   0.673
91593W        W64661   0.070  20.660  11.864
91594W        W64662   2.768  16.358  14.507
91595W        W64663   2.472  13.317  13.825
91596W        W64664  21.628  21.950   0.299
91597W        W64665  13.900  14.319   2.179
91598W        W64666  22.699   0.852   0.833
91599W        W64667  24.759  26.529  11.486
91600W        W64668   3.812  25.971   4.319
91601W        W64669  43.113  36.397   1.876
91602W        W64670  26.996   3.770  11.170
91603W        W64671  43.676  21.047   4.409
91604W        W64672  32.106  32.316   1.309
91605W        W64673  22.706  30.327  10.748
91606W        W64674  28.568  42.998   3.153
91607W        W64675  28.573   9.636   2.346
91608W        W64676  35.498   3.241  10.768
91609W        W64677  33.116  10.423   0.173
91610W        W64678  39.134  20.214   3.363
91611W        W64679   8.365  37.484   1.187
91612W        W64680  13.058  16.777  12.602
91613W        W64681  14.050  11.929   3.867
91614W        W64682  15.532  16.250   4.322
91615W        W64683  21.452  29.299  14.445
91616W        W64684  44.033   0.768   2.866
91617W        W64685  21.120  17.686   4.681
91618W        W64686  11.773  17.657   2.449
91619W        W64687   6.827  20.595  12.508
91620W        W64688  39.270   4.390  14.558
91621W        W64689   0.283  37.851   1.569
91622W        W64690  22.703  22.276   1.935
91623W        W64691   8.257  20.033  12.664
91624W        W64692  25.618   0.532   0.719
91625W        W64693  42.086   3.488   2.498
91626W        W64694  19.747   8.410   3.323
91627W        W64695  36.373  42.916  14.443
91628W        W64696   3.759  21.582  12.994
91629W        W64697  31.229  16.763   1.276
91630W        W64698  18.461  39.413  10.360
91631W        W64699   6.844  18.154  13.907
91632W        W64700  23.686  18.805  13.759
91633W        W64701   3.844  32.085  13.735
91634W        W64702   0.347  20.743   4.857
91635W        W64703  11.759  19.622   2.666
91636W        W64704  21.116  37.379   1.399
91637W        W64705   1.844  31.595   1.026
91638W        W64706   0.455  11.589   4.441
91639W        W64707  40.336  42.325   4.284
91640W        W64708  44.226  41.904   3.267
91641W        W64709  14.337  36.589   2.427
91642W        W64710  38.837  36.646  12.013
91643W        W64711  25.797  41.892  13.823
91644W        W64712  32.374  12.899  11.162
91645W        W64713  38.806   9.143  11.078
91646W        W64714  36.080  27.766  12.456
91647W        W64715  37.810   1.360  13.905
91648W        W64716  40.429   3.350   4.551
91649W        W64717  30.934  27.011   2.727
91650W        W64718  43.503  14.270   1.726
91651W        W64719  40.593  11.119   1.723
91652W        W64720  35.981   1.200   0.340
91653W        W64721  37.260   4.265   1.779
91654W        W64722  36.917   2.994   1.113
91655W        W64723   4.975  35.403   0.896
91656W        W64724  28.699  23.288   1.308
91657W        W64725   0.752  40.016   5.018
91658W        W64726  18.156  44.706   2.447
91659W        W64727  31.223  21.291  14.037
91660W        W64728  37.051   0.406   0.017
91661W        W64729  27.080  37.191   2.780
91662W        W64730  35.426  30.980  11.860
91663W        W64731   1.775   2.398   4.077
91664W        W64732  16.659  42.846  11.001
91665W        W64733  22.538   6.877   0.750
91666W        W64734  28.332  10.868  10.608
91667W        W64735  41.406  43.897   4.413
91668W        W64736  12.773  39.836   2.744
91669W        W64737  14.934  44.785  13.501
91670W        W64738   4.314  23.400  12.036
91671W        W64739  15.857  37.992  11.189
91672W        W64740  36.876  12.195   3.747
91673W        W64741   1.264   4.667   3.197
91674W        W64742  24.471  25.555  12.251
91675W        W64743  37.597  31.624  12.325
91676W        W64744  44.256  17.300   1.923
91677W        W64745   7.359   6.364   3.892
91678W        W64746   6.797   1.215   2.934
91679W        W64747  13.430  22.993  13.298
91680W        W64748  39.508   8.682  12.356
91681W        W64749  43.875   8.744   3.215
91682W        W64750  23.922  13.076   3.189
91683W        W64751  22.984  28.609  14.801
91684W        W64752  35.465   9.223   3.943
91685W        W64753  33.077  23.180  11.342
91686W        W64754  10.452  29.022   1.555
91687W        W64755  12.189  34.965   2.190
91688W        W64756  34.470  16.803   1.015
91689W        W64757  13.231   1.331   4.074
91690W        W64758  11.191  37.703  12.198
91691W        W64759  38.463  21.061   3.746
91692W        W64760  38.503  38.985   2.248
91693W        W64761  14.823  22.901   1.165
91694W        W64762  13.069  26.692   1.713
91695W        W64763  34.146  23.087  12.806
91696W        W64764  35.492  27.495   2.139
91697W        W64765  37.097  17.138  12.878
91698W        W64766  40.047  43.754   2.296
91699W        W64767  42.251  22.279  12.491
91700W        W64768   8.630  21.318  12.564
91701W        W64769   3.880  40.955  12.087
91702W        W64770   1.250   9.886  13.877
91703W        W64771  17.348  29.794   0.926
91704W        W64772  36.854  14.255  14.238
91705W        W64773  35.001  36.329   0.212
91706W        W64774  13.020  17.707   0.250
91707W        W64775   1.731   6.665   3.229
91708W        W64776   9.721  42.305  11.987
91709W        W64777  10.693  40.667   4.267
91710W        W64778  28.029  23.999   2.427
91711W        W64779  41.222  38.993   4.505
91712W        W64780   6.834  38.336  11.572
91713W        W64781  44.055  18.549   1.261
91714W        W64782  32.905   6.635   1.301
91715W        W64783  10.632  11.278  13.832
91716W        W64784  36.482  19.248   3.995
91717W        W64785  32.004  19.088   0.619
91718W        W64786  28.346  15.749  12.115
91719W        W64787  21.754  17.882  12.636
91720W        W64788  16.325  38.121  14.316
91721W        W64789  22.571  37.076  13.050
91722W        W64790  11.721  17.661   3.867
91723W        W64791  11.820  23.509   5.053
91724W        W64792  18.185   4.192  12.239
91725W        W64793  41.511  29.694   0.382
91726W        W64794  29.726  44.441  12.017
91727W        W64795  41.346  34.884  13.132
91728W        W64796   3.936  38.263  12.794
91729W        W64797  25.627  40.576   4.567
91730W        W64798   2.378  30.585  14.762
91731W        W64799  10.116  18.076   2.343
91732W        W64800   0.254  19.325  14.901
91733W        W64801  38.479  14.457   3.604
91734W        W64802  33.585  34.752   3.267
91735W        W64803  32.769  11.335  10.877
91736W        W64804  23.570  20.144  11.735
91737W        W64805  11.031  35.091   4.538
91738W        W64806  36.907  26.608  14.525
91739W        W64807  28.984  37.002   4.089
91740W        W64808  19.052  39.863   1.368
91741W        W64809   9.746  33.667  11.893
91742W        W64810   6.781   3.578   4.553
91743W        W64811  36.268   0.400  12.948
91744W        W64812   3.040  42.096   4.221
91745W        W64813  27.938  28.046  13.479
91746W        W64814   5.446  14.767   3.742
91747W        W64815  25.475  29.321  14.529
91748W        W64816  15.203   9.169   3.880
91749W        W64817  22.451  26.656   4.147
91750W        W64818  41.850  18.776   2.158
91751W        W64819  23.079   2.015  11.148
91752W        W64820  34.763  19.597   4.580
91753W        W64821   0.865  41.651   3.245
91754W        W64822  38.406  39.887  10.956
91755W        W64823  35.812  41.163  13.803
91756W        W64824   6.968  25.052  13.366
91757W        W64825  25.707  10.429   1.647
91758W        W64826   3.069   6.054   1.495
91759W        W64827   4.609  21.018  10.572
91760W        W64828  13.072   4.314   3.707
91761W        W64829  19.656  14.388   0.535
91762W        W64830  28.459  27.681   0.874
91763W        W64831   9.831  11.897  11.042
91764W        W64832  15.811   8.333   3.699
91765W        W64833  20.665  22.406   2.351
91766W        W64834   5.162   6.381  12.458
91767W        W64835   0.466  37.633  11.873
91768W        W64836  20.259   3.502  11.233
91769W        W64837   5.809  43.885   3.607
91770W        W64838   0.578  30.635  11.150
91771W        W64839  44.279  30.597  11.597
91772W        W64840  38.953  18.759  13.411
91773W        W64841  30.992  34.575  11.111
91774W        W64842  18.479  44.513  13.404
91775W        W64843  39.936  30.165   4.570
91776W        W64844   0.175  14.735  11.641
91777W        W64845  27.745  42.426   3.242
91778W        W64846  24.555  37.076  14.902
91779W        W64847  13.413  21.698  14.223
91780W        W64848   5.386   4.880  12.352
91781W        W64849  33.024  39.753   2.315
91782W        W64850  26.921  40.625  14.547
91783W        W64851  37.287  10.405  13.096
91784W        W64852   2.413  32.552  10.376
91785W        W64853  12.262  26.959   2.268
91786W        W64854  25.183  25.701   3.333
91787W        W64855   0.111  29.452  12.653
91788W        W64856   9.413  37.559  12.507
91789W        W64857  25.134  39.860   1.750
91790W        W64858  13.114  17.046   0.819
91791W        W64859  38.344  11.154  13.942
91792W        W64860  42.065  18.021  11.971
91793W        W64861  20.746  40.787  13.898
91794W        W64862  41.946  32.055  12.545
91795W        W64863  12.954  36.509   2.695
91796W        W64864  25.187  33.336   4.879
91797W        W64865  40.281   8.677  10.622
91798W        W64866   6.785  11.679   4.095
91799W        W64867   0.985   1.104   2.604
91800W        W64868  13.486  22.687   4.243
91801W        W64869  12.113  41.282  13.581
91802W        W64870  16.081  39.015   0.452
91803W        W64871  25.832  11.767  10.147
91804W        W64872  10.298  19.400   9.907
91805W        W64873  39.113  22.116   3.267
91806W        W64874  37.831   2.879   2.145
91807W        W64875  13.090  11.324   2.757
91808W        W64876  25.440  30.612  14.328
91809W        W64877  27.562  11.583  11.956
91810W        W64878  41.019  28.087  11.449
91811W        W64879  29.527  39.557   4.457
91812W        W64880  34.346  10.163  14.781
91813W        W64881  44.422  40.880   1.976
91814W        W64882  26.350   0.870  12.389
91815W        W64883  21.715  12.203   3.331
91816W        W64884  14.247  42.378   3.340
91817W        W64885  31.939  27.890   4.641
91818W        W64886  23.449  24.964  13.936
91819W        W64887   4.000   6.684  11.014
91820W        W64888  24.169  20.994  12.873
91821W        W64889  23.231  33.893   3.736
91822W        W64890  17.125  43.790   3.841
91823W        W64891  35.022  30.434  13.369
91824W        W64892  34.135  30.206  12.006
91825W        W64893  25.220  19.326   1.752
91826W        W64894  38.067  12.447  14.956
91827W        W64895  30.729  35.850   2.335
91828W        W64896  25.012  40.385   5.037
91829W        W64897  36.077  24.853   3.642
91830W        W64898  15.216  12.614   3.117
91831W        W64899  44.515  36.547  10.232
91832W        W64900   9.962  41.885  10.177
91833W        W64901  31.547  29.243  13.413
91834W        W64902   4.189   6.590  14.021
91835W        W64903   4.221   5.704   3.736
91836W        W64904  42.827  37.240   2.723
91837W        W64905  18.752  20.264   0.224
91838W        W64906  28.516  32.016  10.633
91839W        W64907  42.566   1.046  14.466
91840W        W64908  40.986   8.608  12.915
91841W        W64909  28.821  40.923  12.013
91842W        W64910  25.121  22.143  13.280
91843W        W64911  19.779  12.885   0.225
91844W        W64912  20.958  26.216  14.455
91845W        W64913  19.962  33.857   1.817
91846W        W64914  35.481  12.589   4.572
91847W        W64915  42.530  34.567   3.774
91848W        W64916   5.976   8.643  11.137
91849W        W64917  27.432  27.698   3.711
91850W        W64918  22.937   5.961   2.300
91851W        W64919  27.414  41.847   2.774
91852W        W64920  36.501  30.878   3.159
91853W        W64921  24.904   5.489  10.979
91854W        W64922  24.988  16.696   3.366
91855W        W64923  18.587  18.220   1.499
91856W        W64924  22.052  14.317   2.578
91857W        W64925  37.247  33.640  10.673
91858W        W64926   6.737   3.269  12.064
91859W        W64927  34.119   7.090   2.694
91860W        W64928  19.063  28.490  11.968
91861W        W64929  31.613   0.384   1.748
91862W        W64930  40.144  20.118   2.149
91863W        W64931  23.552   1.199  13.379
91864W        W64932  26.825  16.104   2.952
91865W        W64933  23.939  37.876  10.714
91866W        W64934  35.078  12.156  13.917
91867W        W64935  31.952   4.681   1.913
91868W        W64936  40.052  22.083   3.253
91869W        W64937  40.464   7.854   9.507
91870W        W64938  15.230  15.462  11.325
91871W        W64939  18.895   0.848   3.093
91872W        W64940  44.550  21.228   2.685
91873W        W64941  44.279  15.837   3.374
91874W        W64942   5.559  41.761   1.519
91875W        W64943  25.922  32.653  12.242
91876W        W64944  10.751  18.012   1.715
91877W        W64945  38.917  19.649  11.159
91878W        W64946  43.558  27.237  14.006
91879W        W64947  28.015  30.473   1.710
91880W        W64948  28.940  43.001   0.197
91881W        W64949  20.566  28.385   1.174
91882W        W64950  26.055  12.478  10.331
91883W        W64951  31.433   4.196  13.467
91884W        W64952   6.659  28.690  13.660
91885W        W64953  23.546  29.054   4.120
91886W        W64954  22.840  13.323  10.793
91887W        W64955   3.327  24.421   1.328
91888W        W64956  16.878   2.857  14.994
91889W        W64957  39.724  13.251   2.159
91890W        W64958  12.769  38.974   0.731
91891W        W64959  44.515  35.550  12.428
91892W        W64960  29.264   3.460   3.871
91893W        W64961  27.517   9.758  10.727
91894W        W64962  26.351  39.552   4.239
91895W        W64963  30.102  29.421   2.811
91896W        W64964  42.157  11.649   4.022
91897W        W64965   4.975  10.515   4.908
91898W        W64966  44.925  38.755  11.194
91899W        W64967  11.317  15.314  12.216
91900W        W64968  32.181  18.093  11.599
91901W        W64969  21.305  32.112  10.747
91902W        W64970   7.948  34.088  11.919
91903W        W64971  11.971   3.376  14.292
91904W        W64972   4.414   3.918   1.899
91905W        W64973  21.237   2.237  14.810
91906W        W64974  20.560  25.763  12.086
91907W        W64975   4.242  27.443  12.465
91908W        W64976  31.413  18.351   0.421
91909W        W64977  43.365  34.184  10.326
91910W        W64978   7.401  15.012   2.110
91911W        W64979  30.160   4.009   3.146
91912W        W64980   7.867   9.956  13.967
91913W        W64981  26.997  19.797  11.982
91914W        W64982  34.438  31.133  13.455
91915W        W64983  32.021  28.874  12.058
91916W        W64984  36.521  21.122  14.520
91917W        W64985   3.780  23.453  11.622
91918W        W64986  37.892  25.074  13.793
91919W        W64987   0.312  10.364   0.273
91920W        W64988   0.011  39.623  12.940
91921W        W64989  22.452  12.974   0.945
91922W        W64990  17.258  41.213   0.273
91923W        W64991  31.942  22.233  11.398
91924W        W64992  21.168  42.972   1.390
91925W        W64993  37.396  44.762   3.142
91926W        W64994   8.412  14.489   1.309
91927W        W64995  12.342  30.170   0.947
91928W        W64996  43.852  16.909   0.888
91929W        W64997   4.816  27.578   3.859
91930W        W64998  34.395  27.056  14.010
91931W        W64999  41.294  21.513   1.268
91932W        W65000  21.554  28.973   4.143
91933W        W65001  10.146  31.501  14.085
91934W        W65002  32.105  39.602   3.365
91935W        W65003   6.367   8.353  12.922
91936W        W65004  38.457  14.630   2.308
91937W        W65005  36.564   3.582  11.129
91938W        W65006  17.148  17.172  13.021
91939W        W65007   8.490   7.999   1.421
91940W        W65008  27.127  43.071   3.773
91941W        W65009  24.600  31.451   1.267
91942W        W65010  36.393  21.816  12.374
91943W        W65011  44.903  21.056  14.572
91944W        W65012  34.527  31.332   1.049
91945W        W65013  27.973  27.912  14.410
91946W        W65014  12.178  18.551  11.200
91947W        W65015   1.798   5.216  11.276
91948W        W65016   4.314  23.519  10.460
91949W        W65017  26.544  20.128   4.693
91950W        W65018  10.310   6.658  14.280
91951W        W65019  11.577  13.672  14.838
91952W        W65020  25.537  11.391   3.522
91953W        W65021  18.472  38.978   1.394
91954W        W65022  32.951  31.109  14.553
91955W        W65023  17.074   8.242  10.941
91956W        W65024   7.675  39.260   3.698
91957W        W65025  44.970  26.729  11.509
91958W        W65026  37.301  26.959  10.414
91959W        W65027   2.077   1.093   2.988
91960W        W65028  31.918  31.588  13.064
91961W        W65029  23.481  38.958  11.660
91962W        W65030  34.886  41.547  11.300
91963W        W65031  32.233  22.953   5.022
91964W        W65032  31.965  26.081   0.929
91965W        W65033  28.172  38.279   2.746
91966W        W65034   4.676  43.916  11.697
91967W        W65035  11.132  38.864  10.326
91968W        W65036  44.259  33.542   2.838
91969W        W65037  29.421  16.751   3.229
91970W        W65038  22.577  35.054   4.610
91971W        W65039   7.440  23.224   0.948
91972W        W65040  20.217  25.214   3.548
91973W        W65041  20.202  12.676   3.682
91974W        W65042   7.656  21.667   2.288
91975W        W65043  44.927  15.051   2.434
91976W        W65044  31.085  24.685   4.461
91977W        W65045   5.103  17.457  14.990
91978W        W65046  10.377  39.071   0.865
91979W        W65047  31.274  17.298  14.924
91980W        W65048   0.656  23.956   2.817
91981W        W65049  11.719  36.821  11.553
91982W        W65050  14.440   5.751  14.285
91983W        W65051  26.001  43.777   0.036
91984W        W65052  14.639  26.020   4.447
91985W        W65053   0.898   7.998   2.100
91986W        W65054   7.159  23.676  14.755
91987W        W65055  16.192  26.588  14.029
91988W        W65056  36.623   8.810  13.029
91989W        W65057  19.769  41.484   0.289
91990W        W65058  24.607  15.224   4.426
91991W        W65059  43.910  30.490  12.105
91992W        W65060  17.839  14.684  11.452
91993W        W65061  25.117  29.511  13.882
91994W        W65062  11.250  36.557   3.558
91995W        W65063  35.195  31.285  10.918
91996W        W65064  40.506  20.640  10.477
91997W        W65065  17.865  12.538  13.495
91998W        W65066  27.884  17.999  11.151
91999W        W65067  38.177  26.081   0.420
92000W        W65068   6.231  22.338   2.685
92001W        W65069  28.880  10.262   2.824
92002W        W65070   0.427   6.309   2.356
92003W        W65071  25.536  34.231  10.749
92004W        W65072  42.933   3.311   5.135
92005W        W65073   0.254  19.540   4.145
92006W        W65074   4.209  33.512   1.758
92007W        W65075  41.039  10.843  14.003
92008W        W65076  10.653  19.570   4.331
92009W        W65077  20.960   8.733  12.711
92010W        W65078   0.843  20.304   2.253
92011W        W65079  44.841  17.789   3.228
92012W        W65080  27.368  18.512  11.930
92013W        W65081   6.830   9.771   4.617
92014W        W65082  42.048  38.061  13.661
92015W        W65083  42.372  12.650  11.860
92016W        W65084   4.802  22.109   3.624
92017W        W65085   4.456   5.684  12.779
92018W        W65086  34.403   9.342  11.939
92019W        W65087   8.211  29.147  10.652
92020W        W65088  24.396  43.014  14.679
92021W        W65089  25.194  32.628   1.726
92022W        W65090  20.926   4.027  11.503
92023W        W65091  36.320   8.234  13.985
92024W        W65092   1.993  16.263   0.953
92025W        W65093  30.616  27.265   1.398
92026W        W65094   0.772  28.154   4.681
92027W        W65095  35.299  10.357  14.907
92028W        W65096  14.617  27.147   2.154
92029W        W65097   2.678  43.798   3.861
92030W        W65098  29.354  28.038   2.829
92031W        W65099  42.142   5.558   1.093
92032W        W65100  11.802  29.864  11.074
92033W        W65101   1.168   6.971  13.302
92034W        W65102  19.061  20.311  14.443
92035W        W65103  30.002  18.830   2.022
92036W        W65104   4.351   4.488  10.720
92037W        W65105  21.029  12.764   4.686
92038W        W65106   2.493   4.739  14.101
92039W        W65107   8.288   3.395  14.257
92040W        W65108  11.207   2.381   4.480
92041W        W65109  22.191   2.021  13.991
92042W        W65110  22.039  33.157  14.276
92043W        W65111   5.259  30.687   1.866
92044W        W65112  33.396  23.473  10.305
92045W        W65113  33.979   3.463  12.022
92046W        W65114  14.694  11.394   2.711
92047W        W65115  14.629   2.744  12.472
92048W        W65116  11.200  26.517   5.051
92049W        W65117  19.541  13.081  13.304
92050W        W65118   8.675  37.415   2.293
92051W        W65119  30.009   5.313   4.019
92052W        W65120  40.886  14.936  12.035
92053W        W65121  33.170   2.813   0.132
92054W        W65122  20.336   9.806   4.561
92055W        W65123   7.673  13.735   2.208
92056W        W65124  35.878   8.312   4.137
92057W        W65125   6.616  34.398   2.599
92058W        W65126  43.813   7.244   3.073
92059W        W65127   4.787   9.123   4.596
92060W        W65128  29.668  42.786  12.601
92061W        W65129  41.712  19.547  13.894
92062W        W65130  10.149  29.435  14.386
92063W        W65131  43.752  14.764  12.859
92064W        W65132  37.844   3.472   5.137
92065W        W65133  41.402  31.311  14.317
92066W        W65134  19.310   9.272  14.340
92067W        W65135  20.150  14.217   0.463
92068W        W65136  44.879   9.903  13.963
92069W        W65137  18.492  30.139   2.683
92070W        W65138  21.531   8.783  11.511
92071W        W65139  42.711  23.092   0.791
92072W        W65140   2.795  17.568  12.364
92073W        W65141  39.716  19.486   0.032
92074W        W65142  13.636  30.191   0.242
92075W        W65143   1.328  11.609  12.472
92076W        W65144  43.056  21.536  11.581
92077W        W65145  10.171  20.462  11.537
92078W        W65146  10.380  25.771  11.000
92079W        W65147  23.097  23.732   4.305
92080W        W65148   7.458   6.180   4.902
92081W        W65149  44.976  18.402  12.029
92082W        W65150   7.957   8.364  13.865
92083W        W65151  32.490   6.772  13.781
92084W        W65152  31.126  30.413  12.540
92085W        W65153  13.950  37.936   0.318
92086W        W65154   1.296  16.158   2.137
92087W        W65155  18.230   6.898   3.195
92088W        W65156   9.639  43.492   1.887
92089W        W65157   7.938  44.279   2.376
92090W        W65158  28.177   5.289   3.732
92091W        W65159  31.361  36.170   2.711
92092W        W65160   9.372  26.373  12.044
92093W        W65161  24.906   7.357  12.553
92094W        W65162  28.985  26.400   4.548
92095W        W65163   8.370   2.892  12.304
92096W        W65164  24.869  37.908  11.020
92097W        W65165  44.317   8.361  12.411
92098W        W65166   1.088  18.535   3.644
92099W        W65167   2.495   0.374   2.377
92100W        W65168   9.378  34.169   2.878
92101W        W65169  21.765  38.916  14.509
92102W        W65170  28.678  18.074  10.730
92103W        W65171  21.639   1.526   1.690
92104W        W65172  21.639  15.374   0.920
92105W        W65173  41.867  40.907   0.951
92106W        W65174   1.758  32.433   2.796
92107W        W65175   0.230  42.336  10.697
92108W        W65176   0.255  35.081  14.839
92109W        W65177  26.397   2.228   1.849
92110W        W65178  40.449   0.916   4.577
92111W        W65179   4.290   9.587   1.901
92112W        W65180  29.844  21.921   4.697
92113W        W65181   5.213   0.719   2.550
92114W        W65182  24.735  29.686  10.749
92115W        W65183  34.430  39.009   0.531
92116W        W65184  18.638  21.019  14.232
92117W        W65185   9.353  35.683   4.117
92118W        W65186   9.968  27.004  13.411
92119W        W65187  34.694   4.274  11.003
92120W        W65188  27.325  12.188  10.298
92121W        W65189  26.542  23.032  12.678
92122W        W65190  43.776  22.430   0.256
92123W        W65191  31.817  34.132  11.322
92124W        W65192  24.369  33.023   1.914
92125W        W65193  24.144   2.209   0.506
92126W        W65194  27.977  19.764  12.029
92127W        W65195  22.724  18.228  13.456
92128W        W65196  31.439  43.788   0.547
92129W        W65197  42.421  30.682   2.458
92130W        W65198  41.441  28.503   2.196
92131W        W65199  21.316   9.205   1.331
92132W        W65200  34.013  30.922  10.508
92133W        W65201  11.843  38.884  14.357
92134W        W65202  37.648  32.603  11.667
92135W        W65203  15.223  29.713   0.904
92136W        W65204  11.144  15.371  11.723
92137W        W65205  43.265  31.855   0.929
92138W        W65206  25.035  14.744   1.881
92139W        W65207   2.875  44.839  12.922
92140W        W65208  28.500  13.150  13.322
92141W        W65209  28.130  42.202  10.980
92142W        W65210  14.093  43.432  10.646
92143W        W65211   2.321  11.266   1.997
92144W        W65212  22.264  15.568  13.433
92145W        W65213  10.360  32.080   3.272
92146W        W65214  26.549  12.193  14.840
92147W        W65215  21.572  11.298   1.942
92148W        W65216   4.970  19.778   0.991
92149W        W65217  34.604   8.271  10.765
92150W        W65218  40.083  40.452  14.786
92151W        W65219  43.016   7.561  11.744
92152W        W65220   1.438  36.961   0.919
92153W        W65221  33.342  19.520  14.805
92154W        W65222   8.102  30.258   0.774
92155W        W65223  14.766  44.036   2.297
92156W        W65224  29.107  35.996  10.481
92157W        W65225   0.286   0.783  12.263
92158W        W65226  18.687  31.152  11.023
92159W        W65227  22.633   6.250   1.205
92160W        W65228   8.408  33.245   0.726
92161W        W65229  34.024   8.812   0.262
92162W        W65230  12.641  15.291  12.009
92163W        W65231  28.841  24.965  11.102
92164W        W65232  30.067  22.285  10.706
92165W        W65233  18.013  21.059   3.196
92166W        W65234  18.776  21.035   2.747
92167W        W65235  33.943   3.954  10.978
92168W        W65236  40.894  17.598   4.721
92169W        W65237  27.227   5.876  11.909
92170W        W65238  40.061  10.912  12.203
92171W        W65239   0.009  25.893   1.756
92172W        W65240  19.117   3.051  14.348
92173W        W65241   3.743  19.112  14.625
92174W        W65242  41.012  14.598  14.317
92175W        W65243  26.725  35.517  13.303
92176W        W65244  31.327  41.932  10.708
92177W        W65245   0.325  27.709  13.143
92178W        W65246  22.613  38.583  11.316
92179W        W65247  42.899  33.679   1.714
92180W        W65248  27.221   4.710   3.719
92181W        W65249  34.183  33.156   0.760
92182W        W65250  27.649  33.545  12.527
92183W        W65251  28.063  25.745   0.730
92184W        W65252  28.119  29.302   3.976
92185W        W65253  18.137   7.850  12.969
92186W        W65254  13.188  35.963  14.624
92187W        W65255   2.988  20.591  12.637
92188W        W65256  39.407  37.890  11.896
92189W        W65257  15.199  38.874  13.616
92190W        W65258  41.502   5.854  11.485
92191W        W65259  25.271   0.847   2.823
92192W        W65260  40.556  12.728   4.062
92193W        W65261  15.673   3.915   2.232
92194W        W65262  28.684   7.419  14.427
92195W        W65263  14.310   2.510   1.496
92196W        W65264  44.988  23.175  10.592
92197W        W65265   7.390  19.259   2.525
92198W        W65266  29.400  23.144  14.746
92199W        W65267  25.660  34.033   3.835
92200W        W65268  24.116   3.886   2.200
92201W        W65269  43.878   5.238   3.076
92202W        W65270  23.680   1.662  12.525
92203W        W65271  39.264  19.512   3.560
92204W        W65272   6.893   8.769  11.335
92205W        W65273  41.035  38.980  14.402
92206W        W65274  18.082  26.014  12.799
92207W        W65275   4.256  10.663   2.710
92208W        W65276  32.577  40.523  11.649
92209W        W65277  44.228  13.817  14.411
92210W        W65278  30.164  43.348  11.619
92211W        W65279  37.408  28.031   5.111
92212W        W65280  36.177   0.092  10.302
92213W        W65281  19.729  20.591  12.508
92214W        W65282  26.161  33.317  12.583
92215W        W65283  34.028  43.495   4.171
92216W        W65284  42.866  25.161   1.172
92217W        W65285  37.918  43.874  12.547
92218W        W65286  19.796  44.788   5.051
92219W        W65287  15.285  30.447   4.102
92220W        W65288   6.911  20.017  11.876
92221W        W65289  36.350   4.367   0.946
92222W        W65290  37.636  27.379   5.157
92223W        W65291  12.018  38.370  12.581
92224W        W65292   4.911  23.970   1.912
92225W        W65293  38.577  31.117   3.164
92226W        W65294  13.066  39.790  11.149
92227W        W65295  15.723   9.643  11.570
92228W        W65296  20.612  28.981   4.929
92229W        W65297  23.278  19.048  13.592
92230W        W65298   9.366  14.148   1.775
92231W        W65299  34.103  31.899   1.854
92232W        W65300  18.691  17.754  13.326
92233W        W65301  10.267  44.041   1.914
92234W        W65302  10.253   3.951  14.306
92235W        W65303  18.176  20.623   2.439
92236W        W65304   9.367  18.824   3.303
92237W        W65305  40.418  15.917   4.199
92238W        W65306  37.354  35.810  13.783
92239W        W65307   1.357  31.155  12.890
92240W        W65308  39.517  24.620   0.359
92241W        W65309  31.153   5.259  11.460
92242W        W65310  17.752  32.263  11.982
92243W        W65311  40.055  17.272   4.049
92244W        W65312  27.518  31.853  10.978
92245W        W65313  26.834   8.764  14.876
92246W        W65314   8.858   5.369  13.528
92247W        W65315   2.405  21.463  14.963
92248W        W65316  34.390  40.504  12.039
92249W        W65317  22.252  41.095  13.908
92250W        W65318   6.063  35.864   0.487
92251W        W65319  34.501  27.717  14.826
92252W        W65320  17.058  16.266  10.031
92253W        W65321  26.428  44.801  12.966
92254W        W65322   0.128   7.676  13.590
92255W        W65323   9.222  25.702   0.833
92256W        W65324   0.030  27.035  11.992
92257W        W65325  21.744   0.209   3.068
92258W        W65326  27.510  37.528  10.707
92259W        W65327  36.102  40.479   0.437
92260W        W65328  26.064   3.373  14.671
92261W        W65329  39.383  35.930   1.677
92262W        W65330  39.944   5.500   9.919
92263W        W65331  26.949  30.996   2.334
92264W        W65332  33.842  26.352   3.649
92265W        W65333  39.804  44.457  14.975
92266W        W65334  12.307  32.846  12.606
92267W        W65335  40.827  12.566   2.836
92268W        W65336  30.110  22.754   2.623
92269W        W65337   9.563  19.293   4.262
92270W        W65338  20.146  37.552   0.835
92271W        W65339  31.454  44.689   4.161
92272W        W65340  12.234  31.920  14.881
92273W        W65341  43.319  19.024   2.464
92274W        W65342  43.561  28.167  14.582
92275W        W65343   5.640  26.969  14.561
92276W        W65344  15.145  43.979  12.163
92277W        W65345  27.658  36.551   2.755
92278W        W65346  40.434   9.342   1.807
92279W        W65347  17.669  38.395  14.575
92280W        W65348  13.853  20.028  12.826
92281W        W65349  24.582   2.404   4.610
92282W        W65350  26.303  32.964  13.512
92283W        W65351  42.156  14.901   0.459
92284W        W65352  23.040  34.152  14.279
92285W        W65353   5.805   9.826  14.871
92286W        W65354   1.409  39.791   3.329
92287W        W65355   3.413  27.462   3.559
92288W        W65356  11.517   1.914   0.856
92289W        W65357   8.124  28.650  10.538
92290W        W65358  38.907  39.640   4.086
92291W        W65359   1.305   8.336   4.561
92292W        W65360   5.177  19.756   4.838
92293W        W65361  44.046  35.358   4.980
92294W        W65362  42.076  36.992   2.281
92295W        W65363  23.988   4.051   4.571
92296W        W65364  39.809  30.479   0.784
92297W        W65365  44.573  28.675   0.715
92298W        W65366  34.660  23.738   1.639
92299W        W65367  16.850  10.070  13.591
92300W        W65368  22.306  39.941   1.319
92301W        W65369  44.347   4.896   4.178
92302W        W65370  20.640  30.945   3.243
92303W        W65371   4.269  20.726  10.808
92304W        W65372  41.368  35.321  12.870
92305W        W65373  29.986  17.618  13.483
92306W        W65374  16.254  23.243   0.355
92307W        W65375  37.869   1.946  11.409
92308W        W65376   3.818  18.146  14.927
92309W        W65377   4.240   2.315  11.601
92310W        W65378  11.182   5.747   2.346
92311W        W65379   7.775  10.251  11.256
92312W        W65380  24.683  17.174   1.233
92313W        W65381   6.960  23.752   2.843
92314W        W65382  30.582  25.941  11.604
92315W        W65383  13.874  31.117  14.073
92316W        W65384  27.459  10.698  13.395
92317W        W65385  32.511  22.228  11.922
92318W        W65386  15.149  35.938  10.838
92319W        W65387  37.470  19.256  14.884
92320W        W65388  14.886  41.873  14.011
92321W        W65389  15.575  30.607  10.621
92322W        W65390  30.782  44.655  12.903
92323W        W65391   4.462   9.122   3.676
92324W        W65392  33.776   5.754  12.007
92325W        W65393  20.499  27.165   3.228
92326W        W65394  43.874  31.986  14.351
92327W        W65395   4.770  41.556   1.203
92328W        W65396   5.416  31.210  14.386
92329W        W65397  32.396  29.392   2.414
92330W        W65398  10.730  27.215   2.311
92331W        W65399   8.286  38.539  12.574
92332W        W65400  23.525  41.338   3.154
92333W        W65401  40.959   0.737   1.234
92334W        W65402  10.210  19.272   0.930
92335W        W65403  39.365  29.434   0.728
92336W        W65404  40.780  41.042  12.059
92337W        W65405  40.748   7.388  11.496
92338W        W65406  34.734   4.672   2.853
92339W        W65407  17.127  14.579   4.156
92340W        W65408  12.740  10.686  13.018
92341W        W65409  25.031  42.965  12.888
92342W        W65410  43.736  15.568  11.029
92343W        W65411   0.319   2.933   2.866
92344W        W65412   2.854  26.138  13.624
92345W        W65413   1.573  33.417  13.053
92346W        W65414  28.090  29.288  13.008
92347W        W65415  36.806  21.047  14.941
92348W        W65416  13.759  10.820   1.804
92349W        W65417  17.718   8.550  12.306
92350W        W65418  28.545  12.086   1.617
92351W        W65419  16.753  27.641  12.089
92352W        W65420  32.634   9.195  10.725
92353W        W65421  10.122  39.611  11.081
92354W        W65422  13.040  14.018   0.885
92355W        W65423  31.246  41.028  11.904
92356W        W65424  11.760  30.468   2.251
92357W        W65425  27.653   8.108   1.383
92358W        W65426  31.512  33.929  11.695
92359W        W65427  30.376   4.798   4.671
92360W        W65428  23.221  43.639   0.222
92361W        W65429   0.904  10.517   3.939
92362W        W65430   8.630   2.777   1.187
92363W        W65431   0.907  23.902   0.375
92364W        W65432   8.392  43.344   2.333
92365W        W65433   5.408  36.131   2.471
92366W        W65434  42.881   3.697   3.931
92367W        W65435  13.946  10.171  13.226
92368W        W65436  21.550  19.268  11.893
92369W        W65437  31.612  21.998   2.675
92370W        W65438  28.676  25.739  10.793
92371W        W65439  23.101  35.132   4.614
92372W        W65440   1.308  28.201  13.113
92373W        W65441  11.318  19.546  13.067
92374W        W65442  27.641   0.530  10.716
92375W        W65443   3.708  31.452   2.699
92376W        W65444   2.791  29.320  12.961
92377W        W65445  34.027  16.975  12.088
92378W        W65446   1.784   3.217   4.711
92379W        W65447   6.511  33.204  10.787
92380W        W65448  40.022  12.045   2.797
92381W        W65449  11.391  22.353   0.008
92382W        W65450  14.402   7.689  10.628
92383W        W65451  32.269  10.275   4.013
92384W        W65452  27.743  30.151  10.717
92385W        W65453  39.883   6.748   2.184
92386W        W65454   9.815  26.135   4.588
92387W        W65455   0.861  31.814  13.399
92388W        W65456  14.900  28.117   5.065
92389W        W65457  41.035  28.569  10.598
92390W        W65458   0.830  31.194   1.973
92391W        W65459  29.544  31.600  10.725
92392W        W65460  35.412   0.864  12.041
92393W        W65461  34.897  10.215   1.230
92394W        W65462  13.092  35.256  11.875
92395W        W65463   4.721  23.742  11.248
92396W        W65464   1.284   4.657   4.072
92397W        W65465  34.110  44.423  14.849
92398W        W65466  10.053  12.924  10.953
92399W        W65467   0.681  34.422  10.690
92400W        W65468  33.411  24.818   0.280
92401W        W65469  37.545  35.499  11.595
92402W        W65470  44.715  22.659  10.469
92403W        W65471  31.479  28.095   4.830
92404W        W65472  20.641  22.502  13.493
92405W        W65473   6.279   8.879  13.839
92406W        W65474  31.208   4.912   0.886
92407W        W65475  22.574  24.623  11.972
92408W        W65476   4.390  14.553   0.517
92409W        W65477   8.242  12.283  11.077
92410W        W65478  12.323   4.867   0.353
92411W        W65479  35.495  41.861  10.630
92412W        W65480  10.699  23.541   2.926
92413W        W65481   5.939  40.995  13.967
92414W        W65482   5.923  32.051   3.077
92415W        W65483   7.451  38.730  13.515
92416W        W65484  11.872   4.440  10.985
92417W        W65485  33.009  41.885   4.582
92418W        W65486  12.317  12.935  12.818
92419W        W65487   6.719  29.504   2.410
92420W        W65488  27.548  36.284   3.686
92421W        W65489  25.717  22.330  14.534
92422W        W65490  30.397   3.900   0.543
92423W        W65491  12.446  28.583   3.085
92424W        W65492  21.029  19.690  10.709
92425W        W65493  44.938   1.398   2.227
92426W        W65494  35.178  16.166   4.094
92427W        W65495   1.420   3.006   1.820
92428W        W65496  16.790  21.162  10.458
92429W        W65497  22.339  22.210   4.102
92430W        W65498  39.394  35.093  13.180
92431W        W65499   5.187  32.368  11.662
92432W        W65500   5.396  11.898  14.293
92433W        W65501  24.244  28.992   4.637
92434W        W65502   0.239   5.276   1.680
92435W        W65503   4.634  23.098  12.911
92436W        W65504  32.366  40.452   2.903
92437W        W65505  11.107  27.165  13.005
92438W        W65506  11.671  20.921   2.352
92439W        W65507  30.061  21.232   1.817
92440W        W65508   5.187  35.159   0.311
92441W        W65509  36.812  20.259   3.262
92442W        W65510  41.789   0.085   9.767
92443W        W65511  18.508  30.087   0.259
92444W        W65512   8.277  33.217   3.824
92445W        W65513  19.304   7.737   2.797
92446W        W65514   0.372   7.330  14.372
92447W        W65515  26.810  22.610   3.813
92448W        W65516  28.089  17.206   4.393
92449W        W65517   2.550  42.034   1.175
92450W        W65518  22.684  39.104  14.415
92451W        W65519  14.282  42.881  11.979
92452W        W65520  14.527  18.130  12.358
92453W        W65521  26.137  13.669   4.587
92454W        W65522  35.972  14.351  14.344
92455W        W65523   4.206   3.513   4.147
92456W        W65524  30.201  38.523  12.820
92457W        W65525   2.918  38.390  12.759
92458W        W65526  28.077  23.292  11.971
92459W        W65527  41.820  18.265  12.458
92460W        W65528  13.757  24.591  10.601
92461W        W65529  23.281   3.741  12.980
92462W        W65530  42.481  36.576  14.800
92463W        W65531  13.575  16.503   4.018
92464W        W65532  31.686  41.848   4.156
92465W        W65533  41.993  18.817   1.229
92466W        W65534  40.014   3.377  13.884
92467W        W65535  13.183  34.343  11.638
92468W        W65536  43.942  35.873   1.717
92469W        W65537  15.077  39.985  11.856
92470W        W65538  35.357  14.842   1.427
92471W        W65539  24.454  17.935   3.663
92472W        W65540  42.376  36.949  12.475
92473W        W65541  16.678  20.114  12.978
92474W        W65542  22.494  26.731  11.507
92475W        W65543  36.826  26.168  11.406
92476W        W65544   1.460  39.913   0.408
92477W        W65545  12.324  34.588   0.410
92478W        W65546  10.884  12.179   2.395
92479W        W65547  32.095  33.459  11.798
92480W        W65548  29.047  44.041   3.803
92481W        W65549   3.388  21.961   2.819
92482W        W65550  24.948  28.655  12.039
92483W        W65551  33.523   6.193  12.006
92484W        W65552   3.294  39.865  12.521
92485W        W65553   6.645   9.442   4.983
92486W        W65554   3.436  16.636   3.834
92487W        W65555  21.493  18.751  12.502
92488W        W65556   6.552  40.351  10.197
92489W        W65557   7.842  32.917  14.338
92490W        W65558  16.677   4.785  11.899
92491W        W65559  12.064   8.969  12.305
92492W        W65560  17.559  15.732   1.400
92493W        W65561  28.033  32.354  14.299
92494W        W65562   2.751   6.971   4.529
92495W        W65563  28.533   8.920   4.267
92496W        W65564  36.330  14.573   1.186
92497W        W65565  44.442  11.167   1.849
92498W        W65566   6.473  19.828  10.977
92499W        W65567  16.627  18.530  13.858
92500W        W65568  26.994  25.003   3.715
92501W        W65569  37.901  17.724  12.612
92502W        W65570  42.235  38.257   3.142
92503W        W65571   8.747  41.553   5.228
92504W        W65572  17.543  29.457  13.104
92505W        W65573   6.333  44.887  14.244
92506W        W65574  42.724   3.671  11.581
92507W        W65575   5.883   4.693  12.444
92508W        W65576  22.677  31.999   4.346
92509W        W65577  28.160  25.190   5.131
92510W        W65578  20.946   8.013  13.973
92511W        W65579  29.570  30.479   0.293
92512W        W65580  29.903  35.993  13.958
92513W        W65581  10.650  11.246   3.800
92514W        W65582  39.108  38.397  10.591
92515W        W65583   0.541  33.488   4.398
92516W        W65584  17.210   0.889   4.996
92517W        W65585  27.723  11.233  11.624
92518W        W65586  38.647  32.162  11.157
92519W        W65587  18.561   5.375   3.162
92520W        W65588  13.238  37.152   0.230
92521W        W65589   4.037  10.753   1.410
92522W        W65590   1.801   4.399  12.362
92523W        W65591  22.211   2.107  10.993
92524W        W65592  11.807   6.414   4.595
92525W        W65593  23.062  11.838   2.674
92526W        W65594  31.122  44.196   0.406
92527W        W65595  14.133  30.506   4.182
92528W        W65596   3.607  31.420  11.545
92529W        W65597  15.656  29.375  11.081
92530W        W65598  32.582   1.840   5.098
92531W        W65599   1.816  34.989  12.051
92532W        W65600   7.416   3.403  12.797
92533W        W65601  35.785  28.191  12.416
92534W        W65602  33.335   7.353   5.160
92535W        W65603  10.861  18.389   1.038
92536W        W65604  21.988   3.380   2.087
92537W        W65605   1.321   8.723  13.892
92538W        W65606  10.082  26.256   3.750
92539W        W65607  17.338  31.851   4.079
92540W        W65608  15.660  30.899   1.798
92541W        W65609  37.385  24.075  10.686
92542W        W65610   0.861  19.693  10.630
92543W        W65611  10.615  25.075  12.441
92544W        W65612  18.617  44.033  13.510
92545W        W65613  34.865  36.400  14.727
92546W        W65614  13.068   7.901  13.826
92547W        W65615  27.477  31.707  12.520
92548W        W65616   3.394   6.701   4.923
92549W        W65617  41.792  36.459   4.750
92550W        W65618  21.806  28.171  12.386
92551W        W65619  25.058  34.189   1.236
92552W        W65620   9.261   5.182  12.938
92553W        W65621  27.964  21.141   4.165
92554W        W65622  25.299  36.872  11.665
92555W        W65623   0.321   8.553  13.657
92556W        W65624  15.206  24.095   2.854
92557W        W65625   1.217  38.852   1.829
92558W        W65626  22.151  30.917  12.386
92559W        W65627  18.086  31.459   4.367
92560W        W65628  26.162  32.438   4.207
92561W        W65629  12.118  10.266  12.026
92562W        W65630  36.900  36.955  11.929
92563W        W65631   7.268  23.156  10.717
92564W        W65632  32.000  28.498  14.992
92565W        W65633   1.267  17.407  14.075
92566W        W65634  36.988  32.141   2.002
92567W        W65635   2.155  35.983  11.914
92568W        W65636   9.366  18.978  13.050
92569W        W65637  44.400  12.197  12.862
92570W        W65638  38.090  16.357   0.490
92571W        W65639  39.105   9.518  12.311
92572W        W65640  42.827  26.920  11.922
92573W        W65641  31.455  36.129  13.077
92574W        W65642  43.007  12.089  13.893
92575W        W65643  27.406  23.202   0.561
92576W        W65644  22.060  22.196  11.983
92577W        W65645   6.303   5.229  10.175
92578W        W65646  11.254  25.939  10.629
92579W        W65647   8.415  41.922   0.287
92580W        W65648  20.262  43.538  13.991
92581W        W65649  33.799  25.552  12.530
92582W        W65650  10.928  33.584  11.487
92583W        W65651  13.750  27.021   3.360
92584W        W65652   0.870   4.340   0.395
92585W        W65653  41.974   4.965   1.800
92586W        W65654  31.345  12.141  11.551
92587W        W65655  35.710  13.406   0.992
92588W        W65656   7.352  14.555   1.819
92589W        W65657  34.461   0.572  12.091
92590W        W65658  26.226  36.974   4.688
92591W        W65659   8.893  17.702   1.296
92592W        W65660  16.066   7.463   2.781
92593W        W65661  39.923  26.168  11.730
92594W        W65662  40.302  29.542  13.926
92595W        W65663  21.145  14.052   4.488
92596W        W65664   5.943  37.944   2.902
92597W        W65665   8.753  18.795  12.578
92598W        W65666  21.716  35.858   0.393
92599W        W65667   9.288  28.246   1.664
92600W        W65668  44.207  12.201   3.082
92601W        W65669  26.105  40.487  14.462
92602W        W65670  44.789  13.882   5.061
92603W        W65671  25.295   3.134   1.986
92604W        W65672  31.359  20.203   1.757
92605W        W65673   7.123   9.345   4.674
92606W        W65674  18.495  29.577  10.703
92607W        W65675  36.122   0.368   0.124
92608W        W65676  18.327  16.615  10.660
92609W        W65677   0.354  29.380  13.937
92610W        W65678   0.298  42.324  11.660
92611W        W65679  43.039  25.016   4.112
92612W        W65680  33.747  43.289   0.673
92613W        W65681   7.296  15.656   1.331
92614W        W65682  13.645  20.042   0.683
92615W        W65683  39.285  19.173   1.519
92616W        W65684  43.826  29.611   1.761
92617W        W65685  31.987  13.043   3.185
92618W        W65686  10.936  21.673  10.953
92619W        W65687  30.176  25.753   2.780
92620W        W65688  32.007  12.759   4.662
92621W        W65689  33.154  10.894  13.889
92622W        W65690  20.672   8.033   4.667
92623W        W65691  38.371  13.381   0.672
92624W        W65692  32.454  39.118  12.291
92625W        W65693  43.234  17.538  13.338
92626W        W65694  11.271   9.798   0.291
92627W        W65695  12.146   8.822   1.945
92628W        W65696  17.828  26.382   2.623
92629W        W65697  22.540  33.851   0.534
92630W        W65698  38.420  41.467  14.075
92631W        W65699  21.202  13.787   4.016
92632W        W65700  42.845  41.969  12.828
92633W        W65701   8.853  41.533   1.624
92634W        W65702  15.233  28.278   1.797
92635W        W65703  18.832   9.274  13.490
92636W        W65704  38.595  31.467  12.556
92637W        W65705  28.703  14.199  14.175
92638W        W65706  28.765  42.264  14.804
92639W        W65707  13.624  31.451   4.135
92640W        W65708  29.016  29.196   2.345
92641W        W65709  32.087  30.709   2.282
92642W        W65710  28.571  41.385   2.943
92643W        W65711  38.872  10.141  14.666
92644W        W65712  16.766  34.416  11.518
92645W        W65713  19.593  31.551   0.346
92646W        W65714  31.663  22.359   1.081
92647W        W65715  29.198  11.275  14.511
92648W        W65716  30.629  31.342  12.198
92649W        W65717  41.022  39.821   2.325
92650W        W65718   5.699  31.010  12.874
92651W        W65719  36.910   8.865   4.715
92652W        W65720  20.852  43.848   4.232
92653W        W65721  33.063  19.551  11.593
92654W        W65722  42.487  32.011  12.406
92655W        W65723  14.338   8.241   4.183
92656W        W65724  11.454  24.938  10.662
92657W        W65725  31.039  18.067   2.716
92658W        W65726  14.626   8.619  14.193
92659W        W65727  16.802  26.059   2.245
92660W        W65728  36.548  10.920  11.743
92661W        W65729  37.280  40.029   4.647
92662W        W65730  23.475   4.302  10.973
92663W        W65731   9.662  23.178   1.954
92664W        W65732  20.122   5.183   3.579
92665W        W65733  28.060  35.609  11.573
92666W        W65734   7.714   1.230  13.428
92667W        W65735  12.091  39.914  14.313
92668W        W65736   8.293  39.420  12.574
92669W        W65737   3.835  10.743   2.245
92670W        W65738  12.088  16.952   4.989
92671W        W65739  28.630   3.301  13.093
92672W        W65740  19.109  12.295  11.976
92673W        W65741   6.757  31.515   3.223
92674W        W65742  44.911  14.678   1.648
92675W        W65743  10.826  22.961  13.813
92676W        W65744  22.083  21.678  12.830
92677W        W65745   6.596  42.065  11.673
92678W        W65746  24.753   7.131  12.985
92679W        W65747   8.183  43.097  12.026
92680W        W65748   7.050  29.031   2.720
92681W        W65749   3.275   5.921   0.542
92682W        W65750  32.569  24.185   2.224
92683W        W65751   6.640  32.546   4.124
92684W        W65752  33.473  17.330   2.600
92685W        W65753  21.201  10.539   1.498
92686W        W65754  27.148  23.126   1.153
92687W        W65755  21.761  42.906  11.853
92688W        W65756   4.717  26.476  10.568
92689W        W65757  16.117   4.745   4.045
92690W        W65758  12.564   6.945   2.878
92691W        W65759  25.949   8.589   4.276
92692W        W65760  26.621  38.991  11.198
92693W        W65761  15.322  39.579   0.853
92694W        W65762  32.192  34.812  10.651
92695W        W65763  20.810  30.716   1.399
92696W        W65764  36.994  34.526   1.870
92697W        W65765  25.113  42.543   0.712
92698W        W65766   7.225  14.808   3.876
92699W        W65767  19.973  36.252  11.625
92700W        W65768  38.793  22.318  11.038
92701W        W65769  23.491   7.753  10.478
92702W        W65770   9.754  16.772  14.354
92703W        W65771  12.077   0.563   0.638
92704W        W65772  35.940  27.749   0.711
92705W        W65773  25.917  25.250   1.947
92706W        W65774  34.421  19.507   1.494
92707W        W65775  43.478   0.908   1.441
92708W        W65776  34.077  37.036   4.188
92709W        W65777  28.624  16.581   3.649
92710W        W65778   4.358  36.232   4.786
92711W        W65779  15.648   9.188  12.833
92712W        W65780  12.799  28.503   4.123
92713W        W65781  24.822   3.794   2.841
92714W        W65782  32.495  34.358   3.677
92715W        W65783   7.575   8.221   3.731
92716W        W65784   1.372  21.008   0.497
92717W        W65785  21.339  26.966  11.366
92718W        W65786  41.388  27.198  13.128
92719W        W65787  31.599  21.005  13.370
92720W        W65788  33.848  11.951   4.117
92721W        W65789  43.622  14.160  11.233
92722W        W65790  32.450  30.418   4.035
92723W        W65791  43.406  40.405   4.612
92724W        W65792   5.217   3.623   1.234
92725W        W65793  13.241  37.933  13.380
92726W        W65794   5.730  25.679   1.168
92727W        W65795  20.921  40.061   4.210
92728W        W65796   8.342   8.089  11.198
92729W        W65797  43.232  29.394  14.830
92730W        W65798  15.718   3.016   3.367
92731W        W65799  32.021   8.642   4.610
92732W        W65800   2.889   6.868   2.575
92733W        W65801  14.258   3.714   3.769
92734W        W65802  43.853  38.789   1.620
92735W        W65803  42.962  16.816   1.416
92736W        W65804  26.054  39.520   5.116
92737W        W65805  44.485  29.554   3.138
92738W        W65806  14.696  31.347   2.383
92739W        W65807  14.835  22.020   0.682
92740W        W65808   8.649  13.148   4.912
92741W        W65809   9.286   6.536  11.985
92742W        W65810  25.338   8.159  13.413
92743W        W65811   0.845  17.128   3.722
92744W        W65812  21.618  37.825   0.883
92745W        W65813  43.501  42.515  14.722
92746W        W65814   4.100   3.753   0.977
92747W        W65815  40.998   4.721  13.934
92748W        W65816  44.866  38.107   2.388
92749W        W65817  11.372   7.658   4.271
92750W        W65818  28.622  31.496   2.134
92751W        W65819  44.997  19.302   0.360
92752W        W65820  14.923  17.599  13.950
92753W        W65821  32.887  23.168  13.914
92754W        W65822  39.823  21.299  13.033
92755W        W65823  28.266   3.839   1.149
92756W        W65824  25.018   4.833   3.047
92757W        W65825   9.188  43.962  12.057
92758W        W65826  27.118   7.953  11.986
92759W        W65827  24.665  28.493  14.322
92760W        W65828  34.170  18.217  10.896
92761W        W65829  32.442   9.808  14.291
92762W        W65830  38.617  21.987   3.182
92763W        W65831  31.213  37.881   3.212
92764W        W65832  35.963  15.775   3.918
92765W        W65833  29.893  39.302   0.376
92766W        W65834  35.906  42.018   4.216
92767W        W65835   3.167  13.297  12.968
92768W        W65836   6.801  14.904  11.409
92769W        W65837  37.425   0.808   3.244
92770W        W65838  43.438  34.655   0.513
92771W        W65839  12.622  17.516  14.924
92772W        W65840  14.441   7.405   2.378
92773W        W65841  23.088  16.768   1.530
92774W        W65842  17.387  28.988  13.395
92775W        W65843   7.723  12.452  13.971
92776W        W65844  35.377  35.241  14.022
92777W        W65845  26.050  14.194  12.532
92778W        W65846  43.932  41.499   1.001
92779W        W65847   2.660   7.847   0.463
92780W        W65848  38.104  26.621   5.053
92781W        W65849   0.715   8.319  10.204
92782W        W65850  40.040  33.044  12.435
92783W        W65851  42.328   0.413  10.889
92784W        W65852   6.061   6.419   5.394
92785W        W65853  13.211  27.862  13.773
92786W        W65854  28.284  13.196   4.146
92787W        W65855  26.794  11.153  10.681
92788W        W65856  43.547  24.719   0.275
92789W        W65857   3.787   3.750   1.425
92790W        W65858   9.559   4.843  14.512
92791W        W65859  22.786  44.213   3.635
92792W        W65860  27.513  30.017   0.813
92793W        W65861  15.042   2.494  13.317
92794W        W65862  27.141  34.908  13.852
92795W        W65863  20.483   7.277   1.314
92796W        W65864  15.554  29.907   1.762
92797W        W65865  39.385  31.602   1.389
92798W        W65866  44.406   7.118  12.085
92799W        W65867  31.466   7.221  12.120
92800W        W65868  20.548  33.333   2.664
92801W        W65869  12.528   3.186   3.432
92802W        W65870   3.431  12.552  13.516
92803W        W65871  27.666  26.461  14.935
92804W        W65872  34.982  19.758   4.077
92805W        W65873  28.247  30.414   0.037
92806W        W65874  37.909  15.209   1.167
92807W        W65875  44.987  38.475  12.199
92808W        W65876  32.965  35.273   2.515
92809W        W65877  20.689   7.312   3.125
92810W        W65878   9.775  40.996  12.871
92811W        W65879  25.618  24.080   3.306
92812W        W65880  22.308  33.822  11.593
92813W        W65881   4.175  33.993  13.478
92814W        W65882  40.530  37.523  12.036
92815W        W65883  37.780   0.784   2.860
92816W        W65884   4.630  40.241   2.802
92817W        W65885  18.678  37.089   2.313
92818W        W65886  28.275  16.188   2.891
92819W        W65887  41.724  20.749   0.491
92820W        W65888  37.902  10.904  10.675
92821W        W65889   1.820  27.759  13.888
92822W        W65890  39.966  25.116   1.739
92823W        W65891  39.543  13.318  14.810
92824W        W65892  27.722  36.989  11.609
92825W        W65893  22.034   1.021   3.373
92826W        W65894   1.410  11.298   1.829
92827W        W65895  12.771  24.023   2.664
92828W        W65896  44.769  26.765  10.253
92829W        W65897   4.487  21.198  11.103
92830W        W65898  12.668  12.354   1.759
92831W        W65899   6.252  42.264  13.825
92832W        W65900  31.056   0.434  14.399
92833W        W65901  36.651  29.927  13.021
92834W        W65902  20.474  35.807  11.046
92835W        W65903  36.554   6.296   0.719
92836W        W65904  43.962  19.215  14.427
92837W        W65905  25.090   1.531   4.928
92838W        W65906  29.225  37.972  12.028
92839W        W65907   3.506  19.034   4.539
92840W        W65908  40.799  25.453  11.193
92841W        W65909   9.805  35.438   4.248
92842W        W65910  10.007  31.775   3.091
92843W        W65911   0.585   0.668   4.247
92844W        W65912  38.616  42.434  13.907
92845W        W65913  27.449  39.017  12.449
92846W        W65914  34.929  13.740   1.830
92847W        W65915  10.754   2.247  13.511
92848W        W65916   8.276  24.727  13.360
92849W        W65917  40.947  12.397  12.030
92850W        W65918  12.585  13.124   4.628
92851W        W65919  17.807  11.382   1.147
92852W        W65920  27.649   8.630   1.353
92853W        W65921  41.819  37.030   1.823
92854W        W65922  13.411  18.023  14.316
92855W        W65923  12.558  16.621   2.292
92856W        W65924  32.007  34.600   3.620
92857W        W65925  18.645  23.878  10.040
92858W        W65926  39.516  28.197   0.182
92859W        W65927  44.282  38.585   3.764
92860W        W65928   2.429  21.485  11.171
92861W        W65929   3.242  37.313  12.688
92862W        W65930  10.427  24.723  12.001
92863W        W65931  29.210  19.945   0.650
92864W        W65932  22.200  13.341  10.734
92865W        W65933  17.547  29.493  13.826
92866W        W65934  12.618  25.520   2.268
92867W        W65935  40.405  26.113   2.595
92868W        W65936  33.686  38.017   0.207
92869W        W65937   3.423  30.509   0.282
92870W        W65938   6.847   9.170   1.348
92871W        W65939  28.561  24.312  14.932
92872W        W65940  30.536  42.436   0.599
92873W        W65941  42.344  27.698  12.038
92874W        W65942  28.023  11.711  10.701
92875W        W65943   6.997   4.129  13.676
92876W        W65944  14.250  29.915  14.030
92877W        W65945  30.149  33.349   0.398
92878W        W65946  22.584   6.173  14.727
92879W        W65947   4.784  18.176   0.818
92880W        W65948   6.995  39.351  11.325
92881W        W65949  12.041  43.775   0.064
92882W        W65950  11.940   6.357   1.628
92883W        W65951  14.107  15.163   1.232
92884W        W65952  10.568   6.793   3.204
92885W        W65953   6.473   5.052   2.828
92886W        W65954  15.031   0.331  11.227
92887W        W65955  31.441   3.986  11.264
92888W        W65956  20.341  23.030   4.216
92889W        W65957  13.664   4.817  14.803
92890W        W65958  29.955  23.121   3.922
92891W        W65959  11.834   6.139   0.172
92892W        W65960  14.220  42.019   2.820
92893W        W65961  28.043  38.327  14.766
92894W        W65962  27.231  15.927   2.292
92895W        W65963  25.802  10.232   0.586
92896W        W65964  35.982  20.763  10.495
92897W        W65965  29.223  14.704   4.791
92898W        W65966   4.834  26.952   1.285
92899W        W65967  30.726  37.795  13.830
92900W        W65968   4.417  29.015  13.485
92901W        W65969  10.437   4.646   9.671
92902W        W65970  11.373  39.300  10.610
92903W        W65971  31.121  35.591  12.240
92904W        W65972  10.293  36.053   4.666
92905W        W65973  44.994   1.034   3.692
92906W        W65974  44.301   0.861   4.730
92907W        W65975  42.535  14.452   5.292
92908W        W65976  43.366  12.413   1.629
92909W        W65977  32.353   6.362   3.766
92910W        W65978  19.627   4.494   3.688
92911W        W65979  32.828   7.589  14.805
92912W        W65980  10.742  15.754  14.511
92913W        W65981  24.986  43.308  11.588
92914W        W65982  14.251   0.074   3.570
92915W        W65983  36.872   0.206   2.741
92916W        W65984  34.552  43.959  10.727
92917W        W65985  29.145  36.644   0.634
92918W        W65986  23.236  29.581   1.232
92919W        W65987  14.539  23.548  13.040
92920W        W65988   9.530  33.060  10.767
92921W        W65989  14.610  13.680   4.239
92922W        W65990  10.064  16.545   2.798
92923W        W65991  18.584  12.775  13.054
92924W        W65992  22.175  37.062  10.717
92925W        W65993  28.436  18.111   1.036
92926W        W65994   5.297  41.983  11.090
92927W        W65995  36.591  32.417  11.978
92928W        W65996  31.095  44.195  13.821
92929W        W65997  19.161   9.635   2.806
92930W        W65998  42.938  28.128  13.361
92931W        W65999   5.210  15.485  11.013
92932W        W66000   7.781  19.636  14.206
92933W        W66001   6.861  17.720   3.617
92934W        W66002  16.736  33.764   0.361
92935W        W66003  24.974  24.592  11.105
92936W        W66004  35.308  18.786  12.874
92937W        W66005  41.247  31.617   2.919
92938W        W66006  44.007  10.738  12.862
92939W        W66007  12.640   9.142   4.622
92940W        W66008  11.779   0.689   1.236
92941W        W66009  29.538  23.559  12.215
92942W        W66010   9.851  31.087   2.732
92943W        W66011  36.012  40.347  13.523
92944W        W66012   8.773  29.596  14.565
92945W        W66013  12.914  11.035   1.847
92946W        W66014  37.568   4.248   3.663
92947W        W66015  42.824  35.347   0.932
92948W        W66016   1.286  29.262   1.200
92949W        W66017  32.334  15.667   4.154
92950W        W66018  10.709  35.425   4.236
92951W        W66019  37.614   4.308   2.739
92952W        W66020  32.724  36.278  13.488
92953W        W66021   1.975  42.048   0.457
92954W        W66022  38.037  21.951  12.080
92955W        W66023  33.605  36.092  11.989
92956W        W66024  33.019  18.045  14.962
92957W        W66025  42.555   2.675  14.790
92958W        W66026  34.422  40.222  12.482
92959W        W66027  29.393  26.120  13.495
92960W        W66028  11.416  44.370   1.298
92961W        W66029  29.087  27.433   2.012
92962W        W66030  33.510  19.459   3.722
92963W        W66031  38.565  16.940  12.221
92964W        W66032  30.316  12.922   0.919
92965W        W66033  28.159  15.397  12.484
92966W        W66034  40.852  24.720  10.386
92967W        W66035  27.404   1.995   4.186
92968W        W66036   3.781  32.096  10.159
92969W        W66037  35.197   8.102   2.880
92970W        W66038  32.368   6.441   2.839
92971W        W66039  26.134  24.150   0.786
92972W        W66040  30.129  27.052   3.188
92973W        W66041  30.665   4.520   2.761
92974W        W66042  39.798  35.644  11.168
92975W        W66043   6.407   4.702   0.525
92976W        W66044   2.136   5.463  14.744
92977W        W66045  26.724  12.174   1.389
92978W        W66046  14.773   4.881   4.298
92979W        W66047  21.323  33.386   0.314
92980W        W66048  42.952  39.855   4.477
92981W        W66049  16.996  32.866  11.345
92982W        W66050  36.341  27.201   1.752
92983W        W66051   7.470  18.224  13.921
92984W        W66052  14.165  43.475  11.452
92985W        W66053  39.838  40.568  13.015
92986W        W66054  23.881   4.505   4.815
92987W        W66055  12.369  18.935  12.494
92988W        W66056  33.744  28.921   1.755
92989W        W66057  24.538  37.313   0.885
92990W        W66058   7.367   2.137  11.620
92991W        W66059  39.963   7.391   2.879
92992W        W66060   1.998  23.547   3.706
92993W        W66061  31.948  30.590  10.919
92994W        W66062  30.726  40.808  14.864
92995W        W66063  19.198  44.925   3.335
92996W        W66064   6.218  10.737  12.949
92997W        W66065  15.191   4.409   2.753
92998W        W66066   0.347  27.689   0.291
92999W        W66067  16.568  12.605   4.550
93000W        W66068  29.619  11.339  10.793
93001W        W66069   6.857   8.691  14.444
93002W        W66070  31.000  15.077   1.420
93003W        W66071   6.914   2.172   0.571
93004W        W66072  19.840  21.695  11.598
93005W        W66073  25.723  26.725  12.870
93006W        W66074  43.370  25.741  13.760
93007W        W66075  17.788  23.711  14.895
93008W        W66076  22.055   0.497  10.144
93009W        W66077  23.076  41.401  10.399
93010W        W66078  43.295  37.787  10.486
93011W        W66079  20.511  39.017  11.823
93012W        W66080  11.188  14.688  10.555
93013W        W66081   4.467   1.867  11.619
93014W        W66082  30.548  19.880  13.000
93015W        W66083  40.066  41.579  13.076
93016W        W66084   0.246  35.520   4.513
93017W        W66085  29.503  17.011  12.890
93018W        W66086  28.641  23.781   2.350
93019W        W66087  37.932  22.072  13.520
93020W        W66088  42.866  24.816   4.622
93021W        W66089   9.741  43.399  12.979
93022W        W66090  10.569  16.569  12.845
93023W        W66091  32.096  10.220  12.693
93024W        W66092   0.458  41.688   2.918
93025W        W66093  28.941  36.876  14.330
93026W        W66094  43.991  37.132  12.326
93027W        W66095   8.425  40.699  11.558
93028W        W66096  43.849  15.526  11.536
93029W        W66097  19.596  30.599   4.817
93030W        W66098  22.810  15.680  11.876
93031W        W66099   8.307  35.456  12.385
93032W        W66100  19.521   9.145  12.078
93033W        W66101  41.378   6.883  11.291
93034W        W66102  16.850  28.934   3.722
93035W        W66103  23.468  15.852  10.498
93036W        W66104  31.498  24.061   4.680
93037W        W66105  43.432  18.142   3.392
93038W        W66106  34.842   2.286  12.877
93039W        W66107  33.585  25.634   4.696
93040W        W66108  17.768  32.418  12.908
93041W        W66109   4.742  26.147  11.476
93042W        W66110  38.532  32.456   0.378
93043W        W66111   4.938  31.902   2.447
93044W        W66112   4.841  12.797  10.008
93045W        W66113   3.012  33.134  14.480
93046W        W66114  19.028  21.156   2.285
93047W        W66115  16.110  12.177   3.035
93048W        W66116  10.443  35.297  13.921
93049W        W66117  29.223   0.225  14.981
93050W        W66118  21.930  18.697  14.307
93051W        W66119   3.448  30.948   3.742
93052W        W66120   6.744  18.352  14.448
93053W        W66121  14.124  13.719  14.207
93054W        W66122  12.811  20.207  14.202
93055W        W66123  14.195  22.678   0.972
93056W        W66124   5.858  21.762  10.720
93057W        W66125  35.456  30.574   3.722
93058W        W66126  28.288  21.946  11.671
93059W        W66127   1.330  29.041  13.520
93060W        W66128   5.153  22.336   4.535
93061W        W66129  38.292  43.342   2.664
93062W        W66130  26.118  17.217   4.334
93063W        W66131  11.562  24.883  13.502
93064W        W66132  27.463   7.717  13.765
93065W        W66133  26.611  40.750   4.028
93066W        W66134   6.287   7.898   0.420
93067W        W66135  31.036  27.238   0.852
93068W        W66136  37.427  19.253   1.758
93069W        W66137  10.587  42.009   2.897
93070W        W66138  41.766  20.054   0.692
93071W        W66139   3.735  16.576   4.613
93072W        W66140   7.236  22.273   0.326
93073W        W66141  17.613  30.050   1.384
93074W        W66142  17.530  19.471   2.822
93075W        W66143  12.550   3.731  10.943
93076W        W66144   8.464   6.285   2.859
93077W        W66145  30.028  34.620   4.888
93078W        W66146  11.724  16.767  13.818
93079W        W66147  37.934  42.981   0.269
93080W        W66148  13.052   0.712   2.835
93081W        W66149   5.376  16.780  10.671
93082W        W66150  26.398  35.357  14.460
93083W        W66151   2.759   3.364   3.199
93084W        W66152  44.903  13.008   3.173
93085W        W66153  10.209  27.979   4.641
93086W        W66154   5.764  32.593   3.733
93087W        W66155  38.066   5.670  14.553
93088W        W66156  40.450  32.870   3.350
93089W        W66157  35.849  21.590  11.518
93090W        W66158  21.991  31.499  14.985
93091W        W66159  43.997  21.138   3.864
93092W        W66160  41.022  17.052   0.264
93093W        W66161   3.943  17.741  11.832
93094W        W66162  43.505  15.857  13.908
93095W        W66163  41.344   2.931   1.926
93096W        W66164  11.613  18.513  12.975
93097W        W66165  19.668  26.950  14.896
93098W        W66166  41.623  37.682   0.262
93099W        W66167   0.088  37.780  14.501
93100W        W66168   1.856  24.197  12.645
93101W        W66169  22.550  26.486  12.105
93102W        W66170  14.421  35.867   0.307
93103W        W66171  12.291  42.790  11.343
93104W        W66172  29.264  36.543  12.405
93105W        W66173  10.653  27.103   0.849
93106W        W66174   8.779  35.840  13.923
93107W        W66175   8.203  21.294  10.701
93108W        W66176  11.559  19.583   1.317
93109W        W66177  23.147   5.942   4.058
93110W        W66178  16.008  10.708   3.509
93111W        W66179   3.733  33.781   2.374
93112W        W66180  18.879  21.772  14.353
93113W        W66181  16.477  15.951  10.214
93114W        W66182  41.993  27.149   4.177
93115W        W66183  27.995  27.215   4.094
93116W        W66184  25.121  12.389   0.273
93117W        W66185  33.852  17.563   4.165
93118W        W66186   7.422  24.209  12.203
93119W        W66187   9.973  23.968   2.912
93120W        W66188   3.854  27.954  13.043
93121W        W66189  30.117  12.846   2.628
93122W        W66190  32.430  21.678   2.397
93123W        W66191   1.801   9.158   3.200
93124W        W66192  23.755  17.800   4.544
93125W        W66193  20.837  27.564  13.441
93126W        W66194  39.084  30.054  14.015
93127W        W66195  24.204  26.586  10.629
93128W        W66196  34.597  21.338   2.253
93129W        W66197  33.480  37.481   2.684
93130W        W66198  16.052   7.725  13.410
93131W        W66199  28.956   8.755  13.057
93132W        W66200  10.619  38.469   1.326
93133W        W66201  16.384  10.385   3.658
93134W        W66202   0.227  24.030  13.005
93135W        W66203   4.018   4.805   4.392
93136W        W66204   9.803   1.477  10.395
93137W        W66205  32.744  29.008  12.418
93138W        W66206  10.687  40.904   3.203
93139W        W66207  43.133   8.204   1.316
93140W        W66208  11.217  10.594  10.958
93141W        W66209  32.464  37.743   4.918
93142W        W66210  39.247  10.575   4.234
93143W        W66211  21.291  33.186   9.951
93144W        W66212  21.489  25.496  12.515
93145W        W66213   4.639  25.879  12.433
93146W        W66214  22.590  16.276   0.181
93147W        W66215  10.284  27.004  10.546
93148W        W66216  40.554  23.660   2.382
93149W        W66217   8.412  39.490  13.897
93150W        W66218   6.462  19.350  14.118
93151W        W66219  44.346  41.952  13.407
93152W        W66220   1.341  22.260   3.603
93153W        W66221  38.923   5.980   3.773
93154W        W66222  28.597  16.997  13.891
93155W        W66223  22.100  15.385   4.023
93156W        W66224   5.192  37.857   0.429
93157W        W66225  42.419  37.810  14.553
93158W        W66226  17.133  11.711  12.916
93159W        W66227  21.376  42.417  13.989
93160W        W66228   0.897  31.448  11.586
93161W        W66229   9.592  17.032  13.916
93162W        W66230   8.783   6.633  14.566
93163W        W66231  34.017  16.609  10.812
93164W        W66232  28.703  19.557   2.133
93165W        W66233   8.571   4.821   3.242
93166W        W66234   1.680  41.943  12.009
93167W        W66235   2.082  12.561   2.363
93168W        W66236  16.358  40.522   0.770
93169W        W66237   0.989  11.140  12.293
93170W        W66238   0.387  36.443  13.746
93171W        W66239  35.969   3.000  10.708
93172W        W66240  38.853   2.879  14.083
93173W        W66241  38.046   0.980   2.471
93174W        W66242   4.139  29.881  13.862
93175W        W66243  43.338   6.635  13.326
93176W        W66244  15.057   1.937   0.430
93177W        W66245   6.338  17.269   3.208
93178W        W66246   6.258   0.503  11.834
93179W        W66247   2.181  17.278   4.637
93180W        W66248   4.707   8.686  13.880
93181W        W66249   0.288  18.230  13.034
93182W        W66250   5.804   3.496   1.941
93183W        W66251  35.060  16.799   2.238
93184W        W66252  41.504   7.699  12.046
93185W        W66253  18.540  18.599  10.722
93186W        W66254  26.307  24.626   1.227
93187W        W66255  35.459  24.746  12.060
93188W        W66256  13.261  31.710  13.423
93189W        W66257  39.000  34.425  12.731
93190W        W66258   6.919  24.354   3.946
93191W        W66259   2.335  15.082   3.744
93192W        W66260  37.941  16.026  12.777
93193W        W66261  17.176  18.300  11.449
93194W        W66262  26.786   7.148  11.177
93195W        W66263   0.212  21.088  10.675
93196W        W66264   1.937   4.764  12.021
93197W        W66265  34.567  20.034  10.991
93198W        W66266   2.481  31.380   3.896
93199W        W66267  16.231  27.669  10.428
93200W        W66268  17.251  21.300  13.830
93201W        W66269  31.437   6.779   2.854
93202W        W66270  35.094  19.584   0.671
93203W        W66271  23.209   8.248   4.919
93204W        W66272   3.464  28.329   2.922
93205W        W66273  37.417  30.131  13.515
93206W        W66274  40.322   2.791  14.287
93207W        W66275  15.756  44.380  11.534
93208W        W66276  22.739  33.207  13.382
93209W        W66277  42.020  34.379   3.747
93210W        W66278  32.045  29.097  10.759
93211W        W66279  17.824   1.833   3.932
93212W        W66280   9.880   8.887   2.924
93213W        W66281  43.587  12.780  14.007
93214W        W66282  31.488  34.192   4.537
93215W        W66283  12.798  17.364   1.828
93216W        W66284   8.726  25.211   2.320
93217W        W66285   2.100  40.914  14.285
93218W        W66286  19.272   6.854   4.137
93219W        W66287  33.591  18.165  14.570
93220W        W66288  16.825  26.548   2.811
93221W        W66289  42.305  44.171  14.371
93222W        W66290   1.211   1.415  10.806
93223W        W66291  16.287  13.489   3.801
93224W        W66292  29.165  19.247  12.323
93225W        W66293  23.570  34.361   1.352
93226W        W66294  26.627  11.867   4.558
93227W        W66295  25.104  42.688   1.798
93228W        W66296  32.014  32.044  11.548
93229W        W66297   1.217  33.180   4.580
93230W        W66298  14.553  27.384   4.386
93231W        W66299  37.675  24.588  14.055
93232W        W66300  44.067   9.658  11.164
93233W        W66301  12.805   7.895  14.282
93234W        W66302  34.982  30.219   4.193
93235W        W66303   5.780  33.440  14.368
93236W        W66304  23.878  10.659  12.044
93237W        W66305  42.938  23.792  11.040
93238W        W66306  41.889  20.702  12.075
93239W        W66307   6.689   9.889  13.330
93240W        W66308   3.704  33.554  11.994
93241W        W66309   6.768  20.371  13.335
93242W        W66310  18.104  20.964   0.968
93243W        W66311  22.747   1.670   3.682
93244W        W66312  33.772  33.144   2.134
93245W        W66313   6.313  25.430  12.750
93246W        W66314   0.757  38.166   0.720
93247W        W66315  30.957  25.156  13.878
93248W        W66316  37.479  44.234   3.121
93249W        W66317  24.261   6.408  11.128
93250W        W66318  25.973  28.261   0.842
93251W        W66319   2.469   9.745   3.400
93252W        W66320  20.061  19.156  11.892
93253W        W66321  36.985   5.707   3.317
93254W        W66322  18.384  35.872   1.400
93255W        W66323  11.719  31.995   1.231
93256W        W66324  26.058  35.001  12.871
93257W        W66325   6.633  39.571   3.534
93258W        W66326  13.954  29.935   2.420
93259W        W66327  33.007  29.752  13.388
93260W        W66328   4.149   8.777  10.294
93261W        W66329  39.978  15.363  12.096
93262W        W66330  13.004  12.229   4.562
93263W        W66331  44.779  10.614  14.579
93264W        W66332  16.303   2.042   1.695
93265W        W66333  43.974   0.425  11.913
93266W        W66334  39.392  34.241  14.279
93267W        W66335  32.645  39.075   0.437
93268W        W66336  23.103  13.315  12.795
93269W        W66337  21.598   2.679   4.723
93270W        W66338  25.311   2.983  11.049
93271W        W66339  16.836  38.332   1.487
93272W        W66340  39.613   6.219  12.959
93273W        W66341   7.576  17.660  12.443
93274W        W66342  31.890  16.312   2.412
93275W        W66343  35.412  28.609   0.673
93276W        W66344  26.430   1.014  10.735
93277W        W66345  40.237  19.835  13.866
93278W        W66346   3.016  12.411  12.386
93279W        W66347  11.745  19.517  14.974
93280W        W66348  21.797  18.591   2.723
93281W        W66349  11.748  22.149  10.608
93282W        W66350   9.791  29.995   1.914
93283W        W66351  24.057   1.617   2.678
93284W        W66352  41.709  15.638  11.832
93285W        W66353  28.633   8.824   2.847
93286W        W66354  19.009  15.102   3.784
93287W        W66355   8.122   7.472  12.452
93288W        W66356  34.348  15.769   0.957
93289W        W66357  18.860  16.573  10.576
93290W        W66358  25.160  11.846   0.332
93291W        W66359   2.722  25.169  10.793
93292W        W66360  22.910  13.845   4.459
93293W        W66361  11.781  10.827   0.881
93294W        W66362  42.251  23.598   2.606
93295W        W66363  27.012  11.328   0.230
93296W        W66364  15.288  42.018   0.719
93297W        W66365  34.541  42.975   2.737
93298W        W66366  26.680  22.262   2.883
93299W        W66367  42.581  19.605  10.825
93300W        W66368  30.006  40.447  14.065
93301W        W66369   1.177  19.012  13.924
93302W        W66370  23.091  42.323   2.381
93303W        W66371   4.724  26.152  10.972
93304W        W66372  13.645  34.354   0.379
93305W        W66373  14.381  29.020   3.097
93306W        W66374  15.641  26.348  13.961
93307W        W66375  42.006  28.270  11.632
93308W        W66376  22.631   8.115   1.330
93309W        W66377   2.029  31.468  14.010
93310W        W66378   2.179  41.956  10.694
93311W        W66379  40.339  10.981   2.278
93312W        W66380  21.043  26.760   1.241
93313W        W66381   7.792  17.671   2.212
93314W        W66382   0.909  37.198   2.402
93315W        W66383  14.100   0.889  12.299
93316W        W66384  10.414  43.338  14.430
93317W        W66385  29.888   4.676   4.450
93318W        W66386  39.569  24.188  13.878
93319W        W66387  20.866   3.362  14.960
93320W        W66388  14.732  18.821   2.295
93321W        W66389  40.735  11.705  12.436
93322W        W66390  19.249  28.086  12.242
93323W        W66391  36.820  42.779   0.218
93324W        W66392  11.613  14.282   0.855
93325W        W66393  31.370  38.376   4.702
93326W        W66394  40.837  19.153  14.754
93327W        W66395  43.395  37.047   0.161
93328W        W66396  11.465  33.181  12.368
93329W        W66397  22.665   0.871   4.397
93330W        W66398  12.648   1.368   3.330
93331W        W66399  11.373  19.984  12.668
93332W        W66400  43.435  27.109   2.542
93333W        W66401  23.957  34.554  13.562
93334W        W66402  20.301  31.658   1.224
93335W        W66403  22.568   6.867   4.393
93336W        W66404   0.868  23.415  11.154
93337W        W66405  24.953  26.413   2.374
93338W        W66406  36.411  41.483  14.947
93339W        W66407   3.751  21.027   4.544
93340W        W66408  26.440  24.424  12.947
93341W        W66409  28.168   0.491   3.882
93342W        W66410  15.562  23.644  12.931
93343W        W66411  40.394  28.381  11.898
93344W        W66412  14.303  26.915   0.512
93345W        W66413   6.634  38.968  13.323
93346W        W66414   5.948  44.912   1.847
93347W        W66415  10.255  27.286  11.062
93348W        W66416  31.969   9.411  13.858
93349W        W66417  34.481  22.665   0.258
93350W        W66418  16.627  18.587   1.329
93351W        W66419   4.121  41.451  13.870
93352W        W66420  20.129  38.066   1.010
93353W        W66421   1.731   3.921  12.941
93354W        W66422  15.189   1.654   2.461
93355W        W66423  22.050  34.531   3.937
93356W        W66424  23.712  37.144   0.496
93357W        W66425  23.978  28.083   0.436
93358W        W66426  17.950   4.332   2.465
93359W        W66427  22.099  16.803  13.001
93360W        W66428  28.579   6.295  13.899
93361W        W66429  30.857  35.096  13.762
93362W        W66430   5.662  41.320   0.740
93363W        W66431  38.604   8.602   0.344
93364W        W66432  27.565  17.166  12.110
93365W        W66433  34.927  42.759  13.976
93366W        W66434  33.620  38.875   4.552
93367W        W66435  23.400  17.490   1.248
93368W        W66436   2.384  33.456   4.534
93369W        W66437   6.699  34.896   0.900
93370W        W66438  37.039   0.675  12.832
93371W        W66439  21.091   0.989   4.939
93372W        W66440  30.222   7.300   0.374
93373W        W66441  34.384  30.682   4.589
93374W        W66442  31.993   4.480  10.691
93375W        W66443  24.149  17.599   4.808
93376W        W66444  36.946  36.010   2.476
93377W        W66445  26.500  22.507  12.562
93378W        W66446  39.788  41.208  11.899
93379W        W66447   7.348  17.812   3.344
93380W        W66448  35.340  43.310  14.780
93381W        W66449  26.246  37.134   1.217
93382W        W66450  23.989  20.342   5.504
93383W        W66451   2.774   2.966  10.692
93384W        W66452  44.008  32.457  14.472
93385W        W66453  28.007  10.922   4.625
93386W        W66454  31.469  28.761  13.218
93387W        W66455  15.354  42.772  11.574
93388W        W66456   7.292  16.832   2.252
93389W        W66457  41.854   2.428   3.559
93390W        W66458  43.536  16.219  14.314
93391W        W66459  21.228  21.535   2.202
93392W        W66460  15.122  40.067  11.346
93393W        W66461  12.727  20.774   1.334
93394W        W66462  21.119  30.028  12.186
93395W        W66463  14.849   8.868  11.016
93396W        W66464  32.934  29.371  14.313
93397W        W66465  28.593  28.332   4.700
93398W        W66466  43.508  39.391   2.265
93399W        W66467  42.972  43.338   0.457
93400W        W66468  43.775  18.759  11.172
93401W        W66469   4.601  21.984   3.163
93402W        W66470  19.742  15.357   1.466
93403W        W66471  14.741  31.161  12.625
93404W        W66472  38.305  11.364   0.682
93405W        W66473  25.504  41.068   1.409
93406W        W66474  31.366  19.143  12.641
93407W        W66475  24.053   0.817   3.368
93408W        W66476  24.529  40.507  13.872
93409W        W66477  44.834  40.352   0.978
93410W        W66478   6.655  26.936   3.559
93411W        W66479  12.736  28.970   0.518
93412W        W66480   5.954  10.596   3.198
93413W        W66481  17.953  44.037   0.854
93414W        W66482  14.111  42.743  11.079
93415W        W66483   3.962  19.702   4.143
93416W        W66484  12.457   7.888  12.977
93417W        W66485   2.354  38.135  14.942
93418W        W66486  34.076  19.609  14.096
93419W        W66487  37.835  39.958  10.216
93420W        W66488  22.209  34.714  12.864
93421W        W66489  34.858  19.326  13.385
93422W        W66490  35.632  31.837   0.476
93423W        W66491  32.042  34.108   3.819
93424W        W66492  34.506   7.669   4.304
93425W        W66493   1.513  27.982   1.641
93426W        W66494  42.002  22.638   1.310
93427W        W66495  34.108  35.049  10.600
93428W        W66496  44.464  41.326   3.893
93429W        W66497  37.496   5.187   0.662
93430W        W66498  36.506   6.383   2.725
93431W        W66499  22.572  30.965   0.526
93432W        W66500  44.847  15.964   2.643
93433W        W66501  32.009  19.636   1.492
93434W        W66502  42.781  36.649  13.441
93435W        W66503  17.684  40.323  14.449
93436W        W66504  10.131  28.077   3.802
93437W        W66505  31.375   8.719   1.897
93438W        W66506  36.467   4.515  13.381
93439W        W66507   9.823  23.026  11.157
93440W        W66508  35.411  36.408  13.080
93441W        W66509  35.935  34.568   4.412
93442W        W66510  26.045   7.214   0.476
93443W        W66511  20.900  43.573  12.854
93444W        W66512  32.972  35.561   4.844
93445W        W66513  18.227   8.782   2.166
93446W        W66514  15.402  11.358   2.952
93447W        W66515  25.063   0.956  10.623
93448W        W66516   3.241   3.182  10.584
93449W        W66517  12.716  20.144  11.818
93450W        W66518   2.478  36.868   4.218
93451W        W66519  13.534   7.402   5.079
93452W        W66520  25.088  33.546  11.795
93453W        W66521  36.596  20.582   4.601
93454W        W66522   3.234  18.776   4.167
93455W        W66523  31.969  38.093  13.928
93456W        W66524  34.506   9.634   3.240
93457W        W66525   7.725  26.011   0.184
93458W        W66526  11.622  18.750  10.429
93459W        W66527  42.514  40.281  12.606
93460W        W66528  15.166  12.322   0.772
93461W        W66529  18.714  12.027   2.219
93462W        W66530  16.327  37.625   3.161
93463W        W66531   8.621  40.435   1.057
93464W        W66532  11.979   7.030  11.166
93465W        W66533  16.054  10.052   0.287
93466W        W66534  13.647  15.289  14.754
93467W        W66535  36.997  36.464   4.124
93468W        W66536  13.169  16.115   4.546
93469W        W66537  12.405   5.856   3.732
93470W        W66538  42.269  33.948   0.419
93471W        W66539  19.816  32.295   5.109
93472W        W66540  22.133  26.511   3.522
93473W        W66541  27.978  12.004  10.238
93474W        W66542   6.992  40.988  13.881
93475W        W66543  25.223   1.980  13.320
93476W        W66544  40.512  33.493  13.535
93477W        W66545  15.822   5.374  14.006
93478W        W66546   5.174  38.817   0.366
93479W        W66547  42.084  40.571   2.840
93480W        W66548  24.546  20.961   1.228
93481W        W66549  36.862  17.823  12.562
93482W        W66550  13.865  20.867   3.689
93483W        W66551  17.996  19.583   3.815
93484W        W66552  21.875  27.957   3.053
93485W        W66553  24.192   3.922   3.093
93486W        W66554  11.598  15.363   1.739
93487W        W66555  20.561  12.704  12.701
93488W        W66556   8.785  39.931   1.194
93489W        W66557  17.611  34.575  13.736
93490W        W66558   4.909  40.974  12.288
93491W        W66559  27.927  41.932   2.748
93492W        W66560   8.643  31.204   2.356
93493W        W66561  23.653  17.685   5.041
93494W        W66562  14.635   7.716   0.665
93495W        W66563  36.786  30.588   2.367
93496W        W66564   2.772  32.217  11.243
93497W        W66565  41.416  29.436  12.778
93498W        W66566   3.150  29.186   3.210
93499W        W66567  27.243  18.786  11.183
93500W        W66568  19.655   3.938   1.209
93501W        W66569  22.402   0.728   9.786
93502W        W66570   7.273  18.788   4.157
93503W        W66571  43.040   2.416  10.753
93504W        W66572  20.967   1.033   5.442
93505W        W66573  31.592  37.622  13.504
93506W        W66574  39.862  35.292  12.949
93507W        W66575  17.630  22.045   2.371
93508W        W66576  38.909  37.309   2.753
93509W        W66577  26.020  11.505  14.794
93510W        W66578   2.038  39.801   2.112
93511W        W66579  30.623   4.825  13.049
93512W        W66580  19.445  32.111  11.675
93513W        W66581  22.739   2.059   1.856
93514W        W66582  18.728   9.626  14.464
93515W        W66583  17.374  26.585  10.909
93516W        W66584  41.563   6.226   3.324
93517W        W66585  28.238  25.536  13.799
93518W        W66586  39.997  13.648   4.263
93519W        W66587   1.093  26.388   2.208
93520W        W66588  42.256  20.731   3.623
93521W        W66589  27.190  44.466  12.025
93522W        W66590  39.078  26.191   1.361
93523W        W66591  40.503  13.455   1.672
93524W        W66592  26.651   2.418  13.880
93525W        W66593  34.014   3.903   0.999
93526W        W66594  24.738  12.175  10.706
93527W        W66595  44.575   5.684   0.756
93528W        W66596  37.338  39.524   4.638
93529W        W66597  13.795   5.866   4.594
93530W        W66598  10.634  41.074  11.957
93531W        W66599  41.997  19.745  14.742
93532W        W66600  10.762  39.567  12.815
93533W        W66601  11.707   1.699   1.324
93534W        W66602   7.157  22.169  12.443
93535W        W66603  36.290  44.339   1.809
93536W        W66604  39.221  10.921  10.660
93537W        W66605   3.789   2.677  12.412
93538W        W66606  29.100  24.618   1.570
93539W        W66607  23.614  20.037   3.803
93540W        W66608  10.367  44.774   0.454
93541W        W66609  32.472  13.132   1.135
93542W        W66610   6.793  39.201  11.792
93543W        W66611  21.096   6.957  13.580
93544W        W66612  32.567  15.060   3.262
93545W        W66613  43.309  24.647  12.943
93546W        W66614  28.473  41.869  11.191
93547W        W66615  14.765  35.657   4.183
93548W        W66616  43.803  19.274  11.157
93549W        W66617  13.407  27.021  12.008
93550W        W66618  37.025  42.335  12.858
93551W        W66619  10.746  42.352  12.150
93552W        W66620   9.904  36.907  12.833
93553W        W66621  43.715  44.926   2.321
93554W        W66622  37.324  34.156  11.876
93555W        W66623   1.881  19.201   3.740
93556W        W66624  17.071  36.561  10.318
93557W        W66625  22.666   0.368   3.186
93558W        W66626  27.216  14.700  14.423
93559W        W66627  37.321  27.695  10.044
93560W        W66628  32.603  21.398  13.765
93561W        W66629  41.251  21.663   2.619
93562W        W66630  15.688   7.206   4.768
93563W        W66631  14.852  13.592   1.871
93564W        W66632   4.837   4.154  12.520
93565W        W66633  35.859  19.049  14.240
93566W        W66634  25.592  22.053  13.502
93567W        W66635  28.655  20.232   4.742
93568W        W66636  18.710  27.680  14.816
93569W        W66637  40.263   6.717   3.859
93570W        W66638  26.907   6.192  14.407
93571W        W66639  17.728  28.082   0.045
93572W        W66640  36.226  17.961   0.254
93573W        W66641  43.558  32.853  13.746
93574W        W66642   8.615  32.762  12.021
93575W        W66643   0.742  36.289   2.933
93576W        W66644   7.332  15.179   4.565
93577W        W66645  19.650  31.531   0.871
93578W        W66646  16.249  36.064   1.932
93579W        W66647   8.764  33.172   2.168
93580W        W66648  42.787   7.685  13.998
93581W        W66649  42.532  35.408   0.228
93582W        W66650  38.888  39.893   0.842
93583W        W66651  41.308  27.341  14.027
93584W        W66652   8.653  43.701  11.237
93585W        W66653  27.234  22.328   1.679
93586W        W66654  14.245  33.643   1.763
93587W        W66655  23.977  34.727  14.403
93588W        W66656  33.174   7.549  14.052
93589W        W66657  43.708  17.253   3.674
93590W        W66658  15.690  13.387  13.428
93591W        W66659  42.324   8.493  14.260
93592W        W66660  10.303  25.089  13.818
93593W        W66661  17.380   6.829  10.900
93594W        W66662  44.300  26.147   3.315
93595W        W66663  11.246   9.373   3.377
93596W        W66664   8.294  41.357  10.696
93597W        W66665  20.104  42.789   5.203
93598W        W66666  18.647   4.693   3.769
93599W        W66667  38.002  28.595   0.476
93600W        W66668  38.739  12.420  13.582
93601W        W66669  12.273  42.082   2.775
93602W        W66670  22.806   4.249   1.340
93603W        W66671  35.177  34.553   3.719
93604W        W66672   7.193  12.606   3.424
93605W        W66673  13.090   2.677  13.867
93606W        W66674  36.659  37.879  14.388
93607W        W66675  15.824  38.617   3.677
93608W        W66676  10.661  30.351  13.722
93609W        W66677  41.242  11.055  12.882
93610W        W66678  16.556  30.462   4.410
93611W        W66679  10.864  23.113   2.660
93612W        W66680  38.789  31.097   0.868
93613W        W66681  41.428  38.004  11.575
93614W        W66682  41.390   5.598  14.959
93615W        W66683  27.062  21.790  14.483
93616W        W66684  29.650  15.258   3.628
93617W        W66685   9.113  44.770   3.909
93618W        W66686  20.792  13.492  12.339
93619W        W66687  32.087  41.805   2.489
93620W        W66688  16.827   2.020   2.350
93621W        W66689  21.134  38.368   0.441
93622W        W66690  17.511  13.191   4.248
93623W        W66691  27.920  29.227   1.412
93624W        W66692  27.699  40.838  13.368
93625W        W66693  11.284  39.834  14.918
93626W        W66694  42.017  26.006   4.816
93627W        W66695  32.010   0.445  14.409
93628W        W66696   8.636  25.481   3.279
93629W        W66697  27.767  13.201   4.215
93630W        W66698  42.324   2.366   3.804
93631W        W66699   7.242  32.580  13.100
93632W        W66700  29.508  11.898  13.050
93633W        W66701  36.405  14.904   0.764
93634W        W66702  10.185  44.149   5.064
93635W        W66703  16.364   8.204   1.383
93636W        W66704  42.419  38.418   4.574
93637W        W66705  34.648  13.035  12.835
93638W        W66706  36.816  18.885   4.173
93639W        W66707  39.760  27.913  10.838
93640W        W66708   1.137  22.050  12.576
93641W        W66709  35.658  33.948   2.166
93642W        W66710  28.202  27.090  13.875
93643W        W66711  11.751   4.185   2.874
93644W        W66712   9.149   1.053   3.007
93645W        W66713  17.746  34.572   1.904
93646W        W66714  27.942  41.440   4.549
93647W        W66715  43.718  14.165  14.860
93648W        W66716  17.208  21.720   2.852
93649W        W66717  37.638   1.403  12.461
93650W        W66718  22.115  42.403   0.184
93651W        W66719  29.917  40.288   4.142
93652W        W66720  25.043   8.398   2.738
93653W        W66721  29.203  22.735  10.645
93654W        W66722  15.188  42.259  13.029
93655W        W66723  28.459  19.726   2.586
93656W        W66724  25.991  34.309   1.314
93657W        W66725  22.742   2.031   2.801
93658W        W66726  23.686  11.270   3.738
93659W        W66727   2.954  13.124   1.386
93660W        W66728  12.140  38.030   1.366
93661W        W66729  40.370  30.031  13.323
93662W        W66730  12.003   6.386   2.226
93663W        W66731  14.767  12.338  10.128
93664W        W66732  10.146   5.779   3.137
93665W        W66733   4.496  18.667   0.909
93666W        W66734  34.873   9.312  14.292
93667W        W66735  17.020  26.668   0.305
93668W        W66736  29.515   2.972  14.977
93669W        W66737   7.785   0.402   3.041
93670W        W66738  12.881  17.694  13.919
93671W        W66739   0.570  13.870  14.413
93672W        W66740  44.466  43.951   1.207
93673W        W66741  41.081  29.621   1.229
93674W        W66742  17.328  40.914  12.847
93675W        W66743  40.098  28.636  14.366
93676W        W66744  38.374  23.656   0.298
93677W        W66745  25.439  16.385  12.032
93678W        W66746  30.679  12.259   4.621
93679W        W66747  22.497  37.400   1.179
93680W        W66748   3.192  19.584   3.736
93681W        W66749  32.533   0.252  14.721
93682W        W66750  17.792  25.733   1.760
93683W        W66751  19.310  40.747  10.657
93684W        W66752  25.515  33.189   4.079
93685W        W66753  38.298  29.233  11.141
93686W        W66754   7.109  25.694   4.110
93687W        W66755  15.072  43.311  14.821
93688W        W66756  36.451   1.195  12.801
93689W        W66757  39.305  14.214   3.323
93690W        W66758   3.449  21.593  13.534
93691W        W66759  20.529  10.394  13.968
93692W        W66760  43.331   8.468   1.749
93693W        W66761  33.425  25.733   2.370
93694W        W66762   8.657   0.876  12.843
93695W        W66763   6.786  12.848   1.130
93696W        W66764  19.183  41.995   3.324
93697W        W66765  44.754  41.992  13.736
93698W        W66766   9.764   6.336   4.731
93699W        W66767   8.835  27.668   4.633
93700W        W66768  21.128  25.924   2.244
93701W        W66769  39.368  27.748  11.421
93702W        W66770   0.966  33.331  12.516
93703W        W66771  39.468  14.585  11.717
93704W        W66772   3.696  35.467  13.059
93705W        W66773  39.068  30.952  14.733
93706W        W66774  31.434   3.786   0.849
93707W        W66775  12.499  29.502   2.815
93708W        W66776  32.019  39.744   0.950
93709W        W66777  30.594  28.918  13.335
93710W        W66778  15.753  32.384  11.727
93711W        W66779  24.319  28.585  13.597
93712W        W66780  26.635   9.235  10.719
93713W        W66781  26.901   1.890  10.810
93714W        W66782  26.695  38.427  10.630
93715W        W66783  31.567  16.855  14.106
93716W        W66784  33.624  38.948   1.495
93717W        W66785  41.449  39.191   1.150
93718W        W66786  16.481  31.785   2.576
93719W        W66787  43.903  20.032  10.749
93720W        W66788  10.301   5.291   2.445
93721W        W66789   9.607  28.134   3.863
93722W        W66790   4.116   3.542  14.032
93723W        W66791  18.561  27.862   1.671
93724W        W66792  12.479   3.392  10.516
93725W        W66793  13.492  27.421   1.341
93726W        W66794  30.919  29.870  10.790
93727W        W66795   2.181  39.408  13.029
93728W        W66796  44.880  37.368   4.731
93729W        W66797  42.066   6.292   3.253
93730W        W66798  14.399  30.532  11.961
93731W        W66799  28.454   6.348   1.195
93732W        W66800  40.876  34.670   2.039
93733W        W66801  21.285  20.211   3.325
93734W        W66802  35.969  44.866  11.221
93735W        W66803  13.671  36.907  12.575
93736W        W66804  11.638  28.101   2.664
93737W        W66805  42.313  18.495  12.884
93738W        W66806  37.958  19.166   0.748
93739W        W66807  27.550  35.913   3.334
93740W        W66808  10.298  14.618   1.976
93741W        W66809   4.934   8.286   0.014
93742W        W66810   8.826   4.265  12.573
93743W        W66811  21.611  10.427   4.530
93744W        W66812  36.308   6.313   3.186
93745W        W66813  20.769   9.428  13.796
93746W        W66814   0.080  17.729   4.597
93747W        W66815   9.310   1.301  12.149
93748W        W66816  33.106  17.055   4.445
93749W        W66817   8.199   9.262   0.917
93750W        W66818  23.049   5.678   1.495
93751W        W66819  20.654  41.455   2.655
93752W        W66820  37.177   7.976   3.302
93753W        W66821  16.588  13.828  13.909
93754W        W66822  25.171  16.284   4.682
93755W        W66823   7.653  36.967   0.893
93756W        W66824   0.361  32.055  12.670
93757W        W66825  20.401  11.215   2.423
93758W        W66826  30.599  21.627   4.277
93759W        W66827   3.646   7.221   4.575
93760W        W66828   1.007  18.801  11.590
93761W        W66829  41.304  17.324   3.739
93762W        W66830  34.114  29.211   4.350
93763W        W66831  32.033  25.030   3.753
93764W        W66832  25.519  41.875  10.339
93765W        W66833   2.371  43.779  11.725
93766W        W66834   9.735  38.338  13.367
93767W        W66835  23.725  41.806   3.830
93768W        W66836  19.831  23.056   4.189
93769W        W66837  20.552   8.087  14.405
93770W        W66838  19.849   0.432   3.950
93771W        W66839  32.149  42.293   1.750
93772W        W66840  30.739   2.750   4.145
93773W        W66841  14.288  23.887  10.369
93774W        W66842  18.222   7.506   1.339
93775W        W66843   7.231  30.983   0.655
93776W        W66844  36.904  14.899   1.430
93777W        W66845  16.085  13.150  10.651
93778W        W66846  35.984   6.183  10.701
93779W        W66847  23.252   2.994   3.657
93780W        W66848  22.233   0.851   1.485
93781W        W66849   3.523   4.123   3.782
93782W        W66850   4.879   9.285  14.768
93783W        W66851  25.026  30.101   2.820
93784W        W66852   1.414  24.840  13.030
93785W        W66853   1.530  39.362  14.757
93786W        W66854  35.755   1.401  11.115
93787W        W66855  18.642  39.091   4.203
93788W        W66856  16.274  31.914  10.619
93789W        W66857   1.208  24.488  11.625
93790W        W66858  11.534  31.378   2.434
93791W        W66859   0.084  40.048  10.765
93792W        W66860  15.672  38.950   2.396
93793W        W66861  30.320  10.417  12.128
93794W        W66862   8.971  42.030   9.717
93795W        W66863  27.489  18.062   0.346
93796W        W66864   7.441  34.038   1.138
93797W        W66865  19.986  21.523   0.203
93798W        W66866  22.093  10.742   4.163
93799W        W66867  11.391   9.835   1.183
93800W        W66868   4.197  25.963  11.097
93801W        W66869  24.735   2.351  14.001
93802W        W66870  10.643  26.934  13.900
93803W        W66871  22.044   2.689  14.764
93804W        W66872   6.647  17.839  12.900
93805W        W66873  33.376  13.610   2.807
93806W        W66874  25.996  19.581  14.465
93807W        W66875  42.278  24.759  12.919
93808W        W66876  18.807  20.273   1.288
93809W        W66877  39.900  26.694   3.700
93810W        W66878  23.229  10.372  14.281
93811W        W66879  42.252  39.462   0.898
93812W        W66880  35.220  29.112   1.601
93813W        W66881  31.917  23.320  11.912
93814W        W66882  31.174  17.859   2.233
93815W        W66883  29.553  33.097  10.805
93816W        W66884  38.319   1.761  12.602
93817W        W66885  39.347  14.145  11.214
93818W        W66886  32.372  19.841  12.019
93819W        W66887  34.540   2.468  14.721
93820W        W66888  27.526  23.678   4.204
93821W        W66889  39.450   7.168  10.210
93822W        W66890  43.771  30.402   0.486
93823W        W66891   1.965  17.741   4.822
93824W        W66892  18.764  34.051   3.847
93825W        W66893  34.969   8.821  14.364
93826W        W66894   0.500  38.471   2.872
93827W        W66895  32.888  36.556   3.258
93828W        W66896  31.895  21.625   3.257
93829W        W66897   4.910  36.025  13.481
93830W        W66898  27.158  15.776   0.418
93831W        W66899  25.140   3.958   4.510
93832W        W66900  15.054  31.100  10.759
93833W        W66901  10.638  12.711   0.136
93834W        W66902  40.792  11.614  11.508
93835W        W66903  35.924  33.952  11.714
93836W        W66904  10.630  13.629  11.096
93837W        W66905  23.180   9.896   1.412
93838W        W66906  18.548  37.359  10.003
93839W        W66907   9.404   1.635   1.085
93840W        W66908  33.379  22.683   4.175
93841W        W66909  22.057  12.186   4.554
93842W        W66910   9.069  16.553   2.892
93843W        W66911  36.046  25.703   0.372
93844W        W66912   1.736  23.662   4.156
93845W        W66913   7.631  14.611   0.011
93846W        W66914  24.171  36.929   0.825
93847W        W66915   1.515  25.969  11.442
93848W        W66916  40.926   5.590  12.777
93849W        W66917   7.425  33.433   0.970
93850W        W66918  32.868   2.785   1.707
93851W        W66919  33.903  25.673  10.863
93852W        W66920  14.256  34.974   0.319
93853W        W66921  25.816   8.192  11.515
93854W        W66922  30.484  17.252  10.647
93855W        W66923  25.650  12.748   4.620
93856W        W66924  24.286  40.802  10.605
93857W        W66925  16.273  16.219   1.261
93858W        W66926   4.950  28.933  10.922
93859W        W66927   0.488  32.803   2.822
93860W        W66928  31.752  31.335  11.649
93861W        W66929  15.997  22.174   4.326
93862W        W66930   5.238   7.687   4.266
93863W        W66931  31.562  44.814  10.563
93864W        W66932  34.370   3.361  14.794
93865W        W66933   8.268  20.231   0.002
93866W        W66934  12.595  25.875   1.890
93867W        W66935  40.465  32.532  11.039
93868W        W66936  23.568  32.103  13.426
93869W        W66937  25.169   2.486  11.044
93870W        W66938  18.906  40.760   3.745
93871W        W66939   0.899  28.181   3.707
93872W        W66940  23.644  22.756   3.223
93873W        W66941   9.393  37.090   3.204
93874W        W66942  39.438  41.303   1.935
93875W        W66943   9.961   4.973  12.370
93876W        W66944   3.876  39.873   4.750
93877W        W66945  26.076  10.020   9.702
93878W        W66946  10.416  31.434   4.125
93879W        W66947  43.424  29.160  14.048
93880W        W66948  42.566  31.761  10.089
93881W        W66949  44.712  35.580   3.243
93882W        W66950  12.575   1.496   3.931
93883W        W66951  21.649  37.120   2.254
93884W        W66952  24.989  25.451  14.552
93885W        W66953   6.756  37.677   1.023
93886W        W66954  32.320  26.126   2.301
93887W        W66955  21.183   6.298   3.244
93888W        W66956  13.264   7.374  13.861
93889W        W66957  32.957  41.434  10.366
93890W        W66958   4.656  18.089   3.156
93891W        W66959  22.749  21.123   1.957
93892W        W66960  31.531  30.798  12.603
93893W        W66961   1.377  33.651   1.034
93894W        W66962  31.884  17.228   0.907
93895W        W66963  20.065  21.125   1.418
93896W        W66964   0.990  39.178  13.877
93897W        W66965  24.634  11.104   1.413
93898W        W66966   6.555  35.071   1.416
93899W        W66967  19.274   1.162  12.097
93900W        W66968  25.449   0.622  12.451
93901W        W66969   0.868  24.395  10.862
93902W        W66970  21.705  37.882  10.771
93903W        W66971   7.791  29.187   2.232
93904W        W66972   3.919  18.660  14.830
93905W        W66973   4.803  15.384   3.929
93906W        W66974  11.367  22.557  13.620
93907W        W66975  44.016   0.274   2.096
93908W        W66976  18.680  14.295   4.184
93909W        W66977  16.196  31.162  13.685
93910W        W66978  30.204  37.971  13.718
93911W        W66979  31.536  10.734   3.175
93912W        W66980  38.581   4.396   3.711
93913W        W66981  31.839  40.473   3.219
93914W        W66982  24.267  22.163  14.326
93915W        W66983  35.437  43.536   3.731
93916W        W66984  17.080  20.181   2.376
93917W        W66985  39.400   1.670  10.651
93918W        W66986  34.347  23.683  11.681
93919W        W66987  44.616   8.461   3.402
93920W        W66988  21.858   6.845   1.415
93921W        W66989   5.428  21.674  12.964
93922W        W66990  13.261  35.640  11.585
93923W        W66991   4.740  23.099   1.915
93924W        W66992  31.171   7.324   4.634
93925W        W66993  41.746  11.592   0.430
93926W        W66994  16.089  42.134   1.756
93927W        W66995   0.254   0.714   2.443
93928W        W66996   6.279  38.206  11.034
93929W        W66997  29.618   9.817   3.838
93930W        W66998  34.530  22.704  14.756
93931W        W66999   9.777  44.827   4.504
93932W        W67000  22.774  43.688  13.851
93933W        W67001   8.819   1.270   1.695
93934W        W67002  13.970  40.821  13.424
93935W        W67003  17.171  38.705  12.480
93936W        W67004  38.978  28.012   4.639
93937W        W67005  17.087  31.743   2.981
93938W        W67006  20.316  13.980  13.787
93939W        W67007  22.167  34.221  12.872
93940W        W67008   1.292  18.405  13.183
93941W        W67009  16.072   9.686   3.225
93942W        W67010   6.467  18.542   2.695
93943W        W67011  19.630  11.464  11.142
93944W        W67012  17.532  37.282   4.113
93945W        W67013  21.054   2.669   0.168
93946W        W67014  13.829   4.299  14.998
93947W        W67015  12.651  11.681  13.275
93948W        W67016  23.703  34.854   0.797
93949W        W67017  12.941  19.692  11.419
93950W        W67018  29.878   7.911   0.924
93951W        W67019  37.309  28.027   3.204
93952W        W67020  33.314  39.867   1.896
93953W        W67021  32.541  18.293   2.103
93954W        W67022  37.648   3.913   0.757
93955W        W67023  21.791  12.230  12.997
93956W        W67024   8.313  42.588   2.840
93957W        W67025   6.887  20.215   1.763
93958W        W67026  15.750  17.685   0.288
93959W        W67027   9.672  23.126  10.681
93960W        W67028  13.315  28.883  13.860
93961W        W67029  28.124  26.726  14.829
93962W        W67030  23.551   8.610  14.996
93963W        W67031  29.526  16.375   4.825
93964W        W67032  10.981  22.610   2.488
93965W        W67033  40.861  26.011   1.118
93966W        W67034  29.343  11.158   2.766
93967W        W67035  34.176  43.015  14.817
93968W        W67036  30.650  21.535   1.331
93969W        W67037  23.537  28.421  12.062
93970W        W67038  31.276  42.507   3.473
93971W        W67039   0.891  30.344   2.641
93972W        W67040   4.811   0.697  14.982
93973W        W67041   2.656  31.521   2.701
93974W        W67042  28.423  20.657   1.418
93975W        W67043  19.517  36.629   1.941
93976W        W67044  39.527  14.845   4.550
93977W        W67045  31.394  25.536   4.184
93978W        W67046   0.211  28.392  13.384
93979W        W67047  40.669  12.553   5.035
93980W        W67048  27.092  26.001   0.764
93981W        W67049   9.680  14.133   4.989
93982W        W67050  30.870  31.136   2.775
93983W        W67051  44.605  29.464  12.613
93984W        W67052  10.873  17.200   0.192
93985W        W67053  36.670   8.855   3.354
93986W        W67054  36.449  42.341  10.805
93987W        W67055  21.309  20.839  10.098
93988W        W67056  29.617  33.411   4.619
93989W        W67057  14.436   2.163   2.003
93990W        W67058  15.048  15.726  14.444
93991W        W67059  26.586  24.596  13.417
93992W        W67060  20.509  14.496  13.855
93993W        W67061  28.670  11.355  12.598
93994W        W67062  44.472   9.424   4.168
93995W        W67063  44.433   0.904  13.515
93996W        W67064   2.761   7.784  12.716
93997W        W67065   9.342  32.391  14.749
93998W        W67066  12.423  25.486   5.075
93999W        W67067  12.097  38.173   0.527
94000W        W67068  40.217   7.413  14.645
94001W        W67069   8.698  21.203  14.468
94002W        W67070   0.684  19.815   4.207
94003W        W67071   1.492  16.318   0.847
94004W        W67072  31.561   4.434  13.024
94005W        W67073  39.091  33.360  10.731
94006W        W67074  41.340   7.962   3.579
94007W        W67075  41.989  42.658   1.271
94008W        W67076  31.403  12.944  12.442
94009W        W67077  31.301   7.726   1.914
94010W        W67078  29.564  24.594   0.192
94011W        W67079   5.913  15.580  12.085
94012W        W67080  39.923  15.904   1.781
94013W        W67081  18.488  17.823   3.685
94014W        W67082  31.165  39.609  14.009
94015W        W67083  18.653   4.217  13.805
94016W        W67084  26.082  27.999  12.495
94017W        W67085  31.814  31.504   3.647
94018W        W67086  43.854  36.463  11.539
94019W        W67087  18.741   9.297  12.468
94020W        W67088  37.904  12.779   2.564
94021W        W67089  10.259   9.731  12.604
94022W        W67090  40.513   3.449   0.838
94023W        W67091  14.783  42.748   3.695
94024W        W67092  36.427   3.858   4.483
94025W        W67093   6.809  21.980   0.365
94026W        W67094  41.488  36.904  13.019
94027W        W67095  11.940  34.656   4.920
94028W        W67096  11.252  11.420  11.575
94029W        W67097  33.055  14.008   1.269
94030W        W67098  27.380  18.165   0.845
94031W        W67099  17.843  35.353  11.207
94032W        W67100  41.258  36.570   4.104
94033W        W67101  12.202  44.064   0.452
94034W        W67102  22.070   9.156   1.758
94035W        W67103  22.021  22.796  12.417
94036W        W67104  38.889  35.598   1.690
94037W        W67105  22.987  35.631   4.713
94038W        W67106  40.753  36.280  13.473
94039W        W67107  25.096  31.679   3.728
94040W        W67108   2.810   2.019   3.649
94041W        W67109  41.401  43.967  11.623
94042W        W67110  20.761  30.185  13.214
94043W        W67111  17.762   8.972   0.440
94044W        W67112  39.883  23.927   1.778
94045W        W67113  17.197  41.252   3.439
94046W        W67114  22.462  42.912   3.663
94047W        W67115  12.106  19.981   3.656
94048W        W67116  14.235  20.579  12.295
94049W        W67117  19.261  31.925   4.341
94050W        W67118  10.382   4.433  13.592
94051W        W67119  38.088  38.419  13.782
94052W        W67120  32.078  21.789  14.987
94053W        W67121  28.172  14.128  14.313
94054W        W67122  11.812  23.128   3.171
94055W        W67123  44.936  25.578  12.835
94056W        W67124  13.679  16.820   1.891
94057W        W67125  30.558  43.376   0.258
94058W        W67126  10.656  38.807   3.334
94059W        W67127  27.718  16.528  11.031
94060W        W67128   7.925  41.161   4.107
94061W        W67129   8.926  13.742   4.651
94062W        W67130  37.463   9.164  12.199
94063W        W67131  32.462  44.972  10.929
94064W        W67132   6.235  26.909   4.559
94065W        W67133   3.927  30.589   1.322
94066W        W67134  12.291  25.694   0.790
94067W        W67135  10.779  23.214   4.761
94068W        W67136   3.875  43.948  13.923
94069W        W67137  25.664  25.743   4.495
94070W        W67138  26.916  27.458   4.539
94071W        W67139  34.773  35.860  11.100
94072W        W67140   6.372  25.937  10.720
94073W        W67141  40.854  36.068  13.966
94074W        W67142   2.960  38.705  11.899
94075W        W67143   6.640  10.108   4.975
94076W        W67144   2.306  34.426  11.478
94077W        W67145  14.524  42.787  14.419
94078W        W67146  18.621  28.536  11.664
94079W        W67147  33.573  41.996  11.610
94080W        W67148  24.751  13.281   2.793
94081W        W67149  17.003  29.159   3.254
94082W        W67150  25.421   9.433  10.757
94083W        W67151   1.393  11.682  14.678
94084W        W67152  17.540  28.507   0.269
94085W        W67153  11.825  32.159   2.700
94086W        W67154  36.050  22.774   0.759
94087W        W67155  42.088   8.171   1.303
94088W        W67156  11.697   7.215   1.653
94089W        W67157  31.085  37.624  14.177
94090W        W67158  26.744   5.232   4.087
94091W        W67159  27.525  38.041   1.931
94092W        W67160  29.180  42.412  13.883
94093W        W67161  13.980  16.266  10.635
94094W        W67162  27.966  38.399   1.234
94095W        W67163   5.627  39.339   1.763
94096W        W67164  19.248  35.379   2.394
94097W        W67165  39.121  35.603  13.359
94098W        W67166  11.754  39.805   1.694
94099W        W67167  28.165  10.867  12.993
94100W        W67168   1.686  10.533  10.384
94101W        W67169  42.425  31.005  14.872
94102W        W67170  33.608   9.815   1.767
94103W        W67171   7.202  27.507  12.047
94104W        W67172  16.794  10.836  11.066
94105W        W67173  12.660  38.855   0.205
94106W        W67174  12.121  43.902   1.445
94107W        W67175  42.393  28.528   0.012
94108W        W67176  33.784  38.078  10.875
94109W        W67177  42.335  27.673  14.987
94110W        W67178  17.036  41.471  13.239
94111W        W67179  10.775  35.921   2.737
94112W        W67180   0.453  43.882  13.495
94113W        W67181  20.715  11.620  14.312
94114W        W67182  37.375  19.344  12.401
94115W        W67183  18.861  14.598  14.451
94116W        W67184  22.682  26.835  14.488
94117W        W67185  42.024  13.080  13.363
94118W        W67186  36.379  35.494  12.149
94119W        W67187   6.181   1.290   1.334
94120W        W67188  27.731  38.923   1.264
94121W        W67189   6.453   7.950   2.833
94122W        W67190  10.630  12.746  14.599
94123W        W67191  16.234  19.273  14.146
94124W        W67192  12.304  28.270  13.811
94125W        W67193  37.091  13.027  12.491
94126W        W67194  19.262   1.688   0.396
94127W        W67195  43.329  16.082  12.443
94128W        W67196  26.068  25.917  12.919
94129W        W67197  35.727   7.334   0.796
94130W        W67198   3.136  22.527  10.668
94131W        W67199  18.565  11.076  14.529
94132W        W67200   0.054  11.638  12.571
94133W        W67201  29.567   4.854  14.720
94134W        W67202  43.508  11.566   0.088
94135W        W67203  24.676  22.905  11.129
94136W        W67204  31.205  32.434   4.550
94137W        W67205  20.596  42.526   4.426
94138W        W67206  44.866  18.666   0.717
94139W        W67207  29.069  27.240   0.421
94140W        W67208   6.737   6.660   4.067
94141W        W67209   3.380  15.223  10.798
94142W        W67210  34.482  28.449   2.227
94143W        W67211   2.870  32.022   1.371
94144W        W67212  31.125  18.757  12.025
94145W        W67213  12.246  33.098  13.648
94146W        W67214  20.731   9.610   3.694
94147W        W67215  31.977  32.395   2.247
94148W        W67216  24.453  41.879   2.602
94149W        W67217  16.076  40.865  14.945
94150W        W67218   7.393   2.956  11.972
94151W        W67219   2.741  33.504   0.261
94152W        W67220  37.440   8.666  12.153
94153W        W67221  37.357  16.277  10.863
94154W        W67222  30.850  18.349  11.153
94155W        W67223   6.275  11.822   2.846
94156W        W67224  16.870  13.387  14.021
94157W        W67225  44.919  43.525   2.749
94158W        W67226  16.295  28.288  14.606
94159W        W67227  27.663  35.474  14.459
94160W        W67228  15.884   2.793   1.683
94161W        W67229   5.670  42.869  10.708
94162W        W67230  37.833  31.044   3.735
94163W        W67231   2.739  37.493  12.350
94164W        W67232  33.942  43.578  13.432
94165W        W67233   9.765  21.656   4.285
94166W        W67234  18.077  21.593  12.690
94167W        W67235  38.070  35.045  10.228
94168W        W67236  15.433  12.548  10.207
94169W        W67237  23.675  35.027  10.502
94170W        W67238  11.644  36.494  14.441
94171W        W67239  10.886   1.041   2.447
94172W        W67240  43.553  30.229  13.896
94173W        W67241  22.183  13.896   1.326
94174W        W67242  39.781   3.754   1.624
94175W        W67243  21.627   9.130  14.339
94176W        W67244  18.209  12.568  14.744
94177W        W67245  43.758  21.106  13.020
94178W        W67246  42.514  11.902   2.580
94179W        W67247  28.397  32.139   0.939
94180W        W67248  34.501  38.359   4.159
94181W        W67249  15.467  18.781   0.971
94182W        W67250   8.820  29.185   5.120
94183W        W67251  10.723   7.018   2.764
94184W        W67252  33.893  27.786  14.048
94185W        W67253  42.544  37.032   4.507
94186W        W67254  13.238  25.221   4.500
94187W        W67255   2.861  36.576  12.356
94188W        W67256  13.714   5.285   1.409
94189W        W67257  34.697  33.485  11.636
94190W        W67258  23.488  14.123  13.329
94191W        W67259  13.794  41.237   0.409
94192W        W67260   3.476  29.647  12.107
94193W        W67261   6.038  14.747  14.333
94194W        W67262  13.279  18.475  11.839
94195W        W67263  42.397  28.118   3.131
94196W        W67264  14.661  33.424  14.471
94197W        W67265  37.512  43.433  13.166
94198W        W67266  26.309   8.758  14.892
94199W        W67267  42.946  40.066   3.208
94200W        W67268  36.559  44.471  14.278
94201W        W67269  40.726   3.628  14.950
94202W        W67270  13.646  22.493  13.854
94203W        W67271  37.366  25.219  11.090
94204W        W67272  29.358  22.555   4.369
94205W        W67273  31.139   5.222   4.466
94206W        W67274  30.466   0.854   4.170
94207W        W67275  40.977   9.245   3.635
94208W        W67276  20.666  36.028  13.557
94209W        W67277  18.946  31.158   3.192
94210W        W67278  34.640  38.451   1.700
94211W        W67279  43.918   3.365   5.032
94212W        W67280  34.871  24.164   1.902
94213W        W67281   7.397  22.659  12.339
94214W        W67282  11.073   5.988  11.621
94215W        W67283   5.326  21.417  13.679
94216W        W67284  34.108   7.430  14.244
94217W        W67285  22.749   3.201   2.219
94218W        W67286   4.319   0.204  12.541
94219W        W67287  44.236   4.419  12.885
94220W        W67288  33.405   3.058  13.825
94221W        W67289   7.376   3.973  14.364
94222W        W67290  42.775  42.075   2.363
94223W        W67291   6.924  21.540   1.574
94224W        W67292  24.371   0.578  11.227
94225W        W67293  37.514  25.588   0.548
94226W        W67294   7.839   8.153  13.386
94227W        W67295  10.610  26.192  13.478
94228W        W67296  33.022  15.563  11.445
94229W        W67297  14.763  32.964  14.233
94230W        W67298   8.214   2.321   0.331
94231W        W67299  15.642  41.966   1.942
94232W        W67300  24.681  27.899  11.147
94233W        W67301  38.005   0.316   1.256
94234W        W67302  25.893  16.685  12.648
94235W        W67303  36.662   8.698   0.326
94236W        W67304  15.547  12.342  11.414
94237W        W67305  10.327   1.759   0.409
94238W        W67306  18.574   2.288  13.468
94239W        W67307  32.197  13.261   4.679
94240W        W67308  35.561   5.685  12.987
94241W        W67309  34.092  23.195  11.910
94242W        W67310  23.954  34.593   1.668
94243W        W67311  27.776   5.166   3.201
94244W        W67312  33.610  20.786   1.403
94245W        W67313  39.922  28.154  14.260
94246W        W67314  19.036  21.493   2.763
94247W        W67315  11.407  15.698   3.573
94248W        W67316   4.590  28.048   3.686
94249W        W67317   7.894   1.189   3.729
94250W        W67318   8.180  36.565  11.011
94251W        W67319  39.745  28.995   3.006
94252W        W67320  38.317  28.508  13.893
94253W        W67321  10.674  12.728  10.661
94254W        W67322  37.177  17.125   3.214
94255W        W67323  37.806  29.419  11.078
94256W        W67324   0.992  14.074   3.247
94257W        W67325  36.801   5.895  13.516
94258W        W67326  34.620  32.477  13.509
94259W        W67327  14.435   3.756   0.329
94260W        W67328  28.504  18.924  13.791
94261W        W67329  12.629  23.276   4.152
94262W        W67330   3.845  30.896  10.445
94263W        W67331  15.795   4.185   4.925
94264W        W67332   2.385  26.414   1.793
94265W        W67333   9.799   9.908  12.926
94266W        W67334  15.816  27.962   0.890
94267W        W67335  36.532  38.574  12.703
94268W        W67336  44.970  31.715   3.257
94269W        W67337  30.790  18.707   3.204
94270W        W67338   6.478  15.213  13.885
94271W        W67339   3.269  20.799   4.068
94272W        W67340  42.380   4.691   1.206
94273W        W67341  20.850   3.114  10.050
94274W        W67342  34.406  38.232   4.666
94275W        W67343  24.479   8.768  11.959
94276W        W67344   6.875   2.479   4.498
94277W        W67345  21.122  40.561   4.056
94278W        W67346  35.387  40.519  13.975
94279W        W67347  33.057  17.022  12.902
94280W        W67348  25.136   7.251  10.677
94281W        W67349  14.016  25.525   3.943
94282W        W67350  28.230  13.849   3.713
94283W        W67351   0.275   5.519   2.889
94284W        W67352  38.151  36.213  13.549
94285W        W67353   4.621  12.282  11.142
94286W        W67354  38.827  36.559   3.232
94287W        W67355   7.283   6.445   0.958
94288W        W67356  14.741  26.927  12.529
94289W        W67357  24.666  44.449   3.907
94290W        W67358  11.902  35.151  14.268
94291W        W67359  42.988  18.536  14.331
94292W        W67360  14.067  41.757   4.585
94293W        W67361   4.357  20.116   4.059
94294W        W67362  44.010  14.703   4.251
94295W        W67363   9.275  36.003  14.018
94296W        W67364   4.252  19.696   2.657
94297W        W67365  23.770   8.881   0.921
94298W        W67366  12.581   8.365  10.587
94299W        W67367  21.751  17.182   3.120
94300W        W67368  16.065  26.981  12.114
94301W        W67369   4.514  40.983  11.958
94302W        W67370  27.915  23.770  11.856
94303W        W67371  20.290  25.423   5.075
94304W        W67372  37.585  35.794  11.006
94305W        W67373  32.934   0.391  13.490
94306W        W67374  18.606  11.787   3.170
94307W        W67375  30.926   8.424   3.317
94308W        W67376  21.911   5.046   1.766
94309W        W67377   1.531   9.302  11.575
94310W        W67378  31.670   9.927   4.773
94311W        W67379  40.219  28.866   2.825
94312W        W67380   2.207  23.919   1.644
94313W        W67381  17.252  11.650  11.517
94314W        W67382  38.209  20.347   0.234
94315W        W67383   6.889  38.849  11.440
94316W        W67384  33.055  42.282  10.258
94317W        W67385   0.537  37.477  10.379
94318W        W67386  30.551  29.212   0.234
94319W        W67387  18.290  37.809   3.340
94320W        W67388   1.552  16.688   1.642
94321W        W67389  29.015   4.649   3.400
94322W        W67390   4.168  38.751   4.146
94323W        W67391  29.471  40.530   2.557
94324W        W67392   6.299  20.720  11.997
94325W        W67393   5.122  25.209  13.062
94326W        W67394  20.336  22.003   2.347
94327W        W67395  16.300   6.950   3.650
94328W        W67396   7.258  16.692  13.249
94329W        W67397  40.113  36.443  14.559
94330W        W67398   9.984  11.749  12.545
94331W        W67399   5.821  36.332  14.123
94332W        W67400  39.510  38.086   2.625
94333W        W67401  33.330  18.691  14.346
94334W        W67402  41.549  26.487  11.885
94335W        W67403  16.656  32.698  10.697
94336W        W67404   7.371  41.258  14.997
94337W        W67405   5.778   6.358  10.675
94338W        W67406  30.820  19.476  12.842
94339W        W67407  11.946  41.978   0.324
94340W        W67408   1.725  19.797   2.651
94341W        W67409  16.131  15.025  12.119
94342W        W67410  29.861  21.298  12.801
94343W        W67411   7.377  23.525  12.885
94344W        W67412  20.006  31.522   2.741
94345W        W67413  33.994  33.240  11.919
94346W        W67414  39.375  28.709   2.774
94347W        W67415  43.814  40.600  13.441
94348W        W67416  19.980  34.406   3.080
94349W        W67417  13.370   2.786   1.438
94350W        W67418  14.663  39.286  11.576
94351W        W67419  40.856  42.040   3.222
94352W        W67420   7.057  26.573   3.153
94353W        W67421  42.440  20.148  12.377
94354W        W67422  37.369  10.911   1.403
94355W        W67423   9.037  32.453  12.103
94356W        W67424  12.778  19.220   5.037
94357W        W67425  30.383   2.466  11.163
94358W        W67426  38.957  27.282   1.496
94359W        W67427  12.304  22.518   3.609
94360W        W67428  35.873  41.170  12.965
94361W        W67429  21.736  28.129   3.529
94362W        W67430  30.118   8.834   0.602
94363W        W67431  22.796  28.392  12.844
94364W        W67432  38.509  17.913   3.214
94365W        W67433  35.042  35.216   1.419
94366W        W67434   6.451  23.708  11.119
94367W        W67435  36.479  28.389  13.443
94368W        W67436  36.938  31.176   4.779
94369W        W67437  41.748  43.836   0.765
94370W        W67438  28.000  13.639  13.906
94371W        W67439   0.698  38.534   3.674
94372W        W67440  26.638  31.410  14.489
94373W        W67441  16.374   8.267  14.988
94374W        W67442  17.693  21.225  11.464
94375W        W67443  40.841  34.438  10.658
94376W        W67444  38.225  29.581   1.442
94377W        W67445  31.134   6.790  10.515
94378W        W67446  39.858  26.877   1.367
94379W        W67447  18.133  17.321  14.567
94380W        W67448   5.687  21.558   3.835
94381W        W67449  42.761  39.837  14.920
94382W        W67450  19.077  12.710  14.358
94383W        W67451   3.786   1.435   0.179
94384W        W67452   4.491  14.265   2.664
94385W        W67453  15.205  42.588  14.362
94386W        W67454  26.624   9.162  12.003
94387W        W67455   3.317  21.316  13.071
94388W        W67456  10.967  10.199  11.673
94389W        W67457  42.562  24.134  10.348
94390W        W67458  20.702  36.206  12.067
94391W        W67459  25.584  21.199   0.333
94392W        W67460  42.427  36.673  12.007
94393W        W67461  13.062  39.836   0.220
94394W        W67462  23.720  23.219  13.387
94395W        W67463   7.814   6.419   4.106
94396W        W67464  39.399  12.626   1.347
94397W        W67465   7.343  25.045  13.988
94398W        W67466  14.087  35.577  11.250
94399W        W67467  24.776  19.090   0.797
94400W        W67468   0.070  43.760  13.872
94401W        W67469  40.964  11.883  12.969
94402W        W67470  21.091  11.143  10.388
94403W        W67471   8.046  28.722   2.148
94404W        W67472  23.518  19.755   4.288
94405W        W67473  38.426  20.314  11.649
94406W        W67474   0.564  42.743  11.844
94407W        W67475  34.338  29.689   4.526
94408W        W67476  29.351   7.236   2.840
94409W        W67477  14.244  14.339  11.532
94410W        W67478   3.174  12.179   0.799
94411W        W67479  19.368   7.208   2.687
94412W        W67480  38.026  33.128  14.856
94413W        W67481  25.135  29.469  10.471
94414W        W67482  38.185   8.000  13.923
94415W        W67483  37.053   4.987  10.826
94416W        W67484  44.753  25.482  11.131
94417W        W67485  40.068  22.208  12.349
94418W        W67486  43.248  22.818   4.934
94419W        W67487  43.223   4.657   0.834
94420W        W67488  11.916  21.014   4.114
94421W        W67489   0.013  35.821   1.943
94422W        W67490   7.738  25.754  10.833
94423W        W67491  22.253  35.345  12.444
94424W        W67492  42.185  27.318   3.665
94425W        W67493  21.364   9.664  10.495
94426W        W67494  20.276  25.756  11.616
94427W        W67495  27.752  11.422   3.744
94428W        W67496  31.917  35.636   3.880
94429W        W67497   6.363  18.525  14.817
94430W        W67498   4.874  32.045  12.809
94431W        W67499  18.245   3.255  13.798
94432W        W67500  21.145   9.304   4.617
94433W        W67501  36.991  15.043   3.776
94434W        W67502  39.386  38.820  11.497
94435W        W67503   2.995  33.471   0.707
94436W        W67504  37.434  12.630  12.421
94437W        W67505  41.077  28.508   0.938
94438W        W67506   9.403  19.666  14.433
94439W        W67507  23.272  11.648  10.472
94440W        W67508  44.106  16.583   3.943
94441W        W67509   9.085  28.144  12.510
94442W        W67510   2.177  28.609  13.447
94443W        W67511  38.556  42.982   4.608
94444W        W67512  44.219  40.157  14.879
94445W        W67513  11.420  14.381   3.662
94446W        W67514   3.189  40.391  12.351
94447W        W67515  27.956   9.518   0.666
94448W        W67516  21.036   6.230  14.475
94449W        W67517  22.015   1.480  11.562
94450W        W67518  17.244  29.490   2.277
94451W        W67519  22.948  37.080   1.162
94452W        W67520  34.513  42.032   3.859
94453W        W67521  10.349  30.384  12.014
94454W        W67522  12.311  25.077  10.805
94455W        W67523  43.062  40.796   4.602
94456W        W67524  41.639   3.613  13.944
94457W        W67525  20.556  25.618   0.378
94458W        W67526   6.040  19.207  11.951
94459W        W67527  33.872  15.688   0.346
94460W        W67528  12.188  33.341   4.593
94461W        W67529  38.367  22.021   3.615
94462W        W67530  38.354   3.214   1.419
94463W        W67531   9.020   3.981  11.451
94464W        W67532   8.146  23.096  10.444
94465W        W67533  34.135  21.790  12.446
94466W        W67534  32.671  14.302   3.656
94467W        W67535  17.689  19.050  14.447
94468W        W67536  31.906  14.509   1.302
94469W        W67537  37.391   5.762   5.044
94470W        W67538   9.126  22.566  10.665
94471W        W67539  32.025   0.843  11.262
94472W        W67540  22.148  27.987   1.453
94473W        W67541   4.117  18.174  12.077
94474W        W67542  28.235  15.147  14.802
94475W        W67543  21.201  35.604  12.558
94476W        W67544  33.961  20.216  14.312
94477W        W67545  34.408  22.449   2.575
94478W        W67546  41.521   7.465   3.752
94479W        W67547  10.728  19.377   0.864
94480W        W67548  18.189   2.777  13.991
94481W        W67549  36.512  23.973   1.838
94482W        W67550  29.923  11.664  10.553
94483W        W67551  43.769  22.258  11.127
94484W        W67552  37.486  40.557   2.869
94485W        W67553  22.480   4.918  12.485
94486W        W67554  20.816   9.391  11.518
94487W        W67555  12.622  16.309  10.368
94488W        W67556  15.776  34.061   1.754
94489W        W67557  37.993   2.931  12.596
94490W        W67558   4.000  40.606  12.568
94491W        W67559  12.668  35.104   3.867
94492W        W67560   0.909  27.101   4.844
94493W        W67561   2.323  26.672  11.660
94494W        W67562  41.978   8.870   2.372
94495W        W67563  28.968  26.902  14.560
94496W        W67564  21.771   9.212  11.682
94497W        W67565  27.770  39.902   1.331
94498W        W67566  19.594  34.621  10.668
94499W        W67567  35.894   0.985   0.889
94500W        W67568  39.058  24.981   0.691
94501W        W67569  22.047  10.024   0.943
94502W        W67570  41.190  37.868   2.639
94503W        W67571  35.142  18.156   3.360
94504W        W67572  13.372  23.977  12.122
94505W        W67573  21.252  38.321  12.579
94506W        W67574  13.442  44.427  12.174
94507W        W67575  17.568  44.716   1.792
94508W        W67576  43.413  32.446  13.427
94509W        W67577  36.917  22.948   1.203
94510W        W67578   3.216   9.285   0.631
94511W        W67579  37.840  32.983   2.352
94512W        W67580  37.412  25.917  13.831
94513W        W67581   6.536  15.248  11.095
94514W        W67582  19.443  17.313   1.266
94515W        W67583  27.061  27.083  11.326
94516W        W67584   5.837  37.442   9.889
94517W        W67585  31.132  22.277  12.575
94518W        W67586  34.393  33.455  12.641
94519W        W67587   2.509  15.441  12.924
94520W        W67588  10.766  42.770   1.628
94521W        W67589  37.060  16.639  10.639
94522W        W67590  34.146  37.021   0.888
94523W        W67591   5.794  28.464   3.384
94524W        W67592  28.077   0.750   1.992
94525W        W67593  28.003   7.699   1.346
94526W        W67594  22.575  41.045  14.313
94527W        W67595  17.297   6.256   4.860
94528W        W67596  11.804   7.653   1.878
94529W        W67597  28.123  23.750  13.523
94530W        W67598   7.793   3.040  10.669
94531W        W67599  24.601   9.653  11.541
94532W        W67600   9.331  43.889  10.492
94533W        W67601   6.758  15.764  11.071
94534W        W67602  24.252  14.560  11.506
94535W        W67603  34.548  27.643  13.428
94536W        W67604  19.523  39.718  13.866
94537W        W67605  24.254   5.480  13.410
94538W        W67606  19.540  34.055  12.843
94539W        W67607  10.826  12.147   0.892
94540W        W67608  25.725  21.529  11.118
94541W        W67609  25.866  26.751  14.255
94542W        W67610  10.373  25.302  10.159
94543W        W67611  41.501   1.503  14.378
94544W        W67612  22.526  18.577   4.208
94545W        W67613  38.726  36.686  15.000
94546W        W67614  27.190  22.958   3.841
94547W        W67615   8.196  44.992  13.080
94548W        W67616  34.417  28.997   1.219
94549W        W67617  31.041  41.178   0.953
94550W        W67618  23.716  17.288  11.709
94551W        W67619  41.374  32.846  11.542
94552W        W67620  39.883  22.501  13.492
94553W        W67621  14.483  19.268   3.443
94554W        W67622  31.406  24.055   3.260
94555W        W67623  24.697  14.715   3.698
94556W        W67624  12.501  32.114  13.077
94557W        W67625   7.598  21.786  11.536
94558W        W67626  42.801  35.029   3.632
94559W        W67627  17.552  19.287  12.587
94560W        W67628  16.632  16.689   4.109
94561W        W67629  44.948  31.647   1.794
94562W        W67630  18.499  18.070   0.490
94563W        W67631  37.451  36.653  14.336
94564W        W67632  20.777  12.195   3.389
94565W        W67633  38.092   6.791   4.466
94566W        W67634   4.393  33.465   2.227
94567W        W67635  44.967  11.562   2.276
94568W        W67636   9.074  20.003   2.303
94569W        W67637  43.764  44.709  12.465
94570W        W67638  22.670  35.898   4.053
94571W        W67639   8.113  16.242   2.953
94572W        W67640  12.089  12.337   2.880
94573W        W67641  33.460   2.000   1.406
94574W        W67642  12.716  16.793  13.864
94575W        W67643   9.910  11.837  12.010
94576W        W67644  27.502  41.722  10.487
94577W        W67645  41.069  34.167   3.190
94578W        W67646  22.633   5.181  10.693
94579W        W67647  26.521  37.516   2.710
94580W        W67648  14.358  29.728   0.772
94581W        W67649  10.329  20.020  14.382
94582W        W67650  14.518  42.783   0.318
94583W        W67651  13.573  29.150  12.554
94584W        W67652  10.781   3.788  11.312
94585W        W67653   1.259  44.305  13.497
94586W        W67654  37.689  11.360   4.546
94587W        W67655  37.011  41.458   4.181
94588W        W67656  32.619  14.349  14.768
94589W        W67657  17.825  27.157   4.040
94590W        W67658  41.040  43.877   2.094
94591W        W67659   6.878  26.138   4.494
94592W        W67660  12.764  14.798  14.389
94593W        W67661   4.984  28.125  13.507
94594W        W67662   8.497   2.816  11.392
94595W        W67663  39.250  42.721  13.313
94596W        W67664  19.581  44.286   1.343
94597W        W67665  38.770  18.793   4.449
94598W        W67666  23.122  44.064  13.826
94599W        W67667  43.788  33.047   0.487
94600W        W67668  18.764  28.948   2.704
94601W        W67669  44.312  42.199   4.819
94602W        W67670  19.205   9.225   0.273
94603W        W67671   3.308   1.594  11.751
94604W        W67672  16.581  34.556   0.849
94605W        W67673   8.790  30.320  11.512
94606W        W67674  27.019  13.910  12.615
94607W        W67675  12.115  44.793  10.378
94608W        W67676  32.449  11.795  13.346
94609W        W67677  35.814  20.545  14.441
94610W        W67678  21.244  29.658  12.561
94611W        W67679  25.911   6.309  12.894
94612W        W67680  38.481  16.347  11.564
94613W        W67681  33.538   5.225  12.111
94614W        W67682   0.722   9.726  13.942
94615W        W67683   7.156  43.363   4.203
94616W        W67684  16.174  21.231   3.650
94617W        W67685  18.630  44.289  12.964
94618W        W67686  25.540   2.713  14.400
94619W        W67687  26.152   5.526   1.352
94620W        W67688  14.129  31.148  11.125
94621W        W67689  40.518  29.561   2.368
94622W        W67690  20.071   2.602  11.567
94623W        W67691  21.475  33.325   1.747
94624W        W67692  12.391  22.121   0.762
94625W        W67693   3.922  25.158   4.763
94626W        W67694  32.459   7.737   1.448
94627W        W67695  28.832  42.096  11.595
94628W        W67696  26.156  42.925  14.462
94629W        W67697  37.930  24.529  12.498
94630W        W67698  28.044   7.282   5.014
94631W        W67699  44.750  35.106  10.763
94632W        W67700  17.558   9.262   4.494
94633W        W67701  43.938  18.029  12.054
94634W        W67702  14.125  14.329   4.471
94635W        W67703  23.597  16.345  12.771
94636W        W67704  21.356  15.275  12.396
94637W        W67705  10.250  38.749  13.031
94638W        W67706  16.183  11.106   2.286
94639W        W67707  22.392   6.984  11.170
94640W        W67708  10.615  27.683  13.407
94641W        W67709   1.748  19.158  13.913
94642W        W67710  39.716  34.695   4.644
94643W        W67711  36.480  21.643  13.281
94644W        W67712  39.955  41.867  14.890
94645W        W67713  10.773  40.070  11.970
94646W        W67714  35.590   0.803   3.183
94647W        W67715  44.316  37.052  10.895
94648W        W67716  12.074  38.428  10.765
94649W        W67717  38.010  37.051  12.507
94650W        W67718  29.708   8.299  10.632
94651W        W67719  23.066  16.242   1.916
94652W        W67720  35.808   1.758   2.175
94653W        W67721  15.570  18.071   4.090
94654W        W67722   7.371  11.775   4.802
94655W        W67723  30.340  43.288  10.965
94656W        W67724  29.220  14.889  13.641
94657W        W67725  44.339   3.303  14.888
94658W        W67726   4.319  27.325  14.457
94659W        W67727   1.548   7.414  14.690
94660W        W67728  20.247   1.735  14.273
94661W        W67729   8.607  25.326  14.182
94662W        W67730  33.095  15.345   2.350
94663W        W67731  21.391   0.089  14.865
94664W        W67732  29.935   0.788  12.379
94665W        W67733  39.343  38.834   4.174
94666W        W67734  23.663  32.541   4.643
94667W        W67735  32.572  39.807  10.475
94668W        W67736  11.416  14.249   2.025
94669W        W67737  21.077  19.041  12.447
94670W        W67738  30.038  14.261  14.461
94671W        W67739  38.406   3.904   4.568
94672W        W67740  21.980   4.521   1.724
94673W        W67741  31.392  34.477   1.423
94674W        W67742   4.326  38.084  13.117
94675W        W67743  17.655  36.819   3.171
94676W        W67744  37.451   9.624  11.429
94677W        W67745  30.143  23.749   1.720
94678W        W67746  18.604  33.677   2.465
94679W        W67747  31.337  22.720   4.174
94680W        W67748  14.811  31.125   1.404
94681W        W67749  11.773  15.529  12.077
94682W        W67750  44.976   0.028  13.735
94683W        W67751  20.288   5.723   0.155
94684W        W67752  21.255  39.519  11.957
94685W        W67753  34.142   7.831  11.020
94686W        W67754  33.581  29.142  13.751
94687W        W67755  40.955  27.316  11.194
94688W        W67756  27.689  18.515   3.118
94689W        W67757   2.743   9.472   2.362
94690W        W67758   9.324   8.133  12.690
94691W        W67759  29.472   0.877  10.725
94692W        W67760   3.637  42.579  12.557
94693W        W67761  24.788  20.230   2.739
94694W        W67762  15.823  33.789   0.293
94695W        W67763  39.498  20.641   4.946
94696W        W67764   6.183  25.476  11.916
94697W        W67765  21.469   6.244   3.834
94698W        W67766  35.300   8.437   3.280
94699W        W67767  26.502  39.297   1.742
94700W        W67768  33.330   0.889  13.943
94701W        W67769  19.871   3.140  11.080
94702W        W67770  36.268  42.699   0.307
94703W        W67771  22.809  22.511   0.509
94704W        W67772  40.104  30.447  12.584
94705W        W67773  20.841   4.324  12.377
94706W        W67774  15.264  43.451  12.385
94707W        W67775  27.266  17.702  13.326
94708W        W67776   0.242  19.977   2.289
94709W        W67777  11.614  39.601   4.549
94710W        W67778   6.931   9.148   0.314
94711W        W67779  32.031  24.122   2.335
94712W        W67780  25.709   5.822  12.061
94713W        W67781  39.086   0.250   0.186
94714W        W67782  38.289  28.235  13.427
94715W        W67783  35.655   6.253   4.563
94716W        W67784  16.242  29.067   5.416
94717W        W67785  11.896   0.180   4.384
94718W        W67786  26.520   2.957   3.763
94719W        W67787  25.537  39.057  11.201
94720W        W67788  22.285  18.076  10.225
94721W        W67789  43.288   1.513  12.529
94722W        W67790   8.283  24.670  14.238
94723W        W67791  41.287   9.272  13.370
94724W        W67792  30.670  11.291  13.955
94725W        W67793  32.839  30.436  13.069
94726W        W67794  12.755  38.346  13.833
94727W        W67795   7.162  38.391   3.572
94728W        W67796  44.884  38.315   0.430
94729W        W67797   2.242  18.700  11.074
94730W        W67798  28.525  22.281  11.999
94731W        W67799  39.514   8.784  13.785
94732W        W67800  38.924  41.302   0.179
94733W        W67801  27.608   1.427   2.297
94734W        W67802  10.263  36.362   2.239
94735W        W67803  13.872  20.240   1.726
94736W        W67804  35.967  14.368  10.787
94737W        W67805  32.936  29.523  13.829
94738W        W67806   6.828  10.245   3.357
94739W        W67807  29.448  34.900  12.511
94740W        W67808   2.255  26.156   3.305
94741W        W67809  23.931  25.003  10.076
94742W        W67810   7.118  39.073  14.788
94743W        W67811   3.908  34.652   2.743
94744W        W67812  29.711  20.649  11.593
94745W        W67813  40.338  31.478  14.870
94746W        W67814  18.482  29.041   3.120
94747W        W67815  34.029  43.428  12.105
94748W        W67816  14.989   4.855  11.068
94749W        W67817   2.364   1.414  14.217
94750W        W67818  25.661  36.607  11.932
94751W        W67819  16.272  34.305   1.772
94752W        W67820  38.310  32.060   2.166
94753W        W67821   8.659  20.514   3.734
94754W        W67822   6.763  40.517  13.912
94755W        W67823  31.213  15.187  11.193
94756W        W67824  35.043  32.169   3.661
94757W        W67825  23.622  39.248   4.536
94758W        W67826   4.238   4.739  11.980
94759W        W67827  43.555  27.256   1.734
94760W        W67828  37.026  34.036  12.532
94761W        W67829  10.250  11.816   3.691
94762W        W67830  19.674  39.232  13.752
94763W        W67831  13.711  34.100   2.670
94764W        W67832  21.260  24.441   4.701
94765W        W67833  40.651   4.620  12.188
94766W        W67834  11.092  24.690  13.497
94767W        W67835   9.164  30.068   0.020
94768W        W67836   2.415  37.092   4.687
94769W        W67837  28.357   4.064   3.058
94770W        W67838  33.262  24.144  13.930
94771W        W67839  26.143  25.077   0.983
94772W        W67840  43.642  14.100  12.853
94773W        W67841  41.004  15.561   1.229
94774W        W67842  38.721  36.144  14.931
94775W        W67843  19.570  19.505  13.838
94776W        W67844  18.771  17.237  13.905
94777W        W67845   4.729  14.693  11.496
94778W        W67846  42.018   6.388  10.753
94779W        W67847   5.353  43.668  12.368
94780W        W67848  14.311  10.092   3.667
94781W        W67849  20.246  42.934  12.985
94782W        W67850  37.771  20.957   4.310
94783W        W67851  37.546  32.179  13.404
94784W        W67852  36.034   1.955  13.945
94785W        W67853  44.293  14.764   0.252
94786W        W67854   2.978   7.222  13.986
94787W        W67855  33.153  29.099   3.947
94788W        W67856  14.330  40.027   4.523
94789W        W67857   8.872  37.581   1.857
94790W        W67858  34.063  15.094   3.822
94791W        W67859  27.481  20.715   3.909
94792W        W67860   1.303   5.333   3.997
94793W        W67861  19.706   9.468   3.829
94794W        W67862  18.275  11.083  11.989
94795W        W67863   4.206  15.603  10.440
94796W        W67864   5.721  25.971   0.734
94797W        W67865   1.578  36.923   4.037
94798W        W67866   6.927  42.443  10.504
94799W        W67867   2.338  25.098  14.032
94800W        W67868  30.182  42.488   1.785
94801W        W67869  23.780  10.485   4.331
94802W        W67870   7.378  30.631   2.287
94803W        W67871  13.430  15.205   3.316
94804W        W67872   0.276  36.488   1.534
94805W        W67873  13.337  14.160  11.896
94806W        W67874  38.342  18.743   0.690
94807W        W67875  14.119  43.975  10.534
94808W        W67876  18.615  31.823   3.691
94809W        W67877  33.265  41.883  12.963
94810W        W67878  21.187   2.457  12.982
94811W        W67879   5.695  19.147  14.253
94812W        W67880   9.138  29.997   3.951
94813W        W67881  41.851  42.924   5.206
94814W        W67882  28.598  16.667  14.720
94815W        W67883  19.819  21.361  11.980
94816W        W67884   2.666  43.392   0.676
94817W        W67885   2.834  17.236   1.881
94818W        W67886  16.647  18.064   1.304
94819W        W67887  23.982  26.890  12.471
94820W        W67888  15.909   7.812   0.777
94821W        W67889  16.586  29.097  14.896
94822W        W67890  12.584  29.997  13.388
94823W        W67891  42.406   7.717  12.151
94824W        W67892  30.497  10.266  13.386
94825W        W67893  19.646  11.293   3.167
94826W        W67894  11.657  22.974   4.547
94827W        W67895   8.929  44.954  14.793
94828W        W67896  39.622  40.837   3.301
94829W        W67897  38.974   6.755  12.543
94830W        W67898   9.918  26.785   2.880
94831W        W67899  31.718  18.484   3.357
94832W        W67900   1.410  19.351  10.535
94833W        W67901  10.234  25.775   1.752
94834W        W67902  11.543   2.585  11.570
94835W        W67903  23.214  24.637   1.351
94836W        W67904  39.111  14.209  11.695
94837W        W67905  22.766  10.572   0.813
94838W        W67906  37.581  26.398   4.194
94839W        W67907  13.833   7.829  13.356
94840W        W67908   4.384   5.912   2.044
94841W        W67909  43.737   0.513   4.421
94842W        W67910   7.360   3.770   4.015
94843W        W67911  22.616  19.273   0.345
94844W        W67912   4.994  44.422   0.287
94845W        W67913  32.350  22.798  14.851
94846W        W67914  11.430  34.521  13.560
94847W        W67915  26.907  20.139   4.290
94848W        W67916  15.843  24.992  12.594
94849W        W67917  39.848  41.373   0.621
94850W        W67918   3.238  32.565  11.830
94851W        W67919  28.095   3.299   3.220
94852W        W67920  12.778  22.991   2.818
94853W        W67921  10.768  14.253   4.533
94854W        W67922  17.522  33.716  12.076
94855W        W67923  12.473   8.195   3.775
94856W        W67924  17.775  29.582   0.740
94857W        W67925  42.285  29.126  13.431
94858W        W67926  22.133  13.955  11.659
94859W        W67927  23.120  41.183   0.290
94860W        W67928  20.409   8.914   4.220
94861W        W67929  14.147   7.108   2.710
94862W        W67930  37.124  29.539  11.479
94863W        W67931  35.999  35.777   2.659
94864W        W67932  12.095  18.530   0.716
94865W        W67933  13.698   7.387   2.585
94866W        W67934  13.920  24.925   0.456
94867W        W67935  30.960  31.459   4.807
94868W        W67936  17.410  33.571  13.450
94869W        W67937  23.563  22.731  13.569
94870W        W67938   2.891  43.155   4.323
94871W        W67939  29.728  40.450   0.486
94872W        W67940  37.727  33.885  12.037
94873W        W67941  13.150  40.798  11.018
94874W        W67942  31.554  43.908  12.836
94875W        W67943  35.089   9.409  13.316
94876W        W67944   0.959  41.364  10.708
94877W        W67945  28.690  15.995   0.482
94878W        W67946  12.189  27.134   0.974
94879W        W67947  24.553  16.839   0.695
94880W        W67948   3.010  40.457   1.336
94881W        W67949  25.836  21.358   1.786
94882W        W67950  12.727  15.068  13.729
94883W        W67951  14.108  32.946   1.559
94884W        W67952   4.705  29.005   3.366
94885W        W67953  13.285  25.024  14.993
94886W        W67954  41.781  39.318   2.841
94887W        W67955   3.633  16.188  10.824
94888W        W67956  15.787  26.212   3.229
94889W        W67957  38.044  27.071   3.562
94890W        W67958  20.668  22.975  10.692
94891W        W67959  36.881   9.254  13.030
94892W        W67960  31.156  28.194  13.765
94893W        W67961   6.428  18.767   0.969
94894W        W67962  26.086  32.714   4.670
94895W        W67963   7.344  39.547  14.655
94896W        W67964  44.627  40.553   3.556
94897W        W67965  28.105  20.344  14.532
94898W        W67966  10.436  28.752  10.046
94899W        W67967  23.057  19.260  12.548
94900W        W67968  33.020  36.504   0.068
94901W        W67969  12.341  39.424   3.338
94902W        W67970   9.244  41.770  10.425
94903W        W67971   1.542  32.793   1.188
94904W        W67972  17.545  11.935  10.150
94905W        W67973   2.869   9.731  14.696
94906W        W67974   8.439  37.908   1.915
94907W        W67975  19.095  25.523   2.141
94908W        W67976  23.200  33.064   0.607
94909W        W67977   0.901   6.555   0.248
94910W        W67978  21.969  36.081  10.983
94911W        W67979  44.100  23.278  14.033
94912W        W67980  19.681   7.316   1.865
94913W        W67981  18.646  13.694   4.462
94914W        W67982   3.457  41.766   4.384
94915W        W67983  25.009  37.903   3.215
94916W        W67984  12.903  32.495  13.814
94917W        W67985   8.958   1.790   1.286
94918W        W67986  19.999  36.888  13.907
94919W        W67987  24.257  24.115   3.682
94920W        W67988  23.081   4.999  10.066
94921W        W67989   2.034  25.640   1.405
94922W        W67990   8.422  25.918  14.491
94923W        W67991  10.739   6.642  13.904
94924W        W67992  26.700  20.034   3.821
94925W        W67993  23.695   8.111   2.242
94926W        W67994  43.330  31.707  13.739
94927W        W67995  34.362  21.707  10.541
94928W        W67996  12.468  26.495   4.077
94929W        W67997  12.556   7.160  14.995
94930W        W67998  10.328  13.674   3.370
94931W        W67999  10.669  10.782  11.522
94932W        W68000  32.452  13.579  13.360
94933W        W68001  10.111  23.503   3.711
94934W        W68002   7.083  26.681  12.664
94935W        W68003  22.674   1.411   4.149
94936W        W68004   1.216   5.418  12.523
94937W        W68005  15.083  44.807  10.661
94938W        W68006  10.131  10.261   1.179
94939W        W68007   9.982   8.265  14.916
94940W        W68008  24.186   1.438  10.924
94941W        W68009  22.623   9.710  13.089
94942W        W68010  22.226  40.574  11.131
94943W        W68011  35.787  43.085   1.346
94944W        W68012  32.525  30.683   3.508
94945W        W68013  16.009   6.639   3.937
94946W        W68014  23.947  23.430   2.788
94947W        W68015  41.823   2.841  13.358
94948W        W68016   5.195  16.136   1.825
94949W        W68017  27.506  38.906   1.733
94950W        W68018  23.747  23.269  11.284
94951W        W68019  20.972  22.516   3.273
94952W        W68020  20.237  40.446  13.542
94953W        W68021  30.118  39.948  14.074
94954W        W68022  19.875  25.324  14.256
94955W        W68023  36.327  33.351  10.607
94956W        W68024  44.916  32.970   4.419
94957W        W68025  26.949  38.945  12.486
94958W        W68026  38.017  17.054  13.404
94959W        W68027   0.603  42.493  13.490
94960W        W68028   0.256  21.836   1.800
94961W        W68029  35.328  12.563  12.457
94962W        W68030  11.683  14.870   3.191
94963W        W68031  11.836   0.855   2.336
94964W        W68032  15.100   7.806   4.350
94965W        W68033  16.560  10.723   1.691
94966W        W68034  14.085  13.195   2.757
94967W        W68035  16.289  28.663  11.802
94968W        W68036   6.221   4.701  13.624
94969W        W68037  30.129   6.180   4.762
94970W        W68038  20.025  19.299  14.258
94971W        W68039  20.309  14.783  13.466
94972W        W68040  40.544  26.485   0.906
94973W        W68041  44.601  30.440   0.823
94974W        W68042   2.552  12.657   3.260
94975W        W68043   0.367  13.837   3.237
94976W        W68044   4.949   8.093   0.965
94977W        W68045   2.217  40.922   4.577
94978W        W68046  35.519  22.288   4.039
94979W        W68047  37.127  31.769   0.458
94980W        W68048  17.985  40.910  10.995
94981W        W68049  30.539  31.954   3.596
94982W        W68050  22.787   0.262   0.098
94983W        W68051  42.535  28.800   1.506
94984W        W68052  12.811  40.967  12.266
94985W        W68053  32.506  11.996   3.629
94986W        W68054  26.412  19.618   2.671
94987W        W68055  24.663  12.221  13.453
94988W        W68056   5.367  18.798  14.500
94989W        W68057  32.966   2.841   1.185
94990W        W68058  32.859  33.433   0.880
94991W        W68059  32.477   5.787  13.369
94992W        W68060  30.181  34.047   3.172
94993W        W68061  38.372  15.141   3.629
94994W        W68062  26.172   6.865  13.402
94995W        W68063  44.285   4.736   0.439
94996W        W68064  22.277  42.763  10.409
94997W        W68065  31.451  43.953   2.090
94998W        W68066   2.502  43.416  13.599
94999W        W68067  24.681  20.243   4.193
95000W        W68068  10.565   3.374   5.162
95001W        W68069  44.992  30.732   3.236
95002W        W68070  29.017  29.998  14.738
95003W        W68071  10.348   7.838   5.041
95004W        W68072  40.590   5.925  14.756
95005W        W68073  38.940   4.515  11.599
95006W        W68074  22.724  36.073   4.612
95007W        W68075  43.682  27.530  12.144
95008W        W68076   4.734  24.135   1.249
95009W        W68077  38.815  18.870  12.935
95010W        W68078  40.358  35.911   0.665
95011W        W68079   6.371  40.051   5.558
95012W        W68080  32.483  32.617  12.656
95013W        W68081   8.308  19.750   3.589
95014W        W68082  10.152  22.811   2.320
95015W        W68083   9.399  31.698   3.795
95016W        W68084  19.688  44.024   9.851
95017W        W68085  38.073   3.963  13.976
95018W        W68086  23.719  26.025  12.668
95019W        W68087  11.668  11.917   1.858
95020W        W68088  12.852  13.572   4.546
95021W        W68089  42.513  38.803   3.248
95022W        W68090  18.369   4.141   0.823
95023W        W68091   1.424  44.502   4.435
95024W        W68092  32.575  29.616   1.396
95025W        W68093  21.779  25.201   2.277
95026W        W68094  12.263  37.463  13.789
95027W        W68095  42.414  16.152  10.242
95028W        W68096   2.743  32.262   3.113
95029W        W68097  44.501  44.650  14.868
95030W        W68098   7.187  36.305  11.109
95031W        W68099  39.828  24.273  13.398
95032W        W68100  25.642   8.264   0.841
95033W        W68101  20.229  11.226  13.363
95034W        W68102   5.519  43.607   0.261
95035W        W68103  19.050  13.672   3.705
95036W        W68104  13.093  11.609   0.457
95037W        W68105   6.181  38.485  11.465
95038W        W68106  21.622   9.272   2.627
95039W        W68107  25.055  27.601  14.059
95040W        W68108  37.424  26.632  14.569
95041W        W68109  21.571  43.332   1.975
95042W        W68110   8.297  32.117   4.932
95043W        W68111  18.274  21.803   4.730
95044W        W68112  13.881  36.444  12.470
95045W        W68113  16.551  10.727   0.595
95046W        W68114  13.232  44.580   1.803
95047W        W68115  22.701  37.587  12.961
95048W        W68116  36.900  12.682   4.533
95049W        W68117  22.417  12.752   2.733
95050W        W68118  11.080  26.513   3.573
95051W        W68119  29.429  29.401   1.760
95052W        W68120   1.652  29.940   2.295
95053W        W68121  27.496  41.954  11.139
95054W        W68122  42.855   4.717   3.852
95055W        W68123   1.757  34.599  14.933
95056W        W68124  23.577   0.758  14.296
95057W        W68125   1.235  27.670   2.288
95058W        W68126  32.524   7.260   4.563
95059W        W68127  13.614  38.092   3.160
95060W        W68128   6.821  23.803   0.319
95061W        W68129  34.528   3.401  10.615
95062W        W68130  42.928  25.804   4.575
95063W        W68131  21.498  22.054   3.225
95064W        W68132  14.125   2.705  12.483
95065W        W68133  36.940  33.977  13.032
95066W        W68134   7.777  41.484   0.300
95067W        W68135   5.400  40.442   3.186
95068W        W68136  26.095  43.817  14.514
95069W        W68137  41.296  41.004  11.958
95070W        W68138  21.410  43.771   0.258
95071W        W68139  44.419   1.202  13.090
95072W        W68140   5.924  33.893  14.566
95073W        W68141   7.394  10.316  12.131
95074W        W68142  38.523   5.938  14.629
95075W        W68143   0.331  34.698   1.984
95076W        W68144  22.126  15.427  13.929
95077W        W68145  24.176  27.042  14.759
95078W        W68146  31.927  21.771   2.286
95079W        W68147  36.864  23.664  11.087
95080W        W68148   5.878   5.112   4.375
95081W        W68149   0.966  35.204  11.578
95082W        W68150  44.057   1.754   3.011
95083W        W68151  36.571  24.130  14.441
95084W        W68152  14.223  20.434  10.600
95085W        W68153   7.797  27.739  11.481
95086W        W68154  19.293   5.213  14.009
95087W        W68155  33.498  27.442   4.699
95088W        W68156   4.789   3.849   1.428
95089W        W68157  19.514  41.947  13.508
95090W        W68158  39.014  34.908   0.330
95091W        W68159  29.671   9.752  11.027
95092W        W68160  32.757  20.235  11.986
95093W        W68161  21.522  33.516   0.772
95094W        W68162  25.968  39.798  14.434
95095W        W68163  10.828  38.229   1.740
95096W        W68164   1.014  30.541   4.144
95097W        W68165  41.422  37.152   1.028
95098W        W68166   0.963  22.673  13.318
95099W        W68167  25.967   0.074   1.345
95100W        W68168  29.057  25.896  11.131
95101W        W68169   0.385  41.184   2.805
95102W        W68170   4.743  17.732  13.877
95103W        W68171  30.979   2.159  12.061
95104W        W68172  39.910  44.354  10.861
95105W        W68173  22.604  36.273   2.725
95106W        W68174  37.466  34.294   1.419
95107W        W68175  16.783  13.625  12.600
95108W        W68176  25.132   8.405   0.992
95109W        W68177  44.802  24.694   3.844
95110W        W68178  25.649  21.092  13.479
95111W        W68179  17.575  22.475   1.983
95112W        W68180  34.242  17.303   2.433
95113W        W68181  32.039  36.577   0.909
95114W        W68182  12.856  23.991  12.121
95115W        W68183   1.931  13.857   0.862
95116W        W68184   0.083  17.206  13.201
95117W        W68185   0.746   9.269   1.434
95118W        W68186  37.420   1.330   3.142
95119W        W68187  33.892  26.745  11.585
95120W        W68188  12.230   3.935   2.807
95121W        W68189   3.001  16.616   3.545
95122W        W68190  10.374  19.835   3.178
95123W        W68191  34.203   4.284   3.260
95124W        W68192  32.537  22.159   0.859
95125W        W68193  19.685  22.423  12.982
95126W        W68194  34.515  11.289   3.070
95127W        W68195  24.470   5.936   1.136
95128W        W68196  44.250  36.976  11.385
95129W        W68197  31.125  25.411  14.297
95130W        W68198  33.962  17.090  10.283
95131W        W68199   8.504  41.868  11.469
95132W        W68200  44.390  15.977   1.213
95133W        W68201  43.009  11.904  12.129
95134W        W68202   0.564   3.070  12.126
95135W        W68203   6.722  30.459   2.777
95136W        W68204  26.792  32.860   2.931
95137W        W68205  34.870  26.105  13.866
95138W        W68206  24.018   6.204  11.935
95139W        W68207   9.246  26.953   3.242
95140W        W68208  17.604  10.696  11.508
95141W        W68209  13.802  10.847   2.752
95142W        W68210  16.601  21.049   3.912
95143W        W68211  28.060  31.438  14.482
95144W        W68212  37.567  37.904   2.750
95145W        W68213  20.630  18.567  11.967
95146W        W68214  25.421  18.531   4.324
95147W        W68215  16.277  26.230   1.298
95148W        W68216  25.523  28.666   0.884
95149W        W68217   2.291  23.374   2.874
95150W        W68218  14.745  38.028   0.099
95151W        W68219  26.049   2.994  13.343
95152W        W68220  14.060  22.237  11.681
95153W        W68221  39.444  37.545   1.759
95154W        W68222  13.349   2.813   4.903
95155W        W68223  29.074  30.991  13.089
95156W        W68224  11.453  13.003   3.131
95157W        W68225  39.397  20.711   0.310
95158W        W68226  41.364  35.305  14.422
95159W        W68227  12.243  41.467   1.461
95160W        W68228   8.089  40.003  14.889
95161W        W68229   6.904  23.339  13.093
95162W        W68230  42.242  23.491  13.999
95163W        W68231   0.318   4.159  11.593
95164W        W68232  28.240  14.681  14.451
95165W        W68233  27.073   4.359  13.797
95166W        W68234   2.123  35.546   1.828
95167W        W68235  19.541  16.168  13.519
95168W        W68236   1.621  12.715   1.754
95169W        W68237  27.778  31.458   3.242
95170W        W68238   2.799  18.095  12.330
95171W        W68239  21.181   8.214   3.023
95172W        W68240   2.919  27.537  12.442
95173W        W68241  44.896  30.494   1.287
95174W        W68242  41.060  41.968   3.709
95175W        W68243   0.326  44.145   2.639
95176W        W68244  44.010  13.852   0.783
95177W        W68245  23.707  28.504   0.331
95178W        W68246  15.200   1.781   1.345
95179W        W68247  13.193  30.505   1.063
95180W        W68248  28.953  37.646   3.767
95181W        W68249   5.354  12.166   0.856
95182W        W68250  23.473  43.031   3.624
95183W        W68251  39.483  33.102   3.719
95184W        W68252   5.448  21.022   0.277
95185W        W68253   8.189  10.607   2.748
95186W        W68254  37.818  37.039  11.125
95187W        W68255  19.636  40.898  11.644
95188W        W68256  10.781  18.019   4.337
95189W        W68257  17.690  10.776   2.643
95190W        W68258  25.937   3.781  13.775
95191W        W68259  40.985  40.032   0.422
95192W        W68260   3.028   4.110   2.278
95193W        W68261  17.958  31.468   2.145
95194W        W68262  11.106  34.627  11.567
95195W        W68263  23.025   7.653  13.557
95196W        W68264  41.038  31.860   2.001
95197W        W68265  41.744  35.588   3.203
95198W        W68266  32.016   2.204   3.048
95199W        W68267  32.811   6.031  13.789
95200W        W68268  27.901  13.690   0.231
95201W        W68269   6.194  39.908  11.456
95202W        W68270   7.894  10.764   2.168
95203W        W68271  43.389  25.229  11.159
95204W        W68272  42.692  39.317   1.793
95205W        W68273  22.518  24.916  13.338
95206W        W68274  34.315  18.644   0.210
95207W        W68275  23.779  20.663  11.096
95208W        W68276   9.262  40.538   0.245
95209W        W68277  29.104   7.831  14.320
95210W        W68278   8.210  17.550  13.854
95211W        W68279  20.539   0.086   0.717
95212W        W68280   4.393  25.279  13.393
95213W        W68281  42.481  41.947   0.405
95214W        W68282  29.189  28.484  11.858
95215W        W68283  21.350  39.758   4.188
95216W        W68284  28.699  13.311  12.067
95217W        W68285   8.323  35.519  14.103
95218W        W68286  27.834  39.586  12.612
95219W        W68287  29.619  40.512  11.519
95220W        W68288  19.167  36.879   2.252
95221W        W68289  27.185  28.429  12.878
95222W        W68290  16.412  14.616  13.346
95223W        W68291  39.976  36.148   0.979
95224W        W68292  41.799  16.141  12.580
95225W        W68293  35.639  32.852   0.411
95226W        W68294  13.329  27.859   5.075
95227W        W68295   3.874  40.817   2.433
95228W        W68296  32.701  31.122   3.754
95229W        W68297  23.553   6.191   4.269
95230W        W68298   0.911   9.861  14.861
95231W        W68299  30.428  36.893   0.955
95232W        W68300  24.520  31.543   3.748
95233W        W68301  31.912   6.889  11.168
95234W        W68302  15.224  41.968   2.943
95235W        W68303  33.516  30.920   0.419
95236W        W68304  31.059  24.182  13.816
95237W        W68305  13.863  24.084  10.617
95238W        W68306  20.667   5.852   1.475
95239W        W68307   7.980  30.030  13.551
95240W        W68308  33.641  43.440   2.001
95241W        W68309  10.897  32.374  13.361
95242W        W68310  29.898  21.847   3.133
95243W        W68311   7.925  28.195  14.823
95244W        W68312   3.222  26.538  14.546
95245W        W68313  27.688  10.650  12.139
95246W        W68314  41.038  34.112  14.987
95247W        W68315  27.632  16.812   3.689
95248W        W68316  17.069   5.452   1.504
95249W        W68317  41.927  22.256  12.073
95250W        W68318  22.670  22.064   0.879
95251W        W68319  28.555  19.319  14.744
95252W        W68320  39.311  12.225   3.190
95253W        W68321   4.500  44.993  12.080
95254W        W68322  42.809  43.335  12.792
95255W        W68323   1.904  12.176  12.046
95256W        W68324   8.627  23.305  12.660
95257W        W68325   9.245  24.470  14.343
95258W        W68326  28.439  28.123  10.552
95259W        W68327   8.401  44.556   1.368
95260W        W68328   0.288  42.716   3.874
95261W        W68329  27.095   6.285   3.399
95262W        W68330  10.939  40.121   2.879
95263W        W68331  31.460  21.776  13.902
95264W        W68332  18.795  22.386   2.925
95265W        W68333  34.308  36.359  14.482
95266W        W68334  43.214  22.668   1.929
95267W        W68335  36.091  16.636   1.288
95268W        W68336  26.708   1.346   1.833
95269W        W68337  25.206  27.164  11.153
95270W        W68338  10.383   7.359   3.206
95271W        W68339  33.667  29.132   4.658
95272W        W68340  30.397  18.059  11.142
95273W        W68341  32.518  21.448  11.448
95274W        W68342  28.704  27.443   2.961
95275W        W68343   6.701  44.815   2.696
95276W        W68344  40.540  44.355   2.770
95277W        W68345  17.012   6.824  10.005
95278W        W68346   0.415  44.902  10.641
95279W        W68347   5.654  15.103   0.072
95280W        W68348  21.246  11.784  10.767
95281W        W68349  11.168  40.416   0.256
95282W        W68350   8.358   0.434  13.372
95283W        W68351  40.554   5.384  11.135
95284W        W68352   8.927  12.132   0.873
95285W        W68353  29.793   6.969  12.995
95286W        W68354  30.560  27.218   3.713
95287W        W68355  16.385   7.950  12.540
95288W        W68356  17.067   4.060   0.726
95289W        W68357  31.055  14.627   0.444
95290W        W68358  14.317  12.611   0.431
95291W        W68359   4.841  44.826   0.997
95292W        W68360  13.148  37.270   1.642
95293W        W68361  39.981  26.207   3.876
95294W        W68362  27.699  27.530   2.752
95295W        W68363  13.261   5.451  11.430
95296W        W68364   6.229  39.284  12.361
95297W        W68365  18.878  24.749   3.207
95298W        W68366  19.932  21.062  12.548
95299W        W68367  10.860  44.654   0.042
95300W        W68368  40.160   4.831   3.340
95301W        W68369  30.010   8.748  11.137
95302W        W68370   1.972  23.862  11.743
95303W        W68371  30.979  20.200   3.548
95304W        W68372   6.485  35.935   3.541
95305W        W68373  31.595  34.421  13.938
95306W        W68374   7.876  41.308  12.304
95307W        W68375   6.148  12.324   4.241
95308W        W68376  13.135  44.913   0.103
95309W        W68377  24.982  27.043  14.437
95310W        W68378  21.079  19.075   0.365
95311W        W68379  27.680  26.657   3.705
95312W        W68380  18.280  41.524  10.699
95313W        W68381  31.572   4.186  14.949
95314W        W68382  33.102  42.554   0.298
95315W        W68383  27.072  24.477  12.555
95316W        W68384  39.861  16.257  10.284
95317W        W68385  29.224  25.087   4.534
95318W        W68386  34.562  23.306   1.946
95319W        W68387  42.741  19.237   1.925
95320W        W68388  26.205  11.130  14.462
95321W        W68389  21.502  40.861  13.300
95322W        W68390  38.382   8.406   3.711
95323W        W68391  36.955  17.296   1.896
95324W        W68392  23.234   8.709  11.028
95325W        W68393  35.496  20.473   4.753
95326W        W68394  44.686  39.445  11.516
95327W        W68395  20.595   2.703  11.510
95328W        W68396  22.115   4.882   2.898
95329W        W68397  32.588  40.975  11.370
95330W        W68398  19.164   4.244   1.820
95331W        W68399  24.741  14.188   1.194
95332W        W68400   1.526  33.178   0.850
95333W        W68401   7.314  11.395  11.069
95334W        W68402  32.992  42.794   1.491
95335W        W68403  40.614   2.776   3.807
95336W        W68404   3.388  18.550   2.837
95337W        W68405  38.019  15.950   0.845
95338W        W68406   2.740   9.559  14.209
95339W        W68407   9.140   9.143   0.504
95340W        W68408   5.806   6.861   4.606
95341W        W68409   7.395  10.829  11.933
95342W        W68410  33.841  21.623   1.141
95343W        W68411  33.635  17.333   9.943
95344W        W68412  25.656   0.240   3.496
95345W        W68413  42.203   0.264  13.389
95346W        W68414  22.220  22.503  13.374
95347W        W68415  10.434   5.740   2.697
95348W        W68416  39.876  35.638  14.301
95349W        W68417   4.333  31.223   3.705
95350W        W68418  12.710  26.996  13.955
95351W        W68419   8.865  33.768  11.948
95352W        W68420  17.850   1.858  11.146
95353W        W68421  25.538  21.721   4.513
95354W        W68422  39.487  32.096   3.666
95355W        W68423  10.811  17.557   1.982
95356W        W68424   3.470  11.169   3.730
95357W        W68425  38.430  41.801  13.346
95358W        W68426  19.938   9.213   1.180
95359W        W68427  16.899  40.527   0.876
95360W        W68428   4.182   8.584   2.021
95361W        W68429  10.762  17.188   0.710
95362W        W68430  24.619  38.319  14.459
95363W        W68431   4.258  16.397   0.271
95364W        W68432  31.545  37.868  14.932
95365W        W68433  25.177   9.244   3.644
95366W        W68434  24.739  21.009  14.450
95367W        W68435   8.495  26.906  14.319
95368W        W68436  44.227  16.791   4.521
95369W        W68437   2.433  15.501  14.486
95370W        W68438  32.032  23.201  14.709
95371W        W68439  33.101  18.226  13.512
95372W        W68440  35.620   5.343   2.328
95373W        W68441  12.878  17.153  14.477
95374W        W68442  21.604   9.386  13.872
95375W        W68443  10.161  38.091   0.984
95376W        W68444  21.268  16.834  10.598
95377W        W68445  30.841  44.415  10.892
95378W        W68446  19.157   5.263   3.907
95379W        W68447  24.512  24.754  13.156
95380W        W68448  44.450   7.363  12.555
95381W        W68449  39.344  26.965  12.091
95382W        W68450  24.768  27.355   2.189
95383W        W68451  28.211  33.674  12.987
95384W        W68452  17.216  17.358   3.760
95385W        W68453  25.624  31.999   0.748
95386W        W68454  28.023  42.392  12.896
95387W        W68455  22.558  32.743   3.632
95388W        W68456   1.135  25.700   2.820
95389W        W68457  35.323  24.565  14.467
95390W        W68458  32.079   0.727  12.588
95391W        W68459  34.865  26.962  12.831
95392W        W68460  42.449  12.279  13.059
95393W        W68461  24.098  10.938   0.902
95394W        W68462  37.858  27.603  14.495
95395W        W68463  39.176  39.398  11.807
95396W        W68464   6.950   7.648  11.142
95397W        W68465  12.709  34.517   3.619
95398W        W68466  17.652   6.803  14.311
95399W        W68467   0.260  24.465   3.790
95400W        W68468   9.876  44.371   2.814
95401W        W68469  12.049  26.683  13.047
95402W        W68470  16.807  36.615  14.024
95403W        W68471  34.600  28.967  11.597
95404W        W68472  39.932  13.320   1.679
95405W        W68473  35.840  43.203  11.020
95406W        W68474  41.978  18.963   4.514
95407W        W68475  12.671   4.421  11.416
95408W        W68476  41.492   3.666   4.061
95409W        W68477  18.961  10.338   4.368
95410W        W68478  35.893   6.128  13.883
95411W        W68479   6.333  15.490  13.445
95412W        W68480  12.743  21.433   2.542
95413W        W68481   7.014  12.653  13.448
95414W        W68482   8.789  32.058  11.815
95415W        W68483  10.124   7.851   3.138
95416W        W68484  40.877  30.126   4.605
95417W        W68485   4.579  20.165  13.924
95418W        W68486  12.274  36.054  14.264
95419W        W68487  12.887  27.996   4.241
95420W        W68488  24.701  25.170  12.496
95421W        W68489   4.410  35.575  12.223
95422W        W68490  12.409  44.355  10.705
95423W        W68491  36.385  24.715   3.234
95424W        W68492  42.418  36.034  13.448
95425W        W68493  25.975  21.678  11.590
95426W        W68494  33.269  26.956  14.901
95427W        W68495  37.078  32.736   0.319
95428W        W68496  29.409  30.988  13.492
95429W        W68497   4.455  24.197  14.570
95430W        W68498  40.392  12.319  10.521
95431W        W68499   7.382   1.193   4.685
95432W        W68500  23.019  27.285  12.888
95433W        W68501  38.804  30.133   3.664
95434W        W68502  24.106  20.501   0.844
95435W        W68503  26.301  20.716  14.566
95436W        W68504   0.365  25.726   3.137
95437W        W68505   5.700   8.613  13.027
95438W        W68506  18.031  32.140  11.575
95439W        W68507   9.718   5.398  10.706
95440W        W68508  38.490  16.370  13.379
95441W        W68509  12.590  41.827   4.706
95442W        W68510  11.247  43.527  12.061
95443W        W68511  43.363   8.700  12.592
95444W        W68512  42.995  41.857   2.790
95445W        W68513  32.764  20.823  11.949
95446W        W68514  26.577   8.664  12.000
95447W        W68515   7.614  19.510   1.806
95448W        W68516   7.734  11.874  10.986
95449W        W68517  33.215   9.359   4.131
95450W        W68518  11.369  26.635   0.237
95451W        W68519  26.287   3.258  10.438
95452W        W68520  18.060  30.352   2.882
95453W        W68521  24.115  30.139   0.170
95454W        W68522  19.662  31.952  14.994
95455W        W68523   2.660  19.629  11.013
95456W        W68524   5.885  35.128  14.040
95457W        W68525  27.293   9.781  11.577
95458W        W68526   2.757  12.705   1.099
95459W        W68527  40.646  25.245  10.272
95460W        W68528  34.547  19.076   2.849
95461W        W68529  19.311  26.620   0.753
95462W        W68530   0.357  28.890  14.058
95463W        W68531  39.862   6.332   9.877
95464W        W68532   6.488  29.017   5.055
95465W        W68533  41.716   0.726   2.653
95466W        W68534  44.472  36.795  14.568
95467W        W68535  41.508   8.690   2.181
95468W        W68536  12.034  10.916  13.393
95469W        W68537   2.802  24.606   0.647
95470W        W68538  24.144  23.225  13.946
95471W        W68539  35.498  35.994   0.838
95472W        W68540  13.315   5.817  10.912
95473W        W68541  30.985  25.073  11.483
95474W        W68542  17.292  41.447  13.700
95475W        W68543  41.794  32.528  12.406
95476W        W68544  30.437  22.230  14.364
95477W        W68545   0.828  12.236   1.780
95478W        W68546  42.425  23.107  14.818
95479W        W68547   9.795  22.979   4.872
95480W        W68548   5.675  33.231  12.391
95481W        W68549  19.232  35.955   4.716
95482W        W68550   2.917  34.038   4.800
95483W        W68551  19.477  43.887  10.726
95484W        W68552   1.816  29.879  10.759
95485W        W68553  23.405   6.656   3.156
95486W        W68554  37.460   6.192  11.575
95487W        W68555  39.957  25.808  12.149
95488W        W68556  23.912  28.518   1.853
95489W        W68557  16.266  30.447  10.695
95490W        W68558  41.001  11.805   0.935
95491W        W68559  18.671  25.164   4.147
95492W        W68560  21.429  16.777   9.966
95493W        W68561   7.450   1.464   3.770
95494W        W68562  27.440  13.478   0.337
95495W        W68563   1.224   1.701   2.385
95496W        W68564  20.145  18.248  10.282
95497W        W68565  21.527   9.955  13.927
95498W        W68566  26.749  22.601   3.283
95499W        W68567  27.645  44.330   1.674
95500W        W68568  40.981   1.231   1.811
95501W        W68569  22.523  10.181   1.186
95502W        W68570  25.316  37.548   9.577
95503W        W68571  22.254  44.878  13.383
95504W        W68572  20.210  30.587  11.414
95505W        W68573  29.468  12.184   4.284
95506W        W68574   7.337  42.009  14.479
95507W        W68575  13.644  30.528   3.612
95508W        W68576   6.852   0.432  12.568
95509W        W68577  35.856  37.803   2.733
95510W        W68578  24.750  15.235  12.949
95511W        W68579  43.786  33.400  14.302
95512W        W68580  18.188  20.509   3.907
95513W        W68581  24.060  42.838   1.860
95514W        W68582  16.643  25.231   1.016
95515W        W68583  28.590  38.959  14.291
95516W        W68584   1.051  28.222   1.697
95517W        W68585  29.323  19.273   2.378
95518W        W68586  11.313  32.686  12.460
95519W        W68587   8.643   3.680   1.886
95520W        W68588  21.969   9.189   3.529
95521W        W68589  33.626  35.376  14.262
95522W        W68590  11.765  30.150   0.803
95523W        W68591  29.511  40.822  11.115
95524W        W68592  21.713  17.706  14.813
95525W        W68593   0.869  43.483  10.717
95526W        W68594  18.547  25.591   1.246
95527W        W68595  25.121   3.759  10.711
95528W        W68596   9.346  20.424   2.409
95529W        W68597  31.053  42.955   3.589
95530W        W68598  27.692   3.970  13.339
95531W        W68599   2.174  30.183   4.550
95532W        W68600  20.104   2.111  11.439
95533W        W68601   4.410  17.848  11.163
95534W        W68602   3.199   2.874  11.921
95535W        W68603  15.665  18.183   0.498
95536W        W68604  37.277   3.373  14.901
95537W        W68605  42.871  19.559   2.318
95538W        W68606   8.191  18.866  14.285
95539W        W68607  20.803  18.641   0.320
95540W        W68608  31.476   8.411  11.925
95541W        W68609  42.949  18.710   4.070
95542W        W68610  20.328  25.655   0.853
95543W        W68611  23.590  29.981   2.695
95544W        W68612  28.022  25.489   2.333
95545W        W68613  22.101   3.805  10.841
95546W        W68614  24.282  18.692   4.533
95547W        W68615   0.912  40.381  10.656
95548W        W68616  20.746  44.834  13.637
95549W        W68617   1.478  41.369  10.706
95550W        W68618  22.132   0.715  12.411
95551W        W68619  27.637  37.184   4.716
95552W        W68620  13.492  39.531  11.032
95553W        W68621  18.153  16.775  14.642
95554W        W68622  17.300  26.960   0.650
95555W        W68623  16.593   6.757  13.624
95556W        W68624  35.626  15.416  13.418
95557W        W68625  18.487  24.214   3.151
95558W        W68626  20.298   3.764   4.578
95559W        W68627  39.808  18.030   2.747
95560W        W68628  18.636  34.054  11.102
95561W        W68629  42.450  20.472  12.921
95562W        W68630  14.823  31.297  14.984
95563W        W68631  26.435   9.352  12.425
95564W        W68632   6.355  13.264  12.032
95565W        W68633  15.917  38.895  11.387
95566W        W68634  26.702  43.475  11.491
95567W        W68635  26.608  34.101   2.912
95568W        W68636  31.623   4.815   2.380
95569W        W68637   8.629  10.271   3.747
95570W        W68638   2.920  15.243   0.921
95571W        W68639  32.510  16.849   0.258
95572W        W68640  33.450  41.693  12.057
95573W        W68641  10.718   5.934  12.812
95574W        W68642  12.432  40.405  14.577
95575W        W68643  26.863   8.237  14.247
95576W        W68644  19.546  34.073   3.090
95577W        W68645  34.291  43.402  11.168
95578W        W68646  40.570   6.571   5.140
95579W        W68647  25.610  43.320  10.764
95580W        W68648  15.606   4.091  11.189
95581W        W68649  12.985   6.984   1.366
95582W        W68650  41.512  20.735  12.437
95583W        W68651  25.179  12.591  14.797
95584W        W68652  29.375  43.323  11.090
95585W        W68653  33.880   0.978  11.051
95586W        W68654  20.618  19.143   1.641
95587W        W68655   0.235   6.323   0.943
95588W        W68656  19.303   4.931   3.206
95589W        W68657   8.209  42.502  14.933
95590W        W68658  29.063  32.440   2.321
95591W        W68659  16.318  13.362  13.018
95592W        W68660  22.622   9.275  10.594
95593W        W68661  13.723   4.292  11.192
95594W        W68662  23.311  43.839  12.021
95595W        W68663  11.048  17.829   5.285
95596W        W68664  16.129  18.888  13.313
95597W        W68665   8.407  13.275  12.536
95598W        W68666  12.704  38.714   1.344
95599W        W68667  37.814  39.388   0.676
95600W        W68668  41.229   2.774  12.528
95601W        W68669  44.673  35.533  11.945
95602W        W68670  36.323  40.075   3.346
95603W        W68671  25.682  28.949  11.924
95604W        W68672   1.991  22.014   0.625
95605W        W68673  11.157   4.322   1.404
95606W        W68674  17.121  44.392   1.722
95607W        W68675  40.561  34.941  11.193
95608W        W68676   2.983  11.522  11.007
95609W        W68677  10.636  29.252  14.608
95610W        W68678  14.960  26.157  12.194
95611W        W68679  10.288  33.610  11.230
95612W        W68680  17.847  29.140   0.451
95613W        W68681  34.433   1.776   3.733
95614W        W68682   6.183  36.830  12.470
95615W        W68683  41.415  20.186   4.148
95616W        W68684  13.350  39.549  11.540
95617W        W68685   3.787  43.397   4.995
95618W        W68686  37.308  18.834   4.096
95619W        W68687  31.672   4.868   3.803
95620W        W68688  35.098  34.575  11.501
95621W        W68689  42.012  25.312  12.025
95622W        W68690  37.660   5.681  14.903
95623W        W68691  38.836   3.152  13.359
95624W        W68692  43.327   5.302  14.065
95625W        W68693  36.123  26.507   4.149
95626W        W68694  42.794  15.074   1.004
95627W        W68695   9.864  27.045   4.696
95628W        W68696   7.338  25.871  11.156
95629W        W68697  17.594   1.223   1.813
95630W        W68698  39.801  13.679  12.434
95631W        W68699  25.015  17.333  12.572
95632W        W68700  28.654   1.412  14.612
95633W        W68701   0.959  20.927   0.949
95634W        W68702  28.557  27.382   4.935
95635W        W68703   5.370  18.744   0.347
95636W        W68704   3.283  29.510  14.948
95637W        W68705   1.928   0.592   2.851
95638W        W68706  11.302  13.154   3.598
95639W        W68707  36.330   5.389  13.052
95640W        W68708  23.642  29.742  12.429
95641W        W68709  19.309  38.484  11.632
95642W        W68710  36.163  23.283  10.622
95643W        W68711  34.622  22.524  13.316
95644W        W68712  42.962  39.082   3.328
95645W        W68713  33.896  40.564  12.126
95646W        W68714   9.476  43.124   1.534
95647W        W68715  22.014   9.731  13.816
95648W        W68716  41.008   7.324   1.036
95649W        W68717  12.888   5.737  11.205
95650W        W68718  23.878   1.963  14.718
95651W        W68719  42.428  19.807  13.574
95652W        W68720   1.815  19.653   1.658
95653W        W68721   5.797  40.006   0.431
95654W        W68722  40.545  34.071   3.219
95655W        W68723  31.603  39.376  10.612
95656W        W68724   1.244  30.260   0.493
95657W        W68725  10.341  39.056   2.532
95658W        W68726  28.940  20.456  12.332
95659W        W68727  40.264  38.984   1.870
95660W        W68728  36.536  23.995  10.086
95661W        W68729  23.522   9.938   3.791
95662W        W68730  10.144  33.882  11.644
95663W        W68731  30.475  15.309   4.624
95664W        W68732  23.614  17.195  10.585
95665W        W68733   9.283  21.432  12.964
95666W        W68734  30.674  35.134   2.874
95667W        W68735   6.606   0.769   4.246
95668W        W68736  29.582  30.859   4.643
95669W        W68737   7.822  38.466   4.139
95670W        W68738  21.627  39.871   3.745
95671W        W68739  17.771  14.333   4.083
95672W        W68740  43.956   0.874  13.316
95673W        W68741  35.193  34.573   2.667
95674W        W68742  39.381  39.221  14.341
95675W        W68743  33.374  11.817   0.923
95676W        W68744  30.352   2.497   2.989
95677W        W68745  22.350  16.735   3.772
95678W        W68746  40.547   8.800   2.635
95679W        W68747  14.745   7.610   4.648
95680W        W68748  41.511  20.461  13.820
95681W        W68749   5.371  19.287  13.470
95682W        W68750  14.902  29.178   3.881
95683W        W68751  12.914  31.919   9.890
95684W        W68752  19.967   2.509  13.434
95685W        W68753  30.475  36.397   3.349
95686W        W68754   4.643  30.564   0.788
95687W        W68755  21.227   6.629  12.023
95688W        W68756  22.088   4.868  13.439
95689W        W68757   6.228  11.401   4.646
95690W        W68758  25.640  41.933  13.323
95691W        W68759  37.038   2.904  12.529
95692W        W68760  18.590  25.207  14.026
95693W        W68761   9.945   4.150   3.779
95694W        W68762  12.716  30.811   2.457
95695W        W68763  14.590  18.692  13.009
95696W        W68764  28.430  19.216   2.422
95697W        W68765  14.665  31.872   2.245
95698W        W68766  24.970   9.214  14.972
95699W        W68767   0.010  41.932   2.868
95700W        W68768  25.734  38.823  12.701
95701W        W68769  16.650  30.877   0.541
95702W        W68770  24.616  28.667  12.497
95703W        W68771  40.285  21.190   1.810
95704W        W68772  33.589   5.975  13.869
95705W        W68773  20.228  17.324  12.445
95706W        W68774  31.294  18.205  12.008
95707W        W68775  41.055  12.588  14.406
95708W        W68776  11.604  35.989  12.699
95709W        W68777  23.827  42.824   2.768
95710W        W68778  34.772  41.240   3.635
95711W        W68779  36.132  30.136   2.784
95712W        W68780  14.356  20.042  12.981
95713W        W68781  11.483  24.522   1.442
95714W        W68782  39.888  36.067   0.482
95715W        W68783  39.553  34.176  10.711
95716W        W68784  13.216  41.814   2.443
95717W        W68785   0.796  36.541  12.899
95718W        W68786  41.013  17.806  12.467
95719W        W68787  25.172  23.070   4.200
95720W        W68788   5.944  18.192   1.396
95721W        W68789   9.634  41.552   5.066
95722W        W68790  40.458  31.240  12.519
95723W        W68791  33.416  39.910   1.374
95724W        W68792  33.351  12.694   2.016
95725W        W68793  13.563  12.744  12.939
95726W        W68794  36.501  11.731  13.339
95727W        W68795  19.277  17.653   4.141
95728W        W68796   8.614  28.099   3.757
95729W        W68797   5.349  37.362   1.844
95730W        W68798  15.669   6.848   4.272
95731W        W68799  29.049  33.994   3.044
95732W        W68800   6.666  15.181   3.775
95733W        W68801   9.134  33.828  12.928
95734W        W68802   1.342  30.994   3.211
95735W        W68803  31.960   6.546  13.273
95736W        W68804   1.352  25.751  10.569
95737W        W68805  31.340  17.310  13.986
95738W        W68806  31.721   4.840  14.455
95739W        W68807  33.026  11.751  10.795
95740W        W68808  33.341   0.310   0.531
95741W        W68809  18.792  40.600   0.803
95742W        W68810  18.142  28.905  11.050
95743W        W68811  29.981  20.428   4.482
95744W        W68812   7.877  37.075  13.112
95745W        W68813   7.477  17.786   4.296
95746W        W68814  13.363  29.619  12.473
95747W        W68815   1.494  32.516  14.315
95748W        W68816  30.343  34.395   4.005
95749W        W68817  43.184  34.920  12.507
95750W        W68818  26.714  44.985   0.275
95751W        W68819   1.380  28.191   2.653
95752W        W68820  25.435  21.765  12.466
95753W        W68821   9.805  14.346   4.525
95754W        W68822  34.397  22.809   4.221
95755W        W68823  24.474   1.927   2.678
95756W        W68824  28.377  32.486  13.609
95757W        W68825  33.202  12.291  13.483
95758W        W68826  38.859  29.211   0.792
95759W        W68827  40.328   9.598   4.878
95760W        W68828  19.287   1.623  11.116
95761W        W68829  37.837  12.320   3.754
95762W        W68830  15.142  39.744   2.880
95763W        W68831  13.630  30.924   2.843
95764W        W68832  37.041  20.795  10.580
95765W        W68833   6.129  23.630  11.516
95766W        W68834   0.942  32.484   0.736
95767W        W68835  41.028  22.277   1.467
95768W        W68836  36.849  25.885  10.934
95769W        W68837  44.713  28.607   2.798
95770W        W68838  26.660  41.256   4.102
95771W        W68839  33.448  26.599   2.701
95772W        W68840   9.269  18.894  12.319
95773W        W68841   7.336  28.923  11.137
95774W        W68842  36.934  44.189  13.438
95775W        W68843  15.279   3.594  14.384
95776W        W68844  22.149   3.045  12.645
95777W        W68845  13.394  42.953  12.864
95778W        W68846  15.394  19.661  12.161
95779W        W68847  38.155  34.815  12.838
95780W        W68848  35.854   8.780  11.571
95781W        W68849  19.241  27.116   0.510
95782W        W68850  16.516  40.901   2.840
95783W        W68851  29.075  18.978  14.571
95784W        W68852   2.928  26.754   3.727
95785W        W68853   9.964  19.529   3.230
95786W        W68854   8.150  39.448  12.078
95787W        W68855  28.724  26.712  12.475
95788W        W68856  16.540  41.779   2.722
95789W        W68857  20.749  29.506  11.094
95790W        W68858  20.610  36.598   4.530
95791W        W68859  25.679  23.219   2.921
95792W        W68860  44.411  25.052  12.855
95793W        W68861   0.801   9.991   2.846
95794W        W68862  14.732  25.044  13.495
95795W        W68863   9.746  14.697  14.754
95796W        W68864  10.628  11.382  13.326
95797W        W68865  30.590  38.259  13.987
95798W        W68866  14.568   4.685   4.761
95799W        W68867  20.254  33.346   1.018
95800W        W68868  25.555  41.081   2.371
95801W        W68869   4.522   2.316  13.890
95802W        W68870  13.742  18.642  14.485
95803W        W68871  10.569  29.620   0.379
95804W        W68872  25.018   1.367   3.156
95805W        W68873   4.258  21.776  12.978
95806W        W68874  12.263  23.064  13.897
95807W        W68875  31.873   4.655  11.601
95808W        W68876  26.548  25.079   1.384
95809W        W68877  42.082  35.106   0.432
95810W        W68878  12.322  33.317  11.902
95811W        W68879  11.989  34.135   4.054
95812W        W68880   8.506   5.060  12.460
95813W        W68881  35.123   6.129  12.040
95814W        W68882   1.241  37.634   2.671
95815W        W68883  32.162  11.320  13.216
95816W        W68884  35.835  31.378   1.675
95817W        W68885  43.821  16.189  11.172
95818W        W68886   5.308  44.434  12.900
95819W        W68887  16.423   0.414   1.444
95820W        W68888  17.363   0.884   3.088
95821W        W68889  30.573  18.316   2.732
95822W        W68890   3.871  25.414  13.370
95823W        W68891   1.464  29.971  11.943
95824W        W68892  15.295  16.284   2.783
95825W        W68893   5.927   2.235   3.691
95826W        W68894  21.295  21.055   4.688
95827W        W68895  35.309  26.042   0.050
95828W        W68896  38.322  31.093   1.799
95829W        W68897  29.435  11.552  10.251
95830W        W68898  36.551  44.582  13.678
95831W        W68899   8.608   4.723  10.629
95832W        W68900  16.630  40.078   0.906
95833W        W68901   8.815  24.121   0.735
95834W        W68902   5.818  22.801  11.120
95835W        W68903  14.126   7.678   3.275
95836W        W68904  37.147  11.233   2.157
95837W        W68905  41.825  40.859   4.074
95838W        W68906   0.851   4.365   3.185
95839W        W68907  40.455  23.636  11.077
95840W        W68908  28.119  14.916  12.644
95841W        W68909  20.613  10.256   3.072
95842W        W68910  26.417  31.654   0.903
95843W        W68911   7.998  10.773   1.170
95844W        W68912  43.159  17.744   2.817
95845W        W68913  16.989  33.501  14.347
95846W        W68914   2.084   0.778  12.616
95847W        W68915   7.916   8.952  10.991
95848W        W68916  23.689   8.294   4.189
95849W        W68917  30.919  21.513   3.343
95850W        W68918  41.975  43.404   3.773
95851W        W68919  30.984  19.959  11.532
95852W        W68920  35.340  43.208  11.695
95853W        W68921  41.530  26.562  10.867
95854W        W68922  43.383  33.568   3.019
95855W        W68923  10.558  23.780   3.784
95856W        W68924  43.941   3.338  10.538
95857W        W68925  36.436   7.228   4.104
95858W        W68926  24.097  13.579  12.028
95859W        W68927   6.261  26.445  14.873
95860W        W68928  36.372  32.984  12.035
95861W        W68929   7.247  33.962  14.273
95862W        W68930  29.088  16.218  13.858
95863W        W68931   1.880   5.786  13.881
95864W        W68932   2.794  15.868   0.455
95865W        W68933  37.291  24.521   2.204
95866W        W68934   0.520  35.381   1.153
95867W        W68935  33.886  41.242  11.272
95868W        W68936  13.544  33.655   2.454
95869W        W68937  20.816  19.537  12.006
95870W        W68938   4.519   4.801   4.322
95871W        W68939  25.077  29.572  12.929
95872W        W68940  26.547   8.106  13.837
95873W        W68941  33.729   2.346   2.750
95874W        W68942   5.817  26.727   4.817
95875W        W68943  27.021  19.734  12.856
95876W        W68944  15.708  25.583   2.102
95877W        W68945  33.540  35.498  10.621
95878W        W68946  35.040  40.879   3.410
95879W        W68947   0.498  17.239   1.327
95880W        W68948  25.385   4.397   4.626
95881W        W68949  39.929  17.265  12.014
95882W        W68950  32.918  21.732   2.174
95883W        W68951  11.187  18.708   0.811
95884W        W68952   3.770  29.484  13.862
95885W        W68953  35.082  20.598   0.260
95886W        W68954   5.289  31.091   0.708
95887W        W68955  41.005  20.989   0.564
95888W        W68956  14.844   1.407   1.267
95889W        W68957  25.472  35.033   2.671
95890W        W68958  28.708   2.160   4.764
95891W        W68959  29.139   3.844   0.174
95892W        W68960   2.816  25.565  12.027
95893W        W68961   2.586   5.696   0.032
95894W        W68962  27.980  20.744  14.042
95895W        W68963  31.890   9.382   3.614
95896W        W68964  21.782  29.428  11.126
95897W        W68965  16.736  17.998  10.615
95898W        W68966   6.165  24.562  10.881
95899W        W68967  15.834  18.277  12.067
95900W        W68968  22.922  14.341  11.603
95901W        W68969  11.777  15.770  14.949
95902W        W68970   7.560  28.132   5.004
95903W        W68971  25.154  11.321   5.175
95904W        W68972   1.692  13.266  14.368
95905W        W68973  42.578   9.329   3.157
95906W        W68974  31.947  12.607   1.939
95907W        W68975  21.280  14.341  13.995
95908W        W68976  39.032  23.715   2.222
95909W        W68977  23.454   9.434  11.549
95910W        W68978  33.484  10.439   2.616
95911W        W68979  30.588   6.695   3.530
95912W        W68980  15.228  18.596  14.240
95913W        W68981  28.973  39.531  13.892
95914W        W68982  20.170   7.346  13.325
95915W        W68983  24.033  34.830   4.538
95916W        W68984   4.341  10.834  14.352
95917W        W68985   5.426  23.144  11.601
95918W        W68986  23.764  13.826  11.668
95919W        W68987  42.958   0.239  12.294
95920W        W68988  40.321  36.906   0.304
95921W        W68989   8.449  11.730  13.070
95922W        W68990  30.512  25.067  10.638
95923W        W68991  32.978  15.514   1.199
95924W        W68992  26.084  19.867   1.574
95925W        W68993  14.238  31.328  14.359
95926W        W68994  23.906  19.619  10.457
95927W        W68995   2.959   3.879  10.779
95928W        W68996  15.200  16.372  11.597
95929W        W68997  38.071   9.395   1.871
95930W        W68998   8.718  26.179   2.713
95931W        W68999   9.235   9.229   4.656
95932W        W69000  20.365   1.886   3.610
95933W        W69001  17.309  19.090   1.862
95934W        W69002  26.699  43.768  11.954
95935W        W69003  34.080  29.385   4.868
95936W        W69004  23.947  36.455   2.814
95937W        W69005   9.867   4.264   4.292
95938W        W69006  44.042  16.740  14.867
95939W        W69007  28.371  35.326   2.301
95940W        W69008  26.575  37.382   4.729
95941W        W69009   3.251   3.407   0.756
95942W        W69010  20.640   9.534  14.289
95943W        W69011  39.944  30.463  14.292
95944W        W69012  17.580  21.883  13.388
95945W        W69013  44.951  35.394   2.823
95946W        W69014  27.888  23.622   0.699
95947W        W69015  24.491  19.731   0.687
95948W        W69016  17.047   3.900  10.966
95949W        W69017  11.330   0.674  11.557
95950W        W69018  10.106   3.391   0.343
95951W        W69019  29.040  36.136  12.867
95952W        W69020  20.192  24.274   1.964
95953W        W69021  38.709  39.724   3.559
95954W        W69022  26.627   6.420   0.921
95955W        W69023  23.037   6.446  12.989
95956W        W69024  11.884  11.654  14.287
95957W        W69025  14.221  27.158  13.417
95958W        W69026  11.993  32.990  12.237
95959W        W69027  11.153  24.412   2.198
95960W        W69028  34.158  33.900  14.486
95961W        W69029  29.503   5.630   4.254
95962W        W69030  13.135  16.700  11.595
95963W        W69031  44.447  35.271  14.268
95964W        W69032  24.161  41.899   3.045
95965W        W69033  25.155  12.069  14.838
95966W        W69034  44.055  11.423  13.559
95967W        W69035   3.237   0.182   1.212
95968W        W69036  37.957  38.505   1.445
95969W        W69037  36.367  35.725  13.868
95970W        W69038  20.818  38.383  13.994
95971W        W69039  23.882  38.971   4.106
95972W        W69040  36.407  15.351  14.881
95973W        W69041  39.972  13.221   4.605
95974W        W69042  37.824  35.033  13.640
95975W        W69043  25.616  32.621  14.459
95976W        W69044  12.576  13.501   3.674
95977W        W69045   9.518  26.122   0.790
95978W        W69046   7.397  15.742   0.019
95979W        W69047  20.983   2.353  13.460
95980W        W69048  13.277  40.488  13.247
95981W        W69049  39.845  34.553  14.328
95982W        W69050  29.561  10.645  12.623
95983W        W69051  28.486  29.683  11.603
95984W        W69052   5.946  14.527  10.990
95985W        W69053  13.963   6.220   2.698
95986W        W69054   3.150   9.286  13.101
95987W        W69055  20.795  23.654  14.040
95988W        W69056   4.602  13.667  13.786
95989W        W69057   1.845  13.628   0.024
95990W        W69058  25.472   9.889  12.982
95991W        W69059  13.293  29.819   0.390
95992W        W69060  23.013  39.435  10.889
95993W        W69061  39.299   7.734   1.231
95994W        W69062  20.484  22.203   3.234
95995W        W69063  30.968  26.638   3.094
95996W        W69064  12.138  44.041   2.787
95997W        W69065  16.272  30.886   2.286
95998W        W69066  41.385  31.484   2.450
95999W        W69067  10.205   1.233   3.731
96000W        W69068  15.653  12.915   0.401
96001W        W69069  24.981  20.536  14.377
96002W        W69070  24.229   4.737  12.060
96003W        W69071   9.811  43.294   0.095
96004W        W69072   1.999  11.649  11.259
96005W        W69073  28.379  38.495  13.272
96006W        W69074   5.489  27.167   4.209
96007W        W69075  36.484  24.409  11.056
96008W        W69076  33.896  34.114  13.610
96009W        W69077  13.276  37.078  11.667
96010W        W69078  38.991  32.318  12.156
96011W        W69079   6.928  41.324   4.614
96012W        W69080  13.615  33.062   4.565
96013W        W69081  25.076  39.930  12.669
96014W        W69082  43.225  20.214  11.125
96015W        W69083  30.239  16.793  11.184
96016W        W69084   0.850  25.932   4.211
96017W        W69085  26.916  24.069   0.255
96018W        W69086  39.055  27.620   0.377
96019W        W69087  39.470  18.294  10.433
96020W        W69088   8.326   8.894  11.601
96021W        W69089  30.266  38.064   1.862
96022W        W69090   4.997  29.553  13.965
96023W        W69091  25.071   1.455  12.412
96024W        W69092  30.179  38.526  13.822
96025W        W69093  26.425  14.631  14.796
96026W        W69094  13.305  34.450   2.765
96027W        W69095  38.590  10.833   1.772
96028W        W69096   7.723  27.908   4.154
96029W        W69097   8.787  27.568   3.783
96030W        W69098  40.059   5.250  12.396
96031W        W69099   8.994  42.277   2.327
96032W        W69100  19.637  36.122   0.252
96033W        W69101  36.536   4.097  11.118
96034W        W69102  37.976  33.379  12.014
96035W        W69103  20.407   9.210   0.957
96036W        W69104  28.902  33.020  12.529
96037W        W69105  22.220  33.373  13.861
96038W        W69106   7.443  29.140  14.707
96039W        W69107   7.982  34.455   0.307
96040W        W69108  26.389  11.392  14.034
96041W        W69109  44.650   0.249   3.647
96042W        W69110  34.102   8.860   3.120
96043W        W69111  11.333  13.931  11.619
96044W        W69112  23.925   5.359   3.766
96045W        W69113  13.241  34.588   0.174
96046W        W69114  23.955  13.676  12.532
96047W        W69115  10.404  24.011  14.251
96048W        W69116  17.397  39.830  11.587
96049W        W69117  36.837  32.950   4.346
96050W        W69118   8.261  18.106   3.692
96051W        W69119  17.144  27.059  10.214
96052W        W69120  33.374   2.820   1.816
96053W        W69121  41.923  27.639  13.270
96054W        W69122  35.899  33.613  10.678
96055W        W69123   6.281  44.588  14.680
96056W        W69124  27.650  30.169  12.907
96057W        W69125  38.767  21.084   0.906
96058W        W69126   1.268  25.056  12.547
96059W        W69127  32.006  20.885  13.029
96060W        W69128  27.608  20.146  14.487
96061W        W69129  20.235  24.500   4.115
96062W        W69130  38.519  24.295   3.885
96063W        W69131  10.291  14.303   4.737
96064W        W69132   3.140   3.799   3.984
96065W        W69133  15.145   6.985  11.580
96066W        W69134  25.089  40.518  13.360
96067W        W69135  34.302  11.262  13.567
96068W        W69136   3.395   0.945  14.501
96069W        W69137  36.489  14.789  11.893
96070W        W69138   8.234   2.463  12.583
96071W        W69139  18.162  34.458  11.661
96072W        W69140   9.349   6.280   3.152
96073W        W69141   3.906  21.510   4.340
96074W        W69142  23.272  19.486  11.073
96075W        W69143  42.029  11.100   3.173
96076W        W69144  10.674   2.813  11.620
96077W        W69145  37.015  21.087   0.769
96078W        W69146  22.435  38.931  13.997
96079W        W69147   5.416   8.205  14.822
96080W        W69148  36.805   4.496   2.160
96081W        W69149   7.103  42.902  10.681
96082W        W69150  39.022   4.922  14.951
96083W        W69151  27.530   7.627  12.031
96084W        W69152  13.585  42.827   3.725
96085W        W69153  28.566  36.162   2.658
96086W        W69154  13.634   7.430  14.880
96087W        W69155   6.723  34.312   1.735
96088W        W69156   3.035   4.874   2.045
96089W        W69157  38.408  30.917  12.639
96090W        W69158  17.673  35.721  11.523
96091W        W69159  37.789  29.586  14.753
96092W        W69160  25.044  34.859   2.422
96093W        W69161  22.084  44.757   3.615
96094W        W69162  12.736  18.180   2.325
96095W        W69163  40.018  20.107   4.415
96096W        W69164  14.445  33.594  12.513
96097W        W69165  11.857  14.080   3.647
96098W        W69166   9.367  32.957   4.501
96099W        W69167  15.235  16.258  14.613
96100W        W69168  17.071  35.578   5.060
96101W        W69169   9.138  41.055  11.209
96102W        W69170  40.037   7.430   5.255
96103W        W69171   4.698  12.329   0.056
96104W        W69172  23.678  19.810   3.282
96105W        W69173  33.896  19.160  11.932
96106W        W69174  13.608  22.173  14.404
96107W        W69175  34.435  18.027  13.393
96108W        W69176  43.731   7.802  11.175
96109W        W69177  22.488  26.481   0.343
96110W        W69178  13.878  30.425   3.170
96111W        W69179  29.043  35.971   3.134
96112W        W69180   8.655   9.433  14.876
96113W        W69181   0.357   6.299  13.493
96114W        W69182  12.725  39.293   2.707
96115W        W69183  36.578  19.250  12.957
96116W        W69184  19.729  26.213  11.114
96117W        W69185  27.704  14.164   3.283
96118W        W69186  39.593  41.022   1.440
96119W        W69187  21.154  19.305   4.676
96120W        W69188  28.056  43.759  10.440
96121W        W69189   8.336  27.048  13.819
96122W        W69190  43.272  32.592   2.597
96123W        W69191  40.965  43.088   4.232
96124W        W69192  30.643  37.035  13.532
96125W        W69193   7.755  33.476   3.030
96126W        W69194  13.702  44.205  14.938
96127W        W69195  38.810  29.932  13.530
96128W        W69196  29.389  14.750   4.321
96129W        W69197  39.841  13.075  11.523
96130W        W69198  38.299   6.639   3.892
96131W        W69199   7.936  33.533  12.564
96132W        W69200  33.900  38.024   0.966
96133W        W69201  31.490  25.264  13.961
96134W        W69202  26.262  16.086   0.827
96135W        W69203  38.644  27.122   2.746
96136W        W69204  43.297  28.276   1.770
96137W        W69205   1.211  10.309  11.127
96138W        W69206  42.332  42.772   3.145
96139W        W69207  19.114   3.396  13.768
96140W        W69208  19.627  40.376  11.675
96141W        W69209  30.582  23.136  14.932
96142W        W69210  26.085  23.000   2.688
96143W        W69211  39.516  27.665   1.121
96144W        W69212  27.693  20.991   1.291
96145W        W69213  26.136  27.467   2.274
96146W        W69214  35.396  40.503  12.403
96147W        W69215  18.946  26.062  10.758
96148W        W69216  11.804  10.538   3.261
96149W        W69217  26.799  28.587   2.388
96150W        W69218  34.626  18.812  12.080
96151W        W69219  24.197  18.660  10.864
96152W        W69220  13.317  38.262   4.218
96153W        W69221  23.678   7.340   4.216
96154W        W69222  13.839   3.423  10.962
96155W        W69223  13.615   2.293   2.236
96156W        W69224  35.365   4.633   0.855
96157W        W69225  39.523  15.708   0.023
96158W        W69226  20.518  24.497  12.535
96159W        W69227   4.406  42.662   3.898
96160W        W69228  27.868  43.780   1.147
96161W        W69229  15.183   7.450  13.341
96162W        W69230  20.824   7.557  12.940
96163W        W69231  41.483  10.454   2.868
96164W        W69232   2.736  21.056   3.236
96165W        W69233  32.352  24.709   2.351
96166W        W69234  21.271  23.390   1.381
96167W        W69235  16.161   9.144  10.892
96168W        W69236  21.359   1.229   4.046
96169W        W69237  15.878  20.541  11.491
96170W        W69238  14.339   4.228   4.637
96171W        W69239  17.782  36.368  13.024
96172W        W69240  39.592  16.164  10.722
96173W        W69241  18.146  24.776  13.428
96174W        W69242  13.288  41.479   4.245
96175W        W69243  17.682  34.294  12.649
96176W        W69244  37.345  12.791   1.318
96177W        W69245  44.029  42.948   3.217
96178W        W69246  39.380   1.545  13.910
96179W        W69247  38.737  13.876  11.512
96180W        W69248  33.481  15.009   0.439
96181W        W69249  37.820  16.790   2.721
96182W        W69250  10.391  25.700  14.690
96183W        W69251   6.852  15.757   2.710
96184W        W69252  26.012  12.812   2.688
96185W        W69253   2.277  13.149  11.934
96186W        W69254  30.478  24.475   4.236
96187W        W69255   7.425   4.253   0.318
96188W        W69256  15.506  13.306  11.789
96189W        W69257  21.386  43.460   2.948
96190W        W69258  14.574  42.518  14.873
96191W        W69259  27.910  34.589  10.755
96192W        W69260  14.071  35.450   0.396
96193W        W69261  19.582  34.836  14.883
96194W        W69262   6.757  13.071  13.546
96195W        W69263  23.242  38.971   0.468
96196W        W69264  31.649  14.159   4.594
96197W        W69265   0.239  14.634  13.945
96198W        W69266  15.258  38.805   2.658
96199W        W69267   6.921  36.256  11.575
96200W        W69268   6.794  41.395   0.834
96201W        W69269  44.391   4.824   3.288
96202W        W69270  25.093  13.204   3.186
96203W        W69271  27.677  41.509  12.084
96204W        W69272  12.166  21.082  14.280
96205W        W69273  24.568  10.808  14.269
96206W        W69274  21.987  38.513   1.333
96207W        W69275  35.453  14.533   3.204
96208W        W69276  19.746  11.743   2.839
96209W        W69277  38.396  43.754   1.662
96210W        W69278  29.821  15.260   2.205
96211W        W69279  17.588  19.319  10.664
96212W        W69280  13.118   7.466  11.566
96213W        W69281  15.024  24.935  13.063
96214W        W69282  16.626  35.564   0.917
96215W        W69283  20.127  31.618  11.101
96216W        W69284  41.507   4.676  14.833
96217W        W69285   3.454  43.065   1.831
96218W        W69286   2.045  13.842  11.123
96219W        W69287   5.896  31.665  12.106
96220W        W69288  18.316  44.351   0.635
96221W        W69289  29.692  40.550   1.290
96222W        W69290   8.483  39.038   0.813
96223W        W69291  39.821  29.047   3.678
96224W        W69292   7.782  41.259  13.285
96225W        W69293  33.942   3.695  11.435
96226W        W69294   2.722  22.163   1.018
96227W        W69295   6.273  21.282  10.272
96228W        W69296  13.770  15.780  11.519
96229W        W69297   3.196  14.828   2.861
96230W        W69298  19.280  14.622   1.179
96231W        W69299  44.401   0.821   1.401
96232W        W69300  19.248  35.738   2.833
96233W        W69301  38.443  18.951   1.723
96234W        W69302  15.656  21.367   4.638
96235W        W69303  35.526  22.472   0.464
96236W        W69304  43.970  44.855   1.227
96237W        W69305  31.558  28.090  12.014
96238W        W69306   6.723  10.858  12.928
96239W        W69307  18.270   7.772  13.939
96240W        W69308   5.293   0.228  12.467
96241W        W69309  19.050  44.439   1.283
96242W        W69310  43.237  19.140   3.324
96243W        W69311  42.947  30.716   3.305
96244W        W69312   2.205   2.036  14.841
96245W        W69313  15.255  30.222   0.845
96246W        W69314  44.017  18.801  13.238
96247W        W69315  23.937  21.608   4.111
96248W        W69316  14.340   2.443  11.208
96249W        W69317  30.481  25.636   2.372
96250W        W69318  19.629   8.004  12.742
96251W        W69319   6.137  43.779   3.222
96252W        W69320  28.989  42.987  11.217
96253W        W69321  17.803   5.313  14.414
96254W        W69322  23.688   2.682   4.549
96255W        W69323  30.049  31.839  10.742
96256W        W69324  23.534  13.846   3.341
96257W        W69325   5.672  27.105  12.676
96258W        W69326  39.959   7.218   1.851
96259W        W69327  27.558  40.480   0.001
96260W        W69328  19.201  35.967  11.696
96261W        W69329  43.954  13.588  14.016
96262W        W69330   6.842  22.210   2.379
96263W        W69331   2.705  12.104   0.540
96264W        W69332  25.542  26.100  10.595
96265W        W69333  19.072  24.984  13.980
96266W        W69334   2.203  41.225   0.781
96267W        W69335  37.834  26.261  14.489
96268W        W69336  32.162  14.187   3.733
96269W        W69337  29.939  10.837   2.159
96270W        W69338   6.327  26.532   3.594
96271W        W69339  24.230  34.826   5.021
96272W        W69340  31.045  30.460   4.592
96273W        W69341   7.633  14.596  11.904
96274W        W69342   1.869  28.105   2.837
96275W        W69343  21.731  42.344   3.342
96276W        W69344  17.406  34.518   1.058
96277W        W69345  11.896  30.151  13.949
96278W        W69346  17.084  20.138  11.255
96279W        W69347  40.930  31.854   0.957
96280W        W69348  40.308  12.805  13.529
96281W        W69349  23.873  14.170   1.666
96282W        W69350   9.876  13.248   0.271
96283W        W69351  44.003  19.020  10.731
96284W        W69352  22.693  26.243   2.681
96285W        W69353  13.944  41.500   3.396
96286W        W69354   2.985  16.858  12.062
96287W        W69355  38.905  28.875   2.872
96288W        W69356  18.852  33.674   4.166
96289W        W69357  35.384  23.372   4.126
96290W        W69358   0.102  44.281   3.593
96291W        W69359  15.317  36.777   3.803
96292W        W69360   4.337  33.572   4.631
96293W        W69361  29.206  36.255   0.959
96294W        W69362  23.003  16.200  12.148
96295W        W69363  40.009  29.165  13.010
96296W        W69364   4.205  39.456   1.695
96297W        W69365  39.461  44.061  10.469
96298W        W69366  33.510  15.361   4.629
96299W        W69367   4.259  27.143   1.793
96300W        W69368  28.810  27.671  11.443
96301W        W69369   9.332   1.942   0.274
96302W        W69370   3.000  13.539   0.451
96303W        W69371  23.681  43.488  13.864
96304W        W69372  42.422  26.588  11.537
96305W        W69373  25.092  12.219   3.102
96306W        W69374  22.642  35.935   1.183
96307W        W69375  10.344  12.069  14.074
96308W        W69376  36.814  35.470  10.751
96309W        W69377  44.947   3.168   2.113
96310W        W69378  16.715  44.013  10.562
96311W        W69379  24.486   6.196   4.092
96312W        W69380   7.400  32.981  12.826
96313W        W69381  12.819   8.349   2.388
96314W        W69382  10.347  11.062  11.198
96315W        W69383  39.540  11.524   4.020
96316W        W69384  15.612  19.428  11.137
96317W        W69385  29.776  33.744  12.045
96318W        W69386  40.352   6.681   1.977
96319W        W69387  13.752  18.954   1.291
96320W        W69388  13.243  26.679  10.722
96321W        W69389  13.482  23.269  12.399
96322W        W69390  18.285   6.198  14.022
96323W        W69391  41.465  40.906  11.483
96324W        W69392  29.485  18.632   3.792
96325W        W69393  15.392  13.293  14.261
96326W        W69394  35.890  15.922   0.277
96327W        W69395  22.558  17.590   1.824
96328W        W69396  16.204  27.637   3.594
96329W        W69397  18.368  20.070   4.120
96330W        W69398   2.912   9.691  12.790
96331W        W69399  30.953  37.260   1.274
96332W        W69400  27.099  22.528   2.648
96333W        W69401  22.001  29.439  13.412
96334W        W69402  37.618  25.519  12.975
96335W        W69403   7.758  22.350  13.449
96336W        W69404  34.011   0.618   3.810
96337W        W69405  21.816  13.550  13.788
96338W        W69406   9.665  42.511  12.876
96339W        W69407  30.891  35.151  10.803
96340W        W69408   2.849  31.317  14.871
96341W        W69409   6.938  26.579  14.441
96342W        W69410  24.105  38.298   0.867
96343W        W69411  30.414  44.523  12.557
96344W        W69412  33.984  11.691  11.606
96345W        W69413   3.562  28.825  13.959
96346W        W69414  32.192  15.672  13.448
96347W        W69415  36.401  16.683   4.476
96348W        W69416  37.919   9.985   4.577
96349W        W69417  15.610   2.992  11.048
96350W        W69418  10.809  34.627  14.826
96351W        W69419   5.198  32.238  10.303
96352W        W69420  31.795  14.504  14.868
96353W        W69421  28.019  38.936   1.717
96354W        W69422  14.182  32.881  14.445
96355W        W69423  30.844  17.011  12.511
96356W        W69424  36.902  24.124  10.879
96357W        W69425  13.411  14.737   3.936
96358W        W69426  35.909  24.143   0.961
96359W        W69427  25.563   7.104  13.975
96360W        W69428  33.988  17.493  12.057
96361W        W69429  20.726   3.405   3.560
96362W        W69430  44.869  28.050  14.012
96363W        W69431  33.101  35.903  12.343
96364W        W69432  23.988  17.449   3.256
96365W        W69433  10.221   2.983  10.598
96366W        W69434  40.332  38.502   0.810
96367W        W69435  25.297  21.996   2.924
96368W        W69436  38.002   3.303   0.495
96369W        W69437  18.498  25.452  14.468
96370W        W69438  24.112  17.281  10.387
96371W        W69439   3.637   5.427  11.638
96372W        W69440  41.744  27.398  11.432
96373W        W69441  33.415  18.693  13.416
96374W        W69442   5.441  31.592   0.801
96375W        W69443  44.454   4.528  10.699
96376W        W69444  31.508   6.790   3.811
96377W        W69445  27.197  41.377   3.068
96378W        W69446  11.793   4.968  11.063
96379W        W69447   6.747  33.829   0.939
96380W        W69448  42.172   9.320   4.593
96381W        W69449  26.397   2.882  12.033
96382W        W69450  19.230  38.551   1.849
96383W        W69451  21.514  29.524   3.749
96384W        W69452   6.705  19.001  13.530
96385W        W69453   8.234   9.614   4.603
96386W        W69454  16.121  38.793   1.341
96387W        W69455   4.387  30.174  12.119
96388W        W69456   4.793  23.232  14.325
96389W        W69457  32.105  32.197   4.035
96390W        W69458  37.026  40.502  14.003
96391W        W69459  26.495  11.409  11.941
96392W        W69460  31.715  44.038  14.399
96393W        W69461  31.985  14.730   3.892
96394W        W69462  17.604  35.627   4.954
96395W        W69463  41.207  42.868   4.637
96396W        W69464   6.266  21.532   0.874
96397W        W69465  15.686   1.534   2.368
96398W        W69466  35.186  32.505  14.867
96399W        W69467   0.556  18.140   0.805
96400W        W69468  10.587  18.477   1.485
96401W        W69469  31.856  10.860  13.303
96402W        W69470  21.584   7.831   4.146
96403W        W69471  30.973  26.491  10.470
96404W        W69472   6.965   7.947   4.564
96405W        W69473  34.570   5.811  10.867
96406W        W69474  41.012  25.826  14.876
96407W        W69475   5.972  11.720   0.319
96408W        W69476  43.348  14.397   1.205
96409W        W69477   4.912  38.745  14.718
96410W        W69478  12.900  21.101  12.506
96411W        W69479  21.249  10.040   4.609
96412W        W69480  21.573  42.057   4.627
96413W        W69481  40.280  25.679  10.530
96414W        W69482  29.341  41.825   0.504
96415W        W69483  15.246  17.541   2.190
96416W        W69484   1.554   8.756   0.231
96417W        W69485  25.031  30.461  11.461
96418W        W69486   8.584  39.150  14.939
96419W        W69487  12.765  10.778  13.964
96420W        W69488  42.858  22.127  14.270
96421W        W69489  15.734  26.604  10.614
96422W        W69490   7.346  25.661  11.635
96423W        W69491  23.184  44.912   2.387
96424W        W69492  27.259  20.782  12.846
96425W        W69493   6.092  44.529   4.166
96426W        W69494  17.030  20.413  12.121
96427W        W69495  43.334  39.406   0.388
96428W        W69496  19.921   6.125   3.783
96429W        W69497  32.159  40.497  10.882
96430W        W69498  25.171  26.041  12.807
96431W        W69499   3.805   4.810   3.370
96432W        W69500   8.084  13.758   2.529
96433W        W69501  24.821   8.237  13.518
96434W        W69502  28.268  41.340   4.981
96435W        W69503  40.603  26.112   4.760
96436W        W69504   1.681  40.907   3.776
96437W        W69505   2.240  43.883   4.159
96438W        W69506  19.160  41.546  13.956
96439W        W69507   5.702  40.756   4.582
96440W        W69508  22.044  24.294   3.287
96441W        W69509  34.624  31.011  12.984
96442W        W69510   1.393  26.398  12.640
96443W        W69511  35.560  27.947  14.986
96444W        W69512  22.612  23.914  11.199
96445W        W69513  16.174  15.151   1.397
96446W        W69514  17.389  14.813  12.563
96447W        W69515  19.680  25.929   1.402
96448W        W69516  15.566  25.676  10.518
96449W        W69517   6.317   9.786   4.712
96450W        W69518  19.074  30.454   4.482
96451W        W69519  22.546  20.588  12.595
96452W        W69520  27.605  14.105  10.699
96453W        W69521  30.556  21.546   3.767
96454W        W69522  23.889  31.865   0.861
96455W        W69523  19.471  19.010  13.654
96456W        W69524   9.640  39.904   4.737
96457W        W69525  44.164  30.503  10.281
96458W        W69526  14.018  29.197  14.385
96459W        W69527  29.662   2.423   4.727
96460W        W69528  18.994  22.610   4.231
96461W        W69529  17.728  32.963  13.016
96462W        W69530  31.397   3.438   4.176
96463W        W69531  42.848  38.952  14.432
96464W        W69532  33.568  32.739   1.199
96465W        W69533   9.723  44.375   1.913
96466W        W69534  10.882  42.566   0.747
96467W        W69535   5.763   5.822  14.119
96468W        W69536   6.204  15.672   4.610
96469W        W69537  40.838   0.525  13.057
96470W        W69538  28.032  13.914  14.786
96471W        W69539   4.709  16.602   1.436
96472W        W69540  28.302  42.750  12.629
96473W        W69541   9.821  31.189   0.821
96474W        W69542  39.783  11.729   0.189
96475W        W69543  18.780  15.782  11.427
96476W        W69544   1.028  14.119   2.341
96477W        W69545   9.090  10.207  14.423
96478W        W69546  23.278  11.285  11.855
96479W        W69547   9.292  29.124   1.391
96480W        W69548  10.918  37.518   3.650
96481W        W69549  44.991  28.705  13.753
96482W        W69550  14.397  21.207  14.838
96483W        W69551  16.571  39.325  13.094
96484W        W69552  17.110   9.307   0.962
96485W        W69553  24.719  20.102  14.467
96486W        W69554  28.610   9.915   3.330
96487W        W69555  23.460  21.279   4.180
96488W        W69556  36.063  33.037   2.387
96489W        W69557  27.023   8.722   0.497
96490W        W69558  14.908  27.229  10.567
96491W        W69559  11.728  25.921  10.832
96492W        W69560   2.468  16.288  11.840
96493W        W69561   5.416  26.174  12.080
96494W        W69562  19.520  11.312   2.652
96495W        W69563  37.063  24.132  14.297
96496W        W69564  10.270  18.535  13.334
96497W        W69565  13.680  16.125   1.164
96498W        W69566  24.173  42.566   4.681
96499W        W69567  26.208  29.167  13.507
96500W        W69568  39.096  34.928   3.559
96501W        W69569  11.734  26.212   4.098
96502W        W69570  21.517   7.262   1.111
96503W        W69571   2.699  13.582  13.005
96504W        W69572  40.035  23.060   0.371
96505W        W69573  30.415  41.001   4.188
96506W        W69574  36.064  12.882   3.925
96507W        W69575  29.448  19.303  14.434
96508W        W69576  43.766   9.408  12.097
96509W        W69577   8.981  14.643  14.002
96510W        W69578  20.721  18.613   2.796
96511W        W69579  42.849  15.613   1.700
96512W        W69580   6.693  27.569  13.966
96513W        W69581  14.093  44.538  14.944
96514W        W69582  14.336  24.699   2.801
96515W        W69583  41.302  22.125  10.675
96516W        W69584  22.549  21.057  11.320
96517W        W69585  24.926  33.060   3.020
96518W        W69586  15.563  25.245  12.247
96519W        W69587  36.949  31.074  12.028
96520W        W69588  37.441  23.318   3.520
96521W        W69589  42.531  26.714   2.791
96522W        W69590  19.163  44.764   4.925
96523W        W69591  22.819  41.594   3.581
96524W        W69592  41.487  28.108   0.304
96525W        W69593  37.350  31.563   0.927
96526W        W69594  25.085   6.860   2.738
96527W        W69595  19.856   9.929  12.927
96528W        W69596  15.192  10.892  11.675
96529W        W69597  38.533  18.497   2.339
96530W        W69598  28.412  37.432  12.009
96531W        W69599  29.953  33.255  14.918
96532W        W69600  24.590   7.612  12.895
96533W        W69601  37.960  27.905  11.056
96534W        W69602  41.739  27.489   0.416
96535W        W69603  19.218   0.944  10.564
96536W        W69604   1.526  30.734  12.003
96537W        W69605  39.581  11.911  10.106
96538W        W69606  37.398  26.706   2.812
96539W        W69607   3.435  17.225   4.129
96540W        W69608  17.184  39.737  10.657
96541W        W69609  19.213  42.946   1.559
96542W        W69610   5.714   5.700   1.764
96543W        W69611  28.452  12.563   1.806
96544W        W69612  34.797  20.785  14.251
96545W        W69613  24.212  44.920   2.923
96546W        W69614  16.914  28.303  12.891
96547W        W69615  11.079  23.130   3.920
96548W        W69616  12.736  29.249  11.961
96549W        W69617  41.860  12.597  13.387
96550W        W69618  28.197  42.850   0.740
96551W        W69619  33.347  17.987   0.506
96552W        W69620  44.444  15.671   0.251
96553W        W69621  16.997  28.992   1.811
96554W        W69622  36.955  43.316  12.889
96555W        W69623  39.215  19.172   2.810
96556W        W69624  41.618   5.731   2.243
96557W        W69625   5.340  18.562  10.511
96558W        W69626  37.075  17.600  12.126
96559W        W69627  38.019  15.698   1.304
96560W        W69628  36.367  35.116  14.496
96561W        W69629   3.368  25.048  11.946
96562W        W69630  20.316  29.121  14.743
96563W        W69631  37.164  42.995  14.842
96564W        W69632  28.463  19.088   1.928
96565W        W69633  20.703  39.069   1.414
96566W        W69634   3.346  36.425  13.834
96567W        W69635   4.260  23.994   2.684
96568W        W69636  30.714   4.062   3.706
96569W        W69637  27.685  35.298   3.976
96570W        W69638  38.303  40.601   3.187
96571W        W69639   0.980  42.079   1.959
96572W        W69640  24.701  39.514   2.397
96573W        W69641   2.432  22.389  12.853
96574W        W69642  22.552  26.815  13.912
96575W        W69643  22.209  38.077  10.710
96576W        W69644  11.352   0.279   4.827
96577W        W69645  13.746  23.031  12.022
96578W        W69646  34.367  18.187   1.401
96579W        W69647  18.155   2.455   1.628
96580W        W69648  33.502  21.191  11.565
96581W        W69649  31.401  29.619  11.970
96582W        W69650   3.402  39.098   1.835
96583W        W69651  13.027  41.954  10.440
96584W        W69652  28.186   9.330  13.105
96585W        W69653  23.103  30.419  10.435
96586W        W69654  23.037  29.155   4.092
96587W        W69655  27.756  36.300  11.142
96588W        W69656  39.222  20.603  14.832
96589W        W69657  42.694  27.044   3.661
96590W        W69658  30.946  38.580   0.803
96591W        W69659  41.463   8.647  13.679
96592W        W69660  38.076  36.215   0.423
96593W        W69661  31.606   3.397   2.814
96594W        W69662  23.020  32.899   3.391
96595W        W69663  24.664   6.300  13.577
96596W        W69664   7.468  17.256   4.316
96597W        W69665  25.491  18.187   2.277
96598W        W69666   5.117  33.037   4.648
96599W        W69667  34.076  43.700   2.215
96600W        W69668   6.279  31.838   5.008
96601W        W69669  12.992  32.913   4.599
96602W        W69670  29.182  14.178  10.653
96603W        W69671   1.667  11.703   1.502
96604W        W69672   9.885  39.577  10.567
96605W        W69673  20.284  32.519   2.371
96606W        W69674  35.641  15.193  12.071
96607W        W69675  30.090  37.683   0.037
96608W        W69676   6.240  31.489  12.555
96609W        W69677  15.790  16.734   1.757
96610W        W69678  18.885  25.010   3.666
96611W        W69679  30.957  32.447  10.840
96612W        W69680  31.818  34.484  14.850
96613W        W69681  10.567  38.708  14.907
96614W        W69682  34.678  44.087   4.157
96615W        W69683  25.897  38.488   3.625
96616W        W69684   1.189   4.410  13.934
96617W        W69685   2.270  36.884   2.671
96618W        W69686  23.394   0.978   3.656
96619W        W69687  44.749  20.630  11.479
96620W        W69688  26.146  36.659  13.485
96621W        W69689  19.105   2.785  11.204
96622W        W69690   1.714  26.597   0.345
96623W        W69691  38.547  29.717  11.071
96624W        W69692  30.889  38.801  10.628
96625W        W69693  26.443  30.536   0.782
96626W        W69694  30.182  36.333   0.255
96627W        W69695  22.245   6.435  13.435
96628W        W69696   7.487  10.778   1.178
96629W        W69697  40.758  16.665   1.969
96630W        W69698  42.896   8.908  12.982
96631W        W69699  31.643  18.798   0.325
96632W        W69700  25.333  35.172  13.871
96633W        W69701  11.390   9.853   3.604
96634W        W69702   4.233  38.237   3.307
96635W        W69703  40.722  15.175  12.591
96636W        W69704  32.061  36.596  11.133
96637W        W69705  39.925  44.721   4.118
96638W        W69706  24.493  33.409  12.479
96639W        W69707  12.470  23.108  12.517
96640W        W69708  23.220  38.872   4.481
96641W        W69709  17.048  11.236  11.262
96642W        W69710  28.054   1.246   2.131
96643W        W69711  11.812   8.174   3.172
96644W        W69712  17.847  13.120  12.485
96645W        W69713  27.757  14.128  13.917
96646W        W69714  17.608  16.642  14.769
96647W        W69715  32.581  41.380  10.963
96648W        W69716  40.704  20.121  11.560
96649W        W69717   8.730  38.060   0.001
96650W        W69718   2.047  29.235   1.899
96651W        W69719  35.935  35.635  11.961
96652W        W69720  11.842  39.639  13.901
96653W        W69721  27.393  24.726   1.261
96654W        W69722  43.477  41.423   0.764
96655W        W69723  23.737  37.556   3.373
96656W        W69724  39.430  17.005  14.366
96657W        W69725  40.570  36.839   0.780
96658W        W69726   6.297  21.509   2.212
96659W        W69727  23.287  23.730  10.497
96660W        W69728  13.367  32.762  13.948
96661W        W69729   4.303   8.567  12.944
96662W        W69730   3.689  41.780  13.108
96663W        W69731  37.078  43.255  11.417
96664W        W69732   9.357  41.001   0.472
96665W        W69733  21.523  32.558  10.603
96666W        W69734  32.467  27.517  11.867
96667W        W69735  27.356  15.861  12.252
96668W        W69736   2.308  31.799   3.616
96669W        W69737  11.995  41.376  12.235
96670W        W69738  12.695  33.634   4.615
96671W        W69739  35.935  12.830   2.672
96672W        W69740  14.233   7.803  12.965
96673W        W69741  31.147  29.082  14.712
96674W        W69742   2.510  33.155   0.945
96675W        W69743   8.772  36.310  10.267
96676W        W69744   7.652  40.726   2.019
96677W        W69745  34.871  29.603  12.921
96678W        W69746  22.145  10.909   2.242
96679W        W69747  22.330  16.558   0.531
96680W        W69748   2.919  35.974   4.567
96681W        W69749  14.687  21.507   4.789
96682W        W69750   4.924  20.593   9.890
96683W        W69751   9.238   9.630   2.149
96684W        W69752  23.195  35.739   3.348
96685W        W69753  42.805  26.658  10.343
96686W        W69754  44.697  26.885   1.038
96687W        W69755   2.912  44.958  13.769
96688W        W69756   5.849  38.512   0.377
96689W        W69757  35.048  13.583  11.102
96690W        W69758   5.431  13.336   3.582
96691W        W69759  33.041  20.349   2.369
96692W        W69760  35.507  11.692   1.186
96693W        W69761  32.141  27.667  10.517
96694W        W69762  26.657  32.628  14.270
96695W        W69763  36.052  10.208   3.160
96696W        W69764  20.761  26.659   3.233
96697W        W69765  40.915  33.160  13.590
96698W        W69766  34.888  32.512  13.055
96699W        W69767  10.877  40.560   3.800
96700W        W69768  29.775  41.972   0.897
96701W        W69769  20.270  25.280   2.105
96702W        W69770  11.772  27.495   4.323
96703W        W69771   4.190  16.551  11.543
96704W        W69772  17.481  21.607   0.171
96705W        W69773   7.302  30.602   4.413
96706W        W69774  27.476  42.473  12.017
96707W        W69775  29.033  41.476   2.200
96708W        W69776  38.330  43.897   0.467
96709W        W69777  20.318  12.403  13.053
96710W        W69778   8.273  10.963   0.255
96711W        W69779   6.845  27.424  12.906
96712W        W69780  30.176  30.048  14.201
96713W        W69781  30.696  44.560  12.137
96714W        W69782  14.052   5.794   2.417
96715W        W69783  10.681  26.496  11.017
96716W        W69784  12.414   6.169   1.706
96717W        W69785   0.292   2.350   3.641
96718W        W69786  36.469  23.316  11.061
96719W        W69787   8.948  28.533   0.980
96720W        W69788  33.426  28.486  11.433
96721W        W69789  12.810   7.870   4.940
96722W        W69790  13.335  40.316   2.217
96723W        W69791   2.749  33.730  12.368
96724W        W69792  38.739  11.643   0.491
96725W        W69793  18.213  39.920   3.923
96726W        W69794  42.009  37.893  14.941
96727W        W69795  19.109   5.179   4.420
96728W        W69796  10.088  28.446  13.324
96729W        W69797   2.208   7.771  11.163
96730W        W69798   4.406  35.912  13.543
96731W        W69799   8.243  22.549   0.396
96732W        W69800   5.553   1.975  12.842
96733W        W69801  17.353  22.669   1.357
96734W        W69802  32.535   4.545  14.439
96735W        W69803   8.828  32.509  12.596
96736W        W69804  17.247  34.367  10.746
96737W        W69805  30.093  24.759  10.640
96738W        W69806  25.746  15.717  14.411
96739W        W69807  41.038  37.032   2.202
96740W        W69808  43.868  28.132  12.434
96741W        W69809  17.158   8.370   3.585
96742W        W69810  24.701  16.653  13.965
96743W        W69811  44.512   6.772   1.798
96744W        W69812   6.219   8.418   0.417
96745W        W69813  25.497  11.590   4.899
96746W        W69814  30.438  34.273  13.350
96747W        W69815  16.621   7.540   4.850
96748W        W69816   5.894  12.311   3.749
96749W        W69817  32.353   6.455  11.601
96750W        W69818  11.750  25.298  14.052
96751W        W69819  33.470   0.855   0.424
96752W        W69820  25.774  16.767  12.172
96753W        W69821   0.829  40.287   1.003
96754W        W69822  34.495   8.817  14.548
96755W        W69823   5.265  19.014  13.995
96756W        W69824  27.630   9.071   3.686
96757W        W69825   1.333   7.871   2.802
96758W        W69826   3.046   8.595  11.048
96759W        W69827  18.646  33.197   4.952
96760W        W69828  18.162   9.781   0.835
96761W        W69829  25.382  34.866  10.178
96762W        W69830  18.224  28.229   0.260
96763W        W69831  13.526  41.423   3.783
96764W        W69832  33.446  15.689   4.101
96765W        W69833  23.470  37.844  13.803
96766W        W69834   5.678   7.775  11.511
96767W        W69835   4.847  38.397   1.177
96768W        W69836  29.226  15.336  13.349
96769W        W69837  40.058   3.416   3.196
96770W        W69838  41.287   6.746  11.774
96771W        W69839   9.812  12.122   1.204
96772W        W69840  43.560   1.402   1.303
96773W        W69841  22.479  16.179  14.675
96774W        W69842   1.260  13.104   3.211
96775W        W69843  18.688  12.268  13.031
96776W        W69844  15.670  12.860  14.116
96777W        W69845  30.274  37.044   2.906
96778W        W69846  19.973  14.473   1.755
96779W        W69847  29.261  23.610  14.947
96780W        W69848   7.231  10.663  12.468
96781W        W69849   5.949  18.744  14.578
96782W        W69850  35.160  28.135  14.212
96783W        W69851   6.967  16.035   1.447
96784W        W69852  40.723   7.444   9.795
96785W        W69853  39.879   8.284   0.793
96786W        W69854   6.289  17.212  12.893
96787W        W69855  22.933  12.151   4.139
96788W        W69856   1.210  27.182  13.590
96789W        W69857  14.592  16.204  12.343
96790W        W69858  23.420   8.315   1.842
96791W        W69859  33.432  24.213   1.846
96792W        W69860  28.200  24.931  12.981
96793W        W69861  10.451  38.978   1.938
96794W        W69862  26.714  23.457  14.505
96795W        W69863   6.227   3.681  13.403
96796W        W69864  39.912   4.895   3.786
96797W        W69865  34.134  37.627  13.432
96798W        W69866  19.549  24.696   2.396
96799W        W69867   4.820   6.530   1.496
96800W        W69868   9.536   8.753   4.057
96801W        W69869  33.526   8.358   2.618
96802W        W69870  11.287   4.309   3.143
96803W        W69871  15.537   7.712   0.420
96804W        W69872   5.730   2.213   1.181
96805W        W69873  23.141  32.402  13.477
96806W        W69874  33.607  29.573  12.439
96807W        W69875  21.820  30.618  10.684
96808W        W69876  28.174   2.804   3.385
96809W        W69877   9.857  38.901   1.194
96810W        W69878  30.418  31.735  11.930
96811W        W69879   8.865  13.714  14.079
96812W        W69880  35.037  31.661  10.613
96813W        W69881   3.929  17.036  13.479
96814W        W69882  15.566  17.033   4.837
96815W        W69883   6.369  17.889  13.637
96816W        W69884   1.801  17.527   0.407
96817W        W69885  30.858  11.110  13.453
96818W        W69886  12.132  18.675   3.890
96819W        W69887  43.843   1.877   4.002
96820W        W69888  22.011  29.520   1.384
96821W        W69889   4.316  36.696  10.430
96822W        W69890  37.860  11.726   0.376
96823W        W69891  18.196  10.050   2.789
96824W        W69892  42.747   6.239   3.662
96825W        W69893   0.545  22.075   0.230
96826W        W69894  31.994  15.064  11.670
96827W        W69895  27.027  41.615   1.792
96828W        W69896  30.500  10.140   1.396
96829W        W69897  44.238  13.723   1.224
96830W        W69898  15.071  27.644   0.028
96831W        W69899  29.337   0.970   2.387
96832W        W69900   8.673  39.989  10.378
96833W        W69901  23.737  40.451  14.380
96834W        W69902  11.735  23.001  11.981
96835W        W69903  37.353  33.094  11.496
96836W        W69904  17.723   2.855  12.352
96837W        W69905  38.963  22.647   0.292
96838W        W69906  43.260  33.404   1.961
96839W        W69907  26.509  32.480   2.734
96840W        W69908  36.045   8.174   3.662
96841W        W69909  37.404  23.442  14.276
96842W        W69910  29.872  23.734   2.745
96843W        W69911  21.095   4.796   2.789
96844W        W69912  41.242   7.318  11.526
96845W        W69913  26.956  42.111   2.812
96846W        W69914  24.732   7.840  14.889
96847W        W69915  12.643  43.872   2.829
96848W        W69916  28.119  15.622  13.519
96849W        W69917  42.987   2.727  12.985
96850W        W69918   4.224  14.687   2.759
96851W        W69919  31.988  25.504   2.164
96852W        W69920  39.421  20.671  10.893
96853W        W69921  30.705  18.996  13.165
96854W        W69922   4.893  33.982  11.939
96855W        W69923  33.958  19.230  10.980
96856W        W69924  44.527  40.260  14.462
96857W        W69925  10.356  41.956  14.382
96858W        W69926  36.427  42.982   2.326
96859W        W69927  13.535  39.102  14.898
96860W        W69928  33.594   6.353  13.523
96861W        W69929  21.948   2.362  13.449
96862W        W69930  10.872  32.612   1.377
96863W        W69931  12.825   2.804  13.020
96864W        W69932   9.137   7.118   3.697
96865W        W69933  22.720  40.869  13.837
96866W        W69934  34.563  43.588   1.524
96867W        W69935  11.718  23.629   3.112
96868W        W69936   4.998  11.574   2.410
96869W        W69937  24.922  16.640  14.416
96870W        W69938  12.641  15.119   1.135
96871W        W69939   3.009  37.136   0.919
96872W        W69940  12.096  13.983  14.468
96873W        W69941  40.489  20.542   1.249
96874W        W69942  10.959  11.379   1.935
96875W        W69943  11.427  39.899   1.289
96876W        W69944  21.105   6.427   0.919
96877W        W69945  19.068  32.964  14.009
96878W        W69946   8.949  17.522  12.061
96879W        W69947  33.619  15.238  14.986
96880W        W69948  30.635   4.908  12.106
96881W        W69949  21.747  12.773  14.743
96882W        W69950   0.425  29.231  14.454
96883W        W69951  13.997   6.937  13.930
96884W        W69952  41.006  26.576  13.333
96885W        W69953   6.412   2.314   2.786
96886W        W69954  22.617  38.345  14.877
96887W        W69955  16.373  17.528   0.385
96888W        W69956  26.130  23.154   4.586
96889W        W69957  27.976  13.695   3.279
96890W        W69958   1.843   6.439  14.062
96891W        W69959  25.566  37.624  11.744
96892W        W69960  29.274  15.241   0.332
96893W        W69961  27.477  23.148  13.040
96894W        W69962   3.154  13.799  12.876
96895W        W69963   3.163  22.985   0.411
96896W        W69964  33.410  39.771  11.895
96897W        W69965  40.307   6.286  12.507
96898W        W69966   1.539  21.840   1.779
96899W        W69967  11.799  32.108  12.645
96900W        W69968  29.939  24.418   0.794
96901W        W69969   1.825   5.206  10.758
96902W        W69970  14.660   1.765  13.440
96903W        W69971  43.229  14.824  12.861
96904W        W69972  43.109   6.450   1.235
96905W        W69973  10.304  42.437  13.427
96906W        W69974  24.757  35.325   0.363
96907W        W69975   2.026   9.723   1.422
96908W        W69976  44.372   3.992   1.818
96909W        W69977  20.712   0.384   2.410
96910W        W69978   3.793  42.769   4.165
96911W        W69979   7.923  17.247   4.573
96912W        W69980  28.143   5.199  12.119
96913W        W69981  29.712  17.670   2.271
96914W        W69982   4.132  42.060   0.803
96915W        W69983   9.881   8.648  11.660
96916W        W69984  39.401  42.938  11.472
96917W        W69985  15.684   7.361   3.379
96918W        W69986  19.726  30.191   2.413
96919W        W69987   6.109  23.630   3.280
96920W        W69988  18.005  14.938   0.107
96921W        W69989  33.536  24.495  12.900
96922W        W69990   1.545  42.067   1.417
96923W        W69991  43.851  35.409  13.082
96924W        W69992  10.137  43.849  11.856
96925W        W69993   5.036  24.666   3.547
96926W        W69994  11.442   2.772   2.331
96927W        W69995   2.155  20.175  11.166
96928W        W69996  19.662  20.525   0.231
96929W        W69997  20.144   6.036  14.764
96930W        W69998  27.984  25.379  14.245
96931W        W69999  31.496  28.405  14.202
96932W        W70000   5.940  25.749  13.816
96933W        W70001  29.853  14.628  13.076
96934W        W70002  35.317   5.947  14.397
96935W        W70003  13.604  31.510  12.322
96936W        W70004  41.846  13.785   1.987
96937W        W70005  36.572  36.113  14.167
96938W        W70006  38.946  34.096  14.925
96939W        W70007  43.442  27.427   4.027
96940W        W70008  39.021   7.305   1.285
96941W        W70009  40.492  28.284   3.700
96942W        W70010  33.970  15.695  10.884
96943W        W70011  29.503   6.008   0.322
96944W        W70012  28.164  27.425  14.344
96945W        W70013  22.100  26.712  13.420
96946W        W70014  22.769  13.799   2.162
96947W        W70015  42.762  17.347   2.732
96948W        W70016  31.100  23.170   4.153
96949W        W70017  13.316   4.284  14.997
96950W        W70018   5.889  33.527   0.468
96951W        W70019  24.699   4.399   2.696
96952W        W70020   4.839  44.132  14.899
96953W        W70021  12.081  35.462   3.801
96954W        W70022  35.386  37.556   2.882
96955W        W70023   0.857  22.172  13.365
96956W        W70024  12.126  14.905  12.873
96957W        W70025   8.994  43.368   1.499
96958W        W70026   9.409  36.726   4.292
96959W        W70027  33.374  11.254   4.726
96960W        W70028  31.073  24.097   5.012
96961W        W70029   6.375  42.801  13.445
96962W        W70030  17.040  42.071   3.223
96963W        W70031  25.945  38.798  11.849
96964W        W70032  31.089   3.220  10.381
96965W        W70033  36.540  30.431  10.615
96966W        W70034   0.313  24.948   3.621
96967W        W70035  14.218  18.198  13.781
96968W        W70036   0.439  43.106   5.130
96969W        W70037  13.855  25.094   3.424
96970W        W70038  41.253  26.676   1.701
96971W        W70039  24.695  34.375  12.477
96972W        W70040  12.398  11.225   3.236
96973W        W70041   2.790  32.064   4.121
96974W        W70042  12.813  30.425  13.501
96975W        W70043  29.573  41.248  13.357
96976W        W70044  19.206  38.791  11.043
96977W        W70045  15.273   3.038  14.163
96978W        W70046  30.721  30.842  12.181
96979W        W70047  22.752   9.241  12.933
96980W        W70048  39.061  37.512  14.557
96981W        W70049   4.132  22.146   3.125
96982W        W70050   1.183  17.245   0.816
96983W        W70051  37.406  35.369   2.147
96984W        W70052  13.538   2.524   2.701
96985W        W70053   4.253   6.723  12.049
96986W        W70054   4.966  27.497   1.275
96987W        W70055  14.965  29.022   2.141
96988W        W70056   2.658  36.564   0.279
96989W        W70057   7.200  10.175  10.570
96990W        W70058   8.775  42.765  10.942
96991W        W70059   4.354   0.700   4.375
96992W        W70060  13.940  36.313  10.762
96993W        W70061  12.332  30.611  10.926
96994W        W70062  18.097   5.030  12.573
96995W        W70063  17.876  25.571  12.436
96996W        W70064  30.428  10.978  12.158
96997W        W70065  17.761  38.083   4.612
96998W        W70066  25.112  35.347  14.315
96999W        W70067   1.279  44.345   1.386
97000W        W70068  19.346  12.910   4.191
97001W        W70069   5.329  18.331  12.330
97002W        W70070  42.093  20.523  13.896
97003W        W70071  12.249  10.874  13.881
97004W        W70072  23.593   8.960  14.605
97005W        W70073  43.228  29.562   2.609
97006W        W70074  19.598  28.332  13.515
97007W        W70075  29.045  14.856   1.125
97008W        W70076  17.258   5.101   0.573
97009W        W70077  42.520  41.427   0.458
97010W        W70078  37.902  26.888  11.067
97011W        W70079  32.024  22.947  10.983
97012W        W70080  43.556   9.246  14.304
97013W        W70081  33.560  38.306  12.915
97014W        W70082  22.256  36.229   4.118
97015W        W70083  23.567  25.152  13.464
97016W        W70084  41.969  41.870   2.769
97017W        W70085  25.684   4.211   1.545
97018W        W70086  21.299  25.173  12.887
97019W        W70087  23.539  32.004  11.186
97020W        W70088   6.867  22.787   3.261
97021W        W70089  24.909   7.790   3.609
97022W        W70090  32.091  33.433  13.870
97023W        W70091  39.242  28.062   0.934
97024W        W70092  33.535  39.840  14.734
97025W        W70093   5.823  17.103  11.093
97026W        W70094   3.230   6.877   3.887
97027W        W70095  32.058   8.127   2.190
97028W        W70096  43.815   8.108  12.392
97029W        W70097  11.900  24.196   4.307
97030W        W70098   3.373  12.254  11.899
97031W        W70099  33.101  44.209  14.876
97032W        W70100  31.847  33.037   1.508
97033W        W70101  38.284  22.992   4.346
97034W        W70102  29.745   2.693   0.359
97035W        W70103   8.696  24.455   1.819
97036W        W70104  43.973   6.865   3.763
97037W        W70105   4.283   0.028   0.369
97038W        W70106  20.395  42.470   2.627
97039W        W70107  23.144  28.889  13.492
97040W        W70108   2.664  21.933   3.338
97041W        W70109  44.334   5.381   3.280
97042W        W70110  15.905  31.859  10.238
97043W        W70111   1.207  41.229  11.120
97044W        W70112  26.677   7.409  10.748
97045W        W70113  41.620  44.336   5.124
97046W        W70114  15.112   8.617   0.461
97047W        W70115   5.747  29.742   3.666
97048W        W70116  21.157   7.088  12.254
97049W        W70117  35.885  10.369  13.445
97050W        W70118  35.405  13.264   3.410
97051W        W70119  12.842   1.888  13.081
97052W        W70120  24.970  30.449   0.309
97053W        W70121  30.670  28.729  10.220
97054W        W70122  27.180  10.854   2.100
97055W        W70123  30.985  25.703   2.481
97056W        W70124  30.500  26.313   4.743
97057W        W70125  39.930  23.677  12.755
97058W        W70126   8.382  31.139  14.330
97059W        W70127   4.330  14.368  12.815
97060W        W70128  26.782  25.706  13.474
97061W        W70129  42.077  11.393  11.986
97062W        W70130  33.407  22.226  14.473
97063W        W70131  16.002   9.278   5.002
97064W        W70132  28.205  43.754  14.747
97065W        W70133  16.525  23.901  14.971
97066W        W70134   6.798  12.067  13.997
97067W        W70135  21.096  14.669   0.674
97068W        W70136  34.515  38.338   2.211
97069W        W70137  11.241   8.707   0.787
97070W        W70138  16.832  36.529  12.185
97071W        W70139  19.332  43.988  10.241
97072W        W70140  25.259  18.634   4.798
97073W        W70141  18.653  35.171   1.211
97074W        W70142   8.905  16.294  14.479
97075W        W70143  11.790  11.372  11.595
97076W        W70144  19.137  24.486  13.850
97077W        W70145  22.148  32.461  14.823
97078W        W70146  33.008   4.365  14.478
97079W        W70147   4.387  12.831  14.238
97080W        W70148  38.926  12.203  12.544
97081W        W70149  17.832  36.826   2.683
97082W        W70150   5.918  19.686  12.542
97083W        W70151  26.025  26.976  12.473
97084W        W70152   4.271  20.071  14.786
97085W        W70153  30.644  17.211   4.632
97086W        W70154   4.309  44.035  10.505
97087W        W70155  23.812  42.526  14.316
97088W        W70156  34.924  35.073  10.065
97089W        W70157  30.090  41.848  14.542
97090W        W70158  16.162  34.893  10.833
97091W        W70159  14.807   2.677   1.352
97092W        W70160  28.254  38.356  13.843
97093W        W70161  30.794  38.508  14.408
97094W        W70162  17.088  40.376  13.108
97095W        W70163  19.548  12.771  14.712
97096W        W70164  26.642  29.542   3.191
97097W        W70165  25.558  37.086  12.100
97098W        W70166  18.632  32.061  12.936
97099W        W70167  31.487  27.066  10.496
97100W        W70168  26.543  23.234   2.601
97101W        W70169  41.408   2.252   2.729
97102W        W70170  43.776  17.748  11.181
97103W        W70171  13.896  19.585  13.677
97104W        W70172  42.847   6.861   2.405
97105W        W70173  44.669  12.139   4.300
97106W        W70174  27.715  21.594   4.287
97107W        W70175  12.105  29.919   1.334
97108W        W70176  37.961  24.276   4.662
97109W        W70177   7.405  14.051   1.670
97110W        W70178  33.964  13.078  12.043
97111W        W70179  13.159  42.905  14.835
97112W        W70180  29.100  21.845  10.758
97113W        W70181  24.589   0.747  10.790
97114W        W70182  37.789   6.053   0.411
97115W        W70183  27.919  20.545  13.565
97116W        W70184   1.209  10.991  13.979
97117W        W70185  19.138  24.086   2.241
97118W        W70186  15.564  39.483  13.972
97119W        W70187  21.297   5.807   2.186
97120W        W70188  35.187  39.042   3.785
97121W        W70189   9.124  14.250   2.214
97122W        W70190   5.440  15.606   0.063
97123W        W70191  14.218  44.002  14.910
97124W        W70192  18.466  10.217   4.299
97125W        W70193  18.175  14.361   2.328
97126W        W70194  36.547  44.910   0.522
97127W        W70195  26.786  29.415  11.948
97128W        W70196  37.544  10.859  14.926
97129W        W70197  38.600   9.849   1.958
97130W        W70198  11.265  28.692   1.712
97131W        W70199  27.736   5.702  14.017
97132W        W70200  22.934  29.983  14.904
97133W        W70201  12.205   6.383   3.608
97134W        W70202  24.719  32.428  13.992
97135W        W70203  33.113  34.431  12.984
97136W        W70204  16.593  33.607   2.641
97137W        W70205  23.035  26.698   4.630
97138W        W70206  18.961   2.296  12.430
97139W        W70207  37.693  24.564   1.861
97140W        W70208  36.373  34.538  10.986
97141W        W70209   4.859  12.890  11.157
97142W        W70210  43.790  12.110  13.463
97143W        W70211  43.487  33.299  10.900
97144W        W70212  41.411  43.403   3.112
97145W        W70213  29.635  42.820   0.953
97146W        W70214  40.072  11.507   3.335
97147W        W70215  37.084   6.960   3.284
97148W        W70216  15.326   1.736   3.722
97149W        W70217  36.879   2.772   3.142
97150W        W70218  42.228  34.885  10.742
97151W        W70219  32.359  27.655   3.337
97152W        W70220  32.615  27.656   2.220
97153W        W70221  30.159  17.949  12.534
97154W        W70222  20.439  19.261  14.805
97155W        W70223   7.736  20.604  12.144
97156W        W70224  30.605   5.181   3.239
97157W        W70225  44.056   6.794   1.536
97158W        W70226   6.928   1.761  13.372
97159W        W70227  38.404  22.752   0.552
97160W        W70228   4.920  14.013   4.159
97161W        W70229   8.615  19.574   1.693
97162W        W70230  13.749  33.971   3.213
97163W        W70231  33.527  36.597  13.881
97164W        W70232  30.428  38.749   1.866
97165W        W70233  13.377  17.117  14.436
97166W        W70234  26.185  10.636   1.782
97167W        W70235   1.515  33.546  10.697
97168W        W70236   3.889  11.630   1.302
97169W        W70237   1.361   1.912  12.496
97170W        W70238  25.793  30.023   2.338
97171W        W70239  38.845   2.974  10.739
97172W        W70240  35.475  42.464  14.987
97173W        W70241  25.070  31.217   1.241
97174W        W70242  29.929  12.186   1.549
97175W        W70243  11.575  19.086  14.426
97176W        W70244  20.001   3.303  10.299
97177W        W70245   4.728  14.755   2.737
97178W        W70246   0.286  13.023  11.226
97179W        W70247   9.181  42.440  12.000
97180W        W70248  43.983  37.771   2.837
97181W        W70249  17.055  26.957   2.101
97182W        W70250   3.121   8.095  13.482
97183W        W70251  11.352  44.610   0.833
97184W        W70252  12.125  10.493  14.794
97185W        W70253  26.412  44.698   0.896
97186W        W70254  16.383  39.895   0.430
97187W        W70255  39.924  24.053   2.846
97188W        W70256   7.563  44.898   1.661
97189W        W70257  12.252   8.805  11.874
97190W        W70258  19.706  30.190  13.489
97191W        W70259  36.874  27.234   1.729
97192W        W70260  34.453  39.291  12.449
97193W        W70261  33.516  43.039  10.898
97194W        W70262  32.386  43.461  14.700
97195W        W70263   4.383  34.636   1.308
97196W        W70264   1.472  14.310  12.450
97197W        W70265   0.453  25.593   2.294
97198W        W70266  21.273  13.227   4.805
97199W        W70267  40.220   1.386   1.335
97200W        W70268  25.281   8.680  14.736
97201W        W70269   5.013  32.117   2.898
97202W        W70270  30.600  36.436  13.121
97203W        W70271  22.621  18.210   0.992
97204W        W70272  39.977  21.024   3.138
97205W        W70273  15.526  27.906  11.958
97206W        W70274  37.942  25.168  10.593
97207W        W70275   6.839   8.270   1.737
97208W        W70276   9.166  10.356   2.699
97209W        W70277   8.236  30.045  11.458
97210W        W70278   4.668   7.841  14.934
97211W        W70279   4.667  41.347  13.780
97212W        W70280   9.847  27.220  14.285
97213W        W70281   7.832  38.591  14.944
97214W        W70282  36.038  39.832   2.629
97215W        W70283  27.217  32.730   0.715
97216W        W70284  26.302  24.073   1.830
97217W        W70285  13.853   8.686   1.880
97218W        W70286  19.734  44.882   3.242
97219W        W70287  35.541  37.101  12.323
97220W        W70288   9.096  20.096  14.353
97221W        W70289  19.714  27.852   1.367
97222W        W70290  39.536  33.098  10.662
97223W        W70291  39.058   6.000  10.264
97224W        W70292   0.250  34.961   2.806
97225W        W70293  30.936  11.429   4.270
97226W        W70294  35.545  10.250   3.233
97227W        W70295  15.140  34.422   3.215
97228W        W70296  20.737  40.483   4.468
97229W        W70297   4.081  17.457  11.112
97230W        W70298   7.684  24.537   2.737
97231W        W70299  24.151  15.536  11.952
97232W        W70300  39.309  20.689  14.326
97233W        W70301  10.449  25.394  13.356
97234W        W70302  15.264  28.141  13.174
97235W        W70303  13.159  35.091   0.087
97236W        W70304  25.913  15.084  14.421
97237W        W70305  27.513  11.882   3.930
97238W        W70306   5.108  31.091  14.780
97239W        W70307  21.986   6.876  12.517
97240W        W70308  27.499  25.423   0.003
97241W        W70309   5.342  39.948   1.300
97242W        W70310  38.292  37.538  14.954
97243W        W70311   4.416  27.520   0.436
97244W        W70312  24.490  39.922  14.440
97245W        W70313  14.763   6.450  14.958
97246W        W70314  13.655  15.137   2.136
97247W        W70315  10.287  30.016  10.585
97248W        W70316  13.906  27.886   4.841
97249W        W70317  35.003  44.447   0.964
97250W        W70318  15.151  19.090  14.416
97251W        W70319   1.212  44.271  11.399
97252W        W70320   4.342  23.065  13.369
97253W        W70321  39.429   2.400   0.758
97254W        W70322  33.357  32.101   2.313
97255W        W70323  11.340   0.286  14.453
97256W        W70324  26.510  36.215   2.301
97257W        W70325  40.934  23.102  11.673
97258W        W70326   9.891  35.105   3.635
97259W        W70327  34.146   8.664   4.917
97260W        W70328  38.947  30.004   2.420
97261W        W70329  18.691  37.075   4.589
97262W        W70330  21.930  34.549   2.352
97263W        W70331   9.662   0.929  12.020
97264W        W70332  27.103  44.724  13.455
97265W        W70333  19.506   7.754  14.893
97266W        W70334  11.247   5.502  13.949
97267W        W70335  30.906  22.779   3.818
97268W        W70336  33.576  41.480  11.617
97269W        W70337   4.202  26.113  12.020
97270W        W70338  34.888  32.150  13.861
97271W        W70339   0.535  43.884  10.711
97272W        W70340  14.543  23.941   3.790
97273W        W70341   8.648  33.114   0.239
97274W        W70342  38.910  19.022  14.849
97275W        W70343  36.763  37.364   4.623
97276W        W70344  40.477  19.074   2.225
97277W        W70345   4.855  25.768   0.219
97278W        W70346  12.860  31.196   3.277
97279W        W70347  16.292   3.468  14.969
97280W        W70348  11.627  38.424  12.961
97281W        W70349  31.174  26.450   2.675
97282W        W70350  26.580  44.575  14.646
97283W        W70351   3.179   7.852   1.336
97284W        W70352   7.358  21.681   3.731
97285W        W70353  16.048  23.537  11.484
97286W        W70354  39.182   1.806  10.203
97287W        W70355   5.441   4.687   0.389
97288W        W70356  43.286  35.619  12.884
97289W        W70357   9.954  38.865   1.716
97290W        W70358  10.840  29.707  14.886
97291W        W70359  24.059  43.257   0.016
97292W        W70360  11.189  33.519  14.316
97293W        W70361  10.277  11.592  11.073
97294W        W70362  14.098  24.452  12.980
97295W        W70363  32.863  17.291  12.524
97296W        W70364   4.140  22.155   1.757
97297W        W70365  23.560  10.821   2.635
97298W        W70366  11.961  12.772  11.149
97299W        W70367  19.382  16.006   1.581
97300W        W70368  35.521  21.697  14.876
97301W        W70369  34.802  32.323   2.349
97302W        W70370  26.658   7.168  10.289
97303W        W70371  12.564  43.761  13.943
97304W        W70372  10.069  23.976  13.340
97305W        W70373  19.182  41.535  10.566
97306W        W70374  15.760  44.817   4.319
97307W        W70375  24.656  35.158  11.948
97308W        W70376  15.693  27.073  12.471
97309W        W70377  16.754  39.443  10.604
97310W        W70378  29.953   9.789  14.470
97311W        W70379   5.458   0.446  12.942
97312W        W70380  36.459  29.501  12.797
97313W        W70381  25.524  22.691  14.142
97314W        W70382   3.188  32.038  11.025
97315W        W70383  14.529  11.054  13.887
97316W        W70384  41.385  13.068   4.686
97317W        W70385  19.126  36.945   1.730
97318W        W70386  24.242  30.035  10.741
97319W        W70387  14.613  41.891   4.684
97320W        W70388  31.356  30.426   3.437
97321W        W70389  32.379  29.055   1.703
97322W        W70390  37.351  16.016   4.857
97323W        W70391  27.147  23.544   3.244
97324W        W70392  42.651  37.317   3.204
97325W        W70393  18.594  17.232   1.898
97326W        W70394   4.241  26.540  10.346
97327W        W70395  31.389  20.672  14.906
97328W        W70396  16.086  18.096  13.057
97329W        W70397   5.940  43.443   2.273
97330W        W70398  20.970   6.206   0.062
97331W        W70399  23.595   9.317  12.796
97332W        W70400  20.444   0.171  12.683
97333W        W70401  23.510  29.052   3.141
97334W        W70402  34.902  32.645  13.973
97335W        W70403  37.916  26.991  13.739
97336W        W70404   9.764   5.793   1.823
97337W        W70405  19.235   1.180   4.104
97338W        W70406  42.122  42.063  11.368
97339W        W70407  24.647  21.817   0.744
97340W        W70408   6.716  40.357  11.106
97341W        W70409  29.683   2.439   2.132
97342W        W70410  28.386  44.475  11.102
97343W        W70411  29.233  30.749   2.302
97344W        W70412  37.502  28.122  10.959
97345W        W70413  44.947  13.702   1.876
97346W        W70414  35.082  32.166  11.025
97347W        W70415  15.140  16.739  14.432
97348W        W70416  30.873  30.360   5.065
97349W        W70417   2.479  44.809   3.661
97350W        W70418  31.882  10.194   2.686
97351W        W70419  32.311   1.686   3.768
97352W        W70420   1.448  30.670  13.103
97353W        W70421  21.762  41.127  11.540
97354W        W70422  44.188   6.984  13.498
97355W        W70423  37.504  10.637   3.925
97356W        W70424  30.182  19.554  12.944
97357W        W70425  37.941  24.200  14.287
97358W        W70426   9.388  10.607  11.118
97359W        W70427  13.123  23.964   3.737
97360W        W70428  37.934  31.595   2.719
97361W        W70429  14.175  26.359  12.093
97362W        W70430  40.109  19.246   1.803
97363W        W70431  25.232  26.552  12.806
97364W        W70432  17.155  27.047  12.555
97365W        W70433  41.319   1.038   3.440
97366W        W70434   3.385  26.268  10.708
97367W        W70435  14.045  10.603  10.793
97368W        W70436  30.707  39.507  12.107
97369W        W70437   0.812  26.463  10.380
97370W        W70438  43.653  27.702   3.647
97371W        W70439  27.962  15.090   0.264
97372W        W70440  27.935   5.506  11.042
97373W        W70441   0.374  35.036  11.367
97374W        W70442  43.436  36.006   2.847
97375W        W70443  34.461  19.029  13.548
97376W        W70444  15.767  39.970  13.027
97377W        W70445   4.363   9.812   0.296
97378W        W70446   0.017  19.964   1.737
97379W        W70447  35.069  34.195   3.021
97380W        W70448  37.643   9.237  11.692
97381W        W70449  44.218  32.375  12.621
97382W        W70450  41.746  38.066   3.258
97383W        W70451  16.193   8.266   3.192
97384W        W70452  12.853  26.138  13.579
97385W        W70453   1.784  42.158   2.823
97386W        W70454  36.599  28.860  10.669
97387W        W70455  19.685  17.185  13.925
97388W        W70456  23.230  15.131   2.688
97389W        W70457   6.333  28.000  14.878
97390W        W70458   6.830  27.162  11.942
97391W        W70459  12.775  10.701  10.433
97392W        W70460   4.964  31.392   5.123
97393W        W70461  36.840  12.545  13.618
97394W        W70462  25.570  13.617  11.884
97395W        W70463   9.881  39.907  12.336
97396W        W70464  37.553   2.907   1.709
97397W        W70465  21.584   1.185   3.063
97398W        W70466  14.181  22.617   4.095
97399W        W70467   6.297  21.018   0.935
97400W        W70468  27.307  35.342  12.067
97401W        W70469  20.250  16.763  11.499
97402W        W70470   2.697  33.529   1.683
97403W        W70471  44.045  39.678  14.949
97404W        W70472  11.398  10.816   1.227
97405W        W70473  34.849  35.570   4.358
97406W        W70474  11.600  37.170  11.188
97407W        W70475  38.052  16.972  14.774
97408W        W70476  13.537   1.345   1.137
97409W        W70477  25.538  42.935  11.074
97410W        W70478  16.649  14.733  14.820
97411W        W70479  19.254  22.604   2.848
97412W        W70480  34.089  22.543   2.951
97413W        W70481  29.120  23.603   4.030
97414W        W70482  22.798  19.045  11.765
97415W        W70483   4.555  35.004  10.650
97416W        W70484  41.347  17.652   4.326
97417W        W70485  16.630  40.280   2.290
97418W        W70486  16.239  19.271  13.622
97419W        W70487  15.281   9.835   0.947
97420W        W70488   2.678  29.021   4.179
97421W        W70489  31.761  36.443   1.352
97422W        W70490  15.894   9.641   3.978
97423W        W70491  26.020  43.345  14.759
97424W        W70492   8.575  39.717  11.928
97425W        W70493  39.291  16.219   3.418
97426W        W70494  16.118  11.903   1.829
97427W        W70495  23.987  31.949   1.762
97428W        W70496  17.729  13.964   4.414
97429W        W70497  14.468  28.904  10.645
97430W        W70498  11.336  23.123   2.927
97431W        W70499   5.333  43.708  13.506
97432W        W70500  13.905  18.707  11.179
97433W        W70501  33.073  31.175   1.760
97434W        W70502  16.223  11.170   1.319
97435W        W70503  23.231   4.592   1.355
97436W        W70504  17.755  44.276  11.182
97437W        W70505  42.030  43.751  14.426
97438W        W70506   5.678  24.590  10.664
97439W        W70507  12.626   1.085   1.646
97440W        W70508   7.742  38.251   2.885
97441W        W70509  27.723  16.780   0.722
97442W        W70510  29.531   7.366   4.183
97443W        W70511  11.317   1.900   0.381
97444W        W70512   0.417  19.585   0.556
97445W        W70513   9.270  17.014  14.358
97446W        W70514  42.369   0.808  12.305
97447W        W70515   3.175  14.618  11.455
97448W        W70516  23.047   2.738   0.679
97449W        W70517  22.765  12.656   4.054
97450W        W70518   2.502  26.012   2.833
97451W        W70519   2.214   4.855  13.037
97452W        W70520  43.486  44.792   3.164
97453W        W70521  12.241   6.172  14.398
97454W        W70522  41.043   7.215  14.394
97455W        W70523  24.681   9.860   3.066
97456W        W70524  19.859  18.181  12.880
97457W        W70525  28.481  29.289   3.607
97458W        W70526  33.360  37.605   4.132
97459W        W70527  41.417  26.143  13.102
97460W        W70528  44.392   3.441   2.858
97461W        W70529  21.545  41.532   4.587
97462W        W70530  19.641  11.708   2.313
97463W        W70531  42.875  17.612  14.764
97464W        W70532  15.213  12.596   0.324
97465W        W70533  16.958   2.013  13.914
97466W        W70534  28.908  12.998  11.096
97467W        W70535  34.341  37.183  11.024
97468W        W70536   4.309   7.390  11.453
97469W        W70537  43.783  22.148  14.825
97470W        W70538  37.546  24.196  12.653
97471W        W70539  13.827  15.459  13.950
97472W        W70540  42.399  19.400   3.322
97473W        W70541   7.980  13.304   2.258
97474W        W70542  33.146  14.253  14.843
97475W        W70543  39.768   5.486  11.523
97476W        W70544   6.999   3.474  11.403
97477W        W70545  33.542   2.755   2.339
97478W        W70546  23.698  15.303  12.078
97479W        W70547  29.982  25.552  12.088
97480W        W70548  43.414  25.230  13.831
97481W        W70549   6.165  33.631   1.351
97482W        W70550  27.653  40.097   4.735
97483W        W70551  37.941  29.043   2.210
97484W        W70552   8.783  12.840  10.448
97485W        W70553   3.352   2.222  13.093
97486W        W70554  42.972  23.906  13.933
97487W        W70555  27.563   7.441  14.333
97488W        W70556  29.668  38.371   3.370
97489W        W70557   5.900  30.230   3.638
97490W        W70558   0.585   0.323   3.712
97491W        W70559   8.338  35.878  14.971
97492W        W70560   5.302  38.589   0.983
97493W        W70561  29.279  16.757  12.441
97494W        W70562  11.443  18.755   1.824
97495W        W70563  44.381  10.187   3.151
97496W        W70564  35.361  29.956  11.359
97497W        W70565  41.425  14.641  14.914
97498W        W70566  28.942   3.728  11.159
97499W        W70567  36.021   8.223   0.836
97500W        W70568  36.652  24.791   1.831
97501W        W70569  31.351  11.794   3.268
97502W        W70570  44.266  28.969  10.076
97503W        W70571  41.927   2.184   4.564
97504W        W70572  20.457  40.862  11.374
97505W        W70573  40.840  36.580  14.732
97506W        W70574   7.155  13.257   2.671
97507W        W70575  38.112  43.830   3.732
97508W        W70576  43.550  35.056   2.251
97509W        W70577  17.016  44.572  12.955
97510W        W70578  39.578  20.130   4.804
97511W        W70579   3.076   5.639  13.294
97512W        W70580  22.732  11.692  14.267
97513W        W70581   2.425  38.910   4.682
97514W        W70582  24.878  25.008   3.633
97515W        W70583  44.955  28.565  12.397
97516W        W70584  19.200  40.367  11.011
97517W        W70585  40.266  22.006  10.915
97518W        W70586  43.864  22.984   1.415
97519W        W70587   1.392   2.965  12.513
97520W        W70588  38.829  30.713   4.811
97521W        W70589  40.355  20.582  14.843
97522W        W70590  31.655  29.911   2.299
97523W        W70591  38.972   4.893  12.531
97524W        W70592  12.787  34.686   1.205
97525W        W70593  16.179   3.778   2.170
97526W        W70594  42.225  42.921  13.374
97527W        W70595   1.256  15.239  14.922
97528W        W70596  25.699  29.971  13.391
97529W        W70597  11.542  23.773  10.330
97530W        W70598  11.182  36.563   4.578
97531W        W70599  19.815  28.552  14.383
97532W        W70600  34.738  24.741   0.263
97533W        W70601  43.835  21.058  13.533
97534W        W70602  30.970  30.957  10.807
97535W        W70603  22.266  27.245   1.959
97536W        W70604  30.036  39.644  14.505
97537W        W70605  19.502  14.053   3.122
97538W        W70606  38.495   4.739  13.828
97539W        W70607  28.934  39.312   3.889
97540W        W70608  43.139  11.485  13.852
97541W        W70609  44.508  41.893   0.265
97542W        W70610  33.505  40.989  11.502
97543W        W70611  41.343  32.644   3.771
97544W        W70612  25.255  14.226   0.198
97545W        W70613  23.550  30.012  14.094
97546W        W70614  38.280  18.254   2.879
97547W        W70615  29.919  13.311   2.497
97548W        W70616  11.728  30.076  11.874
97549W        W70617   9.813  21.705  13.065
97550W        W70618  18.112   8.789  12.050
97551W        W70619  25.405   2.437   2.791
97552W        W70620   1.703  27.058   3.135
97553W        W70621  38.614  10.387  14.290
97554W        W70622   4.886  24.326  14.305
97555W        W70623  37.390  29.859   0.817
97556W        W70624  39.828  26.075  13.568
97557W        W70625  43.162  32.938  14.793
97558W        W70626   7.489  34.834   1.174
97559W        W70627  32.343  13.885  12.953
97560W        W70628   8.751  37.076   1.835
97561W        W70629   0.281   6.843   4.288
97562W        W70630  29.487  42.242  11.011
97563W        W70631   5.716  28.057  11.954
97564W        W70632   4.922  38.829   3.702
97565W        W70633  10.144  35.337  14.360
97566W        W70634  12.760  19.816  14.537
97567W        W70635  13.887  10.285   0.287
97568W        W70636  41.002  44.459   4.912
97569W        W70637  40.276   9.203   2.845
97570W        W70638   5.325   6.437   2.655
97571W        W70639  38.428  40.049  14.058
97572W        W70640  29.238   4.361   3.813
97573W        W70641  11.807  20.288  14.017
97574W        W70642  24.165  20.487  12.794
97575W        W70643  11.453  27.611   0.412
97576W        W70644  19.181  32.922  14.507
97577W        W70645  15.654  10.410  13.103
97578W        W70646  16.800  36.125  10.540
97579W        W70647   6.278   9.137  14.740
97580W        W70648  22.565  43.558   0.377
97581W        W70649  30.527  25.371  11.642
97582W        W70650  10.123  36.574  11.065
97583W        W70651  13.954  17.811   1.852
97584W        W70652  40.419  17.200  14.902
97585W        W70653   4.490   5.729  11.797
97586W        W70654  14.200  41.577  13.564
97587W        W70655  20.764  15.861   4.897
97588W        W70656   5.393  30.001  13.553
97589W        W70657  30.111   5.842   3.897
97590W        W70658   8.263  18.644  10.540
97591W        W70659  28.538  26.858   2.324
97592W        W70660  36.829  36.074   0.986
97593W        W70661  41.303  42.255  12.496
97594W        W70662  32.429  43.942   2.376
97595W        W70663  18.373   9.600   1.705
97596W        W70664  35.610  35.566  14.338
97597W        W70665  26.474  17.190  12.365
97598W        W70666  28.773  25.323  12.549
97599W        W70667  44.541  44.216  13.995
97600W        W70668  39.359  20.333  13.953
97601W        W70669  38.861  44.269   2.295
97602W        W70670  38.252  21.201   4.294
97603W        W70671  35.164   9.894  12.439
97604W        W70672   1.768  42.720   3.223
97605W        W70673  32.369  17.093   3.172
97606W        W70674  38.498  25.958   2.190
97607W        W70675  23.250  35.286   1.420
97608W        W70676   4.772   0.186  14.865
97609W        W70677  20.060  24.758   4.522
97610W        W70678   5.531  41.398   3.312
97611W        W70679   0.840  31.378  13.780
97612W        W70680   7.335  28.354  11.978
97613W        W70681   4.447  31.377   3.171
97614W        W70682   1.132  25.171   4.575
97615W        W70683  17.886  17.253   3.230
97616W        W70684  43.797  31.503   4.526
97617W        W70685  31.467  38.499   0.431
97618W        W70686  33.996  18.678  12.810
97619W        W70687  31.576   1.435   0.382
97620W        W70688  17.226  37.733  14.306
97621W        W70689  24.046  37.004  12.101
97622W        W70690  20.541  44.256   5.019
97623W        W70691  39.615  38.330   1.355
97624W        W70692  27.172  19.296   0.005
97625W        W70693  15.110  13.642  11.079
97626W        W70694  42.346  36.057  14.833
97627W        W70695  22.046  19.578   2.175
97628W        W70696  40.989  36.504   0.639
97629W        W70697  36.611  35.496   1.717
97630W        W70698   9.735  37.499  12.931
97631W        W70699  16.620  34.501   2.197
97632W        W70700  32.612  40.541  12.146
97633W        W70701  32.544   3.385   1.780
97634W        W70702  35.906  36.569   2.303
97635W        W70703  20.194  40.898   4.738
97636W        W70704  16.300  31.485   1.449
97637W        W70705  44.227  24.813   4.552
97638W        W70706  26.220  36.366   3.664
97639W        W70707   7.576   3.854  13.880
97640W        W70708  37.490   6.685   0.900
97641W        W70709  21.743   6.491   0.171
97642W        W70710   5.456  41.341  11.968
97643W        W70711  27.025  41.854   1.280
97644W        W70712  28.597  31.140  12.433
97645W        W70713   9.236  41.253   1.853
97646W        W70714  42.818  37.791   3.356
97647W        W70715  24.887  33.772  14.382
97648W        W70716  28.068  35.132  13.270
97649W        W70717  36.054  19.087   1.648
97650W        W70718  33.392  24.202   2.804
97651W        W70719   3.285  21.599  10.942
97652W        W70720   2.911  15.161  10.591
97653W        W70721   7.148  13.847  11.416
97654W        W70722  42.051  41.264  14.460
97655W        W70723  21.723  13.498   2.743
97656W        W70724   6.357   9.114  13.387
97657W        W70725  38.889  18.974  10.621
97658W        W70726  16.697  35.076  12.962
97659W        W70727  19.547  10.335   4.991
97660W        W70728  42.063  27.262  14.750
97661W        W70729  35.385   3.110   3.219
97662W        W70730  23.359   7.225   4.603
97663W        W70731  23.088  35.078   4.108
97664W        W70732  28.209   3.892  13.418
97665W        W70733  31.235  17.692   1.316
97666W        W70734  17.478  18.174   4.250
97667W        W70735  35.691  43.486  12.849
97668W        W70736  22.521   2.985  13.018
97669W        W70737  26.017  19.060   2.847
97670W        W70738   6.184  15.062  14.892
97671W        W70739   0.356  43.965   0.874
97672W        W70740  31.020  14.866  14.982
97673W        W70741  11.702   5.338  14.527
97674W        W70742   3.374  28.655   0.316
97675W        W70743  23.644  30.393  13.753
97676W        W70744  37.802  14.047   4.753
97677W        W70745  43.749  17.799   2.120
97678W        W70746  30.402   7.615   1.791
97679W        W70747  31.443  20.466   3.628
97680W        W70748  16.425   5.408   0.591
97681W        W70749   2.488  40.050   2.321
97682W        W70750   6.598  15.528   4.180
97683W        W70751   3.737  42.467  11.910
97684W        W70752  10.705  28.572   1.623
97685W        W70753  44.511  10.659   1.923
97686W        W70754  16.505  13.802   1.316
97687W        W70755  28.311   3.406  12.688
97688W        W70756  38.889  40.467  12.462
97689W        W70757   9.256  38.010  14.869
97690W        W70758  36.610  16.849  13.485
97691W        W70759  43.482  30.400   2.212
97692W        W70760   9.623   2.736   2.704
97693W        W70761  38.089  10.683   1.883
97694W        W70762  19.642  17.740   1.481
97695W        W70763  34.461  24.048  10.501
97696W        W70764  39.136  25.693  13.932
97697W        W70765  23.750  41.611   1.400
97698W        W70766  24.096  29.503   4.657
97699W        W70767   2.243  14.066   3.175
97700W        W70768  20.542  22.854  13.022
97701W        W70769  13.660  11.104  12.447
97702W        W70770  13.823  33.562   4.618
97703W        W70771  33.901  15.568  12.360
97704W        W70772   1.282  17.787   4.290
97705W        W70773  36.548  36.037   1.696
97706W        W70774  31.380   5.592   2.935
97707W        W70775  43.013   9.765  14.844
97708W        W70776  28.733  34.478   1.863
97709W        W70777  18.795  12.324   1.779
97710W        W70778  41.530   2.902   0.910
97711W        W70779   6.948  33.553   3.886
97712W        W70780  23.367   3.577  10.018
97713W        W70781  26.271  23.095  11.427
97714W        W70782  21.536   5.221  11.125
97715W        W70783  35.386  29.003  12.581
97716W        W70784   1.053  15.827  10.379
97717W        W70785  10.178  18.179  10.255
97718W        W70786   2.962  30.149  12.255
97719W        W70787   4.883  20.305   2.340
97720W        W70788  11.869  36.361  14.951
97721W        W70789  32.487  35.315  13.282
97722W        W70790   1.929  12.944   1.386
97723W        W70791  21.069  15.497   3.191
97724W        W70792  37.334  14.268  13.342
97725W        W70793  30.933  15.861   1.024
97726W        W70794  31.590  32.416  13.163
97727W        W70795  21.251  37.879   0.182
97728W        W70796  22.750  15.761   3.757
97729W        W70797  43.459   3.749  14.230
97730W        W70798  12.817  27.246   3.720
97731W        W70799   7.742  12.074   2.758
97732W        W70800  16.101   9.152   3.982
97733W        W70801   0.843  33.175   2.929
97734W        W70802  25.978  16.755  14.466
97735W        W70803  19.502  25.747  11.151
97736W        W70804  14.278   6.525  11.616
97737W        W70805  24.350  13.084   1.270
97738W        W70806  28.317  16.863  13.485
97739W        W70807  36.394  37.244   4.282
97740W        W70808   5.914  21.154   2.149
97741W        W70809  43.957   4.749  14.846
97742W        W70810  33.957  10.978   0.852
97743W        W70811  34.433  41.278   0.432
97744W        W70812   8.344  22.032  14.073
97745W        W70813  34.461   0.365   4.414
97746W        W70814  33.325  10.046  14.868
97747W        W70815  14.655   9.962   3.277
97748W        W70816  29.007  22.793   0.841
97749W        W70817   7.425   4.349  13.884
97750W        W70818  30.926  31.670  11.944
97751W        W70819  29.062  31.853  10.759
97752W        W70820  27.155  33.948  11.487
97753W        W70821  12.840  38.793   2.718
97754W        W70822  11.856   8.237  11.161
97755W        W70823   8.945  15.846  14.177
97756W        W70824  27.454  40.000  14.232
97757W        W70825   2.129   9.356  14.765
97758W        W70826  38.016   4.122  10.656
97759W        W70827   7.440  14.149  11.046
97760W        W70828   7.617  29.687   2.271
97761W        W70829  15.197  10.237  13.336
97762W        W70830  11.905  10.258   4.557
97763W        W70831  41.714  29.837  12.031
97764W        W70832   5.369  34.962  11.197
97765W        W70833  41.515   4.673  13.006
97766W        W70834   4.445   0.017  13.037
97767W        W70835   1.250  43.365  14.583
97768W        W70836  31.904  35.464   4.363
97769W        W70837  29.952  35.674   3.102
97770W        W70838  34.624  39.988   0.237
97771W        W70839  32.279  44.789   3.784
97772W        W70840  37.318  30.422   5.088
97773W        W70841  13.160   9.948   2.689
97774W        W70842   6.953  13.269  13.982
97775W        W70843  13.643  29.393   4.567
97776W        W70844   9.192  27.999  14.364
97777W        W70845  20.278   0.268   2.899
97778W        W70846  26.170   3.849   3.672
97779W        W70847  23.168  21.654   2.557
97780W        W70848   6.947  17.460   0.149
97781W        W70849   7.117  42.882  11.394
97782W        W70850  31.128  26.256  12.329
97783W        W70851  15.290  44.904  12.163
97784W        W70852  17.159  35.809   3.667
97785W        W70853  38.085  25.658  12.013
97786W        W70854   6.289  18.271   5.059
97787W        W70855  30.899  42.771   2.362
97788W        W70856  43.915  13.818   2.278
97789W        W70857  23.750   5.333  11.579
97790W        W70858  15.138  31.225  12.960
97791W        W70859  13.655  44.291   0.822
97792W        W70860  19.737  10.421  11.253
97793W        W70861  28.848  44.651  13.559
97794W        W70862  26.449   8.165  12.934
97795W        W70863  11.036  25.235  10.761
97796W        W70864  33.503   7.342   0.354
97797W        W70865  15.626  36.574   1.257
97798W        W70866  32.373   1.856  14.222
97799W        W70867  30.428  18.727  14.770
97800W        W70868  16.376  13.050   0.271
97801W        W70869  37.062   7.297  14.502
97802W        W70870  44.780   9.180   0.267
97803W        W70871   9.415  27.880   4.259
97804W        W70872  30.946  10.123   0.278
97805W        W70873  14.269  10.188  11.099
97806W        W70874  11.104   6.728   4.081
97807W        W70875  19.007  15.321  11.477
97808W        W70876  15.103   0.865   2.868
97809W        W70877  43.695   0.950   4.695
97810W        W70878  26.731  41.905  14.853
97811W        W70879  38.370  24.017   4.863
97812W        W70880  21.568   9.212   4.316
97813W        W70881  40.958  27.039  14.874
97814W        W70882   0.960  29.945   3.447
97815W        W70883   4.359  31.240  13.052
97816W        W70884  19.552  25.823   2.738
97817W        W70885  37.356  27.986  10.491
97818W        W70886  25.515   8.296   2.525
97819W        W70887  40.811  24.933  14.869
97820W        W70888  29.146  33.061  14.468
97821W        W70889  15.607  37.853  13.386
97822W        W70890  26.572   7.286   0.492
97823W        W70891  42.966  11.539   4.542
97824W        W70892   8.633  34.664  11.959
97825W        W70893  13.295   5.757  11.867
97826W        W70894  17.841  25.215   0.910
97827W        W70895  18.715   3.899   4.438
97828W        W70896  15.050   5.723   2.250
97829W        W70897  32.916   9.909  14.520
97830W        W70898  12.237  28.927  13.530
97831W        W70899  32.358  11.783   4.564
97832W        W70900  36.717  29.652  13.851
97833W        W70901  23.497  40.927   2.833
97834W        W70902  42.501  39.836  10.515
97835W        W70903  13.747   1.893   3.735
97836W        W70904  19.492  31.484  13.789
97837W        W70905  33.888  27.779   3.132
97838W        W70906   4.333   3.251   4.597
97839W        W70907  14.164  25.059  12.363
97840W        W70908  17.359   9.409   2.865
97841W        W70909  23.985   5.297  13.011
97842W        W70910  18.428  23.719   1.842
97843W        W70911  43.523  32.825  11.115
97844W        W70912   8.874  16.797   2.373
97845W        W70913   4.007  20.481   4.592
97846W        W70914  25.600  30.920   3.619
97847W        W70915  26.239   5.295   4.101
97848W        W70916  37.661   8.739  13.675
97849W        W70917  10.539  36.423  10.738
97850W        W70918  12.286  34.683   2.789
97851W        W70919  11.569  10.360   3.725
97852W        W70920   0.965   4.196   3.682
97853W        W70921  17.240  38.834   0.782
97854W        W70922  25.618  20.004   2.028
97855W        W70923  13.782   2.304  13.917
97856W        W70924  22.144  13.413  11.541
97857W        W70925  27.193  30.517   4.631
97858W        W70926  20.258  29.964  12.908
97859W        W70927  21.220  37.562   9.937
97860W        W70928  38.849  43.060  13.461
97861W        W70929  19.606  24.547  10.659
97862W        W70930  27.655  23.524   3.187
97863W        W70931  22.287  28.694  14.311
97864W        W70932  26.704  41.865   4.117
97865W        W70933   8.287  15.110  14.196
97866W        W70934  14.809   7.184  11.235
97867W        W70935  30.543  39.706   0.802
97868W        W70936  15.773  36.415  12.414
97869W        W70937  12.797  15.684  11.104
97870W        W70938  34.049   7.267  11.605
97871W        W70939  40.312  36.270   3.247
97872W        W70940  13.629  19.168  11.136
97873W        W70941  21.762  34.949   4.015
97874W        W70942  15.724   4.390   4.465
97875W        W70943  33.453  42.296  13.301
97876W        W70944  25.041  16.223  13.416
97877W        W70945  43.174  11.371  13.346
97878W        W70946   7.420   1.866  11.177
97879W        W70947   6.081   6.314  11.686
97880W        W70948  26.899   4.970  12.893
97881W        W70949  19.242   9.540  11.900
97882W        W70950   5.088  10.140  10.719
97883W        W70951   5.152   2.488   0.324
97884W        W70952  22.113  18.078   0.289
97885W        W70953  44.915   9.323  13.409
97886W        W70954  23.477  19.003  11.091
97887W        W70955  36.789  24.548   2.305
97888W        W70956  30.959  33.578  13.873
97889W        W70957  38.924  44.364   5.159
97890W        W70958  26.064   6.389   1.078
97891W        W70959   9.738  38.293   2.907
97892W        W70960  29.307  28.286   4.136
97893W        W70961  26.374  28.919  14.762
97894W        W70962  43.732  32.266  12.574
97895W        W70963  44.395  19.466  13.632
97896W        W70964  12.858  28.183  12.030
97897W        W70965  23.576  13.710  12.126
97898W        W70966  14.374   2.979   1.274
97899W        W70967   7.687  17.142  14.155
97900W        W70968  40.847  21.459   2.898
97901W        W70969   7.224  37.727  12.030
97902W        W70970  32.142  16.510   0.386
97903W        W70971  10.605   5.180   1.932
97904W        W70972   4.251  36.721  13.419
97905W        W70973  41.366  29.377  12.240
97906W        W70974  23.615   1.030  12.016
97907W        W70975  20.094   1.402   1.965
97908W        W70976   6.279  43.229   3.954
97909W        W70977  40.076   1.524   5.560
97910W        W70978  13.893  38.349  12.927
97911W        W70979   4.422  14.319   3.563
97912W        W70980  31.093   3.652   1.747
97913W        W70981   3.967  41.042   3.326
97914W        W70982  19.753  32.226   4.105
97915W        W70983   9.179  26.031  12.438
97916W        W70984  44.364   5.900   3.210
97917W        W70985   4.964   1.823  11.574
97918W        W70986  33.960  22.762   4.873
97919W        W70987   9.155   3.821  12.386
97920W        W70988   5.186  23.724   3.554
97921W        W70989  17.799   3.237   2.826
97922W        W70990   1.259  15.302  13.206
97923W        W70991  42.464  23.798  12.100
97924W        W70992  23.149  22.217  14.459
97925W        W70993  30.574  38.810   3.612
97926W        W70994  19.361  40.324   2.306
97927W        W70995  25.160  15.900  13.792
97928W        W70996  12.560  29.702   0.815
97929W        W70997  40.945  42.954   0.536
97930W        W70998   4.793  14.843   0.675
97931W        W70999  31.125  39.895  13.289
97932W        W71000  42.695  37.001  13.876
97933W        W71001  23.566  39.940   0.281
97934W        W71002  16.568  42.276  11.027
97935W        W71003   0.701  12.588   1.412
97936W        W71004  38.852  43.770   3.393
97937W        W71005  15.300   2.056  12.843
97938W        W71006  36.049  28.266   2.947
97939W        W71007  31.650   4.850  10.802
97940W        W71008  16.816  15.251  13.967
97941W        W71009  43.453   7.363  13.945
97942W        W71010   1.536  44.122  12.762
97943W        W71011  33.651  42.893  11.915
97944W        W71012  44.585   0.558   5.035
97945W        W71013   4.454  41.760   0.493
97946W        W71014   5.262  43.339  14.281
97947W        W71015  32.288  38.179  14.344
97948W        W71016   0.977  15.210   2.875
97949W        W71017  19.296  36.959   0.304
97950W        W71018  30.687  25.456  12.525
97951W        W71019   6.216  23.176  12.125
97952W        W71020  24.529  30.388   4.856
97953W        W71021  19.510  10.325  13.925
97954W        W71022   6.154   7.218   4.700
97955W        W71023  42.854  27.711  14.441
97956W        W71024  16.095  28.184  11.095
97957W        W71025  20.913  24.707   3.402
97958W        W71026  13.624  38.468   2.315
97959W        W71027   2.562  26.584   2.255
97960W        W71028  28.984  38.106   0.826
97961W        W71029  40.411  29.182   0.900
97962W        W71030   4.959   0.774  12.936
97963W        W71031  12.924  40.363  14.395
97964W        W71032  39.729  18.692  10.691
97965W        W71033  37.524  11.368   0.047
97966W        W71034  12.628  40.604   2.730
97967W        W71035  31.611  30.457   4.397
97968W        W71036  30.480   9.882   4.388
97969W        W71037   9.539   3.852   0.969
97970W        W71038  28.118  16.187   2.407
97971W        W71039  42.523  17.509  11.089
97972W        W71040  12.376   8.664   0.184
97973W        W71041   5.347  38.354   0.539
97974W        W71042  37.373  27.746  13.759
97975W        W71043  18.233  26.732  13.957
97976W        W71044  31.451  11.631  12.449
97977W        W71045  16.559  35.123  11.132
97978W        W71046   7.767  15.982   4.095
97979W        W71047  15.802  32.832  11.499
97980W        W71048  18.819   2.465  12.912
97981W        W71049  37.199  37.167   1.616
97982W        W71050   6.423  37.297   3.731
97983W        W71051  35.816   5.562   2.848
97984W        W71052  42.827  36.722   2.783
97985W        W71053  31.049   1.334   1.151
97986W        W71054  34.568  33.248   0.339
97987W        W71055  34.974  23.198  12.834
97988W        W71056  19.108  35.292   0.272
97989W        W71057  17.532  35.010   0.811
97990W        W71058  31.551  16.789  12.057
97991W        W71059  32.539  31.387   2.630
97992W        W71060   4.861  28.426   2.349
97993W        W71061  34.186  10.613  12.501
97994W        W71062  22.753  22.049  13.721
97995W        W71063   1.035  25.735  11.504
97996W        W71064  20.262  41.014  13.027
97997W        W71065  43.240  39.289  12.464
97998W        W71066   1.959  38.423   2.861
97999W        W71067  29.558  42.745   2.428
98000W        W71068  35.453  15.710   0.519
98001W        W71069  36.316   8.694   0.697
98002W        W71070   1.433   4.420   3.626
98003W        W71071   8.854  19.941  12.845
98004W        W71072  21.638  16.308  11.139
98005W        W71073  10.836  38.286   2.622
98006W        W71074  25.868  11.715  12.286
98007W        W71075  21.027   0.558  10.976
98008W        W71076   6.596  16.227  11.738
98009W        W71077  38.321  19.584  13.179
98010W        W71078  29.713  41.380   1.102
98011W        W71079  11.726  16.900   3.314
98012W        W71080  26.727  26.896  13.712
98013W        W71081  42.116  43.233  14.290
98014W        W71082   2.340  40.977  13.392
98015W        W71083   0.971  14.228  12.494
98016W        W71084  30.857  16.645   3.126
98017W        W71085  35.778   4.634  11.541
98018W        W71086  39.051  28.953  10.608
98019W        W71087  35.343  20.769  14.351
98020W        W71088  44.087  22.074  12.863
98021W        W71089  11.560   3.504   3.747
98022W        W71090  37.286  42.942   3.568
98023W        W71091  42.969   6.115   3.214
98024W        W71092  13.517  27.285  12.450
98025W        W71093  17.293  21.079   4.104
98026W        W71094  24.615  27.003   4.031
98027W        W71095  31.520  13.112  12.937
98028W        W71096  43.279  42.027   2.247
98029W        W71097  34.675  37.115  14.840
98030W        W71098  22.953  15.249  11.589
98031W        W71099   8.624   9.352  11.536
98032W        W71100  29.766  27.427  14.212
98033W        W71101  37.362   3.468   4.829
98034W        W71102   4.287  33.468   3.230
98035W        W71103   9.557  33.583   1.817
98036W        W71104  40.423  20.805   3.544
98037W        W71105  16.663  33.970   0.821
98038W        W71106  33.216  20.520   0.819
98039W        W71107   9.877   3.884  10.761
98040W        W71108  12.240  41.421  10.705
98041W        W71109  19.007   4.706   5.045
98042W        W71110   3.242  40.972   1.995
98043W        W71111  34.581   9.288   3.662
98044W        W71112  34.096  18.155  13.757
98045W        W71113   7.452  22.101   4.560
98046W        W71114   2.232  13.103   2.348
98047W        W71115  43.037  29.064  12.998
98048W        W71116  44.920  26.255  14.088
98049W        W71117  10.457  10.209  11.608
98050W        W71118  43.849  22.658  10.790
98051W        W71119  41.377  26.962  12.123
98052W        W71120  11.082  27.766  14.002
98053W        W71121  12.072  20.559  14.378
98054W        W71122  41.256  43.846   2.883
98055W        W71123  20.835  21.192   2.197
98056W        W71124  19.886  43.303  13.045
98057W        W71125  35.561  38.779  11.862
98058W        W71126  36.360  21.732   2.388
98059W        W71127  31.865  36.940   1.234
98060W        W71128   1.724   4.733  11.056
98061W        W71129  36.548  39.086   3.445
98062W        W71130  27.110  38.030  13.119
98063W        W71131  16.232  24.410   1.733
98064W        W71132  43.795  26.630  12.045
98065W        W71133  37.872  15.530  12.900
98066W        W71134  16.024  23.803  11.923
98067W        W71135  18.785   4.899  11.545
98068W        W71136  27.592  31.030   3.006
98069W        W71137  33.340  32.811  12.436
98070W        W71138   2.309  10.698  10.974
98071W        W71139  31.418  11.184  11.575
98072W        W71140  29.477  22.961   4.088
98073W        W71141  30.511  39.826  14.427
98074W        W71142   5.276  14.658   2.475
98075W        W71143   9.757  31.541  14.776
98076W        W71144  16.667  26.135  12.024
98077W        W71145  21.980  16.368  11.971
98078W        W71146  31.624  14.716   2.151
98079W        W71147  36.095  27.098  10.984
98080W        W71148  17.505  41.978  11.673
98081W        W71149  10.699  27.770  11.610
98082W        W71150  25.034  20.668   2.856
98083W        W71151  34.514  29.964   4.081
98084W        W71152   0.189  22.513  10.699
98085W        W71153   2.165  34.981   1.880
98086W        W71154  31.002  36.702   4.438
98087W        W71155  14.029  19.177   4.373
98088W        W71156  20.684  32.119  14.696
98089W        W71157  44.455   8.644  11.984
98090W        W71158  23.002  18.632   0.870
98091W        W71159  41.707  31.384   3.159
98092W        W71160  12.833  23.682   0.433
98093W        W71161  29.097  23.427   0.412
98094W        W71162  17.035   1.840  10.803
98095W        W71163   4.842   6.735  10.698
98096W        W71164  36.126  21.795  13.634
98097W        W71165  24.725  10.897   3.322
98098W        W71166  35.964  34.488  13.391
98099W        W71167   1.025  24.412   4.131
98100W        W71168  36.940   5.136   4.963
98101W        W71169  44.488  20.969  11.160
98102W        W71170  39.449  24.626  13.498
98103W        W71171   5.252  44.489  14.045
98104W        W71172  43.364  23.440   0.768
98105W        W71173   8.673   3.638   0.531
98106W        W71174  34.891  30.302  11.588
98107W        W71175   9.239  13.972   0.506
98108W        W71176  10.089  26.591   3.337
98109W        W71177  10.565   3.911   1.348
98110W        W71178  14.889  20.300   1.011
98111W        W71179   0.839   2.755  13.777
98112W        W71180  35.116  34.972  13.281
98113W        W71181  35.324   3.930  11.222
98114W        W71182  18.834  39.948  11.598
98115W        W71183  10.302  25.797  11.974
98116W        W71184  31.133  24.758   1.171
98117W        W71185  15.305  24.703   0.942
98118W        W71186  16.795  35.062  14.953
98119W        W71187  29.085  41.989   3.606
98120W        W71188   2.699   7.792   2.255
98121W        W71189   7.775  38.044   1.152
98122W        W71190   4.278  22.852  13.855
98123W        W71191  31.254  43.396  10.577
98124W        W71192  13.056  33.638  13.550
98125W        W71193  12.862  14.222  14.013
98126W        W71194  20.647  11.122  12.966
98127W        W71195  21.740  21.137  12.822
98128W        W71196  40.878  12.285   4.638
98129W        W71197   7.266   8.464   1.514
98130W        W71198  16.124  33.442   2.877
98131W        W71199  33.588  20.010  14.621
98132W        W71200  19.986   5.304   0.222
98133W        W71201  39.985  24.224   2.195
98134W        W71202  22.264  30.978  11.523
98135W        W71203  19.275  18.154  13.312
98136W        W71204  38.582   8.243   4.145
98137W        W71205  24.711  39.343   4.946
98138W        W71206  36.838  44.451  14.747
98139W        W71207  16.357  40.285   4.143
98140W        W71208   8.842   8.756   1.981
98141W        W71209  15.186  30.691  13.005
98142W        W71210   7.798  42.566   2.852
98143W        W71211   8.240  12.271   2.774
98144W        W71212  30.914   1.774   3.371
98145W        W71213  29.779  24.500  13.782
98146W        W71214  11.529  24.674   2.509
98147W        W71215  24.082  12.628  10.735
98148W        W71216  35.589  22.597  12.837
98149W        W71217  32.503   2.022   2.817
98150W        W71218  30.671  31.550   2.310
98151W        W71219  26.960   5.187  11.202
98152W        W71220  18.172  33.517  11.167
98153W        W71221  10.186  39.378   1.767
98154W        W71222  36.528  29.623  11.243
98155W        W71223   9.377  16.218  11.259
98156W        W71224  22.454  18.586  10.255
98157W        W71225   1.477  37.801   4.827
98158W        W71226   0.412   4.629   3.117
98159W        W71227  30.916  13.874   3.399
98160W        W71228  14.445  11.335  13.412
98161W        W71229  16.813  27.532   4.667
98162W        W71230  36.332  17.559  11.197
98163W        W71231   0.159  20.961  11.419
98164W        W71232  35.956  34.574   1.075
98165W        W71233   6.447  27.705   0.861
98166W        W71234  17.564  35.811   3.190
98167W        W71235  10.691   7.460   4.125
98168W        W71236   1.494  17.731  10.659
98169W        W71237   2.712  39.623   4.107
98170W        W71238  38.169  35.337   3.425
98171W        W71239   9.282  14.093   4.032
98172W        W71240   4.216  20.960   4.748
98173W        W71241  43.245  17.251  14.978
98174W        W71242  40.927   8.613  14.757
98175W        W71243   2.879  20.218  14.789
98176W        W71244  37.224  41.972   3.514
98177W        W71245  13.580  23.188  14.292
98178W        W71246   3.715   0.781  11.590
98179W        W71247  18.719  13.086   0.243
98180W        W71248  11.236  19.595   2.714
98181W        W71249  24.188  14.168   2.642
98182W        W71250  37.420  40.810  11.641
98183W        W71251  38.522  36.688  12.902
98184W        W71252   8.734  38.787   5.155
98185W        W71253  43.210   4.804  13.985
98186W        W71254   2.012  21.087   2.494
98187W        W71255  44.748  26.729  11.039
98188W        W71256  38.342  30.184  11.853
98189W        W71257  38.372   6.971   3.479
98190W        W71258  12.780  36.628  11.462
98191W        W71259  13.322   5.119  13.931
98192W        W71260  38.338  16.666   3.695
98193W        W71261  11.305  37.671   1.420
98194W        W71262  30.639  29.480  14.462
98195W        W71263   5.752  40.241  14.972
98196W        W71264   2.869  33.958  14.020
98197W        W71265  44.909  43.437  11.730
98198W        W71266  36.941   2.973  11.634
98199W        W71267   6.146  22.110  13.361
98200W        W71268  30.868   6.336  10.718
98201W        W71269  30.350  25.017   1.767
98202W        W71270  21.632   4.256   2.282
98203W        W71271   6.836  29.875  14.348
98204W        W71272  37.537   4.851   5.034
98205W        W71273  39.418   2.344   0.216
98206W        W71274   2.770  33.071   1.411
98207W        W71275   4.489  16.425   3.899
98208W        W71276  33.287  12.431   0.322
98209W        W71277  15.878   0.278  13.442
98210W        W71278  26.112  17.608   2.906
98211W        W71279  39.580  22.612   1.192
98212W        W71280   7.457  41.938  11.672
98213W        W71281  10.751  43.759   3.129
98214W        W71282  31.589  31.085  14.970
98215W        W71283   4.612  35.970   2.194
98216W        W71284  24.919  40.815   4.125
98217W        W71285  35.486  36.676  12.628
98218W        W71286  19.162  35.753   1.425
98219W        W71287  29.562  15.760  14.440
98220W        W71288  33.918  14.638  13.055
98221W        W71289  24.126  10.633  10.518
98222W        W71290  36.178   7.002  12.917
98223W        W71291  22.604  14.139  14.096
98224W        W71292  17.096  25.209   0.353
98225W        W71293  44.475  23.417  11.093
98226W        W71294  10.222  22.075   3.988
98227W        W71295  26.175  42.424  11.460
98228W        W71296   3.278  11.068  13.642
98229W        W71297  13.821   2.834  13.958
98230W        W71298   8.947  12.028   3.165
98231W        W71299  32.485   9.124  12.889
98232W        W71300  28.439  42.343  14.391
98233W        W71301   7.839  36.896  12.177
98234W        W71302   2.640  24.607  11.176
98235W        W71303  23.693  39.107  10.946
98236W        W71304  25.202  32.241   0.157
98237W        W71305  32.705  16.356  14.262
98238W        W71306   9.440  40.687  12.463
98239W        W71307  25.905  44.253   0.926
98240W        W71308  26.438  42.195   0.164
98241W        W71309  33.452   9.934   2.763
98242W        W71310  26.415  27.584   4.495
98243W        W71311  44.651  32.970  11.715
98244W        W71312  30.106  43.856   4.348
98245W        W71313   3.247   2.000   0.712
98246W        W71314   0.973  25.192   1.709
98247W        W71315  43.066  13.762  12.130
98248W        W71316  43.847  26.627  10.436
98249W        W71317   9.385  36.579   1.400
98250W        W71318   8.759  32.664   3.300
98251W        W71319  44.236  28.148   2.142
98252W        W71320  31.600   3.002  14.283
98253W        W71321  19.115  19.290  13.005
98254W        W71322  26.965  34.142  13.227
98255W        W71323  37.945   4.654  10.632
98256W        W71324  43.578  23.044  13.950
98257W        W71325   1.448   6.636  12.978
98258W        W71326  34.104  14.682  10.555
98259W        W71327  21.080   4.389  12.825
98260W        W71328  18.611   2.054   4.817
98261W        W71329   7.493   9.260   3.745
98262W        W71330  28.367  10.952   3.244
98263W        W71331   6.208   3.432   5.286
98264W        W71332   3.712   2.870  11.100
98265W        W71333  38.788  22.907   5.040
98266W        W71334  24.212  30.464   1.084
98267W        W71335  10.847  23.251  14.903
98268W        W71336  35.022  27.152  10.923
98269W        W71337  35.531  44.842  13.177
98270W        W71338   5.637  14.166  12.632
98271W        W71339   6.836  43.603   4.720
98272W        W71340   4.208  22.457   4.424
98273W        W71341   7.731  12.620  14.678
98274W        W71342   6.781   7.501   2.895
98275W        W71343  16.084   9.824  13.958
98276W        W71344  28.125   7.170   0.767
98277W        W71345  14.950   7.426   5.118
98278W        W71346  21.153  12.270   2.900
98279W        W71347  18.778  20.465  11.928
98280W        W71348  37.419  31.872  13.799
98281W        W71349  29.085  23.117  13.035
98282W        W71350  33.110  18.593   1.828
98283W        W71351  11.275  16.544  13.578
98284W        W71352   4.093   7.373  12.563
98285W        W71353  10.610  21.198  12.519
98286W        W71354  36.552  27.855  14.346
98287W        W71355   0.749  12.399   0.895
98288W        W71356  21.632   2.843  12.806
98289W        W71357  11.021   3.162   5.084
98290W        W71358  18.960  26.478   3.574
98291W        W71359  12.298  39.033   0.518
98292W        W71360  19.812  27.588  11.946
98293W        W71361  22.010  10.074   2.747
98294W        W71362  24.802  40.796  10.614
98295W        W71363  32.083  21.789   2.788
98296W        W71364  33.447   7.179  12.973
98297W        W71365  22.682  42.797   4.124
98298W        W71366   2.515   8.792   0.310
98299W        W71367  20.503  32.006   0.216
98300W        W71368   6.235  18.403  13.802
98301W        W71369   7.319   3.237   3.385
98302W        W71370  20.532  13.810  10.492
98303W        W71371  30.156  40.967   2.847
98304W        W71372   6.217  17.602   2.823
98305W        W71373  39.768   7.740   1.420
98306W        W71374  19.579  18.780   1.233
98307W        W71375  43.258  16.657   4.173
98308W        W71376  40.996  43.976   4.122
98309W        W71377   9.314  23.804  11.152
98310W        W71378  35.180  42.522   0.398
98311W        W71379   5.257   2.980  11.210
98312W        W71380  31.378  35.942  14.039
98313W        W71381  42.749  24.224  11.907
98314W        W71382  11.771  35.734   5.177
98315W        W71383   3.444   2.363  11.134
98316W        W71384  10.076  29.480   0.852
98317W        W71385  39.881  26.907   2.267
98318W        W71386  39.855  37.208   1.768
98319W        W71387  15.524  10.869   2.834
98320W        W71388   9.729  21.207  11.297
98321W        W71389   8.328  12.784   2.829
98322W        W71390  35.425   2.833   2.455
98323W        W71391  21.051  32.174  13.417
98324W        W71392  40.880  34.937  10.779
98325W        W71393   4.387  16.084  11.651
98326W        W71394  39.857  10.209  12.010
98327W        W71395   8.623  35.107   3.664
98328W        W71396  32.399  17.278  13.875
98329W        W71397   3.538  18.340  13.514
98330W        W71398  34.055  27.642  11.650
98331W        W71399   2.479  24.587  13.014
98332W        W71400  32.041   3.445  10.699
98333W        W71401  25.124   3.286  12.855
98334W        W71402  16.099  36.904   4.499
98335W        W71403  44.503  10.177   3.650
98336W        W71404  27.245  21.662  12.977
98337W        W71405  19.531   3.966   3.633
98338W        W71406  42.935  40.848  10.618
98339W        W71407  27.666  36.649   2.246
98340W        W71408   7.277  14.369   4.624
98341W        W71409  36.863  36.095  11.479
98342W        W71410  15.250   9.221  11.081
98343W        W71411  26.202  17.545   0.798
98344W        W71412  14.306  23.650  12.574
98345W        W71413   0.593   6.145   3.755
98346W        W71414  19.134  22.721  13.970
98347W        W71415  26.430  38.356  13.399
98348W        W71416  14.921   1.644   4.989
98349W        W71417  17.193  22.602   5.081
98350W        W71418   5.803  24.776  11.663
98351W        W71419  10.461  18.583   0.776
98352W        W71420  32.681   7.404   1.868
98353W        W71421  25.759  22.051  14.970
98354W        W71422  34.029  29.105   2.627
98355W        W71423  18.049   8.882   3.530
98356W        W71424  30.427  26.524  12.810
98357W        W71425  25.995  21.083   4.118
98358W        W71426  17.885   4.837  11.281
98359W        W71427   2.190   3.710   4.087
98360W        W71428  31.983  41.113   0.334
98361W        W71429   2.778  25.882   2.382
98362W        W71430  18.629  37.899   4.103
98363W        W71431  12.677  16.365   0.303
98364W        W71432  22.203  14.588  14.439
98365W        W71433   9.108  30.497  14.412
98366W        W71434  28.886  40.367  10.685
98367W        W71435  23.216  40.206   2.181
98368W        W71436  26.549  31.030   1.199
98369W        W71437  24.046  36.185   2.383
98370W        W71438  34.052  37.349   3.713
98371W        W71439  20.542   4.220   3.707
98372W        W71440  23.469  29.554   3.923
98373W        W71441   2.947  38.912   2.468
98374W        W71442  32.378  37.284  13.874
98375W        W71443   5.320  21.776   2.811
98376W        W71444   4.686   9.402   4.108
98377W        W71445  44.203   5.681  14.796
98378W        W71446  14.815  20.998   3.646
98379W        W71447  11.647   2.236   1.247
98380W        W71448  41.269  25.624  14.464
98381W        W71449   6.953  33.151   3.559
98382W        W71450  27.151  33.409  12.510
98383W        W71451  36.315  18.307  12.108
98384W        W71452  30.532  32.165  10.730
98385W        W71453  12.287  42.255   0.867
98386W        W71454  39.080  40.552   2.712
98387W        W71455  40.906  16.227  13.498
98388W        W71456  30.375  18.185   4.170
98389W        W71457   5.830   3.777  11.654
98390W        W71458  11.825  28.952   3.789
98391W        W71459  42.998   9.725  11.238
98392W        W71460  38.053   8.614  11.582
98393W        W71461  20.295  32.485   1.309
98394W        W71462  37.404  15.189  14.815
98395W        W71463   1.534  27.612   0.194
98396W        W71464  44.516  28.979  11.665
98397W        W71465   4.008  20.116   2.926
98398W        W71466  26.932  36.587  14.851
98399W        W71467   3.415  27.183  10.440
98400W        W71468   8.704   0.338   1.012
98401W        W71469  36.166  31.533  13.857
98402W        W71470  24.017  13.653   3.146
98403W        W71471   3.941  16.795   0.287
98404W        W71472  36.090  28.258   0.722
98405W        W71473   9.325   4.084   4.997
98406W        W71474   6.264   9.907  10.014
98407W        W71475  13.394  21.111  12.615
98408W        W71476   6.230   5.434  13.973
98409W        W71477   8.631  38.784   0.312
98410W        W71478   7.254   6.205   2.415
98411W        W71479  38.335  17.302  11.427
98412W        W71480  31.380  30.465  13.871
98413W        W71481  27.148  25.440  12.266
98414W        W71482  16.435  32.949   1.443
98415W        W71483  29.633  35.460  10.381
98416W        W71484  21.433  41.015   2.521
98417W        W71485  10.828  28.180   2.311
98418W        W71486  26.781  24.192   1.220
98419W        W71487  20.523  12.570  14.909
98420W        W71488  34.592  30.659  14.836
98421W        W71489  22.533  19.987   4.593
98422W        W71490  36.107   9.406  13.407
98423W        W71491  44.490  36.547  13.604
98424W        W71492  33.992  27.818  13.534
98425W        W71493  40.868   5.833   3.288
98426W        W71494  14.539   6.906  12.541
98427W        W71495  24.745  39.245  12.109
98428W        W71496  35.284   2.396  11.947
98429W        W71497  19.172  23.163  14.288
98430W        W71498  39.919  35.463   0.308
98431W        W71499  18.362  23.781  11.080
98432W        W71500  19.791   4.176  12.512
98433W        W71501   7.516  22.593   4.155
98434W        W71502  24.684  43.921  12.949
98435W        W71503  25.627  11.837  11.800
98436W        W71504   5.954  33.437  13.452
98437W        W71505  17.039  23.170   2.759
98438W        W71506  10.676  19.335   2.087
98439W        W71507   8.348  26.862  11.079
98440W        W71508   3.913  31.461  13.724
98441W        W71509  10.760  41.829  10.861
98442W        W71510  31.770  21.931  13.492
98443W        W71511  33.875   8.962  11.567
98444W        W71512  24.963  14.053  14.547
98445W        W71513  27.202  31.060  11.507
98446W        W71514  28.451  12.330   3.149
98447W        W71515  40.831  44.982   0.714
98448W        W71516  43.028  14.043   3.758
98449W        W71517   5.369  21.608  10.920
98450W        W71518  15.732  14.725   0.748
98451W        W71519  17.978  22.524  14.446
98452W        W71520   4.639   8.177  12.862
98453W        W71521  21.900  32.701  12.597
98454W        W71522   4.703  31.705   0.344
98455W        W71523  21.681  22.237  11.320
98456W        W71524  44.313   4.557   3.766
98457W        W71525  27.136   1.263   3.393
98458W        W71526  26.996   1.677   4.237
98459W        W71527  41.394  25.532   2.300
98460W        W71528  11.779  26.688   2.155
98461W        W71529  37.345  25.740   1.817
98462W        W71530   7.016  42.015  10.772
98463W        W71531  34.478  15.590  10.668
98464W        W71532   8.591   7.816  14.914
98465W        W71533  15.048  15.058  14.903
98466W        W71534   3.322   1.130  11.522
98467W        W71535   6.713  15.803   4.618
98468W        W71536  44.521  18.704   2.264
98469W        W71537  35.742  16.806  11.999
98470W        W71538  19.660   1.193   0.834
98471W        W71539  28.924  22.525   4.643
98472W        W71540  44.380   1.839  14.734
98473W        W71541  34.584  29.230   4.613
98474W        W71542   2.475   1.777  10.822
98475W        W71543  28.163  35.088  13.803
98476W        W71544  24.011  37.072  13.008
98477W        W71545  26.972  15.141  13.477
98478W        W71546  25.674  39.389   4.741
98479W        W71547   4.485  36.431   1.367
98480W        W71548  36.438  21.256  10.285
98481W        W71549   5.335  30.350  14.030
98482W        W71550  10.830  10.097   0.533
98483W        W71551  43.446  13.004   2.360
98484W        W71552  12.783  13.130   2.453
98485W        W71553  31.590  24.433  12.665
98486W        W71554  21.726   1.965   3.616
98487W        W71555   9.898   6.720   2.285
98488W        W71556  38.356  14.285  14.383
98489W        W71557  19.856  37.468  10.771
98490W        W71558  10.181  42.280  10.864
98491W        W71559  42.702   0.832   4.005
98492W        W71560  19.499  42.190   1.416
98493W        W71561  21.989  21.445  11.512
98494W        W71562  40.810  23.554   4.633
98495W        W71563  22.094  26.413  12.592
98496W        W71564  20.501  33.879   4.161
98497W        W71565  15.074   8.346  12.068
98498W        W71566   4.708  33.095   1.300
98499W        W71567  22.066  36.505   3.672
98500W        W71568  19.244  22.475  12.708
98501W        W71569  14.361  33.975  12.147
98502W        W71570   7.156  44.946   1.942
98503W        W71571   1.883   5.231   4.777
98504W        W71572   2.840  44.500   3.294
98505W        W71573  23.521  44.461  11.814
98506W        W71574  19.338  21.136   3.672
98507W        W71575  42.643   7.455  12.589
98508W        W71576  17.085  33.334   1.859
98509W        W71577  26.887  10.647  10.613
98510W        W71578   9.645  14.671   5.006
98511W        W71579  23.598  19.591   5.140
98512W        W71580  36.812  34.428   5.051
98513W        W71581   8.361   4.347   3.360
98514W        W71582  38.143  19.138   1.214
98515W        W71583   8.050  40.321  11.539
98516W        W71584   4.417  34.842   1.794
98517W        W71585  18.218  30.679   0.867
98518W        W71586  14.310  12.777   0.938
98519W        W71587   9.550  34.758   0.277
98520W        W71588   6.378  42.871   4.313
98521W        W71589  21.224  10.594  11.975
98522W        W71590  42.810  43.827   0.724
98523W        W71591  29.957  29.224  12.614
98524W        W71592   2.770  16.194   0.040
98525W        W71593  11.635   2.812  10.744
98526W        W71594  21.112  32.039   2.917
98527W        W71595  28.063  20.762   1.767
98528W        W71596  34.928  12.685   4.530
98529W        W71597   5.375  38.244  12.510
98530W        W71598   0.296  23.122  12.835
98531W        W71599  14.291   0.605   5.008
98532W        W71600  11.207  21.167  12.141
98533W        W71601   5.736  33.006  14.665
98534W        W71602  31.950  12.158  10.605
98535W        W71603  22.458   2.994   2.587
98536W        W71604  29.447   8.743  13.397
98537W        W71605  31.134  30.935   3.211
98538W        W71606  22.566  32.488  13.946
98539W        W71607  17.067  44.493   3.068
98540W        W71608  38.924   3.749   4.566
98541W        W71609   9.569   6.611   1.494
98542W        W71610  35.445  31.059   3.215
98543W        W71611   1.420  15.237  12.357
98544W        W71612  32.008  40.038  13.089
98545W        W71613   9.127  11.438   1.939
98546W        W71614  11.247  28.620  11.526
98547W        W71615  31.424  34.642   4.840
98548W        W71616   6.329   2.972  13.786
98549W        W71617  25.895  13.206   4.618
98550W        W71618  40.328   7.290   0.290
98551W        W71619   6.846  32.428  12.485
98552W        W71620  37.735  32.868  10.615
98553W        W71621  30.801  33.327  11.161
98554W        W71622  34.829  18.177   4.766
98555W        W71623  23.835  11.929   0.415
98556W        W71624  36.871  33.897  10.187
98557W        W71625  37.968  22.051  12.965
98558W        W71626  32.981   8.050  13.974
98559W        W71627   4.777  13.829   2.630
98560W        W71628  44.341  22.276  10.345
98561W        W71629   8.170  10.826  11.500
98562W        W71630  32.983   1.442   1.678
98563W        W71631  15.731  17.024   2.921
98564W        W71632  22.554   0.356   4.509
98565W        W71633   9.324  42.072   3.768
98566W        W71634  31.473  26.544  10.375
98567W        W71635  37.014  38.784  12.624
98568W        W71636  26.039  19.304  11.010
98569W        W71637  13.397  11.198   1.796
98570W        W71638  39.085  26.348  11.908
98571W        W71639  21.709  25.214  13.554
98572W        W71640   1.880   0.974   2.521
98573W        W71641  43.687  25.168   1.508
98574W        W71642  20.025   0.408   3.395
98575W        W71643  18.548  11.816  10.746
98576W        W71644  14.739  27.718   0.465
98577W        W71645   0.463  32.029  11.416
98578W        W71646  23.573  42.744   0.569
98579W        W71647  17.076  20.121   0.501
98580W        W71648  33.461  22.260   2.412
98581W        W71649  31.392   2.448   1.734
98582W        W71650  21.275   8.362   2.123
98583W        W71651  22.260  30.065  10.706
98584W        W71652  29.630   3.501  14.933
98585W        W71653  13.745  28.714  11.235
98586W        W71654   6.211  15.989  13.457
98587W        W71655  28.468   5.181  12.511
98588W        W71656  14.089   7.026  11.735
98589W        W71657  32.709  33.602   9.690
98590W        W71658  14.534  21.701   2.655
98591W        W71659  16.846  42.027  12.561
98592W        W71660  43.951  30.947  11.851
98593W        W71661  12.742  22.482   2.887
98594W        W71662   3.323  10.572   2.094
98595W        W71663  29.066  39.366  11.537
98596W        W71664  20.761  23.018   0.257
98597W        W71665  13.629  33.424  12.903
98598W        W71666   7.835  44.987  14.101
98599W        W71667  12.586  39.167  14.790
98600W        W71668  20.496  44.480   1.883
98601W        W71669  36.423  14.246  10.556
98602W        W71670  26.146  39.969   0.880
98603W        W71671  40.965   8.329   3.707
98604W        W71672  35.381  27.567   4.158
98605W        W71673  29.371  24.052  11.140
98606W        W71674   6.226  21.850  14.819
98607W        W71675  44.979  26.238  11.100
98608W        W71676   0.964  28.662   3.560
98609W        W71677  32.147  23.565  13.771
98610W        W71678  21.911  19.272   2.593
98611W        W71679  31.388   0.887  14.345
98612W        W71680  19.128  24.989   1.351
98613W        W71681  21.158  16.412   1.234
98614W        W71682  43.306  27.702  13.950
98615W        W71683  36.141   6.274   2.362
98616W        W71684   6.302  34.607   0.734
98617W        W71685  15.887  44.306   2.889
98618W        W71686  18.652   8.691  11.320
98619W        W71687  30.086  13.800   3.412
98620W        W71688   1.037  40.628   3.277
98621W        W71689   3.262   4.757   1.014
98622W        W71690  15.981  24.984   2.692
98623W        W71691  10.535  34.504   2.860
98624W        W71692  33.356  38.459   4.687
98625W        W71693  30.037  44.002   0.743
98626W        W71694  31.166  40.096  11.917
98627W        W71695   0.234   1.166  14.311
98628W        W71696  13.308  15.964   2.204
98629W        W71697  41.038  10.550   1.972
98630W        W71698  37.450  22.603  14.058
98631W        W71699   4.164   1.938   3.661
98632W        W71700   9.215  17.225   1.724
98633W        W71701   5.267  33.479  14.421
98634W        W71702  31.804  23.779  14.105
98635W        W71703   1.359  10.133   4.676
98636W        W71704  11.026  14.167  10.667
98637W        W71705  17.673  25.538  14.866
98638W        W71706  15.656  37.331   4.112
98639W        W71707  29.680  17.184   3.549
98640W        W71708  38.634  43.803   3.842
98641W        W71709  38.743  39.641   0.422
98642W        W71710   5.720  36.050   1.310
98643W        W71711  14.264  25.632   5.259
98644W        W71712  26.176  13.757   3.608
98645W        W71713  20.795  44.446  11.514
98646W        W71714  19.159  32.393  14.460
98647W        W71715   2.234  41.771  13.838
98648W        W71716  18.738   4.262   4.090
98649W        W71717  42.073  27.085   0.635
98650W        W71718   4.599  25.594   4.658
98651W        W71719   0.172   2.378   0.234
98652W        W71720  43.222  41.146   2.250
98653W        W71721   8.289  40.917   1.252
98654W        W71722  40.565   1.636  10.189
98655W        W71723  26.177  15.750   4.124
98656W        W71724  28.482  19.520  12.762
98657W        W71725  36.686  41.891  12.580
98658W        W71726  44.944  22.612   3.315
98659W        W71727  19.335   3.176   1.954
98660W        W71728   1.372  25.231  10.702
98661W        W71729  40.366  42.289   1.162
98662W        W71730  30.918  38.488   2.785
98663W        W71731   4.448  44.272   5.065
98664W        W71732   4.753   1.371  13.405
98665W        W71733   9.112  23.697   2.372
98666W        W71734   5.947   1.278   3.707
98667W        W71735   5.826  10.647   0.878
98668W        W71736   0.465  32.567   0.511
98669W        W71737  21.527  42.139  13.456
98670W        W71738  33.908  30.623   0.251
98671W        W71739  20.220  34.596   2.086
98672W        W71740  26.427  26.633  12.567
98673W        W71741  19.059  40.433   4.131
98674W        W71742  26.261   9.721   4.082
98675W        W71743   7.395   9.902   1.317
98676W        W71744  30.994  10.701  14.462
98677W        W71745  14.257  28.513  11.330
98678W        W71746  11.031   9.135   4.350
98679W        W71747  44.874  25.142  12.093
98680W        W71748  19.870  27.086   1.902
98681W        W71749  44.029  29.002  11.855
98682W        W71750  28.182   9.278   1.638
98683W        W71751  25.764  18.514  12.420
98684W        W71752  41.546  22.036   4.367
98685W        W71753   6.289  12.382   4.738
98686W        W71754  35.859  24.012  11.044
98687W        W71755  12.839   6.650   3.230
98688W        W71756  29.805  17.607  11.229
98689W        W71757  39.321  16.518   2.299
98690W        W71758   5.113  27.293  11.884
98691W        W71759  35.938  37.618  14.147
98692W        W71760  14.471   7.674   1.163
98693W        W71761  24.530  42.999   0.182
98694W        W71762  35.476  44.858  12.636
98695W        W71763  15.625  25.009   3.847
98696W        W71764  37.704  11.010   2.365
98697W        W71765  10.332  13.345  10.759
98698W        W71766  32.039  31.503  14.524
98699W        W71767  25.542  42.962   1.929
98700W        W71768  43.483  28.468  12.365
98701W        W71769  24.014   6.251   3.662
98702W        W71770  23.174  40.605   4.064
98703W        W71771   1.923  15.788   3.169
98704W        W71772   1.943  43.045  14.484
98705W        W71773  30.969  36.967   1.715
98706W        W71774  39.047  13.681   4.517
98707W        W71775  14.608  22.668  13.046
98708W        W71776  25.657  33.037   3.607
98709W        W71777  23.573   7.263  10.663
98710W        W71778  14.790  29.047   3.392
98711W        W71779   2.645   6.584  13.394
98712W        W71780  21.226  27.226  12.347
98713W        W71781  42.880  42.866   0.251
98714W        W71782   4.122  37.817   1.320
98715W        W71783   4.168  19.993   0.803
98716W        W71784  21.639   1.428  12.857
98717W        W71785  35.027  23.706  12.880
98718W        W71786  37.003  44.043   4.175
98719W        W71787  29.202  30.894  11.126
98720W        W71788  19.713  29.432   0.447
98721W        W71789  25.459   5.312   4.571
98722W        W71790  18.159  13.821   2.732
98723W        W71791  33.835  43.429  14.789
98724W        W71792  39.035  18.561  12.376
98725W        W71793  27.658  38.513  10.712
98726W        W71794  44.721   0.281   1.325
98727W        W71795  31.890  42.063  12.858
98728W        W71796  32.482   9.714   0.973
98729W        W71797   0.427  36.534  10.702
98730W        W71798   3.801  11.204   0.440
98731W        W71799  16.470  15.567   3.022
98732W        W71800  25.203   1.353   3.679
98733W        W71801  16.417  22.328  11.330
98734W        W71802  30.656  16.583  14.504
98735W        W71803  44.501  11.664  10.761
98736W        W71804  34.516  44.206   0.862
98737W        W71805  39.347   5.800  11.524
98738W        W71806  25.009  43.756  14.995
98739W        W71807  23.272   6.695  12.010
98740W        W71808  36.613   1.776   0.124
98741W        W71809  31.639  28.384   3.875
98742W        W71810  40.458  22.260  11.511
98743W        W71811  43.888  43.609  11.130
98744W        W71812  17.344  21.617   1.258
98745W        W71813   6.980  28.863  12.064
98746W        W71814   8.700   0.279   2.075
98747W        W71815   9.699  34.026  14.063
98748W        W71816  20.850   8.307  10.431
98749W        W71817  26.451  41.418  12.465
98750W        W71818  19.571  34.322   3.841
98751W        W71819  35.399  18.799  11.973
98752W        W71820  24.625  18.612  14.411
98753W        W71821  17.760  12.593  11.489
98754W        W71822  16.616   2.942   3.340
98755W        W71823  42.415  24.020   4.033
98756W        W71824  19.132   7.225  10.651
98757W        W71825  26.390  44.027   3.926
98758W        W71826  24.896  42.833  14.799
98759W        W71827  18.941  20.647   4.705
98760W        W71828  18.517   6.245   4.084
98761W        W71829  21.252  25.975  14.971
98762W        W71830  29.213  14.018   3.756
98763W        W71831   6.203  26.677  12.354
98764W        W71832  27.112   7.394  10.439
98765W        W71833  20.601  35.215   0.929
98766W        W71834  27.649  10.742  11.059
98767W        W71835  13.222  27.661  14.704
98768W        W71836  17.995  13.178   3.356
98769W        W71837   7.727  38.385  14.468
98770W        W71838  34.442  27.987  12.566
98771W        W71839  39.405  17.531  11.049
98772W        W71840  13.411  37.400  14.803
98773W        W71841  30.336  39.103   3.966
98774W        W71842  43.181  40.744   3.731
98775W        W71843  11.316  35.411   2.131
98776W        W71844  34.714  41.711  14.342
98777W        W71845  27.115  26.122   4.274
98778W        W71846  43.941  12.644   0.769
98779W        W71847   3.517  31.060   0.432
98780W        W71848  18.355  18.689   2.385
98781W        W71849  38.461  31.579  14.409
98782W        W71850  10.148  35.926   1.974
98783W        W71851  24.125  30.732   5.144
98784W        W71852  40.248  29.956  12.826
98785W        W71853   1.483   2.932  13.830
98786W        W71854  37.405  29.179  12.048
98787W        W71855   2.443  20.529  10.692
98788W        W71856   7.964  13.561  11.133
98789W        W71857  24.479  23.655  11.609
98790W        W71858  43.375  20.241  14.815
98791W        W71859  31.523   5.738   1.346
98792W        W71860  30.744  20.573   3.225
98793W        W71861  37.256  35.018  11.538
98794W        W71862   8.093  22.705  11.618
98795W        W71863  40.236  19.615   4.340
98796W        W71864  37.094  22.002   1.672
98797W        W71865  35.398  41.342   1.800
98798W        W71866  20.267  24.222   2.694
98799W        W71867  21.117  32.941   2.236
98800W        W71868  31.199  12.788  14.832
98801W        W71869   1.075  30.748  11.092
98802W        W71870  41.770   1.410   1.354
98803W        W71871  39.144   5.017  10.142
98804W        W71872  13.275   8.312  12.129
98805W        W71873  23.705   4.804   2.292
98806W        W71874  12.951   8.871   5.016
98807W        W71875  30.411  18.656   4.523
98808W        W71876  26.047  21.123  10.369
98809W        W71877  38.367  37.537  11.001
98810W        W71878  11.800  40.745  12.418
98811W        W71879  31.915  42.313  13.772
98812W        W71880  38.380  37.110   0.227
98813W        W71881  36.085  12.549   2.270
98814W        W71882  25.748  10.047  10.125
98815W        W71883   9.953  44.956  12.932
98816W        W71884  42.184  20.567   4.214
98817W        W71885  41.836   9.820  13.957
98818W        W71886  29.037  35.809  11.939
98819W        W71887  14.434  17.845   1.659
98820W        W71888  39.154  29.419  14.692
98821W        W71889   8.974   9.865  10.780
98822W        W71890  17.277  37.054  13.468
98823W        W71891  35.890  39.514  14.983
98824W        W71892  33.072  17.749  12.583
98825W        W71893  41.592   0.274   3.677
98826W        W71894  29.177  16.611  13.554
98827W        W71895  43.463  38.862   2.432
98828W        W71896  32.979   1.783   4.508
98829W        W71897  14.231  28.034   2.690
98830W        W71898  19.131  13.765   0.744
98831W        W71899  26.969  13.011  10.087
98832W        W71900  25.540  31.453   1.952
98833W        W71901  23.513  19.770  13.040
98834W        W71902   7.362  30.129   2.107
98835W        W71903  36.415  43.848  13.582
98836W        W71904  38.340  43.512  12.692
98837W        W71905  15.485  22.605   5.011
98838W        W71906  16.764   6.148   1.040
98839W        W71907   2.987  36.317  14.767
98840W        W71908  11.794   6.709  11.531
98841W        W71909  34.108  43.990   4.829
98842W        W71910  41.004  39.503  12.853
98843W        W71911   8.407  25.823  13.538
98844W        W71912  34.824  41.188  14.422
98845W        W71913  29.589  19.163  10.632
98846W        W71914  11.036   2.809  14.851
98847W        W71915  15.012  43.190  10.719
98848W        W71916   9.526  19.162   0.637
98849W        W71917   0.015  37.824   0.347
98850W        W71918  34.164  27.549   1.180
98851W        W71919  28.014  16.631   1.616
98852W        W71920  19.746  14.375   4.107
98853W        W71921  11.800  29.007   1.486
98854W        W71922   3.810  24.121  13.850
98855W        W71923   1.474  38.393   0.073
98856W        W71924  22.500  21.512  11.566
98857W        W71925   3.084   3.450   0.225
98858W        W71926  39.336  43.518   0.452
98859W        W71927  30.440  42.639   3.061
98860W        W71928  26.936  32.542  12.858
98861W        W71929  17.809  31.442  11.956
98862W        W71930   5.340   8.778  14.193
98863W        W71931   3.800  42.252   4.292
98864W        W71932  35.945  16.133   2.634
98865W        W71933  24.535  44.652   3.245
98866W        W71934  24.936  18.514  14.018
98867W        W71935   7.485  41.435   2.790
98868W        W71936  26.957  29.677  12.365
98869W        W71937  18.222  29.909   3.657
98870W        W71938  26.148  25.717   4.707
98871W        W71939  27.254  12.627   2.970
98872W        W71940  23.851   8.136  10.460
98873W        W71941   0.204  25.231  11.118
98874W        W71942  39.595  12.270  13.840
98875W        W71943  28.162  44.933   0.362
98876W        W71944  35.339  29.850   1.655
98877W        W71945  39.093  20.682   4.592
98878W        W71946  41.697  25.528   4.240
98879W        W71947  44.254  21.230   0.025
98880W        W71948  25.201   7.379   3.765
98881W        W71949  22.100  15.124   0.871
98882W        W71950  40.131  37.462   1.374
98883W        W71951  41.269   4.718   4.172
98884W        W71952   1.295   9.820  12.945
98885W        W71953  27.845  29.020  13.382
98886W        W71954   5.490  11.946   0.372
98887W        W71955   9.836   6.269  14.040
98888W        W71956  27.640   2.310   3.836
98889W        W71957  28.712  34.930   4.503
98890W        W71958  25.704  20.532  12.932
98891W        W71959  40.957   2.232  12.007
98892W        W71960  32.600   7.845   3.737
98893W        W71961   6.282  33.650  14.311
98894W        W71962  19.773  33.844  13.837
98895W        W71963  32.649  28.112   3.603
98896W        W71964   6.453  33.161   1.477
98897W        W71965   5.276  40.595  11.426
98898W        W71966   7.957  17.290   3.630
98899W        W71967  43.256  26.538  10.556
98900W        W71968  15.566  22.055  13.475
98901W        W71969   2.309  33.985  12.618
98902W        W71970  36.448  25.536  10.951
98903W        W71971  29.434  30.521   1.851
98904W        W71972  19.830  28.495  10.731
98905W        W71973  37.133  28.116  14.038
98906W        W71974  28.780  40.937   1.231
98907W        W71975   7.155  29.455   0.018
98908W        W71976   0.711  34.791  13.460
98909W        W71977  30.777  35.295  14.642
98910W        W71978  43.995  24.824  13.073
98911W        W71979   8.887  12.278   3.621
98912W        W71980  15.758  16.326   1.380
98913W        W71981   8.700  41.487   0.254
98914W        W71982  39.041  38.727  13.649
98915W        W71983  20.253  30.217  13.365
98916W        W71984  10.209  44.569   1.921
98917W        W71985  27.135  41.198   5.070
98918W        W71986  16.032  18.477  10.526
98919W        W71987   9.176  17.261   4.286
98920W        W71988  20.317  21.558  14.282
98921W        W71989  30.353  40.563   2.070
98922W        W71990  33.857  40.779   2.802
98923W        W71991  35.027   6.347  14.238
98924W        W71992  28.622  19.661  11.798
98925W        W71993   3.504  40.261   1.430
98926W        W71994   8.719  15.273  10.982
98927W        W71995  28.458  16.234  12.550
98928W        W71996  22.114  40.004  12.346
98929W        W71997  32.040  10.853   1.903
98930W        W71998   0.230  11.612  14.475
98931W        W71999  22.967  41.979   0.762
98932W        W72000   9.774  33.515  13.930
98933W        W72001   0.858  17.647  13.815
98934W        W72002  23.650   8.131  13.819
98935W        W72003  38.542  35.507  11.518
98936W        W72004  20.045  30.032  11.511
98937W        W72005  21.251   8.649  10.309
98938W        W72006  14.959  24.443  13.957
98939W        W72007  16.821   5.250  12.417
98940W        W72008  32.056  36.045   0.338
98941W        W72009  11.202   7.678   3.787
98942W        W72010  21.160   5.283  14.267
98943W        W72011  22.008  24.691  10.929
98944W        W72012  23.139  19.990   0.291
98945W        W72013  34.423   4.389  11.559
98946W        W72014  36.617  28.935   4.176
98947W        W72015  38.083  24.758  12.072
98948W        W72016  42.379   9.912  11.524
98949W        W72017  10.705  33.608  10.631
98950W        W72018  38.586  10.109   1.223
98951W        W72019  20.733   2.294   4.170
98952W        W72020  35.446  19.267  14.001
98953W        W72021   7.724  31.920   3.747
98954W        W72022  28.651  10.823  11.044
98955W        W72023   3.978  25.756  10.490
98956W        W72024  29.636   2.235  12.440
98957W        W72025  40.095  12.304  14.380
98958W        W72026  41.796  39.474  10.751
98959W        W72027   7.664  32.163   1.943
98960W        W72028  11.652  42.044  14.879
98961W        W72029  18.215   8.958   4.881
98962W        W72030  41.959   8.833   0.382
98963W        W72031  10.331  28.996   3.515
98964W        W72032  18.942  10.860   0.938
98965W        W72033  18.786   1.832   4.374
98966W        W72034  11.318  39.105  12.739
98967W        W72035   3.808  21.203   3.282
98968W        W72036  29.355  18.201   1.493
98969W        W72037  14.287   5.919   1.860
98970W        W72038   3.809  35.589  10.482
98971W        W72039  32.648  11.196  14.865
98972W        W72040   1.383  37.272  11.932
98973W        W72041   9.276  18.107  11.613
98974W        W72042  15.573  23.638  13.891
98975W        W72043  18.957  35.552  11.976
98976W        W72044  38.499  35.041   0.489
98977W        W72045  34.941  25.097  11.656
98978W        W72046  12.670  43.284  11.611
98979W        W72047  36.442   7.608  13.421
98980W        W72048  19.769  39.986  14.752
98981W        W72049  14.568  17.692   4.072
98982W        W72050  23.327  36.225   3.224
98983W        W72051  44.457  16.189  10.611
98984W        W72052  24.295  24.351  12.436
98985W        W72053   3.092   5.205   0.762
98986W        W72054  32.996  36.875  10.870
98987W        W72055  20.073  43.770  13.413
98988W        W72056   1.496  25.174  12.099
98989W        W72057   2.943  42.793  11.771
98990W        W72058  26.040  13.322   0.355
98991W        W72059  39.500  30.140  11.269
98992W        W72060  21.000  26.942   2.357
98993W        W72061  35.335  34.928   1.855
98994W        W72062   0.223  10.693  14.311
98995W        W72063  35.411  23.985   2.760
98996W        W72064  22.520  25.947  14.439
98997W        W72065   2.850  37.548   0.634
98998W        W72066  33.895  34.320   4.937
98999W        W72067  24.034  33.909   4.590
99000W        W72068  30.039  22.191   3.891
99001W        W72069  11.217   7.117   2.592
99002W        W72070  27.945  20.033  13.493
99003W        W72071  40.736  31.422   0.733
99004W        W72072  20.089  26.046  13.387
99005W        W72073  16.509  24.106  10.729
99006W        W72074  29.683  31.444  13.396
99007W        W72075  28.968  40.090  12.762
99008W        W72076  39.221  37.143  13.218
99009W        W72077  20.037  32.987  14.483
99010W        W72078  12.558   1.864   1.127
99011W        W72079   3.576  35.239  13.540
99012W        W72080  27.648  30.524   3.701
99013W        W72081  26.340   9.588   4.978
99014W        W72082  43.319  36.043  14.975
99015W        W72083   4.498  33.944   1.927
99016W        W72084  11.929  28.003  13.498
99017W        W72085   7.264  22.598  11.003
99018W        W72086   9.083  27.182  14.999
99019W        W72087  35.066  13.786   1.325
99020W        W72088  38.894  12.620  12.992
99021W        W72089  40.482  34.645   1.291
99022W        W72090  10.926  20.289   4.132
99023W        W72091  34.376  15.201   4.240
99024W        W72092  34.807  19.014   0.903
99025W        W72093  17.199  40.035  13.931
99026W        W72094   6.300  16.803  14.811
99027W        W72095  41.553   5.128   3.362
99028W        W72096  38.455  21.541   3.420
99029W        W72097   0.706   5.882   2.216
99030W        W72098   9.109   1.908   4.191
99031W        W72099  16.616  43.232  13.945
99032W        W72100  11.718  16.113   2.773
99033W        W72101  37.684   0.678   5.267
99034W        W72102  19.511  31.502  10.996
99035W        W72103  19.628  13.359   0.377
99036W        W72104  12.157   3.790  10.638
99037W        W72105  20.551  44.348  11.962
99038W        W72106  26.393  23.551  14.129
99039W        W72107  37.562   4.742   4.215
99040W        W72108  10.396  25.279  12.016
99041W        W72109  26.450  17.683  12.520
99042W        W72110  18.250   5.733  13.292
99043W        W72111   1.304   9.766   2.742
99044W        W72112  36.402  35.497   3.452
99045W        W72113  33.704  20.270  11.993
99046W        W72114  11.506  17.667   0.736
99047W        W72115  12.846  32.544  10.412
99048W        W72116  26.977  12.263   4.652
99049W        W72117  25.948   2.425   4.091
99050W        W72118  40.000   2.299   1.978
99051W        W72119  34.360  39.266  11.212
99052W        W72120  11.141  19.031  12.536
99053W        W72121   0.014   5.404  11.043
99054W        W72122  31.420   5.411   0.749
99055W        W72123  32.993  26.842  11.406
99056W        W72124  25.815  13.271  14.216
99057W        W72125  31.838  10.645  14.281
99058W        W72126  18.515   5.368   2.153
99059W        W72127  30.593  23.146  13.117
99060W        W72128  44.589  36.145  14.015
99061W        W72129  21.691  27.636  10.834
99062W        W72130  34.294  24.306   4.680
99063W        W72131   7.449  31.883   4.196
99064W        W72132  43.710   0.885   3.336
99065W        W72133  22.518  16.453  13.026
99066W        W72134   7.172   7.954  12.070
99067W        W72135  16.614  23.183   3.650
99068W        W72136  26.211  44.377  12.752
99069W        W72137  20.558  19.144   0.290
99070W        W72138   2.523  40.046   0.572
99071W        W72139   8.907  36.334  13.898
99072W        W72140  35.080  25.196  10.534
99073W        W72141  11.083  13.709   1.456
99074W        W72142  15.349  31.365  11.144
99075W        W72143  26.236  40.815  11.755
99076W        W72144   2.722  30.508  13.161
99077W        W72145  18.260   5.500  12.355
99078W        W72146  13.683  37.012   0.460
99079W        W72147  16.615  25.507   4.677
99080W        W72148  40.392  17.791  13.898
99081W        W72149  26.509  31.239  14.007
99082W        W72150   8.378  25.654   0.529
99083W        W72151  16.128   5.266  10.555
99084W        W72152  27.825  14.372  11.939
99085W        W72153  20.773  18.655   1.268
99086W        W72154  20.601   7.730  14.839
99087W        W72155   7.424  39.478  12.928
99088W        W72156  25.972  44.017  13.018
99089W        W72157  41.957  24.936   0.830
99090W        W72158  39.060  18.068   4.369
99091W        W72159  35.105   3.971  12.527
99092W        W72160  42.239  28.397  14.023
99093W        W72161  22.042  28.996  11.727
99094W        W72162  27.363  10.874  10.650
99095W        W72163   8.253  31.789  12.546
99096W        W72164  26.967  12.198   2.234
99097W        W72165  23.205  19.190  11.480
99098W        W72166  39.094  32.246  12.825
99099W        W72167  38.467  30.687  11.008
99100W        W72168  25.292  41.017  10.602
99101W        W72169  24.076   6.992  13.247
99102W        W72170  36.815  17.929  13.423
99103W        W72171  26.073  44.290   4.251
99104W        W72172  10.698  33.378   3.258
99105W        W72173  38.249  36.505   2.690
99106W        W72174  41.994  44.295   2.460
99107W        W72175  24.228  43.627  12.007
99108W        W72176  19.199  22.208   0.023
99109W        W72177  25.930  17.083   0.841
99110W        W72178   8.665  14.662   0.518
99111W        W72179  38.068  42.931   3.238
99112W        W72180  25.708  44.698  13.489
99113W        W72181   5.183  36.103  12.073
99114W        W72182   1.273  24.129  12.011
99115W        W72183  35.039   0.728  14.270
99116W        W72184  32.650  17.284   3.651
99117W        W72185  21.549  33.958  12.082
99118W        W72186   7.590  19.371  12.680
99119W        W72187  11.578  10.374  10.299
99120W        W72188   2.472   3.193  12.910
99121W        W72189  10.072   2.988  14.548
99122W        W72190   3.689  44.794  13.301
99123W        W72191  31.273  42.487  11.975
99124W        W72192   8.807  40.301  12.926
99125W        W72193   3.181  14.762  12.335
99126W        W72194  41.949  21.241   0.328
99127W        W72195  37.279   8.485   3.144
99128W        W72196  29.468   6.181   4.246
99129W        W72197   2.415  40.562  12.096
99130W        W72198  27.927  13.170   0.338
99131W        W72199   0.073  12.796  14.682
99132W        W72200  39.556  32.572   2.932
99133W        W72201  33.236   7.281  13.565
99134W        W72202   0.253  20.322  10.875
99135W        W72203  39.736  23.625   3.609
99136W        W72204  36.152  18.619   1.912
99137W        W72205  26.818  11.711  14.168
99138W        W72206  12.513   4.309   1.315
99139W        W72207  20.120  27.563   3.645
99140W        W72208  40.033  11.232  12.619
99141W        W72209  34.887  34.485  10.912
99142W        W72210  33.852  33.477   3.670
99143W        W72211  35.845   4.252   0.950
99144W        W72212   6.199   9.781  10.986
99145W        W72213  17.492  30.402  12.416
99146W        W72214  19.988  26.014  10.711
99147W        W72215  35.346  15.590   1.888
99148W        W72216  33.009  16.068   2.844
99149W        W72217  36.250  30.620   2.309
99150W        W72218  20.455   9.760   3.151
99151W        W72219  10.756  16.185   2.663
99152W        W72220  42.482  38.004   3.790
99153W        W72221  21.244  38.848   0.222
99154W        W72222  23.835  39.796  10.169
99155W        W72223   9.699   6.295   0.530
99156W        W72224  37.157  44.270   1.490
99157W        W72225  35.726  27.295  14.395
99158W        W72226   2.648  27.539  14.950
99159W        W72227  31.465  43.429   1.917
99160W        W72228  37.461  27.441   4.244
99161W        W72229  19.320  32.882  11.103
99162W        W72230  20.008  25.774  11.163
99163W        W72231   2.787  29.444   1.520
99164W        W72232  41.114   4.993   0.461
99165W        W72233  32.647  16.069  11.039
99166W        W72234  13.631   0.903   1.994
99167W        W72235  32.875  13.576  12.881
99168W        W72236  19.024  11.402  12.341
99169W        W72237  26.917  13.012   2.797
99170W        W72238  29.477  40.017   4.183
99171W        W72239  11.776  19.194  11.161
99172W        W72240  23.973  22.022  10.764
99173W        W72241  24.196  37.036  14.470
99174W        W72242  44.815  33.150  10.850
99175W        W72243  14.348   3.920  12.876
99176W        W72244  34.928  18.562  14.391
99177W        W72245  30.588  23.661  13.249
99178W        W72246   4.534  16.620  11.171
99179W        W72247  33.343  23.009  10.573
99180W        W72248  33.622  14.097  14.387
99181W        W72249  22.597  43.868  12.440
99182W        W72250  12.663  24.365  13.881
99183W        W72251  32.437   3.779  10.855
99184W        W72252  32.280   4.505   0.458
99185W        W72253  11.759  18.128   2.634
99186W        W72254  16.170   7.375   4.631
99187W        W72255  30.564  32.029   2.149
99188W        W72256  21.307  22.944  12.003
99189W        W72257   3.708  32.388   4.512
99190W        W72258  38.614  14.210  14.838
99191W        W72259  40.021  27.763  14.575
99192W        W72260  19.048  30.546  11.192
99193W        W72261  18.115  36.807  10.471
99194W        W72262   4.041  22.672  14.298
99195W        W72263   0.059  18.988  11.602
99196W        W72264  39.033  25.200   4.627
99197W        W72265  25.527  10.075  11.519
99198W        W72266  39.010  25.108   2.912
99199W        W72267  12.092  14.361   0.243
99200W        W72268  14.136  33.098   4.604
99201W        W72269  15.074   4.873   1.551
99202W        W72270  44.259   9.249   3.735
99203W        W72271  17.648  24.224  10.675
99204W        W72272  22.540  11.287  10.712
99205W        W72273   4.529  41.794   5.048
99206W        W72274  26.219  32.482  13.788
99207W        W72275  19.148  12.428   4.230
99208W        W72276  30.617  39.938  13.398
99209W        W72277  32.924  13.597   3.738
99210W        W72278   8.107   3.686   1.441
99211W        W72279  21.248  30.332   4.059
99212W        W72280  18.251  29.982  13.539
99213W        W72281   7.820  16.696   1.350
99214W        W72282  22.964  31.233  12.949
99215W        W72283  30.351  12.152   1.209
99216W        W72284  15.751   7.309   0.900
99217W        W72285  16.218  39.813   4.444
99218W        W72286  28.600  44.069  13.874
99219W        W72287  32.617   4.835  12.347
99220W        W72288  42.966   2.769   3.827
99221W        W72289  35.544  25.976   2.116
99222W        W72290   4.325  44.204  11.002
99223W        W72291  34.075  17.164  13.069
99224W        W72292   0.268  28.156   4.574
99225W        W72293   0.452  39.919  12.855
99226W        W72294  31.588  27.604   5.002
99227W        W72295   7.455  42.800  11.030
99228W        W72296   7.269  27.646   4.108
99229W        W72297  44.258  23.508   2.855
99230W        W72298   2.491  30.657   1.759
99231W        W72299  25.100  14.287   3.260
99232W        W72300  34.991   1.779  12.925
99233W        W72301  21.068  22.704   2.165
99234W        W72302  35.619  20.267  11.936
99235W        W72303  40.492  25.645   1.219
99236W        W72304  14.146  30.997  11.958
99237W        W72305  10.423  13.385   2.376
99238W        W72306   0.021   8.751   0.452
99239W        W72307   5.036   4.853   4.285
99240W        W72308  13.226  18.550  14.423
99241W        W72309   3.345  15.002  13.985
99242W        W72310  35.322  40.137  14.811
99243W        W72311   9.689  24.975  12.497
99244W        W72312  31.789  18.561   2.315
99245W        W72313  39.900  34.093   4.040
99246W        W72314  15.942  16.042   0.406
99247W        W72315  41.075  25.091   0.934
99248W        W72316  26.567   6.202  13.991
99249W        W72317   0.195  31.847  12.192
99250W        W72318   4.428   9.477  10.688
99251W        W72319  34.055  15.548   3.577
99252W        W72320   2.241   5.190   2.759
99253W        W72321   2.786   9.853  13.768
99254W        W72322  31.113  31.310  14.918
99255W        W72323   6.649  32.224   3.696
99256W        W72324  16.292  14.025  12.002
99257W        W72325  43.378  38.482   3.587
99258W        W72326  25.725  12.936  14.604
99259W        W72327  21.468  43.364  11.869
99260W        W72328   6.409   9.841  12.876
99261W        W72329  25.084  15.713   2.913
99262W        W72330  21.586  25.702   0.282
99263W        W72331  34.575  23.078  12.488
99264W        W72332  12.268  37.029   2.831
99265W        W72333   3.337  16.058  11.892
99266W        W72334  30.981  32.792  14.901
99267W        W72335  40.826  29.150  13.417
99268W        W72336  41.921  19.025  12.061
99269W        W72337  20.262  30.219  13.901
99270W        W72338  13.214  15.275   3.785
99271W        W72339  18.709  16.751  14.945
99272W        W72340  16.578   3.826   1.240
99273W        W72341  10.371  26.258  10.095
99274W        W72342  10.704  34.670  10.768
99275W        W72343  16.325  22.929   3.284
99276W        W72344  23.347  21.065   3.702
99277W        W72345  24.725  33.417  10.493
99278W        W72346  21.414  17.709  12.266
99279W        W72347  36.838  24.174   3.750
99280W        W72348  12.424  14.462  12.517
99281W        W72349  43.477  10.697  11.991
99282W        W72350   9.163  38.692  11.605
99283W        W72351  26.245  38.646   3.142
99284W        W72352  36.483   5.376   0.806
99285W        W72353  44.826  14.140   2.333
99286W        W72354  32.115  11.725  10.829
99287W        W72355  10.517   8.883  11.084
99288W        W72356   7.726  44.000  13.811
99289W        W72357  33.965  29.940   4.832
99290W        W72358  12.663  22.512  14.969
99291W        W72359  40.028  42.004   1.413
99292W        W72360   1.956  12.349  11.088
99293W        W72361   4.139  18.111   3.165
99294W        W72362  42.542  40.868   1.339
99295W        W72363   1.801  43.233   3.304
99296W        W72364  32.530  23.491  14.098
99297W        W72365  37.328  32.474   1.005
99298W        W72366  44.226  43.517  10.745
99299W        W72367  38.570   6.875   4.288
99300W        W72368  12.149  34.702  14.111
99301W        W72369  28.026  13.296   1.625
99302W        W72370  43.398  10.166  14.831
99303W        W72371  31.399  33.530   1.926
99304W        W72372  31.930  23.779  10.619
99305W        W72373  32.674  33.429   0.321
99306W        W72374  32.502  33.965   0.377
99307W        W72375  32.174   5.858   3.699
99308W        W72376  23.996  41.144   2.255
99309W        W72377  41.072  24.719  14.009
99310W        W72378  10.733  26.564  12.433
99311W        W72379  41.320  34.874  12.592
99312W        W72380  27.557  27.893  14.095
99313W        W72381  28.193  41.556   0.359
99314W        W72382  41.900  31.108   3.708
99315W        W72383  32.012  28.911   0.331
99316W        W72384  31.105  41.224  13.066
99317W        W72385  41.059   2.065   4.499
99318W        W72386  27.376  16.740  13.510
99319W        W72387  35.401   3.309   2.268
99320W        W72388  22.640  35.785   5.075
99321W        W72389  38.090  31.348   3.276
99322W        W72390  36.270   9.314   2.694
99323W        W72391  33.454   0.443  13.358
99324W        W72392   1.881  22.243   1.898
99325W        W72393  32.974  10.591   3.290
99326W        W72394  33.832  30.319  11.614
99327W        W72395  14.367  41.639   0.043
99328W        W72396  15.501   1.754  14.093
99329W        W72397  35.852  39.974  10.777
99330W        W72398  12.672  38.009   3.130
99331W        W72399  34.831  38.024   3.666
99332W        W72400  37.316  38.315  13.946
99333W        W72401  25.205  12.138  13.491
99334W        W72402  18.061  27.351  13.064
99335W        W72403  18.497   9.566  11.253
99336W        W72404  23.933   2.552  11.641
99337W        W72405  34.391  27.618  13.934
99338W        W72406  26.198   8.974  14.426
99339W        W72407  18.243  26.456  11.997
99340W        W72408   9.663  17.693   5.102
99341W        W72409   3.666  32.523  12.080
99342W        W72410  29.123   4.695  12.051
99343W        W72411  14.761  11.830   0.306
99344W        W72412   2.245  36.694   1.411
99345W        W72413  34.277  16.337  12.125
99346W        W72414  44.755  36.171   3.255
99347W        W72415  34.694   9.753  12.174
99348W        W72416   0.518   1.839  13.604
99349W        W72417  44.351  41.367  11.605
99350W        W72418  23.755  44.742   2.663
99351W        W72419  32.486  10.171  14.742
99352W        W72420  10.562   3.907   3.112
99353W        W72421  28.373  41.324  10.665
99354W        W72422  39.827  21.463   2.646
99355W        W72423  23.995  44.539   2.211
99356W        W72424   2.573  19.129   1.958
99357W        W72425  19.753   2.844  12.838
99358W        W72426  17.515  11.041  13.868
99359W        W72427  40.390  38.621   3.733
99360W        W72428   2.588  43.531  12.152
99361W        W72429  33.442  13.837  12.075
99362W        W72430  20.663  39.039   0.890
99363W        W72431  16.776  23.629  12.009
99364W        W72432  10.124   1.563   3.163
99365W        W72433  14.985  16.229   1.913
99366W        W72434  20.301  21.083  14.018
99367W        W72435  31.476  42.521  13.580
99368W        W72436  29.099   1.903   3.682
99369W        W72437  36.426   3.618   4.027
99370W        W72438   2.883  25.544   1.042
99371W        W72439   4.285  27.045  10.373
99372W        W72440  18.819  10.365   5.337
99373W        W72441  14.056  25.570  10.716
99374W        W72442  39.492  25.994  11.907
99375W        W72443  12.299   9.743  11.720
99376W        W72444  27.696  14.303  14.913
99377W        W72445  42.851  17.307   1.534
99378W        W72446  35.608   2.726   2.936
99379W        W72447  34.247  28.445  14.499
99380W        W72448  26.033  23.165   2.155
99381W        W72449  39.808  41.669  11.202
99382W        W72450   5.037  13.956  11.969
99383W        W72451  15.135  37.002  13.455
99384W        W72452   0.853  35.568   0.072
99385W        W72453  39.447  30.636  11.627
99386W        W72454  20.849  41.211  12.404
99387W        W72455  10.293  37.421  14.155
99388W        W72456  19.124  27.246  14.092
99389W        W72457   7.701   1.071   0.295
99390W        W72458  40.266  35.513   4.266
99391W        W72459  32.962  27.281  12.935
99392W        W72460   9.922  30.520   4.086
99393W        W72461  27.947   2.834  10.366
99394W        W72462   9.900  30.408  12.336
99395W        W72463   7.360  26.088  10.682
99396W        W72464  33.445  38.537   4.178
99397W        W72465  17.106  35.321   0.867
99398W        W72466  12.144  43.279  14.978
99399W        W72467  38.852  13.090   2.255
99400W        W72468  14.593  25.346  12.474
99401W        W72469  36.050  32.502   1.303
99402W        W72470  23.205   9.050  13.513
99403W        W72471  39.542  27.594  14.572
99404W        W72472  21.056  10.678  12.466
99405W        W72473  41.311  31.831  14.356
99406W        W72474  17.139  15.196  14.364
99407W        W72475  37.880  32.817  11.164
99408W        W72476  28.634  21.101  10.529
99409W        W72477  44.334  20.219  14.360
99410W        W72478  20.687  36.277  11.141
99411W        W72479  35.167  39.591   1.400
99412W        W72480  39.410   8.163  10.191
99413W        W72481  16.047  38.557  13.962
99414W        W72482  24.716  22.027  14.072
99415W        W72483  28.550   0.383  11.182
99416W        W72484   8.709   2.779   3.747
99417W        W72485  15.236  35.246   4.875
99418W        W72486   7.420  31.004   2.630
99419W        W72487  17.253   5.284   1.992
99420W        W72488   1.046   4.936  13.898
99421W        W72489  37.577  28.989  11.603
99422W        W72490   1.279  12.322   2.006
99423W        W72491  23.520  27.198  12.525
99424W        W72492  18.267  10.174  12.035
99425W        W72493  38.852  42.935   5.033
99426W        W72494  14.407  32.949  11.582
99427W        W72495  18.009  14.765   4.588
99428W        W72496  43.105  33.922  14.898
99429W        W72497  39.415  10.889   0.643
99430W        W72498  38.572   3.303  14.180
99431W        W72499  28.548  34.441   4.532
99432W        W72500  33.138  13.788  13.864
99433W        W72501  43.113  14.400  11.280
99434W        W72502  40.261   2.658   2.542
99435W        W72503  18.378  25.025   3.763
99436W        W72504  17.733  34.842   1.268
99437W        W72505  11.332  16.620   3.147
99438W        W72506  44.414  37.059   4.555
99439W        W72507   1.043  37.805   4.136
99440W        W72508  26.550   9.637   3.638
99441W        W72509   2.182  10.178   3.570
99442W        W72510  10.391  38.585   2.738
99443W        W72511   2.375  38.927  11.238
99444W        W72512  27.473   6.362   2.231
99445W        W72513  27.073  34.091   2.133
99446W        W72514  20.604  42.738  13.805
99447W        W72515  44.023  38.870  11.565
99448W        W72516   9.175  37.842   2.308
99449W        W72517  38.359  39.328   0.529
99450W        W72518  40.485  25.195   1.494
99451W        W72519   2.540  31.519  13.995
99452W        W72520  33.629  34.585  10.038
99453W        W72521  42.274  34.416   1.953
99454W        W72522  42.476   6.468   4.172
99455W        W72523  15.010  34.335  14.993
99456W        W72524   0.921   6.732   0.864
99457W        W72525   3.497  33.931   1.684
99458W        W72526  11.865  29.587  13.924
99459W        W72527  12.162   9.416  13.000
99460W        W72528  43.312  41.249   4.554
99461W        W72529  19.632  17.770  13.877
99462W        W72530  21.777  13.216   4.810
99463W        W72531  38.458   8.962   5.154
99464W        W72532  44.273  37.289   1.285
99465W        W72533  15.320  29.247  12.833
99466W        W72534  36.757  17.647   1.464
99467W        W72535  41.747  12.094  11.585
99468W        W72536  19.902  24.524   3.244
99469W        W72537  37.963   9.631  13.505
99470W        W72538  34.069   1.623   4.151
99471W        W72539  14.961  13.602   2.796
99472W        W72540  38.346   3.459  14.612
99473W        W72541  22.337  33.459   3.043
99474W        W72542  42.969  26.438  14.904
99475W        W72543  40.568  21.714   4.654
99476W        W72544  32.042  42.419   4.700
99477W        W72545   2.512  16.110   2.893
99478W        W72546  17.736  19.187  11.730
99479W        W72547  16.848  23.828  12.471
99480W        W72548  30.187  23.418   0.872
99481W        W72549  16.581   3.143  12.509
99482W        W72550  42.917  32.072  14.912
99483W        W72551  26.534  41.726  13.342
99484W        W72552  40.174   1.630   4.777
99485W        W72553  14.722  34.862   0.478
99486W        W72554  20.206   9.412   0.365
99487W        W72555  34.069  36.499  14.040
99488W        W72556   6.960   1.346   3.796
99489W        W72557  32.000  16.727  14.365
99490W        W72558  22.765  13.163   1.338
99491W        W72559   0.265   0.935  10.579
99492W        W72560  40.304  43.980   0.432
99493W        W72561  40.335   1.271   2.346
99494W        W72562  12.171  43.180   4.677
99495W        W72563  24.825   9.134  12.839
99496W        W72564  17.393  40.635   0.734
99497W        W72565  34.202  15.078  12.685
99498W        W72566   2.465  31.533  10.774
99499W        W72567   0.963  14.264  14.298
99500W        W72568  23.798  37.541  12.280
99501W        W72569  24.549  28.943  11.192
99502W        W72570  14.883  36.888   3.533
99503W        W72571  40.939   6.797  14.694
99504W        W72572  10.258  18.659  10.459
99505W        W72573   4.389   6.510  10.725
99506W        W72574  39.411  16.359   4.950
99507W        W72575  25.181  30.601   2.885
99508W        W72576  17.689  42.319   2.417
99509W        W72577   4.775  23.445  14.790
99510W        W72578   4.260  43.806   4.926
99511W        W72579  32.729  31.003  11.146
99512W        W72580  44.863   5.736  12.343
99513W        W72581   5.274  44.283   0.900
99514W        W72582  16.342  38.906   4.317
99515W        W72583   4.490   3.453  11.328
99516W        W72584  37.888  37.466   2.801
99517W        W72585  14.617  41.904  13.565
99518W        W72586  12.250  34.525   3.852
99519W        W72587  23.840  15.990  13.089
99520W        W72588  31.453  42.005   1.853
99521W        W72589  28.490  28.561   2.387
99522W        W72590   0.500  36.870  14.026
99523W        W72591  18.115  12.236  10.410
99524W        W72592  33.079  38.775  11.070
99525W        W72593  22.028  41.956  12.514
99526W        W72594  13.383   3.886   0.368
99527W        W72595  35.635   9.797  11.656
99528W        W72596   9.431  32.972   1.128
99529W        W72597   6.729  27.661   1.371
99530W        W72598  23.620  11.650  12.042
99531W        W72599   2.428   6.671   4.844
99532W        W72600  18.320  13.672  11.409
99533W        W72601  33.506  21.627  13.165
99534W        W72602  22.537   8.915   1.847
99535W        W72603  22.723  28.103  12.415
99536W        W72604  31.086   4.009  12.626
99537W        W72605  30.450  13.341   0.573
99538W        W72606  15.119  31.966  11.452
99539W        W72607  16.974   5.775   3.081
99540W        W72608  19.148  44.346   2.221
99541W        W72609  40.247  43.387  11.990
99542W        W72610  31.062  11.842  12.904
99543W        W72611   7.451  15.693  14.506
99544W        W72612  40.248   7.155  12.320
99545W        W72613   8.950  14.532   3.996
99546W        W72614  39.042  39.666  12.232
99547W        W72615  12.959  42.854   2.860
99548W        W72616   2.299   6.205  12.580
99549W        W72617  29.473  24.975   4.083
99550W        W72618  12.766  42.890  12.027
99551W        W72619  37.638   2.269   4.617
99552W        W72620  37.442   1.024   1.806
99553W        W72621  36.117  24.432   3.925
99554W        W72622   0.926  13.113  14.971
99555W        W72623  33.109   8.623   2.798
99556W        W72624   7.299  40.373   0.734
99557W        W72625  40.927  11.788   0.011
99558W        W72626   6.224  19.498   2.579
99559W        W72627  14.656   2.859   3.185
99560W        W72628  38.862  22.957   0.724
99561W        W72629  31.199  22.161   1.244
99562W        W72630  14.237  34.805  13.970
99563W        W72631  39.580  33.484   4.560
99564W        W72632   6.437  36.664   0.718
99565W        W72633  36.018  38.985  14.967
99566W        W72634  19.680  11.780   0.771
99567W        W72635  29.798  32.300   3.427
99568W        W72636  37.963   4.865  13.110
99569W        W72637  24.048  28.652  13.173
99570W        W72638  34.539  37.026  12.089
99571W        W72639  41.907  31.150   4.505
99572W        W72640  42.342  22.592  12.916
99573W        W72641   4.788   8.817   5.035
99574W        W72642  17.354  14.872  10.297
99575W        W72643  11.634  28.485  13.491
99576W        W72644   6.403  42.388  10.875
99577W        W72645   0.821   4.990   3.201
99578W        W72646  36.946  17.174   1.372
99579W        W72647  15.179   6.206   1.148
99580W        W72648   2.993   7.398  14.500
99581W        W72649  36.595  41.408  12.436
99582W        W72650  44.884  34.472   0.388
99583W        W72651  19.291   4.943  11.599
99584W        W72652   0.737  37.370   4.098
99585W        W72653  30.844  40.949   4.483
99586W        W72654  29.086  19.844  10.559
99587W        W72655  13.826  44.102  12.007
99588W        W72656  20.064  13.593  13.546
99589W        W72657  15.841  18.972  11.043
99590W        W72658   2.410  12.911   4.546
99591W        W72659  36.066  42.712  12.936
99592W        W72660  21.573  21.998  13.994
99593W        W72661  35.571  28.921  13.992
99594W        W72662  35.472  16.955  12.432
99595W        W72663   0.727  10.352  11.376
99596W        W72664  30.320  18.521   3.165
99597W        W72665  38.266   3.264   0.068
99598W        W72666   2.516  13.384   0.368
99599W        W72667   1.122  36.742  11.512
99600W        W72668  44.407  29.667   4.037
99601W        W72669   2.984  21.745   1.246
99602W        W72670   1.709   8.948  12.791
99603W        W72671  24.946   3.334  10.961
99604W        W72672  25.220  42.499   1.252
99605W        W72673  25.316  36.345  11.590
99606W        W72674  42.054  32.950  13.773
99607W        W72675  16.045   7.925   4.581
99608W        W72676   4.703   8.665   1.868
99609W        W72677  42.953  17.808  11.197
99610W        W72678  41.861  19.185  12.565
99611W        W72679  44.444  37.528   2.824
99612W        W72680  29.991  38.918   4.301
99613W        W72681  14.931  27.691   4.747
99614W        W72682  36.415   4.651   1.374
99615W        W72683   6.820  27.474  12.386
99616W        W72684  42.793  30.153  14.432
99617W        W72685  34.633  37.988  14.734
99618W        W72686   1.179   0.559   4.510
99619W        W72687   4.832  22.848   1.027
99620W        W72688   8.296  30.879  14.852
99621W        W72689  39.155  30.212  11.650
99622W        W72690  21.114  35.607  10.703
99623W        W72691  37.276  12.793  11.975
99624W        W72692  33.082  18.223  14.461
99625W        W72693  28.637  26.609  13.844
99626W        W72694   2.742   8.646  13.775
99627W        W72695  28.635  44.526   3.312
99628W        W72696  26.952  18.851  10.778
99629W        W72697   5.431  17.116   4.012
99630W        W72698  22.728  28.392   3.135
99631W        W72699  25.022  31.013   5.063
99632W        W72700  28.223  20.149   2.296
99633W        W72701   6.840  21.736   3.337
99634W        W72702  21.113  36.344   1.362
99635W        W72703  35.769  13.006   3.128
99636W        W72704   5.341  41.420  13.413
99637W        W72705  24.983  23.581   4.351
99638W        W72706  10.665  15.793   1.752
99639W        W72707  38.111  32.842   3.227
99640W        W72708  22.683  38.604   0.718
99641W        W72709   7.932  35.439  11.471
99642W        W72710  38.560  10.906  11.894
99643W        W72711  41.009  27.547  13.545
99644W        W72712  11.719  23.798   2.614
99645W        W72713  37.056  44.400  11.403
99646W        W72714  15.073  35.933  13.745
99647W        W72715   1.967  30.916  13.266
99648W        W72716  25.768  15.429  14.834
99649W        W72717  18.233   4.256   4.017
99650W        W72718  12.808  36.358   0.363
99651W        W72719  26.934   3.205  13.406
99652W        W72720  24.743  27.995  14.320
99653W        W72721  10.865  25.958  13.949
99654W        W72722  28.164  40.118   0.546
99655W        W72723  36.949  11.759  12.990
99656W        W72724  31.590  10.096  14.862
99657W        W72725   1.805  37.461   1.972
99658W        W72726  22.712  31.536   3.552
99659W        W72727  44.372  31.168   1.379
99660W        W72728  29.614  41.086  12.535
99661W        W72729   9.715  22.006   3.901
99662W        W72730  13.550  36.210   4.016
99663W        W72731  21.459  35.570   4.682
99664W        W72732  14.582  16.357   2.217
99665W        W72733  22.929  33.659  13.509
99666W        W72734  37.190   9.224  12.622
99667W        W72735  13.569  24.511  13.813
99668W        W72736  39.813  16.494   0.628
99669W        W72737  44.821  28.670  14.716
99670W        W72738  18.054   9.262   0.822
99671W        W72739  34.131  43.404   1.790
99672W        W72740  19.229  18.141   0.636
99673W        W72741  16.009  16.674  13.849
99674W        W72742  15.610  39.071   3.758
99675W        W72743  28.539   3.501   0.851
99676W        W72744  28.461   7.435   1.700
99677W        W72745  38.795  23.946   4.189
99678W        W72746   3.689  14.697  11.622
99679W        W72747  43.996  24.531   0.398
99680W        W72748  10.593  36.570  14.381
99681W        W72749  18.543  27.000   1.403
99682W        W72750  20.763  40.211   3.332
99683W        W72751   7.203  13.657   1.908
99684W        W72752  24.768   6.393   4.673
99685W        W72753  30.778  31.997   4.318
99686W        W72754  42.819  27.629  13.459
99687W        W72755  33.045  27.199  10.635
99688W        W72756  29.545  32.193   9.917
99689W        W72757  26.900   9.660  13.481
99690W        W72758   0.059  28.103  14.484
99691W        W72759  11.435   1.297  12.383
99692W        W72760   6.416  35.854   2.727
99693W        W72761   3.895  14.367  13.606
99694W        W72762   5.367  26.941   4.665
99695W        W72763  43.502  29.707  13.994
99696W        W72764   5.310  41.539   0.041
99697W        W72765   7.356  32.993   3.901
99698W        W72766   4.419  25.028  12.061
99699W        W72767  22.968   9.732  11.646
99700W        W72768  12.998  21.216   1.461
99701W        W72769   1.175  28.907  14.784
99702W        W72770  29.486  44.944   1.454
99703W        W72771  12.899  44.321  11.593
99704W        W72772  43.499   1.855  11.425
99705W        W72773  21.993  38.367   2.276
99706W        W72774  19.256  35.016  13.885
99707W        W72775  12.556  16.744   5.039
99708W        W72776   9.798  39.028  13.061
99709W        W72777  13.850  20.216   0.216
99710W        W72778  38.470   7.757  11.847
99711W        W72779   9.198   8.937   9.639
99712W        W72780   1.849  34.676  11.535
99713W        W72781  36.853  26.652   4.585
99714W        W72782  15.030  39.318   4.198
99715W        W72783  36.307  42.233  11.661
99716W        W72784  41.801  10.302  10.949
99717W        W72785  30.552  23.138  12.602
99718W        W72786  15.365  38.426  12.935
99719W        W72787  12.188  15.993   1.924
99720W        W72788  17.573  37.372  10.959
99721W        W72789  38.405  16.525   0.964
99722W        W72790  25.270  21.129   2.845
99723W        W72791  16.097  41.537  12.163
99724W        W72792  42.214  28.111  14.732
99725W        W72793   7.690  30.391   3.733
99726W        W72794  34.056   4.298  13.001
99727W        W72795  12.866   3.319  10.858
99728W        W72796  29.035  36.665  12.881
99729W        W72797   4.837  13.559  14.304
99730W        W72798   3.017  39.401   1.688
99731W        W72799   8.906  16.266   4.666
99732W        W72800  16.335  42.172   0.023
99733W        W72801  30.683  18.207   4.584
99734W        W72802  42.478  31.695  13.844
99735W        W72803  31.870  23.663   3.949
99736W        W72804  29.698  12.587  14.959
99737W        W72805  13.761  33.604   1.573
99738W        W72806  37.662  18.715   1.827
99739W        W72807  19.650   9.171   2.832
99740W        W72808  38.537  15.172  11.927
99741W        W72809  14.469  40.332   3.656
99742W        W72810  30.082   8.130  13.414
99743W        W72811  13.424  41.878  14.715
99744W        W72812  22.664   9.882  13.588
99745W        W72813  33.332  13.730  11.102
99746W        W72814   4.522  25.161  13.884
99747W        W72815   8.761   8.649  13.517
99748W        W72816  20.125   9.055  11.218
99749W        W72817  17.183   9.883   4.539
99750W        W72818  41.574  31.095   0.445
99751W        W72819   3.010  21.064   3.687
99752W        W72820  21.307  28.340  14.422
99753W        W72821   8.434  13.806   4.481
99754W        W72822  29.066  23.973   0.344
99755W        W72823   0.194  35.490  13.718
99756W        W72824  10.329   5.863   3.611
99757W        W72825   2.934   2.406  11.893
99758W        W72826  11.791  38.900   1.266
99759W        W72827   6.343   8.303   4.561
99760W        W72828  15.211  37.275   3.779
99761W        W72829  34.366  38.898   4.132
99762W        W72830  38.134  17.711  14.340
99763W        W72831  17.690  31.079   2.369
99764W        W72832  31.866   4.137  11.525
99765W        W72833  34.066  44.199   2.298
99766W        W72834  31.876  18.523  11.522
99767W        W72835  14.767  39.940   1.343
99768W        W72836  18.374  23.179   1.348
99769W        W72837  43.650   3.967   1.419
99770W        W72838  26.556  40.814  11.325
99771W        W72839  17.213  37.356   2.351
99772W        W72840   4.252  24.108  11.656
99773W        W72841  24.967  10.588   4.650
99774W        W72842  33.794   0.364  12.972
99775W        W72843  15.592  30.890   0.465
99776W        W72844   6.516  10.948  13.406
99777W        W72845   2.196  44.280   0.951
99778W        W72846  32.379  40.166  12.399
99779W        W72847  15.006  13.808  13.943
99780W        W72848  38.972   5.635   4.212
99781W        W72849  44.010  16.203  13.313
99782W        W72850  36.856   3.911   4.183
99783W        W72851  44.495   1.272  12.181
99784W        W72852  25.690  23.015  10.616
99785W        W72853  30.503  44.862   3.752
99786W        W72854  37.580  27.938  11.444
99787W        W72855  21.690  26.986  13.631
99788W        W72856  16.321   5.278  14.510
99789W        W72857   9.955  35.545  11.331
99790W        W72858   4.927  41.152   2.593
99791W        W72859  23.306  14.181  12.847
99792W        W72860   2.314  44.358   3.892
99793W        W72861  29.003  17.272   4.772
99794W        W72862  11.405   6.131   0.742
99795W        W72863  35.545  32.975   2.355
99796W        W72864   3.829  25.727  11.824
99797W        W72865  38.175   4.973   1.351
99798W        W72866  13.395  15.617  13.358
99799W        W72867  15.786   3.960  13.398
99800W        W72868  24.770  42.381  10.612
99801W        W72869  29.434  27.760   5.030
99802W        W72870  18.447   3.376  11.964
99803W        W72871  10.293  32.654  14.737
99804W        W72872  18.532  42.363  11.075
99805W        W72873  43.767  40.984  11.268
99806W        W72874  19.855  28.084   3.224
99807W        W72875  33.382  22.293   1.525
99808W        W72876  20.768  10.425   1.224
99809W        W72877   4.367   7.405  13.494
99810W        W72878  36.913  18.064   1.160
99811W        W72879  39.524  32.086   1.238
99812W        W72880  28.582  27.188  10.849
99813W        W72881  14.123   8.786   2.344
99814W        W72882  14.897  11.125   2.244
99815W        W72883  16.199  27.589   0.946
99816W        W72884   6.322  37.302  13.381
99817W        W72885  44.862  11.568   0.874
99818W        W72886  33.867  25.519  14.373
99819W        W72887  19.002  11.639  14.926
99820W        W72888  12.678  28.766  14.396
99821W        W72889  19.001  10.846  11.619
99822W        W72890  33.121  32.664  11.996
99823W        W72891  41.575  41.118   1.340
99824W        W72892  18.365  38.684  12.770
99825W        W72893  35.052   9.123   3.644
99826W        W72894  25.521  18.052  12.429
99827W        W72895  42.875  38.477   2.701
99828W        W72896  37.824   3.195   2.935
99829W        W72897  36.873  19.213   2.481
99830W        W72898  22.454  26.856  14.969
99831W        W72899  14.813   8.905   1.772
99832W        W72900  15.980  28.618   3.279
99833W        W72901  12.970  22.125   1.938
99834W        W72902  39.776  25.077  12.348
99835W        W72903  22.951   7.064   3.037
99836W        W72904   6.749   9.394  14.785
99837W        W72905  24.437  15.607  10.201
99838W        W72906  12.213  11.444   4.684
99839W        W72907   6.126  30.082  11.540
99840W        W72908   0.771   6.754   4.172
99841W        W72909  18.738  13.382  11.531
99842W        W72910  39.052   4.718  11.084
99843W        W72911  31.847  41.678  11.929
99844W        W72912  41.056  43.053   3.255
99845W        W72913   4.727  41.035   1.179
99846W        W72914  36.705  13.208   1.005
99847W        W72915  11.639  30.201  12.385
99848W        W72916   7.697   6.848  12.530
99849W        W72917   2.314  23.070   3.779
99850W        W72918  14.597   5.016   0.754
99851W        W72919  22.584  11.153   2.681
99852W        W72920  38.124  17.841   0.221
99853W        W72921  30.909   2.650   1.841
99854W        W72922  20.613   6.797  13.506
99855W        W72923   3.828  37.865  13.083
99856W        W72924  24.670  16.785   2.061
99857W        W72925  24.405  28.941  12.929
99858W        W72926  35.239  16.959  13.592
99859W        W72927  43.282  35.175  12.033
99860W        W72928  36.852  27.614   2.610
99861W        W72929  20.225  38.954   1.523
99862W        W72930   8.915   9.832  12.316
99863W        W72931  11.116  12.688   3.360
99864W        W72932  41.053  24.743   0.326
99865W        W72933   4.414  44.343  11.483
99866W        W72934  23.220   4.755  13.848
99867W        W72935  35.921   4.621  12.447
99868W        W72936  39.835  40.705  14.414
99869W        W72937  39.513  20.195  12.637
99870W        W72938  34.929  40.840   3.951
99871W        W72939  21.275  42.369   1.689
99872W        W72940  29.801  39.338   3.140
99873W        W72941  39.398  25.902   4.861
99874W        W72942  43.963  14.378  13.135
99875W        W72943  33.005  25.528  13.968
99876W        W72944  35.184   6.652   0.535
99877W        W72945   7.679  43.786  11.531
99878W        W72946  10.117   1.189   1.417
99879W        W72947  10.416  15.287  13.986
99880W        W72948  16.043  21.542  10.755
99881W        W72949  14.068  24.201   3.820
99882W        W72950  37.155  20.135  11.974
99883W        W72951  22.184  35.871  10.545
99884W        W72952  33.930  23.946  11.716
99885W        W72953   0.816  37.961   2.819
99886W        W72954  29.117  15.036  14.868
99887W        W72955  24.701  22.599  12.884
99888W        W72956  24.191   8.878   3.819
99889W        W72957  23.525  33.838   4.361
99890W        W72958  42.031  30.891   2.123
99891W        W72959  20.599  17.815  11.536
99892W        W72960  35.351  26.076  13.643
99893W        W72961  40.016  13.417  12.924
99894W        W72962  29.584   5.776  14.255
99895W        W72963  34.448  36.859   1.300
99896W        W72964  33.695  25.794  12.966
99897W        W72965   7.807  17.193   1.452
99898W        W72966  10.375  41.550   4.255
99899W        W72967  28.468   0.501   2.239
99900W        W72968  13.602  10.666  10.464
99901W        W72969  26.225  31.024   0.763
99902W        W72970  11.135  22.949  10.713
99903W        W72971  22.126  43.963   9.776
99904W        W72972  31.974  15.526  10.829
99905W        W72973  40.595  33.372   5.172
99906W        W72974  23.084   4.024   4.079
99907W        W72975  40.393   3.090   2.828
99908W        W72976   0.442  18.592  10.892
99909W        W72977  19.462  21.875   1.816
99910W        W72978   9.104   4.905   2.439
99911W        W72979  37.904  22.011   0.002
99912W        W72980  24.477  18.777  13.952
99913W        W72981  20.114  33.943  11.066
99914W        W72982  19.717  36.411   1.520
99915W        W72983   8.866  41.804  11.090
99916W        W72984  13.678  34.635  10.940
99917W        W72985   8.370  34.016  13.197
99918W        W72986  32.068  36.781  14.303
99919W        W72987  23.591  23.782   2.637
99920W        W72988  25.996   2.757   3.125
99921W        W72989  38.444  44.446   4.452
99922W        W72990  43.419   4.902  11.888
99923W        W72991  12.531   7.866   2.206
99924W        W72992  18.181  38.168   2.404
99925W        W72993  24.208   5.221  14.484
99926W        W72994   8.703   5.243   0.879
99927W        W72995  19.879  43.041  10.266
99928W        W72996  38.050  39.102  10.819
99929W        W72997  15.986  28.147   1.399
99930W        W72998  39.385  28.924   1.902
99931W        W72999  38.125   9.670  12.469
99932W        W73000  10.903  17.927  12.116
99933W        W73001  12.584  38.355   4.187
99934W        W73002  37.659  21.272  11.456
99935W        W73003   8.957  21.175   2.097
99936W        W73004   7.737  28.695  14.910
99937W        W73005  28.627  21.188   2.583
99938W        W73006  17.545   3.446   2.422
99939W        W73007  32.198   5.374   0.286
99940W        W73008   6.860   8.880  10.806
99941W        W73009   7.649   2.915   1.698
99942W        W73010   0.780  12.116   2.827
99943W        W73011  11.247   2.384   2.592
99944W        W73012  12.885  15.816  10.333
99945W        W73013   6.071  11.641  13.061
99946W        W73014  11.180  34.715   0.295
99947W        W73015   8.260  35.476  12.894
99948W        W73016  12.319  11.750  14.013
99949W        W73017  19.716   3.958   0.267
99950W        W73018  29.745  39.380  10.368
99951W        W73019  13.570  36.720   4.047
99952W        W73020  35.066  43.335   0.244
99953W        W73021  17.520  15.246   3.674
99954W        W73022  34.052   6.465  14.370
99955W        W73023  32.367  42.398  11.890
99956W        W73024  32.076  15.687  11.697
99957W        W73025  40.305  35.344  14.300
99958W        W73026  19.534   6.501  12.519
99959W        W73027   5.181  14.714   1.425
99960W        W73028  43.399  31.067  11.374
99961W        W73029  17.300  13.256  13.761
99962W        W73030   9.211  10.914   1.888
99963W        W73031  29.827  35.919   2.441
99964W        W73032  31.813  34.626   4.486
99965W        W73033  19.033  14.748  12.048
99966W        W73034  15.778   5.579  10.839
99967W        W73035   2.407  15.593   3.129
99968W        W73036  42.529  11.240  11.737
99969W        W73037  30.228  38.844   2.347
99970W        W73038  28.896  10.117   3.736
99971W        W73039  27.057   7.511  11.430
99972W        W73040  13.181  37.668   0.276
99973W        W73041  27.804  15.211  11.027
99974W        W73042  37.518  34.168   3.342
99975W        W73043  16.706  39.387  11.137
99976W        W73044  23.743  11.634   3.364
99977W        W73045  43.314   6.718   2.620
99978W        W73046   0.381  30.396   2.620
99979W        W73047  35.503  42.222   1.674
99980W        W73048  22.720  41.911  11.174
99981W        W73049  18.172  28.507  11.364
99982W        W73050  40.399  39.029  14.860
99983W        W73051  27.923   3.761   3.056
99984W        W73052  37.817  25.727  14.457
99985W        W73053  18.931  31.599  12.947
99986W        W73054  44.558  37.033   2.569
99987W        W73055  39.928  11.354  10.842
99988W        W73056  17.029   7.565   4.010
99989W        W73057  11.651  17.685  14.407
99990W        W73058  15.855  14.268  13.896
99991W        W73059  13.274  23.022   0.426
99992W        W73060   7.796  15.721   1.217
99993W        W73061  31.086  43.000   1.913
99994W        W73062   2.705   4.868   4.619
99995W        W73063  31.604  19.556   4.506
99996W        W73064  14.033  31.852  12.936
99997W        W73065  10.580  20.924  12.095
99998W        W73066  15.789  38.429   2.387
99999W        W73067  33.068  18.067   4.400
    0W        W73068  39.960   5.281   3.206
    1W        W73069  25.876  36.617  12.859
    2W        W73070  14.305  21.540  14.454
    3W        W73071   4.668  29.886   4.257
    4W        W73072  34.607  24.620  13.921
    5W        W73073   8.149   8.601  14.801
    6W        W73074  13.919  32.425   5.228
    7W        W73075   6.340  14.761   1.771
    8W        W73076  18.369  30.029   1.667
    9W        W73077  22.500  16.859  13.934
   10W        W73078  22.684  23.118  10.330
   11W        W73079  21.162  14.159   0.747
   12W        W73080  44.935  14.184  13.486
   13W        W73081  41.266  12.140  10.742
   14W        W73082   8.829  35.692   0.103
   15W        W73083  29.699  13.360   3.430
   16W        W73084  12.949  24.493   0.823
   17W        W73085  18.772  10.878  11.148
   18W        W73086  33.929  32.144   0.946
   19W        W73087   8.439  10.749   1.412
   20W        W73088  17.121  40.027   4.566
   21W        W73089  32.834  11.482  14.099
   22W        W73090  22.232   3.908   0.902
   23W        W73091  21.701  39.968   2.305
   24W        W73092  21.588   5.000   2.775
   25W        W73093  38.630  30.360   0.423
   26W        W73094  35.365  32.951  13.465
   27W        W73095  11.346  35.463  11.943
   28W        W73096  43.416  25.138   1.958
   29W        W73097  42.199  40.382   4.593
   30W        W73098  43.733   7.673   3.957
   31W        W73099  19.782  31.460  12.384
   32W        W73100   1.053  18.219   2.740
   33W        W73101  37.021  43.296   2.694
   34W        W73102  43.366  35.899  14.371
   35W        W73103  42.476  11.508  14.556
   36W        W73104   2.448   0.402   0.937
   37W        W73105   8.610  40.089  13.383
   38W        W73106  32.175  34.147   0.016
   39W        W73107  34.436   4.152   0.874
   40W        W73108  36.531  19.693   3.205
   41W        W73109  39.397  39.562  13.957
   42W        W73110  26.993  40.059   0.417
   43W        W73111   3.870  17.292   1.047
   44W        W73112  39.574  35.996   4.305
   45W        W73113  41.016  32.998  14.521
   46W        W73114  44.329  31.135  11.092
   47W        W73115  20.739  43.772   4.720
   48W        W73116   2.066  37.983   3.114
   49W        W73117  10.767  38.027  14.321
   50W        W73118  11.073  16.344   9.702
   51W        W73119  31.764   6.106   1.586
   52W        W73120  43.973  36.484   2.162
   53W        W73121  19.509   9.141  14.821
   54W        W73122   7.788  31.933   2.392
   55W        W73123  37.887  22.827   1.812
   56W        W73124   8.811  12.747   2.603
   57W        W73125  28.052  34.901  12.343
   58W        W73126  37.972  14.612  11.054
   59W        W73127  15.391  24.796   2.808
   60W        W73128   0.291  13.328   3.115
   61W        W73129  35.667  29.639   3.538
   62W        W73130  26.521  19.059   3.756
   63W        W73131  41.292  39.093  13.053
   64W        W73132  31.447  41.250   0.337
   65W        W73133  29.138   3.349   0.014
   66W        W73134  36.840  35.029   1.850
   67W        W73135  37.321  33.142  10.486
   68W        W73136  18.349  33.579  10.647
   69W        W73137  33.346  26.742   1.335
   70W        W73138   5.369   3.464  14.004
   71W        W73139  28.350   6.451  14.334
   72W        W73140  31.183  15.112  10.674
   73W        W73141   1.697   3.009  12.059
   74W        W73142   0.226   1.771  11.578
   75W        W73143  16.305  23.380  12.018
   76W        W73144  31.192  37.312  10.269
   77W        W73145  22.820   2.217  14.834
   78W        W73146  10.764  12.310  12.341
   79W        W73147  15.904  22.184  14.878
   80W        W73148  29.578  28.242  12.093
   81W        W73149   1.805  42.386   4.342
   82W        W73150  11.698  19.602  10.884
   83W        W73151  16.108  38.683  11.855
   84W        W73152  22.533   3.490   0.813
   85W        W73153   6.181  42.188   2.735
   86W        W73154   7.988   8.879  12.487
   87W        W73155  41.853   6.791   1.658
   88W        W73156  40.894   2.459   3.152
   89W        W73157  27.628  42.380   0.530
   90W        W73158  34.074   0.887  11.905
   91W        W73159  18.719   8.938   1.334
   92W        W73160  22.221  33.051  12.418
   93W        W73161  44.992   4.501   2.120
   94W        W73162  21.034  31.952   2.429
   95W        W73163  31.920   9.743  11.527
   96W        W73164   6.519   6.723  10.911
   97W        W73165  13.369  21.821  11.197
   98W        W73166   3.444  42.743  13.907
   99W        W73167  17.826  41.169  13.909
  100W        W73168  36.865  32.736  14.414
  101W        W73169  34.115  14.956   0.853
  102W        W73170  30.466   2.472   1.630
  103W        W73171  25.913  23.519  14.003
  104W        W73172  43.827  32.428  11.246
  105W        W73173  35.407   5.245  11.372
  106W        W73174   1.924   6.531  12.737
  107W        W73175  32.033  37.288  14.316
  108W        W73176  34.564   2.759   2.316
  109W        W73177  32.482   6.942   3.795
  110W        W73178  29.089  30.688  13.953
  111W        W73179  31.002  22.225  13.934
  112W        W73180  33.168  15.668  10.284
  113W        W73181  31.344  31.874   9.885
  114W        W73182  10.369   0.766  11.125
  115W        W73183   6.620  30.576   5.011
  116W        W73184  23.713  34.171   1.890
  117W        W73185  14.688  26.987  14.777
  118W        W73186  11.876  21.153  11.627
  119W        W73187  42.568  31.996   2.583
  120W        W73188   4.495  23.875   0.612
  121W        W73189  42.932   7.098  13.092
  122W        W73190  29.312  16.246  14.334
  123W        W73191  15.189   0.520  14.364
  124W        W73192  22.937  14.278   4.190
  125W        W73193  33.844   9.408  13.024
  126W        W73194  15.014   8.882  13.256
  127W        W73195  41.288  22.459  13.802
  128W        W73196  41.545  16.522   2.259
  129W        W73197  33.134  23.177   3.618
  130W        W73198  42.305   3.034   2.649
  131W        W73199  15.201  22.065  12.515
  132W        W73200  29.535   2.910   2.321
  133W        W73201  25.592  26.600   4.238
  134W        W73202  19.262  19.779  12.938
  135W        W73203   3.775  28.668  14.411
  136W        W73204  23.290  10.314  11.540
  137W        W73205   5.983   9.307  13.701
  138W        W73206  26.513  18.661  11.697
  139W        W73207   7.668  23.612  12.437
  140W        W73208   8.133  10.134   4.670
  141W        W73209   0.784   7.950  12.193
  142W        W73210  11.821  43.529  11.396
  143W        W73211  24.663   6.610   3.803
  144W        W73212  31.064   8.121   0.528
  145W        W73213   9.929  38.310   0.465
  146W        W73214  36.803  29.111  12.578
  147W        W73215  42.908  24.515   1.665
  148W        W73216   7.276   9.128  11.232
  149W        W73217  43.994  14.545   3.288
  150W        W73218  38.803  28.213  12.003
  151W        W73219  26.657  19.065  10.402
  152W        W73220  31.946   5.678  14.919
  153W        W73221  24.622  41.861  11.991
  154W        W73222  14.068  23.473  13.991
  155W        W73223  27.639  33.594   4.785
  156W        W73224  24.456  17.620  14.314
  157W        W73225  32.085   4.237   0.073
  158W        W73226   6.221  44.931  10.632
  159W        W73227   7.962  28.554   1.246
  160W        W73228  20.538  14.318   0.013
  161W        W73229  40.804  40.210   4.357
  162W        W73230  43.791   1.916  11.008
  163W        W73231   9.681   3.231  12.021
  164W        W73232   7.008  20.789  14.333
  165W        W73233  14.612  23.339   1.744
  166W        W73234   5.412  43.414   2.249
  167W        W73235   0.829  20.623   1.851
  168W        W73236  33.407  19.622  14.302
  169W        W73237  38.530  34.065  12.405
  170W        W73238  22.268  15.267   1.703
  171W        W73239  36.495  30.350  10.107
  172W        W73240  22.012  36.326   3.188
  173W        W73241  38.889   7.104   0.824
  174W        W73242  20.871  43.112  13.487
  175W        W73243  18.130  28.665   1.724
  176W        W73244  16.359   1.869   2.183
  177W        W73245  20.494  44.010   3.914
  178W        W73246   4.395  26.495   2.801
  179W        W73247  42.482  22.705  11.430
  180W        W73248  36.556  16.371  11.587
  181W        W73249  31.107  14.302   1.911
  182W        W73250   5.682   6.778   3.618
  183W        W73251  38.597   5.237  12.405
  184W        W73252  40.891  27.882  14.526
  185W        W73253  17.823  19.106   1.996
  186W        W73254  10.421  22.654  13.811
  187W        W73255  23.945  38.856   5.023
  188W        W73256  26.889  10.916  14.857
  189W        W73257  33.331  13.738   2.035
  190W        W73258  29.416  41.566  11.476
  191W        W73259   5.244  34.599  13.030
  192W        W73260   9.299  28.953  12.146
  193W        W73261  39.433   1.699   3.597
  194W        W73262   3.383  43.097  12.423
  195W        W73263   1.826  11.577   2.471
  196W        W73264  11.806  12.086   1.363
  197W        W73265   8.197  30.204   4.253
  198W        W73266   6.770  40.796  14.362
  199W        W73267  40.816  23.010  14.431
  200W        W73268  28.052  43.833   2.137
  201W        W73269  43.349  32.947  13.310
  202W        W73270  21.498  31.866  11.152
  203W        W73271  26.002   0.266   4.240
  204W        W73272  26.421  25.553  12.448
  205W        W73273  36.381  22.487   0.406
  206W        W73274  35.492  20.092   3.780
  207W        W73275  19.341  44.241  14.520
  208W        W73276  36.336  36.608   2.621
  209W        W73277  21.830  33.343   0.403
  210W        W73278   7.469   9.806   3.385
  211W        W73279   8.370  33.133  11.692
  212W        W73280  26.194  40.089  14.071
  213W        W73281  32.947  32.472  12.440
  214W        W73282  18.952  27.439   2.248
  215W        W73283  22.556  39.559  10.691
  216W        W73284  26.009  31.052  13.842
  217W        W73285  33.921  19.841   0.636
  218W        W73286  13.723  18.657   4.531
  219W        W73287  11.279   5.678   1.242
  220W        W73288   4.222  44.283   4.120
  221W        W73289  31.668  39.400   4.563
  222W        W73290  15.186  42.920  11.120
  223W        W73291   0.391  10.230   3.967
  224W        W73292  27.313  11.219   2.634
  225W        W73293  11.349  20.766  10.594
  226W        W73294  33.487  28.754   4.148
  227W        W73295  26.034  43.929  12.529
  228W        W73296  12.280  30.897   0.024
  229W        W73297   6.397   9.959  11.442
  230W        W73298   9.331  11.912  10.685
  231W        W73299  23.501  25.615  12.847
  232W        W73300  18.670  29.192   4.654
  233W        W73301  17.239  11.324   4.778
  234W        W73302  26.966  16.347  14.444
  235W        W73303  11.412  41.927   0.340
  236W        W73304  15.618   6.199  12.469
  237W        W73305  17.743  31.944  13.795
  238W        W73306  36.120  38.368   0.663
  239W        W73307  17.142   9.880  13.999
  240W        W73308  15.660  32.207  14.753
  241W        W73309  25.694  41.837   0.550
  242W        W73310  33.510  42.395  12.803
  243W        W73311  40.463  29.510  13.023
  244W        W73312  13.873   1.002  14.626
  245W        W73313  37.563  32.483  12.165
  246W        W73314  20.520   1.346   1.052
  247W        W73315  22.980   0.421  12.433
  248W        W73316  31.171  28.001  12.924
  249W        W73317  20.595   2.183   2.292
  250W        W73318  25.261  39.903  10.661
  251W        W73319  26.819  21.144   2.827
  252W        W73320  23.132  26.591   1.953
  253W        W73321  20.269  11.354  14.385
  254W        W73322   1.834  16.244   0.464
  255W        W73323  20.146  39.834   4.689
  256W        W73324   6.222  41.336  13.715
  257W        W73325  27.143   2.803   4.044
  258W        W73326  32.893   9.518   0.354
  259W        W73327   1.578  38.916  14.464
  260W        W73328  44.582  36.631   1.749
  261W        W73329   4.795  18.144   4.997
  262W        W73330  16.172  24.162   2.952
  263W        W73331  11.256  39.315  11.560
  264W        W73332  20.207   1.918  12.373
  265W        W73333  15.139  25.788  12.983
  266W        W73334  25.555  44.420   3.169
  267W        W73335  30.455  23.368   0.388
  268W        W73336  16.848  39.264   2.342
  269W        W73337  32.449  21.203   0.681
  270W        W73338  39.463  26.432  13.328
  271W        W73339  35.833  17.690   0.074
  272W        W73340  30.105  14.774   1.354
  273W        W73341  38.533  20.035   4.082
  274W        W73342  42.541  35.873  14.392
  275W        W73343  15.684  31.794  12.540
  276W        W73344  16.045  42.827  13.491
  277W        W73345  38.997   5.810   2.435
  278W        W73346   0.316  25.006  12.643
  279W        W73347  42.411  31.386   1.756
  280W        W73348  44.384  23.261   3.409
  281W        W73349  23.753   4.466   1.192
  282W        W73350   1.339  19.082   1.388
  283W        W73351  16.237  38.948  14.926
  284W        W73352   1.436   4.459   4.909
  285W        W73353   7.614   9.360   1.896
  286W        W73354   4.265  35.403   3.278
  287W        W73355  42.879  10.726   2.716
  288W        W73356   2.741  31.698   3.226
  289W        W73357  10.276  35.396   2.515
  290W        W73358  37.331  25.016   4.350
  291W        W73359  24.968  21.648  13.317
  292W        W73360  23.587  25.625   4.864
  293W        W73361  42.921  38.686  13.772
  294W        W73362  33.760  41.950  12.929
  295W        W73363   4.576  14.870  10.117
  296W        W73364  29.649  31.210   0.704
  297W        W73365   6.444  44.025   4.280
  298W        W73366   5.855  37.081   0.379
  299W        W73367   9.861  41.452   4.168
  300W        W73368  21.747  14.716   2.411
  301W        W73369  20.836  23.546  11.543
  302W        W73370  12.365  27.003  11.098
  303W        W73371  15.708  11.443  11.109
  304W        W73372  33.344  13.657   1.548
  305W        W73373  25.719   4.869  11.954
  306W        W73374   5.123  37.808   1.197
  307W        W73375   7.743  38.804   2.820
  308W        W73376  24.552  44.418  12.931
  309W        W73377   1.373  21.706   3.615
  310W        W73378  19.010  35.144   3.718
  311W        W73379  22.516  25.988  12.015
  312W        W73380  38.559  40.319  11.987
  313W        W73381  27.651   7.925  13.307
  314W        W73382   0.491  41.017   0.700
  315W        W73383  43.392  17.722  14.785
  316W        W73384   7.172  41.853  11.242
  317W        W73385  18.313  12.249   1.956
  318W        W73386  26.215  10.480   2.349
  319W        W73387  16.054  40.838   0.461
  320W        W73388  27.009  11.126   0.729
  321W        W73389  20.104  15.042  14.964
  322W        W73390  33.840   7.913   3.615
  323W        W73391  37.718  21.515   2.237
  324W        W73392  33.514   5.915  12.451
  325W        W73393   4.670  24.227  12.435
  326W        W73394  22.491  44.938  14.795
  327W        W73395  20.212   9.850  12.110
  328W        W73396   3.953   7.690  11.201
  329W        W73397  12.311  29.229   0.769
  330W        W73398  43.055  25.195  11.964
  331W        W73399  23.705  27.705  13.462
  332W        W73400  26.873  38.383   4.539
  333W        W73401   4.735  14.807   0.163
  334W        W73402  38.298   2.447  13.803
  335W        W73403  36.635  32.393   4.308
  336W        W73404  38.994  35.323   4.920
  337W        W73405  31.965  39.351  12.486
  338W        W73406  12.616   2.038   1.611
  339W        W73407   5.758   6.899   2.214
  340W        W73408  17.864  31.080   0.860
  341W        W73409  34.112  38.958   0.029
  342W        W73410  34.937  14.846   4.656
  343W        W73411  39.497   7.408   2.017
  344W        W73412  35.918   0.516  11.184
  345W        W73413  30.561  24.354  11.441
  346W        W73414   6.929   7.775   1.980
  347W        W73415  12.131  17.295   2.438
  348W        W73416  16.828  41.366   1.521
  349W        W73417   4.502  44.470  13.446
  350W        W73418  18.267  29.013  13.233
  351W        W73419   0.955  15.777   2.028
  352W        W73420  21.119  17.094   0.577
  353W        W73421  13.453   8.157  13.496
  354W        W73422  22.612  35.350  14.421
  355W        W73423  26.602  29.384  10.331
  356W        W73424  39.785  25.654   0.815
  357W        W73425  44.697   8.929   3.625
  358W        W73426  13.301   0.108   1.786
  359W        W73427  28.259  30.092  10.732
  360W        W73428  34.894   6.952   0.836
  361W        W73429  25.566  42.502   1.676
  362W        W73430  12.411  11.112  11.042
  363W        W73431  41.316  29.974  14.492
  364W        W73432  15.000  41.474  11.186
  365W        W73433  14.393  10.090   2.846
  366W        W73434   4.854   5.860  13.038
  367W        W73435  42.310   8.300  10.371
  368W        W73436  18.026  11.687  14.532
  369W        W73437  37.922  40.877  11.550
  370W        W73438  22.506  30.171  13.396
  371W        W73439  44.589  34.401   2.561
  372W        W73440   2.995   8.869   1.179
  373W        W73441  13.717  31.454  13.289
  374W        W73442  43.471  40.382  14.359
  375W        W73443  15.385   8.313  12.532
  376W        W73444  15.459   4.348   0.024
  377W        W73445  43.824   1.695  12.654
  378W        W73446  32.450  27.646   1.708
  379W        W73447  34.064  43.832  13.859
  380W        W73448   3.111  21.571   2.698
  381W        W73449  14.154  10.348   3.254
  382W        W73450  32.197  20.039   2.199
  383W        W73451  29.402  38.107   4.528
  384W        W73452  26.603   6.811  11.536
  385W        W73453  26.657  13.257   3.194
  386W        W73454  26.175  40.290   3.348
  387W        W73455  32.990  42.288  13.884
  388W        W73456  42.268   7.758  13.089
  389W        W73457  44.408   6.769   0.453
  390W        W73458  14.865  12.616  11.577
  391W        W73459  12.488  19.709  11.717
  392W        W73460  42.724  11.636   2.182
  393W        W73461  27.264  21.514   4.540
  394W        W73462  21.999  35.163  12.844
  395W        W73463   2.309  41.562   1.703
  396W        W73464  37.958   1.478   2.307
  397W        W73465  23.252  19.767  12.498
  398W        W73466   7.280   6.481  13.757
  399W        W73467  44.517  16.528  11.561
  400W        W73468   6.975  24.017  11.971
  401W        W73469   0.492  18.250  12.127
  402W        W73470   5.492  19.240   0.294
  403W        W73471  19.707  22.156  14.853
  404W        W73472  33.379  21.249   0.288
  405W        W73473  27.903  11.656   4.165
  406W        W73474  11.312  10.608  14.754
  407W        W73475  15.571  15.274   3.219
  408W        W73476  44.681  39.799   2.630
  409W        W73477  19.342  39.927  14.380
  410W        W73478  37.792  16.258   4.661
  411W        W73479  14.337  42.347   1.843
  412W        W73480  10.962  12.660  11.103
  413W        W73481  20.547   8.557   4.583
  414W        W73482  36.000   4.388   2.253
  415W        W73483  35.824  10.727  13.076
  416W        W73484  38.854  13.139   3.820
  417W        W73485  34.259  43.343   0.694
  418W        W73486  39.405  37.825   3.085
  419W        W73487  12.366  13.631   4.369
  420W        W73488  38.004  20.762   0.485
  421W        W73489  41.275  44.228   0.762
  422W        W73490  30.927  22.817   4.553
  423W        W73491  25.908  35.154   1.914
  424W        W73492  37.628  15.770  14.322
  425W        W73493   9.322  22.078  14.007
  426W        W73494   1.378  20.839  14.549
  427W        W73495  28.948  16.487   4.055
  428W        W73496  10.837   5.212   3.731
  429W        W73497  32.448  35.911   0.979
  430W        W73498   1.169  41.721   1.415
  431W        W73499  30.211  37.514  11.554
  432W        W73500  13.456  24.494   0.736
  433W        W73501  25.802  44.988   4.647
  434W        W73502  11.332   1.343   1.317
  435W        W73503  26.939  28.103   2.888
  436W        W73504  35.651  36.084  11.099
  437W        W73505   2.267   3.896   3.602
  438W        W73506  26.265   9.643  14.967
  439W        W73507   7.640  28.571  13.171
  440W        W73508   9.097  40.310  13.394
  441W        W73509   7.849   7.321   1.771
  442W        W73510  22.758  33.409   2.248
  443W        W73511  34.848  41.498   0.164
  444W        W73512  23.132   2.694  11.936
  445W        W73513   6.165   2.628   0.338
  446W        W73514  40.054  38.598  10.702
  447W        W73515  41.946   5.810   3.424
  448W        W73516  36.839  22.822  11.994
  449W        W73517  31.713   7.136   1.397
  450W        W73518  27.662  22.647  12.267
  451W        W73519  14.785  35.484  11.907
  452W        W73520  29.131  41.513  13.322
  453W        W73521  35.567   2.428  13.560
  454W        W73522  10.846   2.401   2.907
  455W        W73523  22.701  42.749  11.581
  456W        W73524   3.424   7.175   2.443
  457W        W73525  42.292  23.399   2.145
  458W        W73526  25.379   1.810  12.105
  459W        W73527  13.821  36.339  11.593
  460W        W73528  17.015   5.318  13.427
  461W        W73529  13.332   9.276   2.359
  462W        W73530  40.457  31.036  10.783
  463W        W73531  32.498  22.196   4.402
  464W        W73532  16.149   2.391   3.785
  465W        W73533  36.604   9.351   4.596
  466W        W73534  17.131   0.479  11.009
  467W        W73535  34.416   1.341   2.883
  468W        W73536  12.345  34.655   4.348
  469W        W73537  28.993  24.027  14.795
  470W        W73538  13.554  39.108   1.672
  471W        W73539  12.174   0.295   3.960
  472W        W73540  38.994  25.897   0.787
  473W        W73541  30.481  30.650  11.407
  474W        W73542  28.496   4.677  12.536
  475W        W73543  13.864   0.811   4.094
  476W        W73544  42.485  29.184   2.913
  477W        W73545  40.485  27.141   1.367
  478W        W73546  31.819  33.429  14.334
  479W        W73547   8.307  21.020  12.034
  480W        W73548  20.720  31.080  10.813
  481W        W73549   8.796  41.309  10.137
  482W        W73550  39.607  22.904   0.026
  483W        W73551  15.225   6.329  14.783
  484W        W73552  15.261  38.359   2.911
  485W        W73553  21.474  22.570   3.179
  486W        W73554  15.259  11.188  10.741
  487W        W73555  36.591  40.301   0.314
  488W        W73556  18.132  13.584  12.474
  489W        W73557   0.666   5.328  13.389
  490W        W73558   7.163  30.025   1.250
  491W        W73559  36.812  15.708  12.880
  492W        W73560  35.323  15.580  12.084
  493W        W73561  34.156  42.427  14.413
  494W        W73562  20.687  22.405   3.684
  495W        W73563  44.934  28.022  13.144
  496W        W73564  33.328  40.597  10.024
  497W        W73565  19.711  12.139  12.067
  498W        W73566  30.238  37.171   4.632
  499W        W73567  26.202  44.338   4.777
  500W        W73568   6.157  40.633   3.319
  501W        W73569   9.438  22.229  14.922
  502W        W73570  21.216   3.728   1.912
  503W        W73571  18.408  14.726   2.686
  504W        W73572  39.192  24.073  11.162
  505W        W73573  17.747  11.120   4.716
  506W        W73574  31.798  10.657  13.768
  507W        W73575  37.457  16.571  13.375
  508W        W73576  40.937  17.730   2.354
  509W        W73577  21.538   2.915   0.406
  510W        W73578  11.979  42.522  11.676
  511W        W73579  12.754  40.830  12.753
  512W        W73580  39.283  37.900  12.898
  513W        W73581  16.050   6.500  11.835
  514W        W73582  32.045  28.418   0.489
  515W        W73583   3.430   6.292   4.587
  516W        W73584  32.106  26.465   2.731
  517W        W73585  29.957  22.544  14.162
  518W        W73586  39.464  37.364  10.401
  519W        W73587  44.921  19.785   1.257
  520W        W73588  44.739  22.632   0.295
  521W        W73589   9.687  43.911  12.846
  522W        W73590  18.581  37.939  14.273
  523W        W73591  10.822  35.937  11.396
  524W        W73592  42.885  22.007  10.690
  525W        W73593  23.782   6.332   4.709
  526W        W73594   6.423  33.539  11.181
  527W        W73595   2.420  42.445  10.583
  528W        W73596   7.645  41.799  14.121
  529W        W73597  12.733  42.315  14.233
  530W        W73598  19.966  31.403   3.674
  531W        W73599  26.480  20.427   1.782
  532W        W73600  25.571  32.876  11.200
  533W        W73601  40.032  14.714  12.338
  534W        W73602  11.899   1.830   2.382
  535W        W73603  23.773   4.232  11.429
  536W        W73604   8.370  41.392   4.921
  537W        W73605   0.493  39.429  14.801
  538W        W73606   3.752  38.585  14.263
  539W        W73607  24.164  18.262  10.518
  540W        W73608   5.823  16.190  13.765
  541W        W73609  32.966  10.857  12.049
  542W        W73610   5.889  26.282  13.703
  543W        W73611  40.302   6.162  11.477
  544W        W73612  22.781  15.264  12.371
  545W        W73613   0.947  29.956  13.016
  546W        W73614  43.377  34.869   4.867
  547W        W73615  21.311  27.737  13.590
  548W        W73616  39.251   5.979   1.627
  549W        W73617  33.136  26.285  10.713
  550W        W73618  43.195  40.815   0.277
  551W        W73619  26.475  38.378   3.536
  552W        W73620   6.862  14.118   4.447
  553W        W73621  27.053  18.250  14.556
  554W        W73622  39.854  30.385  12.134
  555W        W73623  19.722  18.161   1.798
  556W        W73624  30.051  38.621  11.413
  557W        W73625  16.135   8.762   0.200
  558W        W73626  33.262   1.929   3.488
  559W        W73627   4.030  38.516  14.807
  560W        W73628  32.934  22.824   1.260
  561W        W73629  38.255   4.772   3.556
  562W        W73630  27.371  10.361  10.510
  563W        W73631  35.409  44.476   9.654
  564W        W73632  16.195   4.849   3.544
  565W        W73633  40.469  38.446   2.882
  566W        W73634  15.864  22.090  13.950
  567W        W73635   1.243  10.595  10.678
  568W        W73636  42.717  13.128  14.986
  569W        W73637  43.402  10.349   4.102
  570W        W73638   8.904  10.774   3.704
  571W        W73639  18.724  38.548   1.930
  572W        W73640   4.291   7.012  10.628
  573W        W73641  38.773  24.543  14.352
  574W        W73642  28.660  24.254   3.624
  575W        W73643  22.093  27.656   1.040
  576W        W73644  11.334   6.727   2.174
  577W        W73645  27.059  23.690  10.526
  578W        W73646  39.857  21.539   4.448
  579W        W73647  40.976  38.792  11.537
  580W        W73648  19.544  40.489   1.827
  581W        W73649  36.949  11.624   2.964
  582W        W73650   2.033  13.162  11.489
  583W        W73651  40.911   6.615  12.085
  584W        W73652   7.934   5.654  13.129
  585W        W73653  12.027  18.718   5.158
  586W        W73654   8.445   5.865   2.518
  587W        W73655  38.022  40.509   1.856
  588W        W73656  19.749  15.583   3.326
  589W        W73657  22.033  10.206  14.038
  590W        W73658  13.894  14.896  10.733
  591W        W73659  43.861  24.689   4.229
  592W        W73660  14.104  21.074  14.430
  593W        W73661   7.555  26.535  12.532
  594W        W73662  30.378  33.429   3.368
  595W        W73663  42.593  23.800  13.129
  596W        W73664  23.676  36.935  10.741
  597W        W73665  16.411  25.128   4.051
  598W        W73666  19.303  38.502   3.711
  599W        W73667  23.552  13.224  14.841
  600W        W73668   9.240  38.520  11.120
  601W        W73669   0.966  34.066   3.614
  602W        W73670   1.019  12.355  11.159
  603W        W73671  10.615   3.692  14.016
  604W        W73672   7.216  27.137   3.936
  605W        W73673  44.786   2.130  14.922
  606W        W73674  30.122  32.540   4.879
  607W        W73675  12.768  11.792   4.619
  608W        W73676  21.736  27.174  11.107
  609W        W73677  18.793   9.649  12.095
  610W        W73678  28.689  40.766  13.434
  611W        W73679  35.102  38.580  11.654
  612W        W73680   5.480  41.727   2.315
  613W        W73681   6.349  12.642  11.421
  614W        W73682   6.441  13.752  12.134
  615W        W73683  38.995  13.173  12.639
  616W        W73684  22.225  34.676   4.414
  617W        W73685   7.927  13.874   4.298
  618W        W73686   8.177  34.034  10.601
  619W        W73687  37.572  31.018   2.214
  620W        W73688  32.384   3.631  14.472
  621W        W73689  42.843   9.922   1.843
  622W        W73690  27.499   3.206   0.801
  623W        W73691  39.895  26.927  12.937
  624W        W73692  44.391  26.078  14.562
  625W        W73693  28.776  30.520   2.409
  626W        W73694  22.974  29.063   3.155
  627W        W73695  19.116  38.031   3.808
  628W        W73696  32.911   3.787   3.103
  629W        W73697   0.402  40.472  10.641
  630W        W73698  37.498   0.471  12.785
  631W        W73699  41.718   4.712   1.408
  632W        W73700  40.932  15.755   9.768
  633W        W73701  21.298  40.410  13.490
  634W        W73702   1.269  42.200  12.350
  635W        W73703  38.135   5.499   3.064
  636W        W73704  39.559  23.600  10.748
  637W        W73705  34.289  12.890  13.877
  638W        W73706  13.580  10.222  13.610
  639W        W73707  27.278   5.203   0.973
  640W        W73708  15.119  15.176   3.441
  641W        W73709  33.930   9.701  11.125
  642W        W73710  11.521   1.459  10.711
  643W        W73711   8.285   5.011  12.920
  644W        W73712   6.688  20.162  10.515
  645W        W73713   5.281   3.276   4.698
  646W        W73714  30.667  29.724  10.381
  647W        W73715  36.538  15.844  14.797
  648W        W73716  34.151  34.840   4.338
  649W        W73717  23.786  24.338  11.748
  650W        W73718  35.645   6.374  13.489
  651W        W73719  12.143  15.368  13.119
  652W        W73720   2.993  39.382   1.180
  653W        W73721  43.562  32.117   2.757
  654W        W73722  22.721  38.822   3.041
  655W        W73723  30.909  25.545  14.747
  656W        W73724  24.619  41.605  14.470
  657W        W73725  31.476  13.784  12.600
  658W        W73726  29.661  36.607   3.407
  659W        W73727  34.035  22.710   3.855
  660W        W73728   1.182  33.086  12.918
  661W        W73729  43.011  33.027   3.705
  662W        W73730  28.594  42.873   4.317
  663W        W73731  23.650  22.146   3.654
  664W        W73732  12.816   6.180  12.605
  665W        W73733  20.964  41.409  11.894
  666W        W73734  27.664  13.251   3.385
  667W        W73735  35.901   0.849  14.814
  668W        W73736  18.069  23.431   0.980
  669W        W73737  40.560  21.637   1.854
  670W        W73738  26.740  20.989   0.960
  671W        W73739  14.630  16.130   0.727
  672W        W73740   9.716  13.362   4.518
  673W        W73741   0.527  38.973  12.475
  674W        W73742  42.849   8.635  12.541
  675W        W73743   6.940   4.140   0.097
  676W        W73744  41.469  24.036   4.001
  677W        W73745  44.353  22.523  14.467
  678W        W73746  44.782  13.379  10.689
  679W        W73747  11.077   9.618  14.834
  680W        W73748  10.867   0.527  12.105
  681W        W73749  28.464  43.510   2.258
  682W        W73750   8.632  14.086   3.330
  683W        W73751  31.362   9.229  14.504
  684W        W73752  17.622  12.632   3.828
  685W        W73753  21.162  26.323  13.572
  686W        W73754  17.112   1.117  13.555
  687W        W73755   2.470  26.639  11.129
  688W        W73756  40.972  17.697   2.872
  689W        W73757  33.439   0.773   2.010
  690W        W73758  40.535  20.621  11.428
  691W        W73759  23.792  25.576  10.544
  692W        W73760  36.530   0.867   4.410
  693W        W73761   7.398  15.678   3.893
  694W        W73762  22.575  22.470   4.530
  695W        W73763   4.859  27.942  10.473
  696W        W73764   5.281  31.203  12.157
  697W        W73765  42.045  18.596   0.259
  698W        W73766  44.081  12.821  14.947
  699W        W73767  29.041   0.920   0.847
  700W        W73768  31.917  19.515  13.394
  701W        W73769   9.982  32.606   2.804
  702W        W73770  10.337  12.319   3.265
  703W        W73771  25.209   9.678   2.188
  704W        W73772  26.554  27.781   2.341
  705W        W73773  34.938  20.234  12.652
  706W        W73774   5.669  38.004   2.201
  707W        W73775  23.214  32.428  10.724
  708W        W73776  10.476   8.197  14.775
  709W        W73777  31.913  11.774  14.969
  710W        W73778  41.958  44.284  12.010
  711W        W73779  20.146  44.238   2.178
  712W        W73780   5.351   9.790  12.288
  713W        W73781  37.991   8.984  14.023
  714W        W73782   4.281  24.408   1.297
  715W        W73783  35.230  22.181   0.770
  716W        W73784   8.914   2.704  11.037
  717W        W73785  20.140  33.869   4.902
  718W        W73786  11.814  23.966   4.763
  719W        W73787  20.044  34.413   3.610
  720W        W73788   3.671  34.428   1.893
  721W        W73789  31.327  24.654  13.886
  722W        W73790  42.331  16.079   3.634
  723W        W73791   0.212   6.929  11.617
  724W        W73792  19.587   0.589  14.047
  725W        W73793   0.331  41.887  11.399
  726W        W73794  12.070   3.861  14.988
  727W        W73795  13.982  20.878   5.056
  728W        W73796  31.932  11.235  10.749
  729W        W73797  38.794   8.248  11.116
  730W        W73798  12.461  36.546   4.151
  731W        W73799  15.937  10.454  10.266
  732W        W73800  17.658  37.569   2.195
  733W        W73801  19.653  34.355  11.108
  734W        W73802  44.521  10.660   3.370
  735W        W73803   2.294  41.737   3.193
  736W        W73804   3.794  15.869  14.026
  737W        W73805  10.770  14.356   0.327
  738W        W73806   0.225  23.929  12.063
  739W        W73807   9.730  36.433   3.506
  740W        W73808  19.719  20.768   4.572
  741W        W73809  39.756  37.144  11.148
  742W        W73810   0.309  23.222   2.284
  743W        W73811  27.683   1.398   0.847
  744W        W73812  25.070  24.107  11.232
  745W        W73813  22.197  24.230   1.908
  746W        W73814  43.247   3.547   0.015
  747W        W73815  15.338  24.796  12.409
  748W        W73816   2.682  18.292  11.838
  749W        W73817  35.309  16.662   0.329
  750W        W73818  17.624   3.195   1.075
  751W        W73819   1.894  19.121  10.712
  752W        W73820  33.556  25.970  14.391
  753W        W73821  18.056   4.150  13.014
  754W        W73822  26.533   0.508  10.759
  755W        W73823  13.703  43.463   1.718
  756W        W73824   8.450  10.482   0.274
  757W        W73825  41.296   8.643  10.653
  758W        W73826  43.415  29.889  14.802
  759W        W73827  11.772   0.480  10.576
  760W        W73828   3.421  38.712   0.479
  761W        W73829   9.668  29.776  14.366
  762W        W73830  15.492  11.659   3.822
  763W        W73831  23.440  10.761   4.596
  764W        W73832  20.351  20.052   3.572
  765W        W73833  30.540   4.337   3.247
  766W        W73834  35.163  11.852   0.065
  767W        W73835   3.155  26.623   1.408
  768W        W73836  32.981   9.105  11.246
  769W        W73837  32.639  18.286   3.613
  770W        W73838  27.690  44.196   3.754
  771W        W73839  16.570  15.727  14.875
  772W        W73840  40.499  43.148  11.606
  773W        W73841  18.236  41.699  13.346
  774W        W73842  10.761  12.734  11.575
  775W        W73843  28.501  31.336   3.648
  776W        W73844  26.293  18.242   4.368
  777W        W73845  18.486  17.404   4.064
  778W        W73846  33.722  37.102  14.710
  779W        W73847  41.336   0.787   4.859
  780W        W73848  36.442  18.555  10.958
  781W        W73849  31.823   0.906  12.189
  782W        W73850  37.454  36.149  14.485
  783W        W73851  35.960  10.571   1.246
  784W        W73852  13.862  25.882   0.881
  785W        W73853  26.991  30.095   1.016
  786W        W73854   3.449  42.852  12.991
  787W        W73855  14.720  21.434   3.882
  788W        W73856  31.198  16.072  12.934
  789W        W73857   1.511  20.773  13.331
  790W        W73858  22.262  31.608   3.281
  791W        W73859  38.861   4.915   2.756
  792W        W73860  36.892   5.988  14.456
  793W        W73861  43.485  44.518   0.849
  794W        W73862  28.931  19.235   3.137
  795W        W73863  32.010  19.213  14.661
  796W        W73864  13.204  11.099   4.526
  797W        W73865  39.124  33.120  12.487
  798W        W73866  14.311   5.956  12.381
  799W        W73867   1.483  16.862   3.925
  800W        W73868  34.689  42.931   4.183
  801W        W73869  31.663  36.757  12.351
  802W        W73870  24.603  16.089  10.451
  803W        W73871  20.315  24.640  14.586
  804W        W73872  26.460  25.482   3.458
  805W        W73873   4.770  20.645   3.312
  806W        W73874  14.085  15.691  11.935
  807W        W73875   3.783  20.499   3.686
  808W        W73876  44.953  25.511   3.369
  809W        W73877  29.509  34.897   0.237
  810W        W73878  22.964  40.497  10.648
  811W        W73879   2.772  25.107  14.928
  812W        W73880  37.962   1.180   1.490
  813W        W73881  20.303  26.725   1.855
  814W        W73882  33.921  35.662  13.915
  815W        W73883   7.599  30.620  11.060
  816W        W73884  29.403  44.980   2.757
  817W        W73885   0.790   0.351  12.154
  818W        W73886  30.675   2.418  13.404
  819W        W73887  30.632  33.282  12.576
  820W        W73888  41.468  43.195  14.808
  821W        W73889  24.972   3.010   0.004
  822W        W73890  39.584  40.349  14.874
  823W        W73891  44.710  36.865  11.195
  824W        W73892   6.146  40.091  11.931
  825W        W73893  20.812  37.331  13.089
  826W        W73894   6.236  10.550  13.562
  827W        W73895  13.635  25.156   4.184
  828W        W73896  44.448   6.679   2.324
  829W        W73897  38.306  34.453  11.088
  830W        W73898  26.951  24.305  11.180
  831W        W73899  28.899  19.123  13.491
  832W        W73900  19.502  41.027   4.353
  833W        W73901  29.706  26.224  14.974
  834W        W73902   0.449  14.280  13.424
  835W        W73903  18.742  21.763   3.117
  836W        W73904   4.443  35.879   3.231
  837W        W73905  12.274  22.604  13.599
  838W        W73906  39.031  12.361  14.025
  839W        W73907  13.351  11.835   0.862
  840W        W73908  19.017  42.237  11.851
  841W        W73909  33.696  18.043  10.637
  842W        W73910  18.523  13.297  11.060
  843W        W73911   9.308  43.977  13.647
  844W        W73912  32.008  31.442   1.025
  845W        W73913  21.482  40.607   0.892
  846W        W73914  35.946  42.107   2.201
  847W        W73915  20.310   0.771  12.921
  848W        W73916  29.103   8.907   2.645
  849W        W73917  34.401  31.444  12.476
  850W        W73918  27.538  40.785  10.931
  851W        W73919  24.075  17.254  10.895
  852W        W73920  33.191  18.628  11.097
  853W        W73921   9.099  32.946  11.999
  854W        W73922   4.300   7.716   4.016
  855W        W73923   6.736  21.931  10.508
  856W        W73924  14.383  16.351  13.348
  857W        W73925   9.128  40.762  10.279
  858W        W73926  13.156  43.886   1.407
  859W        W73927   8.388  34.075   1.961
  860W        W73928  36.003  24.989  14.780
  861W        W73929  10.085  29.436  11.603
  862W        W73930   9.772  20.176  12.641
  863W        W73931  22.263  14.773  11.979
  864W        W73932  26.027  36.996   2.253
  865W        W73933  41.221  40.014   4.601
  866W        W73934   9.907  31.399   4.340
  867W        W73935  15.761   8.072   2.161
  868W        W73936  23.233  23.120  12.024
  869W        W73937  20.496   8.698  13.160
  870W        W73938   6.216  41.668   2.672
  871W        W73939   4.309  39.039  11.908
  872W        W73940  24.144  23.655   2.358
  873W        W73941   6.750  41.341  14.822
  874W        W73942   7.754  24.926  12.446
  875W        W73943  38.544  27.363  14.507
  876W        W73944  33.087  36.074   4.669
  877W        W73945  40.907  20.484   0.455
  878W        W73946  26.857   1.698   3.349
  879W        W73947  34.983  14.693  14.692
  880W        W73948   3.997  15.237   0.854
  881W        W73949   7.784  33.167   4.140
  882W        W73950  36.553   4.338  11.587
  883W        W73951  15.293   1.588   4.647
  884W        W73952  12.721  25.624   3.805
  885W        W73953  26.076   0.391   3.737
  886W        W73954  35.841  12.426  14.315
  887W        W73955  15.382  34.553  12.033
  888W        W73956   4.831  34.402  11.629
  889W        W73957  26.696  41.187   0.293
  890W        W73958   4.309  42.127  12.134
  891W        W73959   3.126  10.281  12.517
  892W        W73960  29.009   6.430  10.522
  893W        W73961  44.798  30.450   0.327
  894W        W73962  44.392   3.510  11.545
  895W        W73963  10.621  27.967   2.847
  896W        W73964  18.248  20.093   0.587
  897W        W73965   5.456   4.383  14.970
  898W        W73966  41.564   2.442  10.792
  899W        W73967  17.592  15.708  11.561
  900W        W73968   1.966  19.701   0.274
  901W        W73969  25.025  38.578   2.803
  902W        W73970  10.340   5.382  12.150
  903W        W73971  39.512  39.515   1.933
  904W        W73972  19.084  28.973   4.417
  905W        W73973  31.469  22.227   4.182
  906W        W73974  36.840   6.306   1.723
  907W        W73975   5.197   2.925  12.157
  908W        W73976  15.319   8.943  11.799
  909W        W73977  40.535  31.399   4.113
  910W        W73978  17.236  10.466   2.766
  911W        W73979   2.762  16.552  12.511
  912W        W73980  21.793  42.966   4.274
  913W        W73981  27.354  10.470  13.851
  914W        W73982   0.926   5.156  14.926
  915W        W73983   4.104  13.237  11.694
  916W        W73984   1.916  22.964  14.898
  917W        W73985   8.241   9.182   3.153
  918W        W73986  28.890  27.184  12.475
  919W        W73987   9.925  32.955   0.354
  920W        W73988  20.735  44.081  12.897
  921W        W73989  41.434  28.605   0.222
  922W        W73990  28.865   0.549  13.114
  923W        W73991   8.714  20.379  14.130
  924W        W73992  26.938  27.592  14.732
  925W        W73993  18.942  13.076  10.892
  926W        W73994  43.462  17.426  12.414
  927W        W73995  34.249  36.629  11.915
  928W        W73996  41.414  22.093   1.760
  929W        W73997  29.252  24.438   2.421
  930W        W73998  38.268   4.318  14.857
  931W        W73999  18.382  17.712  10.744
  932W        W74000   0.670  25.282  12.353
  933W        W74001  24.644  38.856  11.162
  934W        W74002  37.326  41.870  10.558
  935W        W74003   0.958  18.735   2.796
  936W        W74004  14.691  17.526  11.528
  937W        W74005   1.894  21.038   1.372
  938W        W74006  10.344  30.848   2.739
  939W        W74007   3.208  25.276   5.253
  940W        W74008  36.990  11.658  13.904
  941W        W74009  29.092  39.507  14.773
  942W        W74010  30.371  39.958  10.985
  943W        W74011  38.354  37.985  11.637
  944W        W74012  36.058  27.253  12.462
  945W        W74013  34.368  18.229  12.924
  946W        W74014   0.957  27.231  10.740
  947W        W74015  25.338   6.146  11.919
  948W        W74016  18.608   0.411   2.374
  949W        W74017  26.172  33.543  10.754
  950W        W74018  37.950  21.646   1.420
  951W        W74019   6.278  18.126  11.395
  952W        W74020  41.317  44.726  10.567
  953W        W74021   6.178  10.229   0.461
  954W        W74022  20.676  28.970  12.328
  955W        W74023  44.681  36.406   2.756
  956W        W74024  28.635  11.125   1.255
  957W        W74025   7.883  31.467   4.478
  958W        W74026   3.839  43.289   3.977
  959W        W74027  35.109  24.783  14.026
  960W        W74028  11.201  25.887   3.150
  961W        W74029  43.016  21.012   0.005
  962W        W74030  16.616  32.907  13.592
  963W        W74031  42.229   3.626  11.663
  964W        W74032   3.506   7.302  12.612
  965W        W74033  42.171  16.049   4.891
  966W        W74034  10.069   2.479   0.253
  967W        W74035  28.131   4.422   2.745
  968W        W74036  42.523  13.247   2.841
  969W        W74037  39.275  10.866  13.986
  970W        W74038  18.811  23.299   1.092
  971W        W74039  23.118  40.478   3.047
  972W        W74040  29.131  38.893  10.134
  973W        W74041  20.344  32.419  11.710
  974W        W74042  18.020  26.960   3.584
  975W        W74043  44.043  16.733  13.921
  976W        W74044  43.182  41.998  14.019
  977W        W74045  30.548  31.124  11.720
  978W        W74046   7.864  31.948   1.038
  979W        W74047  30.063  25.764  14.290
  980W        W74048  10.809  15.251  13.359
  981W        W74049  36.965  33.168  13.489
  982W        W74050   6.220  25.945  11.706
  983W        W74051   4.477   9.890  13.813
  984W        W74052  27.575  20.677   2.454
  985W        W74053  43.437   3.828  11.009
  986W        W74054   7.083  31.910   4.565
  987W        W74055  10.373  33.880  12.526
  988W        W74056  10.687   8.194   4.844
  989W        W74057  30.331  11.636   4.195
  990W        W74058   8.471   9.550  13.003
  991W        W74059  22.714  19.121   1.729
  992W        W74060  12.975  27.150   1.326
  993W        W74061  37.804  28.149   1.246
  994W        W74062  34.403  31.217   2.779
  995W        W74063   6.237  18.634   0.327
  996W        W74064   1.288   2.471  13.469
  997W        W74065  31.942  17.704   0.756
  998W        W74066  38.861  18.856   4.964
  999W        W74067  23.257  11.379   0.904
 1000W        W74068  30.088  18.099   2.877
 1001W        W74069  13.759  13.842   2.349
 1002W        W74070  26.523  18.318  13.005
 1003W        W74071  38.375  32.842  13.444
 1004W        W74072  32.613  24.592   0.805
 1005W        W74073  29.375  30.528   3.260
 1006W        W74074  43.039  23.001  13.960
 1007W        W74075   7.515  26.479   0.303
 1008W        W74076  36.108  40.221  12.055
 1009W        W74077  28.557  17.518  13.874
 1010W        W74078  36.215  42.497  13.823
 1011W        W74079   1.935  22.493   4.653
 1012W        W74080   2.373   7.912   1.870
 1013W        W74081  40.811  35.039  11.660
 1014W        W74082  34.536  12.076  14.469
 1015W        W74083  35.552  32.307   1.240
 1016W        W74084  33.968   4.968   2.335
 1017W        W74085  34.709  25.488   1.805
 1018W        W74086  36.691  31.939  10.637
 1019W        W74087  41.507  23.998   2.470
 1020W        W74088  24.276  21.338   4.819
 1021W        W74089  36.067   6.694   4.524
 1022W        W74090  31.535  12.706  13.269
 1023W        W74091   1.641  31.394  11.152
 1024W        W74092   6.168  14.045  11.147
 1025W        W74093   6.190  31.051   4.361
 1026W        W74094  34.009   2.082   3.607
 1027W        W74095  43.771  33.470   2.696
 1028W        W74096   3.426  39.878  13.920
 1029W        W74097  23.524  14.155  14.796
 1030W        W74098  38.279  32.036  14.760
 1031W        W74099   4.303  20.353   3.294
 1032W        W74100   5.823   8.840  10.612
 1033W        W74101   3.111   5.648  14.465
 1034W        W74102  41.490   1.867   0.915
 1035W        W74103  16.660  40.018   1.867
 1036W        W74104   0.040   7.359   1.839
 1037W        W74105  14.626  23.176   0.213
 1038W        W74106  38.618  29.869  10.538
 1039W        W74107  43.702  33.565   3.788
 1040W        W74108  11.288  17.810   1.754
 1041W        W74109  18.745   3.212  11.554
 1042W        W74110  37.341  30.957   3.000
 1043W        W74111  19.073  13.591   1.430
 1044W        W74112   7.214  25.079   1.445
 1045W        W74113   7.272  28.258   0.898
 1046W        W74114  16.590  40.459  10.761
 1047W        W74115   4.261  11.956  11.463
 1048W        W74116  38.946   0.900  10.538
 1049W        W74117  29.592  34.566  10.303
 1050W        W74118  12.274  34.542  13.596
 1051W        W74119   9.967  22.197  14.846
 1052W        W74120  41.865  17.716   2.249
 1053W        W74121   6.796  35.613  13.407
 1054W        W74122   0.968   1.305  13.976
 1055W        W74123  44.628   4.675  13.994
 1056W        W74124  12.594  19.056   0.911
 1057W        W74125  20.550  19.055  11.095
 1058W        W74126  35.179  31.405  12.157
 1059W        W74127  30.388  40.746  13.925
 1060W        W74128  17.563  10.184  14.565
 1061W        W74129  16.277   9.356  14.493
 1062W        W74130  17.177  11.141  10.763
 1063W        W74131  16.204  44.415  11.919
 1064W        W74132   5.997   8.623   4.794
 1065W        W74133  31.646   3.936  11.979
 1066W        W74134   8.885  44.826  12.404
 1067W        W74135  11.097  34.616   3.195
 1068W        W74136  34.318  23.180   0.958
 1069W        W74137  30.893   9.674  14.475
 1070W        W74138   0.849  44.896   4.375
 1071W        W74139  28.636  22.514   3.672
 1072W        W74140  15.211  31.958  14.786
 1073W        W74141   1.832  37.348  12.519
 1074W        W74142  10.145  38.909   5.098
 1075W        W74143  21.220  23.734  10.219
 1076W        W74144   1.706  12.887  11.894
 1077W        W74145  36.001   7.999  14.821
 1078W        W74146  38.945  22.740   2.122
 1079W        W74147  28.634   5.755  13.883
 1080W        W74148   2.018  20.652   0.767
 1081W        W74149  15.147  29.429  10.857
 1082W        W74150  33.952  38.755  14.053
 1083W        W74151  20.676  10.144  10.808
 1084W        W74152  26.080  26.522   4.083
 1085W        W74153  35.449  22.127  13.527
 1086W        W74154   8.336   7.169   1.529
 1087W        W74155   0.315  43.266   1.899
 1088W        W74156  40.408  10.346   1.521
 1089W        W74157   1.230  25.532   4.209
 1090W        W74158   1.985   1.761   1.831
 1091W        W74159  43.996   4.918   2.700
 1092W        W74160  41.271  21.244  11.573
 1093W        W74161  17.709  12.669  14.946
 1094W        W74162   9.419   1.993   1.573
 1095W        W74163  34.257  24.216  13.966
 1096W        W74164  42.083  26.378   2.749
 1097W        W74165   9.717  30.225  11.861
 1098W        W74166  36.465  11.719   2.152
 1099W        W74167  36.657  41.500  13.948
 1100W        W74168  30.483  19.822   0.311
 1101W        W74169   8.237  20.269   2.334
 1102W        W74170  28.163  37.125  12.408
 1103W        W74171  39.754  14.217   2.216
 1104W        W74172  43.245  13.590  14.466
 1105W        W74173  29.875  15.160  13.069
 1106W        W74174  31.645  17.212  14.483
 1107W        W74175  33.546  30.914  13.564
 1108W        W74176  37.809  34.103  13.353
 1109W        W74177   2.352  14.579  11.975
 1110W        W74178  21.399  16.083   1.620
 1111W        W74179   9.871   9.788   4.663
 1112W        W74180  18.233  29.689   4.159
 1113W        W74181  14.127  17.197  13.952
 1114W        W74182  39.836  21.768   3.611
 1115W        W74183  14.181  31.466  13.855
 1116W        W74184   2.275  24.966   3.765
 1117W        W74185  10.313  10.026  10.214
 1118W        W74186  18.037  31.664   3.378
 1119W        W74187  35.008  32.429   3.177
 1120W        W74188  33.408  11.830   1.912
 1121W        W74189   5.459  25.106   0.788
 1122W        W74190   3.943  36.185  14.700
 1123W        W74191  32.582  27.189   1.490
 1124W        W74192   5.355   3.318  10.815
 1125W        W74193  37.471   6.168   0.816
 1126W        W74194  20.820  33.391   0.404
 1127W        W74195  15.363  28.932   1.256
 1128W        W74196  24.046   9.884   0.925
 1129W        W74197  39.843  10.774   2.221
 1130W        W74198  12.201  42.252   3.727
 1131W        W74199  31.185  31.916   4.657
 1132W        W74200   2.631   9.296  13.085
 1133W        W74201  26.450  40.317  11.400
 1134W        W74202  42.759  41.717  13.814
 1135W        W74203   1.941  12.137   0.753
 1136W        W74204  24.689  19.697  12.498
 1137W        W74205  42.451   6.725  12.079
 1138W        W74206   8.215  20.056  14.003
 1139W        W74207  22.204  19.788   1.161
 1140W        W74208  26.716   6.337   0.404
 1141W        W74209  14.512  27.674   2.441
 1142W        W74210  36.399  14.170   4.631
 1143W        W74211   3.350  25.771   0.755
 1144W        W74212  31.555   1.711  13.609
 1145W        W74213   8.216  33.392   4.293
 1146W        W74214  11.128  17.702  14.443
 1147W        W74215  43.038  27.626  10.758
 1148W        W74216  27.682  16.972   2.381
 1149W        W74217  30.828  32.391   3.241
 1150W        W74218  10.122  13.910  10.393
 1151W        W74219   7.267  39.432   1.197
 1152W        W74220  30.304  20.977  12.906
 1153W        W74221  10.135   9.779   0.964
 1154W        W74222  34.993  15.784  11.537
 1155W        W74223   3.790   8.828   1.764
 1156W        W74224  44.754  37.362  14.413
 1157W        W74225  36.730  40.909   1.867
 1158W        W74226  18.620  23.000  11.670
 1159W        W74227   5.503  23.611  10.763
 1160W        W74228  32.534  39.483   3.053
 1161W        W74229  41.879  37.919  13.197
 1162W        W74230  21.704   8.023  12.923
 1163W        W74231  27.620  35.338  13.040
 1164W        W74232   6.620  11.616  14.891
 1165W        W74233  43.454  15.197  14.229
 1166W        W74234  25.422  31.944   2.717
 1167W        W74235  40.372  42.855   4.453
 1168W        W74236  15.576   7.394   2.000
 1169W        W74237  40.068  33.140  11.482
 1170W        W74238  26.955  14.583  12.009
 1171W        W74239  39.023   0.736   2.631
 1172W        W74240   5.805  32.328   4.195
 1173W        W74241  12.267  32.115  14.398
 1174W        W74242  18.465  34.952  11.474
 1175W        W74243   3.153   1.791   2.135
 1176W        W74244  12.190  29.937   4.452
 1177W        W74245  24.337   0.955  10.010
 1178W        W74246  22.010   3.813  11.699
 1179W        W74247   7.547  36.015  10.730
 1180W        W74248  37.452  32.117  11.064
 1181W        W74249   8.447  12.309  12.234
 1182W        W74250  14.777  36.137  10.546
 1183W        W74251  44.460  33.385   0.762
 1184W        W74252  41.747  12.247  14.750
 1185W        W74253   8.581  31.078   4.031
 1186W        W74254  20.579  20.664  14.806
 1187W        W74255   7.840  15.289  14.400
 1188W        W74256  44.946  35.850  13.161
 1189W        W74257  17.587  29.391  12.142
 1190W        W74258  22.463  30.560   3.166
 1191W        W74259  19.293   8.763  14.489
 1192W        W74260  34.079  24.143   3.307
 1193W        W74261  37.848   0.899  14.508
 1194W        W74262  39.075  20.513   1.302
 1195W        W74263   4.955  39.466  13.450
 1196W        W74264  26.050  23.670   1.008
 1197W        W74265  29.114   2.769   4.286
 1198W        W74266  41.847  22.815  12.891
 1199W        W74267   1.879   5.741   0.425
 1200W        W74268  44.936  42.603   1.764
 1201W        W74269  10.945  44.564  13.753
 1202W        W74270  17.341   9.272  13.916
 1203W        W74271  41.797  12.072  13.426
 1204W        W74272  41.376  23.320   4.668
 1205W        W74273  11.855  22.842   3.630
 1206W        W74274  30.378  11.842   0.781
 1207W        W74275  42.284  39.329  11.605
 1208W        W74276  35.465  28.243  11.997
 1209W        W74277   5.985  44.020   4.071
 1210W        W74278  33.398  36.192   2.432
 1211W        W74279  38.707  19.195   2.726
 1212W        W74280  36.413  19.618  13.913
 1213W        W74281   9.734  42.087  14.027
 1214W        W74282  36.086  33.000  12.629
 1215W        W74283  33.966  32.480   0.446
 1216W        W74284  39.422  22.776  13.897
 1217W        W74285  29.969   5.439  14.036
 1218W        W74286  29.753   4.364  12.682
 1219W        W74287  11.195  11.253   4.640
 1220W        W74288   0.282  40.538  11.678
 1221W        W74289   9.400  29.661  13.492
 1222W        W74290   9.694  40.325   1.136
 1223W        W74291  27.717   8.619   3.329
 1224W        W74292  31.601   3.444   3.348
 1225W        W74293  15.270  39.242  12.749
 1226W        W74294   9.077  30.973   0.112
 1227W        W74295  26.737   0.534  12.500
 1228W        W74296  15.137  18.201   3.274
 1229W        W74297  25.231  24.484   1.446
 1230W        W74298  25.967   7.720   1.316
 1231W        W74299   9.562  32.352  11.973
 1232W        W74300  31.219  38.413   3.393
 1233W        W74301  14.280  15.285  10.617
 1234W        W74302  34.041  20.988  11.678
 1235W        W74303  44.292  23.236  12.632
 1236W        W74304   8.440  17.309   0.644
 1237W        W74305  11.896  28.051  14.897
 1238W        W74306  27.664  29.664   3.185
 1239W        W74307   0.274  30.515   4.577
 1240W        W74308  40.637  23.809  12.008
 1241W        W74309  16.328  38.669  14.415
 1242W        W74310  38.136  16.390   2.732
 1243W        W74311  19.769  16.971  14.879
 1244W        W74312  30.754  21.975   3.519
 1245W        W74313  20.549  31.241   3.669
 1246W        W74314  33.129  12.267  12.402
 1247W        W74315  31.609  15.368   1.375
 1248W        W74316   9.394  27.317  12.106
 1249W        W74317  31.983  13.994   1.239
 1250W        W74318   4.791  10.598   0.430
 1251W        W74319  41.497  37.952  14.828
 1252W        W74320  42.344   0.721  11.786
 1253W        W74321  40.703  29.621  14.887
 1254W        W74322   9.192  36.036   5.034
 1255W        W74323  43.467  20.677   1.173
 1256W        W74324  24.626  43.244  11.211
 1257W        W74325  23.257  40.994  11.474
 1258W        W74326  42.075  32.995  10.787
 1259W        W74327  36.008  34.299   3.952
 1260W        W74328  29.377  22.104   4.704
 1261W        W74329  43.741  23.588   2.108
 1262W        W74330  31.468  41.251   3.457
 1263W        W74331  12.036   6.739   1.259
 1264W        W74332   6.958  34.247  11.573
 1265W        W74333  44.803  37.040  10.704
 1266W        W74334   7.657  30.998   4.426
 1267W        W74335   0.971  12.593  14.935
 1268W        W74336  19.333   1.228   0.147
 1269W        W74337  10.731  43.523  10.939
 1270W        W74338  31.036  38.471   4.319
 1271W        W74339  20.131   0.503  11.163
 1272W        W74340  24.131  32.749  13.408
 1273W        W74341  23.012  41.805   2.403
 1274W        W74342   3.240  18.916   0.464
 1275W        W74343   8.861  43.919   1.802
 1276W        W74344  29.047  38.613   0.759
 1277W        W74345  11.729  37.883   1.651
 1278W        W74346   2.981  17.654  11.466
 1279W        W74347  29.618  11.878  13.553
 1280W        W74348  32.016   0.225  14.888
 1281W        W74349  14.016  34.564   1.927
 1282W        W74350  34.099  30.303  13.311
 1283W        W74351   5.276  11.116  14.795
 1284W        W74352  17.079  38.489  13.956
 1285W        W74353  27.397  27.108   2.805
 1286W        W74354   4.278  28.134  10.751
 1287W        W74355  21.062  25.616   0.306
 1288W        W74356  40.356  39.824  13.331
 1289W        W74357  44.042  38.507  14.508
 1290W        W74358  17.677  43.988  14.387
 1291W        W74359  23.336  22.188   4.049
 1292W        W74360   5.498  36.583   1.030
 1293W        W74361   0.401  18.606   0.624
 1294W        W74362   1.490  34.470  11.147
 1295W        W74363  27.491  27.618   1.818
 1296W        W74364  18.790  31.894  12.494
 1297W        W74365  38.395   1.929  11.211
 1298W        W74366  17.168  12.727   0.699
 1299W        W74367  10.704  30.921   3.950
 1300W        W74368   3.820  34.618  13.853
 1301W        W74369  14.034  40.111  10.788
 1302W        W74370  10.733  15.027  11.644
 1303W        W74371  34.123  14.777  11.055
 1304W        W74372  23.157  34.967  13.618
 1305W        W74373  36.262  36.566   5.027
 1306W        W74374   5.350  42.957   3.553
 1307W        W74375  38.403  33.923  11.488
 1308W        W74376   8.350  22.441   2.911
 1309W        W74377  41.367  21.701   3.584
 1310W        W74378  29.521  25.508  10.826
 1311W        W74379  16.297  32.050  13.314
 1312W        W74380  23.561  21.574   1.726
 1313W        W74381   2.782  17.429  13.964
 1314W        W74382  25.659  33.460  13.803
 1315W        W74383  27.139   2.760   1.893
 1316W        W74384  23.729  13.654  13.420
 1317W        W74385   1.457  37.516   0.710
 1318W        W74386   2.521  34.466  11.017
 1319W        W74387  23.265  44.357   3.676
 1320W        W74388  30.010   6.383   1.325
 1321W        W74389  14.232  12.863   1.448
 1322W        W74390  10.681   6.895  14.531
 1323W        W74391  18.147  36.338   4.493
 1324W        W74392  30.986   8.905  14.355
 1325W        W74393   3.129  14.040   0.435
 1326W        W74394  33.094   5.924  10.719
 1327W        W74395  10.005  24.500  11.800
 1328W        W74396  29.105  44.202   3.303
 1329W        W74397  29.103   2.093   1.676
 1330W        W74398  13.341  29.923   0.892
 1331W        W74399  23.630  24.754  14.402
 1332W        W74400  29.612  44.882   3.358
 1333W        W74401  26.577  37.088  13.906
 1334W        W74402  29.378   3.416   1.345
 1335W        W74403  42.658  10.240  13.820
 1336W        W74404  29.472  40.909  12.983
 1337W        W74405  28.909  12.227  13.888
 1338W        W74406  17.177  21.810  13.832
 1339W        W74407   5.406   6.407  14.717
 1340W        W74408  27.867  33.892  10.639
 1341W        W74409  34.076  42.502   3.436
 1342W        W74410  44.840   3.734  11.724
 1343W        W74411   8.966   7.390  13.854
 1344W        W74412  34.585   4.680   4.168
 1345W        W74413  32.133  16.380  11.059
 1346W        W74414  20.545  35.558   2.772
 1347W        W74415  12.001   4.867  11.521
 1348W        W74416  32.613  13.821  13.795
 1349W        W74417   2.271  17.268   1.856
 1350W        W74418  27.246  31.462   1.134
 1351W        W74419  27.294   6.659   0.972
 1352W        W74420  20.786  33.467   4.017
 1353W        W74421   7.340  14.109  13.987
 1354W        W74422  19.886  23.166  13.721
 1355W        W74423  10.852   7.615   0.187
 1356W        W74424  17.498   3.529  13.864
 1357W        W74425  37.041  12.232   0.516
 1358W        W74426  35.188  12.320   3.284
 1359W        W74427  35.945   3.729   4.670
 1360W        W74428  20.510  29.660   3.831
 1361W        W74429   2.196  16.586  11.085
 1362W        W74430   6.033  29.066   2.856
 1363W        W74431   3.153  27.650  14.898
 1364W        W74432   9.219  35.909  11.837
 1365W        W74433  42.053  39.702   0.446
 1366W        W74434   8.706   1.927  13.313
 1367W        W74435  35.285  12.720  11.151
 1368W        W74436  26.081  42.383  14.435
 1369W        W74437   1.500   2.348   4.549
 1370W        W74438  27.461  40.738   3.684
 1371W        W74439   2.796  15.065  11.479
 1372W        W74440  37.294  42.440   3.762
 1373W        W74441  29.797  32.140  11.126
 1374W        W74442  36.599  26.603  12.345
 1375W        W74443  32.272   2.961   0.573
 1376W        W74444   1.861   2.151  12.353
 1377W        W74445  41.593  19.613  13.394
 1378W        W74446  24.180   7.890  12.671
 1379W        W74447  25.088  40.420   1.548
 1380W        W74448  29.594  40.570  12.574
 1381W        W74449  16.601  38.775   1.462
 1382W        W74450   1.385   8.424   1.427
 1383W        W74451  29.613   7.686  14.202
 1384W        W74452  35.911  43.807   3.727
 1385W        W74453  33.523  17.070   4.110
 1386W        W74454  30.376   2.257   1.161
 1387W        W74455  15.047  30.397   4.585
 1388W        W74456  16.308  17.850  14.962
 1389W        W74457  24.641   6.651  13.050
 1390W        W74458  27.671   1.061  10.719
 1391W        W74459   3.211  30.561  13.316
 1392W        W74460  28.955   3.679  12.922
 1393W        W74461  24.478  14.690   0.967
 1394W        W74462  32.910  10.184  13.441
 1395W        W74463  18.341   9.095  11.498
 1396W        W74464  41.931  16.276  13.464
 1397W        W74465  23.160   5.665  14.551
 1398W        W74466   3.776  13.286   4.194
 1399W        W74467  13.535   3.758  11.242
 1400W        W74468  22.757  35.864   0.697
 1401W        W74469  27.385  39.350   1.951
 1402W        W74470   3.548  34.935   3.256
 1403W        W74471  27.701  32.761   0.063
 1404W        W74472  26.668  20.539  14.899
 1405W        W74473  30.552  35.024   3.673
 1406W        W74474  21.138   8.037  10.800
 1407W        W74475  31.119  34.145   4.160
 1408W        W74476  10.662  11.340  10.845
 1409W        W74477   0.869  12.710  10.332
 1410W        W74478   5.232  11.768  12.460
 1411W        W74479   1.434  24.298   0.003
 1412W        W74480  17.361   1.947  11.232
 1413W        W74481  20.305  14.183   0.947
 1414W        W74482  24.668   8.618   3.608
 1415W        W74483  15.812  14.249  12.888
 1416W        W74484  18.050  28.862   2.905
 1417W        W74485  12.193  41.384   4.890
 1418W        W74486  33.879   3.458  13.391
 1419W        W74487   3.296  30.366   1.903
 1420W        W74488  34.063   9.381   3.202
 1421W        W74489   7.797  27.699  13.354
 1422W        W74490   2.368  34.886   0.487
 1423W        W74491  42.050   9.888   2.219
 1424W        W74492  10.166  18.731   0.272
 1425W        W74493  16.263  44.438  13.652
 1426W        W74494  36.616  14.046   3.798
 1427W        W74495  28.498  41.046  12.927
 1428W        W74496  15.772  29.869  11.114
 1429W        W74497   8.446  42.878   4.134
 1430W        W74498  15.894   6.401  14.956
 1431W        W74499  16.344  20.706   2.410
 1432W        W74500  32.997  36.528   1.968
 1433W        W74501  38.061  30.909  14.987
 1434W        W74502  18.354   3.526  11.069
 1435W        W74503  15.859  12.412  10.996
 1436W        W74504  19.686  41.708  10.670
 1437W        W74505  26.845   2.412   1.625
 1438W        W74506  35.523   1.892  11.208
 1439W        W74507  16.655   3.357  11.696
 1440W        W74508  20.647   2.701   2.273
 1441W        W74509   0.001  14.735   4.043
 1442W        W74510  41.767  16.046   3.443
 1443W        W74511  28.724  36.357   0.786
 1444W        W74512  16.637  26.732   1.850
 1445W        W74513   1.810  34.067  14.956
 1446W        W74514  31.047   5.380  14.222
 1447W        W74515  29.917  22.853  13.218
 1448W        W74516  13.209  42.354  14.793
 1449W        W74517  17.270  32.160  11.296
 1450W        W74518   9.245  31.608   1.101
 1451W        W74519  20.249  43.880   4.812
 1452W        W74520   3.497  13.629   0.632
 1453W        W74521  30.493  11.656   1.274
 1454W        W74522   3.820   8.258  12.518
 1455W        W74523   2.120  29.503  10.958
 1456W        W74524  42.164   5.517  12.322
 1457W        W74525   7.177  23.750  13.311
 1458W        W74526  24.231   4.351  10.508
 1459W        W74527  15.193   8.833  12.747
 1460W        W74528  40.001  35.850   3.152
 1461W        W74529  31.382  19.776   3.065
 1462W        W74530  18.083   1.559  11.693
 1463W        W74531  40.931  17.767  10.885
 1464W        W74532  31.591   7.446   2.390
 1465W        W74533  11.362  28.483   2.191
 1466W        W74534   3.991   3.266  11.991
 1467W        W74535  40.722  40.517  11.133
 1468W        W74536   7.862  39.503  14.942
 1469W        W74537  37.598  23.642  10.519
 1470W        W74538   8.244  29.840  14.800
 1471W        W74539   2.442   1.766   4.125
 1472W        W74540   9.838  36.346   1.280
 1473W        W74541  24.440  16.613  12.543
 1474W        W74542   0.840   9.172   3.122
 1475W        W74543  21.782  29.814   2.270
 1476W        W74544   0.918  32.689  14.365
 1477W        W74545   5.802  23.999  14.326
 1478W        W74546  33.962   8.093   2.775
 1479W        W74547  19.898  11.239   2.270
 1480W        W74548  20.049  24.546   0.992
 1481W        W74549   5.199  17.801  13.637
 1482W        W74550   3.172  31.447   0.404
 1483W        W74551  26.384   2.653  14.706
 1484W        W74552   4.700   2.239  12.516
 1485W        W74553  25.982   9.187   4.832
 1486W        W74554  36.642  41.019  11.252
 1487W        W74555  11.323  31.932   1.787
 1488W        W74556  30.922  36.610  14.877
 1489W        W74557  22.122  21.336   0.790
 1490W        W74558   6.517  33.977  10.433
 1491W        W74559  35.322  42.350  10.771
 1492W        W74560   9.896   4.293   4.812
 1493W        W74561  38.015  27.283   1.240
 1494W        W74562   3.816  30.553  14.623
 1495W        W74563   4.154  38.249   4.274
 1496W        W74564  36.727  28.512   3.602
 1497W        W74565  16.020  11.052  12.576
 1498W        W74566  35.634  43.262   4.131
 1499W        W74567  31.427  30.949  11.698
 1500W        W74568  39.825  43.105  11.228
 1501W        W74569   7.866  34.561  11.521
 1502W        W74570  23.374  15.767  13.063
 1503W        W74571  22.221  14.944   0.400
 1504W        W74572  27.612  25.646  12.039
 1505W        W74573  41.155   4.231  14.000
 1506W        W74574  10.184  20.963  14.466
 1507W        W74575  40.003  40.794  13.530
 1508W        W74576  26.005   9.140   4.281
 1509W        W74577  25.665   0.338   2.122
 1510W        W74578  42.977  40.353  13.573
 1511W        W74579  32.165  30.874   3.195
 1512W        W74580   5.217  33.448  11.297
 1513W        W74581  12.789  19.054  13.798
 1514W        W74582  38.574  22.294   1.219
 1515W        W74583   5.391   5.233   3.692
 1516W        W74584  12.393   6.448   3.116
 1517W        W74585  26.075  38.083   2.290
 1518W        W74586  14.625  19.202  13.539
 1519W        W74587  44.469  41.818  11.801
 1520W        W74588  10.886   5.932   1.039
 1521W        W74589  41.562  22.052  14.693
 1522W        W74590  14.138  30.415  13.918
 1523W        W74591  22.563  39.567  13.487
 1524W        W74592  25.922  14.594  14.774
 1525W        W74593   1.936  34.329  13.990
 1526W        W74594  44.101   1.287   0.537
 1527W        W74595  21.584  25.668   2.178
 1528W        W74596  27.157  35.309   1.511
 1529W        W74597  21.035  34.672   4.235
 1530W        W74598   4.203   6.211  11.106
 1531W        W74599  44.894  17.575   2.747
 1532W        W74600  27.958  26.026  13.131
 1533W        W74601  41.998  41.587  12.481
 1534W        W74602  32.137  26.466  13.879
 1535W        W74603  38.574  13.166  13.482
 1536W        W74604  38.523  17.032   0.966
 1537W        W74605  10.732  25.004  11.121
 1538W        W74606  42.840  39.693   3.545
 1539W        W74607  16.671  18.182  11.584
 1540W        W74608   2.322  15.948   1.186
 1541W        W74609  26.335  31.675  13.132
 1542W        W74610  24.682   0.893  13.053
 1543W        W74611  26.586  33.222  10.714
 1544W        W74612  29.907  33.065  11.222
 1545W        W74613  38.831  44.292  14.778
 1546W        W74614   6.776  40.944   0.256
 1547W        W74615  40.901  20.349   0.981
 1548W        W74616  25.582   1.564   0.917
 1549W        W74617  38.921  26.468   2.173
 1550W        W74618  12.601  42.452   3.013
 1551W        W74619  32.592   2.989   4.168
 1552W        W74620  38.457  21.701  10.754
 1553W        W74621  15.669  12.605   2.216
 1554W        W74622   6.796  11.876  14.486
 1555W        W74623   0.984  41.027   1.869
 1556W        W74624  33.767   5.792   0.131
 1557W        W74625   6.888  40.833   5.466
 1558W        W74626  38.095  23.234   2.321
 1559W        W74627  40.003  32.329   1.266
 1560W        W74628   3.712  32.894   4.358
 1561W        W74629  19.293  37.556  14.983
 1562W        W74630  24.712   7.428  13.404
 1563W        W74631  37.943  26.224  10.588
 1564W        W74632   5.314  41.287   1.481
 1565W        W74633  38.063  28.089  12.921
 1566W        W74634  17.490  16.343   3.748
 1567W        W74635  43.772  32.507  14.029
 1568W        W74636   1.447   6.794  14.033
 1569W        W74637  36.323  18.772   4.109
 1570W        W74638   1.903  11.406  13.480
 1571W        W74639  10.363  14.382   1.108
 1572W        W74640  26.725  32.548   0.689
 1573W        W74641  20.210  28.927  12.516
 1574W        W74642  37.150  32.946   0.863
 1575W        W74643  10.807  24.311   3.111
 1576W        W74644  20.844  36.498   1.808
 1577W        W74645  11.379  21.962  13.055
 1578W        W74646   2.970  33.012   0.424
 1579W        W74647   1.109  35.422  14.030
 1580W        W74648  12.605  41.817  12.801
 1581W        W74649  38.423  32.365   3.721
 1582W        W74650  24.464   7.390  14.854
 1583W        W74651  43.956  42.066   3.697
 1584W        W74652  28.944  39.019  13.902
 1585W        W74653   2.923   9.869   3.154
 1586W        W74654   8.277   3.417  13.437
 1587W        W74655  10.066  41.872   2.892
 1588W        W74656  35.545  30.565  12.166
 1589W        W74657  19.138  15.281   0.788
 1590W        W74658  15.689   2.583  12.773
 1591W        W74659  44.805  22.121   1.382
 1592W        W74660  19.765   3.869  13.452
 1593W        W74661   3.446  13.618   2.789
 1594W        W74662   6.679  13.200   2.426
 1595W        W74663   7.036  35.529   2.407
 1596W        W74664  23.881   0.524  13.016
 1597W        W74665  29.035  20.096  13.340
 1598W        W74666  35.080  22.665  11.962
 1599W        W74667  26.437  26.025   1.368
 1600W        W74668  32.454  12.174  10.727
 1601W        W74669   6.623  13.759   4.805
 1602W        W74670  40.833   9.682   1.950
 1603W        W74671   2.823  13.099   3.190
 1604W        W74672  17.628  23.917  13.368
 1605W        W74673  20.274  32.860   0.836
 1606W        W74674  33.640  35.399  13.536
 1607W        W74675  13.165  36.889  12.486
 1608W        W74676   2.366  25.645  14.213
 1609W        W74677  16.935   7.722  10.996
 1610W        W74678   2.771  26.146   3.247
 1611W        W74679  23.979  37.921   1.659
 1612W        W74680   0.903   1.667   0.352
 1613W        W74681  34.845  34.536  13.443
 1614W        W74682  27.644   1.389  11.133
 1615W        W74683  13.214  34.353   3.652
 1616W        W74684  37.042  36.058   1.469
 1617W        W74685  28.056  39.567   2.998
 1618W        W74686   8.683  17.159  11.027
 1619W        W74687  27.048  35.814   1.358
 1620W        W74688  19.225  30.093  10.997
 1621W        W74689   8.906   2.435   4.878
 1622W        W74690  25.500  27.133  10.714
 1623W        W74691  19.351  33.142  13.034
 1624W        W74692  28.825  18.780   4.590
 1625W        W74693  11.651  14.796   0.898
 1626W        W74694  17.775  23.090  12.762
 1627W        W74695  15.572  11.174  12.050
 1628W        W74696  39.237  15.060  12.521
 1629W        W74697  29.898  38.079  14.749
 1630W        W74698   4.326  43.867   4.404
 1631W        W74699  36.312  24.729   2.262
 1632W        W74700   8.667  16.254  14.008
 1633W        W74701  26.140  23.849  10.583
 1634W        W74702  37.420  20.159   2.115
 1635W        W74703  12.686   5.861   1.059
 1636W        W74704  30.206  25.988  11.953
 1637W        W74705   5.710  28.715   2.344
 1638W        W74706   0.474  25.602  14.698
 1639W        W74707  16.957   2.647   0.935
 1640W        W74708  37.439  32.978  13.597
 1641W        W74709  27.391  44.742   0.815
 1642W        W74710   5.807  32.011   1.284
 1643W        W74711  23.089  14.863   0.343
 1644W        W74712  35.440  43.605  11.990
 1645W        W74713  42.442  43.499  11.320
 1646W        W74714   1.268  17.622  11.109
 1647W        W74715  35.095  39.007  11.927
 1648W        W74716  15.600   9.547   3.051
 1649W        W74717  34.455  17.208   3.861
 1650W        W74718  30.048  21.000   1.353
 1651W        W74719   9.183  23.791   3.866
 1652W        W74720  14.323  31.639  10.245
 1653W        W74721  14.768  40.994   1.900
 1654W        W74722  21.966   4.893  11.560
 1655W        W74723  19.269   1.869  12.462
 1656W        W74724  34.456   8.316   2.655
 1657W        W74725  15.807  11.269   2.622
 1658W        W74726   6.800  14.236   3.948
 1659W        W74727  39.905   0.204  11.291
 1660W        W74728  37.436  29.525   3.003
 1661W        W74729   9.073  15.204  12.394
 1662W        W74730   0.854  34.934  12.165
 1663W        W74731  10.163  27.461  13.306
 1664W        W74732   2.224  18.274  11.636
 1665W        W74733  39.036  31.347   4.012
 1666W        W74734  18.080  33.974  10.408
 1667W        W74735  19.517  27.927  13.201
 1668W        W74736  44.964  19.568   0.802
 1669W        W74737   8.093   2.886  14.402
 1670W        W74738  15.790  17.701   2.741
 1671W        W74739  23.640   2.783   3.285
 1672W        W74740   0.938  23.766   1.462
 1673W        W74741  29.435   2.955   3.912
 1674W        W74742  30.008   0.312   1.977
 1675W        W74743  44.900  36.157   1.022
 1676W        W74744  23.099   7.876  10.808
 1677W        W74745  44.550  20.188  12.534
 1678W        W74746  32.158  29.974   3.875
 1679W        W74747  14.099   3.277   4.694
 1680W        W74748  26.734  21.714  13.820
 1681W        W74749  13.106  36.274  12.081
 1682W        W74750  14.546  19.695   0.718
 1683W        W74751   0.482  22.207  11.000
 1684W        W74752  11.769  22.713   4.111
 1685W        W74753  40.757  15.923   5.439
 1686W        W74754  37.344  14.807  12.514
 1687W        W74755  20.135  32.876  11.718
 1688W        W74756  40.019  26.131  11.198
 1689W        W74757   0.146   3.432  14.375
 1690W        W74758   9.252   8.291   3.197
 1691W        W74759  38.838  37.412   4.576
 1692W        W74760  26.293  25.350  10.560
 1693W        W74761  44.248  17.700   0.223
 1694W        W74762   6.387  40.871   1.342
 1695W        W74763  22.819  14.181  13.060
 1696W        W74764  16.889  19.169  11.656
 1697W        W74765  42.667  28.607  14.559
 1698W        W74766  38.109   0.787   0.520
 1699W        W74767  26.589  37.798   3.204
 1700W        W74768  31.066   0.881   2.966
 1701W        W74769  41.996   1.870  11.640
 1702W        W74770  37.627  29.900   2.189
 1703W        W74771  20.660  17.639  12.872
 1704W        W74772   8.585   4.914   4.050
 1705W        W74773  27.955  25.908  11.572
 1706W        W74774  27.508  17.296   2.760
 1707W        W74775  25.961  42.340   4.379
 1708W        W74776  22.949  35.117   0.074
 1709W        W74777  16.643  30.023   4.670
 1710W        W74778   4.024  18.625  12.863
 1711W        W74779  37.798   8.706  14.461
 1712W        W74780   9.747  29.775   3.358
 1713W        W74781  26.256   5.246  14.023
 1714W        W74782  11.766  20.521  14.812
 1715W        W74783   5.989  26.736   3.243
 1716W        W74784  35.307  36.542  12.154
 1717W        W74785  33.550  33.065   3.907
 1718W        W74786   9.713  19.592  13.907
 1719W        W74787   3.121  21.568   0.428
 1720W        W74788  11.244  29.442   3.229
 1721W        W74789  11.801  39.438   3.594
 1722W        W74790   0.003  37.917  10.979
 1723W        W74791  33.631   7.903  10.937
 1724W        W74792  36.370   0.906   0.034
 1725W        W74793  39.410  35.081  13.691
 1726W        W74794  16.236   7.118   4.151
 1727W        W74795  34.863  29.401  13.449
 1728W        W74796  40.264  33.376   0.800
 1729W        W74797  30.982   7.733  14.254
 1730W        W74798  28.073  28.282  11.699
 1731W        W74799   6.513   3.162  14.236
 1732W        W74800  37.886  30.383  11.943
 1733W        W74801  31.920  23.687   4.458
 1734W        W74802  21.983   4.206   2.655
 1735W        W74803  42.781  43.887  12.722
 1736W        W74804  16.993  35.478   1.381
 1737W        W74805  34.845  13.799   0.455
 1738W        W74806  29.970  37.826   0.514
 1739W        W74807  35.924  16.228  13.362
 1740W        W74808  18.374  21.997  12.549
 1741W        W74809   0.844   1.409   2.166
 1742W        W74810   7.937  33.293   1.047
 1743W        W74811   6.652  24.992  14.535
 1744W        W74812  13.269   1.439  13.132
 1745W        W74813  20.689   5.036   0.996
 1746W        W74814  16.819  44.475  12.431
 1747W        W74815  31.612  14.963  13.772
 1748W        W74816   7.912  18.306   0.890
 1749W        W74817  36.331  15.700  12.088
 1750W        W74818  28.252  24.523   0.307
 1751W        W74819  41.030  13.882   5.138
 1752W        W74820  22.093  37.096  12.897
 1753W        W74821   8.493  30.427   4.605
 1754W        W74822  41.880  38.660   3.814
 1755W        W74823   9.880  42.948   0.515
 1756W        W74824  29.988  15.203  14.387
 1757W        W74825  28.888   6.431  12.350
 1758W        W74826  10.277  42.265  11.415
 1759W        W74827  15.747   8.232   0.529
 1760W        W74828  16.180  32.167   4.774
 1761W        W74829  20.599  44.768  11.170
 1762W        W74830  20.701  17.196  13.867
 1763W        W74831  43.410  24.396  11.512
 1764W        W74832   9.352  23.517  13.292
 1765W        W74833  17.155   1.367   3.255
 1766W        W74834  21.028  21.155   3.181
 1767W        W74835  31.059  11.138   3.768
 1768W        W74836  29.371  28.126   1.346
 1769W        W74837  41.746   0.294   2.334
 1770W        W74838  27.407   4.749  14.272
 1771W        W74839  35.865  39.127   0.466
 1772W        W74840   0.007  16.511   0.050
 1773W        W74841  39.774  40.972   4.812
 1774W        W74842  34.343  13.421  11.998
 1775W        W74843  15.023  33.539   0.950
 1776W        W74844  43.207   7.357  14.399
 1777W        W74845  43.281   5.395   0.023
 1778W        W74846  12.734  22.674  10.889
 1779W        W74847  31.856  38.589  11.524
 1780W        W74848   7.954  40.737  14.324
 1781W        W74849  13.951  43.848  12.847
 1782W        W74850  28.752  22.155  14.795
 1783W        W74851  25.135   5.905  14.792
 1784W        W74852  22.674   4.635   3.575
 1785W        W74853  33.603  15.344   3.739
 1786W        W74854  26.682  25.712   1.027
 1787W        W74855   6.672  22.315   4.010
 1788W        W74856   4.218  43.314   0.845
 1789W        W74857  27.208   1.565  13.784
 1790W        W74858  34.894  38.722   0.437
 1791W        W74859  18.174  16.996   4.303
 1792W        W74860   4.409  15.228  12.096
 1793W        W74861  44.724   2.189   4.133
 1794W        W74862  26.120  36.409  11.957
 1795W        W74863  11.753  41.070   0.114
 1796W        W74864  26.485   5.784  14.345
 1797W        W74865   2.208  44.941   4.109
 1798W        W74866  17.767  15.066  13.800
 1799W        W74867  23.431  29.909   0.015
 1800W        W74868   2.312  17.346  12.600
 1801W        W74869  39.127   7.323  14.400
 1802W        W74870  17.158  30.852  11.569
 1803W        W74871  16.739   2.771   1.394
 1804W        W74872  28.872   1.787   4.155
 1805W        W74873  34.158  39.775  12.492
 1806W        W74874  28.055  20.717   0.506
 1807W        W74875   7.354  17.327  11.298
 1808W        W74876  39.057  21.755  10.170
 1809W        W74877  39.088  37.257   5.013
 1810W        W74878  35.886  19.602   1.809
 1811W        W74879  27.310  31.140   1.980
 1812W        W74880   1.752  24.130  10.832
 1813W        W74881   1.909  27.743   1.874
 1814W        W74882   8.096  10.331   3.671
 1815W        W74883  21.732  39.047   0.351
 1816W        W74884  21.946  18.967  12.377
 1817W        W74885  34.478  14.026  11.580
 1818W        W74886  34.969  36.935   3.400
 1819W        W74887  42.107  37.165   3.666
 1820W        W74888  25.706  42.437  13.467
 1821W        W74889  21.114  42.488   1.201
 1822W        W74890  19.409  28.982  12.413
 1823W        W74891   7.752  44.390   1.722
 1824W        W74892  32.506  18.512  13.260
 1825W        W74893  14.024  17.353  11.066
 1826W        W74894  16.250   2.004   4.585
 1827W        W74895  21.600  12.959  12.032
 1828W        W74896  11.011  22.195  14.527
 1829W        W74897  39.902  38.777  14.054
 1830W        W74898  37.970   9.884  10.540
 1831W        W74899  21.761  31.013  13.825
 1832W        W74900  39.487  33.882   1.689
 1833W        W74901  38.142  29.226  10.265
 1834W        W74902   6.285  41.500   3.618
 1835W        W74903   0.679  32.568  10.956
 1836W        W74904  22.903  15.080   2.268
 1837W        W74905  36.969  21.897  13.087
 1838W        W74906  13.141  11.180  11.534
 1839W        W74907  34.549  11.824   0.266
 1840W        W74908  20.629  33.381  10.239
 1841W        W74909  38.029  37.958   1.885
 1842W        W74910  13.772  24.430  11.496
 1843W        W74911   0.970   4.776   1.818
 1844W        W74912  23.642  44.341  14.466
 1845W        W74913   8.283   6.236  10.519
 1846W        W74914  10.334   9.569  11.135
 1847W        W74915  24.507   9.123  13.819
 1848W        W74916  15.726  28.126  14.408
 1849W        W74917   7.786   2.379   2.988
 1850W        W74918   7.908  30.110   2.959
 1851W        W74919  10.487  14.515  13.053
 1852W        W74920  36.913  19.535  14.076
 1853W        W74921  38.892  32.655  12.583
 1854W        W74922  42.754  43.123  11.002
 1855W        W74923  23.397  31.490  11.090
 1856W        W74924  24.214   2.314  14.942
 1857W        W74925  19.161  25.037   2.832
 1858W        W74926  12.920  23.621   0.980
 1859W        W74927  13.301   3.762  13.032
 1860W        W74928   8.817  23.222  11.648
 1861W        W74929  25.559  34.051   1.134
 1862W        W74930   4.175  38.393  13.972
 1863W        W74931  43.942  28.559   4.114
 1864W        W74932  13.666   0.055  14.443
 1865W        W74933   5.884  10.231  10.089
 1866W        W74934  31.406  34.868  12.573
 1867W        W74935   1.764  16.589  11.381
 1868W        W74936  16.870  32.556  14.861
 1869W        W74937  24.142  16.171   4.801
 1870W        W74938  36.848  22.087   3.175
 1871W        W74939  37.805  26.046  12.463
 1872W        W74940  23.846  32.032  10.758
 1873W        W74941  23.987   3.595   4.359
 1874W        W74942  37.149  25.196  11.550
 1875W        W74943  31.406   5.732   2.436
 1876W        W74944   4.226  40.819   0.270
 1877W        W74945  42.847  11.061  10.924
 1878W        W74946  29.200  32.360  13.359
 1879W        W74947  32.589   8.179   2.259
 1880W        W74948  14.617   5.707   4.205
 1881W        W74949  14.857   1.742  14.802
 1882W        W74950  28.979  14.697   2.125
 1883W        W74951  40.632  16.224   0.734
 1884W        W74952  29.576  36.532   2.893
 1885W        W74953  40.578  44.215   0.040
 1886W        W74954  37.417  32.180   3.250
 1887W        W74955  25.147  29.951  11.570
 1888W        W74956  24.085  30.158   2.737
 1889W        W74957  34.908   3.789  13.032
 1890W        W74958  43.255  38.282   1.801
 1891W        W74959  27.956   0.220   4.331
 1892W        W74960  34.523  23.414  12.075
 1893W        W74961  22.463   9.880   0.330
 1894W        W74962  11.625  31.872   4.874
 1895W        W74963  33.476   7.445   4.110
 1896W        W74964   4.233  44.421   3.096
 1897W        W74965   5.420   9.740  10.559
 1898W        W74966  21.562  37.008   4.143
 1899W        W74967  40.399   4.840  11.786
 1900W        W74968   4.700  25.930  11.934
 1901W        W74969   3.211   2.835   3.861
 1902W        W74970  13.585   0.219   0.001
 1903W        W74971  25.899  19.220  11.965
 1904W        W74972   3.946  28.123  13.530
 1905W        W74973  36.447  33.422   2.905
 1906W        W74974  21.396  35.790   3.799
 1907W        W74975  27.477  12.158   2.239
 1908W        W74976  37.403   9.824   3.183
 1909W        W74977  22.266  35.538  11.970
 1910W        W74978   9.949  25.966   1.013
 1911W        W74979   3.341  42.503   4.089
 1912W        W74980  34.425  29.161  13.370
 1913W        W74981   7.129   9.356  10.787
 1914W        W74982  12.326  11.293   4.197
 1915W        W74983  36.068  25.376  10.414
 1916W        W74984  35.933  11.596  13.970
 1917W        W74985   1.222  43.945   1.724
 1918W        W74986  11.120  23.221  13.479
 1919W        W74987   1.940   8.444  11.031
 1920W        W74988  23.604  39.857   4.388
 1921W        W74989  37.213  22.283  10.608
 1922W        W74990  15.054  10.314   0.992
 1923W        W74991  35.406  31.655  12.630
 1924W        W74992  11.218  12.256  12.035
 1925W        W74993   3.182  31.451   2.677
 1926W        W74994  14.388  41.087   0.969
 1927W        W74995  31.831  12.831  11.118
 1928W        W74996  11.408  17.236  14.294
 1929W        W74997  23.062  34.981  13.100
 1930W        W74998  29.418   9.637   1.848
 1931W        W74999  10.214  35.937  11.557
 1932W        W75000  24.309  17.585   2.386
 1933W        W75001  18.024  27.021  11.214
 1934W        W75002  44.235   4.994  10.822
 1935W        W75003  26.861  27.338   1.738
 1936W        W75004  32.451   6.861  12.442
 1937W        W75005  10.940  14.075  12.411
 1938W        W75006  34.643   0.957   1.451
 1939W        W75007  36.343  42.235  13.389
 1940W        W75008  22.044  31.736  12.868
 1941W        W75009   3.684  43.345   0.951
 1942W        W75010  31.970  14.867   4.405
 1943W        W75011  14.821  22.411  11.160
 1944W        W75012  23.141   0.190  12.863
 1945W        W75013  39.707   3.487  14.341
 1946W        W75014   9.892  23.414   4.564
 1947W        W75015  10.541   5.831  12.341
 1948W        W75016   0.040  36.598   2.357
 1949W        W75017  12.613   9.396   3.329
 1950W        W75018  25.507  32.711  12.541
 1951W        W75019  27.448  23.023  12.549
 1952W        W75020  23.767  10.195  14.135
 1953W        W75021  25.855  32.184  13.553
 1954W        W75022  26.678  37.921   3.708
 1955W        W75023  29.303   0.986   0.398
 1956W        W75024  15.790  36.538  14.829
 1957W        W75025  43.808   0.289  14.506
 1958W        W75026  19.246  26.629  13.446
 1959W        W75027  18.124  14.332  14.848
 1960W        W75028  34.388  21.838   2.269
 1961W        W75029   2.449  37.065  12.953
 1962W        W75030  27.584  11.178   2.167
 1963W        W75031  26.420  34.848  14.370
 1964W        W75032  10.149  15.548   2.621
 1965W        W75033  24.072  23.795   4.832
 1966W        W75034   2.896   8.518   4.692
 1967W        W75035  37.771  13.147  10.819
 1968W        W75036  44.914  21.379   2.096
 1969W        W75037  39.432  11.311  13.786
 1970W        W75038  21.139  38.785  13.976
 1971W        W75039  26.530  32.999   0.911
 1972W        W75040  29.457  43.899   3.047
 1973W        W75041  14.112  14.609  12.853
 1974W        W75042  23.882   9.738  12.043
 1975W        W75043  31.573  25.285   1.938
 1976W        W75044  33.895  33.516  13.554
 1977W        W75045  12.226  36.867  11.026
 1978W        W75046  17.084  11.752   1.723
 1979W        W75047  11.149  32.803   3.801
 1980W        W75048   9.890  19.160  10.205
 1981W        W75049  23.288   1.179   0.015
 1982W        W75050  37.545  11.265  10.528
 1983W        W75051   9.247  32.896   5.027
 1984W        W75052  16.273  17.559  10.660
 1985W        W75053   8.895  43.123   5.016
 1986W        W75054  21.657  34.100  13.530
 1987W        W75055  30.583  14.827  14.680
 1988W        W75056  41.010   5.189   1.236
 1989W        W75057  32.510   1.892  13.721
 1990W        W75058  42.589  11.144   2.270
 1991W        W75059  33.328  25.524  12.767
 1992W        W75060  24.790  43.429  12.877
 1993W        W75061  32.111  20.308  13.700
 1994W        W75062  38.136  26.940   4.590
 1995W        W75063  35.023   9.041   4.887
 1996W        W75064  30.652   8.151  14.006
 1997W        W75065  26.632  11.327  12.899
 1998W        W75066  43.950  39.088   3.231
 1999W        W75067   8.138  13.620   0.363
 2000W        W75068  13.238  42.484   4.605
 2001W        W75069  14.076   8.049  12.023
 2002W        W75070   8.693   8.428  10.819
 2003W        W75071   3.890   1.054  11.201
 2004W        W75072  14.595  37.390   5.186
 2005W        W75073   2.251  17.249  13.935
 2006W        W75074  23.300  27.408   2.552
 2007W        W75075   6.235  10.393   1.309
 2008W        W75076  24.245  37.904  14.403
 2009W        W75077   3.996  21.088  11.188
 2010W        W75078   4.997   2.967   4.141
 2011W        W75079  34.383   1.683  14.903
 2012W        W75080  41.935  19.077   4.019
 2013W        W75081  12.609   3.569  12.478
 2014W        W75082  25.921  24.624  14.852
 2015W        W75083  42.432   0.023   2.896
 2016W        W75084  36.488   7.462   2.746
 2017W        W75085   2.216   0.649   3.286
 2018W        W75086   4.851  11.358   1.877
 2019W        W75087   6.342  21.307  13.870
 2020W        W75088  23.214  15.003  12.573
 2021W        W75089   0.116  20.904  10.105
 2022W        W75090  22.547  39.629   1.890
 2023W        W75091  11.140   1.815  14.411
 2024W        W75092  30.380  35.842  12.235
 2025W        W75093  37.040  40.746  13.476
 2026W        W75094  13.882  36.477  14.057
 2027W        W75095   5.339  13.186  10.771
 2028W        W75096   7.015   3.030  11.646
 2029W        W75097  39.239  40.856  13.802
 2030W        W75098  23.731  27.124   0.943
 2031W        W75099  40.067  17.404   0.281
 2032W        W75100  14.264  11.905  13.999
 2033W        W75101  32.981  11.992   4.312
 2034W        W75102   7.229   9.706  14.877
 2035W        W75103  21.048   6.724   1.845
 2036W        W75104  16.039  29.098  10.624
 2037W        W75105   9.680  38.035  12.900
 2038W        W75106  24.085  23.619   3.845
 2039W        W75107  39.999   7.154  11.061
 2040W        W75108  31.928   7.308  10.875
 2041W        W75109   7.404   8.781  10.868
 2042W        W75110  17.137  20.477   1.531
 2043W        W75111  18.067  20.391   1.943
 2044W        W75112  25.193  30.439  13.901
 2045W        W75113  16.139  40.758   4.144
 2046W        W75114  36.129  39.051   3.163
 2047W        W75115  34.224  12.861   4.997
 2048W        W75116  11.843  32.407  11.681
 2049W        W75117  35.464  34.662   0.843
 2050W        W75118   3.802  35.967   0.698
 2051W        W75119  40.800  18.835  13.443
 2052W        W75120  15.547  40.595  12.591
 2053W        W75121  32.387  23.594  12.415
 2054W        W75122  17.892  39.488  12.027
 2055W        W75123   5.145   0.117   0.640
 2056W        W75124  32.012  44.593   0.424
 2057W        W75125  12.887  17.030   1.312
 2058W        W75126   0.718  30.511  13.737
 2059W        W75127  33.869  28.792  14.488
 2060W        W75128  10.304  32.651   2.402
 2061W        W75129  16.751  11.182  13.529
 2062W        W75130  19.121  18.591  10.799
 2063W        W75131  22.459  26.325  10.176
 2064W        W75132  32.148  39.942   2.397
 2065W        W75133  43.982  12.646   3.165
 2066W        W75134  43.144  43.908  11.293
 2067W        W75135  30.150  21.253   4.191
 2068W        W75136  12.243  22.459   2.773
 2069W        W75137  42.000  30.714  14.739
 2070W        W75138  14.858  14.082  14.787
 2071W        W75139  23.204   8.301  14.485
 2072W        W75140  33.979  23.507  13.085
 2073W        W75141   5.312  42.663  11.648
 2074W        W75142  35.853  11.633   0.377
 2075W        W75143  44.577   2.466  12.875
 2076W        W75144  20.537   0.566  14.970
 2077W        W75145   0.757  33.144   3.460
 2078W        W75146  35.688  37.008   2.150
 2079W        W75147   7.684  37.556   4.946
 2080W        W75148  42.265  24.005  13.936
 2081W        W75149  31.676  39.554  14.798
 2082W        W75150  34.622  22.262   3.597
 2083W        W75151   5.030  25.012  10.186
 2084W        W75152  40.935  30.977   0.511
 2085W        W75153  38.182  18.195   4.761
 2086W        W75154  29.705  37.832  11.110
 2087W        W75155  33.348  38.979  11.470
 2088W        W75156  14.694  38.014  13.018
 2089W        W75157  24.396   4.335   2.285
 2090W        W75158   8.193  26.333   3.646
 2091W        W75159  26.964  40.970   3.665
 2092W        W75160  14.890  30.387   3.292
 2093W        W75161   2.326   2.282  13.024
 2094W        W75162  40.828  16.051   4.950
 2095W        W75163  30.964  25.647   0.239
 2096W        W75164  26.677  32.372   4.146
 2097W        W75165  27.634  39.054  14.563
 2098W        W75166  42.914  29.580   4.954
 2099W        W75167   2.824  29.251   2.000
 2100W        W75168  12.264  32.318  12.616
 2101W        W75169   0.467   0.873  12.770
 2102W        W75170  34.384   1.242   4.968
 2103W        W75171  39.926  17.641  13.774
 2104W        W75172  11.805  11.101   1.409
 2105W        W75173  34.850  20.305  14.457
 2106W        W75174  11.774  28.660   3.344
 2107W        W75175  44.508  42.910  12.525
 2108W        W75176  22.720  37.266  14.295
 2109W        W75177  29.926  26.760  14.496
 2110W        W75178  14.817  33.999   0.913
 2111W        W75179  26.239   8.918   3.448
 2112W        W75180  38.845  21.722   3.760
 2113W        W75181  16.687  24.014  13.731
 2114W        W75182  37.988  16.077  14.620
 2115W        W75183  23.219   6.959  12.971
 2116W        W75184  38.996  10.709  11.068
 2117W        W75185  12.114  13.200   2.726
 2118W        W75186  38.072  43.363  10.567
 2119W        W75187  16.225  37.412  13.849
 2120W        W75188  22.774  24.099   5.299
 2121W        W75189  15.306  10.379  11.373
 2122W        W75190  44.410  32.452   2.218
 2123W        W75191  33.337  21.052   0.790
 2124W        W75192   1.482  20.294  12.507
 2125W        W75193   7.474   7.906  13.943
 2126W        W75194  41.229  37.618   5.035
 2127W        W75195  24.134  25.050  13.355
 2128W        W75196  38.911  42.505   1.752
 2129W        W75197  35.010  20.240  13.539
 2130W        W75198  14.201   6.775   4.677
 2131W        W75199  10.228  19.301   1.845
 2132W        W75200  15.535  23.540  14.825
 2133W        W75201  18.632  35.498   3.595
 2134W        W75202  10.359   4.340   4.570
 2135W        W75203  40.503  39.276  13.452
 2136W        W75204  41.227  41.678   3.283
 2137W        W75205  19.969   1.443  10.927
 2138W        W75206   6.496  23.219   3.895
 2139W        W75207  32.199  18.203   4.766
 2140W        W75208  35.049  37.646   1.259
 2141W        W75209  32.999   4.749  10.959
 2142W        W75210  29.166  25.171  13.319
 2143W        W75211   0.236  10.215  11.136
 2144W        W75212  39.378  34.485   2.912
 2145W        W75213   8.599   8.487  13.049
 2146W        W75214  16.946  11.760   1.213
 2147W        W75215  43.919   5.974   0.228
 2148W        W75216  12.243   5.829   0.320
 2149W        W75217  18.223  12.380  11.830
 2150W        W75218  40.379   0.540   1.246
 2151W        W75219  31.106   7.141   2.574
 2152W        W75220  43.374  10.175  12.927
 2153W        W75221   2.093  43.114  13.513
 2154W        W75222  15.212   6.459  11.576
 2155W        W75223   7.867  12.168   3.662
 2156W        W75224  15.671  16.056  11.569
 2157W        W75225  14.840  27.303   3.163
 2158W        W75226   9.690  24.975   1.188
 2159W        W75227  20.691  27.576  12.937
 2160W        W75228  20.270   1.898   1.805
 2161W        W75229   6.889  18.240   2.481
 2162W        W75230  17.246  31.665  11.203
 2163W        W75231  43.274   9.591   1.810
 2164W        W75232  41.017  29.474   2.192
 2165W        W75233   9.085   7.732  12.453
 2166W        W75234  25.975   4.048  14.959
 2167W        W75235  23.040  23.750  10.944
 2168W        W75236  14.661  21.598  11.741
 2169W        W75237  12.218   6.247   2.677
 2170W        W75238  36.391  11.315   2.892
 2171W        W75239  21.054  35.435   0.845
 2172W        W75240   6.182  28.952   4.586
 2173W        W75241   8.630  22.115  14.494
 2174W        W75242  13.293  27.590  13.295
 2175W        W75243  29.612  32.583  10.859
 2176W        W75244  37.937  32.024   0.994
 2177W        W75245  38.324  44.188   4.037
 2178W        W75246   3.349   6.854  13.877
 2179W        W75247  18.686  33.714  11.961
 2180W        W75248  23.214  42.950   0.882
 2181W        W75249  25.985  37.362  11.981
 2182W        W75250  28.389  40.248  10.679
 2183W        W75251   6.274   0.965  11.601
 2184W        W75252  43.904  38.229   3.779
 2185W        W75253  34.381  15.000   1.323
 2186W        W75254  16.639  36.355   3.181
 2187W        W75255   9.839  28.112  11.929
 2188W        W75256  16.457  11.643   1.098
 2189W        W75257   9.665  44.007   4.122
 2190W        W75258  32.792  26.276  12.991
 2191W        W75259  37.476  35.952   1.744
 2192W        W75260  37.102  11.236   4.098
 2193W        W75261  44.331  27.644   4.905
 2194W        W75262  20.727  25.518  13.564
 2195W        W75263   1.027   7.955   0.197
 2196W        W75264   4.695   0.236  10.948
 2197W        W75265  23.071  21.695   4.074
 2198W        W75266  24.064  11.616  14.547
 2199W        W75267  16.959   8.330  13.077
 2200W        W75268  43.782  37.767   4.711
 2201W        W75269   5.186   7.634  11.600
 2202W        W75270  39.960  26.132   0.930
 2203W        W75271   2.737  43.876   1.438
 2204W        W75272  13.002  23.346  12.620
 2205W        W75273  41.712  18.407  13.414
 2206W        W75274  14.515  43.477   4.916
 2207W        W75275  39.123  21.067  12.390
 2208W        W75276  10.745  37.468   0.442
 2209W        W75277  38.079  33.937   0.385
 2210W        W75278  31.147  31.468   3.069
 2211W        W75279  23.178   7.841  12.678
 2212W        W75280  19.221  18.689   2.768
 2213W        W75281   5.448  44.810  11.153
 2214W        W75282  43.068  20.128   1.449
 2215W        W75283  44.508   4.593   0.896
 2216W        W75284  18.151  40.404   4.091
 2217W        W75285  38.038   5.823   0.828
 2218W        W75286   4.653  13.094  13.522
 2219W        W75287  42.743  43.018   3.769
 2220W        W75288  42.431   8.841   0.066
 2221W        W75289  31.001   3.468   0.754
 2222W        W75290   9.287  43.767  12.551
 2223W        W75291  14.763  10.264   0.235
 2224W        W75292  21.527  11.820  12.791
 2225W        W75293  19.271  40.204  12.368
 2226W        W75294  44.265  37.872  13.372
 2227W        W75295   0.818  36.194   2.132
 2228W        W75296  39.075  36.388  11.621
 2229W        W75297  27.698  41.000   1.271
 2230W        W75298   4.430  11.231   4.716
 2231W        W75299  29.757  21.033  12.359
 2232W        W75300  17.593   1.831   1.198
 2233W        W75301  21.481  14.071  14.942
 2234W        W75302  12.468  42.368  11.614
 2235W        W75303  29.630  14.181  12.438
 2236W        W75304  14.336  23.027  13.862
 2237W        W75305   5.413  27.452   2.622
 2238W        W75306   3.686  36.487  13.043
 2239W        W75307   6.848  21.256  13.013
 2240W        W75308  21.596  37.039   3.156
 2241W        W75309  31.158  33.583  14.360
 2242W        W75310  41.536   7.712   1.749
 2243W        W75311  43.964  44.838   3.335
 2244W        W75312  35.406  33.600   3.723
 2245W        W75313  33.414  17.999   3.579
 2246W        W75314  23.636  19.101   4.970
 2247W        W75315  21.418  28.889   0.945
 2248W        W75316   9.072   7.252  12.719
 2249W        W75317   0.124  40.895  12.152
 2250W        W75318  11.646  29.299  12.339
 2251W        W75319  39.705  29.938   1.398
 2252W        W75320  44.931  10.668   4.175
 2253W        W75321  18.652  27.380   1.825
 2254W        W75322  25.991   0.964   1.425
 2255W        W75323  39.680   7.385  14.469
 2256W        W75324  38.926  14.293  13.943
 2257W        W75325  40.503   0.005  12.376
 2258W        W75326  17.047  24.487  12.432
 2259W        W75327  39.824  27.143  12.090
 2260W        W75328  31.535  33.850  12.518
 2261W        W75329  31.792  24.856  13.872
 2262W        W75330  39.621   1.032  11.074
 2263W        W75331  39.501  17.258   4.133
 2264W        W75332   5.268  18.571   2.716
 2265W        W75333  15.649  20.087   3.321
 2266W        W75334   2.234  43.453  14.433
 2267W        W75335  17.140  33.521  10.271
 2268W        W75336  14.189  26.290   0.696
 2269W        W75337  10.284  22.447   2.702
 2270W        W75338  39.917  26.329   3.329
 2271W        W75339  14.169   8.379  14.306
 2272W        W75340  18.681   5.821  13.020
 2273W        W75341   1.786   8.455   0.658
 2274W        W75342  12.110  41.762   3.614
 2275W        W75343  11.432   7.355  14.970
 2276W        W75344  38.525  16.090  14.729
 2277W        W75345  23.927  38.032   2.185
 2278W        W75346  38.011  17.276   0.993
 2279W        W75347   1.451   2.215   0.820
 2280W        W75348  40.985   6.113  12.052
 2281W        W75349  40.703  33.935  13.162
 2282W        W75350  35.977  42.040  10.751
 2283W        W75351  23.821   0.309   0.191
 2284W        W75352  32.125  26.527  11.014
 2285W        W75353   2.421  13.186   1.881
 2286W        W75354  23.580   8.897  14.096
 2287W        W75355  35.546  38.423   1.148
 2288W        W75356  35.872  18.644  12.140
 2289W        W75357  30.458  43.150  12.089
 2290W        W75358   3.524   4.822   2.898
 2291W        W75359   2.926  44.313  13.151
 2292W        W75360  29.489  44.851   1.951
 2293W        W75361   4.458  29.923  14.286
 2294W        W75362  17.636  18.721   1.685
 2295W        W75363   6.951  10.574  12.020
 2296W        W75364   3.933  17.551  13.437
 2297W        W75365  12.379   7.874  10.709
 2298W        W75366  31.494  43.734   4.037
 2299W        W75367  26.394  26.550   2.042
 2300W        W75368  16.189  43.318   3.700
 2301W        W75369  13.752  14.163  13.517
 2302W        W75370  40.238   6.241   0.283
 2303W        W75371  34.105  26.420   1.945
 2304W        W75372  30.357  37.865   3.412
 2305W        W75373  13.752  12.382   3.491
 2306W        W75374  16.317  31.142  12.340
 2307W        W75375  17.352   0.380   2.825
 2308W        W75376  39.092  27.715  13.429
 2309W        W75377  24.035   8.895  11.512
 2310W        W75378  37.909  39.970   2.672
 2311W        W75379  27.720  31.116  11.510
 2312W        W75380  42.779   4.252  10.225
 2313W        W75381  40.750  13.730   3.728
 2314W        W75382  11.882  33.395   3.308
 2315W        W75383  22.083  19.267  11.912
 2316W        W75384  27.801  41.502   3.495
 2317W        W75385   9.630  16.273  13.097
 2318W        W75386  11.654   1.803   5.000
 2319W        W75387   9.864   3.619  14.111
 2320W        W75388  40.802  25.397   0.111
 2321W        W75389  44.278  18.784  11.932
 2322W        W75390  28.203  20.096   3.820
 2323W        W75391   2.970  21.619   4.696
 2324W        W75392  24.918  32.954   4.572
 2325W        W75393  28.624  16.077   2.467
 2326W        W75394  29.158  39.957   0.685
 2327W        W75395  21.046   5.379  12.529
 2328W        W75396   8.695  15.002   3.273
 2329W        W75397  16.823  41.727  13.632
 2330W        W75398  18.498  37.503   0.417
 2331W        W75399   0.571   9.707  13.422
 2332W        W75400  17.778  23.972   0.324
 2333W        W75401  21.669  36.580  14.077
 2334W        W75402   2.765  11.603  14.334
 2335W        W75403  22.102  15.299  14.443
 2336W        W75404  44.516  11.891   0.702
 2337W        W75405  27.158  31.029   3.352
 2338W        W75406  30.800  43.018   1.461
 2339W        W75407  27.381  43.876   4.048
 2340W        W75408  31.564  35.382  10.772
 2341W        W75409  21.928  43.804   0.291
 2342W        W75410  28.576  20.968   3.655
 2343W        W75411  25.338  29.239   9.839
 2344W        W75412  14.036  44.065   3.692
 2345W        W75413  28.364   7.295   0.322
 2346W        W75414  31.555  38.877  14.064
 2347W        W75415  17.221   8.774  13.749
 2348W        W75416  18.002  16.058   2.811
 2349W        W75417  16.209  33.972   2.681
 2350W        W75418  22.671  43.860   2.170
 2351W        W75419  42.212  14.242   0.816
 2352W        W75420  19.497  22.647   4.332
 2353W        W75421  15.731  15.516  14.521
 2354W        W75422  36.211  23.598   1.679
 2355W        W75423  43.483   3.699  12.349
 2356W        W75424   7.037  27.916  12.846
 2357W        W75425  34.140  13.213  12.527
 2358W        W75426   1.730  31.124  14.252
 2359W        W75427  21.265  39.450  12.867
 2360W        W75428   0.041  39.851  11.613
 2361W        W75429  18.739   8.261  12.658
 2362W        W75430  42.269   6.409   2.781
 2363W        W75431   4.497  26.968   4.509
 2364W        W75432  35.432  27.513   0.377
 2365W        W75433   3.870  11.593  10.184
 2366W        W75434  10.086   8.210  14.402
 2367W        W75435  37.802  27.657  13.052
 2368W        W75436   1.745  30.529  13.543
 2369W        W75437  35.324  39.325   2.196
 2370W        W75438  36.440   4.465  14.553
 2371W        W75439   4.153   9.757  13.348
 2372W        W75440  35.384  18.303  14.464
 2373W        W75441  17.710  18.241   0.891
 2374W        W75442   2.821  10.701  13.130
 2375W        W75443   9.837  40.813   4.537
 2376W        W75444   0.721  27.877   2.327
 2377W        W75445  20.785  43.890  12.001
 2378W        W75446  28.152   5.081  10.226
 2379W        W75447  39.936  34.937   0.439
 2380W        W75448  39.389  32.271   0.788
 2381W        W75449  43.207  36.563   4.977
 2382W        W75450  27.007  30.655   1.917
 2383W        W75451   5.177  16.011   3.295
 2384W        W75452  35.068  24.007   1.054
 2385W        W75453  12.216  12.851   1.305
 2386W        W75454  12.098  19.947  10.930
 2387W        W75455  32.973   2.008  12.764
 2388W        W75456  25.817  28.241  11.977
 2389W        W75457  18.021  33.123  11.487
 2390W        W75458   6.812  20.990  12.033
 2391W        W75459  42.960  42.288  11.481
 2392W        W75460  11.895   8.857  11.513
 2393W        W75461   0.522  40.819  14.862
 2394W        W75462  34.544  21.198   3.360
 2395W        W75463  25.458   5.319  12.907
 2396W        W75464  36.417   4.694   0.427
 2397W        W75465  33.984   2.535   0.857
 2398W        W75466  31.041  17.146  12.982
 2399W        W75467  40.611  26.344   4.222
 2400W        W75468  30.395  22.151   0.569
 2401W        W75469  33.356  19.957  11.181
 2402W        W75470   1.951  24.614  12.118
 2403W        W75471  35.785  15.172   2.757
 2404W        W75472  40.630  40.460   2.833
 2405W        W75473  39.969  43.053   4.748
 2406W        W75474  38.659  44.940   4.552
 2407W        W75475   6.791  30.682   4.261
 2408W        W75476  29.585  34.638   4.151
 2409W        W75477   6.887   2.097  12.953
 2410W        W75478  16.391  14.599   0.261
 2411W        W75479  19.783  21.071  13.965
 2412W        W75480  28.889  28.396   3.808
 2413W        W75481  17.697  34.603  10.701
 2414W        W75482  16.567  15.063  13.547
 2415W        W75483  19.588  37.166   1.754
 2416W        W75484   1.930  33.370   2.390
 2417W        W75485  34.972   2.462   0.670
 2418W        W75486  43.813  24.018   1.233
 2419W        W75487   9.864   1.023  11.539
 2420W        W75488  20.729  37.755  11.071
 2421W        W75489  13.079  26.978  12.482
 2422W        W75490  14.690   6.779   1.262
 2423W        W75491   5.170  24.694   5.030
 2424W        W75492  21.297  16.774  12.212
 2425W        W75493  32.208  30.454  11.873
 2426W        W75494  23.427  24.235   2.408
 2427W        W75495  38.465  30.690   4.420
 2428W        W75496  35.958  24.038  12.355
 2429W        W75497  17.057  39.435   1.482
 2430W        W75498  19.124  37.079   0.796
 2431W        W75499  28.068   6.493  12.597
 2432W        W75500  35.168  35.887   0.416
 2433W        W75501  37.827  23.520  14.902
 2434W        W75502  17.655  17.499  14.733
 2435W        W75503  22.547   8.337  10.405
 2436W        W75504  31.589  14.125   2.028
 2437W        W75505   2.892  36.118   0.229
 2438W        W75506   7.096   6.771   1.901
 2439W        W75507   9.562  42.779  11.885
 2440W        W75508  30.913  31.872   5.109
 2441W        W75509  27.105   3.804  14.522
 2442W        W75510   0.162  12.755   3.787
 2443W        W75511  40.295   7.139  10.643
 2444W        W75512  31.779  20.117   3.765
 2445W        W75513  15.793   0.159  10.088
 2446W        W75514   1.306  15.930   1.193
 2447W        W75515  26.429  14.907   4.179
 2448W        W75516  41.366  37.489   0.655
 2449W        W75517   0.750  35.033   2.765
 2450W        W75518  41.016   0.712  11.051
 2451W        W75519  43.446  27.208   0.400
 2452W        W75520  24.724  31.427   4.206
 2453W        W75521  43.377   5.607   1.078
 2454W        W75522  27.110   4.290  12.073
 2455W        W75523  16.642   0.334  11.148
 2456W        W75524  10.286  39.018   3.046
 2457W        W75525  28.477  42.329   1.429
 2458W        W75526  44.595  19.290   4.548
 2459W        W75527   7.450   7.697   4.507
 2460W        W75528  21.677  19.120  10.951
 2461W        W75529  30.582  16.110   0.642
 2462W        W75530  12.832   5.607  11.701
 2463W        W75531   2.412   6.207   3.266
 2464W        W75532   0.524   4.419  10.665
 2465W        W75533  41.466  40.360  12.321
 2466W        W75534  11.666  24.251  13.012
 2467W        W75535   1.819   7.890   2.676
 2468W        W75536  23.469  27.191   1.386
 2469W        W75537   4.427  40.306  12.454
 2470W        W75538  28.332  10.422  12.218
 2471W        W75539   2.295   8.369  14.877
 2472W        W75540  36.301  23.286  13.000
 2473W        W75541  37.419  40.472  12.324
 2474W        W75542  33.176   9.358  12.447
 2475W        W75543  44.283  34.672   3.923
 2476W        W75544  39.951  24.210   4.915
 2477W        W75545  25.970  23.267  12.957
 2478W        W75546   1.409  42.301   4.669
 2479W        W75547  44.083  44.873  12.080
 2480W        W75548  41.411  39.961  14.049
 2481W        W75549  33.213  31.881  11.599
 2482W        W75550  19.679  44.228  14.937
 2483W        W75551  40.935  28.090  13.314
 2484W        W75552  18.559   2.730   1.957
 2485W        W75553  21.254  18.590   2.623
 2486W        W75554  35.920  36.617   1.223
 2487W        W75555  11.684  33.132  11.340
 2488W        W75556  31.714  30.055   3.590
 2489W        W75557  16.726  14.287   1.432
 2490W        W75558   3.280   5.275   2.818
 2491W        W75559  41.940  30.605   0.297
 2492W        W75560  22.049  40.366   4.156
 2493W        W75561  18.550   2.984   3.706
 2494W        W75562  16.138  39.015   2.893
 2495W        W75563   7.782   6.677  14.353
 2496W        W75564  28.242  12.188  12.517
 2497W        W75565   0.658  24.121   3.726
 2498W        W75566  20.549  19.086  12.005
 2499W        W75567  11.944   9.884  14.421
 2500W        W75568  20.563  38.472   2.210
 2501W        W75569   7.854  40.696   2.610
 2502W        W75570   1.282  32.602   3.710
 2503W        W75571  23.761  38.717  12.192
 2504W        W75572   3.778  16.892   0.752
 2505W        W75573  42.568   6.255  14.088
 2506W        W75574  31.707  16.033  13.036
 2507W        W75575  11.961  14.752   2.310
 2508W        W75576  16.695  18.631  12.457
 2509W        W75577  21.301   9.015  12.448
 2510W        W75578  20.000  43.249   2.427
 2511W        W75579  12.577   3.769  14.993
 2512W        W75580  14.270  43.444  12.659
 2513W        W75581  14.147  16.820  11.235
 2514W        W75582   9.730  19.977  11.049
 2515W        W75583  18.634   2.865   4.219
 2516W        W75584  13.402  26.556   4.054
 2517W        W75585  38.982  43.000   4.129
 2518W        W75586  30.896  22.654  13.059
 2519W        W75587   6.573  18.592  12.572
 2520W        W75588  33.643  14.138  13.509
 2521W        W75589  16.778  36.452  14.501
 2522W        W75590  23.168   0.821  13.397
 2523W        W75591  32.358   8.261  13.345
 2524W        W75592  30.190  21.090  14.209
 2525W        W75593  22.642  40.334  10.252
 2526W        W75594  13.621  16.616   3.196
 2527W        W75595  16.332  26.487   2.681
 2528W        W75596  27.561  27.630  10.484
 2529W        W75597   0.282  42.385   4.343
 2530W        W75598  15.156  32.907  11.177
 2531W        W75599  37.925  32.126   0.483
 2532W        W75600  33.833  22.811   3.287
 2533W        W75601  22.083  22.713  13.841
 2534W        W75602  22.201   6.740  14.369
 2535W        W75603  25.098  18.830   1.612
 2536W        W75604  43.555  15.658   2.295
 2537W        W75605   6.033  15.061  10.936
 2538W        W75606  21.426  12.771  14.340
 2539W        W75607  43.916   4.851  12.791
 2540W        W75608  37.621  37.240   1.320
 2541W        W75609  38.472  39.093  12.908
 2542W        W75610  29.153  15.251   0.833
 2543W        W75611  19.936  36.472   0.798
 2544W        W75612  36.464   6.921   2.792
 2545W        W75613  26.927  24.941   0.488
 2546W        W75614  25.607   1.303   1.357
 2547W        W75615   2.264   3.423   3.319
 2548W        W75616   3.907  36.266   5.238
 2549W        W75617  31.518   4.701  13.537
 2550W        W75618  34.390  21.574   4.348
 2551W        W75619   6.197  19.247   4.243
 2552W        W75620   4.312   2.565  11.144
 2553W        W75621  43.254   9.386  11.566
 2554W        W75622  12.965  11.944  10.750
 2555W        W75623  35.487   2.945   4.910
 2556W        W75624   9.143  13.817  12.531
 2557W        W75625   4.989  33.940   1.712
 2558W        W75626  39.772  23.404   1.781
 2559W        W75627  34.537   3.299   4.623
 2560W        W75628  17.930  43.473   0.697
 2561W        W75629  35.403  36.138  14.909
 2562W        W75630  23.786  17.726  12.949
 2563W        W75631  28.180  20.483  11.542
 2564W        W75632  26.621   2.514   2.411
 2565W        W75633   9.650  14.196   1.355
 2566W        W75634   9.643   8.861  10.970
 2567W        W75635   1.035  27.108  14.112
 2568W        W75636  31.172  15.904  11.141
 2569W        W75637  19.977  29.003   3.355
 2570W        W75638   8.542  12.142  12.725
 2571W        W75639  28.700  25.025   0.884
 2572W        W75640  27.018  36.099  13.372
 2573W        W75641   9.860   9.577  11.403
 2574W        W75642  43.279  16.591  13.473
 2575W        W75643  13.861  18.742  12.533
 2576W        W75644  28.251  20.724  12.776
 2577W        W75645  42.747   4.221  14.964
 2578W        W75646  26.033  25.212  11.517
 2579W        W75647  13.870  40.413  12.710
 2580W        W75648  28.422  37.427   1.257
 2581W        W75649  27.152  35.273   2.920
 2582W        W75650   8.103  10.351  13.210
 2583W        W75651  13.173  44.235  12.570
 2584W        W75652  14.750  26.146  10.600
 2585W        W75653  17.998  35.483   4.597
 2586W        W75654   7.332  20.716  12.513
 2587W        W75655  23.273  36.573  11.173
 2588W        W75656   4.846  37.812  14.968
 2589W        W75657  40.980  29.614   0.315
 2590W        W75658  19.644  19.065  12.401
 2591W        W75659  28.187  29.778  12.951
 2592W        W75660  44.699  37.568   0.691
 2593W        W75661  34.484  35.655  12.174
 2594W        W75662  42.771  39.511   0.954
 2595W        W75663   1.264  43.018  14.984
 2596W        W75664  17.992  27.107   2.268
 2597W        W75665  11.665  22.251   2.882
 2598W        W75666  25.671  18.254   0.933
 2599W        W75667  14.893  38.456   2.538
 2600W        W75668  19.614  24.434   3.673
 2601W        W75669  24.041  15.116   2.170
 2602W        W75670  36.261  43.522   2.308
 2603W        W75671  28.623  38.593   3.987
 2604W        W75672   7.705  23.300  13.433
 2605W        W75673   0.775  33.624   3.812
 2606W        W75674  12.131  28.005   2.833
 2607W        W75675  39.462  41.886  14.712
 2608W        W75676  32.853  35.704   1.278
 2609W        W75677  20.812   3.729  14.601
 2610W        W75678  18.328  43.890   3.325
 2611W        W75679  33.924  44.358  12.924
 2612W        W75680  24.430   7.427  12.385
 2613W        W75681  28.250  10.277   3.309
 2614W        W75682  44.653  39.133   1.408
 2615W        W75683  12.563  40.312   3.892
 2616W        W75684  10.188  12.054   4.169
 2617W        W75685  43.417  40.302  13.316
 2618W        W75686  25.150  30.157   1.496
 2619W        W75687  43.379  39.600  11.011
 2620W        W75688   2.736   0.277   0.401
 2621W        W75689  22.659  17.545  12.997
 2622W        W75690  13.250   1.982   2.391
 2623W        W75691  34.291  29.618  14.735
 2624W        W75692   5.621  39.526   0.528
 2625W        W75693  39.517  35.466  11.556
 2626W        W75694  13.626  36.947   0.998
 2627W        W75695  37.726   3.283  10.244
 2628W        W75696  35.573  39.928   0.203
 2629W        W75697  21.108  43.296   5.390
 2630W        W75698  33.898  26.162  14.891
 2631W        W75699   4.887  42.446   1.346
 2632W        W75700  10.137  10.226   2.607
 2633W        W75701   3.815  14.728  14.277
 2634W        W75702  35.924  10.201  13.934
 2635W        W75703  11.239   4.324   4.183
 2636W        W75704  33.886   5.680  12.953
 2637W        W75705  35.873  42.361  12.586
 2638W        W75706   2.314  36.003   4.579
 2639W        W75707  28.964  11.825   1.773
 2640W        W75708   2.488  28.182  11.635
 2641W        W75709  39.319  14.861  13.018
 2642W        W75710  25.064  13.784   3.224
 2643W        W75711   5.677   2.286   3.217
 2644W        W75712  42.286  17.528   3.519
 2645W        W75713   7.181  30.414  13.452
 2646W        W75714  44.692  37.998   4.673
 2647W        W75715  32.145   9.272  11.567
 2648W        W75716  17.230  36.912  12.481
 2649W        W75717  20.472  12.264  10.762
 2650W        W75718   0.424   3.521   4.255
 2651W        W75719  17.536   2.951   5.119
 2652W        W75720  44.580  17.289  13.409
 2653W        W75721  23.745  43.453  12.919
 2654W        W75722   2.503  36.048  11.544
 2655W        W75723  16.319  38.392   3.648
 2656W        W75724  32.384   6.056   4.250
 2657W        W75725   5.138  23.845  11.573
 2658W        W75726  24.631  34.384  13.787
 2659W        W75727  33.758   0.634  10.645
 2660W        W75728  41.204  32.715   4.257
 2661W        W75729  43.592  19.325   1.279
 2662W        W75730  26.009   5.118   3.187
 2663W        W75731  11.180  30.172   3.837
 2664W        W75732  12.320  25.978   4.814
 2665W        W75733   0.836  11.717  11.627
 2666W        W75734  40.560  26.694   0.055
 2667W        W75735   5.362  14.268   1.660
 2668W        W75736   6.853   7.474  10.682
 2669W        W75737  31.476  22.956   2.807
 2670W        W75738  23.584   0.238  11.122
 2671W        W75739  36.062  17.210   0.770
 2672W        W75740  32.882  17.744   0.379
 2673W        W75741  33.579   4.925  10.392
 2674W        W75742  41.465   7.228   3.064
 2675W        W75743  36.535  13.163   3.804
 2676W        W75744  30.983   8.845   4.544
 2677W        W75745  15.325  44.036  13.556
 2678W        W75746   1.679  20.379  11.199
 2679W        W75747  39.341  28.547  10.321
 2680W        W75748   1.437   9.451   0.944
 2681W        W75749  40.418  16.786   2.627
 2682W        W75750  31.987   1.992  13.881
 2683W        W75751  13.345  43.572   0.497
 2684W        W75752   1.738   4.325   1.816
 2685W        W75753  43.488  25.717   2.678
 2686W        W75754  27.051  27.744   0.832
 2687W        W75755  38.380   6.741  13.523
 2688W        W75756   7.215  27.452   3.121
 2689W        W75757  43.847  14.594   3.779
 2690W        W75758   8.641  19.332   0.406
 2691W        W75759  34.568   7.419   1.462
 2692W        W75760   7.169   9.946   0.493
 2693W        W75761  39.862  27.695   4.118
 2694W        W75762   4.524   5.439   2.862
 2695W        W75763  31.033  40.392  14.961
 2696W        W75764  33.920  37.469   1.803
 2697W        W75765  42.162  32.083  10.237
 2698W        W75766  14.230  30.903  13.777
 2699W        W75767  28.141   8.924   1.210
 2700W        W75768   8.733   2.332   3.499
 2701W        W75769  28.448  17.117   1.291
 2702W        W75770   0.436   8.194   2.277
 2703W        W75771   1.703  35.093  14.706
 2704W        W75772  35.573  24.403  12.451
 2705W        W75773  14.288   6.234   4.699
 2706W        W75774  18.696   5.556   0.886
 2707W        W75775  30.019  17.777   0.530
 2708W        W75776  38.347  31.398   1.363
 2709W        W75777   7.692  33.561  10.719
 2710W        W75778  30.499  16.148   1.160
 2711W        W75779  12.079  14.585   4.590
 2712W        W75780  29.354  35.102   3.235
 2713W        W75781  44.712  28.616  11.336
 2714W        W75782   9.405  36.581   0.439
 2715W        W75783  37.378  16.263   2.357
 2716W        W75784  34.409  10.083  13.838
 2717W        W75785  30.692   7.930  11.049
 2718W        W75786  43.650   8.308   1.374
 2719W        W75787  40.024  13.757   1.394
 2720W        W75788  16.591   8.656   2.718
 2721W        W75789  15.003   7.837   3.346
 2722W        W75790  22.038  38.701   4.222
 2723W        W75791  16.600  28.668  13.105
 2724W        W75792  27.513  37.778  11.969
 2725W        W75793  42.735  18.100  13.575
 2726W        W75794   1.961   2.358   3.590
 2727W        W75795  41.221  15.581   5.208
 2728W        W75796  18.930  37.935   0.187
 2729W        W75797  29.415  14.288   5.006
 2730W        W75798   0.114  38.989   0.885
 2731W        W75799  13.309  29.010  11.249
 2732W        W75800  31.874  37.442   0.275
 2733W        W75801  18.638  23.131  14.308
 2734W        W75802  21.264   9.740  13.080
 2735W        W75803  44.083   2.882   2.249
 2736W        W75804  41.473  18.134  12.844
 2737W        W75805  35.147  34.268  11.916
 2738W        W75806  38.821  14.854   0.789
 2739W        W75807   8.368  35.031  13.903
 2740W        W75808  27.969   2.927  13.541
 2741W        W75809  17.156  34.710  11.690
 2742W        W75810  29.636  19.168   2.783
 2743W        W75811   7.798  39.234   4.554
 2744W        W75812   1.953  28.938  14.402
 2745W        W75813  38.352  27.587  14.014
 2746W        W75814  24.154  40.582   4.555
 2747W        W75815  30.487  42.366  11.623
 2748W        W75816  37.539  14.485   2.731
 2749W        W75817   1.639  37.994   1.212
 2750W        W75818  44.413  19.964  13.871
 2751W        W75819  42.820  21.195   1.806
 2752W        W75820  15.896  27.404   4.506
 2753W        W75821   7.183  35.036  10.742
 2754W        W75822  20.591  44.220   4.496
 2755W        W75823   9.751  37.951  12.390
 2756W        W75824  26.198   1.365  12.411
 2757W        W75825  31.005  25.851   1.998
 2758W        W75826  14.589  40.865   4.228
 2759W        W75827   4.916   0.671  11.127
 2760W        W75828  33.375  12.234  14.859
 2761W        W75829  23.329  42.954   2.705
 2762W        W75830  32.816   1.023  14.408
 2763W        W75831   6.158  35.506  11.490
 2764W        W75832  31.484  38.467   0.970
 2765W        W75833   2.790  33.078  14.947
 2766W        W75834   8.101  22.048   0.343
 2767W        W75835  37.285  10.378  13.905
 2768W        W75836   3.414  27.944   4.281
 2769W        W75837  36.547   0.867   3.892
 2770W        W75838  24.251  37.548   5.092
 2771W        W75839  36.569  27.109   4.500
 2772W        W75840  14.818  32.605   2.939
 2773W        W75841   5.613  27.036   3.681
 2774W        W75842  11.741  19.128  10.104
 2775W        W75843  38.826  17.161  13.691
 2776W        W75844  20.674   3.944   2.675
 2777W        W75845  38.108  26.667  14.871
 2778W        W75846  43.790  44.478  13.385
 2779W        W75847  34.344   5.210  13.047
 2780W        W75848  37.558  21.284  14.699
 2781W        W75849  39.947  41.363  10.791
 2782W        W75850  27.887  39.471   1.799
 2783W        W75851  29.003  13.664  14.273
 2784W        W75852  30.945  12.290   1.740
 2785W        W75853  37.364  30.539  13.820
 2786W        W75854   1.040  33.570   4.270
 2787W        W75855   5.732   7.842   4.333
 2788W        W75856  20.135  37.486  12.247
 2789W        W75857  42.296   5.087  14.810
 2790W        W75858  25.537  37.947   2.215
 2791W        W75859  33.283  28.280  13.028
 2792W        W75860  42.325  25.945  10.838
 2793W        W75861  13.363  43.362  12.519
 2794W        W75862   3.187  41.083   2.969
 2795W        W75863  25.738  37.759  13.510
 2796W        W75864  34.101  18.727  11.033
 2797W        W75865  11.175  19.548  10.076
 2798W        W75866  25.951   5.333  12.830
 2799W        W75867  33.048  44.485   4.660
 2800W        W75868  39.256  30.518  13.825
 2801W        W75869  25.031  42.454  12.898
 2802W        W75870   3.535  32.230  13.037
 2803W        W75871  42.467  31.487  11.429
 2804W        W75872  44.928   6.337  11.152
 2805W        W75873  35.307  24.925   1.300
 2806W        W75874  41.443  32.152  12.631
 2807W        W75875  16.173  15.792   4.803
 2808W        W75876  23.258  35.097   0.932
 2809W        W75877  28.052  15.235  11.475
 2810W        W75878  33.179  20.160  10.689
 2811W        W75879   3.901  10.015   1.006
 2812W        W75880   9.848   5.245  14.756
 2813W        W75881  39.711  31.040   4.982
 2814W        W75882  24.073  29.550   2.023
 2815W        W75883  26.637  31.889   4.705
 2816W        W75884  12.182   8.856  14.730
 2817W        W75885  21.229  30.457  11.878
 2818W        W75886  34.716  35.801   3.739
 2819W        W75887   1.362  29.149  11.401
 2820W        W75888  24.863  24.061  14.796
 2821W        W75889  26.398  36.565  13.040
 2822W        W75890  39.334   2.327   2.806
 2823W        W75891  28.056   5.001   0.522
 2824W        W75892  30.951  32.500   4.121
 2825W        W75893  23.502  19.248  14.032
 2826W        W75894   3.445  26.746  10.986
 2827W        W75895  20.570  29.158   0.474
 2828W        W75896   6.171  29.648  12.888
 2829W        W75897  35.803   6.346  14.738
 2830W        W75898  34.432  20.028   0.402
 2831W        W75899  39.609  22.887   3.003
 2832W        W75900  43.368  21.509  12.845
 2833W        W75901  14.958  11.690  10.723
 2834W        W75902  24.125   8.585  10.597
 2835W        W75903  10.110   4.412  14.031
 2836W        W75904  23.917  17.204  13.606
 2837W        W75905   4.225   9.229  12.665
 2838W        W75906  34.510  19.526   0.549
 2839W        W75907   3.985  26.237  13.450
 2840W        W75908  32.246  38.336  12.446
 2841W        W75909  11.337  26.708   1.831
 2842W        W75910  43.452  26.172   1.865
 2843W        W75911  28.968   5.984  11.627
 2844W        W75912   9.804  28.578   0.492
 2845W        W75913   2.145  35.829  11.025
 2846W        W75914  26.787  28.129   2.021
 2847W        W75915   2.580   9.926   0.412
 2848W        W75916  24.204   2.786   0.186
 2849W        W75917  32.972  30.445  11.119
 2850W        W75918  17.036   7.844  12.850
 2851W        W75919   9.281  30.101   0.535
 2852W        W75920   3.473  23.188  10.565
 2853W        W75921  27.597  22.061   4.442
 2854W        W75922  36.053   7.023  14.899
 2855W        W75923  29.231  33.008   0.352
 2856W        W75924  37.701  34.930  13.011
 2857W        W75925  23.150  21.703  14.578
 2858W        W75926  26.340  18.664  14.829
 2859W        W75927  33.475  21.084  11.052
 2860W        W75928   8.742   7.605   2.417
 2861W        W75929   0.782  20.487  11.282
 2862W        W75930  28.200   8.763  12.348
 2863W        W75931  24.191   6.863   2.754
 2864W        W75932  20.756   1.504  10.532
 2865W        W75933  39.846  41.842   3.257
 2866W        W75934  34.978  22.261  10.908
 2867W        W75935  15.855  43.527  10.999
 2868W        W75936  26.564   1.595   4.929
 2869W        W75937   2.277  43.320  11.476
 2870W        W75938  31.018  32.932   0.941
 2871W        W75939   8.910  21.541  12.194
 2872W        W75940   3.364  33.561  12.348
 2873W        W75941   5.468  28.146   0.862
 2874W        W75942  42.403  26.653  12.031
 2875W        W75943  12.404  21.792  11.045
 2876W        W75944  18.965   9.374  11.154
 2877W        W75945  21.441  14.711  12.413
 2878W        W75946  14.791  16.673  11.457
 2879W        W75947  37.962  39.042   2.197
 2880W        W75948   7.336  16.282   0.266
 2881W        W75949  39.133  10.143  13.471
 2882W        W75950   7.031  43.748  13.035
 2883W        W75951  33.105  36.444   1.069
 2884W        W75952  39.932  34.122  13.575
 2885W        W75953  32.640  20.387  13.652
 2886W        W75954  13.670  43.869   4.673
 2887W        W75955  41.695  16.653   1.768
 2888W        W75956  22.127  23.938   0.026
 2889W        W75957  38.528  37.579  14.480
 2890W        W75958  42.805   3.028  12.585
 2891W        W75959  43.231  41.634  14.868
 2892W        W75960   5.248   7.127  13.452
 2893W        W75961  28.136  44.590   5.044
 2894W        W75962  27.433   4.289   4.138
 2895W        W75963  25.795  13.640   0.009
 2896W        W75964   3.869  31.883  10.630
 2897W        W75965  41.429  41.529   2.510
 2898W        W75966  36.870   8.183   0.251
 2899W        W75967  34.921  15.110   1.734
 2900W        W75968  39.800  28.850   2.500
 2901W        W75969  23.966  35.449   3.690
 2902W        W75970  16.806   8.404   4.558
 2903W        W75971   7.346  34.971  13.089
 2904W        W75972  21.285  26.216   1.824
 2905W        W75973  24.700  12.616  11.465
 2906W        W75974  34.106  29.957  12.919
 2907W        W75975  32.354  16.615   4.228
 2908W        W75976  21.650  42.898  13.967
 2909W        W75977  14.810  20.877   4.558
 2910W        W75978   7.149  12.592   1.452
 2911W        W75979  34.767   0.896  11.465
 2912W        W75980  39.804  31.496  12.045
 2913W        W75981  26.239  22.146  11.517
 2914W        W75982  17.585   7.773  11.607
 2915W        W75983  40.498  18.732  14.904
 2916W        W75984  26.967  36.060   3.044
 2917W        W75985  13.333  34.627   4.070
 2918W        W75986  34.647  35.508   1.719
 2919W        W75987  17.287  40.619   2.881
 2920W        W75988  24.453   2.903   1.871
 2921W        W75989   8.257  30.697   4.126
 2922W        W75990  41.746   4.227  13.277
 2923W        W75991   1.422  22.480  12.680
 2924W        W75992  29.452  23.647   1.294
 2925W        W75993   3.623   5.482  13.815
 2926W        W75994  42.269  40.975   4.320
 2927W        W75995  32.087  16.829  13.840
 2928W        W75996  18.754  24.283   0.987
 2929W        W75997  20.097  40.509   1.787
 2930W        W75998  18.700  33.173  10.564
 2931W        W75999  35.305  19.062  13.492
 2932W        W76000  41.280  14.466   4.894
 2933W        W76001   7.909  18.029   4.109
 2934W        W76002   0.483  40.491   4.069
 2935W        W76003  15.405  17.229  13.502
 2936W        W76004  41.368  20.517   5.008
 2937W        W76005  27.734  28.573   4.562
 2938W        W76006  38.779  21.848  13.477
 2939W        W76007  40.085  35.736  12.782
 2940W        W76008  36.383   6.344   1.425
 2941W        W76009  33.586  19.799   1.676
 2942W        W76010  30.947  22.740  13.929
 2943W        W76011  40.318   2.356  11.376
 2944W        W76012   5.647  36.375   3.208
 2945W        W76013  42.960   1.202   3.684
 2946W        W76014  27.215  36.077  11.593
 2947W        W76015  11.643  36.886   2.450
 2948W        W76016  28.882  30.991  10.693
 2949W        W76017  39.374   2.962   2.971
 2950W        W76018  26.889  19.281  12.031
 2951W        W76019  10.685  41.362   0.355
 2952W        W76020  32.144  19.927   4.085
 2953W        W76021  43.387   9.691  13.945
 2954W        W76022   0.958  19.268   4.254
 2955W        W76023  28.705  19.929   0.828
 2956W        W76024   5.302  23.206   0.359
 2957W        W76025   5.816  39.742  10.551
 2958W        W76026  19.799  15.581   4.112
 2959W        W76027  34.639  20.250  14.949
 2960W        W76028  32.809  37.035  13.793
 2961W        W76029   3.802  15.763  11.541
 2962W        W76030  23.781   6.317  13.520
 2963W        W76031  39.455  13.116  11.175
 2964W        W76032  34.335  38.339  13.929
 2965W        W76033  43.589  20.813   2.070
 2966W        W76034  17.180  28.714   4.360
 2967W        W76035  24.396  34.514   1.959
 2968W        W76036  38.432   9.860  13.411
 2969W        W76037  15.178   1.481   4.156
 2970W        W76038   8.909  24.219   4.154
 2971W        W76039   6.086  44.242   4.595
 2972W        W76040  32.477  20.040  14.003
 2973W        W76041  26.583  21.931   5.072
 2974W        W76042  29.595  38.549   0.064
 2975W        W76043  10.779   6.655  11.871
 2976W        W76044  16.683  24.479  13.953
 2977W        W76045  43.435   5.931  11.967
 2978W        W76046  34.620  19.172  10.739
 2979W        W76047  42.624  31.484  14.856
 2980W        W76048  33.871   2.489   3.286
 2981W        W76049  22.239  27.693  14.435
 2982W        W76050  41.010  23.653   3.281
 2983W        W76051  19.753  22.012   2.803
 2984W        W76052  36.779   3.976   2.692
 2985W        W76053  11.341  26.202  14.895
 2986W        W76054  35.007  18.290  12.464
 2987W        W76055  17.215  29.138  10.726
 2988W        W76056  31.493   6.425   2.494
 2989W        W76057  40.309  15.609   1.933
 2990W        W76058  24.622  22.060   3.562
 2991W        W76059   2.724  29.895  10.987
 2992W        W76060  39.804   7.993   4.215
 2993W        W76061  44.167  37.981   5.062
 2994W        W76062  21.737  29.445  11.652
 2995W        W76063  10.196  30.620  13.535
 2996W        W76064  25.201  27.133   0.458
 2997W        W76065  43.303  32.646  11.963
 2998W        W76066  22.299  40.400   3.557
 2999W        W76067  18.917  35.987   1.839
 3000W        W76068   1.491  34.602  12.463
 3001W        W76069   6.344  26.681   0.833
 3002W        W76070  20.987  21.220   1.283
 3003W        W76071  20.950   1.457   2.324
 3004W        W76072   6.477  34.828   2.867
 3005W        W76073  42.105  31.592   1.354
 3006W        W76074  10.728  25.439  13.904
 3007W        W76075   4.668  11.744  11.170
 3008W        W76076  18.072  44.756  14.726
 3009W        W76077  41.386  38.776  12.106
 3010W        W76078  23.762  16.334   3.527
 3011W        W76079  16.763  19.595  11.954
 3012W        W76080  28.026  11.378  12.989
 3013W        W76081  11.587  25.711   2.369
 3014W        W76082  31.163  43.160  11.032
 3015W        W76083  38.614  15.355   3.222
 3016W        W76084  22.640  31.550   4.109
 3017W        W76085  29.448  35.602   3.179
 3018W        W76086  33.179  10.158   4.093
 3019W        W76087   6.695  16.717   0.860
 3020W        W76088  15.562  20.167  11.649
 3021W        W76089  12.756  40.654   4.229
 3022W        W76090   0.470  23.135  11.339
 3023W        W76091  21.972  13.136   0.863
 3024W        W76092  15.226  27.501   5.222
 3025W        W76093   9.123  41.799   4.987
 3026W        W76094   1.750  21.807  11.915
 3027W        W76095   5.296  39.421   3.839
 3028W        W76096  17.520  44.334  13.061
 3029W        W76097   5.871  37.905   4.460
 3030W        W76098  14.057  15.738   2.758
 3031W        W76099   2.520  41.936  14.376
 3032W        W76100  12.145  43.412  13.099
 3033W        W76101  24.345  32.903   0.341
 3034W        W76102   8.715  22.614   4.775
 3035W        W76103   5.460  36.944  11.934
 3036W        W76104  41.324   6.866   3.452
 3037W        W76105  22.178   6.201   4.376
 3038W        W76106  40.366   8.329   2.724
 3039W        W76107  31.479  13.313   0.481
 3040W        W76108   0.213  40.431   3.208
 3041W        W76109  22.512   3.377   3.339
 3042W        W76110  24.906  29.081  12.995
 3043W        W76111  16.799  16.562   1.710
 3044W        W76112  14.878  22.688  12.570
 3045W        W76113   7.402  10.546   2.167
 3046W        W76114   2.329   2.884  11.586
 3047W        W76115  12.124  35.979   2.177
 3048W        W76116   1.290  32.638   2.724
 3049W        W76117  25.919  35.299  12.478
 3050W        W76118  24.266   2.695   3.718
 3051W        W76119   4.413  40.094  10.804
 3052W        W76120   6.252   9.611  13.367
 3053W        W76121  20.514  26.517   0.327
 3054W        W76122  20.190   1.287   0.191
 3055W        W76123  28.721  26.563   1.939
 3056W        W76124  41.533  43.880   2.236
 3057W        W76125  31.186  44.934  11.597
 3058W        W76126  18.831  39.387   3.683
 3059W        W76127   3.684  44.666   2.407
 3060W        W76128  15.997  40.903  14.389
 3061W        W76129  20.246  22.797   2.804
 3062W        W76130  10.819   1.643  11.008
 3063W        W76131  41.858   3.641  12.623
 3064W        W76132   3.978   7.987   0.919
 3065W        W76133  31.987  25.188  13.519
 3066W        W76134   6.516  36.996  12.926
 3067W        W76135  19.073  19.295   0.390
 3068W        W76136   0.402   7.817   4.351
 3069W        W76137  33.013   7.720  11.496
 3070W        W76138   5.693  29.129  11.603
 3071W        W76139  40.383  31.820  14.475
 3072W        W76140  41.480  18.993  12.859
 3073W        W76141  22.430  43.367  12.321
 3074W        W76142   5.647  26.222  12.641
 3075W        W76143  30.982   0.445   0.834
 3076W        W76144  25.241  21.816   2.314
 3077W        W76145  22.742  35.093   3.693
 3078W        W76146  27.976  18.086   3.266
 3079W        W76147  30.897  19.276  13.599
 3080W        W76148   5.229  28.952   4.978
 3081W        W76149  31.740  20.978  12.552
 3082W        W76150  43.789  12.698   1.813
 3083W        W76151  28.195  19.611   3.595
 3084W        W76152   2.431  17.862  12.600
 3085W        W76153  33.431  33.498   1.716
 3086W        W76154   8.659   6.269   2.321
 3087W        W76155  40.760  17.228   2.753
 3088W        W76156  41.332  25.975   3.587
 3089W        W76157   0.931   9.108  13.026
 3090W        W76158  21.311  32.448   0.209
 3091W        W76159  32.522  34.812  13.358
 3092W        W76160  21.008   5.638   2.584
 3093W        W76161  43.007  35.569   4.448
 3094W        W76162  20.201  16.081   4.910
 3095W        W76163  21.676  32.842  10.987
 3096W        W76164  40.972   3.356   4.180
 3097W        W76165   2.920  36.165   1.169
 3098W        W76166   9.161  39.167  12.395
 3099W        W76167  19.839   2.025  14.419
 3100W        W76168  21.285  23.683  13.858
 3101W        W76169   2.985  11.164   0.817
 3102W        W76170  32.323   4.146  13.628
 3103W        W76171  22.031  21.263   4.222
 3104W        W76172  38.990  29.548  11.275
 3105W        W76173  18.258   2.363   2.633
 3106W        W76174  36.531  15.254   2.317
 3107W        W76175  12.947  40.328   0.304
 3108W        W76176  25.153  18.802  14.384
 3109W        W76177  27.154  17.925  12.383
 3110W        W76178  26.076   6.037   1.464
 3111W        W76179  39.058  17.299   2.442
 3112W        W76180  34.515  12.604  11.676
 3113W        W76181  19.123  37.227  11.105
 3114W        W76182  26.250  28.580  11.949
 3115W        W76183  32.939   6.758   3.569
 3116W        W76184  11.944   6.199  11.455
 3117W        W76185  31.669   9.334   3.174
 3118W        W76186  27.586  32.892   2.316
 3119W        W76187  24.903  38.435  12.621
 3120W        W76188   6.982  26.711  12.146
 3121W        W76189   0.875  21.109  14.443
 3122W        W76190  13.472  10.502  14.818
 3123W        W76191   9.822  20.144  13.155
 3124W        W76192   6.504  41.153  11.567
 3125W        W76193  25.253  35.950  11.953
 3126W        W76194  28.104  22.593  12.559
 3127W        W76195  44.739  20.011   2.183
 3128W        W76196   8.198  20.896  10.370
 3129W        W76197  44.427  31.335   2.738
 3130W        W76198  40.128  41.022  13.083
 3131W        W76199   1.235  23.665   3.248
 3132W        W76200   0.877   9.640   3.344
 3133W        W76201  39.086   4.888   1.674
 3134W        W76202  28.677  38.775  12.001
 3135W        W76203  43.840  10.911  14.271
 3136W        W76204   8.807  30.768   1.450
 3137W        W76205  10.789   7.322  12.511
 3138W        W76206   2.910   6.363  14.278
 3139W        W76207  28.465  23.732   4.651
 3140W        W76208  37.793   8.243  13.528
 3141W        W76209  29.355  31.680   0.861
 3142W        W76210  27.589  18.574   1.129
 3143W        W76211   1.975  11.647  12.128
 3144W        W76212  37.347  40.230   3.323
 3145W        W76213  42.333   5.980   3.803
 3146W        W76214  14.128  24.794   4.651
 3147W        W76215  41.974  36.559  14.432
 3148W        W76216  34.107   8.920  12.006
 3149W        W76217  21.513  38.580   2.396
 3150W        W76218   5.286  43.932   1.345
 3151W        W76219  12.033  25.468   0.356
 3152W        W76220  18.183  34.813   4.096
 3153W        W76221   1.543   6.467   3.725
 3154W        W76222  25.791  12.317   3.851
 3155W        W76223  30.203  12.815  14.847
 3156W        W76224  14.413  14.355   2.065
 3157W        W76225  20.781  30.544  10.557
 3158W        W76226  12.163  44.445  12.704
 3159W        W76227  17.520  11.644  10.642
 3160W        W76228  11.772  27.480   3.804
 3161W        W76229  38.475  21.522  11.233
 3162W        W76230  18.467  41.492   3.758
 3163W        W76231   2.393  32.632   0.931
 3164W        W76232  27.189   5.176  14.491
 3165W        W76233  36.898  11.142   3.117
 3166W        W76234   5.327   7.592   0.455
 3167W        W76235   7.965  10.662  11.050
 3168W        W76236  13.153  11.083   3.656
 3169W        W76237  38.524  33.595   0.348
 3170W        W76238  28.025  21.430  13.162
 3171W        W76239   9.205  35.527  12.746
 3172W        W76240   7.852  28.209  13.481
 3173W        W76241  42.309   4.776   4.126
 3174W        W76242  23.428  32.516   1.287
 3175W        W76243   2.659  30.658  13.686
 3176W        W76244  42.072  23.022   3.362
 3177W        W76245   4.290  36.032   0.911
 3178W        W76246  43.257   6.741  13.903
 3179W        W76247  32.301   0.315  10.573
 3180W        W76248  20.192  41.829   4.324
 3181W        W76249  22.163   3.662   4.105
 3182W        W76250  25.921  11.160  14.010
 3183W        W76251   6.419   3.883   4.772
 3184W        W76252   5.951   5.377  10.604
 3185W        W76253  25.236  37.971   1.710
 3186W        W76254  30.484  31.656  13.966
 3187W        W76255  24.549  17.323   1.956
 3188W        W76256  35.893  16.542   4.585
 3189W        W76257  44.512   5.022  11.725
 3190W        W76258   6.634  40.547   3.140
 3191W        W76259  42.805   1.213  13.113
 3192W        W76260  21.120  34.774  13.161
 3193W        W76261   6.858  13.383  14.479
 3194W        W76262  15.205  25.022   3.235
 3195W        W76263  24.663  40.773   1.489
 3196W        W76264  15.360  14.898   4.228
 3197W        W76265  42.701  37.346  12.343
 3198W        W76266   5.651  11.596  11.177
 3199W        W76267   9.891   7.064  13.502
 3200W        W76268  42.950  16.643   3.301
 3201W        W76269   5.307   4.850   2.702
 3202W        W76270   5.268  23.710   4.076
 3203W        W76271  12.095  37.480  14.281
 3204W        W76272   0.047   8.466  11.992
 3205W        W76273  37.835   8.348  12.949
 3206W        W76274  24.122   0.918  12.420
 3207W        W76275   5.222   5.923  13.811
 3208W        W76276  19.070  21.983  11.495
 3209W        W76277  39.651   7.751  12.821
 3210W        W76278  28.596  39.439   4.297
 3211W        W76279  22.728   5.454  14.338
 3212W        W76280   1.781   3.822   0.389
 3213W        W76281   5.198   0.559  12.089
 3214W        W76282  29.938  22.051  14.304
 3215W        W76283  32.093  26.982   2.737
 3216W        W76284  26.005  36.459   1.707
 3217W        W76285  35.483  25.721   1.666
 3218W        W76286  22.514   1.896   0.782
 3219W        W76287  41.209  11.366  11.685
 3220W        W76288  28.003  34.576   2.221
 3221W        W76289  29.602  18.707   0.252
 3222W        W76290  15.361  31.598  12.173
 3223W        W76291   7.393  43.459   1.992
 3224W        W76292  29.318  41.200  10.165
 3225W        W76293  22.019  42.465   4.644
 3226W        W76294  37.945  43.438   0.025
 3227W        W76295  41.494  23.558   0.391
 3228W        W76296  25.185  33.834   4.621
 3229W        W76297  33.243   0.225   9.999
 3230W        W76298  27.027  15.596  13.234
 3231W        W76299   1.199  24.743  14.900
 3232W        W76300  44.478  40.806  11.960
 3233W        W76301  20.668  34.950  13.910
 3234W        W76302   0.917   9.890  11.228
 3235W        W76303  34.743  17.138   2.485
 3236W        W76304  26.243  12.830   0.449
 3237W        W76305  25.005  14.822  11.898
 3238W        W76306   6.023  43.878  13.155
 3239W        W76307   8.632  37.980  11.604
 3240W        W76308  23.679  22.650   0.047
 3241W        W76309  43.810   6.792   2.817
 3242W        W76310  32.552  24.622  13.814
 3243W        W76311  44.329  44.018  10.620
 3244W        W76312  38.431   9.285  14.359
 3245W        W76313   6.393  41.461  13.252
 3246W        W76314  10.727  42.557   3.762
 3247W        W76315   9.269  29.681   1.730
 3248W        W76316  26.047  39.646   2.181
 3249W        W76317   5.207  12.198   0.032
 3250W        W76318   4.663  25.031   1.836
 3251W        W76319  10.834   0.236  14.230
 3252W        W76320  37.390  42.026  13.994
 3253W        W76321  13.191  15.431   0.954
 3254W        W76322   2.239  23.454  11.521
 3255W        W76323  43.217  18.085  11.548
 3256W        W76324  12.300   2.965   4.769
 3257W        W76325  22.485  39.849  13.017
 3258W        W76326  33.380  12.249   4.055
 3259W        W76327  27.597  11.751  11.472
 3260W        W76328  38.409  15.162   0.413
 3261W        W76329  24.221   7.487  13.248
 3262W        W76330  34.375  42.785  13.477
 3263W        W76331  24.278   1.529   4.436
 3264W        W76332  24.441  22.767  14.391
 3265W        W76333  30.712  34.427  12.921
 3266W        W76334  43.490  18.542   4.262
 3267W        W76335  37.095  38.933   3.941
 3268W        W76336  34.576   8.599   3.233
 3269W        W76337  28.539  16.972  12.992
 3270W        W76338  16.270  41.041  11.413
 3271W        W76339  17.758  41.803   2.844
 3272W        W76340  34.002  28.592   2.451
 3273W        W76341  15.254  34.947   1.663
 3274W        W76342  25.607  34.869  13.099
 3275W        W76343  38.587  44.905  12.066
 3276W        W76344  44.287  16.354   2.337
 3277W        W76345  42.074  13.344   1.814
 3278W        W76346   1.235   1.897   4.074
 3279W        W76347  14.551  23.710   3.326
 3280W        W76348  24.807  18.798  10.241
 3281W        W76349  14.218  26.983   3.635
 3282W        W76350  26.627  24.703   2.374
 3283W        W76351  41.844  29.494  12.436
 3284W        W76352   4.663  31.188   1.459
 3285W        W76353   7.448  37.287   4.569
 3286W        W76354  20.397   5.957  12.455
 3287W        W76355  35.517  32.335   3.539
 3288W        W76356  43.751  35.379   0.867
 3289W        W76357   4.642   7.868   2.332
 3290W        W76358  30.896  34.124   2.757
 3291W        W76359  27.513  18.896  10.343
 3292W        W76360  37.061  14.629  11.546
 3293W        W76361  35.127  26.104  14.480
 3294W        W76362  28.675  27.097  14.135
 3295W        W76363  16.609  34.846  12.471
 3296W        W76364  30.339  16.990  12.464
 3297W        W76365  42.480  11.320  12.730
 3298W        W76366  34.792   8.788  10.681
 3299W        W76367  23.170  26.135   2.840
 3300W        W76368  39.917  14.033   0.738
 3301W        W76369   2.631  37.728   2.194
 3302W        W76370  22.052  20.791  14.534
 3303W        W76371  28.631  43.550  13.056
 3304W        W76372  22.490   0.287   2.293
 3305W        W76373  35.769  16.795   0.023
 3306W        W76374  12.518  25.102  13.324
 3307W        W76375  41.107  13.367   5.035
 3308W        W76376  26.543  27.525  14.243
 3309W        W76377  34.643  14.144   0.992
 3310W        W76378  11.512  17.155   9.736
 3311W        W76379  37.608  29.054  13.861
 3312W        W76380   9.149  35.819   0.932
 3313W        W76381  38.718  27.246   1.954
 3314W        W76382   5.133  12.160  11.088
 3315W        W76383  40.195  44.708   4.553
 3316W        W76384  37.666   8.682   3.424
 3317W        W76385  18.178  39.347   3.146
 3318W        W76386   4.827  22.698  13.801
 3319W        W76387  31.532  28.510  14.745
 3320W        W76388   7.263  35.787   1.137
 3321W        W76389  40.949   4.503  12.614
 3322W        W76390  16.111  28.932   2.877
 3323W        W76391  35.199  37.264  13.931
 3324W        W76392  29.161  25.468  14.964
 3325W        W76393  18.702   3.700  11.598
 3326W        W76394   1.444   6.426  14.394
 3327W        W76395   4.007  35.501   0.837
 3328W        W76396  37.107   0.449   2.330
 3329W        W76397   3.894  38.837   0.250
 3330W        W76398   5.230  10.382   0.281
 3331W        W76399  27.782  36.553   3.262
 3332W        W76400  24.010  13.353   2.187
 3333W        W76401  44.155  44.668  11.162
 3334W        W76402   8.000  10.262   0.412
 3335W        W76403   8.158  43.020   3.709
 3336W        W76404  40.774   2.306  11.153
 3337W        W76405  18.851  25.220   4.615
 3338W        W76406  25.075  36.356   2.415
 3339W        W76407  14.469   9.000   3.136
 3340W        W76408  13.437  40.452   0.182
 3341W        W76409  35.050   6.178   0.465
 3342W        W76410  18.066   8.821  11.116
 3343W        W76411  22.895  44.677  11.088
 3344W        W76412  23.100  25.169   2.819
 3345W        W76413  40.027  16.707   3.321
 3346W        W76414  11.925  17.611  10.274
 3347W        W76415   0.652   8.774  13.323
 3348W        W76416  43.396   7.402  10.499
 3349W        W76417  42.306  39.378  10.767
 3350W        W76418  26.013   2.515  14.354
 3351W        W76419   3.754   0.835   2.282
 3352W        W76420  12.658   7.281   4.244
 3353W        W76421  37.526   1.875  13.026
 3354W        W76422  43.249  32.997   2.282
 3355W        W76423  28.731   6.170  13.407
 3356W        W76424  41.892   5.446  12.961
 3357W        W76425   5.621  19.123   3.646
 3358W        W76426  19.729  17.996   0.842
 3359W        W76427  18.163  15.124  10.513
 3360W        W76428  20.263  28.798  11.467
 3361W        W76429  35.380  31.755  11.030
 3362W        W76430   0.170   4.056   2.302
 3363W        W76431  36.970  20.806   1.898
 3364W        W76432   3.435   0.767  13.027
 3365W        W76433  41.505  16.395   3.757
 3366W        W76434  29.564   5.704   3.364
 3367W        W76435  41.360  29.445   4.332
 3368W        W76436  40.897  13.423  12.066
 3369W        W76437  40.738  30.011  12.910
 3370W        W76438  28.220  37.612  12.485
 3371W        W76439  40.018  30.374   1.269
 3372W        W76440  17.768  39.923   4.161
 3373W        W76441  41.284  29.631  14.906
 3374W        W76442  14.343  37.569   3.617
 3375W        W76443  41.800  35.055  12.918
 3376W        W76444  30.023  14.555   2.767
 3377W        W76445  34.965  25.119  12.998
 3378W        W76446  26.492   7.228   3.349
 3379W        W76447  14.410  42.919  10.691
 3380W        W76448  39.056  22.954  11.734
 3381W        W76449  21.604  21.594  10.551
 3382W        W76450  28.985  16.490   2.322
 3383W        W76451  39.296  42.934  11.989
 3384W        W76452  12.737   6.960  14.533
 3385W        W76453  44.246  27.025  14.548
 3386W        W76454  40.089  14.640   0.967
 3387W        W76455   5.321  39.796  12.476
 3388W        W76456  32.825  43.216   4.222
 3389W        W76457  36.285  16.753   3.639
 3390W        W76458  18.012  34.647  12.496
 3391W        W76459  11.948  38.138  11.197
 3392W        W76460  40.359  44.219  10.562
 3393W        W76461  13.305   4.961   1.328
 3394W        W76462  14.364  35.344  12.277
 3395W        W76463  42.279   9.869  13.691
 3396W        W76464  36.468  38.345   0.237
 3397W        W76465  14.638  39.015  10.798
 3398W        W76466  35.258  17.462  13.454
 3399W        W76467  41.263  35.375   4.191
 3400W        W76468  11.709  35.546  12.416
 3401W        W76469  27.577  11.723  10.429
 3402W        W76470  44.365   7.630  11.986
 3403W        W76471  37.531   6.184  13.982
 3404W        W76472   9.803  29.243   2.418
 3405W        W76473  10.688   9.511  12.423
 3406W        W76474  27.736   4.758   2.850
 3407W        W76475  32.346  43.935   2.892
 3408W        W76476   9.859  42.578  12.387
 3409W        W76477  18.596  14.827  13.450
 3410W        W76478   3.384  10.267  13.000
 3411W        W76479  42.908  15.765  12.396
 3412W        W76480  19.651  10.415   3.602
 3413W        W76481  33.955  42.748  12.565
 3414W        W76482   1.891   3.654   0.876
 3415W        W76483   3.520  32.533   4.030
 3416W        W76484  44.003  31.517  14.477
 3417W        W76485  27.506  44.745  13.802
 3418W        W76486  34.500  43.720  12.056
 3419W        W76487  16.831  31.211   0.928
 3420W        W76488  20.707  35.071  13.059
 3421W        W76489  30.388   5.641  14.908
 3422W        W76490  42.357  33.142   2.226
 3423W        W76491   1.244  13.794  11.481
 3424W        W76492  33.488  41.053   4.662
 3425W        W76493   1.548  33.559   4.274
 3426W        W76494  22.738  33.424   4.323
 3427W        W76495  34.975  42.772   3.727
 3428W        W76496   6.859  35.204   4.171
 3429W        W76497  41.029  30.437  14.456
 3430W        W76498  36.201  14.717   3.546
 3431W        W76499   9.332   3.738   4.132
 3432W        W76500  33.992  41.262  14.945
 3433W        W76501  11.251  14.613  12.388
 3434W        W76502  14.606   2.216  14.748
 3435W        W76503  36.436  11.759  13.945
 3436W        W76504  35.908   6.447   1.941
 3437W        W76505   4.480  26.581  13.014
 3438W        W76506   9.139  18.261   2.393
 3439W        W76507  15.636  21.308  12.577
 3440W        W76508  26.280  35.990   4.577
 3441W        W76509  32.801  16.524  14.977
 3442W        W76510  29.100  34.149   3.541
 3443W        W76511  14.679  32.920  12.366
 3444W        W76512  44.709   4.229  14.781
 3445W        W76513  31.523  21.708   4.165
 3446W        W76514   0.340  16.262  11.936
 3447W        W76515  12.070   8.345  10.703
 3448W        W76516  10.779   8.713   1.905
 3449W        W76517  43.065  13.786   2.408
 3450W        W76518  29.067  22.728   1.893
 3451W        W76519  20.233  18.162  11.902
 3452W        W76520  34.839  11.365  10.159
 3453W        W76521  24.956  21.588   1.098
 3454W        W76522   3.340  15.405   3.534
 3455W        W76523  21.319   0.898   0.882
 3456W        W76524  25.888  17.740   3.370
 3457W        W76525  16.195  36.345   3.912
 3458W        W76526  29.145  39.141   1.653
 3459W        W76527  42.131  30.703   2.896
 3460W        W76528  14.927  43.097   3.340
 3461W        W76529  39.559   7.767  13.975
 3462W        W76530  25.948  16.783  11.671
 3463W        W76531  28.584  19.813  13.477
 3464W        W76532  11.344   9.368   1.415
 3465W        W76533  14.884   1.509   3.557
 3466W        W76534  23.711   1.053  14.733
 3467W        W76535   6.940  18.652  11.267
 3468W        W76536   5.891  15.593   3.373
 3469W        W76537   5.310  15.776   4.672
 3470W        W76538  27.674  31.957   3.784
 3471W        W76539   5.646  44.905   3.629
 3472W        W76540   8.178  33.515  13.038
 3473W        W76541  20.339  37.834   3.311
 3474W        W76542  41.052  29.641   4.696
 3475W        W76543  15.129  19.607  14.429
 3476W        W76544  17.529  26.628   0.188
 3477W        W76545   2.344  18.867  12.520
 3478W        W76546  12.688  22.793  13.909
 3479W        W76547  38.950  16.073   0.393
 3480W        W76548  31.612  17.225   3.778
 3481W        W76549  43.962   3.604  13.372
 3482W        W76550   8.293  35.427  14.623
 3483W        W76551  36.434  34.654  10.057
 3484W        W76552  42.338  28.327  12.898
 3485W        W76553  33.118  16.724  11.243
 3486W        W76554  29.403  15.272   3.162
 3487W        W76555   6.691  22.541   4.672
 3488W        W76556   3.490  14.824  11.118
 3489W        W76557  16.751  37.833  14.539
 3490W        W76558   2.827  10.878   2.608
 3491W        W76559   7.908  10.473  14.015
 3492W        W76560  26.086  43.271   4.472
 3493W        W76561   1.169   2.748   2.200
 3494W        W76562  11.384  42.457  12.797
 3495W        W76563  41.273  36.831  13.490
 3496W        W76564  21.743  12.659   2.141
 3497W        W76565  20.497  23.091  12.544
 3498W        W76566  19.657  27.033   4.640
 3499W        W76567  22.195  30.969   2.252
 3500W        W76568   6.463   7.384   3.349
 3501W        W76569   7.491   2.787  11.047
 3502W        W76570  42.344  12.404   1.821
 3503W        W76571  35.092  10.346  14.361
 3504W        W76572  36.504  26.905   2.557
 3505W        W76573  39.516  24.051  14.410
 3506W        W76574   8.781   0.995  10.639
 3507W        W76575  42.939  22.560   3.244
 3508W        W76576  24.842   2.284  10.707
 3509W        W76577  39.548  11.381   1.898
 3510W        W76578  41.359  11.804   4.089
 3511W        W76579   6.392  17.738   0.825
 3512W        W76580  30.120  29.219   1.358
 3513W        W76581  11.647  21.949   4.712
 3514W        W76582   6.579  22.731   0.019
 3515W        W76583  36.994  11.717   2.347
 3516W        W76584  12.542  26.185  14.950
 3517W        W76585  28.456  17.413   2.706
 3518W        W76586  20.918  12.779  14.423
 3519W        W76587   4.904   1.208   0.075
 3520W        W76588  34.977  32.025  13.365
 3521W        W76589  32.598   1.431  11.185
 3522W        W76590  43.895  29.479   4.306
 3523W        W76591  30.228   5.162  12.220
 3524W        W76592   0.236  42.543   1.229
 3525W        W76593  43.644   7.537  13.499
 3526W        W76594  13.414  22.086   3.258
 3527W        W76595  20.434  10.718   0.369
 3528W        W76596  29.155   2.283  14.811
 3529W        W76597  18.279  38.583  10.663
 3530W        W76598  37.004  31.728  12.974
 3531W        W76599  36.009   4.320   1.455
 3532W        W76600  16.920   7.302   5.218
 3533W        W76601  10.708  28.152  13.141
 3534W        W76602  41.816  44.733   0.682
 3535W        W76603  36.090  41.867  11.972
 3536W        W76604  11.834   5.955   2.878
 3537W        W76605  30.094  34.795   1.279
 3538W        W76606  12.021  12.803  14.535
 3539W        W76607  18.080  12.262  10.954
 3540W        W76608   3.715   6.446  13.849
 3541W        W76609  26.526   0.817   3.679
 3542W        W76610  29.013  36.400   1.787
 3543W        W76611  38.083   0.349  14.174
 3544W        W76612  36.545  38.843  14.936
 3545W        W76613  11.613  11.189  13.551
 3546W        W76614  42.951  44.925  13.537
 3547W        W76615   8.849  22.126  11.424
 3548W        W76616  41.535  24.017  14.804
 3549W        W76617  33.081   2.197   3.891
 3550W        W76618  38.618  37.780   2.687
 3551W        W76619  33.379   6.381  10.707
 3552W        W76620  44.803   9.349  14.775
 3553W        W76621  11.862  32.526  13.463
 3554W        W76622  31.210  37.703   1.379
 3555W        W76623  12.363  28.566  14.884
 3556W        W76624  19.824  29.478   4.557
 3557W        W76625  13.633   0.791   0.050
 3558W        W76626  25.750  11.146   0.513
 3559W        W76627   1.040  16.098   0.804
 3560W        W76628  24.950   6.504  11.074
 3561W        W76629  22.623  13.118  12.794
 3562W        W76630  28.321  35.605  12.534
 3563W        W76631   3.904  24.769   2.042
 3564W        W76632  36.623   2.380  13.306
 3565W        W76633  37.557  20.754  11.568
 3566W        W76634  27.584   1.059  12.543
 3567W        W76635  12.761  31.338   2.728
 3568W        W76636  30.639   0.619   0.018
 3569W        W76637  37.025  28.524   0.502
 3570W        W76638  13.364   1.617  14.065
 3571W        W76639  14.728  15.877  11.210
 3572W        W76640  22.262   3.981  12.859
 3573W        W76641  10.390  25.262   3.681
 3574W        W76642  13.709   3.915  10.788
 3575W        W76643  13.779   1.247  10.341
 3576W        W76644  22.533  17.514  11.598
 3577W        W76645   9.386   4.441   2.426
 3578W        W76646  40.925  32.524  14.368
 3579W        W76647  14.126  30.677  13.329
 3580W        W76648  42.498  14.735  14.082
 3581W        W76649  32.388  43.525   4.194
 3582W        W76650   8.620  24.339  13.266
 3583W        W76651  15.183   2.544  12.839
 3584W        W76652  27.931   0.035   3.784
 3585W        W76653   3.205  22.616  11.990
 3586W        W76654  27.251  16.822   4.720
 3587W        W76655  35.970  29.214   0.917
 3588W        W76656   9.913  43.409  14.078
 3589W        W76657  25.230  14.171   0.799
 3590W        W76658  43.325  15.902   3.661
 3591W        W76659  44.035  29.987   3.834
 3592W        W76660  10.718  29.480  13.969
 3593W        W76661  28.380   3.329   1.306
 3594W        W76662   4.943   6.430  13.594
 3595W        W76663  39.824   1.347  10.683
 3596W        W76664  15.268  29.004   3.580
 3597W        W76665  17.713  37.115  10.553
 3598W        W76666   4.288  28.405   4.701
 3599W        W76667  33.906   0.521   3.282
 3600W        W76668  27.037  30.219  13.389
 3601W        W76669  24.102   0.515   1.434
 3602W        W76670  32.409  43.567  11.483
 3603W        W76671   5.661  12.841   3.651
 3604W        W76672   1.876   6.158   4.069
 3605W        W76673   0.189   6.486  14.009
 3606W        W76674   6.126  20.543   3.173
 3607W        W76675  20.952  33.322   1.813
 3608W        W76676  16.243  34.425  10.649
 3609W        W76677   6.179  43.236  13.649
 3610W        W76678  40.966  27.596   0.775
 3611W        W76679  21.221   0.605   2.405
 3612W        W76680  30.001  26.093  11.388
 3613W        W76681  27.875   7.908   4.392
 3614W        W76682  38.836  18.674   1.963
 3615W        W76683  25.568  11.174   0.023
 3616W        W76684  22.076  22.199   4.542
 3617W        W76685  15.139  23.982  12.959
 3618W        W76686  26.095  24.831  10.642
 3619W        W76687  42.249  19.945  11.082
 3620W        W76688  31.818  32.999  13.881
 3621W        W76689  12.347  33.339   1.291
 3622W        W76690  12.113  32.909   2.291
 3623W        W76691   6.019  12.900   0.925
 3624W        W76692  14.463  25.697  13.468
 3625W        W76693  36.025  26.997   2.714
 3626W        W76694  22.155  24.363  13.566
 3627W        W76695  24.377  24.276  13.289
 3628W        W76696  26.702  13.051  14.700
 3629W        W76697  28.637  18.343   4.355
 3630W        W76698  19.720   4.954  11.870
 3631W        W76699  43.543  38.413  12.075
 3632W        W76700  14.942   4.780   3.040
 3633W        W76701  19.720  14.427  14.555
 3634W        W76702  39.352   4.971   3.762
 3635W        W76703  24.841  29.583   0.829
 3636W        W76704  42.236  43.809  12.999
 3637W        W76705  20.779  36.046  10.685
 3638W        W76706  18.631  31.827  14.775
 3639W        W76707  11.211  40.451   4.232
 3640W        W76708  13.359   4.604  13.840
 3641W        W76709  11.684  12.236  11.816
 3642W        W76710  27.684  35.852  13.615
 3643W        W76711  11.636   4.804   0.788
 3644W        W76712  43.321   2.457   0.062
 3645W        W76713   0.027  33.061  12.597
 3646W        W76714   9.117   1.290  11.217
 3647W        W76715  11.490  19.572  13.656
 3648W        W76716  18.616  40.145   4.146
 3649W        W76717  17.845  33.591  10.742
 3650W        W76718  44.874  19.766  10.950
 3651W        W76719  37.336  14.379  14.402
 3652W        W76720  13.591  35.303   0.252
 3653W        W76721  19.889  44.008   0.389
 3654W        W76722  37.662  41.763   3.346
 3655W        W76723   3.777   9.076   1.291
 3656W        W76724  39.870  40.505   4.092
 3657W        W76725   8.060  37.883  13.270
 3658W        W76726  19.449  12.233   0.994
 3659W        W76727  26.229   9.543  12.851
 3660W        W76728  41.074  25.869  10.955
 3661W        W76729  28.606  29.047  14.979
 3662W        W76730  19.033   0.254   4.171
 3663W        W76731  13.700  12.685  14.366
 3664W        W76732  43.503  42.269   3.911
 3665W        W76733  39.963  23.337  13.145
 3666W        W76734  30.279   7.838  13.030
 3667W        W76735   6.745   8.375   2.748
 3668W        W76736  35.550  11.359  10.658
 3669W        W76737  44.254  14.213   1.501
 3670W        W76738  42.208  32.820  14.816
 3671W        W76739  22.638   4.283   3.961
 3672W        W76740  10.105  28.137  14.028
 3673W        W76741  32.352  15.993   5.102
 3674W        W76742  23.750  17.290   4.636
 3675W        W76743  28.629  18.585   1.857
 3676W        W76744  28.470  12.058   5.327
 3677W        W76745  27.646   0.961   0.538
 3678W        W76746   8.425   4.221  10.668
 3679W        W76747  40.840  24.696   3.335
 3680W        W76748  32.338  32.146   3.164
 3681W        W76749  41.924   8.146   4.236
 3682W        W76750  30.561  42.856   1.942
 3683W        W76751  21.589  14.066   4.222
 3684W        W76752  11.344  14.080  11.115
 3685W        W76753  30.939   3.163   1.786
 3686W        W76754  36.369  32.481   0.834
 3687W        W76755  27.284  20.471   4.405
 3688W        W76756  20.616  42.016   0.927
 3689W        W76757  44.434  40.683   1.089
 3690W        W76758  21.296  40.422  11.936
 3691W        W76759  32.636  39.044  11.279
 3692W        W76760  22.915  21.777  12.690
 3693W        W76761  19.794  28.579   4.901
 3694W        W76762  26.793  32.955   0.417
 3695W        W76763  32.405   8.898   4.111
 3696W        W76764  36.866  20.011   4.175
 3697W        W76765   4.396   5.721   1.276
 3698W        W76766  30.653  30.831  14.449
 3699W        W76767  13.191  15.376  11.205
 3700W        W76768   5.482  41.908   3.174
 3701W        W76769  14.444  36.694  14.662
 3702W        W76770  40.896  17.136   3.261
 3703W        W76771  32.435  41.367   0.385
 3704W        W76772  17.685  36.885  14.277
 3705W        W76773  10.758  23.943  11.028
 3706W        W76774   6.799  16.054   3.198
 3707W        W76775   8.617  37.770   4.685
 3708W        W76776  21.227   6.811  13.090
 3709W        W76777  30.046  26.225   1.934
 3710W        W76778  33.374  13.323  13.007
 3711W        W76779  43.540   9.600   0.526
 3712W        W76780   6.353  43.787  14.982
 3713W        W76781  21.490  38.960  12.712
 3714W        W76782   3.802   0.268  10.537
 3715W        W76783  20.580  44.873  11.721
 3716W        W76784  25.669  37.575   0.204
 3717W        W76785  27.945  17.652   4.610
 3718W        W76786  43.978   2.865  10.759
 3719W        W76787  24.401  36.479  13.882
 3720W        W76788  34.757  41.905  12.116
 3721W        W76789  31.425   0.965  11.863
 3722W        W76790   6.775  36.047  11.123
 3723W        W76791  25.585  22.830  14.626
 3724W        W76792  17.239  37.427  13.087
 3725W        W76793  11.163  27.698   4.487
 3726W        W76794  12.089   6.001  10.989
 3727W        W76795  16.805  17.485  10.696
 3728W        W76796  18.324  12.832   3.134
 3729W        W76797  24.099  17.327  14.072
 3730W        W76798  35.387  28.965   4.024
 3731W        W76799  28.783  26.669  11.589
 3732W        W76800  29.034   7.398   3.243
 3733W        W76801  13.956  25.220  11.159
 3734W        W76802   8.992  39.105   0.937
 3735W        W76803   7.738  27.621  10.982
 3736W        W76804   9.784   3.404   1.051
 3737W        W76805  28.862  23.196   1.966
 3738W        W76806   2.868  15.540  11.648
 3739W        W76807  13.335  17.574   1.628
 3740W        W76808  23.275  37.098   0.200
 3741W        W76809  41.031   0.875  14.374
 3742W        W76810  22.560  44.260   4.144
 3743W        W76811  37.439  22.979   1.315
 3744W        W76812  20.280  11.969  12.090
 3745W        W76813   2.854  32.415   4.542
 3746W        W76814  28.570   8.398   1.946
 3747W        W76815  31.347   2.523   0.432
 3748W        W76816  25.370   0.245   0.272
 3749W        W76817  12.862  34.161   1.317
 3750W        W76818  36.633  22.155   4.670
 3751W        W76819  30.422  10.645   2.248
 3752W        W76820  33.960  32.198   2.631
 3753W        W76821  29.448   8.657  12.004
 3754W        W76822  26.664  41.348  12.968
 3755W        W76823  10.798   8.222   3.334
 3756W        W76824  31.605  24.730   0.955
 3757W        W76825  42.943  38.210   3.646
 3758W        W76826  23.105  37.045   2.725
 3759W        W76827  41.412  14.597  11.136
 3760W        W76828  13.304  43.264  11.121
 3761W        W76829  40.650  40.356   0.795
 3762W        W76830  38.230  11.773  13.322
 3763W        W76831   0.812  11.593  11.141
 3764W        W76832  32.887   0.732  12.991
 3765W        W76833   9.887  31.726   1.697
 3766W        W76834  42.079  26.993  11.549
 3767W        W76835  42.830  14.355   4.185
 3768W        W76836  32.466  22.264   1.746
 3769W        W76837  15.873   8.753  12.184
 3770W        W76838  30.200   4.638  12.073
 3771W        W76839  41.255  37.102   4.164
 3772W        W76840  11.038   4.758   3.185
 3773W        W76841  19.647   5.560   3.764
 3774W        W76842  28.615   3.430   1.766
 3775W        W76843  18.029   6.062  13.612
 3776W        W76844  21.868  24.149  12.101
 3777W        W76845  12.861  37.363  11.601
 3778W        W76846  39.009  44.417   1.215
 3779W        W76847  33.106  38.593  14.922
 3780W        W76848  33.335   5.104   4.392
 3781W        W76849  18.539  32.080   1.500
 3782W        W76850  32.089  34.347   0.962
 3783W        W76851  25.678   2.464  13.060
 3784W        W76852  16.754  17.641   2.293
 3785W        W76853  32.686  43.310  13.836
 3786W        W76854  21.527  24.968  10.690
 3787W        W76855  17.274  34.501  12.380
 3788W        W76856   5.498  34.053  10.534
 3789W        W76857  14.258   2.953  12.063
 3790W        W76858   8.996  16.222   3.795
 3791W        W76859   3.756  38.075   3.125
 3792W        W76860  44.564  22.991  11.872
 3793W        W76861  27.015  14.178   0.351
 3794W        W76862  21.368  38.904   3.174
 3795W        W76863  20.803   7.773  12.124
 3796W        W76864  23.024  15.566  12.729
 3797W        W76865  17.131   8.671  11.952
 3798W        W76866  27.031   3.003   0.248
 3799W        W76867   0.925   8.998  10.938
 3800W        W76868   1.447   7.829  13.386
 3801W        W76869   1.690  43.309  14.865
 3802W        W76870  42.649  12.203   0.905
 3803W        W76871   0.243   5.480  11.516
 3804W        W76872  35.975  17.062   4.565
 3805W        W76873  13.867   9.708  10.694
 3806W        W76874   4.422  25.053  14.882
 3807W        W76875  26.417  32.614   3.745
 3808W        W76876  36.439  14.973  13.328
 3809W        W76877  18.646  34.913  13.391
 3810W        W76878  44.824  39.116  12.966
 3811W        W76879  15.707  36.528   2.687
 3812W        W76880  38.798  36.688  11.114
 3813W        W76881  24.141  30.468  11.638
 3814W        W76882  10.156   7.171   1.459
 3815W        W76883  21.244   6.721  14.404
 3816W        W76884  17.729  43.071  14.393
 3817W        W76885  37.011  16.880  14.294
 3818W        W76886  14.808  15.088  10.740
 3819W        W76887  29.259  21.171  13.987
 3820W        W76888   8.209  11.802   4.644
 3821W        W76889  17.375  23.738  13.780
 3822W        W76890   3.051  36.432  14.270
 3823W        W76891  18.512  25.080  14.871
 3824W        W76892  36.372   1.371   2.873
 3825W        W76893  16.558  18.482  10.584
 3826W        W76894   3.017  11.167  11.357
 3827W        W76895  16.248  30.035  13.002
 3828W        W76896   9.322  41.703  11.348
 3829W        W76897   4.024  37.854  12.497
 3830W        W76898  39.770   9.571  13.886
 3831W        W76899   3.607  12.473   1.708
 3832W        W76900   5.048  21.787   2.388
 3833W        W76901   7.441   7.413  10.636
 3834W        W76902  28.408  30.658  12.593
 3835W        W76903  20.146   8.141   0.318
 3836W        W76904  41.548  22.448  10.997
 3837W        W76905  30.538  16.313  11.045
 3838W        W76906  44.512  16.029  12.431
 3839W        W76907  27.773   9.931  11.690
 3840W        W76908   0.681  32.498  11.462
 3841W        W76909  21.239  31.078  14.102
 3842W        W76910  27.329  31.534  13.002
 3843W        W76911   1.976   0.829  14.038
 3844W        W76912  15.858  30.461   0.385
 3845W        W76913   2.993  24.560   2.141
 3846W        W76914  37.058  28.079  12.601
 3847W        W76915  31.505  37.351  14.914
 3848W        W76916  25.932  35.251   2.810
 3849W        W76917  20.741  38.425  12.378
 3850W        W76918  18.689   3.795   0.159
 3851W        W76919  10.813  22.703   3.838
 3852W        W76920  20.776  32.798  11.056
 3853W        W76921   7.945  16.271  11.595
 3854W        W76922  14.986   9.307  11.993
 3855W        W76923   2.834  38.651   3.136
 3856W        W76924  17.512  35.509   4.443
 3857W        W76925  17.763  25.642   3.812
 3858W        W76926  20.636   9.591  11.995
 3859W        W76927  34.905  27.440  12.161
 3860W        W76928  36.044  12.917  10.750
 3861W        W76929  43.030  26.081  12.127
 3862W        W76930  41.296   8.158  10.345
 3863W        W76931  19.569  29.728  10.793
 3864W        W76932  39.106  17.272  14.684
 3865W        W76933  26.001  13.108  11.679
 3866W        W76934  33.995  31.194  10.942
 3867W        W76935  29.505   3.035   1.810
 3868W        W76936  39.920  14.376  14.153
 3869W        W76937  31.583  24.131  10.830
 3870W        W76938  44.129  36.392   1.670
 3871W        W76939  41.084  25.168  10.565
 3872W        W76940  33.529  39.784  13.723
 3873W        W76941  44.926  21.906   2.252
 3874W        W76942  26.722  42.265   3.268
 3875W        W76943  14.256  37.288   4.628
 3876W        W76944  31.382  16.606   3.338
 3877W        W76945  37.598  33.389   3.730
 3878W        W76946  34.347  41.543   3.677
 3879W        W76947  12.143   0.875   2.825
 3880W        W76948  20.083  13.491   0.138
 3881W        W76949  20.509  32.123   2.102
 3882W        W76950  38.284  44.895  14.237
 3883W        W76951  20.990  35.866  11.132
 3884W        W76952  39.105  24.011   3.295
 3885W        W76953  42.630  41.371   1.413
 3886W        W76954  23.983  43.343  14.508
 3887W        W76955  41.527  29.955   2.316
 3888W        W76956   7.181  22.767   2.365
 3889W        W76957   1.731  41.865   4.509
 3890W        W76958  36.506   2.315   3.805
 3891W        W76959  18.250   4.826  13.528
 3892W        W76960   9.153  20.101  11.547
 3893W        W76961  40.033  23.490  14.453
 3894W        W76962   2.230  20.627  14.027
 3895W        W76963  31.902  28.853  13.494
 3896W        W76964  39.033   9.017   5.068
 3897W        W76965   3.425   4.535  14.794
 3898W        W76966   9.658   8.405   2.888
 3899W        W76967  36.651   0.478   1.733
 3900W        W76968  35.338  21.660   0.691
 3901W        W76969   7.370  23.216   2.839
 3902W        W76970  27.728  13.804  13.482
 3903W        W76971   1.370   4.469  14.404
 3904W        W76972  13.713  24.473   4.723
 3905W        W76973  16.755  31.444  13.278
 3906W        W76974  41.957  37.075  13.326
 3907W        W76975  22.097  36.647   1.298
 3908W        W76976  19.714  32.783  12.919
 3909W        W76977   0.922  28.862  11.466
 3910W        W76978  23.879  30.451  14.363
 3911W        W76979  11.650  23.575   0.294
 3912W        W76980  19.960  12.202  10.781
 3913W        W76981  25.516  10.094   1.986
 3914W        W76982  19.268  26.044   0.237
 3915W        W76983   9.427  35.519   2.541
 3916W        W76984   1.463  31.974   1.783
 3917W        W76985  44.025  24.373  13.302
 3918W        W76986  29.615  44.932  14.430
 3919W        W76987  10.864  28.953  13.691
 3920W        W76988   7.218  11.207   1.538
 3921W        W76989  15.073  19.318  12.426
 3922W        W76990  37.611  11.222  14.521
 3923W        W76991  20.811  17.106  14.770
 3924W        W76992  24.224  37.315  12.561
 3925W        W76993  28.185  15.703   2.728
 3926W        W76994  42.391  15.719  13.120
 3927W        W76995  14.387  37.637  13.641
 3928W        W76996  44.239  10.398  12.430
 3929W        W76997   1.415   6.948   3.577
 3930W        W76998  37.405  25.033  13.964
 3931W        W76999   7.671  38.050  14.860
 3932W        W77000  35.616  24.023  10.590
 3933W        W77001   1.310  42.285   3.644
 3934W        W77002  23.462  21.943  11.553
 3935W        W77003  20.995  16.333   1.809
 3936W        W77004   9.855  36.681   2.147
 3937W        W77005  16.554  35.188  12.013
 3938W        W77006  33.990  31.393  11.417
 3939W        W77007  11.661   0.020   1.966
 3940W        W77008   7.471  38.412   4.592
 3941W        W77009  22.704  43.431  11.860
 3942W        W77010  29.356  11.570  14.956
 3943W        W77011  32.852  22.236   0.452
 3944W        W77012   0.532  44.511   1.737
 3945W        W77013  35.979  19.992   1.404
 3946W        W77014  20.149  35.560   0.802
 3947W        W77015   2.295  14.653   4.910
 3948W        W77016   8.018  37.324  12.394
 3949W        W77017  24.641  34.001   2.643
 3950W        W77018  36.806  26.369  10.776
 3951W        W77019  19.285  23.091   2.659
 3952W        W77020  16.796  22.990  13.780
 3953W        W77021  17.915  23.837   1.861
 3954W        W77022   9.347  12.372  11.646
 3955W        W77023  14.369  21.982  10.688
 3956W        W77024   7.817  23.261   3.144
 3957W        W77025  11.417   0.940  11.110
 3958W        W77026  44.381  32.896   3.732
 3959W        W77027  15.738  36.529   3.654
 3960W        W77028  24.492  10.780  11.304
 3961W        W77029  14.267  44.729  12.744
 3962W        W77030  36.177  17.316  11.629
 3963W        W77031  10.623  13.174   4.087
 3964W        W77032  36.968  33.401   4.634
 3965W        W77033  19.264  33.047   0.851
 3966W        W77034  15.181  10.880   4.159
 3967W        W77035  35.920  12.321   2.758
 3968W        W77036  41.269   1.916  12.964
 3969W        W77037  28.711  17.849   2.324
 3970W        W77038  41.558  17.995  11.999
 3971W        W77039  11.239  21.111  13.588
 3972W        W77040  28.401  23.968  11.604
 3973W        W77041  19.217  30.399  11.664
 3974W        W77042   2.252   4.349   1.829
 3975W        W77043   2.444  32.573   4.842
 3976W        W77044  43.869  35.604  14.447
 3977W        W77045  38.460  11.271  14.779
 3978W        W77046  28.176  28.989  14.669
 3979W        W77047  17.787  19.535  12.972
 3980W        W77048  42.878  40.895  14.266
 3981W        W77049  42.796  44.189   4.258
 3982W        W77050  32.428  19.566  13.311
 3983W        W77051  35.118  14.221  14.874
 3984W        W77052  37.884  33.556   2.755
 3985W        W77053  20.636  17.059   0.766
 3986W        W77054  26.981   8.509   1.841
 3987W        W77055  41.623  43.037  14.303
 3988W        W77056  41.825  37.452  12.976
 3989W        W77057  15.995   6.908   0.024
 3990W        W77058  15.785   3.529   3.342
 3991W        W77059   6.227  13.795   2.926
 3992W        W77060   6.441   7.592  11.113
 3993W        W77061  22.698  23.409  11.219
 3994W        W77062   0.796  39.536   4.121
 3995W        W77063  28.949  37.172  12.877
 3996W        W77064  28.824   1.630  11.471
 3997W        W77065  11.358  40.613   1.809
 3998W        W77066   8.171   0.263  13.823
 3999W        W77067   8.202  17.931  11.701
 4000W        W77068  18.411  37.794  10.644
 4001W        W77069  15.321  42.733   1.950
 4002W        W77070   0.095  13.241   2.629
 4003W        W77071  23.559   2.477  14.675
 4004W        W77072  21.155  27.729   4.548
 4005W        W77073   5.428  21.852  13.917
 4006W        W77074  16.916   9.902   1.790
 4007W        W77075  31.664  30.205  11.083
 4008W        W77076   2.250  34.695   0.968
 4009W        W77077  30.707  16.978  13.530
 4010W        W77078  21.636  24.064   4.657
 4011W        W77079  44.303   6.699  13.908
 4012W        W77080   7.247  37.586   1.646
 4013W        W77081   2.144  18.242   4.623
 4014W        W77082  38.418   2.131  12.280
 4015W        W77083  35.989  13.085   2.200
 4016W        W77084  20.241  29.500   4.248
 4017W        W77085  23.649  42.413  12.897
 4018W        W77086  31.409   9.738  11.474
 4019W        W77087  13.381  14.204   3.586
 4020W        W77088  22.382   4.108  13.337
 4021W        W77089  44.776  10.078  13.087
 4022W        W77090   7.409  31.685  10.621
 4023W        W77091  33.081  30.735  13.422
 4024W        W77092  21.516  10.112   3.682
 4025W        W77093  40.970  20.013  10.690
 4026W        W77094  24.216  34.509  12.347
 4027W        W77095  15.062  13.337  11.517
 4028W        W77096  39.169  22.164   0.494
 4029W        W77097  43.953  44.182   4.974
 4030W        W77098  42.566   3.464  12.691
 4031W        W77099  16.129  18.276   1.347
 4032W        W77100   2.826  15.516  14.173
 4033W        W77101   0.908   8.390   2.454
 4034W        W77102  13.243  28.423  12.903
 4035W        W77103  34.909  43.784  11.732
 4036W        W77104   7.280  27.880  11.056
 4037W        W77105  30.968  27.968   0.267
 4038W        W77106  12.460  16.043  14.903
 4039W        W77107  29.099   2.506   3.840
 4040W        W77108  43.786  20.147  12.565
 4041W        W77109  16.717  28.142   4.480
 4042W        W77110  10.963  16.375  14.001
 4043W        W77111  15.457   9.638  10.778
 4044W        W77112   3.426   9.631   4.414
 4045W        W77113  16.284  15.750  13.449
 4046W        W77114   4.824  17.517  13.398
 4047W        W77115  11.791  27.055  12.025
 4048W        W77116   3.176  33.540  11.884
 4049W        W77117  34.160  36.119   3.057
 4050W        W77118  44.231  36.505   4.202
 4051W        W77119   5.303  24.884   1.280
 4052W        W77120  38.857  43.778  10.608
 4053W        W77121  27.727  30.379  14.027
 4054W        W77122  25.180   0.118  11.070
 4055W        W77123  12.568  41.469  11.117
 4056W        W77124  28.230  19.980  11.626
 4057W        W77125  38.600   8.134   1.003
 4058W        W77126  13.261  20.534   4.318
 4059W        W77127  34.425  23.057   3.776
 4060W        W77128   1.765  30.409   1.380
 4061W        W77129  39.010  43.549  13.540
 4062W        W77130  35.304  18.309   0.347
 4063W        W77131  44.509  42.683  10.345
 4064W        W77132  20.477  36.527  10.749
 4065W        W77133  25.495   8.812   1.716
 4066W        W77134  28.392  31.009  10.820
 4067W        W77135  29.997  32.376   0.294
 4068W        W77136  16.854  13.636   3.064
 4069W        W77137  30.463   9.790   2.662
 4070W        W77138  15.354   9.419  14.832
 4071W        W77139  18.149  19.959  11.103
 4072W        W77140  22.033  32.270  12.916
 4073W        W77141  23.690  40.833   1.846
 4074W        W77142  14.355   1.350   2.696
 4075W        W77143  39.935  18.256  13.083
 4076W        W77144  42.009   0.874  14.544
 4077W        W77145  41.845  27.126   3.298
 4078W        W77146   5.559   8.906   0.416
 4079W        W77147   5.469  16.276   3.740
 4080W        W77148   3.734  28.614   1.654
 4081W        W77149   1.728  22.182   4.291
 4082W        W77150  23.133  42.903  12.349
 4083W        W77151  39.859  10.034   4.072
 4084W        W77152  18.242   3.848  11.871
 4085W        W77153  27.105  41.982  14.012
 4086W        W77154  29.409  30.312  14.163
 4087W        W77155  43.547  10.398   2.194
 4088W        W77156  40.462  21.810  14.818
 4089W        W77157   7.115  40.186  13.406
 4090W        W77158   5.796  21.095   3.156
 4091W        W77159  12.808  10.920   3.289
 4092W        W77160   1.878  35.426  12.412
 4093W        W77161  13.656  29.519   1.668
 4094W        W77162  41.064  40.140  11.978
 4095W        W77163  14.157   6.651  14.980
 4096W        W77164  33.851  33.380   1.368
 4097W        W77165  31.700  39.168   1.395
 4098W        W77166  20.657   5.810   0.928
 4099W        W77167  43.590  34.012   4.000
 4100W        W77168  27.992  33.581   2.365
 4101W        W77169  39.260  26.798  11.612
 4102W        W77170  10.615  28.255   0.794
 4103W        W77171  39.446  24.288  11.564
 4104W        W77172  41.451   5.644   4.257
 4105W        W77173  31.052  31.706   3.786
 4106W        W77174  34.526  20.713   4.702
 4107W        W77175  13.766  35.374   3.217
 4108W        W77176  23.431  13.702  12.611
 4109W        W77177  23.617  29.374   4.911
 4110W        W77178   7.390   7.085   1.597
 4111W        W77179   8.225  40.907   1.776
 4112W        W77180   9.733  11.292  13.797
 4113W        W77181   9.862  12.409   0.750
 4114W        W77182  19.529   8.712  12.441
 4115W        W77183  36.067  10.315   0.485
 4116W        W77184  38.189  44.990  12.445
 4117W        W77185  40.873  31.915   3.513
 4118W        W77186  18.310  22.160   3.025
 4119W        W77187   7.185   1.847  13.810
 4120W        W77188   8.654  22.733   3.364
 4121W        W77189  30.545  14.793   0.179
 4122W        W77190  37.939  30.495   4.499
 4123W        W77191  27.120  15.196  12.906
 4124W        W77192   4.480  31.626  14.414
 4125W        W77193   0.003   3.188   4.249
 4126W        W77194  26.741  30.569  13.908
 4127W        W77195  41.753  21.085  11.488
 4128W        W77196   7.833  22.522  11.108
 4129W        W77197   8.667  34.953  10.682
 4130W        W77198  31.591  35.183   3.242
 4131W        W77199   8.798   9.895   0.809
 4132W        W77200  16.783  35.534   2.762
 4133W        W77201   1.784  21.549   0.797
 4134W        W77202  18.128  20.550   0.054
 4135W        W77203  17.172  36.489  11.783
 4136W        W77204  23.906  29.842  12.005
 4137W        W77205  40.208  44.289   3.214
 4138W        W77206   4.379  38.265   1.414
 4139W        W77207  26.539  38.354  14.303
 4140W        W77208  38.429  18.206  14.952
 4141W        W77209  41.219  28.339   3.556
 4142W        W77210  17.729  38.665   0.003
 4143W        W77211  22.979  30.362  13.375
 4144W        W77212   1.281  35.323  14.901
 4145W        W77213  29.709   0.749  11.177
 4146W        W77214   1.675  39.453  11.390
 4147W        W77215   7.678  42.430   4.271
 4148W        W77216   7.907  22.323   4.359
 4149W        W77217  25.572  25.548   3.016
 4150W        W77218  23.577   9.164   3.508
 4151W        W77219  21.636   0.780   3.656
 4152W        W77220  20.616  22.262   4.590
 4153W        W77221   1.044  42.967  13.529
 4154W        W77222   6.237  26.885   1.316
 4155W        W77223  20.291  11.169   1.893
 4156W        W77224   4.870  31.717  12.409
 4157W        W77225  29.045  21.501   2.642
 4158W        W77226   5.753  39.352   2.272
 4159W        W77227  29.833  12.815  10.995
 4160W        W77228  33.503  14.766  11.821
 4161W        W77229  37.296  16.206   1.537
 4162W        W77230  29.090  12.528  11.113
 4163W        W77231   3.912  27.767   4.164
 4164W        W77232  24.503  31.181   0.792
 4165W        W77233  38.083  25.700   2.372
 4166W        W77234   1.820  30.480   4.803
 4167W        W77235   6.424  23.217  11.640
 4168W        W77236  36.573   5.254   3.977
 4169W        W77237  10.733  16.157  13.577
 4170W        W77238  11.849  36.019  14.571
 4171W        W77239   9.756  37.442   1.973
 4172W        W77240  26.688  38.981   1.354
 4173W        W77241   5.387  28.970   0.345
 4174W        W77242   9.144   6.169  10.684
 4175W        W77243  19.594  38.578   4.438
 4176W        W77244  12.771  20.478   2.144
 4177W        W77245   2.162  31.347   1.353
 4178W        W77246  21.077   9.179   4.108
 4179W        W77247  22.644  11.246  13.475
 4180W        W77248   7.601  25.170  12.913
 4181W        W77249   2.735  17.122  10.665
 4182W        W77250  30.831   3.819   0.301
 4183W        W77251  22.994  14.725   4.479
 4184W        W77252  28.285  26.745  11.666
 4185W        W77253  33.846  30.109   2.298
 4186W        W77254   2.766  29.782  13.797
 4187W        W77255  44.241  43.801  11.462
 4188W        W77256   0.200  38.786   1.837
 4189W        W77257  21.169  42.524   2.151
 4190W        W77258  22.773   1.566   2.589
 4191W        W77259  11.688  44.080  12.616
 4192W        W77260  26.168   8.734  12.656
 4193W        W77261  10.134  17.158   1.226
 4194W        W77262  12.592   0.271  12.417
 4195W        W77263  34.469  32.579   1.206
 4196W        W77264   3.324  20.659  11.695
 4197W        W77265  24.709   8.563   3.094
 4198W        W77266  13.387  16.790   3.618
 4199W        W77267  35.974  15.792  12.454
 4200W        W77268  44.509  43.829   2.233
 4201W        W77269  44.886  42.827  13.346
 4202W        W77270  25.369   1.364   2.760
 4203W        W77271  28.621  32.349   2.570
 4204W        W77272  37.873  26.018  14.020
 4205W        W77273   9.891  21.163   4.144
 4206W        W77274  21.208  44.546   4.521
 4207W        W77275  15.176  33.105   0.685
 4208W        W77276  36.621  12.780   3.195
 4209W        W77277  31.657  28.420  11.455
 4210W        W77278   6.645  11.720  11.119
 4211W        W77279  23.657   2.823  11.258
 4212W        W77280  36.067   4.186  10.780
 4213W        W77281  23.055  27.885  11.557
 4214W        W77282  30.579  35.528  10.569
 4215W        W77283   8.972  32.182   3.208
 4216W        W77284  34.201  16.829   2.211
 4217W        W77285  25.310  42.862  13.422
 4218W        W77286   6.907  31.594   0.957
 4219W        W77287  19.696   8.692  11.935
 4220W        W77288  32.061  42.369  13.261
 4221W        W77289   4.376  21.457   4.583
 4222W        W77290   6.845  19.037   0.816
 4223W        W77291  24.582  40.076  11.813
 4224W        W77292  30.026  29.992   4.595
 4225W        W77293  40.462  11.681   3.625
 4226W        W77294  18.817  31.561   4.993
 4227W        W77295  14.661   1.530   4.090
 4228W        W77296   6.000  35.969  12.805
 4229W        W77297  35.077  23.283  14.303
 4230W        W77298   8.954  42.433  12.518
 4231W        W77299  28.094   3.189  13.979
 4232W        W77300  32.180  13.339  14.271
 4233W        W77301  23.813  22.102   4.172
 4234W        W77302   9.319  33.065   3.481
 4235W        W77303  43.007   7.767  10.436
 4236W        W77304  15.283  44.833  13.931
 4237W        W77305  27.304  24.164   1.091
 4238W        W77306  14.781  42.727   1.268
 4239W        W77307   8.616  37.572   0.222
 4240W        W77308  32.960  34.638   0.462
 4241W        W77309  10.362  40.285  12.955
 4242W        W77310  27.998  11.905   4.611
 4243W        W77311  22.361  44.044  11.087
 4244W        W77312  16.645  36.956   4.581
 4245W        W77313  34.415   0.364   3.347
 4246W        W77314  41.430  41.833  14.546
 4247W        W77315  37.724  15.562  10.886
 4248W        W77316   7.333  15.739  11.546
 4249W        W77317  31.384  44.337  10.641
 4250W        W77318  32.602  11.278   0.792
 4251W        W77319   7.472  22.199   3.739
 4252W        W77320  35.879  10.675   4.775
 4253W        W77321  23.059  38.749   3.855
 4254W        W77322  18.568   3.953   1.275
 4255W        W77323  39.578  44.857  11.094
 4256W        W77324  16.621   1.362  12.927
 4257W        W77325   5.047   5.475   3.352
 4258W        W77326  34.339  23.615   3.303
 4259W        W77327  14.390  20.267   0.189
 4260W        W77328  41.867   0.391  10.561
 4261W        W77329  18.164  22.507  10.450
 4262W        W77330  31.007  38.010   4.575
 4263W        W77331  12.960  38.236   1.312
 4264W        W77332  41.635  18.820   0.463
 4265W        W77333  30.834  26.679  12.493
 4266W        W77334  15.175  26.533   0.816
 4267W        W77335  34.023  17.019   0.851
 4268W        W77336  33.541   4.971   2.629
 4269W        W77337  41.555  29.517   4.810
 4270W        W77338  20.027   2.410   4.292
 4271W        W77339   3.770  17.144   1.963
 4272W        W77340  20.170  25.177   3.047
 4273W        W77341  17.505  43.772   0.679
 4274W        W77342  37.467  39.478  10.863
 4275W        W77343  28.516  11.255  13.100
 4276W        W77344  36.062  31.192   5.190
 4277W        W77345  13.607   8.858   4.193
 4278W        W77346  39.585  41.079  12.913
 4279W        W77347  20.052  16.299   2.272
 4280W        W77348  11.739  27.321  12.593
 4281W        W77349  27.375  26.201   0.376
 4282W        W77350   4.370   6.945  12.503
 4283W        W77351  26.985  23.453   3.784
 4284W        W77352  18.737  40.627   3.250
 4285W        W77353   4.802  39.432  11.192
 4286W        W77354   5.341  22.702   3.247
 4287W        W77355  13.498  43.578  11.991
 4288W        W77356  23.715  30.884  13.921
 4289W        W77357   4.773  17.803   3.831
 4290W        W77358  35.484  34.718  11.868
 4291W        W77359  19.566  24.556  12.937
 4292W        W77360  11.977   1.693  11.861
 4293W        W77361  44.361  15.242  14.411
 4294W        W77362  41.828   0.686   4.106
 4295W        W77363  34.033  42.392  12.975
 4296W        W77364  41.246  36.192   2.175
 4297W        W77365  43.802  23.489   2.605
 4298W        W77366  32.059  43.639  10.719
 4299W        W77367  33.539  30.071  14.243
 4300W        W77368   3.213  37.804   1.505
 4301W        W77369  28.863   2.264  11.216
 4302W        W77370  21.981  28.153  11.453
 4303W        W77371  29.949  43.293   0.498
 4304W        W77372  30.434  36.828  12.808
 4305W        W77373   0.527  16.700   1.758
 4306W        W77374  39.301  19.094   0.213
 4307W        W77375  30.073  25.725   0.293
 4308W        W77376   9.278  17.546  14.394
 4309W        W77377   9.861  31.147  11.425
 4310W        W77378  44.958  43.989   1.316
 4311W        W77379  21.479  32.573  11.553
 4312W        W77380  24.274   1.565   1.727
 4313W        W77381   4.343   6.165  14.995
 4314W        W77382  41.920  18.488   2.612
 4315W        W77383  25.033  39.263  11.483
 4316W        W77384   9.199   5.917   1.416
 4317W        W77385   2.823  33.528   1.184
 4318W        W77386  13.379   7.403  11.125
 4319W        W77387  13.934  25.515  13.790
 4320W        W77388   5.276   3.835   0.258
 4321W        W77389  24.175   2.150   1.872
 4322W        W77390   8.356  38.235   3.312
 4323W        W77391  33.405  39.343  13.382
 4324W        W77392  25.608  37.645  12.266
 4325W        W77393  28.003  26.657   2.322
 4326W        W77394  41.913  23.519  10.709
 4327W        W77395  33.492  13.322  13.866
 4328W        W77396  14.455  13.623   0.639
 4329W        W77397  19.256   9.769   3.741
 4330W        W77398   7.222  24.287   4.832
 4331W        W77399  23.813  41.321   3.594
 4332W        W77400  28.462  32.037  14.380
 4333W        W77401  10.800   9.369   3.651
 4334W        W77402  34.604   3.220   1.813
 4335W        W77403   4.756  33.533  14.561
 4336W        W77404   4.172   0.300  14.210
 4337W        W77405  21.834  26.963   1.987
 4338W        W77406   3.393  24.913   3.674
 4339W        W77407   6.704   5.112   0.312
 4340W        W77408  38.877  19.060  12.455
 4341W        W77409  26.202  25.726   0.837
 4342W        W77410  36.346  23.283  13.561
 4343W        W77411   4.500   2.918   4.227
 4344W        W77412  35.120   2.262  13.325
 4345W        W77413  31.896  43.526  14.511
 4346W        W77414  28.617  17.583   0.368
 4347W        W77415  29.195  40.484  13.030
 4348W        W77416  29.581  37.594   3.692
 4349W        W77417  43.807   9.560   1.692
 4350W        W77418  17.040  27.194  12.045
 4351W        W77419  39.554  21.045   9.917
 4352W        W77420   4.799  37.562   3.051
 4353W        W77421  15.556  34.615   0.388
 4354W        W77422   3.274  24.686  14.294
 4355W        W77423  11.211  32.670   3.132
 4356W        W77424  14.994   1.755  13.869
 4357W        W77425   8.929  33.554  12.473
 4358W        W77426   5.394  25.124  13.503
 4359W        W77427  41.978  16.994   0.324
 4360W        W77428   0.205  16.260   3.583
 4361W        W77429  11.741  22.025   2.437
 4362W        W77430  25.694  21.038   4.574
 4363W        W77431   8.680   2.232  11.104
 4364W        W77432  26.115  42.081   1.450
 4365W        W77433   0.442  44.083  12.072
 4366W        W77434  12.272  19.707  12.961
 4367W        W77435  17.152  32.525  10.615
 4368W        W77436  32.596   8.753  13.419
 4369W        W77437   2.990   8.970   0.188
 4370W        W77438   1.071  29.049  11.904
 4371W        W77439  36.408  13.946   0.351
 4372W        W77440  17.728   9.020  13.216
 4373W        W77441  20.663  28.552  10.669
 4374W        W77442  29.595  33.643  14.896
 4375W        W77443  14.004  31.278   5.033
 4376W        W77444  17.061  28.100  10.731
 4377W        W77445   9.704  26.695  14.157
 4378W        W77446   3.512  41.870  14.302
 4379W        W77447  35.870  24.014   3.786
 4380W        W77448  21.112  43.576  13.484
 4381W        W77449  39.634  11.711  14.465
 4382W        W77450  35.883  44.005   1.769
 4383W        W77451   6.787  20.334   4.771
 4384W        W77452  24.033  40.992   3.936
 4385W        W77453  22.471  32.463   0.838
 4386W        W77454  17.999  39.106   2.731
 4387W        W77455  19.495  29.422  12.139
 4388W        W77456  15.354  41.757   2.336
 4389W        W77457  19.175  15.719   2.348
 4390W        W77458  26.781   9.281   5.187
 4391W        W77459   0.286  38.348   4.542
 4392W        W77460   7.333   2.228  14.771
 4393W        W77461  44.304  40.781  12.458
 4394W        W77462  36.386  19.499   1.767
 4395W        W77463  40.921  37.318  12.608
 4396W        W77464   1.358  16.093  12.044
 4397W        W77465  24.074  43.981  12.358
 4398W        W77466  19.773  37.390   3.827
 4399W        W77467  32.538  13.864   0.502
 4400W        W77468  35.438  14.736  11.362
 4401W        W77469  28.447   8.634   3.848
 4402W        W77470  31.652  30.369  10.576
 4403W        W77471   2.764  39.298   4.521
 4404W        W77472  37.541   0.236   0.344
 4405W        W77473   3.646  15.364  11.212
 4406W        W77474  35.643   5.607   0.734
 4407W        W77475   6.349   8.836  10.640
 4408W        W77476  23.465  24.534   1.965
 4409W        W77477   1.492  14.171  10.703
 4410W        W77478   0.037  20.256   0.310
 4411W        W77479  40.473  43.842  12.142
 4412W        W77480   9.864  43.906   3.130
 4413W        W77481  38.077  44.166   1.856
 4414W        W77482  26.796   3.159   1.951
 4415W        W77483  25.489  23.782  11.190
 4416W        W77484  11.688  16.169   5.179
 4417W        W77485  35.876  35.965  10.660
 4418W        W77486  43.329  21.058  11.388
 4419W        W77487   0.296   5.881  12.686
 4420W        W77488  39.879  19.249  14.601
 4421W        W77489  14.695  42.985  13.940
 4422W        W77490  16.303  42.739  12.173
 4423W        W77491  14.223  28.864   4.086
 4424W        W77492  33.542  41.416   3.215
 4425W        W77493   5.315  42.304   0.372
 4426W        W77494  10.000  12.904  11.987
 4427W        W77495   7.304  32.691  13.600
 4428W        W77496  23.063  41.892  11.574
 4429W        W77497  12.385  19.846   1.348
 4430W        W77498  22.187  12.412  13.291
 4431W        W77499  23.560  16.068   1.854
 4432W        W77500  23.460  16.712  10.624
 4433W        W77501  10.243  26.782  11.004
 4434W        W77502   7.213  16.634   3.704
 4435W        W77503  14.883   8.863  13.781
 4436W        W77504   5.700  27.243  14.147
 4437W        W77505  25.085   2.966   3.287
 4438W        W77506  24.901  10.814   1.051
 4439W        W77507  24.154   3.116  12.452
 4440W        W77508  16.332  14.243  12.918
 4441W        W77509  38.665  32.020  12.629
 4442W        W77510  36.995  30.536   4.724
 4443W        W77511   9.188  19.512   1.642
 4444W        W77512  24.177  20.251   1.885
 4445W        W77513   5.226  11.867   3.255
 4446W        W77514   6.790  33.826   4.718
 4447W        W77515  23.214  13.107  14.428
 4448W        W77516  13.272  43.518   4.048
 4449W        W77517  20.173   9.220  12.801
 4450W        W77518  32.073   7.800   2.853
 4451W        W77519   3.034  14.920   1.670
 4452W        W77520  31.933   8.712  12.815
 4453W        W77521  24.230  39.473  10.183
 4454W        W77522  24.330   1.853   3.512
 4455W        W77523  36.904  24.993  14.740
 4456W        W77524  34.339  27.209  14.787
 4457W        W77525   6.765  38.018  11.160
 4458W        W77526   2.929  23.306  14.084
 4459W        W77527  38.869  16.552  11.929
 4460W        W77528  27.643  44.702   1.267
 4461W        W77529  31.934  18.321   1.449
 4462W        W77530  34.956  17.707  10.709
 4463W        W77531   6.494  30.235   4.307
 4464W        W77532  11.305  27.402   3.183
 4465W        W77533  23.279   7.877   0.907
 4466W        W77534  18.060  16.217  13.475
 4467W        W77535  33.129  40.354   1.346
 4468W        W77536  10.157  44.465   4.622
 4469W        W77537  44.593  20.269   3.473
 4470W        W77538  42.675  43.578  13.682
 4471W        W77539  43.277  32.510  12.516
 4472W        W77540  22.119  37.909   0.683
 4473W        W77541  16.731  38.925  12.370
 4474W        W77542   6.281  37.434   1.887
 4475W        W77543   0.546  25.011   4.509
 4476W        W77544  38.002  22.527  14.943
 4477W        W77545  36.582   5.745  13.988
 4478W        W77546  20.667   3.348   3.056
 4479W        W77547  17.630   8.584   3.635
 4480W        W77548  19.026  20.784  12.320
 4481W        W77549  43.800  16.206   0.524
 4482W        W77550  13.989  35.109  14.333
 4483W        W77551  17.850  38.985  13.059
 4484W        W77552  38.288  23.542   1.720
 4485W        W77553   4.657  10.382  12.603
 4486W        W77554  26.929   4.441  12.910
 4487W        W77555  16.724  14.853   3.915
 4488W        W77556  36.166  25.508  12.973
 4489W        W77557  13.325  24.022   0.282
 4490W        W77558  40.359  40.259   0.357
 4491W        W77559  42.483  42.787  12.119
 4492W        W77560  37.612  32.111  12.511
 4493W        W77561  25.739  40.569   3.202
 4494W        W77562  44.860  38.670   3.280
 4495W        W77563  29.314  33.703   0.778
 4496W        W77564   5.540   4.627  10.925
 4497W        W77565   9.259  22.201   4.068
 4498W        W77566  36.810  35.667   4.770
 4499W        W77567  38.551  32.821  14.525
 4500W        W77568  40.869  43.069  13.351
 4501W        W77569  31.133   3.119   4.575
 4502W        W77570  19.246  10.068   0.657
 4503W        W77571   6.869   5.297   0.783
 4504W        W77572  44.439   1.834   3.359
 4505W        W77573  18.681   5.840   2.268
 4506W        W77574  44.403   6.347   1.439
 4507W        W77575  41.451   6.915   2.642
 4508W        W77576  25.131   1.433  13.318
 4509W        W77577   4.819  37.192   2.674
 4510W        W77578   9.444  16.827   0.081
 4511W        W77579  29.429   0.758  12.421
 4512W        W77580   4.330  40.095   4.520
 4513W        W77581   1.349  16.261  14.859
 4514W        W77582  25.686  38.036   3.740
 4515W        W77583  36.568   9.630  13.275
 4516W        W77584  17.115  12.264   4.397
 4517W        W77585  43.951  22.525   3.247
 4518W        W77586  19.816   0.262  11.543
 4519W        W77587  23.215  43.729  14.202
 4520W        W77588  15.341  20.222  13.991
 4521W        W77589  39.143  43.932   0.027
 4522W        W77590  24.166  37.443   1.511
 4523W        W77591   9.288  30.590   2.266
 4524W        W77592   1.334  30.877  10.629
 4525W        W77593  17.222  23.028  10.447
 4526W        W77594  34.971   2.005  12.440
 4527W        W77595  38.545  23.487   2.208
 4528W        W77596  37.523  34.557  11.581
 4529W        W77597  20.495  39.922  11.966
 4530W        W77598   9.782   0.359  10.579
 4531W        W77599  42.485  35.578  13.215
 4532W        W77600  10.998   0.503   1.912
 4533W        W77601  17.542  32.412  10.939
 4534W        W77602  31.870   3.651   4.262
 4535W        W77603  42.455  13.471  11.198
 4536W        W77604   6.364  21.260  12.010
 4537W        W77605  21.103  26.619  11.653
 4538W        W77606  38.385   1.733   2.311
 4539W        W77607  20.079  10.717   4.116
 4540W        W77608   5.023   2.286  13.748
 4541W        W77609  38.465  41.274  13.316
 4542W        W77610  25.546  19.797   0.316
 4543W        W77611   5.929  33.124  13.885
 4544W        W77612  40.514   7.679   0.003
 4545W        W77613  27.402  29.895  13.258
 4546W        W77614   5.345  32.035   4.143
 4547W        W77615  10.359  23.583  10.215
 4548W        W77616  39.529  32.515   0.361
 4549W        W77617  19.259  31.494   2.230
 4550W        W77618  15.344   8.984   0.765
 4551W        W77619  16.697   4.745   1.232
 4552W        W77620   6.673  23.653   2.424
 4553W        W77621  25.884  34.681   1.691
 4554W        W77622  21.794  39.927  10.490
 4555W        W77623  41.969   7.538  11.172
 4556W        W77624  40.817  39.072   0.239
 4557W        W77625  40.616   3.358  14.162
 4558W        W77626   0.844  29.433  12.917
 4559W        W77627  13.107  44.360  14.394
 4560W        W77628  38.167   6.304  10.190
 4561W        W77629  24.602  44.173   3.443
 4562W        W77630  20.209   5.251   0.827
 4563W        W77631  42.871   8.351   0.861
 4564W        W77632  18.981  16.072  12.521
 4565W        W77633  36.197  14.295   1.894
 4566W        W77634  41.989  29.736   2.210
 4567W        W77635  21.055  40.325   0.800
 4568W        W77636  37.298  15.138  13.895
 4569W        W77637  39.976  33.371  11.940
 4570W        W77638  18.769  25.163   0.462
 4571W        W77639  30.829   0.253  10.711
 4572W        W77640   1.332  22.044  14.044
 4573W        W77641   0.327  39.457   4.412
 4574W        W77642  15.751  27.214   1.656
 4575W        W77643  23.254  39.479   3.242
 4576W        W77644   0.279  32.125   4.126
 4577W        W77645  32.801  26.490   3.599
 4578W        W77646  35.837  18.819  11.647
 4579W        W77647  43.209  43.440   0.004
 4580W        W77648  44.694  30.499  13.869
 4581W        W77649  25.709  11.172  10.595
 4582W        W77650  26.375   3.687  14.937
 4583W        W77651  30.402  36.799  12.295
 4584W        W77652   2.436  38.480   1.381
 4585W        W77653   4.953  19.945   2.726
 4586W        W77654  22.780  19.129   0.824
 4587W        W77655  25.772  15.995   0.091
 4588W        W77656  22.195  42.840  13.895
 4589W        W77657  44.409  36.074   0.862
 4590W        W77658  20.054  39.393  11.593
 4591W        W77659  13.835  15.993  14.129
 4592W        W77660  22.704   9.676   1.333
 4593W        W77661  44.348  22.333  12.503
 4594W        W77662  36.291  40.957  13.123
 4595W        W77663  38.975  10.157  12.483
 4596W        W77664  22.094  40.687   4.866
 4597W        W77665   1.262  35.441  11.158
 4598W        W77666  39.643  37.937  13.308
 4599W        W77667   9.825   8.208   4.651
 4600W        W77668   7.357   5.461   0.745
 4601W        W77669  19.506  19.661   2.872
 4602W        W77670  32.561   9.460   2.761
 4603W        W77671   7.413  31.634  12.832
 4604W        W77672   4.243  41.371   4.868
 4605W        W77673  35.174  29.666   3.370
 4606W        W77674  30.447  16.153   3.644
 4607W        W77675  25.188  12.837   4.883
 4608W        W77676  10.203  37.529   1.695
 4609W        W77677  20.082  21.614  12.806
 4610W        W77678   4.221  11.240   1.347
 4611W        W77679  11.158  43.645   0.942
 4612W        W77680  14.029  30.136  12.567
 4613W        W77681  42.762   8.221  10.619
 4614W        W77682  11.399  26.577   4.001
 4615W        W77683   5.808   5.791  12.552
 4616W        W77684  39.569  35.263  14.519
 4617W        W77685  20.113   1.008   1.040
 4618W        W77686  41.686  37.876   2.442
 4619W        W77687  41.871  17.445   2.725
 4620W        W77688  11.518  40.474  13.925
 4621W        W77689  30.548  43.843   0.004
 4622W        W77690  40.909  39.771   4.108
 4623W        W77691  39.379  40.290   1.254
 4624W        W77692   7.468  33.355  12.476
 4625W        W77693   7.146  30.549   1.844
 4626W        W77694  13.537  39.967   0.378
 4627W        W77695  37.018   1.689  13.019
 4628W        W77696   7.690  28.917  10.391
 4629W        W77697  33.629  16.053  11.045
 4630W        W77698  16.812  31.017  12.428
 4631W        W77699  36.085   8.890  13.343
 4632W        W77700  29.126  31.370  10.911
 4633W        W77701  27.655  12.654  10.877
 4634W        W77702  40.052  37.058  12.326
 4635W        W77703  17.184   1.342   4.296
 4636W        W77704  30.681  16.158  12.971
 4637W        W77705  34.516  11.214   4.033
 4638W        W77706   5.430  22.893  12.450
 4639W        W77707  29.152  34.720  12.999
 4640W        W77708  21.927  16.111   1.651
 4641W        W77709   6.261  36.308  13.564
 4642W        W77710  24.558  13.846  11.988
 4643W        W77711  30.445  43.863  13.970
 4644W        W77712  35.132  38.389   1.875
 4645W        W77713  17.603  28.994   3.113
 4646W        W77714  30.026  16.235   3.194
 4647W        W77715  19.552  12.968  11.611
 4648W        W77716   0.891  27.898  12.996
 4649W        W77717  22.302  16.906   4.282
 4650W        W77718   6.456  38.440   4.377
 4651W        W77719  28.268  25.575  10.478
 4652W        W77720  16.797  21.112  10.966
 4653W        W77721  36.434  35.118  11.308
 4654W        W77722  14.132  23.465  12.112
 4655W        W77723  25.739  21.599  12.068
 4656W        W77724   6.810  21.247   3.206
 4657W        W77725  27.472  13.570  12.570
 4658W        W77726   3.332  41.309   4.586
 4659W        W77727   7.399  42.355  11.293
 4660W        W77728  43.387  30.370   4.026
 4661W        W77729  20.155  23.505  13.469
 4662W        W77730  22.769  19.709  11.049
 4663W        W77731  28.772  37.040  10.751
 4664W        W77732  16.764  11.758  13.298
 4665W        W77733  32.076  41.127  13.202
 4666W        W77734  18.193  37.800   4.819
 4667W        W77735  27.982   7.335   3.165
 4668W        W77736   6.423  43.814   2.778
 4669W        W77737   2.471  19.210   4.942
 4670W        W77738  32.628   6.475   1.986
 4671W        W77739  19.954   8.380   2.431
 4672W        W77740  10.615  21.513   1.148
 4673W        W77741  35.004  26.974  11.925
 4674W        W77742   7.710  42.234  12.855
 4675W        W77743   2.209  38.310   3.861
 4676W        W77744   6.087  28.921  14.807
 4677W        W77745  43.439   2.412  12.200
 4678W        W77746  15.899  15.064  11.651
 4679W        W77747  38.800  42.064  13.565
 4680W        W77748  16.661  31.570   3.267
 4681W        W77749  26.697  42.888   3.976
 4682W        W77750  37.821  20.180   2.431
 4683W        W77751  31.252  28.701   3.761
 4684W        W77752  24.671  31.653  12.841
 4685W        W77753  29.137  12.278  10.658
 4686W        W77754  13.380  16.150   3.047
 4687W        W77755  25.586  23.182   2.430
 4688W        W77756  15.653  31.238  13.411
 4689W        W77757   5.732  26.019  10.698
 4690W        W77758  12.856  22.704  11.930
 4691W        W77759   7.459  21.386   0.075
 4692W        W77760  21.259  24.458  14.980
 4693W        W77761  33.902  14.270  13.977
 4694W        W77762  26.524  40.784   0.668
 4695W        W77763   3.907   8.891   2.346
 4696W        W77764   0.214   3.406  11.919
 4697W        W77765  27.370  10.854  11.499
 4698W        W77766   0.289   9.471  14.836
 4699W        W77767  25.217   5.765   2.972
 4700W        W77768  13.821  15.776  14.815
 4701W        W77769   1.124  40.110  12.954
 4702W        W77770  31.918   8.137  11.995
 4703W        W77771  25.180  30.930   3.289
 4704W        W77772  30.387  40.525   3.006
 4705W        W77773  24.650  37.272   0.371
 4706W        W77774  14.757  10.248  14.726
 4707W        W77775  38.999   5.606  13.116
 4708W        W77776  19.814   7.991   3.636
 4709W        W77777  37.533  23.713  11.419
 4710W        W77778  14.236   0.776   0.346
 4711W        W77779  11.819  10.580   1.428
 4712W        W77780   2.144  31.021   4.136
 4713W        W77781  34.890  23.725   2.628
 4714W        W77782  36.360  16.311   1.923
 4715W        W77783  26.977  42.583   3.590
 4716W        W77784  19.269  21.510   4.780
 4717W        W77785  37.919  14.297   2.093
 4718W        W77786  20.058  18.348   0.642
 4719W        W77787  24.624  10.284   4.961
 4720W        W77788  43.235   4.239   1.199
 4721W        W77789  42.068  18.731  13.252
 4722W        W77790  31.824  29.551  11.563
 4723W        W77791  21.025  30.629   3.112
 4724W        W77792  18.083   8.215  10.676
 4725W        W77793  29.685  24.131  12.934
 4726W        W77794  25.276   7.466  11.174
 4727W        W77795  35.828  43.047  11.538
 4728W        W77796  44.883   6.414  14.462
 4729W        W77797  30.954  29.867  12.018
 4730W        W77798  18.210   2.010   3.591
 4731W        W77799   3.462  36.251   3.883
 4732W        W77800  21.948  24.071   0.940
 4733W        W77801   0.219  15.334   0.961
 4734W        W77802  14.216  39.922   4.036
 4735W        W77803  37.709   8.207  12.428
 4736W        W77804   1.150  12.246  13.355
 4737W        W77805   2.707  33.452   3.654
 4738W        W77806  32.596  42.389  14.305
 4739W        W77807  31.981  17.257   2.402
 4740W        W77808   8.264  39.102   9.871
 4741W        W77809  22.958  21.253  11.587
 4742W        W77810  14.031  29.723  14.465
 4743W        W77811  13.358   4.744   3.830
 4744W        W77812  37.998  38.430  12.324
 4745W        W77813  36.995  35.496  13.988
 4746W        W77814  11.291   5.374   1.993
 4747W        W77815  24.464  18.932   2.748
 4748W        W77816  22.041  15.187  11.732
 4749W        W77817  34.497  16.269   1.895
 4750W        W77818  41.698  37.517  12.468
 4751W        W77819  33.476  30.642  12.537
 4752W        W77820   9.619  37.023  12.413
 4753W        W77821   3.187  27.577   1.401
 4754W        W77822   0.644  43.032  13.876
 4755W        W77823  35.446  24.218  11.969
 4756W        W77824  44.847  23.698  12.819
 4757W        W77825  44.989  26.491   0.638
 4758W        W77826  30.357  17.113  13.899
 4759W        W77827   7.443  27.739   4.606
 4760W        W77828  16.201   2.897  10.633
 4761W        W77829  17.071   1.437  14.440
 4762W        W77830  15.018  28.140   3.156
 4763W        W77831  15.522  38.831   3.297
 4764W        W77832  30.951   9.317   1.263
 4765W        W77833  24.359   5.053  12.434
 4766W        W77834  12.788  14.101   2.253
 4767W        W77835  44.048  19.663   2.901
 4768W        W77836   8.435  36.332  14.748
 4769W        W77837  34.095   2.312   1.794
 4770W        W77838   2.655   4.899  12.743
 4771W        W77839  33.460  11.577  14.503
 4772W        W77840   2.247  12.798  12.631
 4773W        W77841  43.719  24.547  14.262
 4774W        W77842  32.097  13.500   1.175
 4775W        W77843  16.068  16.067  12.466
 4776W        W77844  15.400  26.668   4.614
 4777W        W77845  21.629  24.249  14.330
 4778W        W77846  26.511  29.706  11.635
 4779W        W77847   7.303  21.295  11.061
 4780W        W77848   7.633  14.550   3.740
 4781W        W77849   5.973  43.517   1.390
 4782W        W77850  22.035  32.625  14.321
 4783W        W77851  29.100   6.237  13.947
 4784W        W77852   6.652  35.054   2.429
 4785W        W77853  35.978  22.509  11.947
 4786W        W77854  35.547  21.990  11.478
 4787W        W77855  40.083  21.500   3.973
 4788W        W77856  20.784  41.795   2.279
 4789W        W77857  30.660   1.804   4.224
 4790W        W77858  26.781   1.888   1.711
 4791W        W77859  17.727  33.093  10.691
 4792W        W77860  34.865   9.911  11.478
 4793W        W77861  38.529   9.360   2.136
 4794W        W77862  12.079  23.157   4.110
 4795W        W77863  43.710  41.824  13.857
 4796W        W77864  16.070  21.430  11.581
 4797W        W77865  32.040  30.746  12.262
 4798W        W77866  18.856  35.000  14.264
 4799W        W77867  21.942  38.385  14.356
 4800W        W77868  23.869  12.810  14.786
 4801W        W77869  16.672  18.462  13.005
 4802W        W77870  30.509  37.500   2.597
 4803W        W77871   8.718  10.316   1.140
 4804W        W77872  25.673  25.216   1.257
 4805W        W77873  14.421  30.968   4.151
 4806W        W77874  18.424  42.491   0.867
 4807W        W77875  42.391  19.188   4.771
 4808W        W77876   4.845  17.129   1.217
 4809W        W77877  43.046  27.450   0.707
 4810W        W77878   9.415  25.575  12.297
 4811W        W77879  12.900  36.127   2.381
 4812W        W77880  25.535  38.421  13.914
 4813W        W77881  15.078   1.219  11.143
 4814W        W77882  25.065  17.609   4.408
 4815W        W77883   0.023  44.400   0.843
 4816W        W77884  17.141  24.100  13.454
 4817W        W77885  22.994   9.161   1.808
 4818W        W77886   1.892  28.848  11.544
 4819W        W77887  33.641  32.327  13.450
 4820W        W77888  20.632  20.807   3.101
 4821W        W77889  39.383  11.766   2.234
 4822W        W77890   3.285   4.318   0.647
 4823W        W77891  12.073  37.318  10.117
 4824W        W77892  29.139  30.073   0.247
 4825W        W77893   9.786   1.962   1.193
 4826W        W77894  41.738  22.021   2.913
 4827W        W77895   8.418  34.092   0.263
 4828W        W77896  44.545  11.120  12.051
 4829W        W77897  12.585  19.119   2.722
 4830W        W77898  20.312  38.413  13.874
 4831W        W77899  21.547  34.389  11.101
 4832W        W77900  21.534   5.363   3.594
 4833W        W77901  43.995   4.193   3.198
 4834W        W77902  42.314  40.034  14.674
 4835W        W77903  29.622  30.827  14.881
 4836W        W77904  21.677  29.082   1.772
 4837W        W77905  35.964  42.574  14.893
 4838W        W77906  27.566  38.051   4.254
 4839W        W77907  12.697  33.924  12.045
 4840W        W77908  29.586  41.376   4.509
 4841W        W77909   3.062  31.964   1.866
 4842W        W77910  38.290  32.070  10.800
 4843W        W77911  20.799  38.574  11.870
 4844W        W77912   1.613  37.276   1.290
 4845W        W77913  43.651  26.923   2.111
 4846W        W77914  39.061  21.022   1.335
 4847W        W77915   6.921  42.011   1.447
 4848W        W77916  38.743  21.267   2.644
 4849W        W77917   5.864  19.096   4.666
 4850W        W77918   7.420  17.162  13.335
 4851W        W77919  13.655  11.360  11.462
 4852W        W77920  34.152  11.939  13.020
 4853W        W77921  30.650  25.961   2.783
 4854W        W77922  34.520   4.897  10.400
 4855W        W77923  34.491  40.479  13.950
 4856W        W77924   0.446   4.194   0.651
 4857W        W77925  22.541  26.705  12.580
 4858W        W77926  30.868  12.275  13.111
 4859W        W77927  25.502  34.216   0.647
 4860W        W77928  22.031  18.845   0.760
 4861W        W77929  27.539   3.858   2.726
 4862W        W77930  33.009  23.684  14.012
 4863W        W77931  28.947  20.742   0.955
 4864W        W77932  29.732   3.851   3.349
 4865W        W77933   1.541   6.143  12.936
 4866W        W77934  27.077   0.846   0.008
 4867W        W77935  30.591   4.790  14.505
 4868W        W77936  13.129  33.850  12.420
 4869W        W77937  29.085  38.840   4.048
 4870W        W77938  40.897  33.484  14.441
 4871W        W77939  43.531   4.634  11.452
 4872W        W77940  24.705   2.354  11.222
 4873W        W77941  44.153  43.191  12.096
 4874W        W77942  18.761  18.252  11.531
 4875W        W77943   1.214  37.794  13.421
 4876W        W77944  34.202  35.848   3.693
 4877W        W77945   1.840  31.437  11.624
 4878W        W77946   8.574  35.995   0.463
 4879W        W77947   9.510  34.880  12.017
 4880W        W77948   3.232  34.489  12.492
 4881W        W77949   3.315   6.967   3.359
 4882W        W77950  34.378  24.737  13.434
 4883W        W77951  14.132   9.803   0.207
 4884W        W77952  43.886   5.852   4.702
 4885W        W77953  40.314   1.361   3.345
 4886W        W77954  36.031  36.725  11.040
 4887W        W77955  43.968  31.132  14.815
 4888W        W77956  12.289  14.080   2.130
 4889W        W77957  36.829  44.988  14.705
 4890W        W77958  29.627  44.528  11.522
 4891W        W77959  15.239  30.740   0.815
 4892W        W77960  30.992  42.377  11.550
 4893W        W77961  24.837  38.489  10.352
 4894W        W77962  29.407  27.119   2.911
 4895W        W77963  28.454   1.857  12.922
 4896W        W77964  41.903  36.381   3.668
 4897W        W77965  40.858  37.451   2.411
 4898W        W77966  21.152  23.485   3.612
 4899W        W77967  15.252  28.595   2.209
 4900W        W77968  33.812  22.188   3.205
 4901W        W77969  24.772  21.757  14.843
 4902W        W77970  42.063  36.374  13.915
 4903W        W77971  42.767  28.233   2.666
 4904W        W77972  34.468   8.632   4.415
 4905W        W77973  44.123   4.736  11.268
 4906W        W77974   2.802  16.200   2.417
 4907W        W77975  14.506  12.293  12.346
 4908W        W77976  14.627   7.285   2.868
 4909W        W77977  23.432  35.693   2.886
 4910W        W77978  31.969  31.490  12.464
 4911W        W77979  29.427  39.796   2.212
 4912W        W77980  30.575  13.825   0.788
 4913W        W77981  10.817  36.023  10.443
 4914W        W77982  24.578  36.234   2.538
 4915W        W77983  29.709  43.704   2.279
 4916W        W77984  24.665  21.783  11.964
 4917W        W77985  12.107  26.626   0.813
 4918W        W77986  41.807   0.457   3.197
 4919W        W77987  40.654  11.672  14.219
 4920W        W77988   8.053   3.274   1.757
 4921W        W77989  39.056  18.060  12.684
 4922W        W77990  15.976  42.403  11.933
 4923W        W77991   2.466  21.983   3.829
 4924W        W77992  33.038  20.795  12.402
 4925W        W77993   6.957  41.658   9.864
 4926W        W77994  17.615  14.216   0.704
 4927W        W77995  22.507   1.367  11.455
 4928W        W77996  11.215  20.267   1.840
 4929W        W77997  35.729  41.432   2.284
 4930W        W77998   8.037   7.112   0.667
 4931W        W77999  34.415   3.219   0.372
 4932W        W78000  39.323  40.410   2.220
 4933W        W78001  40.082  12.920   3.393
 4934W        W78002   1.993  40.999  12.283
 4935W        W78003  21.192  39.524  14.344
 4936W        W78004  12.554  39.600  11.204
 4937W        W78005  32.643  13.982  11.953
 4938W        W78006  25.682  28.116  13.354
 4939W        W78007  15.681  41.056   4.152
 4940W        W78008  21.981  19.769   2.676
 4941W        W78009  25.669   5.222   4.107
 4942W        W78010  38.311  10.892  12.382
 4943W        W78011  40.684  44.365  13.406
 4944W        W78012  40.528  25.231   3.703
 4945W        W78013  12.489  32.376  14.785
 4946W        W78014   3.317   6.818   0.214
 4947W        W78015   4.000  21.640  13.445
 4948W        W78016  11.666  20.903  12.039
 4949W        W78017   8.521   0.111  12.140
 4950W        W78018   2.796   5.302   4.106
 4951W        W78019  18.658  43.081   4.328
 4952W        W78020  23.441  12.859   1.332
 4953W        W78021  22.056   4.307  14.104
 4954W        W78022   5.714  21.063   2.629
 4955W        W78023  21.512   3.419   0.272
 4956W        W78024  14.601  21.350  11.300
 4957W        W78025   6.267  14.801   0.785
 4958W        W78026   0.964  25.603   0.904
 4959W        W78027  42.238  32.397   0.882
 4960W        W78028  35.147  22.394  11.370
 4961W        W78029   0.220   5.691  14.985
 4962W        W78030  17.586   2.358   4.623
 4963W        W78031   0.762   8.269  13.571
 4964W        W78032   1.424  41.465  13.353
 4965W        W78033  29.671  43.511  14.795
 4966W        W78034  21.191   1.431   5.172
 4967W        W78035  43.819  29.117  10.889
 4968W        W78036  26.630  42.530   2.782
 4969W        W78037  13.138   6.173  14.392
 4970W        W78038  39.795  44.198   2.300
 4971W        W78039  41.701  35.553  10.776
 4972W        W78040  39.380   0.102  10.690
 4973W        W78041  32.836   8.113   1.408
 4974W        W78042  29.912  41.726  10.820
 4975W        W78043  28.140  44.193   4.080
 4976W        W78044   6.480   4.302  12.885
 4977W        W78045   0.968  34.907  13.929
 4978W        W78046  31.362   6.306   3.752
 4979W        W78047  42.351  40.862   3.241
 4980W        W78048   3.975  14.330   0.758
 4981W        W78049  26.121  12.891   1.336
 4982W        W78050   8.266  25.884   3.384
 4983W        W78051  32.032  14.403   2.176
 4984W        W78052   6.731  38.260  10.716
 4985W        W78053  22.931   3.429   1.775
 4986W        W78054  21.169  22.734   2.699
 4987W        W78055  35.594  32.550  13.770
 4988W        W78056  12.452   5.292  13.537
 4989W        W78057   4.750  15.689  12.664
 4990W        W78058   5.638  12.313   4.198
 4991W        W78059  17.807  42.761  10.670
 4992W        W78060  18.042  29.069   3.391
 4993W        W78061   4.301  31.525   1.846
 4994W        W78062   0.409  19.456  11.103
 4995W        W78063  12.880  15.685   3.641
 4996W        W78064  41.610  32.394   4.989
 4997W        W78065  44.261  24.159   1.451
 4998W        W78066   4.973   0.646   1.449
 4999W        W78067   9.419  27.131   3.750
 5000W        W78068  36.009  37.391  13.160
 5001W        W78069  26.611  44.863   2.580
 5002W        W78070  15.267  36.527   2.427
 5003W        W78071   8.764  22.395   4.189
 5004W        W78072  33.319   9.625   1.327
 5005W        W78073  37.777  39.345  12.817
 5006W        W78074  35.299   6.384   3.250
 5007W        W78075   7.868   1.930   2.157
 5008W        W78076  14.691  43.975   1.760
 5009W        W78077  36.996  37.279  13.504
 5010W        W78078   7.739  14.635   3.235
 5011W        W78079  36.896   7.678   1.479
 5012W        W78080  29.406  24.212  12.458
 5013W        W78081   3.344  10.485  11.439
 5014W        W78082  26.949  34.841  14.477
 5015W        W78083  41.016  15.110  13.016
 5016W        W78084  22.940  28.141   0.535
 5017W        W78085  17.747  25.711   0.863
 5018W        W78086   4.701  21.177  14.313
 5019W        W78087  39.951  40.523   4.619
 5020W        W78088  32.148   3.911  12.230
 5021W        W78089  37.798   3.357  14.867
 5022W        W78090  40.461  20.430   4.619
 5023W        W78091  34.545   6.582   0.848
 5024W        W78092  13.564  15.295  12.987
 5025W        W78093  25.144  44.298   1.934
 5026W        W78094  43.559  34.376  10.782
 5027W        W78095   4.965  42.103  14.416
 5028W        W78096   1.192  27.246   0.277
 5029W        W78097   8.765  13.251  10.765
 5030W        W78098   4.748  14.519  14.710
 5031W        W78099   0.753   0.657   0.407
 5032W        W78100  20.694  35.400  10.445
 5033W        W78101   1.179   1.384  14.429
 5034W        W78102   2.001  27.108  14.677
 5035W        W78103  38.239   0.242  11.885
 5036W        W78104   4.310  29.039   0.893
 5037W        W78105  40.478  15.090  13.921
 5038W        W78106  11.207  29.090  12.527
 5039W        W78107  21.552  37.353   4.558
 5040W        W78108   1.639  17.276  11.160
 5041W        W78109  32.857  27.293  14.972
 5042W        W78110  23.537   0.451   3.912
 5043W        W78111  13.059  14.775  11.110
 5044W        W78112  11.369  24.708  11.875
 5045W        W78113  44.259  30.218   0.451
 5046W        W78114  28.789  30.392   0.002
 5047W        W78115   5.971   1.702  13.058
 5048W        W78116  16.801  23.270  14.232
 5049W        W78117  42.850  10.896  12.553
 5050W        W78118   5.008  33.018   1.731
 5051W        W78119  27.935  35.828   1.440
 5052W        W78120  10.629   3.810   0.132
 5053W        W78121   3.488   3.298  11.974
 5054W        W78122  32.396  21.774   3.249
 5055W        W78123  30.845  40.424   2.202
 5056W        W78124  40.055  36.843  11.486
 5057W        W78125  41.647   3.733  10.496
 5058W        W78126  21.243  44.385   3.760
 5059W        W78127  21.559  17.330  10.990
 5060W        W78128   3.662  13.581  12.856
 5061W        W78129  20.628  26.037  13.504
 5062W        W78130   8.253   6.196   1.290
 5063W        W78131  21.648   8.191   1.166
 5064W        W78132  30.675  37.293  11.591
 5065W        W78133   2.021  26.238   3.783
 5066W        W78134  13.089  17.665   2.776
 5067W        W78135  33.061   2.395   2.000
 5068W        W78136  43.460  38.548   1.387
 5069W        W78137  37.450  43.993  11.115
 5070W        W78138  24.598   0.265   1.262
 5071W        W78139  25.027  10.155  12.284
 5072W        W78140  39.432   8.660  11.861
 5073W        W78141  12.767  11.452  12.313
 5074W        W78142  36.805  29.188  11.239
 5075W        W78143  25.717   5.895  11.173
 5076W        W78144   1.219  21.178  11.503
 5077W        W78145  41.749  20.818   4.168
 5078W        W78146  26.442  40.774   1.202
 5079W        W78147   7.734  17.623   1.193
 5080W        W78148  11.823  28.623   2.398
 5081W        W78149  23.194  32.827  14.710
 5082W        W78150  17.947  13.879  13.460
 5083W        W78151  17.561  28.743   1.755
 5084W        W78152   1.993   4.725  10.631
 5085W        W78153  35.371   9.100   1.701
 5086W        W78154   7.273  43.386   1.490
 5087W        W78155   1.838  29.078  11.102
 5088W        W78156   3.838  19.970  12.128
 5089W        W78157  14.667  14.477  13.419
 5090W        W78158  44.593   0.716  13.037
 5091W        W78159  10.696   3.960  12.722
 5092W        W78160   2.181  16.073   4.515
 5093W        W78161   5.325   5.814  11.783
 5094W        W78162  38.852  41.542  13.516
 5095W        W78163  38.452  37.013  14.255
 5096W        W78164   3.361  37.368   1.250
 5097W        W78165  12.074  41.761  14.835
 5098W        W78166   9.376  15.255  12.805
 5099W        W78167  20.980  21.683   0.711
 5100W        W78168  41.501  13.721  12.991
 5101W        W78169   5.690  34.839  14.440
 5102W        W78170  21.083  25.805  12.416
 5103W        W78171  32.458  41.297  10.477
 5104W        W78172  20.104  41.983  14.187
 5105W        W78173   5.768  38.230  10.539
 5106W        W78174  30.841  39.434   4.238
 5107W        W78175  18.044  42.008  11.693
 5108W        W78176  26.477   4.716  14.456
 5109W        W78177  11.340  18.702  14.709
 5110W        W78178  34.103  36.873  14.439
 5111W        W78179  11.760  36.671  11.069
 5112W        W78180  36.834  10.235  14.874
 5113W        W78181  36.984   6.148   3.651
 5114W        W78182  34.149  23.932  13.519
 5115W        W78183   3.117  29.944   4.602
 5116W        W78184   7.247  16.790   1.298
 5117W        W78185  24.618  24.924   0.049
 5118W        W78186  19.135  13.778  14.290
 5119W        W78187  11.700  29.819  13.140
 5120W        W78188  14.336  17.767   4.529
 5121W        W78189   6.617  28.610   3.624
 5122W        W78190   8.655  22.707   1.306
 5123W        W78191  38.331   9.378  11.165
 5124W        W78192  14.267  29.736   3.729
 5125W        W78193   8.797   6.040  12.402
 5126W        W78194   9.392  15.161   1.053
 5127W        W78195  21.359  19.302  10.071
 5128W        W78196   9.731  13.681  11.667
 5129W        W78197  24.992  13.751   2.721
 5130W        W78198  19.998  27.480  13.797
 5131W        W78199  21.656  40.720   4.049
 5132W        W78200   1.807  23.475  14.913
 5133W        W78201  17.332  10.040   3.664
 5134W        W78202  10.425  42.862  11.584
 5135W        W78203  32.616   7.108  14.746
 5136W        W78204   1.061  26.958  14.646
 5137W        W78205  22.065  29.806   1.827
 5138W        W78206  40.530   4.844   1.928
 5139W        W78207   3.694  25.124  10.668
 5140W        W78208  35.454  16.107  14.562
 5141W        W78209  37.661  24.712   2.917
 5142W        W78210  43.903  22.665   4.586
 5143W        W78211   8.829  31.900   9.981
 5144W        W78212  40.904   5.342  14.413
 5145W        W78213   8.352  35.990  12.380
 5146W        W78214  22.612   5.601  13.295
 5147W        W78215  19.614  15.189   4.438
 5148W        W78216  13.383  41.237  14.042
 5149W        W78217   0.599   0.483  13.104
 5150W        W78218  23.947  34.864  12.606
 5151W        W78219  10.462  20.705   1.892
 5152W        W78220  37.461  18.322  11.158
 5153W        W78221  33.990  11.283  11.924
 5154W        W78222   6.315   6.693   4.632
 5155W        W78223  42.983   3.545   2.052
 5156W        W78224  28.836  33.651  11.891
 5157W        W78225  43.909   8.130   0.929
 5158W        W78226  19.647  24.699  12.442
 5159W        W78227   0.393  42.734   1.988
 5160W        W78228   9.937  25.002  10.697
 5161W        W78229  43.975  34.093  14.398
 5162W        W78230  28.804  11.320  11.040
 5163W        W78231  36.010   9.764   2.816
 5164W        W78232   1.749  33.299  12.123
 5165W        W78233  32.960  12.756   4.870
 5166W        W78234  43.029  29.214  14.380
 5167W        W78235  13.162  34.563  10.813
 5168W        W78236  28.074  23.049   3.744
 5169W        W78237  11.299  40.505  14.395
 5170W        W78238  17.843  29.210  13.459
 5171W        W78239  37.826  43.251   2.912
 5172W        W78240  36.720  40.834  12.163
 5173W        W78241  35.928   0.422  13.852
 5174W        W78242  42.262  43.632  13.971
 5175W        W78243  35.541  43.792  14.586
 5176W        W78244  12.640  41.854   3.758
 5177W        W78245   5.690   5.924  13.619
 5178W        W78246  16.633   9.384   3.129
 5179W        W78247  25.480  20.162   3.406
 5180W        W78248  42.914  34.066   3.682
 5181W        W78249  28.394  35.582   1.431
 5182W        W78250  25.437  28.597  12.183
 5183W        W78251  29.052   3.985   1.683
 5184W        W78252   2.706   2.731  11.133
 5185W        W78253   4.013   6.641  13.045
 5186W        W78254  21.232  40.385   4.520
 5187W        W78255  12.769  15.577  12.441
 5188W        W78256  39.382   3.900   1.283
 5189W        W78257  16.231  15.766   3.569
 5190W        W78258  15.853   5.176   3.843
 5191W        W78259  32.915  14.000   4.102
 5192W        W78260  35.833  26.547   0.482
 5193W        W78261  26.498  31.018   4.501
 5194W        W78262  36.152   0.870   1.377
 5195W        W78263  39.817  34.630   0.881
 5196W        W78264   2.670  13.053  14.534
 5197W        W78265  25.054  18.441   3.129
 5198W        W78266   1.423  39.412  13.655
 5199W        W78267  28.707   9.217  13.139
 5200W        W78268  22.785  10.234   3.169
 5201W        W78269   7.701  36.001   0.868
 5202W        W78270  39.761   4.791   2.376
 5203W        W78271  24.268   8.742  11.073
 5204W        W78272  27.777  38.922   4.479
 5205W        W78273  36.028  25.204   2.326
 5206W        W78274   4.459   8.601   3.758
 5207W        W78275  20.005  29.331  12.136
 5208W        W78276  18.470  27.251  14.532
 5209W        W78277   7.090  25.424  11.123
 5210W        W78278   9.933  14.407   3.315
 5211W        W78279  39.667  12.409  14.978
 5212W        W78280  32.988  33.583  13.434
 5213W        W78281  17.562  18.950   4.864
 5214W        W78282  40.304   0.091  11.572
 5215W        W78283  11.301  10.920  13.259
 5216W        W78284  32.868  23.499  10.990
 5217W        W78285  22.741  21.190  12.816
 5218W        W78286  26.148  18.450   0.844
 5219W        W78287  37.938  33.960   3.952
 5220W        W78288  37.227  12.109  14.549
 5221W        W78289  25.598   6.997   2.596
 5222W        W78290   9.317  13.248   1.478
 5223W        W78291   9.090   3.341  10.619
 5224W        W78292  23.160   8.938   2.260
 5225W        W78293  21.069  35.038  14.841
 5226W        W78294  24.204  38.352  14.750
 5227W        W78295   3.730  35.138  12.650
 5228W        W78296  38.025  23.592  11.564
 5229W        W78297  16.102  24.306  10.371
 5230W        W78298  38.509  26.641   3.328
 5231W        W78299   0.295  39.521  14.306
 5232W        W78300  39.834  41.734   1.876
 5233W        W78301   1.688  42.353   2.325
 5234W        W78302   3.794  30.124   0.369
 5235W        W78303  32.986  10.492  13.039
 5236W        W78304  39.433  30.067  12.442
 5237W        W78305   7.855  33.444   2.513
 5238W        W78306   9.753  26.541   1.846
 5239W        W78307  34.150  18.995  10.575
 5240W        W78308  14.226   0.702  12.885
 5241W        W78309  26.590  38.609   2.639
 5242W        W78310  15.429  16.238  11.157
 5243W        W78311  27.793  29.117  14.293
 5244W        W78312  44.913  26.379   1.909
 5245W        W78313  30.452  34.391   1.284
 5246W        W78314  25.125  10.964   2.193
 5247W        W78315   0.476  43.391   1.360
 5248W        W78316  44.972   1.832  12.564
 5249W        W78317  15.097  18.927  11.546
 5250W        W78318   9.865   5.446  11.194
 5251W        W78319   4.710  21.068   4.609
 5252W        W78320  10.128  16.812   1.910
 5253W        W78321  15.846  27.434  13.005
 5254W        W78322  41.837  23.067   0.564
 5255W        W78323  15.867  28.615  12.490
 5256W        W78324  31.608  33.362   0.239
 5257W        W78325  32.836  16.296   3.746
 5258W        W78326  39.691   5.417   5.359
 5259W        W78327  19.680  36.460  13.852
 5260W        W78328   6.355  11.794   3.793
 5261W        W78329  44.019  11.750   0.750
 5262W        W78330   8.125   7.236  13.816
 5263W        W78331  16.030  41.746   0.078
 5264W        W78332  41.479  43.075  12.333
 5265W        W78333  39.642  12.744   3.179
 5266W        W78334  22.157  43.342   0.050
 5267W        W78335  36.049   4.771   4.483
 5268W        W78336  23.515  14.574   1.691
 5269W        W78337  26.065   3.566   3.209
 5270W        W78338  34.579  26.434  14.982
 5271W        W78339  41.866   2.985   0.236
 5272W        W78340  14.043  42.506   0.282
 5273W        W78341  14.960  37.547  12.511
 5274W        W78342  37.603  31.744  14.581
 5275W        W78343   9.905  40.285   3.756
 5276W        W78344   3.000   1.951   2.617
 5277W        W78345  35.504  11.251  12.942
 5278W        W78346  31.425  16.623   2.269
 5279W        W78347   0.347  20.940   3.238
 5280W        W78348   6.891   5.646   4.140
 5281W        W78349  10.956  40.143  10.682
 5282W        W78350  12.946  14.942  14.960
 5283W        W78351   8.298  21.048   0.972
 5284W        W78352   4.695  24.702  11.090
 5285W        W78353  29.612   5.495   1.291
 5286W        W78354  12.884  15.696   2.172
 5287W        W78355  39.765  15.084   0.960
 5288W        W78356  21.576  25.613   4.610
 5289W        W78357  11.205   6.370  11.974
 5290W        W78358  29.685  18.187   0.720
 5291W        W78359  36.839   4.215  12.577
 5292W        W78360  27.344  26.576  11.459
 5293W        W78361  12.901  36.579   2.124
 5294W        W78362   0.448  14.551  12.023
 5295W        W78363  17.287  24.800  11.044
 5296W        W78364  26.546  12.145   1.896
 5297W        W78365  39.709  41.634   3.708
 5298W        W78366   3.325   6.751  14.695
 5299W        W78367   0.532  44.427  14.973
 5300W        W78368  26.675   8.317  13.372
 5301W        W78369   9.862  38.107  14.236
 5302W        W78370  15.606  35.033  12.002
 5303W        W78371  30.633  26.106  11.125
 5304W        W78372  24.347  37.170   2.223
 5305W        W78373  19.523  33.860  11.091
 5306W        W78374  28.255  41.477  13.179
 5307W        W78375  24.781  35.264  12.811
 5308W        W78376  40.831  15.108   3.795
 5309W        W78377   3.332  16.723  10.243
 5310W        W78378   2.194   3.325   2.814
 5311W        W78379  40.394   0.203  10.711
 5312W        W78380  20.614  27.613   3.447
 5313W        W78381  33.436  31.074  14.376
 5314W        W78382  40.022  35.910   1.424
 5315W        W78383  26.537  40.984  12.125
 5316W        W78384  21.299  36.096   4.228
 5317W        W78385   3.257   8.270   4.954
 5318W        W78386  27.943  32.023   4.273
 5319W        W78387  35.418  29.815  14.547
 5320W        W78388   3.553  10.939   0.053
 5321W        W78389  39.949   0.357   1.473
 5322W        W78390  21.123  39.787   2.536
 5323W        W78391  25.592  32.366   1.950
 5324W        W78392  20.235   6.402   4.116
 5325W        W78393  11.739  41.085   4.674
 5326W        W78394  27.919  36.446  13.643
 5327W        W78395  34.544  39.348   3.904
 5328W        W78396  12.866  19.172   3.691
 5329W        W78397  22.039  30.017  14.264
 5330W        W78398  18.741  18.107   4.687
 5331W        W78399  25.103   2.594   1.490
 5332W        W78400  19.038  14.224  12.037
 5333W        W78401  32.042   8.700  14.468
 5334W        W78402  13.972  19.511   3.650
 5335W        W78403  10.623  38.487  13.924
 5336W        W78404  24.800  35.518  11.102
 5337W        W78405  35.275  22.116  14.014
 5338W        W78406   8.739  35.355   2.669
 5339W        W78407   4.720  32.145   3.732
 5340W        W78408  17.361   5.270   3.822
 5341W        W78409   9.694   4.588  13.769
 5342W        W78410   4.872  15.208  10.373
 5343W        W78411   1.383  16.604   3.408
 5344W        W78412  31.482  13.324  12.023
 5345W        W78413  33.094  12.833   2.450
 5346W        W78414  44.837  34.564   4.063
 5347W        W78415   5.297   6.510  10.613
 5348W        W78416  41.206   7.221  14.882
 5349W        W78417  32.565  10.567   1.302
 5350W        W78418  38.796  37.888   1.298
 5351W        W78419  27.079   2.708  13.368
 5352W        W78420   0.355   5.411   4.176
 5353W        W78421  28.693   4.724  13.984
 5354W        W78422  25.080   6.150   0.686
 5355W        W78423  38.907   2.627  14.565
 5356W        W78424  38.674  21.723   2.390
 5357W        W78425  28.375   1.300   4.887
 5358W        W78426  43.342   1.394   3.990
 5359W        W78427   5.189  35.023   2.183
 5360W        W78428  41.046  18.165   3.682
 5361W        W78429  31.819  17.537   4.168
 5362W        W78430   0.875   8.989  14.277
 5363W        W78431  30.877  31.040   1.280
 5364W        W78432  38.754  29.033  11.045
 5365W        W78433  31.043  26.336  10.950
 5366W        W78434   8.354  12.689  14.819
 5367W        W78435  16.619  14.871   4.959
 5368W        W78436  18.660  11.290   1.069
 5369W        W78437  11.117  17.072  12.930
 5370W        W78438  29.983  21.106  14.698
 5371W        W78439  23.504  44.309   0.934
 5372W        W78440  29.077  36.037   1.401
 5373W        W78441  24.778   2.894   4.590
 5374W        W78442  15.758  26.874  13.961
 5375W        W78443  18.616  22.265  10.597
 5376W        W78444  33.032  28.748   4.785
 5377W        W78445  42.186  29.677   3.695
 5378W        W78446  43.946  14.192   4.110
 5379W        W78447  25.772  10.907  12.950
 5380W        W78448  26.963  11.924  13.341
 5381W        W78449  26.262  31.449   1.339
 5382W        W78450  24.550  34.872  12.550
 5383W        W78451   8.246  29.656  13.803
 5384W        W78452  37.873   7.199   2.708
 5385W        W78453   5.425   7.664   3.790
 5386W        W78454  23.619  31.644   1.391
 5387W        W78455  30.185  33.828   2.278
 5388W        W78456  24.261  39.953   1.175
 5389W        W78457   0.840  29.144  13.799
 5390W        W78458   0.968  26.178   0.881
 5391W        W78459  19.362   4.419   1.289
 5392W        W78460   0.927   6.577   4.622
 5393W        W78461  42.580  30.693   1.303
 5394W        W78462  13.697  31.976  11.994
 5395W        W78463   6.276   7.400  12.511
 5396W        W78464  44.003  20.709   1.189
 5397W        W78465  39.615  43.973  14.795
 5398W        W78466  10.840  20.600   3.251
 5399W        W78467  35.234  25.639   3.351
 5400W        W78468  35.123  16.284  11.501
 5401W        W78469  22.285  33.580   3.547
 5402W        W78470  31.702  15.724  12.581
 5403W        W78471  44.433  30.839   2.663
 5404W        W78472  13.318  31.591   0.273
 5405W        W78473  33.420  25.658   4.127
 5406W        W78474  39.371  11.792  14.015
 5407W        W78475  20.208  14.103   3.830
 5408W        W78476   4.981   8.292   3.297
 5409W        W78477  31.050  24.230  12.052
 5410W        W78478   5.907  38.579  13.754
 5411W        W78479  36.391  26.100  10.677
 5412W        W78480  24.089  28.559  14.043
 5413W        W78481  35.821  12.941  11.223
 5414W        W78482  10.952  29.551  12.055
 5415W        W78483  24.308  43.261   1.693
 5416W        W78484  35.091  21.224  14.341
 5417W        W78485  43.485  29.003  14.554
 5418W        W78486  18.501  28.333   1.924
 5419W        W78487  42.247  28.746  11.914
 5420W        W78488  28.596  40.028  13.101
 5421W        W78489  22.647  34.997   2.389
 5422W        W78490   5.237   3.200  12.587
 5423W        W78491  13.837   2.835  12.879
 5424W        W78492   6.563  21.649   4.309
 5425W        W78493  13.857   8.144   3.267
 5426W        W78494  30.426  13.894  12.107
 5427W        W78495  13.732  30.054  10.782
 5428W        W78496  40.352   9.607  11.052
 5429W        W78497  10.176   1.766  12.536
 5430W        W78498  30.424   2.360   4.082
 5431W        W78499   0.934  40.547   4.331
 5432W        W78500  39.282  10.944   0.136
 5433W        W78501  38.523   6.191   4.987
 5434W        W78502  11.816  28.568  14.917
 5435W        W78503  33.745  21.713  14.388
 5436W        W78504   1.923  44.262  13.909
 5437W        W78505  31.092  29.963  14.950
 5438W        W78506  34.783  38.350  13.561
 5439W        W78507   2.746  20.618  14.010
 5440W        W78508   9.253  40.066   0.888
 5441W        W78509  35.907  36.165   3.272
 5442W        W78510  24.199   4.928   4.109
 5443W        W78511  11.827  43.425   3.809
 5444W        W78512  28.189  32.059   3.806
 5445W        W78513  21.470  42.464  11.965
 5446W        W78514  31.043  28.005   3.147
 5447W        W78515  36.381  13.292  13.410
 5448W        W78516  21.133  34.380  12.204
 5449W        W78517  24.949  19.058  12.063
 5450W        W78518  43.948   8.647   4.064
 5451W        W78519  29.459   4.862  10.564
 5452W        W78520  18.758  28.580  14.503
 5453W        W78521  15.803   9.238  10.229
 5454W        W78522  10.161  39.845   4.652
 5455W        W78523  34.343  26.129  13.927
 5456W        W78524   9.076  16.765   4.609
 5457W        W78525  21.590   4.669  14.764
 5458W        W78526   0.427  12.814   0.972
 5459W        W78527  43.454  26.659   2.800
 5460W        W78528   7.510  15.206   4.066
 5461W        W78529  42.035   6.451  11.986
 5462W        W78530  23.576  19.962   5.488
 5463W        W78531  36.057  13.910  11.060
 5464W        W78532  39.029  11.208   0.483
 5465W        W78533  28.233   9.296   2.161
 5466W        W78534  39.875  25.089  11.833
 5467W        W78535   3.643  25.130   1.754
 5468W        W78536  27.888   3.236   1.352
 5469W        W78537  37.448   6.124   2.767
 5470W        W78538  31.605  20.934   1.238
 5471W        W78539  38.475  11.791   2.672
 5472W        W78540   9.912  44.914   0.616
 5473W        W78541  24.649  12.598   0.378
 5474W        W78542  26.991  43.996   1.791
 5475W        W78543   8.194  33.624  11.696
 5476W        W78544   6.300  20.470   2.341
 5477W        W78545  18.898  30.169   2.266
 5478W        W78546   2.305   9.337   2.161
 5479W        W78547   8.133  17.028  13.937
 5480W        W78548   6.384  29.734   4.290
 5481W        W78549  14.848  32.036   3.608
 5482W        W78550   5.417  12.127   2.856
 5483W        W78551  34.001  14.274  10.867
 5484W        W78552  14.957  28.566   3.442
 5485W        W78553  24.515  17.041   3.336
 5486W        W78554  36.950  26.018  14.005
 5487W        W78555  15.728  28.932  14.032
 5488W        W78556  42.719  29.750   4.137
 5489W        W78557  42.368  22.545   2.332
 5490W        W78558  38.388  32.835   0.060
 5491W        W78559  43.534  13.239   2.788
 5492W        W78560  23.942   5.316  14.936
 5493W        W78561  31.809  27.956  11.251
 5494W        W78562  41.426  43.774  14.824
 5495W        W78563  27.168  20.299   3.864
 5496W        W78564   0.968  40.968  13.909
 5497W        W78565   4.327  29.374   3.630
 5498W        W78566  41.800  29.232  14.907
 5499W        W78567  17.109  31.199  12.978
 5500W        W78568  11.203  41.082  12.809
 5501W        W78569  28.714  35.122   2.767
 5502W        W78570  26.129  39.250   4.594
 5503W        W78571  15.282  17.196   1.292
 5504W        W78572   4.790  32.538  10.528
 5505W        W78573   8.632   6.321  14.952
 5506W        W78574  30.461   6.628   3.032
 5507W        W78575  15.323  32.417   2.909
 5508W        W78576  40.003   7.168  11.871
 5509W        W78577  44.976  13.597  11.139
 5510W        W78578  42.773  14.274  10.926
 5511W        W78579  38.940  22.022  14.005
 5512W        W78580   7.432   5.314  14.835
 5513W        W78581   1.376  36.267   4.571
 5514W        W78582  20.957  38.930   4.224
 5515W        W78583   3.056  10.347  13.873
 5516W        W78584   6.129   1.763   0.509
 5517W        W78585   5.826  17.083  12.119
 5518W        W78586  25.061   8.176   2.274
 5519W        W78587  44.775  15.688  11.859
 5520W        W78588  17.474  11.443  11.108
 5521W        W78589   5.745   5.184   1.822
 5522W        W78590   5.751  19.009   4.156
 5523W        W78591  14.245  42.194  11.261
 5524W        W78592  15.792  16.097  12.919
 5525W        W78593  17.025   2.745  14.495
 5526W        W78594  27.616  40.454   1.395
 5527W        W78595  34.391  11.688  14.779
 5528W        W78596  21.246  10.663  10.490
 5529W        W78597  32.146  27.179   3.423
 5530W        W78598  42.401  17.634  12.343
 5531W        W78599  29.940  18.295   3.868
 5532W        W78600   7.449   1.733   4.721
 5533W        W78601  34.019  13.394  14.947
 5534W        W78602  24.586  44.180  12.470
 5535W        W78603   1.929  40.101  12.026
 5536W        W78604  42.100  37.567   0.426
 5537W        W78605  41.256  27.357  11.811
 5538W        W78606   1.203  40.198   3.049
 5539W        W78607  36.503   7.512   4.536
 5540W        W78608  14.199  42.821   1.172
 5541W        W78609  36.941  30.927  14.920
 5542W        W78610  32.312  26.793   0.342
 5543W        W78611  28.437  33.473   1.212
 5544W        W78612  33.616  17.559   3.724
 5545W        W78613  18.832  34.725  12.232
 5546W        W78614  25.038   4.010   2.415
 5547W        W78615  26.875  27.907  12.112
 5548W        W78616  15.373   3.488  10.418
 5549W        W78617  34.126  26.653  14.906
 5550W        W78618   3.434  40.580   2.287
 5551W        W78619   0.758   8.722  12.734
 5552W        W78620  30.846  10.243   2.813
 5553W        W78621   8.321   1.251   4.819
 5554W        W78622  10.833  43.093  14.720
 5555W        W78623  25.497   7.876  14.343
 5556W        W78624   9.991  24.474   1.378
 5557W        W78625  26.041  44.360  14.499
 5558W        W78626  34.522  14.339   0.529
 5559W        W78627  42.008  43.789   0.290
 5560W        W78628  25.660  38.931   3.810
 5561W        W78629  21.664  44.121   0.610
 5562W        W78630  12.248   4.329   3.154
 5563W        W78631  16.940  40.520   4.680
 5564W        W78632   2.443  26.577  14.985
 5565W        W78633   1.238  22.005  14.548
 5566W        W78634  21.310   0.756  12.374
 5567W        W78635  27.238  44.497  11.142
 5568W        W78636  42.790  13.610  11.602
 5569W        W78637  35.004  36.512   3.097
 5570W        W78638  38.079  26.015  11.562
 5571W        W78639  23.464  34.421  14.411
 5572W        W78640   9.796  39.043  11.717
 5573W        W78641  17.527  27.010  11.163
 5574W        W78642  21.252  44.774  13.503
 5575W        W78643  38.552   0.286  10.924
 5576W        W78644   8.842  28.760   1.495
 5577W        W78645  30.943  29.192   1.774
 5578W        W78646  33.952   7.099  12.922
 5579W        W78647   3.711  42.092   0.494
 5580W        W78648  15.633   5.758  12.815
 5581W        W78649  27.467  19.304   1.910
 5582W        W78650  35.597   6.186   3.647
 5583W        W78651  36.437  30.570   0.994
 5584W        W78652  23.978   4.498   4.312
 5585W        W78653   1.726  35.794   3.710
 5586W        W78654  41.571  13.359  11.094
 5587W        W78655  29.509   3.998   1.930
 5588W        W78656  13.659  25.516   1.756
 5589W        W78657   2.245   0.938   2.167
 5590W        W78658  31.590  21.066   0.195
 5591W        W78659  39.914  25.521  12.584
 5592W        W78660  40.358  31.424   4.596
 5593W        W78661   5.226  39.031  14.387
 5594W        W78662  25.192  15.565  13.367
 5595W        W78663   7.458  29.984  13.748
 5596W        W78664  23.626  30.951   4.341
 5597W        W78665  25.811   0.980   2.859
 5598W        W78666  44.792   5.931   4.748
 5599W        W78667   0.787  20.249   0.887
 5600W        W78668   7.827  22.819  13.232
 5601W        W78669  26.004  11.235  12.036
 5602W        W78670  44.140  14.210  11.212
 5603W        W78671   2.391  33.117   2.388
 5604W        W78672  37.419   8.789   3.872
 5605W        W78673  30.855  37.041  13.042
 5606W        W78674   9.156  20.313  14.834
 5607W        W78675  10.673   4.664   1.951
 5608W        W78676  30.604  16.774  10.810
 5609W        W78677  29.114  30.566  13.407
 5610W        W78678  25.013  29.931   3.312
 5611W        W78679  23.505  27.434  12.971
 5612W        W78680  41.201  16.822   3.811
 5613W        W78681  35.776  32.080   2.232
 5614W        W78682  18.997  27.655  12.376
 5615W        W78683  17.784  18.605   2.668
 5616W        W78684   8.777  29.093   4.633
 5617W        W78685   9.241  32.555  11.586
 5618W        W78686   7.870  17.658  12.875
 5619W        W78687  25.227  17.673   2.866
 5620W        W78688   7.612  13.613   2.727
 5621W        W78689  19.293   4.035  13.241
 5622W        W78690   7.426  40.259   3.742
 5623W        W78691  42.789   9.280  14.899
 5624W        W78692  31.835   4.159   4.016
 5625W        W78693  12.215   2.215  13.753
 5626W        W78694  19.438   4.360  12.864
 5627W        W78695  23.723   3.868   0.882
 5628W        W78696   2.962  40.904   3.400
 5629W        W78697  23.068  38.946  14.965
 5630W        W78698  22.493   0.526  13.225
 5631W        W78699  10.578  27.086   2.919
 5632W        W78700  24.098  18.626  14.320
 5633W        W78701  35.463  39.772   3.306
 5634W        W78702  25.616   4.253  13.576
 5635W        W78703   7.207   3.693   3.095
 5636W        W78704  40.942  16.391  11.086
 5637W        W78705   5.284  29.926  12.572
 5638W        W78706  24.522   7.012  14.309
 5639W        W78707  34.568  22.773   2.200
 5640W        W78708  38.458  11.803  12.847
 5641W        W78709  41.863  36.096   0.329
 5642W        W78710  33.524   2.342   3.636
 5643W        W78711  10.227  24.496  14.003
 5644W        W78712  22.082   1.592   0.720
 5645W        W78713  14.203  21.728   4.677
 5646W        W78714  42.570  15.469  14.877
 5647W        W78715   2.980  13.926  13.356
 5648W        W78716   5.146   9.656   4.066
 5649W        W78717  19.726  34.498  12.648
 5650W        W78718  42.905   1.881   4.860
 5651W        W78719  19.033  22.451   0.475
 5652W        W78720  40.048  35.141   3.932
 5653W        W78721  33.614  28.055  11.662
 5654W        W78722  29.628   8.087   1.322
 5655W        W78723   1.717  16.181   4.235
 5656W        W78724   3.980  36.551   1.468
 5657W        W78725   4.901  16.011  13.607
 5658W        W78726  28.478  39.942   1.882
 5659W        W78727   8.393  42.417  12.515
 5660W        W78728  42.570  13.888   3.307
 5661W        W78729  16.221   8.643  10.796
 5662W        W78730  15.754  39.132  12.502
 5663W        W78731  42.556  29.166  14.681
 5664W        W78732  43.993  27.172   0.411
 5665W        W78733  25.488   4.269  12.510
 5666W        W78734  33.215  24.492   3.310
 5667W        W78735  29.057  24.969   3.286
 5668W        W78736  39.718  34.271  13.121
 5669W        W78737   5.463  12.625   1.788
 5670W        W78738  10.092   5.390  11.656
 5671W        W78739  42.742  10.816   3.294
 5672W        W78740  12.649  34.362   1.751
 5673W        W78741  35.545  19.064  10.727
 5674W        W78742  30.506  27.793  11.201
 5675W        W78743  10.172  18.607   2.324
 5676W        W78744   6.409  44.742   1.998
 5677W        W78745  15.667  28.124  12.416
 5678W        W78746  40.837  26.243   0.165
 5679W        W78747  42.622   6.039   2.810
 5680W        W78748   6.984  10.212  12.468
 5681W        W78749   4.708  11.100   0.393
 5682W        W78750  14.279  11.955   4.763
 5683W        W78751  43.997  41.571  13.484
 5684W        W78752  39.939  36.371   4.353
 5685W        W78753  30.563   5.347  11.821
 5686W        W78754  13.862  29.055  12.975
 5687W        W78755  39.068   6.262   3.318
 5688W        W78756   0.523  17.634  14.419
 5689W        W78757  24.248  31.440  14.283
 5690W        W78758  35.394   6.149  12.475
 5691W        W78759  16.033  20.800   4.166
 5692W        W78760  40.982   9.796   4.410
 5693W        W78761   0.316  22.600  11.731
 5694W        W78762  29.870  16.005   4.642
 5695W        W78763  37.488  23.685  12.756
 5696W        W78764  33.351  23.508  14.359
 5697W        W78765  12.847  17.201   0.391
 5698W        W78766  35.368  36.934  13.117
 5699W        W78767   9.277  12.177   0.484
 5700W        W78768   2.369  27.971   1.784
 5701W        W78769  33.942  16.054   2.690
 5702W        W78770  21.496  18.171   0.197
 5703W        W78771   7.165  44.034   0.864
 5704W        W78772   6.094   9.161   1.751
 5705W        W78773  26.781   0.264  11.124
 5706W        W78774   3.494  16.003   2.667
 5707W        W78775  13.643   1.394   4.917
 5708W        W78776  35.652  35.612  13.486
 5709W        W78777   6.188  30.386  13.636
 5710W        W78778  18.698  25.968   4.708
 5711W        W78779  17.275  19.046   3.349
 5712W        W78780  43.000  21.783   2.573
 5713W        W78781  34.518  29.844   0.422
 5714W        W78782  31.747   1.706  12.587
 5715W        W78783  26.758   4.255  12.447
 5716W        W78784  22.953   0.203   2.778
 5717W        W78785  20.109   4.231   4.703
 5718W        W78786  11.071  20.430   2.823
 5719W        W78787  13.255  22.491  13.531
 5720W        W78788  22.162   9.647  10.502
 5721W        W78789   4.664  18.633  10.331
 5722W        W78790  41.534  23.606   1.302
 5723W        W78791  19.731  18.619  14.408
 5724W        W78792  36.049  43.396   2.773
 5725W        W78793  43.041  36.963  14.815
 5726W        W78794  27.881  18.446  12.011
 5727W        W78795   4.946  23.113   2.394
 5728W        W78796  35.542   4.163   3.238
 5729W        W78797  15.351   6.709   3.269
 5730W        W78798  26.454  43.326   3.160
 5731W        W78799  42.279  35.817  10.683
 5732W        W78800  12.697  38.049   3.733
 5733W        W78801  24.221  27.053  11.227
 5734W        W78802  22.180  23.056  10.520
 5735W        W78803  41.614  10.774  10.891
 5736W        W78804  37.065  23.948  12.893
 5737W        W78805  39.201  17.478  10.561
 5738W        W78806  29.849  24.607   4.040
 5739W        W78807   6.436  36.556   1.218
 5740W        W78808   0.325   2.185   2.167
 5741W        W78809  32.083  19.147   1.652
 5742W        W78810   4.197  22.669   4.896
 5743W        W78811  24.930   5.367  13.882
 5744W        W78812  20.697  20.615  14.271
 5745W        W78813   2.451  15.394   4.988
 5746W        W78814   6.288  37.954   1.358
 5747W        W78815   3.164   4.550  11.938
 5748W        W78816  37.579  34.455  14.830
 5749W        W78817  13.355  24.143   2.341
 5750W        W78818  36.631   6.657  13.552
 5751W        W78819  30.948  17.250   1.419
 5752W        W78820   1.255   5.774   4.726
 5753W        W78821   7.322  11.147  11.508
 5754W        W78822  39.674  18.762   3.242
 5755W        W78823  40.596  42.820   3.328
 5756W        W78824  30.937  35.368  13.322
 5757W        W78825  36.343  44.882  14.493
 5758W        W78826  33.841  22.583  14.509
 5759W        W78827  15.024   0.539  11.704
 5760W        W78828  12.323  39.013   1.042
 5761W        W78829  37.445  25.555  13.462
 5762W        W78830  18.171   9.188   3.124
 5763W        W78831  10.658  38.315  12.412
 5764W        W78832  27.142  29.010  11.955
 5765W        W78833  32.515  43.413   0.583
 5766W        W78834  29.374  12.759  10.724
 5767W        W78835  42.525  34.469  14.497
 5768W        W78836  30.914  11.128   2.620
 5769W        W78837  18.636  43.938   2.812
 5770W        W78838   5.403   0.985  14.341
 5771W        W78839  35.951  38.317   2.849
 5772W        W78840   2.713   7.318  12.949
 5773W        W78841  41.210   5.266  11.835
 5774W        W78842  23.203  27.573  13.335
 5775W        W78843   4.685  44.619   4.747
 5776W        W78844  25.643   3.758   0.258
 5777W        W78845  39.869   7.462  11.470
 5778W        W78846  30.481  34.541  14.732
 5779W        W78847  24.549  42.739  11.277
 5780W        W78848   8.265  32.429  11.136
 5781W        W78849  21.542  32.386  13.886
 5782W        W78850   1.231  20.942   4.036
 5783W        W78851  13.547  23.207  11.050
 5784W        W78852  37.052  22.186  13.496
 5785W        W78853  31.053   2.833   0.086
 5786W        W78854  16.016  15.140   2.910
 5787W        W78855   4.752  33.964  14.889
 5788W        W78856  12.807  42.540  13.298
 5789W        W78857  40.561   5.675   3.891
 5790W        W78858  39.170  30.530  11.194
 5791W        W78859   0.312  44.318  10.561
 5792W        W78860   9.724  24.622   3.174
 5793W        W78861  36.616  10.768  13.747
 5794W        W78862  32.745  42.480   3.322
 5795W        W78863  23.260  17.683  12.979
 5796W        W78864  19.961  39.038   1.969
 5797W        W78865  30.448   0.033  12.802
 5798W        W78866  30.154  14.349   2.305
 5799W        W78867  15.041  35.210   3.956
 5800W        W78868  43.393  21.302   4.820
 5801W        W78869  40.745   7.321  12.383
 5802W        W78870   5.902  16.362  12.422
 5803W        W78871  14.849  35.436  13.858
 5804W        W78872  14.590  10.078   0.988
 5805W        W78873  19.800  22.325  12.454
 5806W        W78874  21.638  17.199  14.710
 5807W        W78875  29.736  22.019   1.250
 5808W        W78876  24.448   5.210  13.804
 5809W        W78877  18.014  40.510  10.628
 5810W        W78878   5.851  39.813   0.916
 5811W        W78879  24.964  21.571  11.574
 5812W        W78880   3.188  32.209   2.394
 5813W        W78881  37.453  44.363  13.578
 5814W        W78882  38.071  32.527   2.245
 5815W        W78883  25.944  25.914   1.336
 5816W        W78884   1.470   6.817  11.213
 5817W        W78885  28.955  23.534   4.510
 5818W        W78886  43.921  34.576  13.468
 5819W        W78887  40.542   4.646  12.931
 5820W        W78888  44.665  12.126   3.280
 5821W        W78889  37.359  27.953   4.256
 5822W        W78890  36.934  22.600  11.545
 5823W        W78891  12.096  19.560  11.425
 5824W        W78892  14.789  30.580  11.632
 5825W        W78893  11.857  31.654   2.793
 5826W        W78894   9.139  10.187   3.661
 5827W        W78895   9.368  31.606   2.410
 5828W        W78896  39.357  17.974  11.901
 5829W        W78897  33.362  42.927   3.854
 5830W        W78898  18.098  43.879  14.944
 5831W        W78899  16.724   4.905   2.123
 5832W        W78900  43.952   3.853  10.924
 5833W        W78901  36.514  40.282  13.409
 5834W        W78902   4.268   7.243  14.827
 5835W        W78903  10.847  36.916   1.319
 5836W        W78904  15.625  12.313   3.236
 5837W        W78905  24.613   3.182   3.297
 5838W        W78906  14.096  29.666  13.418
 5839W        W78907  17.375   0.991  11.052
 5840W        W78908  39.563  26.314   0.621
 5841W        W78909  23.631  35.781   0.712
 5842W        W78910  20.439  35.188  13.484
 5843W        W78911  27.554   3.413   3.208
 5844W        W78912  35.863  35.001  14.866
 5845W        W78913   0.465   5.403  10.746
 5846W        W78914  18.195  22.989  12.470
 5847W        W78915  38.110  12.721  10.734
 5848W        W78916   3.887  26.524   2.162
 5849W        W78917  15.800  40.488  13.036
 5850W        W78918   5.456  29.316  14.105
 5851W        W78919   3.475  17.489   2.193
 5852W        W78920   6.363  35.470  10.606
 5853W        W78921   1.658  33.859   0.501
 5854W        W78922  35.465  19.806  13.874
 5855W        W78923  12.187  19.438  10.935
 5856W        W78924  43.940  42.245  14.866
 5857W        W78925  37.661  28.965  12.963
 5858W        W78926   9.712   5.730  14.925
 5859W        W78927  32.539  39.291   4.543
 5860W        W78928  16.309  31.384   4.193
 5861W        W78929  29.009  17.197  11.588
 5862W        W78930  28.058  16.631   2.715
 5863W        W78931  19.982   1.487   4.830
 5864W        W78932  24.606  30.918   1.252
 5865W        W78933   1.920  44.764   4.638
 5866W        W78934   9.640  33.395   0.305
 5867W        W78935  20.666  34.792  11.021
 5868W        W78936  40.251  37.261   3.200
 5869W        W78937   4.640  20.209  12.573
 5870W        W78938  40.840  13.636  12.514
 5871W        W78939  30.961  18.845   1.048
 5872W        W78940   7.992   9.726  12.851
 5873W        W78941  42.288   6.209  12.489
 5874W        W78942  37.503  30.481   3.041
 5875W        W78943  20.242  43.912  12.915
 5876W        W78944  38.318  43.851  13.566
 5877W        W78945  40.667   7.215  14.784
 5878W        W78946  28.744  39.272   4.782
 5879W        W78947  14.729   4.665  12.400
 5880W        W78948  31.123   5.457   2.070
 5881W        W78949  14.719  37.049   0.909
 5882W        W78950   8.722   1.198  13.291
 5883W        W78951  11.475  28.077  11.922
 5884W        W78952   0.303  38.975  14.502
 5885W        W78953  35.383  17.764  11.937
 5886W        W78954  26.715  33.874   0.495
 5887W        W78955  23.986  34.132  12.124
 5888W        W78956  13.828   8.336   4.122
 5889W        W78957  38.962  40.344   1.802
 5890W        W78958  44.031  16.635  12.963
 5891W        W78959  16.254  14.670  10.768
 5892W        W78960  32.556  38.549  12.946
 5893W        W78961   2.782  16.099  10.715
 5894W        W78962  24.437  27.833  12.919
 5895W        W78963   3.033  31.526   4.233
 5896W        W78964   1.897  23.425   2.443
 5897W        W78965  35.273  26.090  11.642
 5898W        W78966  19.441   7.385  10.251
 5899W        W78967  25.384  22.213   0.411
 5900W        W78968  27.278  15.203   2.679
 5901W        W78969  25.171  41.303   3.251
 5902W        W78970  20.484  39.094  11.010
 5903W        W78971  40.429  24.781   4.819
 5904W        W78972  13.531  32.791   3.717
 5905W        W78973  37.436  16.567  14.297
 5906W        W78974  38.381   0.705   5.232
 5907W        W78975  14.748  31.467   4.758
 5908W        W78976  41.129  19.161   4.684
 5909W        W78977  24.226  23.279  13.439
 5910W        W78978  35.209  26.481  12.036
 5911W        W78979  21.421   2.084  13.553
 5912W        W78980  40.937  31.229   2.716
 5913W        W78981  16.693  42.367   1.312
 5914W        W78982  20.968   9.402  13.316
 5915W        W78983   6.448  22.639  12.810
 5916W        W78984  29.962  40.786   4.064
 5917W        W78985  13.167   7.711   3.653
 5918W        W78986  10.422   5.307   1.311
 5919W        W78987   9.770   4.670   1.325
 5920W        W78988  31.018  40.114  12.404
 5921W        W78989  26.712  43.172   1.318
 5922W        W78990   7.898  23.146  14.867
 5923W        W78991   5.564  24.404  12.609
 5924W        W78992  23.752  26.638  11.542
 5925W        W78993  38.250  11.291  12.052
 5926W        W78994  16.321  40.022  12.461
 5927W        W78995  41.251  12.384  11.599
 5928W        W78996  41.331  34.677   2.316
 5929W        W78997  22.285  13.295  12.423
 5930W        W78998  19.816  16.621  13.330
 5931W        W78999  39.010  40.157   4.208
 5932W        W79000   7.575  34.358  13.903
 5933W        W79001  16.094   3.430  11.838
 5934W        W79002   3.050  19.193   1.747
 5935W        W79003  11.062  27.140   2.722
 5936W        W79004   1.245  40.981   4.835
 5937W        W79005  13.555  40.369   1.485
 5938W        W79006  34.588  11.589   3.609
 5939W        W79007  35.880  20.446   4.086
 5940W        W79008  22.297  42.733   5.012
 5941W        W79009  27.099  39.468   3.457
 5942W        W79010  11.154  31.807  13.450
 5943W        W79011  16.745  37.074   0.874
 5944W        W79012  18.593  34.576  13.014
 5945W        W79013  32.389  17.645   0.503
 5946W        W79014   0.775   0.851   4.704
 5947W        W79015  31.882   2.446  12.831
 5948W        W79016   9.858   2.930   0.401
 5949W        W79017  40.312  16.680   1.708
 5950W        W79018   9.092   1.486  10.752
 5951W        W79019  39.614  27.760  13.289
 5952W        W79020  19.176  35.951   0.425
 5953W        W79021  19.639  39.098  12.818
 5954W        W79022   7.753  39.818  10.388
 5955W        W79023  25.153  42.726  12.442
 5956W        W79024  32.233  26.849   1.375
 5957W        W79025  37.027  18.305   2.119
 5958W        W79026  40.862  22.145  14.006
 5959W        W79027  26.040   6.238  10.600
 5960W        W79028  38.192  13.946  14.009
 5961W        W79029  41.803  13.265   1.281
 5962W        W79030  30.546  10.954  10.651
 5963W        W79031  23.464  21.844   0.459
 5964W        W79032   3.505  19.296   1.967
 5965W        W79033  34.283   5.796  11.979
 5966W        W79034  23.295  25.045  11.230
 5967W        W79035  34.202  28.205   2.726
 5968W        W79036  39.875  27.521  11.724
 5969W        W79037   3.526   9.188   2.144
 5970W        W79038   6.192  11.651  10.462
 5971W        W79039   3.789  15.324  14.899
 5972W        W79040   5.603  31.411  11.786
 5973W        W79041  21.539   6.316  14.260
 5974W        W79042   2.738  41.912   0.696
 5975W        W79043  35.039   6.784   3.062
 5976W        W79044  28.404  39.159   2.976
 5977W        W79045  19.722   4.463   0.356
 5978W        W79046   7.759   6.654  12.063
 5979W        W79047  24.968  23.513   1.892
 5980W        W79048  14.009  15.766   0.325
 5981W        W79049   2.534  29.901   1.434
 5982W        W79050  38.549  17.344  11.886
 5983W        W79051   4.412  21.714   0.342
 5984W        W79052  18.851  36.023  13.195
 5985W        W79053  27.949   3.771  11.665
 5986W        W79054  13.658  43.859   4.155
 5987W        W79055   4.206  30.922   3.250
 5988W        W79056   3.188  22.928   2.736
 5989W        W79057   3.250  27.069   3.239
 5990W        W79058  14.312  34.880  10.815
 5991W        W79059  23.385  42.396   0.239
 5992W        W79060  36.880  29.988   0.928
 5993W        W79061   0.825   3.312   4.606
 5994W        W79062   0.752  17.325  11.567
 5995W        W79063  40.140   2.149   2.468
 5996W        W79064   7.738  25.472   0.928
 5997W        W79065  15.486  39.351  11.151
 5998W        W79066  41.344  21.738  11.526
 5999W        W79067  17.252  30.471  13.582
 6000W        W79068   7.539  10.779  13.410
 6001W        W79069   8.476   6.441   1.806
 6002W        W79070  12.639  24.021  10.774
 6003W        W79071  44.519  41.991   2.835
 6004W        W79072  26.568  11.946   3.604
 6005W        W79073   9.860   4.380  14.492
 6006W        W79074  38.827   8.155   0.250
 6007W        W79075   2.356  38.430   2.455
 6008W        W79076  13.359  26.839   0.243
 6009W        W79077  15.659  15.333  10.357
 6010W        W79078  17.273  20.189  14.585
 6011W        W79079   1.950  10.954   2.686
 6012W        W79080   3.520  40.308   9.847
 6013W        W79081  43.044  18.637   0.306
 6014W        W79082  29.147   9.826  11.154
 6015W        W79083  39.578  33.635   3.839
 6016W        W79084  22.255  30.649   1.846
 6017W        W79085  26.647   0.299  12.968
 6018W        W79086  22.923   5.735   3.208
 6019W        W79087  15.560  15.738   5.231
 6020W        W79088  16.715  40.299  11.223
 6021W        W79089   5.654  23.510  14.218
 6022W        W79090  16.643  36.059   0.735
 6023W        W79091  10.565  11.106   0.798
 6024W        W79092  34.502  16.426  14.577
 6025W        W79093  42.339  13.779   3.750
 6026W        W79094   0.553  22.587  14.088
 6027W        W79095  43.330  10.848  14.358
 6028W        W79096   9.736  26.696   3.728
 6029W        W79097   9.783  29.974   4.843
 6030W        W79098  12.742  12.533   1.241
 6031W        W79099  25.685  14.259   0.536
 6032W        W79100   3.455   5.163  12.465
 6033W        W79101  25.443   9.987   0.914
 6034W        W79102  15.198  10.709  10.990
 6035W        W79103   0.442  30.001   3.349
 6036W        W79104  15.628  19.584   1.378
 6037W        W79105  38.525  19.181   4.165
 6038W        W79106  35.563  18.233   1.843
 6039W        W79107   6.435  12.028  10.756
 6040W        W79108   2.782  34.225  12.362
 6041W        W79109  27.965  10.557  13.381
 6042W        W79110  35.375  38.928   0.374
 6043W        W79111  33.800  16.760  12.947
 6044W        W79112  12.554   2.856  14.878
 6045W        W79113  29.538  42.582  10.632
 6046W        W79114  19.216   3.192   0.376
 6047W        W79115  32.183  25.099   4.261
 6048W        W79116   2.327  44.346   2.704
 6049W        W79117  31.095   2.397  11.628
 6050W        W79118  22.619   1.236  11.936
 6051W        W79119  24.030  40.950   2.756
 6052W        W79120  33.004   2.209   1.524
 6053W        W79121  33.493  44.449  10.479
 6054W        W79122  25.603  15.739  12.845
 6055W        W79123  18.024  29.358   2.785
 6056W        W79124  23.208   2.995  10.958
 6057W        W79125  29.496  29.435  12.497
 6058W        W79126  44.900  13.290  14.827
 6059W        W79127  39.366  27.413  11.828
 6060W        W79128  28.976  18.503   3.728
 6061W        W79129  27.993  23.232   1.758
 6062W        W79130  40.975  38.901   1.295
 6063W        W79131   7.851  23.040  13.893
 6064W        W79132  41.819  30.040   3.631
 6065W        W79133  11.822  22.559  13.356
 6066W        W79134   4.827   6.181   1.870
 6067W        W79135  25.693  21.693   0.862
 6068W        W79136  38.850  19.086  13.814
 6069W        W79137   1.320   6.274   4.749
 6070W        W79138   4.484  42.832  13.915
 6071W        W79139   5.534  35.493  13.810
 6072W        W79140  35.557  23.494   2.755
 6073W        W79141  10.645  15.370   3.137
 6074W        W79142  12.167  38.401   3.267
 6075W        W79143  23.963  43.529   4.887
 6076W        W79144  43.750   8.191  11.544
 6077W        W79145  15.318  26.527   2.711
 6078W        W79146  32.295  43.356  10.361
 6079W        W79147  22.847  41.823   1.236
 6080W        W79148  29.016  22.402   3.333
 6081W        W79149  33.344   9.457  13.835
 6082W        W79150  39.547  38.063   3.786
 6083W        W79151  17.017  22.517  12.806
 6084W        W79152   0.765  42.846   2.331
 6085W        W79153  31.141  44.894  14.334
 6086W        W79154  39.953  25.888   2.400
 6087W        W79155  43.850  31.610  10.639
 6088W        W79156  39.976  12.329   2.320
 6089W        W79157  35.868  27.018   3.221
 6090W        W79158   4.110  13.900  12.892
 6091W        W79159  24.242  17.072   4.724
 6092W        W79160  18.512   7.680  14.672
 6093W        W79161   0.976  17.127  13.255
 6094W        W79162  18.161  23.006  14.526
 6095W        W79163  28.126  12.919   1.221
 6096W        W79164  42.779  30.534   2.817
 6097W        W79165  40.952  39.552   1.654
 6098W        W79166   8.559  26.462  12.484
 6099W        W79167  33.517   3.323   4.642
 6100W        W79168  34.515   5.938  12.420
 6101W        W79169  23.640   9.335   3.024
 6102W        W79170  42.187  10.056   1.303
 6103W        W79171  20.208   6.500   4.983
 6104W        W79172  14.688  41.910  12.990
 6105W        W79173  38.612   6.662  10.675
 6106W        W79174   9.336  14.307   0.890
 6107W        W79175  12.866   4.408  10.496
 6108W        W79176  29.172  44.391  10.624
 6109W        W79177  18.233  11.805  11.169
 6110W        W79178  37.183  41.360  10.380
 6111W        W79179  32.685  13.322   2.337
 6112W        W79180  21.544   1.428  14.355
 6113W        W79181  36.379  27.890  13.381
 6114W        W79182  12.281   0.898   2.026
 6115W        W79183  37.778  42.833   5.381
 6116W        W79184   2.730  35.362  13.442
 6117W        W79185  18.227  19.600   0.799
 6118W        W79186  16.994   6.238  14.482
 6119W        W79187  25.530   7.679   4.149
 6120W        W79188  26.232  32.261  12.404
 6121W        W79189  11.060  11.720   3.177
 6122W        W79190  14.312  33.930   0.857
 6123W        W79191  21.637  14.590   4.267
 6124W        W79192   0.020  18.755   1.197
 6125W        W79193  39.318  20.932  11.917
 6126W        W79194  31.009   4.775  11.471
 6127W        W79195  42.714  42.370   0.179
 6128W        W79196  20.220  41.779   2.330
 6129W        W79197   2.689   1.666   2.327
 6130W        W79198   7.933  37.883   1.887
 6131W        W79199   9.261  16.610  12.565
 6132W        W79200  14.299  16.189  14.297
 6133W        W79201  28.061  16.435  12.284
 6134W        W79202  17.217   1.204  11.614
 6135W        W79203  39.373  16.815   1.297
 6136W        W79204  15.843  13.291  13.911
 6137W        W79205  10.132  16.651   0.301
 6138W        W79206  32.426  14.759   4.195
 6139W        W79207  15.191  41.744  13.073
 6140W        W79208   7.758   6.978   0.231
 6141W        W79209   1.911  39.052   1.179
 6142W        W79210  29.904  34.219  14.234
 6143W        W79211  28.338  43.960   1.318
 6144W        W79212   2.846   4.376   4.742
 6145W        W79213  15.444   3.677   3.714
 6146W        W79214  12.691   0.569  14.832
 6147W        W79215  12.752  12.729  10.452
 6148W        W79216  25.763  21.662   3.102
 6149W        W79217  15.770  16.785   0.746
 6150W        W79218  29.867  32.037   2.393
 6151W        W79219  42.028  39.014   0.979
 6152W        W79220  15.361   5.401   2.930
 6153W        W79221  10.860  26.035   1.172
 6154W        W79222   0.767  31.934   3.012
 6155W        W79223  29.872  13.714  13.470
 6156W        W79224   3.714   0.351  11.872
 6157W        W79225  23.679  26.157   2.584
 6158W        W79226  16.798  12.773  11.671
 6159W        W79227  32.689  19.586   3.683
 6160W        W79228  15.855  20.188   2.829
 6161W        W79229  30.493  20.092   3.326
 6162W        W79230  15.252  27.503   3.718
 6163W        W79231  40.746   1.124   0.723
 6164W        W79232  25.058  28.383  12.479
 6165W        W79233  29.199  21.281   0.809
 6166W        W79234  23.016  14.247   2.200
 6167W        W79235  41.885  36.954  11.810
 6168W        W79236  30.004  14.954  13.908
 6169W        W79237  26.674  35.485   1.447
 6170W        W79238  23.620  32.632  13.457
 6171W        W79239   5.730  34.827  11.582
 6172W        W79240  20.374  13.703   1.155
 6173W        W79241   3.059   0.936   5.015
 6174W        W79242   1.756  42.283  12.558
 6175W        W79243  17.266   2.835   1.312
 6176W        W79244  42.598  11.796   3.471
 6177W        W79245   3.659  21.107  11.604
 6178W        W79246  42.344  30.069   3.414
 6179W        W79247  19.253  23.573   4.614
 6180W        W79248  26.734  40.858  12.583
 6181W        W79249  12.550  42.886   4.473
 6182W        W79250   8.262  19.752   4.109
 6183W        W79251  19.673  15.748   1.914
 6184W        W79252  10.604  26.656   3.358
 6185W        W79253  20.544  38.589  10.920
 6186W        W79254  39.288  39.985   4.734
 6187W        W79255  25.726  32.479  13.975
 6188W        W79256  38.022   7.591   4.215
 6189W        W79257   0.049  26.484   1.134
 6190W        W79258  29.979  12.321  13.071
 6191W        W79259  14.098  24.168  14.701
 6192W        W79260  25.579  23.439   0.285
 6193W        W79261   0.988  23.568   2.792
 6194W        W79262   4.675  15.288   0.430
 6195W        W79263  29.957  37.499  11.998
 6196W        W79264  26.494  36.118   1.367
 6197W        W79265  21.277  40.785  13.866
 6198W        W79266  38.562  20.500  13.601
 6199W        W79267  39.124  27.997  13.868
 6200W        W79268  41.942   0.851  12.587
 6201W        W79269  33.025   6.174  12.101
 6202W        W79270  43.385  18.036  13.440
 6203W        W79271  39.583  34.638  13.479
 6204W        W79272  42.125   4.342  11.406
 6205W        W79273  24.500  24.128  13.764
 6206W        W79274  12.056  35.730   0.731
 6207W        W79275  20.983   8.803  12.103
 6208W        W79276  11.341  34.219   0.396
 6209W        W79277  39.812  31.314   2.747
 6210W        W79278  18.301   2.530  11.511
 6211W        W79279  36.573   6.666  13.020
 6212W        W79280  32.831  41.435  11.848
 6213W        W79281  35.042  39.311  14.975
 6214W        W79282  37.837  16.645  12.000
 6215W        W79283  18.632  35.025  14.768
 6216W        W79284   5.379   3.134   1.397
 6217W        W79285  41.836  13.688  14.548
 6218W        W79286   0.058  10.789   3.330
 6219W        W79287  38.954   5.779   5.675
 6220W        W79288  15.393   5.810  13.865
 6221W        W79289  40.984  24.220  14.127
 6222W        W79290  19.867  36.466  12.094
 6223W        W79291  14.030  37.937  10.737
 6224W        W79292  16.855  10.203  12.098
 6225W        W79293  11.633   5.782  14.843
 6226W        W79294   7.180  16.617   2.733
 6227W        W79295  27.816  26.789  10.256
 6228W        W79296  44.847   5.307   1.995
 6229W        W79297  28.386  27.976  11.439
 6230W        W79298  24.880   7.828  10.649
 6231W        W79299  40.401  25.242  11.710
 6232W        W79300   8.179  26.480   2.312
 6233W        W79301  27.678   4.747   0.287
 6234W        W79302  11.771  20.994   0.528
 6235W        W79303  36.879  40.115   1.551
 6236W        W79304   8.394   6.775  13.799
 6237W        W79305   9.207  34.131  10.772
 6238W        W79306  33.654   3.922   0.034
 6239W        W79307  20.033  28.514  13.317
 6240W        W79308  36.903  23.241   4.666
 6241W        W79309  19.167  22.002   2.890
 6242W        W79310  32.836   9.337   0.886
 6243W        W79311  35.306   3.194   0.362
 6244W        W79312  23.699  38.996  14.373
 6245W        W79313  39.807  34.791  11.602
 6246W        W79314  38.296  30.600   4.896
 6247W        W79315  39.483  15.681   1.560
 6248W        W79316  30.506  37.515   1.197
 6249W        W79317  38.510  13.705  11.952
 6250W        W79318  36.102  30.034   4.660
 6251W        W79319  17.169  15.125  10.741
 6252W        W79320  14.031  36.658  12.002
 6253W        W79321  20.901  25.524   3.895
 6254W        W79322  18.583   3.268  10.672
 6255W        W79323  31.100  13.677   0.514
 6256W        W79324   1.833  23.995  14.860
 6257W        W79325  36.934   9.263  11.022
 6258W        W79326  13.370  12.342   3.162
 6259W        W79327   7.566  11.794  14.843
 6260W        W79328   4.861   5.673   1.975
 6261W        W79329  28.343  11.200   1.831
 6262W        W79330  26.267  10.239  10.970
 6263W        W79331  43.001  18.360   0.842
 6264W        W79332  21.646  16.535   1.730
 6265W        W79333  35.864  17.365  11.154
 6266W        W79334  22.886   4.242  13.485
 6267W        W79335  11.858  26.404  13.446
 6268W        W79336  15.021  41.563   0.812
 6269W        W79337  24.450   9.312   1.887
 6270W        W79338   8.230  41.453  14.072
 6271W        W79339  16.685   8.055  14.525
 6272W        W79340  26.435  10.891  11.841
 6273W        W79341  42.621  40.624   4.392
 6274W        W79342  13.842  12.360   0.396
 6275W        W79343  13.548  27.890  11.565
 6276W        W79344  31.989  31.195   4.228
 6277W        W79345   4.310   7.426  10.925
 6278W        W79346  18.157  40.817   1.644
 6279W        W79347  10.943  22.717  13.371
 6280W        W79348  14.059   0.768  11.785
 6281W        W79349  26.238  18.129   3.309
 6282W        W79350  18.729  34.366  13.460
 6283W        W79351  10.214  29.841   1.684
 6284W        W79352   5.312  17.308   1.363
 6285W        W79353   3.630  13.624  11.980
 6286W        W79354  27.562   8.131  11.156
 6287W        W79355  24.552  20.427   4.671
 6288W        W79356  17.544  13.031  10.680
 6289W        W79357   6.364  39.110   0.751
 6290W        W79358  15.343  22.055  10.514
 6291W        W79359  42.432  44.978   3.412
 6292W        W79360  20.786  16.335  10.501
 6293W        W79361   3.920  22.625   1.793
 6294W        W79362  24.954  23.791   4.846
 6295W        W79363   9.764  36.009   0.847
 6296W        W79364   1.691  18.030  14.476
 6297W        W79365   0.426  28.716  13.074
 6298W        W79366  32.873  14.637  11.160
 6299W        W79367  19.243  10.814  14.996
 6300W        W79368  23.152  12.861  11.531
 6301W        W79369  31.347  29.559  14.766
 6302W        W79370   8.860  24.924   0.461
 6303W        W79371  13.151  43.891  11.402
 6304W        W79372  22.497  21.530  12.513
 6305W        W79373   9.440  31.928   0.338
 6306W        W79374  22.320   8.658  13.073
 6307W        W79375   6.893  36.757   1.914
 6308W        W79376  20.541  23.266  13.820
 6309W        W79377  33.914  25.013  13.473
 6310W        W79378  29.560  24.993   3.165
 6311W        W79379  41.441  35.823  12.981
 6312W        W79380  14.108  38.654   2.272
 6313W        W79381  28.250  43.109  13.952
 6314W        W79382   6.811  19.332   4.586
 6315W        W79383  27.454  30.382  14.489
 6316W        W79384  16.809   0.836  14.973
 6317W        W79385  35.845  42.014  11.557
 6318W        W79386  44.895  18.217   4.510
 6319W        W79387   2.405  38.804   3.788
 6320W        W79388  27.472  41.043  12.966
 6321W        W79389  34.919  26.527   4.739
 6322W        W79390   0.112  44.081   0.415
 6323W        W79391  38.104   0.118  11.160
 6324W        W79392  11.428  35.031   0.633
 6325W        W79393  17.232  36.323  10.746
 6326W        W79394  16.662  19.804  12.467
 6327W        W79395  21.230  42.741  10.662
 6328W        W79396  29.969  26.083  13.888
 6329W        W79397  22.031   2.805   0.759
 6330W        W79398  23.216  30.229  12.920
 6331W        W79399  41.703  38.344  13.937
 6332W        W79400  18.789  13.711  13.045
 6333W        W79401  31.001   4.187  14.961
 6334W        W79402  12.158  41.266   3.152
 6335W        W79403  34.629   9.909   4.135
 6336W        W79404  40.159  25.672  13.450
 6337W        W79405   3.756  35.403   3.199
 6338W        W79406  38.538   5.417  14.643
 6339W        W79407  21.140  27.427   0.224
 6340W        W79408  37.813  30.869   3.242
 6341W        W79409  31.108  10.997   0.523
 6342W        W79410  28.202   9.420  11.130
 6343W        W79411  16.107  12.934   1.890
 6344W        W79412  32.448  23.756  11.169
 6345W        W79413  10.587  41.021  14.216
 6346W        W79414  25.548  44.209  13.628
 6347W        W79415   2.783  11.414   1.243
 6348W        W79416  38.122  11.302  14.378
 6349W        W79417  43.880  16.732   0.384
 6350W        W79418  22.515   9.936   1.744
 6351W        W79419  15.031   4.229   2.291
 6352W        W79420  38.343  14.679  12.713
 6353W        W79421  31.385  27.956  10.489
 6354W        W79422  18.703  12.551   0.999
 6355W        W79423  25.040  19.013   2.281
 6356W        W79424  32.952  40.101  13.094
 6357W        W79425  26.427  24.422   4.224
 6358W        W79426  32.392  12.669  13.496
 6359W        W79427  42.759  30.101  12.096
 6360W        W79428   8.863   3.056  14.862
 6361W        W79429  42.921  16.914   1.920
 6362W        W79430  30.904  24.057  13.353
 6363W        W79431   9.830  33.334  10.444
 6364W        W79432  23.708  39.499   2.326
 6365W        W79433  37.533  33.885  14.712
 6366W        W79434  40.460  33.849  11.196
 6367W        W79435  43.214  19.143   0.455
 6368W        W79436  32.005  24.065   1.761
 6369W        W79437  29.873  43.279  11.153
 6370W        W79438   5.896  12.391  11.585
 6371W        W79439  21.389  13.476   5.306
 6372W        W79440   8.264  40.894   0.328
 6373W        W79441   4.662  36.682  11.489
 6374W        W79442  26.305  40.866  10.455
 6375W        W79443  11.206   7.658   0.997
 6376W        W79444   8.585   6.359  13.255
 6377W        W79445   9.046   5.467  11.557
 6378W        W79446  35.983  20.677   3.178
 6379W        W79447  26.350  11.600  13.254
 6380W        W79448  17.673  33.348   4.096
 6381W        W79449  18.558   1.899   1.053
 6382W        W79450  28.278  36.510   0.540
 6383W        W79451  19.604  31.635  14.512
 6384W        W79452  26.630  44.501  13.390
 6385W        W79453  13.696  31.443   4.655
 6386W        W79454  30.188  21.030   0.699
 6387W        W79455  11.754  11.312   2.380
 6388W        W79456  14.219  15.217   4.400
 6389W        W79457  28.193  15.238   2.463
 6390W        W79458  39.783  14.191   3.113
 6391W        W79459  13.151   4.801  13.378
 6392W        W79460   6.963  41.795  11.932
 6393W        W79461  30.449   9.310  10.894
 6394W        W79462  32.089  14.116   2.659
 6395W        W79463  29.463   6.669  10.679
 6396W        W79464   9.125  34.798   4.721
 6397W        W79465  34.839  14.385  11.536
 6398W        W79466   3.821  13.905   3.045
 6399W        W79467  27.635  19.291  12.377
 6400W        W79468  23.635   0.197  12.681
 6401W        W79469  44.646  43.040  12.027
 6402W        W79470  21.059  29.889   0.642
 6403W        W79471   6.678  11.133  14.750
 6404W        W79472  37.459  29.796  11.181
 6405W        W79473   3.300  40.937  10.673
 6406W        W79474   6.665  29.482  11.034
 6407W        W79475  41.548   8.393   4.493
 6408W        W79476  39.090  29.138  13.993
 6409W        W79477  10.279  12.445   0.442
 6410W        W79478  31.061  29.129  13.318
 6411W        W79479  43.776  44.758   3.834
 6412W        W79480   5.265   4.214  13.462
 6413W        W79481  34.308  17.000  10.668
 6414W        W79482  29.125  43.020  10.738
 6415W        W79483  42.175  16.211   3.162
 6416W        W79484  16.084   2.559   0.535
 6417W        W79485  42.971  43.503   3.678
 6418W        W79486  41.760  13.185  14.711
 6419W        W79487  25.136  12.814  13.867
 6420W        W79488  35.615  10.317   0.854
 6421W        W79489  13.235  19.718   2.328
 6422W        W79490  19.617  14.545   3.165
 6423W        W79491  21.115   4.232  10.723
 6424W        W79492  31.486  40.550   2.806
 6425W        W79493  18.157   4.853   1.018
 6426W        W79494  44.340  14.374   2.348
 6427W        W79495   7.890  40.152   1.314
 6428W        W79496   9.095  19.733  12.396
 6429W        W79497   1.187  38.043  10.390
 6430W        W79498  22.766  22.646  14.629
 6431W        W79499  44.833  15.504   0.641
 6432W        W79500   2.853  19.537   0.922
 6433W        W79501  39.235  21.104   4.211
 6434W        W79502  12.165  38.612   0.224
 6435W        W79503  40.891  21.567   5.088
 6436W        W79504  27.852  26.033   0.347
 6437W        W79505  15.675  34.037  12.800
 6438W        W79506  10.899  41.004   0.659
 6439W        W79507  44.907   4.230  13.969
 6440W        W79508  22.266  39.055   3.290
 6441W        W79509  35.014  10.618   0.271
 6442W        W79510  36.023  36.955   3.744
 6443W        W79511   6.317  14.752  12.075
 6444W        W79512   8.219   8.163  12.070
 6445W        W79513  13.151  24.160  12.967
 6446W        W79514  12.124  15.720   0.369
 6447W        W79515  41.908   0.676   1.646
 6448W        W79516   5.192   0.662   1.985
 6449W        W79517  28.744  39.298   1.323
 6450W        W79518  25.909  14.189   3.734
 6451W        W79519  40.596  44.394  10.105
 6452W        W79520   1.510  13.789  11.047
 6453W        W79521  15.136   6.203  11.135
 6454W        W79522  18.360  11.413  12.940
 6455W        W79523  20.988  20.649   2.328
 6456W        W79524  41.448  33.856  14.393
 6457W        W79525  44.970  20.478   1.901
 6458W        W79526   0.392  10.236   2.257
 6459W        W79527  41.482   0.817  13.776
 6460W        W79528  38.489  19.050   2.245
 6461W        W79529  28.040  32.072   4.794
 6462W        W79530  36.343  18.735   4.629
 6463W        W79531   3.946  26.402  10.883
 6464W        W79532  40.336  25.728   3.832
 6465W        W79533  27.251  22.778   3.085
 6466W        W79534  24.897   3.405   4.522
 6467W        W79535  14.704   3.847   2.341
 6468W        W79536   7.167  35.994   1.603
 6469W        W79537   7.654  22.214  10.742
 6470W        W79538  29.605  24.108   1.049
 6471W        W79539  33.574  10.689   3.289
 6472W        W79540  32.898  43.697   2.342
 6473W        W79541  31.148   7.391  13.572
 6474W        W79542  33.848  34.114  14.145
 6475W        W79543  40.892   6.911  11.499
 6476W        W79544  15.526  20.798  12.804
 6477W        W79545  26.990  18.541  13.362
 6478W        W79546  44.350  32.156   3.216
 6479W        W79547   8.307  40.394  14.032
 6480W        W79548   8.805  31.423  13.083
 6481W        W79549   4.062  25.003  10.306
 6482W        W79550   6.491  38.344  13.310
 6483W        W79551  26.337  11.706   0.928
 6484W        W79552  41.909  38.986  10.730
 6485W        W79553  28.531   9.663  13.901
 6486W        W79554  29.591  29.388  14.305
 6487W        W79555  28.609  23.757  14.577
 6488W        W79556  31.804  14.249   0.809
 6489W        W79557   3.920   1.907   1.439
 6490W        W79558   2.863   2.186   0.383
 6491W        W79559  34.773  37.127  10.585
 6492W        W79560  29.459  16.812  14.988
 6493W        W79561  44.379   0.666  11.051
 6494W        W79562  21.036   0.086   0.519
 6495W        W79563  15.639  16.462   3.581
 6496W        W79564  25.621  28.876  14.323
 6497W        W79565  42.109  38.368   4.163
 6498W        W79566  43.117  41.355  11.166
 6499W        W79567   3.403  23.127   2.230
 6500W        W79568  34.027  20.142   2.685
 6501W        W79569  14.378   3.443   4.197
 6502W        W79570  24.640   0.745  12.074
 6503W        W79571  27.155  28.962   2.440
 6504W        W79572  37.997  20.556  11.921
 6505W        W79573  25.225  34.419  14.806
 6506W        W79574  12.554  34.517  11.563
 6507W        W79575  43.732  16.368   0.020
 6508W        W79576  14.681  17.046   4.620
 6509W        W79577  17.219  36.311  14.738
 6510W        W79578  28.794  32.189  11.034
 6511W        W79579  15.146   3.172   1.739
 6512W        W79580  41.969  38.146   3.708
 6513W        W79581  42.555  26.187   2.772
 6514W        W79582  38.851  42.277  11.658
 6515W        W79583  30.611  12.759   1.806
 6516W        W79584   6.155  20.624  10.753
 6517W        W79585  40.477  21.049   1.213
 6518W        W79586   7.812   3.455  13.653
 6519W        W79587  39.088   9.888  11.961
 6520W        W79588  25.108  10.784   4.158
 6521W        W79589  12.584  11.399  14.572
 6522W        W79590   2.386  36.572   4.734
 6523W        W79591  11.892  12.638   0.944
 6524W        W79592   0.393   8.389   0.896
 6525W        W79593  25.900  33.768  11.947
 6526W        W79594   1.244  25.637   1.906
 6527W        W79595  10.702  34.023  11.550
 6528W        W79596   2.541   4.317   1.388
 6529W        W79597  21.757  30.683   2.458
 6530W        W79598  41.616  18.661   4.134
 6531W        W79599  25.073  40.028  11.968
 6532W        W79600   8.109  29.651   2.982
 6533W        W79601  17.627  11.312  14.789
 6534W        W79602   5.325  14.675   1.978
 6535W        W79603  21.258  12.278   0.474
 6536W        W79604  35.604  44.915   4.136
 6537W        W79605   9.808  28.992   3.405
 6538W        W79606  34.985  44.779   2.363
 6539W        W79607  44.962  17.273   1.427
 6540W        W79608   5.244  16.344  13.258
 6541W        W79609  10.244  12.863   3.836
 6542W        W79610   3.486   6.334   2.183
 6543W        W79611  11.588  17.690  13.464
 6544W        W79612  35.340  39.303   4.221
 6545W        W79613  10.409  11.099   4.206
 6546W        W79614   4.749   9.779   2.174
 6547W        W79615  11.722  39.485  12.927
 6548W        W79616  14.621  13.043  11.629
 6549W        W79617   9.558  37.896   3.756
 6550W        W79618   5.447   1.366  11.050
 6551W        W79619  31.401  41.369  13.885
 6552W        W79620  12.864  26.923  11.965
 6553W        W79621   6.291  13.008  11.062
 6554W        W79622  12.169   0.779   3.788
 6555W        W79623  35.526  23.154   4.576
 6556W        W79624  31.378  19.610  12.203
 6557W        W79625  42.785  27.256   2.408
 6558W        W79626   9.772  39.819   0.927
 6559W        W79627  44.421   1.005  14.382
 6560W        W79628  10.726  10.643  13.028
 6561W        W79629  34.787  13.126   1.031
 6562W        W79630  42.825   8.158  14.331
 6563W        W79631   8.672   8.859   4.373
 6564W        W79632   1.301  27.406   4.640
 6565W        W79633  43.068  33.659   0.375
 6566W        W79634  18.834   5.646   1.790
 6567W        W79635   6.940  29.911  11.111
 6568W        W79636  30.024  38.584  14.747
 6569W        W79637  31.558  27.196   4.075
 6570W        W79638  20.010  26.447   0.442
 6571W        W79639  31.008  19.231   0.712
 6572W        W79640  28.677   7.764  14.016
 6573W        W79641  24.448  27.045   4.510
 6574W        W79642  36.775   1.344  13.837
 6575W        W79643  16.413  14.254   3.356
 6576W        W79644  12.199  44.466   3.098
 6577W        W79645  33.097  24.270   1.461
 6578W        W79646  14.235  20.799   3.138
 6579W        W79647  33.110  30.973   4.040
 6580W        W79648  27.465  22.395  11.292
 6581W        W79649  25.917  42.383  13.942
 6582W        W79650  36.496  24.126  10.589
 6583W        W79651   9.803  11.797  13.020
 6584W        W79652   9.939  17.668   1.231
 6585W        W79653  34.621  22.036   4.486
 6586W        W79654  24.241  38.048  11.495
 6587W        W79655   1.364  14.424   3.119
 6588W        W79656  44.519  29.952   2.806
 6589W        W79657  34.059   8.751  14.287
 6590W        W79658  10.847   1.422  11.478
 6591W        W79659   2.694   2.713   2.234
 6592W        W79660  35.172   9.364  11.569
 6593W        W79661   5.398  29.165  10.739
 6594W        W79662  26.143  39.756   4.664
 6595W        W79663  30.399  24.486   1.732
 6596W        W79664  38.022   2.818  10.952
 6597W        W79665  40.793  39.387  12.392
 6598W        W79666  19.962  17.370  14.625
 6599W        W79667  20.089   8.221  14.213
 6600W        W79668   0.424  10.954   1.713
 6601W        W79669  41.442  17.281  10.429
 6602W        W79670  39.886  11.812   2.350
 6603W        W79671  27.757   0.847  11.177
 6604W        W79672  15.126  18.888  10.631
 6605W        W79673  17.304  14.881  11.544
 6606W        W79674  21.125   0.169   1.473
 6607W        W79675  35.661  22.769   2.342
 6608W        W79676  36.334  26.009   4.087
 6609W        W79677  28.033  31.592   3.655
 6610W        W79678  15.214   0.620   4.691
 6611W        W79679   5.261  31.231  13.092
 6612W        W79680  30.961  12.312  10.638
 6613W        W79681  43.993  31.416   4.058
 6614W        W79682  10.373  38.581  11.079
 6615W        W79683  32.311  28.084  10.250
 6616W        W79684  25.963   3.501  11.186
 6617W        W79685  10.790  20.318  14.499
 6618W        W79686  18.524  26.183  12.536
 6619W        W79687  11.832  31.916   1.751
 6620W        W79688   5.055  36.592  11.973
 6621W        W79689  34.350   2.696   3.256
 6622W        W79690   9.197  19.763  14.890
 6623W        W79691  22.496  14.992  14.657
 6624W        W79692  15.234  17.886   0.372
 6625W        W79693  43.475   8.245  11.103
 6626W        W79694  40.593  44.749  14.951
 6627W        W79695  16.038  34.773   2.196
 6628W        W79696  36.753  20.746  11.137
 6629W        W79697  43.181  43.913   3.916
 6630W        W79698  15.403   4.929  13.712
 6631W        W79699  15.729  37.876  12.857
 6632W        W79700   9.367   9.148  13.954
 6633W        W79701  14.541  29.051   0.323
 6634W        W79702   2.820  19.733   0.018
 6635W        W79703   3.168  44.757   0.686
 6636W        W79704   6.284  22.694  10.922
 6637W        W79705  23.500  32.048  12.039
 6638W        W79706  41.212   4.709   1.348
 6639W        W79707   1.949  10.106  14.467
 6640W        W79708  15.653  23.608  10.384
 6641W        W79709  17.262  29.417   1.765
 6642W        W79710  35.332  44.952  14.498
 6643W        W79711  43.425  40.010   4.264
 6644W        W79712   5.167  34.914  14.494
 6645W        W79713  30.426  10.896  14.880
 6646W        W79714   1.533  33.445  11.672
 6647W        W79715  44.711  27.081   3.288
 6648W        W79716   5.658  21.417   4.333
 6649W        W79717   9.929   8.370   0.852
 6650W        W79718   2.407  42.140  14.878
 6651W        W79719  41.351  36.275   4.529
 6652W        W79720  25.635  20.201  13.879
 6653W        W79721  17.465  39.795  14.493
 6654W        W79722  34.396   7.633  12.859
 6655W        W79723   0.382  19.031  14.299
 6656W        W79724  44.376  19.779   2.527
 6657W        W79725  35.532   4.773   4.579
 6658W        W79726  42.572  11.667  12.014
 6659W        W79727   5.297   0.208  14.717
 6660W        W79728   0.972  27.048   1.352
 6661W        W79729  21.781  25.135  13.035
 6662W        W79730   9.490  28.634   3.756
 6663W        W79731  23.465   5.127  14.965
 6664W        W79732   8.009  35.389  11.963
 6665W        W79733   7.242  10.249   4.201
 6666W        W79734  32.423   7.244   5.071
 6667W        W79735  38.485   9.074   0.206
 6668W        W79736  33.155  20.553  14.826
 6669W        W79737   2.769  43.555   2.688
 6670W        W79738  16.815  38.894  10.989
 6671W        W79739  39.935  25.838   3.479
 6672W        W79740  30.894  18.239  13.730
 6673W        W79741  18.408  20.011   1.074
 6674W        W79742   0.730  22.600  11.425
 6675W        W79743   1.780  31.171  10.706
 6676W        W79744  27.449   5.759   2.690
 6677W        W79745  14.448  44.455   2.268
 6678W        W79746  42.159  25.126  14.418
 6679W        W79747   3.214  35.304   3.050
 6680W        W79748   9.384  33.923   3.741
 6681W        W79749  19.224  10.746  14.050
 6682W        W79750   4.954   2.533   0.802
 6683W        W79751  41.275   6.031  10.490
 6684W        W79752  18.231  30.283  11.403
 6685W        W79753  28.195  26.544   3.745
 6686W        W79754  23.753  42.239   3.132
 6687W        W79755  40.532  27.387   2.829
 6688W        W79756  14.382   1.549   0.933
 6689W        W79757  37.837  28.912  11.178
 6690W        W79758  38.312  32.338  14.348
 6691W        W79759  34.070   4.766   4.128
 6692W        W79760  14.717   4.650  14.399
 6693W        W79761   7.759  10.659  12.436
 6694W        W79762  11.291  33.672  12.275
 6695W        W79763  26.590  26.504   4.681
 6696W        W79764  15.165  27.209  12.337
 6697W        W79765  19.408  23.766   0.501
 6698W        W79766  32.646  32.871   0.278
 6699W        W79767  38.107  24.263   1.776
 6700W        W79768  13.180  21.529  11.593
 6701W        W79769  41.136  14.629   1.232
 6702W        W79770  35.580  41.757   0.854
 6703W        W79771  20.599  44.746   4.495
 6704W        W79772  41.490  20.495  14.819
 6705W        W79773  10.729  42.343   3.267
 6706W        W79774  22.051  11.640  11.984
 6707W        W79775  23.435   7.406  12.539
 6708W        W79776  28.127   8.159   1.664
 6709W        W79777   7.355  20.798  11.113
 6710W        W79778  30.439  11.626   2.174
 6711W        W79779  38.625  40.010   2.151
 6712W        W79780  11.139  39.292   4.952
 6713W        W79781  13.157  34.103   1.783
 6714W        W79782   9.924  43.943   3.665
 6715W        W79783  12.153  25.596   3.114
 6716W        W79784  14.209   3.488   0.957
 6717W        W79785  20.688  15.895  11.504
 6718W        W79786   9.147   7.879   2.706
 6719W        W79787   4.586  34.511  14.910
 6720W        W79788   1.551  25.491  12.506
 6721W        W79789  43.087  14.692  13.843
 6722W        W79790   0.315  21.333   1.775
 6723W        W79791  15.291  41.291  11.573
 6724W        W79792   0.432  37.822   4.127
 6725W        W79793  10.807   0.850  14.787
 6726W        W79794   5.963  22.590   4.175
 6727W        W79795  33.004  38.900  13.589
 6728W        W79796  32.590  19.681   4.182
 6729W        W79797  35.328  28.894   3.127
 6730W        W79798  21.518  40.973   1.238
 6731W        W79799  16.741  35.427   1.854
 6732W        W79800   0.708  29.154  11.117
 6733W        W79801   9.365  19.887   0.760
 6734W        W79802  21.634   8.722  14.897
 6735W        W79803  26.678  15.282  14.852
 6736W        W79804   0.935  22.592   1.821
 6737W        W79805  42.103   4.989  12.203
 6738W        W79806  36.481   9.379   1.226
 6739W        W79807  25.787  26.697  10.633
 6740W        W79808  22.393  22.289  14.521
 6741W        W79809  29.852   9.377  13.896
 6742W        W79810  24.573  17.374   0.760
 6743W        W79811  33.924  34.627  13.436
 6744W        W79812  13.842  36.616   0.168
 6745W        W79813  20.813   1.455   9.845
 6746W        W79814  41.968  18.250   3.200
 6747W        W79815  26.068   1.447   1.173
 6748W        W79816  41.526  37.796  12.039
 6749W        W79817  37.395  34.372  12.973
 6750W        W79818  30.190  21.634  11.519
 6751W        W79819  38.877  25.243  13.854
 6752W        W79820  19.101  20.734  11.074
 6753W        W79821  28.634  40.615   4.366
 6754W        W79822  22.512   6.455   4.081
 6755W        W79823   3.953  30.556  11.597
 6756W        W79824  10.197   9.317   0.669
 6757W        W79825   2.698  32.388  13.401
 6758W        W79826  28.247  39.324  10.531
 6759W        W79827  22.102  26.908  12.385
 6760W        W79828  32.099  32.620   4.340
 6761W        W79829   2.197  33.051  11.074
 6762W        W79830  23.627  20.651   4.690
 6763W        W79831  11.847  36.436   2.222
 6764W        W79832  38.469  28.777  12.565
 6765W        W79833  17.021  10.358  11.118
 6766W        W79834   9.876   7.522   2.614
 6767W        W79835  42.023  14.769   3.201
 6768W        W79836  42.750  32.080   3.612
 6769W        W79837  20.809  11.311  10.797
 6770W        W79838   7.675  43.448  11.099
 6771W        W79839  11.847  38.625  12.095
 6772W        W79840  31.652  13.668  14.016
 6773W        W79841  30.647  36.906  11.252
 6774W        W79842  44.849  14.206   0.756
 6775W        W79843  10.627   0.058   4.072
 6776W        W79844  18.642  32.701   2.730
 6777W        W79845  18.308  38.010  13.436
 6778W        W79846  21.985  22.710   3.254
 6779W        W79847   8.728  28.855   3.347
 6780W        W79848  13.366  34.597  13.073
 6781W        W79849   9.260  33.808   1.463
 6782W        W79850  36.567  40.933   3.347
 6783W        W79851   6.743  15.118   0.975
 6784W        W79852  10.567  41.464  11.627
 6785W        W79853  13.791  43.325  12.860
 6786W        W79854  20.675   7.332  13.490
 6787W        W79855   3.438  20.079   2.861
 6788W        W79856  11.626  13.040   2.656
 6789W        W79857  19.481   8.557   2.355
 6790W        W79858  13.187  12.351  14.377
 6791W        W79859  19.172  26.553  12.927
 6792W        W79860  17.148  28.336   4.031
 6793W        W79861  18.279  40.518   4.589
 6794W        W79862   2.862   4.936  11.784
 6795W        W79863  37.972  25.978  11.057
 6796W        W79864  25.641  31.624  10.740
 6797W        W79865  13.334   1.267  10.594
 6798W        W79866  11.573  14.634   4.761
 6799W        W79867  24.620  43.169   2.703
 6800W        W79868  22.174  32.939   3.951
 6801W        W79869   1.366  41.448   3.198
 6802W        W79870  17.268  44.330  14.864
 6803W        W79871  36.990  34.511  11.651
 6804W        W79872  20.099   4.715   1.824
 6805W        W79873  37.981  42.840  10.637
 6806W        W79874  35.943  14.155   4.235
 6807W        W79875  33.548  17.215   5.152
 6808W        W79876  23.240  20.767   1.316
 6809W        W79877  24.410  15.060   0.187
 6810W        W79878   4.897  41.990   0.297
 6811W        W79879  42.373  19.275   3.830
 6812W        W79880  12.651   2.476  14.524
 6813W        W79881  24.676  19.995   0.270
 6814W        W79882  35.896  15.158  13.941
 6815W        W79883  10.977   4.805  12.467
 6816W        W79884  31.868   3.459   1.206
 6817W        W79885  19.127  39.497  14.591
 6818W        W79886  36.499  13.160  10.777
 6819W        W79887  16.344  11.332   3.859
 6820W        W79888  34.948  42.250   3.659
 6821W        W79889   7.809  37.585  13.869
 6822W        W79890  34.444  17.802  11.991
 6823W        W79891  41.845  21.564   3.410
 6824W        W79892  10.166  41.408   0.202
 6825W        W79893  15.194  12.193   4.525
 6826W        W79894  10.720  39.098  14.597
 6827W        W79895   9.423  13.137  14.019
 6828W        W79896  16.559  27.695   4.233
 6829W        W79897   5.774  36.574   4.593
 6830W        W79898   7.886  31.769  13.032
 6831W        W79899  22.053  30.464  13.381
 6832W        W79900  39.623  14.435   0.886
 6833W        W79901  26.959  20.496  12.464
 6834W        W79902   7.707  39.266  14.415
 6835W        W79903  18.545  10.780   1.757
 6836W        W79904  19.848  14.882   4.118
 6837W        W79905  23.542  25.540   1.345
 6838W        W79906  20.629   3.972  12.060
 6839W        W79907   8.144  22.013   2.692
 6840W        W79908  42.270   0.743  11.276
 6841W        W79909   3.903  14.831  14.784
 6842W        W79910   3.386  24.236   2.296
 6843W        W79911   4.187  25.060  10.802
 6844W        W79912  24.651  29.130   2.048
 6845W        W79913  33.193  38.990  14.569
 6846W        W79914  28.962  10.537   4.572
 6847W        W79915  31.126   5.819   3.860
 6848W        W79916  42.328   8.306   0.866
 6849W        W79917  36.989  41.065  12.553
 6850W        W79918  10.779   0.409   0.751
 6851W        W79919  36.068  41.260   2.641
 6852W        W79920  39.809  43.013  13.014
 6853W        W79921  10.227  18.262  13.813
 6854W        W79922  36.480  13.578  11.142
 6855W        W79923   7.538  39.810   2.449
 6856W        W79924   6.537  41.409  12.760
 6857W        W79925  16.811  15.288  11.956
 6858W        W79926  35.560  34.918   3.262
 6859W        W79927  15.230  14.717   1.538
 6860W        W79928  29.160  26.639   1.655
 6861W        W79929  42.212  39.279  12.465
 6862W        W79930  14.894  42.956   2.811
 6863W        W79931  29.148  31.138   3.773
 6864W        W79932  38.632   4.240   2.841
 6865W        W79933  12.824   8.067  10.926
 6866W        W79934  24.189  14.170   3.175
 6867W        W79935  27.620  11.424   3.022
 6868W        W79936  14.637  30.892   3.325
 6869W        W79937  41.935  10.884  13.904
 6870W        W79938  31.092  23.774   3.564
 6871W        W79939  39.543  26.046   1.531
 6872W        W79940  41.281  21.432  13.782
 6873W        W79941   7.166  36.570  12.513
 6874W        W79942  32.897   5.020  11.380
 6875W        W79943  31.495  35.343   3.758
 6876W        W79944  22.067   8.689   3.521
 6877W        W79945  14.885  25.760   4.041
 6878W        W79946   1.539   5.835  13.448
 6879W        W79947   9.309   0.974   1.333
 6880W        W79948  26.363  26.019   2.775
 6881W        W79949   1.789  16.641   2.194
 6882W        W79950  13.272  42.028   4.311
 6883W        W79951   0.014   4.644  14.891
 6884W        W79952  39.246  13.744  11.513
 6885W        W79953   2.658  21.046  11.377
 6886W        W79954  12.141  37.670   0.401
 6887W        W79955  13.509  19.134  14.364
 6888W        W79956  43.446  21.821   4.658
 6889W        W79957   7.377   3.921  14.892
 6890W        W79958   0.493  35.914   1.287
 6891W        W79959   9.403  23.309  11.119
 6892W        W79960   3.440  26.884  13.848
 6893W        W79961  21.642  28.502   4.566
 6894W        W79962   8.782  16.845   1.302
 6895W        W79963  32.881  12.377  14.991
 6896W        W79964  30.999  44.015  11.567
 6897W        W79965  20.208  17.044   1.816
 6898W        W79966  10.095  41.358   5.304
 6899W        W79967  25.211  37.542  10.978
 6900W        W79968   1.484  23.230   1.235
 6901W        W79969  38.584  16.880  11.632
 6902W        W79970  43.856  18.653   0.801
 6903W        W79971  37.307   4.277   4.201
 6904W        W79972  36.090  41.366  12.523
 6905W        W79973   6.331  23.614  10.645
 6906W        W79974  16.032  36.977  12.173
 6907W        W79975  32.440  18.749   4.903
 6908W        W79976  40.768  37.947   2.352
 6909W        W79977  33.094  25.253   0.343
 6910W        W79978  43.784  39.349  10.726
 6911W        W79979  14.653  10.873  13.022
 6912W        W79980  35.179  42.366  11.270
 6913W        W79981  44.913   8.154  14.805
 6914W        W79982  40.819  32.429  13.023
 6915W        W79983  37.832  23.160  10.692
 6916W        W79984   1.341   2.666  12.068
 6917W        W79985  15.647  37.315   0.273
 6918W        W79986  33.090  30.010  13.967
 6919W        W79987  20.783  16.780  10.746
 6920W        W79988  15.293  13.072  13.336
 6921W        W79989  37.770   6.359   1.705
 6922W        W79990  38.201   1.173  14.882
 6923W        W79991  37.968  30.536   1.443
 6924W        W79992   6.371   7.598  13.576
 6925W        W79993  32.831  37.449   0.117
 6926W        W79994  27.949  39.972  10.695
 6927W        W79995  12.571  18.564  13.006
 6928W        W79996  18.516  19.660   3.845
 6929W        W79997  13.698  39.684   3.351
 6930W        W79998  39.345  10.302  12.830
 6931W        W79999  31.521  37.832  13.977
 6932W        W80000  32.389  12.882   1.764
 6933W        W80001  21.053   8.245  14.437
 6934W        W80002  42.400   8.755   3.900
 6935W        W80003   8.666  42.961  11.416
 6936W        W80004  41.058  15.364  14.935
 6937W        W80005  26.386  29.158  10.771
 6938W        W80006  35.180  24.593   3.591
 6939W        W80007  39.847  23.147   3.399
 6940W        W80008  28.019  44.708   4.193
 6941W        W80009  32.310  16.331   3.763
 6942W        W80010   4.211  42.891  11.074
 6943W        W80011   7.156  10.080   3.705
 6944W        W80012  22.058  27.010  11.499
 6945W        W80013  41.949  21.428   4.839
 6946W        W80014  14.236  24.454   2.356
 6947W        W80015  14.074   6.114  13.530
 6948W        W80016  28.844   0.285  10.332
 6949W        W80017  29.054  33.020  10.659
 6950W        W80018  19.004   9.907  12.493
 6951W        W80019   0.825  22.118  14.246
 6952W        W80020  34.830  21.967  13.815
 6953W        W80021  11.405  13.146  12.448
 6954W        W80022  23.122   5.165   1.375
 6955W        W80023  11.650  41.459   3.672
 6956W        W80024  25.291  40.321   5.496
 6957W        W80025  33.598  28.622   1.316
 6958W        W80026  44.380  21.416   4.050
 6959W        W80027  35.309  16.768   0.861
 6960W        W80028  44.106   6.256   2.842
 6961W        W80029   5.040   3.392   0.819
 6962W        W80030   3.372  19.899  13.886
 6963W        W80031  38.463   1.668  10.771
 6964W        W80032  34.860  33.858  12.043
 6965W        W80033  35.629  10.472   1.838
 6966W        W80034  23.107   7.179  14.510
 6967W        W80035  38.422  42.021  10.515
 6968W        W80036  10.665  25.563  10.604
 6969W        W80037  14.830  17.778  11.070
 6970W        W80038  25.509   4.699   4.231
 6971W        W80039  18.788  33.474  14.744
 6972W        W80040   1.692  39.591   4.234
 6973W        W80041  23.153   1.473  14.603
 6974W        W80042  30.192  39.720   3.211
 6975W        W80043  30.436  25.586  10.726
 6976W        W80044  43.007   6.615   3.393
 6977W        W80045   9.171  37.416  14.953
 6978W        W80046  27.153  21.162  10.629
 6979W        W80047  25.256  18.031   4.123
 6980W        W80048  38.360   3.896  13.478
 6981W        W80049  26.178  14.795   0.265
 6982W        W80050  40.312   3.034   2.093
 6983W        W80051  15.235  23.245  14.478
 6984W        W80052  18.718  35.097  12.922
 6985W        W80053  27.447   6.156   4.426
 6986W        W80054  17.869  12.628  10.681
 6987W        W80055  11.518  14.556   0.434
 6988W        W80056   7.358  38.466  12.799
 6989W        W80057   5.658  22.478   4.569
 6990W        W80058   3.916  38.336   1.197
 6991W        W80059  23.938  22.034  14.718
 6992W        W80060   4.664  37.022  12.481
 6993W        W80061  13.831  18.197   4.761
 6994W        W80062  13.384   8.772  10.773
 6995W        W80063  17.131  23.968  11.621
 6996W        W80064  30.585  18.045  14.459
 6997W        W80065  37.906  18.501  13.786
 6998W        W80066  17.599  20.855   0.741
 6999W        W80067  25.565   0.452   4.445
 7000W        W80068  10.450  40.060   2.747
 7001W        W80069  15.786  15.239   0.444
 7002W        W80070   1.897  27.575  10.616
 7003W        W80071  14.196  25.669   3.469
 7004W        W80072  24.020   1.464  14.534
 7005W        W80073   4.677  40.453   0.940
 7006W        W80074  12.849  15.245   2.390
 7007W        W80075   7.280   5.793  10.663
 7008W        W80076  34.319  22.199  11.566
 7009W        W80077  26.255  29.441  12.817
 7010W        W80078  39.842  20.634  11.200
 7011W        W80079  12.337  22.123  14.830
 7012W        W80080  37.528  21.607   1.749
 7013W        W80081   3.641  14.468  10.379
 7014W        W80082  23.009  33.910   0.282
 7015W        W80083  16.096  15.527   4.022
 7016W        W80084  10.711  38.644  11.527
 7017W        W80085  40.138  17.259  11.010
 7018W        W80086  19.937  31.948  10.263
 7019W        W80087  39.340  30.054  13.564
 7020W        W80088  14.207  39.453  11.442
 7021W        W80089  27.202  31.450  10.876
 7022W        W80090  33.826  30.393  12.862
 7023W        W80091  14.867  20.017   3.601
 7024W        W80092  43.296  26.166   0.255
 7025W        W80093   1.074  37.313  10.641
 7026W        W80094  12.589   0.047  11.078
 7027W        W80095  43.732   0.922  11.967
 7028W        W80096  25.611  14.611   0.180
 7029W        W80097  19.274   3.761  11.080
 7030W        W80098   1.731  14.729  14.556
 7031W        W80099  36.410  20.055  10.682
 7032W        W80100  12.221  36.064   1.595
 7033W        W80101   0.999  14.789   3.737
 7034W        W80102  27.290  33.037   0.294
 7035W        W80103  21.661  21.125  11.830
 7036W        W80104  25.666  20.541   1.351
 7037W        W80105  17.695   4.769   0.757
 7038W        W80106  19.812  15.808  11.195
 7039W        W80107  43.344  39.858   1.127
 7040W        W80108  41.041  37.031   0.703
 7041W        W80109  10.866  40.805  12.399
 7042W        W80110  18.649   1.913   0.292
 7043W        W80111  34.850   8.774   2.403
 7044W        W80112  16.428   6.641  12.181
 7045W        W80113  14.054  35.983  13.955
 7046W        W80114  44.858  26.438  10.642
 7047W        W80115  21.159  40.541   1.740
 7048W        W80116  38.834   9.595  10.155
 7049W        W80117   5.464   2.409   2.734
 7050W        W80118  36.757  29.572  14.711
 7051W        W80119  34.324  22.112   3.155
 7052W        W80120  40.117  28.681  13.450
 7053W        W80121  42.435  41.257  10.769
 7054W        W80122  12.540  22.616   1.422
 7055W        W80123   1.286   4.164   0.987
 7056W        W80124  18.571  24.159  13.030
 7057W        W80125  15.300   3.860   3.251
 7058W        W80126  39.517  17.835   4.296
 7059W        W80127   9.803   3.680   3.588
 7060W        W80128  34.588   2.771  12.072
 7061W        W80129  14.788  25.390  11.126
 7062W        W80130  16.832   6.335  12.053
 7063W        W80131   5.792  35.069   4.054
 7064W        W80132  32.642  22.674   3.694
 7065W        W80133  44.859  25.677   4.685
 7066W        W80134   7.779  36.060   2.344
 7067W        W80135  12.652  19.346  12.201
 7068W        W80136   3.671   6.945   4.116
 7069W        W80137  44.214  28.448   1.707
 7070W        W80138  26.524  24.562  11.026
 7071W        W80139  36.135   7.740  13.948
 7072W        W80140   2.292  11.747   2.167
 7073W        W80141   9.072  41.894   4.196
 7074W        W80142  14.753  18.865   3.313
 7075W        W80143  11.829  13.143  12.837
 7076W        W80144  10.661   9.238  14.380
 7077W        W80145  14.000  37.752   3.272
 7078W        W80146  31.654  21.512  12.480
 7079W        W80147  10.765   0.939   1.970
 7080W        W80148  33.883   1.788  10.526
 7081W        W80149  35.187  21.144  13.039
 7082W        W80150  26.852  42.186  12.578
 7083W        W80151   5.833   8.977  14.506
 7084W        W80152  43.509  30.915   2.271
 7085W        W80153  21.648  14.699  13.928
 7086W        W80154  41.987  33.050   1.257
 7087W        W80155  22.526  14.882   1.910
 7088W        W80156   2.933  13.841  14.871
 7089W        W80157  31.937  32.893  14.959
 7090W        W80158   2.257  16.803  12.538
 7091W        W80159  26.055   9.769   0.429
 7092W        W80160  22.160  36.310  13.388
 7093W        W80161  38.428  32.039   0.780
 7094W        W80162   9.134  22.174  14.478
 7095W        W80163  10.917  26.490   4.177
 7096W        W80164   3.037  22.696   3.760
 7097W        W80165  22.952   4.336  14.907
 7098W        W80166  20.638   7.900   3.100
 7099W        W80167  34.010  34.715   1.600
 7100W        W80168  14.230  13.265  12.408
 7101W        W80169  16.846  30.076  10.660
 7102W        W80170  30.038  37.142   1.746
 7103W        W80171  43.384  23.511  14.775
 7104W        W80172  27.406  10.364  12.505
 7105W        W80173  25.687  42.954   4.672
 7106W        W80174  14.690  14.253   5.121
 7107W        W80175  24.701  19.287   9.996
 7108W        W80176  43.837  19.622   4.938
 7109W        W80177   3.297  38.817  11.095
 7110W        W80178  31.055  19.531   4.700
 7111W        W80179  24.153   0.408  12.580
 7112W        W80180  38.761   8.175  10.612
 7113W        W80181  31.607   3.392   1.830
 7114W        W80182  20.924  13.585   3.060
 7115W        W80183  24.081   2.281  13.946
 7116W        W80184  11.392  36.047   1.379
 7117W        W80185  34.965  16.107   1.714
 7118W        W80186  19.525  16.824  11.890
 7119W        W80187  19.217  15.635  12.443
 7120W        W80188  41.891  41.323   3.845
 7121W        W80189  17.461  43.346   0.948
 7122W        W80190   4.368  39.535  12.086
 7123W        W80191  19.994  36.832  14.823
 7124W        W80192   2.246  12.193   4.110
 7125W        W80193  16.059  38.519  10.581
 7126W        W80194   9.566  26.605   4.615
 7127W        W80195  39.465  32.742  14.898
 7128W        W80196   8.730  43.187   1.906
 7129W        W80197  24.135  24.008   1.940
 7130W        W80198  15.592   9.694   1.359
 7131W        W80199  33.630   0.467   2.359
 7132W        W80200  18.672   9.792  14.951
 7133W        W80201  13.101  11.638   1.825
 7134W        W80202   7.797  10.645   4.420
 7135W        W80203  20.438  37.492   0.404
 7136W        W80204  44.122   8.204   2.340
 7137W        W80205  14.262  17.796  12.645
 7138W        W80206   0.236  21.996  10.615
 7139W        W80207  24.588  28.647  11.615
 7140W        W80208  14.793  30.906   4.644
 7141W        W80209  37.247  27.693   1.775
 7142W        W80210  10.706  14.062   3.545
 7143W        W80211  18.272   8.331  12.877
 7144W        W80212  39.950  14.398  11.943
 7145W        W80213  25.514   9.113  13.355
 7146W        W80214   2.589  21.484   3.746
 7147W        W80215   3.950  30.055   1.849
 7148W        W80216  26.748  21.645  12.061
 7149W        W80217  39.533   7.589  13.489
 7150W        W80218  28.649  15.674   3.433
 7151W        W80219  34.040  40.469   4.111
 7152W        W80220  34.854  35.877   0.833
 7153W        W80221  34.694  44.002   3.391
 7154W        W80222  28.518  17.790   1.836
 7155W        W80223  29.797  29.068   4.245
 7156W        W80224  36.068  42.210   0.307
 7157W        W80225   4.353   9.780   1.395
 7158W        W80226  18.045  35.044   0.885
 7159W        W80227  39.334  40.753  14.698
 7160W        W80228  23.427  38.372  12.351
 7161W        W80229  31.959  28.158   0.909
 7162W        W80230  26.679   1.332   2.363
 7163W        W80231   2.817   9.569   3.755
 7164W        W80232  15.318  27.912   2.752
 7165W        W80233  29.670  29.033   1.478
 7166W        W80234  31.046   1.565  13.936
 7167W        W80235  20.997  32.036   0.125
 7168W        W80236  13.930   2.732  11.522
 7169W        W80237   3.187  16.190   3.755
 7170W        W80238  40.764  17.079   4.707
 7171W        W80239  32.367  29.510  10.722
 7172W        W80240  42.329  37.378  10.154
 7173W        W80241  24.191  29.053   1.222
 7174W        W80242  12.665  31.089   4.600
 7175W        W80243  41.039  30.961  14.122
 7176W        W80244   8.000  35.621   2.133
 7177W        W80245  36.896  14.281   2.398
 7178W        W80246  19.473  40.686  12.098
 7179W        W80247   2.689   1.159  10.507
 7180W        W80248  19.057  33.901  14.464
 7181W        W80249   4.430  39.486  13.511
 7182W        W80250  33.587  29.646   3.156
 7183W        W80251   3.483  15.261   1.638
 7184W        W80252  41.948   5.943  12.850
 7185W        W80253   2.775   0.271  14.481
 7186W        W80254  15.713  43.851   3.197
 7187W        W80255  24.069  23.938   2.867
 7188W        W80256  14.500  42.261   0.408
 7189W        W80257  28.211   9.047   2.607
 7190W        W80258   2.003  21.566  13.017
 7191W        W80259  11.845   0.797   3.346
 7192W        W80260   0.030  24.553  11.012
 7193W        W80261   2.996   0.327   2.245
 7194W        W80262  15.640  43.818   1.293
 7195W        W80263  10.214   0.098   3.216
 7196W        W80264  43.919  31.836   3.169
 7197W        W80265  12.234  23.003   2.708
 7198W        W80266  26.134  18.055   3.888
 7199W        W80267  17.275  27.935  12.778
 7200W        W80268  44.272  38.376  10.116
 7201W        W80269   7.335  25.639  14.382
 7202W        W80270  15.644  35.853   0.843
 7203W        W80271  38.957  18.089  12.186
 7204W        W80272  24.728  44.758  11.001
 7205W        W80273  35.321  27.907   3.246
 7206W        W80274  15.786  10.134  14.505
 7207W        W80275  12.160  17.177  14.971
 7208W        W80276   0.347  20.529  13.131
 7209W        W80277  26.588  30.473  12.585
 7210W        W80278   7.925   8.897   0.251
 7211W        W80279  33.510  43.558  12.581
 7212W        W80280   4.049  15.342   2.411
 7213W        W80281  41.955  29.628  10.440
 7214W        W80282   7.708  28.426   2.837
 7215W        W80283  39.469  18.778  11.391
 7216W        W80284  18.001  29.683  12.104
 7217W        W80285  30.848   8.968   4.068
 7218W        W80286  17.089  14.120  11.745
 7219W        W80287  42.220   6.977   3.698
 7220W        W80288   9.277  25.239   3.696
 7221W        W80289  10.208  22.087  11.153
 7222W        W80290  25.955  44.487  10.720
 7223W        W80291  29.484   5.309  13.923
 7224W        W80292  16.330  27.189   2.211
 7225W        W80293  13.666  40.568  11.847
 7226W        W80294  27.410   5.502  13.544
 7227W        W80295   2.464   2.782   0.937
 7228W        W80296  35.125   6.675   2.524
 7229W        W80297   7.328  37.981   4.343
 7230W        W80298  14.620  39.577  14.550
 7231W        W80299  25.373  43.824   3.496
 7232W        W80300  23.574  20.364   4.216
 7233W        W80301  25.940  37.927  10.664
 7234W        W80302  17.755  26.010  14.001
 7235W        W80303  15.128   1.489  13.428
 7236W        W80304  19.628   6.344   3.219
 7237W        W80305   5.096  36.148   0.311
 7238W        W80306  15.010  19.060   2.674
 7239W        W80307  38.322  17.920   0.901
 7240W        W80308  16.634  26.801   2.387
 7241W        W80309  40.231  12.687  10.179
 7242W        W80310  26.197  20.955   3.635
 7243W        W80311  23.597  13.631  13.923
 7244W        W80312  17.566  19.784  13.383
 7245W        W80313  44.835  33.809  13.479
 7246W        W80314  38.642  20.263   3.051
 7247W        W80315   4.396  37.923  11.619
 7248W        W80316  29.974  43.999  13.769
 7249W        W80317  35.836  16.528  12.905
 7250W        W80318   8.619  41.707   0.747
 7251W        W80319  26.985   5.360  12.035
 7252W        W80320  13.123   1.153  11.472
 7253W        W80321   5.845   5.241  14.798
 7254W        W80322  21.957  15.851   0.458
 7255W        W80323  44.046  12.200   2.354
 7256W        W80324  28.450  28.010   1.816
 7257W        W80325  15.313   8.291   2.340
 7258W        W80326  42.488  38.393  10.650
 7259W        W80327  14.119  29.107   4.536
 7260W        W80328  25.625  11.910  13.763
 7261W        W80329  35.603  26.692   1.832
 7262W        W80330  14.158  26.795   4.578
 7263W        W80331  43.561  37.626   3.860
 7264W        W80332  31.581   0.694   4.491
 7265W        W80333  27.501  14.598  14.000
 7266W        W80334  10.136  29.611  13.860
 7267W        W80335  32.075   0.170   1.870
 7268W        W80336   5.317   5.765  12.842
 7269W        W80337  32.018  24.764  14.325
 7270W        W80338  16.150  20.293  11.148
 7271W        W80339  14.574  16.623   0.492
 7272W        W80340   1.069   1.759   1.861
 7273W        W80341  19.513  20.648  10.779
 7274W        W80342  22.098  28.357   3.810
 7275W        W80343  35.990  16.222   4.192
 7276W        W80344  30.687   8.400   1.851
 7277W        W80345  18.233  40.871   3.248
 7278W        W80346  19.305   0.525   2.884
 7279W        W80347   8.326  40.856  10.732
 7280W        W80348   5.985  15.148   1.694
 7281W        W80349  44.416  42.866   0.445
 7282W        W80350  24.114   8.785  13.792
 7283W        W80351  23.721  25.265   0.910
 7284W        W80352   5.797  11.298   1.953
 7285W        W80353   6.232  18.205  12.790
 7286W        W80354  12.769  44.951  13.839
 7287W        W80355  24.160  41.376  14.495
 7288W        W80356  24.213  29.447  11.414
 7289W        W80357   0.514  27.847  13.936
 7290W        W80358  33.244  43.761   1.941
 7291W        W80359  40.127  39.450  10.642
 7292W        W80360   6.375  19.203  13.181
 7293W        W80361   6.757  24.535   4.766
 7294W        W80362   0.461  38.923   0.490
 7295W        W80363   2.053  26.046   1.931
 7296W        W80364  11.776  20.479  10.702
 7297W        W80365   3.394  44.835  12.876
 7298W        W80366  37.595  25.644   4.995
 7299W        W80367  12.732   2.680  12.173
 7300W        W80368  30.474  36.843   4.300
 7301W        W80369  40.904   4.729   0.895
 7302W        W80370  29.446  43.007  11.564
 7303W        W80371  27.232  30.164  11.554
 7304W        W80372  14.824  11.327   0.291
 7305W        W80373  22.831  44.734   1.760
 7306W        W80374  44.440  39.943   0.303
 7307W        W80375  14.397  44.872   1.289
 7308W        W80376  43.000  34.419  14.820
 7309W        W80377  13.883  13.304  14.446
 7310W        W80378   4.638   2.826  12.962
 7311W        W80379   8.106  16.770   3.662
 7312W        W80380  23.482  31.140   1.393
 7313W        W80381  13.943   9.550   4.244
 7314W        W80382  31.687  14.649   4.797
 7315W        W80383  34.679   7.410   0.958
 7316W        W80384   1.967  42.548  14.530
 7317W        W80385  43.312  40.339  10.318
 7318W        W80386  24.486   6.669   4.315
 7319W        W80387  31.165  30.143  11.138
 7320W        W80388  44.053  23.960   2.448
 7321W        W80389  39.572  27.368   4.806
 7322W        W80390  31.204   0.830   2.482
 7323W        W80391  22.762   8.487  14.261
 7324W        W80392  18.604  40.315  14.433
 7325W        W80393   5.639  24.681  13.590
 7326W        W80394  30.611  10.038  12.375
 7327W        W80395  43.133  11.260   1.290
 7328W        W80396   6.981  29.089  13.779
 7329W        W80397  21.317  40.128   3.271
 7330W        W80398  16.750  24.588  12.007
 7331W        W80399  40.496  24.119   3.624
 7332W        W80400  30.183   0.379  12.560
 7333W        W80401  26.626  41.962  10.816
 7334W        W80402  41.574  18.275   0.731
 7335W        W80403   0.200  28.710   4.576
 7336W        W80404  36.191  33.832   2.091
 7337W        W80405  27.520  21.930   2.937
 7338W        W80406  38.723   6.206   9.932
 7339W        W80407  11.514   7.336  11.157
 7340W        W80408  10.832  19.080  10.615
 7341W        W80409  32.053  28.479   2.387
 7342W        W80410  42.993  11.356  12.366
 7343W        W80411  22.483  40.989   4.615
 7344W        W80412   4.067  32.953   3.105
 7345W        W80413  16.765  27.522   1.304
 7346W        W80414   3.294   3.444   1.735
 7347W        W80415  43.496  22.233  13.519
 7348W        W80416  17.353  30.483   1.187
 7349W        W80417   6.332   6.436   2.736
 7350W        W80418  24.001   7.085   1.360
 7351W        W80419  37.559  39.896  13.006
 7352W        W80420  35.895  18.011  12.035
 7353W        W80421  38.267  22.641   1.500
 7354W        W80422  36.128  38.881   3.675
 7355W        W80423  34.502  17.719   2.672
 7356W        W80424  33.037  36.823  11.420
 7357W        W80425   3.483  37.240  13.497
 7358W        W80426   3.992   8.669  14.405
 7359W        W80427  42.524  10.175   0.447
 7360W        W80428  32.529  12.730  12.972
 7361W        W80429  33.946  43.258  12.597
 7362W        W80430  10.123  24.458   2.782
 7363W        W80431  44.803  31.469   1.336
 7364W        W80432  21.126  36.850   1.210
 7365W        W80433  35.805  42.624   2.211
 7366W        W80434  43.963  36.680  11.051
 7367W        W80435  44.861  42.592  11.776
 7368W        W80436  36.548   9.609  13.778
 7369W        W80437   1.922  36.838  10.988
 7370W        W80438  11.390  16.628  13.076
 7371W        W80439  38.618  43.898   0.029
 7372W        W80440  34.373  44.360   0.333
 7373W        W80441  24.671  39.078  10.705
 7374W        W80442   1.810  16.380   4.713
 7375W        W80443  24.787  40.946   3.384
 7376W        W80444   1.440  14.855  14.039
 7377W        W80445  24.135  15.042  12.174
 7378W        W80446  27.150  22.274   3.105
 7379W        W80447  32.866  20.974   1.768
 7380W        W80448  18.660  20.156  14.713
 7381W        W80449  11.069  11.921  11.577
 7382W        W80450  12.256  32.078  11.792
 7383W        W80451   5.880  29.854  10.988
 7384W        W80452  23.385  34.694   4.742
 7385W        W80453  11.628  32.704  12.052
 7386W        W80454  14.293  42.618   3.830
 7387W        W80455   5.695  31.235   2.499
 7388W        W80456   8.058   9.217  12.954
 7389W        W80457  44.963  42.215   0.955
 7390W        W80458  42.462  44.949   1.854
 7391W        W80459  31.104   1.231  12.991
 7392W        W80460  24.510  18.028  11.663
 7393W        W80461  13.339   7.461  12.038
 7394W        W80462   3.700  36.581  11.598
 7395W        W80463  31.167   9.197  12.498
 7396W        W80464  12.075   3.527   3.611
 7397W        W80465  36.288  42.776   4.548
 7398W        W80466  27.765  25.673  10.626
 7399W        W80467  14.805  24.028   1.063
 7400W        W80468   2.045  36.250   3.796
 7401W        W80469  40.555  23.010  10.912
 7402W        W80470  20.496  39.047  14.825
 7403W        W80471  35.768  25.658   0.843
 7404W        W80472  23.281  37.499  13.061
 7405W        W80473  10.299  29.977   2.627
 7406W        W80474  14.087   2.043   1.425
 7407W        W80475  26.850  35.356  14.688
 7408W        W80476  43.309  28.919  10.775
 7409W        W80477   5.328  30.191  13.056
 7410W        W80478  19.683   2.492   0.313
 7411W        W80479  11.940  25.942   3.709
 7412W        W80480  13.378  28.907  12.977
 7413W        W80481   6.102  37.451  10.750
 7414W        W80482   0.979  11.211  13.205
 7415W        W80483   4.124  28.267  14.530
 7416W        W80484  30.364  37.228  14.901
 7417W        W80485  14.794  39.450   1.490
 7418W        W80486   8.104  20.999   9.821
 7419W        W80487  13.488   1.267  14.903
 7420W        W80488  36.168  21.897   4.606
 7421W        W80489  25.074   6.506  13.325
 7422W        W80490  31.888  21.563  10.638
 7423W        W80491  34.137  28.224   3.257
 7424W        W80492  19.466  20.499   1.029
 7425W        W80493   3.938   7.905   4.327
 7426W        W80494  21.223  30.827  14.989
 7427W        W80495  30.274  10.640   0.301
 7428W        W80496  34.906  27.417  13.058
 7429W        W80497  21.597  30.715  13.419
 7430W        W80498  37.790  44.588  10.187
 7431W        W80499  28.573  25.237  14.057
 7432W        W80500  24.179  30.615  13.014
 7433W        W80501  43.321  27.469  14.425
 7434W        W80502  32.936  39.503  10.694
 7435W        W80503  38.560  30.273   4.124
 7436W        W80504  19.104  38.334   4.693
 7437W        W80505   5.610  39.071   1.301
 7438W        W80506  25.435  29.085  13.872
 7439W        W80507  31.386  35.413   0.274
 7440W        W80508  37.327  18.651  12.848
 7441W        W80509  20.768  20.255  10.649
 7442W        W80510  42.659  36.540  12.545
 7443W        W80511  20.244  29.962   2.219
 7444W        W80512  43.691  12.310  14.786
 7445W        W80513  37.852   6.110   1.227
 7446W        W80514  24.597  38.528   0.932
 7447W        W80515  28.214  23.075  10.310
 7448W        W80516  34.534   3.814   2.381
 7449W        W80517  20.126  38.693  14.361
 7450W        W80518  20.024  18.458   0.088
 7451W        W80519  16.842  26.062  11.552
 7452W        W80520  41.864  37.625  10.200
 7453W        W80521  27.597  18.182  12.475
 7454W        W80522  12.617  22.584   4.781
 7455W        W80523  40.747  31.379   0.199
 7456W        W80524  43.288  44.768  12.968
 7457W        W80525   4.299   4.083  12.450
 7458W        W80526  23.410  23.052   3.586
 7459W        W80527  15.792  43.445   2.637
 7460W        W80528  40.110   1.900  11.864
 7461W        W80529  25.078  34.693  12.586
 7462W        W80530  44.106   2.185  13.477
 7463W        W80531  20.115   3.353   0.757
 7464W        W80532  27.939  27.772  11.763
 7465W        W80533  15.561  10.270   0.926
 7466W        W80534   6.453   8.593  13.414
 7467W        W80535  33.338  26.262  12.075
 7468W        W80536   1.669   9.432  13.958
 7469W        W80537   1.392  25.141  11.201
 7470W        W80538   4.405  11.069   1.826
 7471W        W80539  14.173  12.823  14.577
 7472W        W80540   6.312   0.378  10.977
 7473W        W80541  18.987  12.163   1.246
 7474W        W80542  16.455  17.792   0.839
 7475W        W80543  40.463  22.752   3.097
 7476W        W80544  36.504   0.111  13.858
 7477W        W80545  43.728  27.077  13.447
 7478W        W80546  27.419  12.594  14.679
 7479W        W80547  14.800  30.409   2.413
 7480W        W80548  20.647  26.096   2.354
 7481W        W80549  16.118  12.137   0.451
 7482W        W80550   8.255  29.162   4.368
 7483W        W80551  28.993  20.681   3.779
 7484W        W80552  39.387  29.125   3.359
 7485W        W80553  36.115   3.258   2.789
 7486W        W80554  31.694  10.172  14.000
 7487W        W80555  26.490  43.577   3.645
 7488W        W80556  30.686   7.921   2.722
 7489W        W80557  35.991  15.157   0.996
 7490W        W80558  10.236  39.082  11.057
 7491W        W80559  24.008  14.596   2.916
 7492W        W80560  21.576  11.300   3.902
 7493W        W80561   8.926  10.960  11.120
 7494W        W80562  42.730  44.034  11.544
 7495W        W80563  35.310  38.960  10.949
 7496W        W80564  19.114  40.793   2.337
 7497W        W80565  41.250   9.414   0.976
 7498W        W80566  24.934  33.751   5.069
 7499W        W80567  34.577  14.630   2.698
 7500W        W80568   6.479  43.566   1.379
 7501W        W80569  41.786   3.793   1.310
 7502W        W80570  37.973  24.270  12.947
 7503W        W80571  16.956  36.035  11.911
 7504W        W80572  14.720  27.449  12.480
 7505W        W80573  23.507   0.221  13.238
 7506W        W80574   4.902  17.565  10.514
 7507W        W80575  28.100   8.383  13.558
 7508W        W80576  30.292   1.740  11.847
 7509W        W80577   4.309  36.100   0.036
 7510W        W80578   8.817  28.523  13.020
 7511W        W80579   5.804   7.915  10.635
 7512W        W80580  24.816  13.268   1.173
 7513W        W80581  43.865  13.467   0.338
 7514W        W80582   0.954  20.579  14.359
 7515W        W80583   5.272   4.100   4.837
 7516W        W80584  44.990  24.956   1.871
 7517W        W80585  26.908  20.228   3.372
 7518W        W80586  42.922  32.022  13.844
 7519W        W80587   1.867   2.501  11.947
 7520W        W80588   1.939  37.954   4.614
 7521W        W80589  17.385  17.626  14.293
 7522W        W80590  11.344  41.011  12.282
 7523W        W80591  33.061  16.593   0.993
 7524W        W80592  35.808  29.981  11.587
 7525W        W80593  27.678  43.340  11.612
 7526W        W80594  27.412  20.088   3.439
 7527W        W80595  12.167  44.566   2.584
 7528W        W80596  20.328  33.017  10.907
 7529W        W80597  25.041  19.741   2.808
 7530W        W80598  37.465  43.750  14.404
 7531W        W80599  14.833  27.152   1.612
 7532W        W80600   7.207   0.256   4.636
 7533W        W80601  12.165  38.328   4.687
 7534W        W80602   8.839  34.392   4.872
 7535W        W80603  42.819  29.522  12.857
 7536W        W80604  27.142  26.419  13.064
 7537W        W80605  41.526  36.526  11.571
 7538W        W80606  30.848   9.312  11.213
 7539W        W80607  27.554  18.051   1.309
 7540W        W80608   7.378  30.383  14.805
 7541W        W80609  34.045  13.794  11.433
 7542W        W80610  10.080   7.401  12.054
 7543W        W80611   8.638  25.964  11.707
 7544W        W80612  10.303  38.561   0.881
 7545W        W80613  22.718  26.277  11.614
 7546W        W80614  25.856  38.517  12.274
 7547W        W80615   0.986   0.397  14.943
 7548W        W80616   0.476  43.089  12.264
 7549W        W80617  11.844  41.013  11.393
 7550W        W80618  42.524  43.951   1.405
 7551W        W80619  22.829   4.015  11.529
 7552W        W80620  18.589  42.760   1.295
 7553W        W80621   6.146  22.029   3.125
 7554W        W80622  40.287   2.709   4.219
 7555W        W80623  27.030  20.139   0.283
 7556W        W80624  12.335  41.605   0.271
 7557W        W80625  31.219   2.685   4.298
 7558W        W80626  20.504  29.061   4.424
 7559W        W80627  40.724  26.841  11.090
 7560W        W80628   5.501  37.501   1.346
 7561W        W80629  44.786  26.780   3.795
 7562W        W80630  33.083  14.237  12.055
 7563W        W80631  25.516  29.076  10.898
 7564W        W80632  14.667  17.867   0.397
 7565W        W80633  23.042  35.867  11.478
 7566W        W80634   0.812  17.804  12.445
 7567W        W80635  38.465   3.507   1.827
 7568W        W80636   9.327  20.127   3.726
 7569W        W80637  34.364  29.352   2.338
 7570W        W80638   9.173  24.645  12.031
 7571W        W80639  26.184  17.600  13.423
 7572W        W80640  13.859  33.610  11.408
 7573W        W80641   2.405  10.411   0.319
 7574W        W80642  18.959  39.877  12.112
 7575W        W80643  42.346  26.914  13.445
 7576W        W80644  38.196  11.415   1.553
 7577W        W80645  21.708  19.227  13.422
 7578W        W80646  14.662  28.664  11.056
 7579W        W80647  27.146  18.986  12.457
 7580W        W80648   6.617  25.235  11.116
 7581W        W80649  26.195  28.767   0.858
 7582W        W80650  25.711   1.811  11.707
 7583W        W80651  18.755  18.750  12.405
 7584W        W80652  37.710  42.701   1.715
 7585W        W80653  25.447  44.749  12.434
 7586W        W80654  20.158   7.401  12.414
 7587W        W80655  44.805   1.342  12.597
 7588W        W80656  29.599  23.430   4.228
 7589W        W80657  25.323  19.358   0.183
 7590W        W80658   2.482  38.939   2.249
 7591W        W80659  31.254  35.664  13.034
 7592W        W80660   9.566  15.175   0.504
 7593W        W80661  22.472  33.887  11.113
 7594W        W80662  22.459   4.172  10.969
 7595W        W80663  21.476  16.300  12.117
 7596W        W80664  30.783  14.323  12.066
 7597W        W80665   6.348  11.765  12.047
 7598W        W80666  20.621  38.184   4.522
 7599W        W80667  13.550  39.086  13.113
 7600W        W80668  35.229  27.767   0.830
 7601W        W80669   2.301  37.843  10.557
 7602W        W80670   3.927  18.334   3.832
 7603W        W80671  37.628   2.418   1.862
 7604W        W80672  32.886   6.448   4.459
 7605W        W80673  28.982  34.213  11.362
 7606W        W80674   2.343   7.409   4.014
 7607W        W80675  35.492   1.218  14.060
 7608W        W80676  10.709  31.871   2.334
 7609W        W80677  32.958  24.957  13.083
 7610W        W80678  42.059  12.760   4.548
 7611W        W80679  10.343  27.971  10.424
 7612W        W80680   0.689  40.830   2.237
 7613W        W80681  25.542   3.067  13.993
 7614W        W80682  17.403  24.187   4.124
 7615W        W80683  27.411  24.672  12.092
 7616W        W80684   8.183  20.773   1.383
 7617W        W80685  31.507  43.553   2.424
 7618W        W80686  31.187  31.431  11.575
 7619W        W80687  14.849   5.057   0.310
 7620W        W80688  35.660  44.039   1.295
 7621W        W80689   1.898  31.003   0.212
 7622W        W80690  10.650  11.117  14.326
 7623W        W80691  28.653  22.518  12.483
 7624W        W80692  13.267  18.725   1.210
 7625W        W80693  38.805   3.965   1.227
 7626W        W80694  33.127  39.476   0.251
 7627W        W80695  17.062  18.783   0.953
 7628W        W80696  28.081  17.744   1.305
 7629W        W80697  26.202  44.772   4.423
 7630W        W80698  32.023  13.032   1.349
 7631W        W80699  33.890  16.558  12.446
 7632W        W80700  26.558   9.705  10.529
 7633W        W80701   9.935  44.838  13.850
 7634W        W80702  24.908   1.171  11.991
 7635W        W80703  10.909  41.841   0.330
 7636W        W80704  18.603  17.065  14.506
 7637W        W80705   2.430  20.176   3.848
 7638W        W80706  15.542   9.014   5.094
 7639W        W80707  23.188   5.253  13.529
 7640W        W80708  39.099   5.842   9.780
 7641W        W80709  31.429   4.407  10.663
 7642W        W80710   4.264   6.788   2.364
 7643W        W80711  25.574  44.537   1.681
 7644W        W80712  34.486   3.795  13.596
 7645W        W80713   7.127  34.445  12.004
 7646W        W80714  43.005  22.619  14.307
 7647W        W80715  44.992  13.625  12.012
 7648W        W80716  32.463  42.139   1.359
 7649W        W80717  33.109  29.843  14.461
 7650W        W80718  25.867  15.243   4.730
 7651W        W80719   9.254   3.202  11.083
 7652W        W80720   2.500  22.331  10.956
 7653W        W80721  21.702  18.637   0.025
 7654W        W80722  24.669  35.442   2.412
 7655W        W80723  40.764   9.259   2.662
 7656W        W80724  23.210  33.696  13.995
 7657W        W80725  39.746  19.719   0.922
 7658W        W80726   2.920   8.857  13.350
 7659W        W80727  30.124  23.122   4.419
 7660W        W80728  29.958  11.758  11.377
 7661W        W80729  43.433  22.856   4.448
 7662W        W80730  36.548  19.861  12.146
 7663W        W80731  11.621  39.096  11.026
 7664W        W80732  28.115  21.649   2.214
 7665W        W80733  14.777  11.724   3.166
 7666W        W80734  38.173  19.094   4.745
 7667W        W80735  35.492  23.048  14.082
 7668W        W80736   9.245  35.927  10.872
 7669W        W80737   1.801   9.871   4.562
 7670W        W80738  23.107  23.166   2.001
 7671W        W80739  19.080  41.547   2.429
 7672W        W80740  31.072  31.168  12.007
 7673W        W80741  31.140  23.889   2.610
 7674W        W80742  42.403  22.221  10.546
 7675W        W80743  15.299  26.056  12.570
 7676W        W80744   2.440  42.753   0.712
 7677W        W80745  12.220  14.405  13.004
 7678W        W80746  13.274  35.945   0.608
 7679W        W80747  30.082  35.380  13.454
 7680W        W80748  19.128  23.220  14.805
 7681W        W80749  23.634  24.238   2.877
 7682W        W80750  22.444  39.072  12.656
 7683W        W80751  13.912  11.486  11.023
 7684W        W80752  14.281  34.024  13.082
 7685W        W80753  13.736  25.196  14.453
 7686W        W80754  37.661   8.272  11.425
 7687W        W80755  34.987  17.776  12.525
 7688W        W80756  21.679  25.498   1.686
 7689W        W80757   2.255   8.860  10.574
 7690W        W80758   6.878  40.034  10.736
 7691W        W80759  17.373  19.795  14.057
 7692W        W80760  22.535  20.392  13.956
 7693W        W80761  18.791   7.727   2.758
 7694W        W80762  19.684  30.486  11.400
 7695W        W80763  27.077  44.590  14.429
 7696W        W80764  11.063  16.863   9.669
 7697W        W80765  31.021   1.494   0.660
 7698W        W80766   0.905  35.609  12.945
 7699W        W80767  28.113  31.588  10.710
 7700W        W80768  15.068  31.614  13.498
 7701W        W80769  22.742  44.510  14.499
 7702W        W80770  35.471  33.881  14.495
 7703W        W80771  10.983  23.443   2.177
 7704W        W80772   1.431   7.186  13.708
 7705W        W80773  33.293   3.150  10.048
 7706W        W80774   1.928  18.341   4.117
 7707W        W80775   6.385  23.169  14.010
 7708W        W80776  20.121  41.357   1.454
 7709W        W80777   8.363  27.064  11.561
 7710W        W80778   4.680   4.351  11.135
 7711W        W80779  44.361  34.086   1.508
 7712W        W80780  20.623  25.443   1.265
 7713W        W80781  36.611  37.600   0.794
 7714W        W80782   9.373  25.049  10.697
 7715W        W80783  26.523  27.631   5.003
 7716W        W80784  37.833  31.368   4.145
 7717W        W80785  41.009   7.830   0.147
 7718W        W80786  26.022  43.450  12.338
 7719W        W80787  12.850  37.383   1.201
 7720W        W80788  33.228  35.936   3.396
 7721W        W80789  27.958  32.670  13.850
 7722W        W80790   1.919  34.087  10.593
 7723W        W80791  42.950  33.071   1.704
 7724W        W80792  29.917  29.140   2.378
 7725W        W80793  17.898  11.313   3.818
 7726W        W80794  42.288  19.803   4.554
 7727W        W80795  27.218   9.392   2.267
 7728W        W80796  25.140  22.476   2.757
 7729W        W80797  18.055  33.922   1.302
 7730W        W80798  40.586   1.784   3.634
 7731W        W80799   7.308  22.489   3.293
 7732W        W80800  30.043  17.234  14.306
 7733W        W80801   6.809  20.312  14.315
 7734W        W80802  12.131  39.983  12.052
 7735W        W80803   0.778  25.483  13.205
 7736W        W80804  21.962  31.980   2.061
 7737W        W80805  18.826  24.687   4.062
 7738W        W80806  34.820  21.974   0.486
 7739W        W80807  31.450  24.597  10.494
 7740W        W80808  15.592  15.417   4.212
 7741W        W80809  17.898   1.436   0.428
 7742W        W80810  30.972  29.487  12.929
 7743W        W80811  10.128   4.005  12.085
 7744W        W80812  23.543   0.339   4.419
 7745W        W80813  27.226  39.459  12.561
 7746W        W80814  13.660   9.849   1.432
 7747W        W80815  21.651  34.812   2.726
 7748W        W80816  37.252  17.851   2.357
 7749W        W80817   2.984  11.827   4.185
 7750W        W80818   4.988  32.536  11.212
 7751W        W80819  11.737   6.881  10.733
 7752W        W80820   2.452   8.609  11.001
 7753W        W80821  18.502   7.275   2.838
 7754W        W80822   2.768   0.807   2.265
 7755W        W80823  12.409  14.403   1.172
 7756W        W80824  20.122  29.584  14.743
 7757W        W80825  13.615   3.580   2.722
 7758W        W80826  41.825  33.918   2.595
 7759W        W80827  10.678  26.023   4.160
 7760W        W80828  44.950   0.688   0.040
 7761W        W80829  18.876  32.065   3.308
 7762W        W80830  22.201   5.932  14.963
 7763W        W80831   1.718   8.546   2.386
 7764W        W80832  11.169  31.809   3.550
 7765W        W80833  33.574   7.777  14.323
 7766W        W80834   7.204   8.572   2.083
 7767W        W80835   3.882   9.853   0.085
 7768W        W80836   9.016  38.981  11.209
 7769W        W80837  40.265   3.101   3.575
 7770W        W80838  17.656   8.888   4.142
 7771W        W80839   9.801  25.664   1.465
 7772W        W80840  20.115   7.390   0.938
 7773W        W80841  32.517   0.825   1.932
 7774W        W80842  29.532  40.196  13.467
 7775W        W80843  10.036   0.266  14.200
 7776W        W80844   3.743  31.691   1.842
 7777W        W80845  43.442  44.063  13.437
 7778W        W80846  12.141  18.203  12.977
 7779W        W80847  22.954   5.175  13.991
 7780W        W80848  22.585   8.647   0.088
 7781W        W80849  20.200   1.605  11.348
 7782W        W80850  11.208  12.132  11.113
 7783W        W80851  17.132  26.683   3.223
 7784W        W80852  25.595  32.487   4.707
 7785W        W80853  16.713   4.817  14.947
 7786W        W80854   7.880  44.128  12.940
 7787W        W80855   9.367  42.255  14.463
 7788W        W80856  17.526   9.513  11.861
 7789W        W80857  29.013  20.784  14.953
 7790W        W80858  40.551  31.671   2.156
 7791W        W80859  29.607  39.415  14.694
 7792W        W80860   4.049  13.622   3.910
 7793W        W80861  40.033  24.718  13.603
 7794W        W80862  28.678  41.291  12.472
 7795W        W80863  25.414  22.444   3.199
 7796W        W80864  37.051   8.880  13.364
 7797W        W80865  11.874  42.138   2.447
 7798W        W80866  25.594  23.690  14.373
 7799W        W80867  20.164  31.972  14.821
 7800W        W80868  19.086  37.968   4.321
 7801W        W80869  25.548   4.996  11.069
 7802W        W80870  27.635  19.183  14.236
 7803W        W80871  39.547  25.062  12.867
 7804W        W80872   3.225  37.950   0.845
 7805W        W80873  26.371  10.914   4.601
 7806W        W80874  28.625  16.123  11.044
 7807W        W80875  14.604  30.428  13.326
 7808W        W80876  19.722  21.296   4.619
 7809W        W80877  40.576  25.202   2.785
 7810W        W80878   8.943  14.088  12.933
 7811W        W80879  24.432  39.063  14.063
 7812W        W80880  10.699  21.349   0.360
 7813W        W80881  28.606   9.713  13.372
 7814W        W80882  29.933  23.794  12.505
 7815W        W80883  31.766  10.178   4.085
 7816W        W80884  26.453  20.481   3.685
 7817W        W80885  33.796   7.200   2.323
 7818W        W80886  30.917  24.134   3.052
 7819W        W80887  15.964  34.266   2.201
 7820W        W80888  10.794   9.717  11.518
 7821W        W80889  41.480  21.993  11.963
 7822W        W80890  39.782   2.995   3.732
 7823W        W80891   5.469  13.559  11.227
 7824W        W80892  24.700  20.729  13.995
 7825W        W80893  44.276  29.469   0.731
 7826W        W80894   8.667  44.375  14.012
 7827W        W80895  41.042  40.996   4.746
 7828W        W80896  20.658  34.609   2.389
 7829W        W80897  12.913  30.519  11.536
 7830W        W80898  16.710  20.926  12.451
 7831W        W80899  31.326  36.894   1.292
 7832W        W80900  22.189  18.278  13.459
 7833W        W80901  18.286   4.631  13.046
 7834W        W80902  19.591  38.446  12.141
 7835W        W80903  23.173  30.092   0.448
 7836W        W80904  32.596  39.964  10.970
 7837W        W80905   1.994   0.630   1.032
 7838W        W80906   3.183  41.861   4.799
 7839W        W80907  29.253  14.624   2.596
 7840W        W80908  37.312  32.837   1.539
 7841W        W80909  42.723  12.097  13.448
 7842W        W80910  27.680  12.877   0.815
 7843W        W80911   9.688   1.004  14.282
 7844W        W80912  16.688  37.976  12.225
 7845W        W80913  32.103  10.142   4.496
 7846W        W80914  11.865  27.581  10.708
 7847W        W80915  34.618   5.253   2.234
 7848W        W80916  31.516   4.377   2.633
 7849W        W80917  34.501   8.764  13.518
 7850W        W80918  11.363   1.929   2.349
 7851W        W80919  34.293  26.709   1.358
 7852W        W80920  36.567  18.174   4.584
 7853W        W80921  36.606   7.189   3.219
 7854W        W80922  21.252  21.248   0.837
 7855W        W80923  18.806  21.959  13.457
 7856W        W80924  19.881  27.823   4.221
 7857W        W80925   5.458  27.917   1.716
 7858W        W80926  13.037  21.302  10.352
 7859W        W80927  15.535   3.428  11.878
 7860W        W80928  12.557  25.581   0.356
 7861W        W80929  15.875  33.470  12.543
 7862W        W80930  32.542  14.215  11.128
 7863W        W80931  28.024   7.652   0.489
 7864W        W80932  44.204   2.284   3.234
 7865W        W80933  21.993  39.273   0.741
 7866W        W80934  22.841  10.278   4.128
 7867W        W80935   2.213   0.327   1.413
 7868W        W80936  15.893  35.031   4.291
 7869W        W80937  35.596   9.485  13.322
 7870W        W80938  30.434   1.490  10.902
 7871W        W80939  15.213  12.784  10.632
 7872W        W80940  19.808  42.857  11.238
 7873W        W80941  15.718   9.876   0.635
 7874W        W80942  19.683  36.900   1.297
 7875W        W80943  23.667  39.837  13.916
 7876W        W80944  39.929  30.565  10.752
 7877W        W80945   4.582  35.022   3.239
 7878W        W80946   7.249  18.973  10.559
 7879W        W80947  15.358  32.038  14.277
 7880W        W80948  11.406  28.465   0.806
 7881W        W80949  14.084  10.791   1.363
 7882W        W80950  26.263   5.314   0.880
 7883W        W80951   4.167  37.079  10.747
 7884W        W80952  18.312   3.461   3.588
 7885W        W80953   5.755  28.158   1.321
 7886W        W80954  27.524  33.107  12.252
 7887W        W80955  18.647  10.322   2.701
 7888W        W80956  10.769   9.835  11.014
 7889W        W80957   5.151  28.031   4.636
 7890W        W80958   8.938  36.823  14.022
 7891W        W80959   3.715  21.834  12.174
 7892W        W80960  34.261  31.608  13.333
 7893W        W80961  19.483  17.748   3.684
 7894W        W80962   7.932  19.077  12.413
 7895W        W80963  14.587  25.631  10.697
 7896W        W80964  22.979  35.976   2.919
 7897W        W80965   6.977  19.991   2.870
 7898W        W80966  10.870  43.947  11.167
 7899W        W80967  35.955  39.774   3.127
 7900W        W80968  32.898  20.237   1.190
 7901W        W80969  34.362  27.516   0.700
 7902W        W80970   9.472  37.040   0.196
 7903W        W80971  11.474  31.098  12.887
 7904W        W80972  22.757  11.123  11.173
 7905W        W80973  26.344   2.456  11.699
 7906W        W80974   2.549  42.453   1.992
 7907W        W80975  30.599  29.953  14.645
 7908W        W80976  36.958  23.688  14.540
 7909W        W80977  21.525  30.113   1.889
 7910W        W80978  22.190  36.588   2.770
 7911W        W80979  36.463  13.279   2.081
 7912W        W80980  21.045  11.566  11.196
 7913W        W80981  17.677   9.760  11.400
 7914W        W80982  19.593   0.698   3.605
 7915W        W80983  29.954  17.497  11.702
 7916W        W80984  20.429   3.362  12.445
 7917W        W80985  40.052  31.441  10.716
 7918W        W80986  20.096  29.724   0.247
 7919W        W80987  13.861  20.192   1.216
 7920W        W80988  40.849   4.939  10.820
 7921W        W80989  22.587  14.668  13.932
 7922W        W80990  20.609  24.079   4.768
 7923W        W80991  17.365  40.747  14.561
 7924W        W80992  20.009   7.136   3.658
 7925W        W80993  12.341  43.481  12.638
 7926W        W80994  32.957  44.228  14.392
 7927W        W80995  35.696  28.241   3.664
 7928W        W80996   5.832   2.939   1.172
 7929W        W80997  29.718   6.473   4.583
 7930W        W80998  26.598   3.511   3.618
 7931W        W80999  10.584   5.409  12.610
 7932W        W81000  26.641  16.274   0.330
 7933W        W81001   0.776  26.451  10.886
 7934W        W81002   4.902   8.664   2.751
 7935W        W81003  18.095  11.083   2.808
 7936W        W81004  14.127  24.018  13.877
 7937W        W81005  27.815  12.636   0.332
 7938W        W81006  42.248  15.729   1.827
 7939W        W81007  14.077  34.373   3.262
 7940W        W81008  27.289   8.100   1.826
 7941W        W81009  28.647  27.378   2.391
 7942W        W81010  16.689   5.616   3.755
 7943W        W81011  34.974  29.719   4.205
 7944W        W81012  28.903  28.999   4.613
 7945W        W81013  24.828  30.111   2.328
 7946W        W81014   0.741  36.815   0.749
 7947W        W81015  38.316  44.032  14.053
 7948W        W81016   8.920  11.825   2.333
 7949W        W81017  44.019   4.501  12.420
 7950W        W81018   3.470  29.874   1.859
 7951W        W81019  13.212  13.621   0.489
 7952W        W81020   1.075   9.601   0.299
 7953W        W81021  33.019  26.166  12.527
 7954W        W81022  43.449   8.744  14.522
 7955W        W81023  23.736  14.805  11.575
 7956W        W81024  12.941  14.639   0.372
 7957W        W81025  43.008   8.175   4.151
 7958W        W81026  35.865   7.433   4.076
 7959W        W81027   6.089  44.676  13.820
 7960W        W81028   1.538  17.772   3.452
 7961W        W81029  40.985  34.979  12.128
 7962W        W81030  40.834  35.848  10.686
 7963W        W81031  35.518  33.420  14.285
 7964W        W81032  18.646  17.245  13.404
 7965W        W81033  15.047  29.583  11.936
 7966W        W81034   5.475  35.621  12.075
 7967W        W81035  28.864  21.524  12.974
 7968W        W81036  20.220  28.933  10.673
 7969W        W81037  13.825  10.332   1.364
 7970W        W81038  26.993  37.948  12.136
 7971W        W81039  11.206  15.109   0.791
 7972W        W81040   0.716  25.199  14.099
 7973W        W81041  25.636  29.447  11.215
 7974W        W81042  37.419  17.332   2.267
 7975W        W81043  24.739   3.856   0.806
 7976W        W81044   4.323  40.618   3.729
 7977W        W81045  37.817  44.381   0.772
 7978W        W81046  42.408  34.630  12.100
 7979W        W81047  35.015  19.246   4.172
 7980W        W81048   9.117  38.171  11.545
 7981W        W81049  41.409  27.030  12.621
 7982W        W81050  33.995  19.647   3.605
 7983W        W81051   6.135  35.909   5.035
 7984W        W81052  37.591  35.399   2.647
 7985W        W81053  21.184  42.495  11.125
 7986W        W81054  12.109  38.918  10.974
 7987W        W81055  32.482  41.418  13.270
 7988W        W81056  37.965  15.385   0.180
 7989W        W81057   5.789  42.414  14.911
 7990W        W81058  35.836   6.757  13.957
 7991W        W81059  22.764  23.868   0.530
 7992W        W81060  13.812   6.035   1.669
 7993W        W81061  26.031  27.015  11.549
 7994W        W81062  23.435  11.079  13.951
 7995W        W81063  43.585   8.297  12.832
 7996W        W81064   1.386   0.712  10.975
 7997W        W81065  31.876  23.713  12.394
 7998W        W81066  44.830  32.225   0.403
 7999W        W81067  34.114   1.933  12.258
 8000W        W81068   6.104  39.429  14.140
 8001W        W81069  39.437   0.379  11.124
 8002W        W81070   3.713  19.567  10.778
 8003W        W81071  28.148   4.345   1.298
 8004W        W81072  19.214  38.436  12.538
 8005W        W81073  13.795  40.520  11.019
 8006W        W81074  43.937  32.326  11.728
 8007W        W81075  16.660  19.575  14.808
 8008W        W81076   8.612  12.758   1.571
 8009W        W81077  18.982   7.896   4.209
 8010W        W81078  39.842  24.556   4.194
 8011W        W81079   4.764  23.984   3.429
 8012W        W81080  17.291  29.713  14.463
 8013W        W81081   8.838  43.874  12.771
 8014W        W81082  14.130  38.064   2.884
 8015W        W81083  20.014  12.690   4.689
 8016W        W81084  31.035  44.345   4.118
 8017W        W81085  10.844  25.127  10.283
 8018W        W81086   7.640   6.844   3.853
 8019W        W81087  13.137  11.614   3.652
 8020W        W81088  28.577  38.592   2.028
 8021W        W81089   0.110  12.228  13.398
 8022W        W81090  25.119  15.243   3.587
 8023W        W81091  27.568  17.008  13.044
 8024W        W81092  12.910   9.642   3.726
 8025W        W81093  11.265  28.605  13.837
 8026W        W81094  15.143  44.278   1.809
 8027W        W81095  40.596   0.082  13.925
 8028W        W81096  34.310  25.825   3.112
 8029W        W81097  10.202  36.575   3.618
 8030W        W81098  16.158  24.206  11.571
 8031W        W81099  12.786  27.406   1.765
 8032W        W81100   8.770  14.787  14.997
 8033W        W81101  27.519  40.865   1.821
 8034W        W81102  29.475  27.544  13.787
 8035W        W81103  31.408  14.672   3.819
 8036W        W81104  39.123  17.067   3.216
 8037W        W81105  41.475  30.572   1.342
 8038W        W81106  30.077   9.209  10.566
 8039W        W81107   3.736  23.070  12.544
 8040W        W81108  17.813  42.305   4.182
 8041W        W81109  16.273  21.079  10.768
 8042W        W81110  23.221  27.131   0.943
 8043W        W81111   9.266  29.173   2.324
 8044W        W81112  21.069  18.080  10.667
 8045W        W81113  21.015  41.822   2.814
 8046W        W81114  23.057  27.610  14.281
 8047W        W81115   1.568   1.098  14.266
 8048W        W81116  10.307  14.226  12.686
 8049W        W81117  14.608  27.601   1.401
 8050W        W81118  39.232  19.655   0.000
 8051W        W81119  18.057  31.318   3.016
 8052W        W81120   3.932  36.647  14.026
 8053W        W81121   7.946  35.506   0.798
 8054W        W81122  37.128   0.723  11.905
 8055W        W81123  27.821   3.148   5.020
 8056W        W81124   4.415  41.195  14.196
 8057W        W81125  12.728  31.139  12.927
 8058W        W81126  44.828   8.233  12.392
 8059W        W81127  39.571  22.995   2.478
 8060W        W81128   4.514  32.990   3.387
 8061W        W81129  13.301  26.913   3.115
 8062W        W81130  21.009  23.173   2.385
 8063W        W81131  23.000  36.809  11.591
 8064W        W81132   4.821  14.846  14.298
 8065W        W81133   2.299   7.207   4.472
 8066W        W81134  42.280   1.894  12.074
 8067W        W81135  10.757  37.808  12.458
 8068W        W81136  11.991  16.240  14.958
 8069W        W81137   6.187   8.352  13.826
 8070W        W81138   6.263  42.758  13.980
 8071W        W81139  21.185   5.104   0.794
 8072W        W81140  44.844  35.411   0.418
 8073W        W81141  40.327  26.222   0.152
 8074W        W81142  16.809   1.819  12.084
 8075W        W81143   8.885  27.897  10.819
 8076W        W81144  30.227  31.044  12.105
 8077W        W81145  33.580  29.267   4.171
 8078W        W81146  21.343  40.310   1.288
 8079W        W81147   4.707   0.567   4.774
 8080W        W81148  17.984  32.082  10.122
 8081W        W81149  32.195  32.619   0.328
 8082W        W81150  31.802  44.217  14.881
 8083W        W81151  34.368  42.467  12.586
 8084W        W81152   3.254   5.099  11.468
 8085W        W81153  12.063  36.303   0.833
 8086W        W81154  13.095  17.204  13.965
 8087W        W81155   7.777  14.371   0.949
 8088W        W81156  42.790  20.281   3.651
 8089W        W81157  29.563  28.210  11.241
 8090W        W81158  35.491  20.209   1.298
 8091W        W81159  39.006  18.500   4.112
 8092W        W81160   9.796  19.287  11.606
 8093W        W81161  23.864  40.839  12.881
 8094W        W81162  41.948  44.788  11.273
 8095W        W81163   2.488  28.437   3.510
 8096W        W81164  44.245   1.556  14.306
 8097W        W81165  21.702  37.574   5.042
 8098W        W81166  21.727   0.749  11.150
 8099W        W81167   0.927  30.234  11.114
 8100W        W81168  31.233  18.398  14.933
 8101W        W81169  13.726  35.081   0.885
 8102W        W81170  23.481  12.060   3.204
 8103W        W81171  40.317  39.131  11.533
 8104W        W81172  37.467  26.300   3.188
 8105W        W81173  33.177  32.069   0.741
 8106W        W81174  41.028  24.966  11.089
 8107W        W81175  44.290  33.387  10.815
 8108W        W81176  43.803  39.486   3.540
 8109W        W81177   4.503   1.057  12.983
 8110W        W81178  27.173  27.183  10.839
 8111W        W81179  24.639   6.103  14.046
 8112W        W81180   4.937  34.871   1.737
 8113W        W81181   0.701  34.337   0.895
 8114W        W81182   1.071  13.729  14.442
 8115W        W81183  14.028  20.682  11.032
 8116W        W81184  11.707  43.777  14.232
 8117W        W81185   2.075   8.982   4.798
 8118W        W81186  41.389  43.405   4.190
 8119W        W81187  23.746  40.554   1.310
 8120W        W81188  33.996  41.768  13.886
 8121W        W81189   2.932  29.021   4.631
 8122W        W81190  28.927   1.343   2.392
 8123W        W81191  36.970  30.335  14.561
 8124W        W81192   8.285  10.153  14.912
 8125W        W81193  24.958  21.166  14.007
 8126W        W81194   6.070   9.127  11.417
 8127W        W81195   3.813   2.534  11.464
 8128W        W81196  19.000  27.554  11.519
 8129W        W81197  30.880   8.117  11.532
 8130W        W81198  11.548  27.648   1.381
 8131W        W81199  20.021  31.245   0.335
 8132W        W81200  14.217   1.786  11.470
 8133W        W81201  11.338  19.159  13.969
 8134W        W81202   5.402  28.953  13.702
 8135W        W81203   0.223  19.134  12.081
 8136W        W81204  26.186   4.056   1.410
 8137W        W81205   1.905   5.803   2.743
 8138W        W81206  38.562  19.197   0.822
 8139W        W81207  42.003  16.215   1.854
 8140W        W81208  22.545  38.399  12.319
 8141W        W81209  12.639  18.630   3.672
 8142W        W81210  21.261  17.228  12.453
 8143W        W81211  32.983  15.656  12.957
 8144W        W81212  10.285  41.850  10.578
 8145W        W81213  20.161  36.232  11.122
 8146W        W81214  14.709  20.224  10.574
 8147W        W81215  38.242  13.710   3.868
 8148W        W81216  13.385  20.274  10.409
 8149W        W81217  19.271  41.422   4.120
 8150W        W81218  22.688  23.608  13.072
 8151W        W81219  23.475  42.659   2.268
 8152W        W81220  17.538   5.282   2.416
 8153W        W81221  42.424  21.552  12.794
 8154W        W81222  43.366   9.652  12.904
 8155W        W81223  32.480  21.510  12.399
 8156W        W81224  28.551  30.870   2.732
 8157W        W81225  30.168  27.085  13.936
 8158W        W81226  42.243  29.488   0.880
 8159W        W81227  12.750  30.794  11.133
 8160W        W81228  40.812  33.046   1.885
 8161W        W81229  17.114  24.187  13.995
 8162W        W81230  17.422   4.386   2.438
 8163W        W81231  42.896  44.064  13.480
 8164W        W81232   8.892  40.103  12.054
 8165W        W81233   2.531  24.125   0.824
 8166W        W81234  44.311  14.265   0.511
 8167W        W81235  41.461  28.914   0.722
 8168W        W81236  34.925  17.985  12.052
 8169W        W81237  12.157   2.229  14.311
 8170W        W81238  36.030   8.399  13.569
 8171W        W81239  11.076  21.323   0.775
 8172W        W81240  27.706  44.308  12.892
 8173W        W81241  18.536  27.904   4.616
 8174W        W81242  20.024  19.710  10.724
 8175W        W81243   4.442  27.735   4.158
 8176W        W81244  22.087  10.195   0.470
 8177W        W81245  22.895  15.538   2.812
 8178W        W81246   1.717  13.722   3.831
 8179W        W81247   2.121   8.957   3.574
 8180W        W81248   2.186  33.561  14.366
 8181W        W81249  21.547  12.785   4.629
 8182W        W81250  21.989  13.562   3.552
 8183W        W81251  43.700   1.206  12.579
 8184W        W81252  14.144  19.882   2.775
 8185W        W81253   3.316  40.797  13.864
 8186W        W81254   9.271   2.833   4.892
 8187W        W81255   7.368   9.317  13.531
 8188W        W81256  22.591  38.596  12.803
 8189W        W81257   6.838  12.886  14.317
 8190W        W81258  34.416  27.767   3.063
 8191W        W81259  15.694  34.398  12.437
 8192W        W81260  26.855   6.666   2.713
 8193W        W81261  21.573  31.657  11.616
 8194W        W81262  20.070  23.171   4.643
 8195W        W81263   4.194  16.941  12.414
 8196W        W81264  12.132   1.326  11.543
 8197W        W81265  15.772  14.551  10.627
 8198W        W81266  19.657  38.478   0.051
 8199W        W81267   7.443  37.257  11.962
 8200W        W81268  26.020  21.983  13.232
 8201W        W81269  17.996  21.809  14.845
 8202W        W81270  42.299  24.635  12.129
 8203W        W81271  38.850  35.007  14.533
 8204W        W81272  26.476   0.267  10.293
 8205W        W81273  24.655  37.605   2.399
 8206W        W81274  16.370  10.198   1.351
 8207W        W81275   2.883  35.021   2.716
 8208W        W81276   4.626  11.222  13.551
 8209W        W81277  44.212  33.352   1.962
 8210W        W81278   7.907  27.538   4.482
 8211W        W81279   7.463  27.473   0.377
 8212W        W81280  40.331   7.824   3.335
 8213W        W81281  22.042  21.611   0.212
 8214W        W81282   3.853  15.194   1.321
 8215W        W81283  25.832  25.934  13.906
 8216W        W81284  22.449  30.169  14.814
 8217W        W81285  32.887   4.928   4.582
 8218W        W81286  41.007  22.710   0.203
 8219W        W81287  34.139  23.573  10.699
 8220W        W81288  44.818  15.598   1.190
 8221W        W81289  23.399  28.918   0.950
 8222W        W81290  40.110   1.854   3.437
 8223W        W81291  39.344  10.463   0.327
 8224W        W81292  38.067  40.416  14.748
 8225W        W81293  17.162  29.799  12.991
 8226W        W81294  23.161  23.466   3.850
 8227W        W81295  31.943  40.013   1.440
 8228W        W81296   4.289   1.928   1.819
 8229W        W81297   5.498  31.907  11.706
 8230W        W81298  31.134  40.487   1.775
 8231W        W81299  15.267  27.660   3.229
 8232W        W81300  40.390  19.139  14.424
 8233W        W81301  43.785  33.920   3.432
 8234W        W81302  17.808  28.190   0.552
 8235W        W81303  22.445  11.067   3.181
 8236W        W81304  18.455  16.977  11.869
 8237W        W81305  24.051  27.477  14.284
 8238W        W81306  30.886   2.252  12.961
 8239W        W81307  24.649   7.035  10.696
 8240W        W81308  38.474   7.256  13.581
 8241W        W81309   2.711  26.242   0.334
 8242W        W81310  44.888  21.086  12.093
 8243W        W81311  28.923  11.730  10.329
 8244W        W81312   7.840  32.471   4.646
 8245W        W81313   3.753   6.750  12.151
 8246W        W81314  17.766  24.961   2.711
 8247W        W81315   9.203  18.113   1.428
 8248W        W81316  41.402  35.067   0.819
 8249W        W81317  22.726  38.277   1.767
 8250W        W81318  13.848  35.607  14.374
 8251W        W81319  20.557  30.798  14.525
 8252W        W81320  42.193  13.110   0.073
 8253W        W81321  39.198   5.540   2.846
 8254W        W81322  33.000   8.156   3.811
 8255W        W81323  30.716   5.041   2.764
 8256W        W81324   5.541  22.603   0.407
 8257W        W81325  31.650  27.544   2.382
 8258W        W81326   0.354  30.193   0.541
 8259W        W81327  28.302  28.449  13.898
 8260W        W81328  41.467  20.117   4.681
 8261W        W81329  25.490  14.316  11.031
 8262W        W81330  32.437   4.413  13.177
 8263W        W81331  21.094  36.880   3.210
 8264W        W81332  10.352   4.091   4.107
 8265W        W81333  13.858  19.674  10.935
 8266W        W81334   2.147   0.799  10.285
 8267W        W81335  31.051  21.083   0.812
 8268W        W81336  30.933  27.929  13.383
 8269W        W81337  44.751  41.147   2.296
 8270W        W81338  41.118   8.215  13.822
 8271W        W81339   3.371  11.872   3.354
 8272W        W81340  13.583  32.555  12.562
 8273W        W81341   9.331  25.448   0.312
 8274W        W81342  18.148  12.903  13.276
 8275W        W81343   3.295   3.792  13.997
 8276W        W81344  26.559   5.041   3.664
 8277W        W81345  10.606   6.417  13.462
 8278W        W81346  43.768  28.018  13.344
 8279W        W81347  28.092   3.360   0.002
 8280W        W81348  36.947  14.244  10.694
 8281W        W81349  38.896  17.522  11.014
 8282W        W81350  31.265   5.884  11.862
 8283W        W81351  35.962  40.664  13.980
 8284W        W81352  35.941  38.376   3.737
 8285W        W81353  22.642  28.669  11.065
 8286W        W81354   7.296  19.104   4.580
 8287W        W81355  30.382  19.068   3.129
 8288W        W81356  42.855  21.573  13.435
 8289W        W81357  42.497  44.438   3.914
 8290W        W81358  24.565  20.345   3.211
 8291W        W81359  39.388   8.172   4.511
 8292W        W81360  39.100   9.725   1.917
 8293W        W81361  22.679  26.999  11.081
 8294W        W81362   2.020  11.178  13.935
 8295W        W81363  38.074  32.867   4.207
 8296W        W81364   6.805  15.275   4.618
 8297W        W81365  28.825  15.547   4.349
 8298W        W81366  32.911   8.421  12.998
 8299W        W81367  31.671  18.233  10.585
 8300W        W81368  20.446  28.025  12.739
 8301W        W81369  13.235  32.743  13.438
 8302W        W81370   0.534  28.430   2.370
 8303W        W81371   2.413   2.689   4.171
 8304W        W81372   7.468   5.734   3.492
 8305W        W81373  38.864  39.852  10.579
 8306W        W81374  41.276  38.773   4.979
 8307W        W81375  17.714  41.329  10.740
 8308W        W81376  18.065  34.385   0.371
 8309W        W81377  24.592  38.593  13.884
 8310W        W81378  21.210  20.475  11.554
 8311W        W81379  31.455  22.704  11.336
 8312W        W81380   3.915  31.028  12.863
 8313W        W81381   8.954  34.985  11.123
 8314W        W81382  26.166  24.714  11.652
 8315W        W81383  21.427  12.649  12.974
 8316W        W81384   7.103  39.115  13.511
 8317W        W81385  19.933   2.328   1.908
 8318W        W81386  39.438  42.030  10.910
 8319W        W81387  19.502  44.570  13.418
 8320W        W81388  20.491  40.351  13.994
 8321W        W81389  23.679  44.280   1.432
 8322W        W81390  40.607  27.113  11.513
 8323W        W81391   6.195   5.713  12.907
 8324W        W81392  22.725  38.134   3.313
 8325W        W81393  20.979   2.355   1.854
 8326W        W81394   0.187  16.563   3.981
 8327W        W81395  41.220   0.917   0.825
 8328W        W81396   1.464  36.616   2.821
 8329W        W81397  34.904  27.080  10.429
 8330W        W81398  28.448  30.680   3.212
 8331W        W81399  28.036  37.794  14.754
 8332W        W81400  44.224   8.578  12.874
 8333W        W81401  16.214  43.593   4.150
 8334W        W81402  39.288  28.067   3.326
 8335W        W81403  22.768  30.065   3.170
 8336W        W81404  38.506  34.631  14.378
 8337W        W81405  21.257  32.211  14.732
 8338W        W81406  11.314  11.101  11.035
 8339W        W81407   9.381  36.793  12.023
 8340W        W81408  24.740  16.641  11.109
 8341W        W81409   6.392   2.350   4.581
 8342W        W81410  36.853  38.538  13.109
 8343W        W81411  13.228  21.239   0.422
 8344W        W81412  25.728  41.419  11.087
 8345W        W81413  21.375  19.047  14.934
 8346W        W81414  28.577   7.589   2.397
 8347W        W81415   2.379  25.641   0.929
 8348W        W81416   5.852   5.877   2.231
 8349W        W81417  33.671  40.436  13.051
 8350W        W81418  40.912  29.558  12.106
 8351W        W81419  32.381  41.647   1.357
 8352W        W81420  11.631  32.521  13.000
 8353W        W81421   6.513  23.211   3.375
 8354W        W81422  19.914  13.834  14.132
 8355W        W81423  20.755  14.286   1.917
 8356W        W81424   3.245  12.532  14.967
 8357W        W81425  42.908  20.236  11.547
 8358W        W81426   9.169   0.769   4.859
 8359W        W81427  17.074  37.918   1.707
 8360W        W81428  33.054  41.074   1.844
 8361W        W81429  31.087  11.105   4.658
 8362W        W81430  41.266  27.191   0.894
 8363W        W81431   4.285  20.566   3.770
 8364W        W81432  39.760  36.112   2.761
 8365W        W81433  41.076   0.088   2.739
 8366W        W81434  30.705  22.516   4.918
 8367W        W81435  14.673  20.181  11.949
 8368W        W81436  21.179   0.552   4.707
 8369W        W81437  16.357  39.404   3.683
 8370W        W81438  33.184  17.579   0.780
 8371W        W81439  19.745  31.854  14.066
 8372W        W81440  24.057  31.495  11.585
 8373W        W81441  42.012  40.054   3.052
 8374W        W81442  42.681  24.874  14.979
 8375W        W81443  27.600   4.817  14.762
 8376W        W81444  35.543  43.457  13.364
 8377W        W81445  41.253  16.116  12.541
 8378W        W81446   9.477   9.233  12.929
 8379W        W81447  32.165   9.926  13.863
 8380W        W81448  38.873  32.947   2.461
 8381W        W81449  34.658  12.422   4.147
 8382W        W81450  26.047  39.055  13.909
 8383W        W81451   7.342  36.025   2.616
 8384W        W81452  41.491   0.811  12.849
 8385W        W81453   3.243  38.551   4.400
 8386W        W81454  31.879  32.919  12.511
 8387W        W81455  18.746   2.952  12.024
 8388W        W81456  36.962  41.949  10.920
 8389W        W81457   3.492  11.526   0.025
 8390W        W81458   1.572  16.554  12.083
 8391W        W81459  19.545  44.026  13.423
 8392W        W81460  27.645  29.200   2.307
 8393W        W81461  14.367   4.777   3.760
 8394W        W81462  39.745   8.383   5.215
 8395W        W81463  23.927  25.459  11.542
 8396W        W81464  44.343  11.727   3.306
 8397W        W81465  30.756   7.835   2.099
 8398W        W81466  42.076  42.332  13.823
 8399W        W81467  26.967   6.342   4.799
 8400W        W81468   5.312  13.743  12.591
 8401W        W81469  41.914  14.649  12.654
 8402W        W81470   5.176   4.163   2.366
 8403W        W81471  27.636   9.836  11.214
 8404W        W81472  39.768   4.276  12.006
 8405W        W81473  32.869  13.851   4.634
 8406W        W81474  27.041  15.146   1.870
 8407W        W81475   2.322  24.605   0.872
 8408W        W81476  40.352   4.964   0.977
 8409W        W81477   4.743  41.248  14.736
 8410W        W81478  42.064  28.098  13.620
 8411W        W81479  22.749  39.992   4.594
 8412W        W81480   2.315  31.029  13.969
 8413W        W81481  24.212  39.044  10.510
 8414W        W81482  37.455   5.247  10.564
 8415W        W81483  27.595  42.297   1.067
 8416W        W81484  23.953  33.956  13.884
 8417W        W81485  36.144  15.225  11.985
 8418W        W81486   1.490  28.508   1.791
 8419W        W81487  16.336  26.625  13.480
 8420W        W81488  18.317  43.001  12.962
 8421W        W81489   8.889  17.089   0.795
 8422W        W81490  33.370  20.626   4.663
 8423W        W81491  40.977   1.967   3.957
 8424W        W81492   0.115   0.847   4.174
 8425W        W81493  43.560  30.072  12.474
 8426W        W81494  28.169  28.600   0.845
 8427W        W81495  29.049   7.870   0.300
 8428W        W81496  44.361  11.123  12.867
 8429W        W81497  38.017  24.660  10.696
 8430W        W81498  12.325   1.373  12.639
 8431W        W81499  18.857  44.382  14.767
 8432W        W81500  13.293  24.417  13.391
 8433W        W81501  22.246  18.248   3.421
 8434W        W81502  42.576  11.410   3.800
 8435W        W81503  21.077  36.863  12.938
 8436W        W81504  37.833  23.321   1.873
 8437W        W81505  21.014  39.421  10.518
 8438W        W81506   7.183  28.399   2.941
 8439W        W81507  24.391  38.593   1.415
 8440W        W81508  18.674  25.141   1.038
 8441W        W81509   1.505  29.587   4.565
 8442W        W81510  17.029   4.758  12.352
 8443W        W81511  40.336   1.240  10.625
 8444W        W81512  29.590   1.872  14.035
 8445W        W81513  26.579  32.991   4.774
 8446W        W81514  20.723  39.075   5.173
 8447W        W81515  10.678  31.925  13.276
 8448W        W81516  41.458   4.416  10.660
 8449W        W81517  14.206  27.918   0.346
 8450W        W81518  33.873   8.649   1.304
 8451W        W81519  34.171  11.769   2.806
 8452W        W81520  36.549  33.954  12.309
 8453W        W81521  29.076  27.733   0.321
 8454W        W81522  42.862  26.390   0.837
 8455W        W81523  19.069  16.581  12.625
 8456W        W81524  36.547   1.793   5.086
 8457W        W81525  22.591  16.810   4.680
 8458W        W81526  31.756  41.189  11.997
 8459W        W81527  12.346  13.183  11.020
 8460W        W81528  43.346  44.631   0.318
 8461W        W81529  22.405   9.189   0.879
 8462W        W81530   9.678  19.680  12.928
 8463W        W81531  43.205  28.037   0.889
 8464W        W81532  10.974  14.495  13.158
 8465W        W81533   9.445  23.109  14.976
 8466W        W81534  36.353  29.111   0.375
 8467W        W81535   0.466   3.405   0.330
 8468W        W81536  32.372   4.276  11.634
 8469W        W81537  28.495   8.658   2.375
 8470W        W81538  34.169  40.426   4.606
 8471W        W81539   6.012  20.008   3.667
 8472W        W81540  28.377  31.057   0.447
 8473W        W81541  16.157  10.261  12.855
 8474W        W81542   9.037  36.437   2.434
 8475W        W81543   3.484  44.742  14.399
 8476W        W81544  16.533  40.805   0.308
 8477W        W81545  26.149  26.743   4.573
 8478W        W81546  43.566  15.313   2.801
 8479W        W81547   5.491   1.529  12.007
 8480W        W81548   9.719  33.345  12.281
 8481W        W81549  14.789  19.507  10.058
 8482W        W81550  13.123   2.294   4.903
 8483W        W81551  26.531   3.067   1.476
 8484W        W81552  44.085  23.366  14.923
 8485W        W81553  22.835  35.556  13.114
 8486W        W81554  26.725  37.924  13.420
 8487W        W81555  38.902  40.559  14.525
 8488W        W81556  44.978  25.256   3.886
 8489W        W81557  39.022  31.875   4.999
 8490W        W81558  38.223  11.395   2.935
 8491W        W81559  12.112  35.165  13.792
 8492W        W81560   8.158  42.039   5.469
 8493W        W81561  32.101   0.332  12.001
 8494W        W81562  42.884  43.845  12.211
 8495W        W81563  28.402  18.796  10.725
 8496W        W81564  14.679   6.360  14.094
 8497W        W81565   0.242  13.756  13.506
 8498W        W81566  34.323   0.014  13.355
 8499W        W81567   3.263  17.021   2.166
 8500W        W81568  14.037  42.483  12.522
 8501W        W81569   6.285   2.480  11.384
 8502W        W81570  43.945  40.053   2.901
 8503W        W81571  36.045  44.032   4.233
 8504W        W81572  17.293  21.232  14.878
 8505W        W81573   4.043  35.460  14.325
 8506W        W81574  39.422   4.037   1.961
 8507W        W81575   0.257  17.250  12.149
 8508W        W81576   4.338   5.116  12.499
 8509W        W81577  33.285  42.335   0.755
 8510W        W81578  34.919  39.989   3.880
 8511W        W81579  23.598   4.966   1.408
 8512W        W81580  18.793  35.767  10.193
 8513W        W81581  35.602   3.242  13.941
 8514W        W81582  20.752  21.117   3.806
 8515W        W81583  13.156  20.169  11.562
 8516W        W81584   5.435   1.334   3.754
 8517W        W81585  21.734   8.283   0.237
 8518W        W81586  31.646  40.422  11.421
 8519W        W81587  33.030  36.680  14.085
 8520W        W81588  13.134  15.292  14.554
 8521W        W81589  26.648  36.627   1.348
 8522W        W81590  19.266   6.675   2.300
 8523W        W81591  33.122  17.761  11.582
 8524W        W81592  41.483   1.722   2.653
 8525W        W81593  26.886   1.398  11.069
 8526W        W81594   6.752  32.647  12.926
 8527W        W81595   7.804   0.499  12.093
 8528W        W81596  22.407  43.492   4.344
 8529W        W81597  39.816  27.644  12.708
 8530W        W81598  25.533  40.339   5.013
 8531W        W81599  11.805   3.651   2.774
 8532W        W81600   0.181   3.865   1.448
 8533W        W81601  32.308  22.991  10.193
 8534W        W81602  21.612  23.731   4.218
 8535W        W81603  18.506  34.647  14.412
 8536W        W81604  18.280  16.875   3.686
 8537W        W81605  43.828  13.352  10.686
 8538W        W81606  35.365  17.107   0.023
 8539W        W81607  43.457  27.648   9.974
 8540W        W81608  24.067   5.051  11.261
 8541W        W81609  28.921  37.316  11.227
 8542W        W81610   1.341  21.589  13.774
 8543W        W81611  14.777  27.009  11.889
 8544W        W81612  28.081  31.193   0.911
 8545W        W81613   3.222  28.099  14.645
 8546W        W81614  36.271  35.904  12.872
 8547W        W81615  19.648  32.480   0.107
 8548W        W81616   8.651  42.267  11.055
 8549W        W81617   6.345  13.053  12.912
 8550W        W81618  23.167  30.590  10.926
 8551W        W81619   1.948  39.161  10.518
 8552W        W81620   8.372   4.521   2.858
 8553W        W81621  15.535  14.690  11.078
 8554W        W81622   0.439   9.002  10.566
 8555W        W81623  17.444  36.521   2.484
 8556W        W81624  44.325  37.490  10.220
 8557W        W81625   2.727  40.975  12.962
 8558W        W81626  34.812  16.613   2.787
 8559W        W81627   4.068   7.989  14.058
 8560W        W81628  40.783  35.364  10.485
 8561W        W81629  36.334  28.881  13.464
 8562W        W81630  24.173  29.919   1.374
 8563W        W81631  20.608  30.031  10.749
 8564W        W81632  15.542  38.731  11.717
 8565W        W81633  19.574  12.706  12.905
 8566W        W81634   6.194  25.007   1.286
 8567W        W81635  35.911  15.643   2.436
 8568W        W81636  29.880  19.529   4.719
 8569W        W81637  19.656  41.965   3.547
 8570W        W81638   2.340  19.283   3.970
 8571W        W81639   0.396  11.733  14.957
 8572W        W81640  43.228   8.410  10.690
 8573W        W81641  20.160  10.907  12.941
 8574W        W81642  13.344  13.294   3.280
 8575W        W81643   8.735  13.865   2.690
 8576W        W81644  18.863   5.413  14.525
 8577W        W81645  13.895   7.259   4.158
 8578W        W81646  25.563  41.575   3.494
 8579W        W81647  37.891  37.133   4.929
 8580W        W81648  35.170   7.151   3.457
 8581W        W81649  31.970  24.974   1.767
 8582W        W81650  23.294  14.056  11.821
 8583W        W81651  29.054  21.019   2.835
 8584W        W81652  18.308  11.439  11.548
 8585W        W81653   4.862  26.081   0.942
 8586W        W81654  23.574  12.339   4.812
 8587W        W81655  14.062  13.850  13.217
 8588W        W81656  17.249  35.052   4.384
 8589W        W81657  27.598  33.777   0.228
 8590W        W81658   9.248  44.083  13.085
 8591W        W81659   1.307  37.822  12.910
 8592W        W81660  14.073  34.923  12.085
 8593W        W81661  36.559   8.519   4.555
 8594W        W81662  43.210  18.034  14.397
 8595W        W81663  16.159  18.656   2.931
 8596W        W81664  11.200  21.117   3.667
 8597W        W81665  19.728   7.871   1.274
 8598W        W81666  29.993  21.783  10.673
 8599W        W81667  19.603  17.174  11.076
 8600W        W81668   6.492   4.227   0.340
 8601W        W81669  17.671  22.943  13.244
 8602W        W81670  27.110   1.495  11.924
 8603W        W81671  21.076  44.641   1.468
 8604W        W81672  22.587   5.339   0.708
 8605W        W81673  24.540  41.334  11.117
 8606W        W81674  36.582  30.065  14.779
 8607W        W81675  20.198  39.815   5.292
 8608W        W81676  17.475   2.130  13.898
 8609W        W81677  43.872  34.060  13.435
 8610W        W81678  13.236  31.962  11.517
 8611W        W81679  18.763  26.578  13.294
 8612W        W81680  17.281   0.512  12.768
 8613W        W81681  27.476  41.360  12.539
 8614W        W81682  32.872   5.297   1.847
 8615W        W81683  22.019  31.688  11.924
 8616W        W81684  39.063  35.834   5.062
 8617W        W81685  35.335  26.454   0.399
 8618W        W81686   2.274  12.448   4.960
 8619W        W81687  23.705  37.377  13.862
 8620W        W81688   2.910  32.559   3.537
 8621W        W81689  14.062  28.294   3.103
 8622W        W81690  29.645  42.251  13.716
 8623W        W81691  37.353  44.070  13.991
 8624W        W81692  16.088   2.310   2.255
 8625W        W81693  40.093  16.084  14.970
 8626W        W81694   1.704  11.934   2.824
 8627W        W81695  32.454  22.187   3.898
 8628W        W81696   3.899   8.379  11.564
 8629W        W81697  32.654  28.922   1.074
 8630W        W81698  33.130  25.731   1.267
 8631W        W81699  39.837  37.039   2.678
 8632W        W81700  15.804  20.708   4.660
 8633W        W81701   3.347  25.593  11.983
 8634W        W81702   7.868  28.401   0.310
 8635W        W81703  17.012  43.758  12.697
 8636W        W81704   4.671   9.191   1.824
 8637W        W81705  39.825   7.407  12.463
 8638W        W81706  18.610  22.783   3.198
 8639W        W81707   0.930  29.879  11.668
 8640W        W81708   8.742   5.288  12.892
 8641W        W81709  31.445  23.798   4.224
 8642W        W81710  32.906  39.079   1.721
 8643W        W81711  27.609  39.494   3.262
 8644W        W81712  44.981  24.478   0.286
 8645W        W81713  21.202   1.852  11.206
 8646W        W81714  14.234  32.126   3.648
 8647W        W81715   0.407  16.434  11.009
 8648W        W81716  43.209  20.782  12.351
 8649W        W81717  17.086  42.605   2.893
 8650W        W81718  23.766   3.503   0.517
 8651W        W81719  22.078  42.329   1.182
 8652W        W81720  38.577  18.301   4.416
 8653W        W81721   9.232   3.225  14.361
 8654W        W81722  23.238   1.065  11.102
 8655W        W81723  10.711  29.043  12.746
 8656W        W81724  40.691   5.869   0.558
 8657W        W81725  30.499  39.759   2.643
 8658W        W81726  12.351  15.650   3.681
 8659W        W81727  31.488   0.884   1.915
 8660W        W81728  14.047  41.244  14.957
 8661W        W81729  33.106  20.402  11.132
 8662W        W81730  23.455  37.901   5.063
 8663W        W81731   8.120   7.907  11.633
 8664W        W81732  40.867   8.379  12.435
 8665W        W81733  27.172  14.718   3.773
 8666W        W81734  43.503  12.166  12.134
 8667W        W81735  26.457  23.138   3.624
 8668W        W81736  26.128  11.795   2.810
 8669W        W81737  19.607   9.121  13.497
 8670W        W81738  10.449  10.360   4.570
 8671W        W81739  10.163  25.916  14.205
 8672W        W81740   2.728  19.005   3.223
 8673W        W81741   5.178  25.559  14.869
 8674W        W81742  20.952   4.917  11.610
 8675W        W81743  32.152  40.406  11.983
 8676W        W81744  27.694   5.270   2.701
 8677W        W81745  24.473   1.092  11.205
 8678W        W81746   2.479  44.456  12.911
 8679W        W81747   8.929  13.422  14.716
 8680W        W81748   1.688  38.088  11.889
 8681W        W81749   7.458  10.366   0.367
 8682W        W81750  28.598   5.044   4.192
 8683W        W81751  32.589   1.767  11.581
 8684W        W81752  41.014   6.368   5.008
 8685W        W81753  43.358   9.913  11.568
 8686W        W81754  21.732   4.782   4.710
 8687W        W81755  27.390  20.658  11.471
 8688W        W81756   1.900   2.107  14.435
 8689W        W81757  15.208  34.945   3.158
 8690W        W81758  18.361   8.748   1.659
 8691W        W81759  40.222   0.348   2.781
 8692W        W81760  29.630   1.978   4.998
 8693W        W81761  34.614  21.995   2.714
 8694W        W81762  29.733   9.253  13.033
 8695W        W81763  38.549  35.969  10.197
 8696W        W81764  20.851  27.095   1.890
 8697W        W81765  40.485  24.043   2.065
 8698W        W81766  20.532  27.451  13.836
 8699W        W81767  44.729  37.108  14.905
 8700W        W81768  34.938  20.714  12.442
 8701W        W81769  29.622  22.125   4.224
 8702W        W81770  32.049  13.695   1.687
 8703W        W81771  15.863  30.807  12.397
 8704W        W81772   2.626  31.556   1.191
 8705W        W81773  42.793  27.458  13.943
 8706W        W81774   2.193   7.126   4.965
 8707W        W81775  41.791  18.813  10.660
 8708W        W81776  28.124  28.220   2.224
 8709W        W81777  15.795  10.292   2.597
 8710W        W81778  35.311   9.833   4.820
 8711W        W81779   8.245  29.990   4.754
 8712W        W81780  24.586  40.338  14.798
 8713W        W81781  25.529  44.414   4.155
 8714W        W81782   5.868  18.115  10.963
 8715W        W81783  31.331  23.692  11.615
 8716W        W81784  42.247  15.883   0.422
 8717W        W81785  43.444   3.352  11.193
 8718W        W81786  21.158  37.297   2.262
 8719W        W81787  32.483   4.693  10.910
 8720W        W81788  16.146  25.174   5.163
 8721W        W81789  29.301  33.419  14.006
 8722W        W81790  24.509  13.099  13.891
 8723W        W81791  31.041  40.051  13.769
 8724W        W81792  15.130   4.334   3.257
 8725W        W81793  24.214  11.132   2.252
 8726W        W81794  28.073  21.266   0.412
 8727W        W81795  35.516  23.491  14.500
 8728W        W81796  19.571  41.309  13.032
 8729W        W81797  37.883  44.856  13.911
 8730W        W81798  23.499   6.207   3.756
 8731W        W81799   4.724  43.176   4.502
 8732W        W81800  34.999   5.788  12.423
 8733W        W81801  14.245  21.236  11.692
 8734W        W81802  15.666  12.383   4.317
 8735W        W81803  22.104  12.664  11.989
 8736W        W81804  22.392  31.237   2.667
 8737W        W81805  30.388  21.687   3.288
 8738W        W81806  33.329  29.534  13.021
 8739W        W81807  25.461  13.654   2.939
 8740W        W81808  18.435  31.600  12.805
 8741W        W81809  44.332  16.915   2.287
 8742W        W81810   4.781  35.907  14.969
 8743W        W81811  20.679   8.604  14.474
 8744W        W81812   3.399   5.453   4.804
 8745W        W81813   6.228  20.511   0.992
 8746W        W81814  34.424  42.563  14.890
 8747W        W81815  26.208   5.778  11.985
 8748W        W81816  28.478  14.815   1.877
 8749W        W81817  23.531   3.462   0.067
 8750W        W81818  20.717   5.441   0.087
 8751W        W81819  38.984  28.577   2.032
 8752W        W81820  36.053  25.114   3.196
 8753W        W81821  43.501  35.634  10.778
 8754W        W81822   6.475  10.634   4.189
 8755W        W81823  35.642   5.448  10.411
 8756W        W81824  28.066   1.391   2.623
 8757W        W81825   7.147  19.174   1.583
 8758W        W81826  13.362  12.663   3.700
 8759W        W81827  17.256  41.301   1.794
 8760W        W81828  42.260  31.895   0.941
 8761W        W81829  32.556   4.938   4.168
 8762W        W81830  39.280   9.860  10.127
 8763W        W81831  31.338   2.925   2.697
 8764W        W81832  31.381  39.019   1.767
 8765W        W81833   4.388  35.731   4.716
 8766W        W81834   1.206  42.846  11.185
 8767W        W81835  42.067  19.450  13.549
 8768W        W81836  39.371  18.852  13.708
 8769W        W81837   5.277  16.822  13.060
 8770W        W81838  27.922  13.068  13.394
 8771W        W81839  27.653  38.610   0.865
 8772W        W81840   6.764   3.215  14.711
 8773W        W81841   1.289   9.228   3.398
 8774W        W81842  26.864  11.290  13.865
 8775W        W81843  11.447  31.397   2.935
 8776W        W81844   9.704  39.277   1.926
 8777W        W81845  23.057  41.971  14.415
 8778W        W81846  11.707  24.975   3.783
 8779W        W81847   6.384  24.522   1.315
 8780W        W81848  16.632  43.841   2.691
 8781W        W81849  34.847   9.953  14.845
 8782W        W81850  12.069  11.454  14.731
 8783W        W81851  27.745  43.669  13.025
 8784W        W81852  31.961   5.711   4.155
 8785W        W81853  41.799  19.012  13.573
 8786W        W81854   8.812  44.884   1.258
 8787W        W81855  10.082   9.406  12.205
 8788W        W81856  28.421   8.871   5.087
 8789W        W81857  19.531  12.925  14.226
 8790W        W81858  29.739  25.738   3.638
 8791W        W81859  38.795  36.351   4.533
 8792W        W81860   8.266  22.121  13.585
 8793W        W81861   6.343  24.952   5.033
 8794W        W81862  12.706  13.219  13.077
 8795W        W81863  39.538   8.708  11.367
 8796W        W81864  22.744  33.543  10.808
 8797W        W81865  34.505  28.878  12.949
 8798W        W81866  11.858  44.273  13.383
 8799W        W81867  22.254  18.519  10.723
 8800W        W81868  36.063  38.817  13.485
 8801W        W81869  40.768  14.315   4.974
 8802W        W81870  43.410   6.446  14.558
 8803W        W81871   1.291   1.333   0.302
 8804W        W81872  35.887  39.445   1.820
 8805W        W81873  23.638  21.164  11.179
 8806W        W81874   6.293  11.515   1.841
 8807W        W81875  13.602   0.283   2.381
 8808W        W81876   7.033  12.727  14.767
 8809W        W81877  22.614  41.001   2.400
 8810W        W81878   4.592  29.428  13.218
 8811W        W81879  11.486  23.700   3.571
 8812W        W81880  12.165  36.826  14.963
 8813W        W81881   5.681  26.672  12.382
 8814W        W81882  41.006  30.965   3.556
 8815W        W81883  11.186  34.632  14.457
 8816W        W81884  23.123  42.882  14.380
 8817W        W81885  35.347   9.230  11.107
 8818W        W81886   6.621   0.971   4.739
 8819W        W81887   0.473   1.063  11.032
 8820W        W81888   5.975  39.841   2.250
 8821W        W81889  36.268  19.011   1.161
 8822W        W81890  14.691  17.747  14.400
 8823W        W81891  10.635  40.544  13.357
 8824W        W81892  13.798  14.110  14.045
 8825W        W81893  25.537  33.685  11.550
 8826W        W81894  27.557  39.797  10.985
 8827W        W81895  40.684  39.921  12.902
 8828W        W81896  42.905  14.687   1.415
 8829W        W81897  21.566  11.809  11.841
 8830W        W81898  23.087  43.777  10.694
 8831W        W81899  38.480  19.485   1.860
 8832W        W81900  16.844  15.088   0.777
 8833W        W81901  35.586  43.788   4.160
 8834W        W81902  26.615  43.113   4.428
 8835W        W81903  42.887  42.048  11.017
 8836W        W81904  27.448   9.272  12.413
 8837W        W81905  29.701  39.861   3.146
 8838W        W81906  35.138  33.643  13.397
 8839W        W81907  31.019  13.057  12.001
 8840W        W81908  17.868   8.209   0.731
 8841W        W81909  13.378  26.519   0.650
 8842W        W81910  10.927   3.516   4.730
 8843W        W81911  42.479  28.016  12.467
 8844W        W81912  35.625   5.645  11.637
 8845W        W81913   3.776   2.294   4.150
 8846W        W81914  12.677  29.282  12.859
 8847W        W81915  22.517  20.154   0.920
 8848W        W81916  19.673  41.429  11.128
 8849W        W81917   0.050  33.548   0.267
 8850W        W81918   6.693   7.386  14.953
 8851W        W81919  30.915  19.583   2.282
 8852W        W81920   5.698  40.490  11.106
 8853W        W81921  41.650  10.309  13.892
 8854W        W81922  37.110  27.096   4.448
 8855W        W81923  44.690  18.577  13.748
 8856W        W81924  40.906  20.786  11.120
 8857W        W81925  39.499  31.624   3.948
 8858W        W81926   6.600  44.538  12.640
 8859W        W81927  30.905  16.733  14.943
 8860W        W81928   3.476  31.119  12.166
 8861W        W81929  44.572  27.081   1.911
 8862W        W81930  25.010  15.157   2.227
 8863W        W81931  11.196  15.283  10.538
 8864W        W81932  17.954  15.560   3.625
 8865W        W81933  31.494  27.550  11.162
 8866W        W81934  15.236  42.085  12.108
 8867W        W81935  30.709  40.924   2.134
 8868W        W81936  30.874  11.691   2.491
 8869W        W81937  31.043  25.415  11.868
 8870W        W81938   9.251  42.382   4.198
 8871W        W81939  29.870  35.189  14.452
 8872W        W81940  43.784  34.361  11.252
 8873W        W81941  43.019   9.277   0.784
 8874W        W81942  32.788  33.106   1.314
 8875W        W81943  19.011  38.261   3.356
 8876W        W81944  16.161   4.890  10.151
 8877W        W81945  33.610  42.221  10.273
 8878W        W81946  22.754  31.996  11.553
 8879W        W81947  43.428   6.933  12.212
 8880W        W81948  33.959  40.551   1.855
 8881W        W81949  16.727  29.576   2.269
 8882W        W81950   2.300  30.707   4.542
 8883W        W81951  17.092  17.457   1.810
 8884W        W81952   8.249   0.945   3.103
 8885W        W81953  40.310   6.896  14.979
 8886W        W81954   0.223  14.856  10.847
 8887W        W81955  43.437  31.641   0.487
 8888W        W81956  22.166   3.911  13.785
 8889W        W81957  43.373  33.172  11.985
 8890W        W81958   5.293  13.236  12.664
 8891W        W81959   6.973  15.023  13.947
 8892W        W81960  44.355  40.142   1.146
 8893W        W81961   0.865   8.065   4.431
 8894W        W81962  18.002  32.415  12.433
 8895W        W81963  26.520   9.710   2.791
 8896W        W81964  28.267  34.217  13.771
 8897W        W81965  15.582  14.699  12.923
 8898W        W81966  34.516  43.043   3.712
 8899W        W81967  36.979  39.603   0.930
 8900W        W81968  15.709  43.100   3.739
 8901W        W81969   7.197  19.718  13.435
 8902W        W81970  43.868  38.036  12.125
 8903W        W81971  30.945  37.837  13.061
 8904W        W81972  36.385  33.056  13.582
 8905W        W81973  16.755  39.588   3.291
 8906W        W81974   7.297  10.883   0.206
 8907W        W81975  20.963  38.952  11.042
 8908W        W81976  36.947  12.814  14.381
 8909W        W81977  35.097  18.675   1.734
 8910W        W81978  38.392  23.148   4.816
 8911W        W81979  35.438  31.365   0.365
 8912W        W81980  22.923  39.327   1.664
 8913W        W81981  38.296  40.130  12.577
 8914W        W81982  34.051  28.094  11.395
 8915W        W81983  42.286   4.838  14.347
 8916W        W81984   5.195  39.753  11.169
 8917W        W81985  33.262  13.160   3.654
 8918W        W81986  27.928  10.414   4.642
 8919W        W81987  27.925  43.947   0.135
 8920W        W81988  12.143  42.002  12.927
 8921W        W81989  30.886  34.865   0.903
 8922W        W81990   4.460   6.425  13.362
 8923W        W81991  22.905   3.628  10.269
 8924W        W81992   7.495  40.046  11.252
 8925W        W81993  42.188  41.246  10.323
 8926W        W81994  26.453   5.595  11.576
 8927W        W81995  23.744   7.141  11.670
 8928W        W81996  21.140   1.434   3.188
 8929W        W81997  15.271   2.111   4.563
 8930W        W81998  38.543  18.384   3.471
 8931W        W81999  31.582   8.382  10.605
 8932W        W82000  27.568  40.295  11.114
 8933W        W82001  42.436   4.328  13.080
 8934W        W82002  22.524   0.525   1.804
 8935W        W82003  39.809  19.778  10.633
 8936W        W82004  24.147  29.678   4.164
 8937W        W82005   0.817  41.033   4.561
 8938W        W82006  17.198   1.374   3.783
 8939W        W82007  13.938   6.622  14.352
 8940W        W82008  32.620  43.392  12.975
 8941W        W82009  10.845   0.900  11.397
 8942W        W82010  14.585  32.512  12.677
 8943W        W82011  43.878  24.781  12.208
 8944W        W82012  12.822   2.125  12.017
 8945W        W82013   6.315  33.925  13.858
 8946W        W82014   8.128  19.322   3.841
 8947W        W82015  19.470  33.425   2.735
 8948W        W82016  12.775   9.102  11.035
 8949W        W82017  31.388  16.063   0.792
 8950W        W82018   9.771  12.199   0.297
 8951W        W82019  35.050   5.469   4.526
 8952W        W82020  39.916  35.044  13.488
 8953W        W82021   9.445  38.841   0.866
 8954W        W82022  10.339   7.760  10.337
 8955W        W82023   4.777  18.597   4.092
 8956W        W82024  31.511  17.081  11.156
 8957W        W82025  42.307   8.473   3.098
 8958W        W82026  30.031   8.038  14.941
 8959W        W82027   6.318   5.716  10.429
 8960W        W82028  39.480  35.173   0.467
 8961W        W82029  14.628  19.867   2.250
 8962W        W82030   6.148  24.182   3.714
 8963W        W82031  25.279  41.322   4.162
 8964W        W82032   3.408  11.359   3.254
 8965W        W82033  22.367  23.069   4.028
 8966W        W82034  39.039  32.465   3.300
 8967W        W82035  25.030  25.407  14.041
 8968W        W82036  24.294   8.811   0.803
 8969W        W82037  24.006  40.337   3.154
 8970W        W82038  35.298   9.647  12.898
 8971W        W82039  34.344  13.860   0.650
 8972W        W82040  34.551  38.477  12.950
 8973W        W82041  12.465   2.739  12.686
 8974W        W82042  23.634   5.713   4.020
 8975W        W82043   9.269  21.075   0.343
 8976W        W82044  25.122  34.504  13.923
 8977W        W82045   0.423  27.053   4.546
 8978W        W82046  31.268  26.144  14.045
 8979W        W82047   3.027  16.288   4.224
 8980W        W82048  30.903  33.385   4.564
 8981W        W82049  31.261  36.385   0.268
 8982W        W82050  12.201  15.732  11.874
 8983W        W82051   7.780  14.093  11.916
 8984W        W82052  17.212  16.622   2.836
 8985W        W82053  10.859  41.825   4.203
 8986W        W82054   7.922  17.132   2.325
 8987W        W82055   6.179  39.980  10.259
 8988W        W82056  31.891  38.366   4.603
 8989W        W82057   5.095  39.263  11.608
 8990W        W82058  37.429  18.068   1.005
 8991W        W82059  23.451   5.228   4.639
 8992W        W82060  43.902   2.758   2.787
 8993W        W82061   5.008  19.219  11.083
 8994W        W82062  36.701  37.095   1.764
 8995W        W82063  28.247  10.042  14.862
 8996W        W82064   0.759  44.800  13.576
 8997W        W82065  38.951  22.993  14.858
 8998W        W82066  10.373  20.207  10.584
 8999W        W82067  26.581   8.634  14.420
 9000W        W82068   3.249   6.960  11.998
 9001W        W82069  14.094   4.443  12.880
 9002W        W82070  15.353  37.077  13.919
 9003W        W82071  12.385   4.828   1.284
 9004W        W82072  28.482   6.721   0.822
 9005W        W82073  20.309  23.302   2.874
 9006W        W82074  20.135  36.639   1.278
 9007W        W82075   8.704  20.734   1.287
 9008W        W82076  26.206  32.414  11.487
 9009W        W82077  29.164   4.409   2.953
 9010W        W82078  12.199  36.220  12.051
 9011W        W82079  29.615  28.112   0.856
 9012W        W82080  34.469  36.512   1.685
 9013W        W82081  35.023  17.936  11.172
 9014W        W82082  14.375  36.516   3.765
 9015W        W82083  27.909  25.084   2.684
 9016W        W82084  39.011  18.126  14.823
 9017W        W82085  26.687  25.201   0.904
 9018W        W82086  21.129  12.420  14.012
 9019W        W82087  34.202  31.710   3.774
 9020W        W82088   3.144  16.148  11.072
 9021W        W82089  40.881  28.464   2.273
 9022W        W82090  23.182  24.222  10.703
 9023W        W82091  23.449  16.981   1.222
 9024W        W82092  30.474  28.968   1.675
 9025W        W82093  41.791  26.183   1.206
 9026W        W82094  34.539   1.811   4.246
 9027W        W82095   0.700   9.220  12.585
 9028W        W82096  41.318  39.454  12.440
 9029W        W82097  16.509  40.989  14.394
 9030W        W82098  10.867  27.237   4.660
 9031W        W82099  16.365   5.166   3.910
 9032W        W82100  26.044   4.308   4.075
 9033W        W82101  25.422  44.866  13.058
 9034W        W82102   8.220  41.406   1.031
 9035W        W82103  28.043  34.610  14.046
 9036W        W82104  24.509  18.977   3.645
 9037W        W82105  10.463  29.153   0.104
 9038W        W82106  21.968   5.647  11.074
 9039W        W82107  38.355   6.221   1.013
 9040W        W82108  43.947  43.987  13.295
 9041W        W82109   3.742  19.596   3.684
 9042W        W82110  36.526  38.193   3.504
 9043W        W82111  39.019  30.308  13.249
 9044W        W82112  18.687  22.750  12.412
 9045W        W82113   7.381  41.655  10.178
 9046W        W82114  33.589   4.231   2.396
 9047W        W82115  42.873  22.606  14.789
 9048W        W82116   9.911  43.510  10.548
 9049W        W82117  14.152  12.920   4.148
 9050W        W82118  39.128  44.878  11.976
 9051W        W82119  15.507   7.198   0.310
 9052W        W82120   1.713  39.437  12.799
 9053W        W82121  30.053  36.868   0.236
 9054W        W82122  40.903  21.014   3.211
 9055W        W82123  44.710  21.666  14.326
 9056W        W82124  37.075  23.047  12.385
 9057W        W82125   2.468  13.292   2.770
 9058W        W82126  31.633   5.902   0.858
 9059W        W82127  27.176  40.000   2.690
 9060W        W82128  25.026  15.704   1.909
 9061W        W82129  23.715  38.589  11.379
 9062W        W82130   4.128  19.748  11.185
 9063W        W82131  19.778  17.554   3.288
 9064W        W82132  37.306  22.952  14.415
 9065W        W82133  22.709  27.991   2.196
 9066W        W82134  13.287  39.996   4.596
 9067W        W82135  43.044  31.443   1.290
 9068W        W82136  36.470   4.009  12.186
 9069W        W82137  34.105  35.284  12.756
 9070W        W82138  30.458   8.674   0.971
 9071W        W82139  39.853  21.945   4.094
 9072W        W82140  37.444  13.593   2.387
 9073W        W82141  41.451  15.672  13.940
 9074W        W82142  41.336  14.737  10.640
 9075W        W82143  37.918  37.140  11.991
 9076W        W82144  12.358  36.358   0.084
 9077W        W82145   9.646   3.469   3.134
 9078W        W82146   2.918  31.196   0.956
 9079W        W82147   5.140   1.813  10.421
 9080W        W82148  29.170  31.511   4.271
 9081W        W82149   4.355  35.612  11.720
 9082W        W82150  25.511  11.406  13.841
 9083W        W82151  20.501   8.202   0.781
 9084W        W82152  28.118  28.203   3.063
 9085W        W82153  31.403  23.480   3.817
 9086W        W82154  36.693  44.936  12.409
 9087W        W82155  16.410  35.902   4.069
 9088W        W82156  36.058  41.101   3.266
 9089W        W82157  35.721  14.699  12.961
 9090W        W82158   7.083  25.148  12.875
 9091W        W82159  29.918  33.662   3.390
 9092W        W82160  29.978  44.879  12.637
 9093W        W82161  42.366  42.952   1.007
 9094W        W82162  13.863   8.347   2.303
 9095W        W82163  30.051  36.182  14.413
 9096W        W82164  16.133   9.415   1.801
 9097W        W82165  26.159  27.451   3.136
 9098W        W82166   5.334  29.717  12.089
 9099W        W82167  26.441  23.990  13.841
 9100W        W82168   8.200  20.005   1.025
 9101W        W82169  30.039  43.397   3.259
 9102W        W82170  41.039  19.697   2.790
 9103W        W82171  29.222  20.640  12.908
 9104W        W82172  12.338  20.270   4.122
 9105W        W82173   3.225  28.596   4.829
 9106W        W82174  20.699   2.614  12.886
 9107W        W82175  16.046   3.918  10.986
 9108W        W82176  26.070  29.927  12.577
 9109W        W82177  10.767  24.226  12.818
 9110W        W82178  41.873   4.548  11.870
 9111W        W82179   2.179  23.938   0.240
 9112W        W82180  21.681  34.009   0.758
 9113W        W82181  22.340   0.048   1.848
 9114W        W82182  24.738  42.342  11.860
 9115W        W82183   2.445  28.928   3.730
 9116W        W82184  42.299  43.908   4.478
 9117W        W82185  34.165   6.720   4.314
 9118W        W82186   7.277   1.404  10.768
 9119W        W82187  25.577  21.324  11.593
 9120W        W82188  41.818  10.844   1.228
 9121W        W82189  21.518  33.836   1.733
 9122W        W82190  44.479  20.914  13.017
 9123W        W82191  38.820  26.472   3.781
 9124W        W82192  31.076  28.177  14.800
 9125W        W82193  33.396  44.051  13.863
 9126W        W82194  30.613   7.075  12.587
 9127W        W82195  39.096   5.395  10.647
 9128W        W82196  26.762  23.765   1.995
 9129W        W82197  13.682  40.620   1.932
 9130W        W82198  22.622  25.219  13.770
 9131W        W82199  18.607  44.490   4.472
 9132W        W82200   2.316  27.390   3.636
 9133W        W82201  29.660  18.323  10.418
 9134W        W82202  11.126  44.849  12.028
 9135W        W82203  22.702  26.428   1.730
 9136W        W82204  20.714  43.290   2.206
 9137W        W82205  10.506  24.509   1.440
 9138W        W82206  29.075  38.913   1.199
 9139W        W82207  24.957  15.772   0.117
 9140W        W82208  12.885  34.961  14.259
 9141W        W82209  41.709  29.847  12.911
 9142W        W82210  13.756  40.485   4.204
 9143W        W82211  33.054  43.313  14.254
 9144W        W82212  40.519  34.380   0.824
 9145W        W82213  36.557  37.072   0.788
 9146W        W82214  43.113   1.427  13.489
 9147W        W82215  30.163  15.084   0.372
 9148W        W82216  13.402  28.484   0.707
 9149W        W82217   5.634  24.412   0.826
 9150W        W82218  41.929  43.370  12.571
 9151W        W82219   9.743   5.778  13.299
 9152W        W82220  24.180   2.721   0.686
 9153W        W82221  26.707  29.118   2.270
 9154W        W82222   5.766   0.079  12.480
 9155W        W82223  12.618  15.180   2.880
 9156W        W82224  33.371  34.174  11.375
 9157W        W82225   2.701   4.411   4.229
 9158W        W82226   3.401   7.490   3.263
 9159W        W82227  14.259  29.746  14.946
 9160W        W82228  26.386   3.383  11.590
 9161W        W82229  40.016  29.655   2.273
 9162W        W82230   5.204  14.998   4.164
 9163W        W82231  10.340  43.415  11.635
 9164W        W82232  15.469  33.709  13.467
 9165W        W82233  35.876  29.667   4.016
 9166W        W82234  18.952  21.216  11.048
 9167W        W82235   5.824  37.199  10.379
 9168W        W82236  18.129  13.383  13.472
 9169W        W82237  37.285  25.365   0.939
 9170W        W82238   6.910   6.748  13.991
 9171W        W82239  21.480  38.487  14.542
 9172W        W82240  42.484  12.649   3.685
 9173W        W82241  14.088  11.330  12.578
 9174W        W82242   8.222  28.987  12.482
 9175W        W82243  18.803  18.858   4.268
 9176W        W82244  40.025   6.187  12.090
 9177W        W82245  37.559  43.788   2.227
 9178W        W82246   6.467  40.326   4.631
 9179W        W82247  16.719  10.122  13.092
 9180W        W82248  33.766  31.224   2.229
 9181W        W82249  20.131   3.790  12.133
 9182W        W82250  20.546  41.854  14.391
 9183W        W82251   5.901  27.461   3.411
 9184W        W82252  18.451  31.506  11.296
 9185W        W82253  12.292   6.303   1.225
 9186W        W82254  27.944  40.996   2.864
 9187W        W82255   5.677  28.397   1.891
 9188W        W82256  27.961  13.705  12.442
 9189W        W82257  20.126  41.098   0.326
 9190W        W82258  36.061  30.592  14.197
 9191W        W82259  31.525  22.308  13.809
 9192W        W82260  30.929  42.521   3.872
 9193W        W82261   7.005  28.534  13.989
 9194W        W82262  14.961  17.542   0.094
 9195W        W82263   4.921  14.664  12.887
 9196W        W82264  42.396   0.764  13.495
 9197W        W82265  33.496   8.486  11.453
 9198W        W82266  21.342  17.826   3.181
 9199W        W82267  28.403  20.193  14.952
 9200W        W82268  23.757   2.166  12.491
 9201W        W82269  28.375  29.030  10.735
 9202W        W82270   2.791  12.087  14.136
 9203W        W82271  16.178   5.376   2.923
 9204W        W82272  37.470  15.176  12.850
 9205W        W82273  32.108  20.270   2.681
 9206W        W82274   0.797   3.849   3.340
 9207W        W82275   2.269  18.222   3.431
 9208W        W82276  31.052  26.912  14.473
 9209W        W82277  26.720   0.257  12.049
 9210W        W82278  33.547  20.648  12.316
 9211W        W82279  18.822  42.524   1.702
 9212W        W82280  44.329  35.585   4.151
 9213W        W82281  31.509  41.469   0.819
 9214W        W82282  13.791  33.233  14.547
 9215W        W82283  30.445  11.599  11.513
 9216W        W82284   6.050  35.073   1.508
 9217W        W82285  41.378  14.705   3.092
 9218W        W82286  20.255  39.847  10.684
 9219W        W82287  15.036  21.612   0.976
 9220W        W82288  20.259   5.037  11.098
 9221W        W82289  12.636   4.248   2.787
 9222W        W82290  42.937  35.047   4.581
 9223W        W82291  44.484  16.452  13.982
 9224W        W82292   0.807  41.875  10.702
 9225W        W82293   7.184   3.379  12.312
 9226W        W82294   4.736  44.060   4.692
 9227W        W82295   6.226  10.120  13.285
 9228W        W82296  33.845   9.382  13.906
 9229W        W82297   2.492   4.389   3.708
 9230W        W82298  38.602  12.825   3.381
 9231W        W82299   0.661   9.283   2.297
 9232W        W82300  29.788   7.414   0.694
 9233W        W82301  37.642  26.710  11.463
 9234W        W82302   6.992   2.829   4.096
 9235W        W82303  17.050   0.214  11.465
 9236W        W82304  12.998  32.059   4.290
 9237W        W82305   0.004  30.557  14.310
 9238W        W82306   9.959  43.590   4.140
 9239W        W82307  26.477  40.505  14.833
 9240W        W82308  33.396  28.536  11.956
 9241W        W82309  19.064   4.107  12.648
 9242W        W82310  37.733  37.605  11.915
 9243W        W82311  26.820  12.739  10.902
 9244W        W82312  44.017  28.843   0.086
 9245W        W82313  13.727   2.908   3.664
 9246W        W82314  41.832  10.748  12.598
 9247W        W82315  27.091   8.930  13.008
 9248W        W82316  20.085  18.761  11.172
 9249W        W82317   0.618  13.928   0.348
 9250W        W82318   1.490  41.360   2.213
 9251W        W82319   6.964   2.581  13.144
 9252W        W82320  13.054  26.076   1.298
 9253W        W82321  29.166  43.334  13.865
 9254W        W82322  32.059   0.360   4.445
 9255W        W82323  13.578  37.980   2.129
 9256W        W82324  28.457   4.042  11.105
 9257W        W82325  20.199  18.597  12.612
 9258W        W82326  28.914  35.637  12.584
 9259W        W82327  14.325  41.131  12.525
 9260W        W82328  18.364  29.134  12.387
 9261W        W82329   8.532  26.793  12.899
 9262W        W82330   6.885  31.387  13.502
 9263W        W82331  28.892  12.855   1.744
 9264W        W82332  13.877  17.872  13.049
 9265W        W82333  10.830  28.250   3.217
 9266W        W82334  36.514   6.798  14.981
 9267W        W82335  39.054  13.193  13.166
 9268W        W82336  22.219  36.813  12.485
 9269W        W82337  17.116   1.389  13.114
 9270W        W82338   9.902  15.095  12.467
 9271W        W82339  22.579  10.709   2.406
 9272W        W82340  26.950  39.553  12.981
 9273W        W82341  43.874  34.037  12.826
 9274W        W82342  11.042   7.925  12.149
 9275W        W82343  27.903   0.016   2.731
 9276W        W82344  43.959   2.015   0.002
 9277W        W82345  37.303  30.600   2.014
 9278W        W82346   2.811  25.208  11.295
 9279W        W82347  19.722  43.931   4.787
 9280W        W82348   2.834   9.807   4.233
 9281W        W82349  40.347  26.657   1.366
 9282W        W82350  16.543  24.926   2.351
 9283W        W82351  15.228  21.739  14.508
 9284W        W82352  23.769  35.114   2.376
 9285W        W82353  21.737   7.261  14.693
 9286W        W82354  33.350  17.545   2.155
 9287W        W82355  17.952  11.359  13.809
 9288W        W82356  26.587   2.685  10.891
 9289W        W82357  28.387  26.662   0.967
 9290W        W82358   0.009  41.871  14.209
 9291W        W82359  21.058  11.348   0.544
 9292W        W82360  32.053  23.325  14.219
 9293W        W82361  14.422  16.372  11.226
 9294W        W82362   5.255  16.350   4.575
 9295W        W82363  14.731  27.225   2.664
 9296W        W82364  44.798  28.822   4.218
 9297W        W82365  12.867  41.532   3.080
 9298W        W82366   5.883  16.290   4.109
 9299W        W82367  29.910  19.480  11.025
 9300W        W82368   7.772  15.882  11.319
 9301W        W82369  38.018  13.634  12.110
 9302W        W82370  17.434  22.535  14.519
 9303W        W82371  42.440  30.300   2.097
 9304W        W82372  36.935   9.158  14.865
 9305W        W82373  19.277   1.052   1.343
 9306W        W82374   8.587  26.923   4.101
 9307W        W82375   5.827  16.326   0.477
 9308W        W82376   3.753  37.847   2.272
 9309W        W82377  10.369  42.474  14.353
 9310W        W82378   3.986  42.730  13.767
 9311W        W82379  36.883  13.276  11.099
 9312W        W82380  40.797  44.032   0.601
 9313W        W82381   5.353  42.792  13.664
 9314W        W82382  44.450   2.799   1.184
 9315W        W82383  20.216   1.253  11.710
 9316W        W82384  39.651  36.029  14.046
 9317W        W82385  27.364  32.980  12.749
 9318W        W82386   7.625  42.066   0.752
 9319W        W82387  41.958  42.990  14.724
 9320W        W82388  13.795  44.763   3.285
 9321W        W82389   3.737  42.001   4.790
 9322W        W82390   3.408   6.770   0.729
 9323W        W82391  12.155   4.773   4.668
 9324W        W82392   5.170  16.355  11.901
 9325W        W82393  28.433  27.907  11.944
 9326W        W82394  18.231   0.555  12.000
 9327W        W82395   0.440  19.864   4.649
 9328W        W82396  41.094  37.804  10.748
 9329W        W82397  10.287  11.134  12.533
 9330W        W82398   8.749   0.784   1.889
 9331W        W82399   5.906  17.085   3.397
 9332W        W82400  35.519   3.919   0.100
 9333W        W82401  33.842   6.350  12.480
 9334W        W82402  22.216   0.959  11.076
 9335W        W82403   2.417  32.918   0.482
 9336W        W82404  38.145  24.700   2.077
 9337W        W82405  15.171  37.566   1.971
 9338W        W82406  44.308  15.725  10.404
 9339W        W82407  38.599  23.554  10.645
 9340W        W82408   0.911  37.456  12.057
 9341W        W82409  12.533  37.194  14.847
 9342W        W82410  13.562  41.901   4.717
 9343W        W82411   9.485   1.981   4.553
 9344W        W82412   2.447   7.100  13.799
 9345W        W82413  27.866  22.168   1.396
 9346W        W82414  33.117  34.067   2.834
 9347W        W82415  17.331   0.691  13.754
 9348W        W82416  36.380   7.073   1.880
 9349W        W82417  28.375  10.652  11.476
 9350W        W82418  18.640   5.010  14.273
 9351W        W82419  23.492  18.504   2.814
 9352W        W82420  19.607   1.173  13.996
 9353W        W82421   2.719   2.891   1.354
 9354W        W82422  44.188  33.533  12.174
 9355W        W82423  40.879   4.815  11.659
 9356W        W82424   7.663  36.100  13.438
 9357W        W82425  39.744  33.538  11.504
 9358W        W82426   3.875   6.744  14.425
 9359W        W82427   7.076   0.747   4.525
 9360W        W82428  13.020  25.901   2.215
 9361W        W82429   5.104  28.619  14.274
 9362W        W82430  14.813  13.612   0.999
 9363W        W82431   3.162   7.186   4.761
 9364W        W82432   4.413   6.974  11.132
 9365W        W82433  30.514  39.013   4.445
 9366W        W82434  11.778  36.922  13.117
 9367W        W82435   4.223  15.558   0.529
 9368W        W82436  35.994  12.055   3.227
 9369W        W82437  35.183  30.610   3.270
 9370W        W82438  17.731  20.095  14.326
 9371W        W82439  26.517  21.745  10.700
 9372W        W82440  16.543  32.973   0.037
 9373W        W82441  21.743   9.112   2.165
 9374W        W82442  21.022  32.696  14.828
 9375W        W82443  23.606   6.390  14.435
 9376W        W82444   2.200  39.373  11.955
 9377W        W82445  27.918  40.447  13.597
 9378W        W82446  29.672  10.704  11.053
 9379W        W82447  43.805  17.533  12.033
 9380W        W82448   3.723   3.208  12.442
 9381W        W82449  21.632  14.662  12.878
 9382W        W82450  16.328  26.657  14.988
 9383W        W82451   0.906  19.072  14.380
 9384W        W82452  37.323  20.273   3.259
 9385W        W82453  35.310  28.385   4.620
 9386W        W82454  40.748  23.957   0.881
 9387W        W82455   4.379  37.770   4.193
 9388W        W82456   0.225  17.723  11.271
 9389W        W82457  19.970  40.992  13.495
 9390W        W82458  37.280  40.344   0.003
 9391W        W82459  29.085   8.329   1.971
 9392W        W82460   6.813  31.479   4.597
 9393W        W82461  32.028   1.093   0.495
 9394W        W82462  26.608  25.941   4.618
 9395W        W82463  19.034  20.702   0.830
 9396W        W82464  14.108  16.686   0.231
 9397W        W82465  40.049  17.566  14.793
 9398W        W82466  15.778  32.190  13.332
 9399W        W82467  28.443   8.570   1.478
 9400W        W82468  36.964   6.348  13.272
 9401W        W82469  13.622  39.785   0.865
 9402W        W82470  15.561  26.695  13.495
 9403W        W82471  20.812  40.998   3.874
 9404W        W82472  40.628  13.561   5.051
 9405W        W82473  33.131  40.411   0.438
 9406W        W82474  17.133  39.038   2.714
 9407W        W82475  40.765  36.092   3.063
 9408W        W82476  15.075  13.202  14.697
 9409W        W82477  11.485  18.017   2.208
 9410W        W82478  33.725  33.641  14.455
 9411W        W82479  10.941  30.929  13.386
 9412W        W82480  13.877  19.100   2.335
 9413W        W82481  22.887  26.445   3.264
 9414W        W82482   9.823  39.446   4.592
 9415W        W82483  30.153   8.690  10.650
 9416W        W82484   0.245  34.118   3.131
 9417W        W82485   4.915  11.562   1.401
 9418W        W82486  31.134   1.359   4.702
 9419W        W82487  27.005  22.110   3.725
 9420W        W82488  17.777  22.589   1.009
 9421W        W82489  26.434   6.262  11.190
 9422W        W82490  38.362  28.312   0.731
 9423W        W82491  24.797   6.470   3.330
 9424W        W82492  29.609  27.536   1.666
 9425W        W82493  21.649  41.966   2.025
 9426W        W82494  38.880  20.593   0.313
 9427W        W82495  29.947  27.625  13.330
 9428W        W82496  19.751  18.755   0.395
 9429W        W82497  25.235  33.474  14.616
 9430W        W82498   7.794  35.542   3.657
 9431W        W82499  26.490  30.881   4.983
 9432W        W82500  40.284  26.457   1.858
 9433W        W82501  40.367  40.343   3.257
 9434W        W82502  36.949  10.427  10.377
 9435W        W82503  44.500   4.327   3.318
 9436W        W82504  32.512   1.632  10.716
 9437W        W82505  19.528   3.507  11.957
 9438W        W82506   4.406  18.135   3.641
 9439W        W82507  12.717  21.188   0.333
 9440W        W82508   7.659  11.262   3.310
 9441W        W82509  34.499  28.420   4.055
 9442W        W82510   3.854   3.069   4.618
 9443W        W82511   3.039  44.770  10.368
 9444W        W82512   0.479   2.018   2.717
 9445W        W82513  40.249  24.830  12.132
 9446W        W82514  38.815   7.798   1.364
 9447W        W82515  36.452  38.143   1.648
 9448W        W82516  31.101  33.535   1.505
 9449W        W82517  37.517  41.893  12.546
 9450W        W82518  31.076  31.968  11.562
 9451W        W82519  12.598  10.205  13.305
 9452W        W82520  23.808  36.422   3.313
 9453W        W82521   7.673  39.606   0.875
 9454W        W82522  15.584  40.035   2.849
 9455W        W82523  23.411  32.066   0.868
 9456W        W82524  17.171   4.653   0.833
 9457W        W82525  21.682  20.719  11.461
 9458W        W82526   7.669  18.622  13.351
 9459W        W82527  39.837   0.885   0.644
 9460W        W82528   6.636  10.864  11.532
 9461W        W82529  17.705  11.641  13.440
 9462W        W82530  15.077  21.173  11.534
 9463W        W82531  23.716  38.958   1.418
 9464W        W82532  10.754  14.300   1.824
 9465W        W82533  27.893  12.392  14.850
 9466W        W82534  24.588  10.851   1.923
 9467W        W82535  39.383   2.988  14.030
 9468W        W82536  11.784  16.876  10.655
 9469W        W82537  37.488  22.622   2.769
 9470W        W82538   6.675  35.243  12.382
 9471W        W82539  16.640  17.997  12.486
 9472W        W82540  25.127   5.698  10.557
 9473W        W82541  23.723  13.308   1.306
 9474W        W82542  11.877  26.633  10.766
 9475W        W82543   6.802  30.920  14.358
 9476W        W82544  38.631  16.460  12.411
 9477W        W82545   0.153  40.721   2.764
 9478W        W82546   2.909  39.934  13.843
 9479W        W82547   9.768  27.018  11.866
 9480W        W82548   8.473   6.833   0.516
 9481W        W82549  39.832  39.407   3.693
 9482W        W82550   9.246  28.872   4.161
 9483W        W82551  12.652  34.218  13.436
 9484W        W82552  14.064  14.495  13.762
 9485W        W82553   2.237  43.402  10.850
 9486W        W82554  39.561   5.677   1.346
 9487W        W82555  40.337   7.666  11.532
 9488W        W82556  21.519  37.939   3.569
 9489W        W82557  33.466   1.060  10.724
 9490W        W82558  32.872   2.485   0.412
 9491W        W82559   8.926  13.305  12.483
 9492W        W82560  33.048  24.000  12.192
 9493W        W82561  14.578  30.550  11.133
 9494W        W82562  19.022  23.045  12.095
 9495W        W82563  27.155  28.167  14.244
 9496W        W82564  43.190  33.559  14.085
 9497W        W82565  38.999  23.726   2.771
 9498W        W82566   5.970   7.692   3.775
 9499W        W82567  17.144  38.151  12.452
 9500W        W82568   5.668  24.053   0.428
 9501W        W82569  39.772   9.709   1.293
 9502W        W82570  36.421  37.728   4.445
 9503W        W82571  39.953  30.501   4.144
 9504W        W82572  15.528  23.710  10.879
 9505W        W82573  26.167  41.039  14.737
 9506W        W82574  40.541   7.666   1.009
 9507W        W82575  35.579   8.763  11.140
 9508W        W82576  42.494  31.121  12.076
 9509W        W82577  13.530  24.979  12.939
 9510W        W82578   9.223   0.734   4.346
 9511W        W82579  15.286  37.487  13.559
 9512W        W82580  14.237  33.977   1.372
 9513W        W82581  21.490  35.779   1.799
 9514W        W82582   7.254  10.286  13.352
 9515W        W82583   2.125  22.694   0.897
 9516W        W82584  41.772  32.498  13.898
 9517W        W82585  33.650   9.243  12.551
 9518W        W82586  11.349   9.306   2.359
 9519W        W82587  31.562  42.801   1.215
 9520W        W82588  44.540   4.957   2.822
 9521W        W82589   1.163  13.159  14.421
 9522W        W82590  36.606  37.907   1.214
 9523W        W82591  16.558  39.555  14.880
 9524W        W82592  10.765  44.517   2.404
 9525W        W82593  35.012   5.924   1.805
 9526W        W82594  17.671  37.532  14.939
 9527W        W82595   5.448  18.302   4.798
 9528W        W82596  30.458  19.764  11.708
 9529W        W82597  12.259  44.197  14.859
 9530W        W82598   8.150   6.398  13.535
 9531W        W82599  17.848  40.319  12.456
 9532W        W82600  33.601  41.953   0.898
 9533W        W82601   5.231  40.991  13.169
 9534W        W82602  14.271  16.518   1.219
 9535W        W82603  32.252   5.741  12.029
 9536W        W82604  29.421  20.824   0.751
 9537W        W82605  44.475  44.303   1.717
 9538W        W82606  36.840  18.317  14.528
 9539W        W82607  22.933  21.205  14.812
 9540W        W82608  11.489  10.519   4.805
 9541W        W82609   4.072   1.567  11.692
 9542W        W82610  22.156  37.695  13.701
 9543W        W82611  39.975  30.479  11.639
 9544W        W82612   8.661  13.602   0.541
 9545W        W82613  43.311  44.153   0.536
 9546W        W82614  20.522  33.199  14.375
 9547W        W82615  19.216   3.629  12.798
 9548W        W82616  37.126  18.147   4.589
 9549W        W82617   9.414  18.605   1.722
 9550W        W82618  24.217  25.411   2.112
 9551W        W82619   7.390  26.390  13.480
 9552W        W82620  31.876  21.734   4.552
 9553W        W82621  25.270   7.480  13.544
 9554W        W82622  40.848  35.353  14.409
 9555W        W82623  16.053  17.137   1.071
 9556W        W82624  18.251   6.486  14.964
 9557W        W82625  10.688  42.682  10.774
 9558W        W82626  37.715  23.874   0.925
 9559W        W82627  35.511  34.291  12.947
 9560W        W82628  42.771   2.193   3.574
 9561W        W82629  25.496  29.404   2.873
 9562W        W82630  30.491  14.050   3.092
 9563W        W82631  12.377  19.063   5.354
 9564W        W82632  30.123  30.422  10.995
 9565W        W82633   7.225  40.837  11.694
 9566W        W82634  26.067  37.817  11.732
 9567W        W82635  36.287  26.994   3.610
 9568W        W82636   8.939  24.953  10.980
 9569W        W82637   6.103   7.328  11.427
 9570W        W82638   5.591  11.373  12.478
 9571W        W82639  43.048   2.382  13.375
 9572W        W82640   9.884   2.405  12.927
 9573W        W82641   9.302   8.127   1.764
 9574W        W82642  23.029  34.164  12.019
 9575W        W82643   5.120   0.127   1.362
 9576W        W82644  16.172  28.367   0.401
 9577W        W82645  33.465  15.041   1.448
 9578W        W82646  23.040  30.644   0.475
 9579W        W82647  19.042  34.028   2.941
 9580W        W82648  34.786  25.958   3.877
 9581W        W82649  37.700  30.887  14.007
 9582W        W82650  42.314   1.995  13.011
 9583W        W82651   6.615  26.970  11.493
 9584W        W82652  26.703  30.707  13.028
 9585W        W82653  32.170  36.914   2.890
 9586W        W82654  36.379  10.323  13.620
 9587W        W82655  20.054  32.142  13.383
 9588W        W82656   4.401  28.920   4.585
 9589W        W82657  21.262  28.487  11.128
 9590W        W82658  40.211  27.967  12.525
 9591W        W82659  33.154  37.521   1.005
 9592W        W82660  20.174  31.952   2.465
 9593W        W82661  38.586  43.756  13.115
 9594W        W82662  44.902  20.868   2.278
 9595W        W82663  18.626  26.137  13.566
 9596W        W82664  26.644  42.746  13.109
 9597W        W82665  42.024  36.424  11.694
 9598W        W82666   1.426   5.957   0.488
 9599W        W82667   0.501   2.971   1.788
 9600W        W82668  18.445   9.217   3.699
 9601W        W82669  11.139  36.446  12.992
 9602W        W82670  38.877   4.108  14.404
 9603W        W82671  10.502  36.306  11.261
 9604W        W82672  18.126  15.384   2.334
 9605W        W82673  39.978  27.203   4.000
 9606W        W82674   7.028  41.017  10.620
 9607W        W82675  10.618   2.292   0.986
 9608W        W82676  10.641  30.177   4.441
 9609W        W82677  40.691  28.102  11.066
 9610W        W82678  27.478  30.912  11.101
 9611W        W82679  37.141   5.852   1.111
 9612W        W82680  24.026  39.896   0.664
 9613W        W82681  38.982  27.181   9.582
 9614W        W82682  41.502  11.927   0.101
 9615W        W82683  29.405   3.969  14.746
 9616W        W82684  36.593  42.856   9.738
 9617W        W82685  17.724   8.351  14.357
 9618W        W82686  24.827  21.804   3.143
 9619W        W82687   4.800  20.979   2.690
 9620W        W82688  32.656  21.063  10.449
 9621W        W82689  14.850  28.941   1.285
 9622W        W82690  32.505   2.134   0.986
 9623W        W82691  29.246  23.807   0.817
 9624W        W82692  31.908   3.471  12.058
 9625W        W82693  28.209  37.043   0.296
 9626W        W82694   6.327   3.952  11.666
 9627W        W82695   5.807   0.893   1.553
 9628W        W82696   5.188  20.499  13.890
 9629W        W82697   4.958   2.136   2.248
 9630W        W82698   4.730  40.828  14.350
 9631W        W82699  13.856  32.323  12.934
 9632W        W82700   6.186  11.241  12.129
 9633W        W82701  38.541  38.449   0.515
 9634W        W82702  41.797  11.547  13.537
 9635W        W82703  31.466  30.941  14.098
 9636W        W82704   2.292  23.491  13.552
 9637W        W82705   8.318  39.526   0.221
 9638W        W82706  15.659  20.652  13.995
 9639W        W82707  21.150  41.354   0.024
 9640W        W82708   9.292  15.776   4.117
 9641W        W82709  42.872   0.767  12.441
 9642W        W82710   1.515  41.532   0.283
 9643W        W82711  31.538  32.661   2.152
 9644W        W82712  20.564   5.685  11.363
 9645W        W82713  16.233  24.474  13.088
 9646W        W82714  12.996  18.594  13.960
 9647W        W82715   4.582  33.940   3.801
 9648W        W82716  23.221  23.668  13.802
 9649W        W82717  43.942  16.324  10.615
 9650W        W82718  36.176  44.746  14.009
 9651W        W82719   3.763  23.579   3.898
 9652W        W82720  20.773  43.380  10.316
 9653W        W82721   9.327  17.069  13.442
 9654W        W82722  14.777  33.664  11.216
 9655W        W82723  19.501   2.435  14.412
 9656W        W82724  16.320  29.548  12.336
 9657W        W82725  37.746  13.571  13.557
 9658W        W82726  10.925  23.725   4.611
 9659W        W82727  36.070  26.084   2.219
 9660W        W82728  11.045  10.689   2.542
 9661W        W82729  31.863   5.226  11.093
 9662W        W82730   3.790  28.645   3.608
 9663W        W82731   9.394  12.350   0.958
 9664W        W82732  15.176  42.456   4.383
 9665W        W82733  11.603   7.263   4.593
 9666W        W82734  44.116   1.280   2.782
 9667W        W82735  40.551  12.678   4.561
 9668W        W82736   6.955   5.123  13.931
 9669W        W82737   2.985  28.376   3.294
 9670W        W82738  41.326   9.414  13.888
 9671W        W82739  18.675  18.122  10.541
 9672W        W82740  16.031  20.600  14.465
 9673W        W82741  29.445  22.995  13.422
 9674W        W82742  44.675  33.526  13.046
 9675W        W82743  31.131  12.726  12.897
 9676W        W82744   2.658  21.556   2.951
 9677W        W82745  17.999   5.720  11.595
 9678W        W82746  44.761  39.267   3.553
 9679W        W82747  30.967   3.514  12.604
 9680W        W82748  30.113  19.215  10.636
 9681W        W82749  36.572   3.768  12.642
 9682W        W82750   2.877   3.217  14.771
 9683W        W82751  25.525  27.401   3.293
 9684W        W82752  11.275  16.778  14.954
 9685W        W82753  10.941   3.923  14.358
 9686W        W82754  33.232  13.176   4.817
 9687W        W82755  11.315   0.003   2.603
 9688W        W82756  28.332  10.034  10.550
 9689W        W82757  12.239  39.107   2.784
 9690W        W82758   5.792  16.191   2.681
 9691W        W82759  41.075  10.608  13.089
 9692W        W82760  35.390  20.964  12.419
 9693W        W82761   0.484  37.406  13.938
 9694W        W82762  37.952  22.410  14.047
 9695W        W82763   2.416  16.207  13.813
 9696W        W82764   1.385   8.148   2.366
 9697W        W82765  35.960   5.956  11.171
 9698W        W82766  34.558   2.932  11.537
 9699W        W82767   6.391   8.998   4.043
 9700W        W82768  20.227  20.201  10.644
 9701W        W82769  19.802  32.917   1.829
 9702W        W82770   0.568  27.335  14.050
 9703W        W82771  23.044  41.582   1.944
 9704W        W82772  33.352   0.289  10.553
 9705W        W82773  32.213  42.468   4.192
 9706W        W82774   0.407  29.966  10.587
 9707W        W82775  36.324  42.774  12.459
 9708W        W82776  20.652  32.365  11.320
 9709W        W82777  41.461  12.156  13.851
 9710W        W82778  39.129  40.719   1.468
 9711W        W82779  26.648   6.191   4.411
 9712W        W82780   5.889   3.846   4.776
 9713W        W82781   8.384  18.131   0.741
 9714W        W82782  32.093  36.837  13.395
 9715W        W82783  35.404   8.574  14.286
 9716W        W82784  30.315  41.893  11.087
 9717W        W82785   4.207   8.095   2.100
 9718W        W82786  38.272  38.438  10.989
 9719W        W82787  25.435  12.375  13.887
 9720W        W82788  32.946  40.493  13.473
 9721W        W82789  28.732  25.682   3.661
 9722W        W82790   6.413  44.953  12.896
 9723W        W82791  16.905  17.757  14.168
 9724W        W82792  16.666   1.235   3.579
 9725W        W82793  36.370  40.097   1.726
 9726W        W82794  21.456  34.681   2.231
 9727W        W82795  43.348  38.208  10.806
 9728W        W82796  35.820   7.360  14.578
 9729W        W82797  30.015  41.583   4.695
 9730W        W82798   1.983  11.260  11.654
 9731W        W82799  40.304   0.934   5.075
 9732W        W82800  36.295   4.776  11.584
 9733W        W82801  35.542  18.334  13.925
 9734W        W82802  30.265  36.551   4.680
 9735W        W82803  18.589  44.808  12.968
 9736W        W82804  35.365  30.846   0.423
 9737W        W82805  32.849  20.734   4.712
 9738W        W82806  33.292   0.061   3.323
 9739W        W82807  32.970  27.270   4.123
 9740W        W82808  40.405  19.947   9.899
 9741W        W82809  32.145  16.856  10.244
 9742W        W82810  35.465   9.580   4.329
 9743W        W82811   7.308  24.933  11.084
 9744W        W82812  17.497   4.387  13.381
 9745W        W82813  15.506  17.957   2.372
 9746W        W82814  41.462  11.161  14.026
 9747W        W82815   8.226  13.090  12.988
 9748W        W82816   7.421  21.228  12.487
 9749W        W82817  42.257  16.460  12.565
 9750W        W82818  22.822   2.724   1.170
 9751W        W82819   0.274  18.207   3.835
 9752W        W82820  44.662   3.920   3.829
 9753W        W82821  30.604  28.958  11.657
 9754W        W82822  21.583  25.607  13.230
 9755W        W82823  18.392  28.985   0.434
 9756W        W82824  32.918  15.646   1.965
 9757W        W82825   5.272  12.280  13.249
 9758W        W82826  34.075  41.290   1.325
 9759W        W82827  35.431  13.682   4.830
 9760W        W82828   1.296   0.213  11.103
 9761W        W82829   5.921   8.262  14.935
 9762W        W82830   8.250  10.154  10.378
 9763W        W82831  43.700  42.929  11.348
 9764W        W82832   8.717  15.115  11.559
 9765W        W82833  12.103  31.577  11.524
 9766W        W82834  37.561  42.959  10.228
 9767W        W82835   6.726  44.086  13.923
 9768W        W82836  32.532   5.819   0.699
 9769W        W82837  18.515  24.761   2.345
 9770W        W82838  44.519   5.931  13.620
 9771W        W82839  32.983  39.311  11.642
 9772W        W82840  26.511   6.710  13.866
 9773W        W82841  37.014  12.391  11.088
 9774W        W82842   6.371   3.786  10.354
 9775W        W82843  38.379  14.307   3.129
 9776W        W82844  14.202  35.910   2.783
 9777W        W82845  33.055  18.515  13.085
 9778W        W82846   6.924  37.399   0.619
 9779W        W82847   9.383   3.962   2.213
 9780W        W82848  37.474   9.118   5.250
 9781W        W82849   8.056   4.741   3.195
 9782W        W82850  21.515  31.977   1.649
 9783W        W82851  43.105   9.109   5.115
 9784W        W82852  29.262   5.897   1.196
 9785W        W82853  25.855  18.780  14.869
 9786W        W82854  39.562   3.358   3.270
 9787W        W82855  43.757  36.977  11.586
 9788W        W82856  26.904  36.432  12.981
 9789W        W82857  39.474  29.604   2.216
 9790W        W82858  36.981  26.435   2.329
 9791W        W82859  38.037  39.789  12.874
 9792W        W82860  31.876  36.536  11.953
 9793W        W82861  28.177  13.860   2.831
 9794W        W82862   6.252   7.875  12.670
 9795W        W82863  27.741  42.242  13.312
 9796W        W82864  21.810  44.735   3.191
 9797W        W82865  40.855  37.230  11.752
 9798W        W82866  29.219   9.212  13.092
 9799W        W82867  16.561  43.993  12.825
 9800W        W82868   0.631  15.188  13.996
 9801W        W82869  42.067   1.845  14.889
 9802W        W82870  17.838  26.702  10.752
 9803W        W82871  10.109  40.938   3.478
 9804W        W82872  22.160  38.449  13.031
 9805W        W82873  18.639  21.976   2.656
 9806W        W82874  13.434   0.084   0.495
 9807W        W82875  20.803  41.522   3.208
 9808W        W82876   8.960  15.567  11.891
 9809W        W82877  24.400  14.158   0.269
 9810W        W82878   0.041  33.599  14.771
 9811W        W82879  32.664  15.641   2.423
 9812W        W82880  34.295  42.109  12.200
 9813W        W82881  32.506  13.791   1.014
 9814W        W82882  29.493  26.192   3.685
 9815W        W82883  18.784  18.663  11.181
 9816W        W82884  28.576  41.052  13.896
 9817W        W82885  10.132   8.469   3.151
 9818W        W82886  19.191   4.242   4.337
 9819W        W82887   5.750  25.174   3.289
 9820W        W82888  14.274  41.413  10.671
 9821W        W82889  31.314  33.975   1.311
 9822W        W82890  15.685   7.280  14.104
 9823W        W82891  38.227  40.800  11.957
 9824W        W82892  26.107   7.194  13.841
 9825W        W82893  13.167  21.230  12.040
 9826W        W82894   4.417  44.481  12.888
 9827W        W82895   7.548  44.439  13.512
 9828W        W82896  39.303  16.338  13.010
 9829W        W82897  11.133  24.174  13.268
 9830W        W82898  17.793  11.331   1.656
 9831W        W82899  31.633  12.206  13.481
 9832W        W82900  20.625  17.232   3.896
 9833W        W82901  21.093  18.993   4.239
 9834W        W82902   9.358   9.764   2.636
 9835W        W82903  15.611  32.479   3.388
 9836W        W82904  17.153  41.106   0.776
 9837W        W82905   4.235  30.554   2.683
 9838W        W82906  16.056   8.294   0.979
 9839W        W82907  34.104   5.467   1.444
 9840W        W82908   5.114  27.153   3.859
 9841W        W82909  17.775  31.519   2.628
 9842W        W82910  43.602   3.837  12.832
 9843W        W82911  36.593  12.871   0.521
 9844W        W82912  24.705   1.290   4.675
 9845W        W82913  12.293  37.415  10.980
 9846W        W82914  16.076   6.304  14.246
 9847W        W82915   5.692  38.132   4.969
 9848W        W82916  37.618  32.252  14.738
 9849W        W82917  29.466  16.103  11.906
 9850W        W82918  14.728  39.006   1.218
 9851W        W82919   8.874   3.913   2.294
 9852W        W82920  39.837  43.403  10.487
 9853W        W82921  34.425  25.627   0.248
 9854W        W82922  17.551  10.654   0.885
 9855W        W82923  30.514   3.219   0.870
 9856W        W82924  26.052   2.747  13.827
 9857W        W82925  17.657  20.774  11.110
 9858W        W82926  16.772  25.041   4.886
 9859W        W82927  32.863  24.485   3.757
 9860W        W82928   4.957  15.556   2.553
 9861W        W82929  41.450  10.770  13.672
 9862W        W82930  29.236  25.683  13.204
 9863W        W82931  12.233  41.028  12.535
 9864W        W82932  31.100   7.901   4.572
 9865W        W82933  34.377   3.797  13.076
 9866W        W82934  16.335  30.380   2.146
 9867W        W82935  38.064  34.611  11.581
 9868W        W82936  19.145   3.550  13.292
 9869W        W82937  17.689  24.268  14.389
 9870W        W82938  44.553  44.944  14.445
 9871W        W82939  24.002  16.374  12.478
 9872W        W82940  26.660  27.630  12.542
 9873W        W82941  30.576  25.623  13.518
 9874W        W82942   8.383  22.032   3.687
 9875W        W82943   4.408  31.518  12.581
 9876W        W82944  14.847  34.510   2.803
 9877W        W82945  15.135  21.596  10.644
 9878W        W82946  33.542  10.289   4.430
 9879W        W82947  30.965  29.057   0.733
 9880W        W82948   9.765  26.302   2.777
 9881W        W82949  34.752  34.009  13.251
 9882W        W82950   2.668  36.993  11.532
 9883W        W82951  37.515   8.740  11.656
 9884W        W82952  25.670  40.760  10.151
 9885W        W82953   0.260   4.891   4.112
 9886W        W82954  29.590  20.130  11.925
 9887W        W82955  35.956   7.015   0.417
 9888W        W82956  26.586  26.117   0.715
 9889W        W82957  25.026  34.856   0.520
 9890W        W82958  10.890   7.314   3.345
 9891W        W82959  32.975  18.505  14.014
 9892W        W82960   8.374   9.816  11.586
 9893W        W82961  22.260   1.210   4.398
 9894W        W82962  41.699  15.173   3.133
 9895W        W82963   3.634  24.492   2.802
 9896W        W82964  29.492  40.824  13.956
 9897W        W82965  28.022  32.964  10.673
 9898W        W82966  29.649  33.118  13.623
 9899W        W82967  36.987  33.775  12.064
 9900W        W82968   1.359  16.155   3.174
 9901W        W82969   0.939  25.338  13.666
 9902W        W82970  40.363  37.371   1.835
 9903W        W82971  17.909  38.023   0.406
 9904W        W82972  25.911  15.242   0.299
 9905W        W82973  10.890   6.355   3.197
 9906W        W82974  17.564   7.671  13.474
 9907W        W82975  23.121   3.294  14.785
 9908W        W82976  34.363  37.559  14.671
 9909W        W82977  41.526  18.732   0.969
 9910W        W82978  41.543  22.919  13.808
 9911W        W82979  39.903  31.035  10.981
 9912W        W82980  18.261  16.115  10.665
 9913W        W82981  10.500   9.233  11.483
 9914W        W82982  35.189   3.728   1.147
 9915W        W82983   6.954  11.853   2.298
 9916W        W82984   5.439  34.441   4.534
 9917W        W82985  43.020  42.875  14.317
 9918W        W82986  13.244  39.254  13.953
 9919W        W82987  24.656  29.705  11.632
 9920W        W82988  43.454  42.430   3.409
 9921W        W82989  42.773   5.792   0.403
 9922W        W82990  36.849  40.019   3.325
 9923W        W82991  32.600  28.064   3.089
 9924W        W82992   3.250  19.157  14.427
 9925W        W82993  44.460  27.915  13.018
 9926W        W82994  44.829  41.869  14.723
 9927W        W82995  44.881  16.997  14.844
 9928W        W82996  38.093   0.393  10.717
 9929W        W82997  28.508   7.626  14.906
 9930W        W82998  21.748   0.932   4.162
 9931W        W82999  30.085  19.743   2.453
 9932W        W83000   0.162  24.522  13.851
 9933W        W83001  22.698  16.580   9.818
 9934W        W83002   9.281  16.666  12.044
 9935W        W83003  15.201  42.231   1.937
 9936W        W83004  15.623  25.178  11.719
 9937W        W83005   3.954  27.524  11.604
 9938W        W83006   0.371  31.038  14.837
 9939W        W83007  24.103  22.471   1.767
 9940W        W83008  44.858  23.224  14.529
 9941W        W83009  38.971  21.543  10.637
 9942W        W83010   8.683  25.760   2.328
 9943W        W83011   9.329  18.044   2.812
 9944W        W83012  12.380  28.105   4.281
 9945W        W83013   6.861  34.829   4.538
 9946W        W83014  10.827  36.358   1.264
 9947W        W83015  40.025  44.439   2.737
 9948W        W83016   8.854  44.875  11.390
 9949W        W83017  14.596  30.571  10.621
 9950W        W83018  23.678   2.409   3.769
 9951W        W83019  31.987   4.910   0.337
 9952W        W83020  15.226   2.050  14.437
 9953W        W83021  39.390   7.405  14.929
 9954W        W83022   8.113  14.640   3.588
 9955W        W83023  15.286   6.981  14.303
 9956W        W83024   7.874  15.040  14.853
 9957W        W83025  16.710  37.581   0.911
 9958W        W83026   3.216  21.224  10.597
 9959W        W83027  34.354  22.259  14.036
 9960W        W83028  34.026  31.547   4.659
 9961W        W83029   8.320  24.810  12.056
 9962W        W83030  13.877  12.868   0.288
 9963W        W83031  10.967  27.861   3.987
 9964W        W83032  40.004  43.555   4.928
 9965W        W83033  10.890  32.720  13.747
 9966W        W83034  17.052  10.872   1.768
 9967W        W83035  17.525  39.080   2.394
 9968W        W83036  19.600  16.065  14.496
 9969W        W83037  17.086  20.068  12.647
 9970W        W83038  17.185  38.682  13.476
 9971W        W83039  19.681  18.832  11.960
 9972W        W83040  33.417   5.242   3.659
 9973W        W83041  32.589   3.350   0.420
 9974W        W83042   3.892  11.605  10.706
 9975W        W83043   8.434  23.639  11.108
 9976W        W83044   5.083  28.832  14.930
 9977W        W83045   6.683  14.771   0.200
 9978W        W83046  40.520  22.638  14.225
 9979W        W83047   1.918  38.184  11.438
 9980W        W83048   9.219  29.993  14.502
 9981W        W83049  31.923  41.084  14.465
 9982W        W83050  14.345   6.670   3.391
 9983W        W83051   3.710  22.996  14.544
 9984W        W83052  32.912  42.980   4.719
 9985W        W83053  24.311   6.707   1.137
 9986W        W83054  27.328  23.497  13.858
 9987W        W83055  34.658   8.890   3.977
 9988W        W83056  39.134  12.382   0.004
 9989W        W83057   1.303  41.953   0.010
 9990W        W83058  40.861  33.659   1.722
 9991W        W83059  34.544  39.638   2.616
 9992W        W83060   9.702   9.910  14.018
 9993W        W83061  43.966   3.852  14.984
 9994W        W83062  25.258  20.110  14.516
 9995W        W83063  33.961  10.440   0.001
 9996W        W83064  22.038  20.271   1.000
 9997W        W83065  26.086   1.067  11.567
 9998W        W83066  34.483  20.873   3.784
 9999W        W83067  12.214  38.342   3.807
10000W        W83068  38.432   1.224   5.114
10001W        W83069  27.021  37.545   3.794
10002W        W83070  24.084  41.026  10.183
10003W        W83071  12.402  36.072   0.526
10004W        W83072  26.937  31.909   4.282
10005W        W83073   7.968  18.564   2.787
10006W        W83074  40.601  40.421  11.994
10007W        W83075  44.533  14.248  14.451
10008W        W83076  17.031  40.748   0.401
10009W        W83077  34.214  24.896   2.741
10010W        W83078  21.782  23.026   4.594
10011W        W83079  10.695  43.292   2.823
10012W        W83080   8.722  17.855   3.662
10013W        W83081  29.943  19.279   3.401
10014W        W83082   0.369   0.297   1.744
10015W        W83083   5.047  23.192  10.716
10016W        W83084  27.435  11.410   4.147
10017W        W83085   3.818  12.913  13.433
10018W        W83086  14.809  30.448   0.405
10019W        W83087  40.575  40.577  14.856
10020W        W83088  32.514  25.088   4.688
10021W        W83089   1.190  10.284  14.731
10022W        W83090  19.160  41.288  11.031
10023W        W83091  26.573   3.446   4.659
10024W        W83092  10.383  41.921   2.440
10025W        W83093  12.526  24.243  12.470
10026W        W83094   8.940  27.181  14.503
10027W        W83095  16.584  29.071  12.421
10028W        W83096  13.778  36.552  13.553
10029W        W83097  43.957  39.560   3.022
10030W        W83098  27.486   6.688  13.843
10031W        W83099  29.567  16.314   2.913
10032W        W83100  24.060  17.622  13.370
10033W        W83101   0.981  15.858   3.341
10034W        W83102  21.972  30.981   0.263
10035W        W83103   9.064  41.319  13.420
10036W        W83104  29.933  24.549  14.365
10037W        W83105  12.000   6.208  12.911
10038W        W83106  12.824  35.208  13.516
10039W        W83107  29.595  13.277  14.449
10040W        W83108  37.430  32.379  13.872
10041W        W83109  40.776   1.090   4.214
10042W        W83110  28.229  42.483   1.915
10043W        W83111  32.657  31.355  12.002
10044W        W83112  10.125   8.894  10.743
10045W        W83113   5.887  43.685  11.015
10046W        W83114  34.472  11.627  11.322
10047W        W83115  33.661  17.311  14.428
10048W        W83116   1.029  10.751   3.490
10049W        W83117  42.311   6.871   4.484
10050W        W83118  20.154  30.503   0.763
10051W        W83119  12.598  25.979  11.669
10052W        W83120  13.249   9.559   1.186
10053W        W83121  18.182  19.332  11.958
10054W        W83122  21.387  32.969   4.938
10055W        W83123  38.764  44.767   3.576
10056W        W83124  30.697  42.453   1.658
10057W        W83125  26.169  14.721  10.990
10058W        W83126  38.487  30.534   3.680
10059W        W83127   1.826  24.239  13.895
10060W        W83128  42.962  10.473  12.852
10061W        W83129  36.419  44.956   0.009
10062W        W83130  32.322  33.436   4.672
10063W        W83131   0.309  11.236  14.868
10064W        W83132   2.746   6.262   2.859
10065W        W83133  12.125  25.433  11.844
10066W        W83134  25.842  41.032   5.133
10067W        W83135  27.511  11.962  12.875
10068W        W83136   0.817  30.681   1.178
10069W        W83137  35.692  33.100   3.703
10070W        W83138  15.617  29.197   2.777
10071W        W83139  28.645   6.180  14.846
10072W        W83140   2.575  36.598  14.666
10073W        W83141  41.232  12.893   2.865
10074W        W83142   0.945  39.809   2.287
10075W        W83143  26.491  39.307  10.528
10076W        W83144  19.998  42.891  14.389
10077W        W83145  35.979  24.541   4.416
10078W        W83146  35.025  28.593  14.840
10079W        W83147  27.466  15.034   4.179
10080W        W83148  44.972  43.735  13.346
10081W        W83149  19.779  36.462  12.954
10082W        W83150  15.728   8.663   0.806
10083W        W83151  42.282  24.400  10.707
10084W        W83152  40.681  30.744  11.177
10085W        W83153   1.978  41.470  10.587
10086W        W83154   3.561  37.648   4.326
10087W        W83155  30.134  16.283  12.007
10088W        W83156  18.055  25.675   1.260
10089W        W83157  39.353  43.010  14.160
10090W        W83158  27.413  42.442  14.010
10091W        W83159  34.067  39.386   0.455
10092W        W83160  28.153   4.015   0.175
10093W        W83161  20.839  19.177   3.770
10094W        W83162  30.032  42.589   2.275
10095W        W83163  20.230   8.765   3.743
10096W        W83164   5.661  37.944  11.893
10097W        W83165  41.008  38.113  13.393
10098W        W83166  44.350   7.446  10.643
10099W        W83167   5.755  19.218  12.383
10100W        W83168  17.714  19.579  14.398
10101W        W83169  24.185  38.714   0.560
10102W        W83170  43.845   3.991  14.470
10103W        W83171  35.017  11.778  13.136
10104W        W83172  20.643  43.915  14.736
10105W        W83173  11.193  14.170   0.556
10106W        W83174  25.046  29.173  14.738
10107W        W83175  42.868  20.299  12.102
10108W        W83176   2.829  40.906   2.349
10109W        W83177  22.753   2.807  11.128
10110W        W83178  39.611   4.065   2.858
10111W        W83179  20.239  39.868  11.527
10112W        W83180  36.045  16.790   4.122
10113W        W83181  39.293   8.397   4.972
10114W        W83182   7.921   3.355   2.733
10115W        W83183  31.461  32.366  10.715
10116W        W83184  23.284  29.222  13.967
10117W        W83185  44.339  18.304   4.562
10118W        W83186  29.044  16.858   1.878
10119W        W83187  13.828  26.055  14.309
10120W        W83188  19.208  35.050  12.022
10121W        W83189  17.816  35.686   4.066
10122W        W83190   5.632   7.121   1.294
10123W        W83191  33.058  36.496   0.574
10124W        W83192  30.914  28.096  12.465
10125W        W83193  15.071  42.964  12.526
10126W        W83194  19.582  21.086   3.210
10127W        W83195   5.127  26.403   4.148
10128W        W83196   6.495  41.484  11.975
10129W        W83197  13.108  42.432   3.209
10130W        W83198  18.847  14.031  10.737
10131W        W83199   1.932   1.249   1.697
10132W        W83200   1.959   3.752  10.683
10133W        W83201  38.841  19.599  12.475
10134W        W83202  42.555  27.497   1.631
10135W        W83203   2.457  43.456  10.383
10136W        W83204  34.562  20.111  12.328
10137W        W83205  33.406  36.055  10.515
10138W        W83206  33.878  21.131   1.788
10139W        W83207  39.325   3.119  13.529
10140W        W83208  34.954  24.149   3.405
10141W        W83209  33.028  40.544  10.447
10142W        W83210  23.705  39.306   1.827
10143W        W83211   5.582  36.485  14.556
10144W        W83212  38.341  23.088  10.896
10145W        W83213   3.807  17.519   1.600
10146W        W83214  28.447  30.686   4.107
10147W        W83215   6.684  22.265  14.103
10148W        W83216  26.425  15.600   0.739
10149W        W83217  30.063   3.475   3.207
10150W        W83218   8.710  32.637   0.447
10151W        W83219   9.654  40.893   1.029
10152W        W83220   5.865  41.032   4.164
10153W        W83221  18.351  17.789  13.860
10154W        W83222  11.771  31.818  10.067
10155W        W83223  22.258   5.911   3.834
10156W        W83224   3.891  21.982   4.108
10157W        W83225   4.091  34.610   2.149
10158W        W83226   9.909  43.427   2.324
10159W        W83227  15.678  12.381   0.281
10160W        W83228  27.870  30.563   2.193
10161W        W83229  39.076  31.558   2.341
10162W        W83230  33.071  12.787  14.730
10163W        W83231  27.735  24.209   4.283
10164W        W83232   2.616  10.350  12.513
10165W        W83233  34.557  35.389  10.546
10166W        W83234  38.117  28.189   2.172
10167W        W83235  35.616  24.116  11.474
10168W        W83236  40.096  43.076  14.936
10169W        W83237  31.124  22.352   4.622
10170W        W83238   3.946  40.355  13.023
10171W        W83239   0.235  33.336  11.099
10172W        W83240  43.842  37.906   4.193
10173W        W83241  19.544  32.876   3.635
10174W        W83242  30.466   6.213   3.362
10175W        W83243  10.247   3.998  14.822
10176W        W83244  15.353  12.755   2.614
10177W        W83245   5.424  15.788  10.623
10178W        W83246  19.527  33.485   4.891
10179W        W83247   9.356  16.553  14.643
10180W        W83248  11.411  32.783   0.442
10181W        W83249   1.887  20.562  10.428
10182W        W83250  39.863  13.915  11.114
10183W        W83251   3.908  16.140   0.977
10184W        W83252   5.657  26.059   3.843
10185W        W83253  26.533  13.777  12.802
10186W        W83254  35.466  14.938  14.742
10187W        W83255  27.695   5.198   4.635
10188W        W83256  16.902   2.328   4.157
10189W        W83257   0.232  14.073  12.034
10190W        W83258   7.439  31.518   2.350
10191W        W83259  28.208  38.255   4.093
10192W        W83260   4.884  14.015  14.019
10193W        W83261  21.116  26.338  12.450
10194W        W83262   7.605  21.056   2.038
10195W        W83263  25.952  24.630   0.784
10196W        W83264  20.062  41.480  12.987
10197W        W83265   4.519  22.242   4.891
10198W        W83266  16.699  35.951   2.238
10199W        W83267  12.799  27.064   0.332
10200W        W83268  18.250  29.531   2.336
10201W        W83269  21.521  44.588  14.806
10202W        W83270  15.760   1.825   4.610
10203W        W83271   0.818   1.332   1.629
10204W        W83272  27.608  18.680   2.096
10205W        W83273  42.910  12.725   0.692
10206W        W83274   2.626  40.900   4.869
10207W        W83275   2.367  25.033   2.718
10208W        W83276  29.524   9.649   1.350
10209W        W83277  12.615  24.022  11.654
10210W        W83278  40.979  12.083  14.329
10211W        W83279  41.999  40.218   0.489
10212W        W83280  10.049   8.598  11.169
10213W        W83281  33.828  39.041   0.992
10214W        W83282  18.238  17.375   3.607
10215W        W83283   6.134  18.735   1.411
10216W        W83284  31.412  29.073  11.987
10217W        W83285  13.242   2.479   0.635
10218W        W83286   9.632  22.503   3.152
10219W        W83287  27.030  21.607   1.299
10220W        W83288   1.718  27.481  11.095
10221W        W83289   5.402  32.215  12.123
10222W        W83290  11.639  18.891   0.632
10223W        W83291  28.427  25.659  14.796
10224W        W83292  44.127  13.011   3.519
10225W        W83293  13.720  40.013  14.525
10226W        W83294  24.315   3.865  14.712
10227W        W83295   5.510   2.272  14.862
10228W        W83296  22.181  24.163   1.395
10229W        W83297   1.957  24.459   2.332
10230W        W83298  13.677  38.767  11.369
10231W        W83299   1.468  29.892  14.812
10232W        W83300  12.286  26.731   2.741
10233W        W83301  17.566  34.515   3.964
10234W        W83302   2.456  17.020   3.189
10235W        W83303  24.401   0.448  13.028
10236W        W83304  27.679  23.469  12.679
10237W        W83305  26.576  40.281  14.376
10238W        W83306  34.029  32.435   4.922
10239W        W83307  30.395  37.362   4.161
10240W        W83308  17.755  10.179   1.802
10241W        W83309  38.932  26.353   4.733
10242W        W83310  27.870   6.163  14.315
10243W        W83311  35.270  31.101  14.952
10244W        W83312  42.289  17.208   0.890
10245W        W83313   5.248  19.101  11.510
10246W        W83314  25.551  16.763  11.316
10247W        W83315  20.000  20.229  14.373
10248W        W83316  10.103  15.161   0.406
10249W        W83317  13.671   0.540   1.418
10250W        W83318  22.634   0.791   5.170
10251W        W83319  36.658  27.916  11.178
10252W        W83320   8.213  36.884  11.411
10253W        W83321  43.582   0.749  12.981
10254W        W83322  38.640   0.191  10.415
10255W        W83323  11.515  44.821   3.640
10256W        W83324  44.047  23.117  11.972
10257W        W83325  36.032   8.248   1.365
10258W        W83326  24.621  23.052   0.308
10259W        W83327  15.789   4.002   3.159
10260W        W83328  32.120  28.021   1.713
10261W        W83329  29.910  35.634   4.585
10262W        W83330   3.810   4.217   0.712
10263W        W83331  25.637  14.898   4.212
10264W        W83332   6.465  35.904  11.494
10265W        W83333  34.946  37.138   1.268
10266W        W83334  18.255   4.697  14.038
10267W        W83335  42.041   2.795  12.920
10268W        W83336  33.964   2.798   2.873
10269W        W83337  28.672  12.313  10.885
10270W        W83338  21.120   1.870   4.896
10271W        W83339   0.881  42.563   1.852
10272W        W83340  12.966  20.922   2.798
10273W        W83341   5.438   0.970  12.996
10274W        W83342   5.284   1.494   0.307
10275W        W83343  27.655  35.921  13.067
10276W        W83344   5.241  43.224  13.322
10277W        W83345   8.384   2.362   4.723
10278W        W83346   3.804  41.393  14.848
10279W        W83347  33.959  24.648  11.439
10280W        W83348  24.994   9.262  12.376
10281W        W83349  41.312  25.752   1.782
10282W        W83350  16.170  39.181  11.738
10283W        W83351   6.675   3.899  11.298
10284W        W83352  30.025   8.908   1.136
10285W        W83353   6.231   3.461  13.885
10286W        W83354  10.539  31.444   3.262
10287W        W83355   2.303  33.479  12.456
10288W        W83356  34.595  22.410  12.835
10289W        W83357  33.965   2.969  12.344
10290W        W83358   3.975  26.110   1.546
10291W        W83359  34.859  43.288  12.607
10292W        W83360  14.590  21.225   1.176
10293W        W83361  14.358   0.206  12.907
10294W        W83362  43.862  29.113   1.909
10295W        W83363   1.249  30.643   2.850
10296W        W83364  38.960  31.684  12.875
10297W        W83365  20.708  28.922   2.443
10298W        W83366   2.538  40.495  13.428
10299W        W83367  26.466  27.885   1.434
10300W        W83368   8.574   3.962   1.442
10301W        W83369  15.829  19.558   4.376
10302W        W83370  26.580   4.171   1.768
10303W        W83371  39.816  25.107   2.410
10304W        W83372  16.547  10.872   3.673
10305W        W83373  28.064  13.279  12.922
10306W        W83374   8.216  30.416   3.677
10307W        W83375  27.121   7.842   3.680
10308W        W83376   1.820  17.544  12.351
10309W        W83377  32.399  39.846   1.701
10310W        W83378  22.969  25.108   4.890
10311W        W83379  39.621   3.561  13.398
10312W        W83380  25.566  36.494   4.732
10313W        W83381  11.122  28.030  14.466
10314W        W83382  24.201  12.917   1.956
10315W        W83383   5.105  31.640  14.799
10316W        W83384  42.541  15.685   3.919
10317W        W83385  17.653   4.832   3.811
10318W        W83386  42.303   7.507  13.541
10319W        W83387  18.135  16.881  11.069
10320W        W83388  28.176  34.515   0.423
10321W        W83389  10.052  17.147   4.555
10322W        W83390   6.630  26.442   2.232
10323W        W83391  23.658  40.233  14.858
10324W        W83392   0.244  43.877   4.672
10325W        W83393  10.147  14.187   5.223
10326W        W83394  27.218  17.670   0.710
10327W        W83395   2.844  18.968  12.535
10328W        W83396  16.561  19.323  10.774
10329W        W83397  41.539  30.844   0.890
10330W        W83398  31.392  29.144   2.060
10331W        W83399  22.554  29.243   3.950
10332W        W83400  18.285  26.382  14.443
10333W        W83401  37.045  11.631  11.580
10334W        W83402  30.641   0.529  12.739
10335W        W83403  29.049  30.483   0.928
10336W        W83404  27.540  37.110  14.041
10337W        W83405  26.917  28.008   4.550
10338W        W83406  22.994  18.077   0.203
10339W        W83407  13.384  41.978  10.833
10340W        W83408  12.583  14.515  11.082
10341W        W83409   8.293   6.359   3.804
10342W        W83410  17.777  30.603   2.133
10343W        W83411  43.627  35.128   0.389
10344W        W83412  19.993  29.013   4.345
10345W        W83413  25.731   3.584  14.231
10346W        W83414  42.492  34.465   2.880
10347W        W83415  27.612  16.782   1.902
10348W        W83416  29.880   3.417  10.782
10349W        W83417   2.029  35.151   3.381
10350W        W83418  12.696  10.889  11.434
10351W        W83419  44.287  19.243   4.139
10352W        W83420   3.835  31.225   3.528
10353W        W83421  28.110  35.990  13.902
10354W        W83422  37.089  25.231  14.337
10355W        W83423  19.070  28.387  12.973
10356W        W83424  32.746  26.626  12.585
10357W        W83425  17.995  22.450   4.267
10358W        W83426  37.021  43.352   1.206
10359W        W83427   8.048  17.334  14.735
10360W        W83428   0.332  36.888   3.216
10361W        W83429  14.643  18.361   3.262
10362W        W83430   0.439  25.692  10.611
10363W        W83431  39.473  38.881   0.307
10364W        W83432   8.925  42.877   3.089
10365W        W83433   8.814  24.185  10.647
10366W        W83434  32.174  25.692   3.143
10367W        W83435  40.307  23.707   0.788
10368W        W83436  10.265  24.472   4.695
10369W        W83437   7.596  41.192  10.040
10370W        W83438  23.575  26.386  10.733
10371W        W83439  38.480   0.379   1.965
10372W        W83440   6.416  15.847   5.066
10373W        W83441  41.331  25.647  10.549
10374W        W83442  35.582  31.179   2.098
10375W        W83443   0.836  39.967   1.789
10376W        W83444  40.231  18.576  10.690
10377W        W83445   3.239  24.306  11.603
10378W        W83446  14.488  27.896   4.271
10379W        W83447  32.573  28.508   2.396
10380W        W83448  30.227  21.835   1.453
10381W        W83449  38.671  32.649  11.360
10382W        W83450   6.864   3.420  10.577
10383W        W83451  36.692   4.201  13.976
10384W        W83452  43.312   9.426  10.755
10385W        W83453  11.300   1.198   3.663
10386W        W83454  37.977  10.869   2.807
10387W        W83455  18.330  14.192  11.497
10388W        W83456  28.477   7.941   1.323
10389W        W83457  42.095  32.652   3.677
10390W        W83458  35.977  37.254  11.173
10391W        W83459  39.506  18.038   2.321
10392W        W83460  41.302  14.707  11.807
10393W        W83461  23.206  28.734   4.878
10394W        W83462   9.008  37.541  13.384
10395W        W83463  38.075  13.850   1.808
10396W        W83464  40.465  20.171  10.743
10397W        W83465   6.161   6.356  12.187
10398W        W83466   4.556  13.210   1.756
10399W        W83467  15.059  34.440   0.512
10400W        W83468  32.991  37.889   0.688
10401W        W83469  10.501  16.771   4.619
10402W        W83470  37.087   7.120  10.968
10403W        W83471  38.316   5.064   2.860
10404W        W83472  10.431  32.367   2.829
10405W        W83473  25.300  23.495  13.339
10406W        W83474  22.469   7.325   3.666
10407W        W83475   6.792  14.579   2.129
10408W        W83476  28.839   9.257  13.988
10409W        W83477  22.630   2.525   2.782
10410W        W83478   3.952  30.741  12.431
10411W        W83479  36.911  19.802   0.434
10412W        W83480  35.854  40.121  13.979
10413W        W83481  11.254  37.962   1.881
10414W        W83482  16.514   9.383  10.613
10415W        W83483  39.011  20.222  14.349
10416W        W83484   7.930  10.771  14.437
10417W        W83485  30.611  11.132   2.201
10418W        W83486  35.451  36.505   0.979
10419W        W83487  10.173  42.358   4.724
10420W        W83488  32.177   2.893  10.695
10421W        W83489   8.229  23.609   4.148
10422W        W83490  22.250   3.284   3.768
10423W        W83491  30.111  40.181  14.537
10424W        W83492  27.471  33.701   2.206
10425W        W83493  19.151  37.531  11.513
10426W        W83494  35.443   5.792   4.413
10427W        W83495  23.190  22.175   4.537
10428W        W83496  13.257   4.652  10.244
10429W        W83497  44.717  36.606   4.233
10430W        W83498  25.602  30.668   4.060
10431W        W83499   6.238  12.739  11.910
10432W        W83500  26.624  40.597   2.633
10433W        W83501  10.910  30.572  12.859
10434W        W83502   5.296   6.896   2.419
10435W        W83503  26.136  38.791  13.466
10436W        W83504   0.675   3.392   2.596
10437W        W83505   8.321  24.898   2.393
10438W        W83506  23.174  40.373  13.160
10439W        W83507   9.738  35.566   3.756
10440W        W83508  28.229  29.115  12.040
10441W        W83509  38.038  10.155  13.489
10442W        W83510  23.691  34.807  12.118
10443W        W83511  29.220   1.871  13.103
10444W        W83512  13.895  13.692   2.833
10445W        W83513  34.174  29.578  11.112
10446W        W83514   2.845  43.834  10.410
10447W        W83515  25.171   0.757   0.892
10448W        W83516   7.611   9.464  13.093
10449W        W83517  23.577  34.888   1.311
10450W        W83518  38.416  17.689  11.030
10451W        W83519  18.699  38.090  10.963
10452W        W83520  15.009  20.209  11.401
10453W        W83521   4.793  37.859  13.000
10454W        W83522   8.640  39.288   3.741
10455W        W83523  41.980  28.574   2.283
10456W        W83524  24.015  17.181   0.048
10457W        W83525  41.783  17.616   1.744
10458W        W83526  21.697  24.195  14.857
10459W        W83527  29.205  20.038   0.140
10460W        W83528  10.132  16.485   0.788
10461W        W83529  38.321   8.370  11.972
10462W        W83530  28.626  25.187   4.431
10463W        W83531  40.521   7.911  11.959
10464W        W83532   1.767  25.104  10.380
10465W        W83533  35.827  28.720   3.889
10466W        W83534  36.342  21.546   0.941
10467W        W83535  38.912  24.035  14.375
10468W        W83536  35.556   6.832   3.313
10469W        W83537  16.636  10.821   1.166
10470W        W83538  23.741  17.657  10.376
10471W        W83539  20.213  40.427  11.144
10472W        W83540  24.583  39.777  12.711
10473W        W83541   5.895  34.603  12.531
10474W        W83542   4.714  32.161  11.432
10475W        W83543  15.325   2.765   3.607
10476W        W83544   5.107  14.506   3.458
10477W        W83545  14.180   9.546   4.746
10478W        W83546  32.991  15.328   4.534
10479W        W83547  37.903  12.916  12.660
10480W        W83548  41.095   0.201  13.914
10481W        W83549  25.751  24.711   1.254
10482W        W83550   9.432  21.708   2.836
10483W        W83551  19.536  39.010  13.312
10484W        W83552  37.364  13.198  10.488
10485W        W83553  19.325  42.661  12.022
10486W        W83554  22.972  11.082   3.339
10487W        W83555   7.389  39.930   1.403
10488W        W83556  35.532   0.825   4.607
10489W        W83557  27.102   6.223  12.569
10490W        W83558  26.478  44.512   1.783
10491W        W83559   6.360  16.313   2.357
10492W        W83560  34.926  23.153   3.911
10493W        W83561  22.532  29.465   0.769
10494W        W83562  15.752  40.816  10.919
10495W        W83563  37.334   7.255  14.985
10496W        W83564  25.721  31.069  14.328
10497W        W83565  17.862  30.558  12.073
10498W        W83566  21.118  15.605  11.505
10499W        W83567  44.388  25.059  12.315
10500W        W83568  28.577  22.832  10.719
10501W        W83569  30.135  18.822   0.438
10502W        W83570  13.723  31.356   3.103
10503W        W83571  10.342   5.435   3.950
10504W        W83572  13.678  18.098   0.960
10505W        W83573  42.207  29.936  12.940
10506W        W83574  19.968  36.634  13.419
10507W        W83575  37.420  37.459  10.452
10508W        W83576  31.378   9.943  10.649
10509W        W83577  40.397  40.917   2.633
10510W        W83578  22.783  25.115  11.222
10511W        W83579  18.024  42.734   3.557
10512W        W83580  17.556   0.476   3.313
10513W        W83581  17.166  13.188   1.892
10514W        W83582  35.929  22.683  14.062
10515W        W83583   5.884  40.844  13.085
10516W        W83584  14.693  31.529   0.986
10517W        W83585  28.716  18.221   4.870
10518W        W83586   8.751  35.084   2.210
10519W        W83587  13.762   4.287   1.033
10520W        W83588  38.330  44.230  13.239
10521W        W83589   6.511  40.498   0.433
10522W        W83590   4.742  16.170  11.270
10523W        W83591   1.233  20.619  12.911
10524W        W83592  25.497  12.795   2.637
10525W        W83593  19.566  33.641   4.373
10526W        W83594  37.270  38.384  14.859
10527W        W83595   9.239  12.456   2.762
10528W        W83596   3.581  29.369   2.808
10529W        W83597  16.671  40.126  14.455
10530W        W83598  39.866  34.407   0.408
10531W        W83599  22.707  42.763   3.238
10532W        W83600   3.146  22.300   1.919
10533W        W83601  12.678  25.411   2.785
10534W        W83602   6.198  13.708   3.960
10535W        W83603  23.528  34.674   1.974
10536W        W83604   6.302  37.014  14.252
10537W        W83605  34.377  19.596  11.527
10538W        W83606  30.960  32.599  12.456
10539W        W83607  37.775  35.053  11.533
10540W        W83608  16.689  39.872  10.881
10541W        W83609  14.320  40.369  11.661
10542W        W83610  31.654  19.284   1.365
10543W        W83611   6.644  15.644  12.486
10544W        W83612  28.252  37.089   2.223
10545W        W83613   1.339  38.424  14.072
10546W        W83614  33.776   8.350  14.063
10547W        W83615  30.197   2.958   3.216
10548W        W83616  43.712  18.077  11.582
10549W        W83617  10.222  13.791  11.894
10550W        W83618  37.747   0.550  11.052
10551W        W83619  26.740  35.141   4.846
10552W        W83620  32.525  17.372   0.090
10553W        W83621  22.063  11.919  13.929
10554W        W83622  13.220  37.281  10.353
10555W        W83623  35.160  27.659  14.444
10556W        W83624  14.227  34.032   0.330
10557W        W83625  34.210  12.809  12.921
10558W        W83626  41.060  39.052   0.796
10559W        W83627  31.568  29.608   3.808
10560W        W83628  29.025  11.749  12.923
10561W        W83629  30.374  24.722  11.093
10562W        W83630  14.893   3.351  10.589
10563W        W83631  38.047  37.996  14.982
10564W        W83632   6.093   1.905  10.719
10565W        W83633   0.375  26.040   4.079
10566W        W83634  23.970  44.338  13.583
10567W        W83635   3.199  22.941  14.555
10568W        W83636  42.815  39.919  14.414
10569W        W83637  44.551  30.939   3.584
10570W        W83638  24.675  31.436  13.986
10571W        W83639  12.865  28.544   2.769
10572W        W83640  30.565  30.561   0.850
10573W        W83641  14.795  20.476  13.987
10574W        W83642   5.143   1.364   1.186
10575W        W83643  25.678  32.522   0.924
10576W        W83644  34.334   8.157   3.148
10577W        W83645  19.233  15.613   0.220
10578W        W83646  15.017   7.222   0.134
10579W        W83647  35.038   3.992   2.148
10580W        W83648  38.940   4.481  14.073
10581W        W83649  25.149  43.779   1.979
10582W        W83650  36.611  25.622   2.744
10583W        W83651  40.586   3.749   4.197
10584W        W83652   1.849  40.401  12.951
10585W        W83653  14.229  14.148   4.934
10586W        W83654  43.940  12.938  13.065
10587W        W83655  22.942  38.567   1.160
10588W        W83656   4.368   1.302  14.370
10589W        W83657  25.121  15.726   2.408
10590W        W83658  29.685  14.880   0.402
10591W        W83659  27.447  20.294  14.981
10592W        W83660   1.543  10.826  14.868
10593W        W83661  31.422  22.939   0.080
10594W        W83662  32.095  41.321   2.684
10595W        W83663  41.470  10.948   2.702
10596W        W83664   2.985   8.377   3.466
10597W        W83665  25.054  28.117   2.741
10598W        W83666  31.650  37.455   4.750
10599W        W83667  42.733  19.668  13.961
10600W        W83668  38.994  21.268  14.599
10601W        W83669  10.587  40.024   3.364
10602W        W83670   2.450  28.175   4.485
10603W        W83671   2.907  32.749  12.465
10604W        W83672  10.689  31.347   2.383
10605W        W83673   6.662  44.002   2.330
10606W        W83674   4.272  28.103   2.829
10607W        W83675  41.445  19.764   0.396
10608W        W83676  31.540  14.297   0.268
10609W        W83677  39.822  35.101  14.053
10610W        W83678  18.343  31.521  13.329
10611W        W83679  13.301  38.513   2.802
10612W        W83680  44.732  11.649   4.151
10613W        W83681   1.938  25.527   4.369
10614W        W83682  16.713  43.462  12.082
10615W        W83683   8.258  29.796   1.222
10616W        W83684  15.647  36.792   1.716
10617W        W83685  41.508  22.188   0.195
10618W        W83686  11.236   9.404   3.929
10619W        W83687  29.228  29.654   3.265
10620W        W83688   8.902  12.156  11.036
10621W        W83689  14.955  14.122  10.321
10622W        W83690  36.601  11.350   0.478
10623W        W83691  14.726  36.436   3.298
10624W        W83692  21.781  14.626  13.406
10625W        W83693  22.653  41.773   3.121
10626W        W83694  30.419  28.298  11.309
10627W        W83695   6.465  31.088  13.399
10628W        W83696   0.782   4.962   2.293
10629W        W83697  20.085  40.465  12.487
10630W        W83698  30.364  35.045  13.935
10631W        W83699   0.565  16.630  11.629
10632W        W83700   6.650  24.634   0.871
10633W        W83701  10.035  33.531  14.383
10634W        W83702   2.287   0.885   0.668
10635W        W83703   9.148  34.459   2.509
10636W        W83704  42.978  22.087   2.997
10637W        W83705  23.721  41.769   3.323
10638W        W83706  10.746  33.875   0.977
10639W        W83707   4.137  11.493  13.916
10640W        W83708  23.517  17.335  12.703
10641W        W83709   8.600   2.724   2.861
10642W        W83710  32.991  32.575   1.895
10643W        W83711  23.464  29.559   2.443
10644W        W83712  35.413  13.233  11.142
10645W        W83713  37.551  31.603  11.783
10646W        W83714  34.092  25.983  14.365
10647W        W83715  28.624  28.925  11.165
10648W        W83716  31.930   5.713   2.455
10649W        W83717  24.100  10.134  10.371
10650W        W83718  31.366  10.911  13.502
10651W        W83719  22.987  29.415  10.721
10652W        W83720  12.375  14.054  14.917
10653W        W83721  36.541   6.582  12.491
10654W        W83722  44.789  33.004  13.079
10655W        W83723  44.717  23.902   2.135
10656W        W83724  35.945  33.733   9.772
10657W        W83725  22.400  29.992   0.732
10658W        W83726   3.580  34.714  14.837
10659W        W83727  27.099   3.697   4.767
10660W        W83728  44.402  14.897   2.341
10661W        W83729  44.409  22.685   3.815
10662W        W83730   3.330   1.880  10.850
10663W        W83731  21.033  27.002  10.939
10664W        W83732   8.998  11.485   3.166
10665W        W83733   5.346   0.974   0.264
10666W        W83734  22.915   4.474  10.140
10667W        W83735   7.587  12.306   3.215
10668W        W83736   6.000  35.870   3.699
10669W        W83737  25.734  42.984   2.904
10670W        W83738  24.138  37.674   2.518
10671W        W83739  25.666  33.604  12.390
10672W        W83740  18.301  10.469  10.942
10673W        W83741  39.352   3.347   1.493
10674W        W83742  33.392  35.577  13.120
10675W        W83743  17.250  21.160  11.195
10676W        W83744  19.872   3.244   1.813
10677W        W83745  37.293  17.861  11.145
10678W        W83746  37.320  24.234  12.199
10679W        W83747  13.375   4.290   4.129
10680W        W83748  29.846  13.065  11.908
10681W        W83749  28.488   4.549   3.340
10682W        W83750   0.244   7.669  11.089
10683W        W83751  11.689  20.048  12.184
10684W        W83752  24.652  31.011   3.852
10685W        W83753  31.409  44.796   3.079
10686W        W83754   1.984  37.515   3.712
10687W        W83755   1.229  36.488   4.108
10688W        W83756  23.206  27.346   4.085
10689W        W83757   6.240   7.721  14.467
10690W        W83758  11.628  22.449   1.224
10691W        W83759  41.495  34.032   3.808
10692W        W83760   0.763  42.476   4.149
10693W        W83761  39.769  23.830  14.814
10694W        W83762   4.215   2.331   1.488
10695W        W83763  34.377  13.951  12.053
10696W        W83764  19.395  14.366  13.317
10697W        W83765   3.458   9.142  14.378
10698W        W83766   9.559   2.392  10.468
10699W        W83767  23.951  40.121   3.624
10700W        W83768  38.830  39.261   3.706
10701W        W83769   6.717  10.352  11.620
10702W        W83770  34.126  13.836  13.756
10703W        W83771  41.287  20.117   2.611
10704W        W83772  17.225  44.998   4.343
10705W        W83773  27.329   9.209  14.283
10706W        W83774   6.243  38.523  12.859
10707W        W83775  37.106  39.541  14.000
10708W        W83776  18.597  43.679   1.442
10709W        W83777  31.026   4.175   4.627
10710W        W83778  38.023   3.800  13.031
10711W        W83779  43.232  32.500  13.942
10712W        W83780  36.462  33.814  10.475
10713W        W83781  41.358  33.835   1.765
10714W        W83782  14.288  14.861  11.535
10715W        W83783  25.968   3.264  13.779
10716W        W83784  13.094  33.062   0.225
10717W        W83785  19.154  26.871   0.042
10718W        W83786   1.341  11.359   2.356
10719W        W83787  12.237  33.116   0.228
10720W        W83788  17.421  10.866   0.404
10721W        W83789  37.438   1.796   4.625
10722W        W83790   8.282  40.040   0.942
10723W        W83791  22.114  38.633  11.554
10724W        W83792  32.484  25.481   3.537
10725W        W83793  12.134  16.885   2.107
10726W        W83794  31.503   3.269   0.886
10727W        W83795   4.639  12.667  12.895
10728W        W83796   0.764   9.589  12.959
10729W        W83797  26.785  19.703  14.989
10730W        W83798   2.906  38.449   2.687
10731W        W83799  25.555  38.797   3.336
10732W        W83800   5.831  17.286   2.947
10733W        W83801  28.694   4.858  12.971
10734W        W83802   6.282  20.252   1.420
10735W        W83803  30.150  15.648   4.922
10736W        W83804   9.990   0.584  10.149
10737W        W83805   3.966  39.318   0.063
10738W        W83806  19.719   5.255   3.254
10739W        W83807   1.299  42.463   4.153
10740W        W83808  24.069  20.302   3.757
10741W        W83809  26.083   6.824  12.879
10742W        W83810  40.838   7.964   2.232
10743W        W83811  11.772   6.881   2.424
10744W        W83812  39.547  44.647   5.488
10745W        W83813  39.246  23.742  14.099
10746W        W83814  32.406  39.934   2.840
10747W        W83815  34.802   7.939  12.782
10748W        W83816  23.184  28.612   3.303
10749W        W83817  15.339  26.479   1.308
10750W        W83818  43.803  24.424  12.829
10751W        W83819  23.941  26.201  14.416
10752W        W83820   6.954  27.967  11.920
10753W        W83821  31.906  24.459  11.175
10754W        W83822   9.358  27.038  12.531
10755W        W83823  33.413  34.290   4.688
10756W        W83824   9.611  30.553   3.635
10757W        W83825   4.478   7.825  11.179
10758W        W83826  20.088  39.064  12.567
10759W        W83827  35.335  31.254   1.656
10760W        W83828   0.005  17.642  14.004
10761W        W83829   9.088  17.028  10.216
10762W        W83830  44.276  37.050   1.770
10763W        W83831  40.433   2.309  10.749
10764W        W83832  13.101  42.894  12.445
10765W        W83833  11.922   6.871   4.354
10766W        W83834  12.140  17.627  14.591
10767W        W83835  26.494   6.672   2.252
10768W        W83836  23.206  35.847   0.441
10769W        W83837  14.080  44.587   3.680
10770W        W83838   0.739  21.662   1.927
10771W        W83839  21.113  31.170  11.127
10772W        W83840  16.398  41.461  13.838
10773W        W83841  24.973  35.463   2.828
10774W        W83842  14.971   9.526   0.183
10775W        W83843  21.269  27.587  10.059
10776W        W83844   8.314  16.301  12.811
10777W        W83845  44.985   7.948   2.219
10778W        W83846   7.814   0.798  14.873
10779W        W83847  11.254   1.719   3.675
10780W        W83848  33.552  30.996  10.736
10781W        W83849  12.580  36.424   3.084
10782W        W83850  15.584  36.195  10.161
10783W        W83851   2.905  20.147  13.916
10784W        W83852  25.097  15.575  11.098
10785W        W83853  28.998  28.129  12.665
10786W        W83854  35.802  24.752   2.324
10787W        W83855  29.481  24.453   1.885
10788W        W83856  26.991  13.414  12.762
10789W        W83857  12.915   1.765  13.914
10790W        W83858  35.067  21.528  13.928
10791W        W83859  25.586   9.614  13.409
10792W        W83860  35.512  27.438  14.848
10793W        W83861  40.413   5.371   2.465
10794W        W83862  39.324  31.559  11.223
10795W        W83863   7.937  24.006   0.907
10796W        W83864  39.944  38.912   0.059
10797W        W83865  10.635   4.965   4.118
10798W        W83866  33.289  35.005   0.602
10799W        W83867  39.396  26.299  11.460
10800W        W83868  18.150  33.944   3.108
10801W        W83869  29.474  27.885  13.388
10802W        W83870   0.696  28.126  12.068
10803W        W83871  44.290  13.128   0.314
10804W        W83872  41.350  10.230   4.452
10805W        W83873  12.810  35.987   0.829
10806W        W83874  33.567   2.346  14.944
10807W        W83875  28.587   4.896  12.076
10808W        W83876   9.212  43.109   4.557
10809W        W83877  36.646  13.862  13.725
10810W        W83878  27.970  34.443  12.605
10811W        W83879  37.483  34.968   4.632
10812W        W83880  10.715  20.787  14.784
10813W        W83881   3.801   2.228  13.367
10814W        W83882  24.260  44.305   1.832
10815W        W83883  17.586   0.574  10.807
10816W        W83884  41.044   1.666   4.817
10817W        W83885  16.122   1.407   3.362
10818W        W83886  27.989  16.597   0.215
10819W        W83887  30.437   2.992   2.768
10820W        W83888  35.464  23.277  12.058
10821W        W83889   4.739  16.185   0.360
10822W        W83890  22.987  32.140  13.019
10823W        W83891  16.958  32.992   1.437
10824W        W83892  17.206  20.585   4.195
10825W        W83893  11.121  36.427   0.816
10826W        W83894  35.511  14.409  13.489
10827W        W83895   7.774  22.834   5.161
10828W        W83896  41.387  20.163  11.580
10829W        W83897  18.867  13.538  10.641
10830W        W83898  19.622   8.255   4.831
10831W        W83899  14.572  42.770  13.475
10832W        W83900  30.909  22.679   0.936
10833W        W83901   6.749  28.891  14.748
10834W        W83902   3.171  20.139   3.307
10835W        W83903  16.312  27.436   2.655
10836W        W83904  16.690  26.478  13.890
10837W        W83905  26.125  32.040   0.097
10838W        W83906  26.430  29.510  14.333
10839W        W83907  17.964  38.168  10.713
10840W        W83908  25.229  27.093   4.817
10841W        W83909  29.241  44.369  12.859
10842W        W83910  20.551  17.665  13.409
10843W        W83911  13.083  42.679   3.727
10844W        W83912  24.059  38.977  10.020
10845W        W83913  30.115   2.368   2.439
10846W        W83914  31.413  33.042   1.762
10847W        W83915  40.432  44.561   1.282
10848W        W83916  11.237  44.942  14.078
10849W        W83917  21.523  40.347  10.662
10850W        W83918   2.331  27.072   4.538
10851W        W83919  24.055  19.995   0.876
10852W        W83920  18.790  10.356  11.129
10853W        W83921   2.178  38.208  11.958
10854W        W83922   3.378  42.776   4.523
10855W        W83923  13.216  38.404  14.062
10856W        W83924  28.994  40.455   2.761
10857W        W83925  28.329  42.144  11.622
10858W        W83926   2.384  32.561  11.832
10859W        W83927  38.135  26.129   2.657
10860W        W83928  40.285   5.825   1.938
10861W        W83929   3.784  11.142  13.755
10862W        W83930  17.660   4.323   9.842
10863W        W83931  24.104  43.459   3.900
10864W        W83932  20.047  11.691  13.285
10865W        W83933  43.581   3.277   4.629
10866W        W83934  40.047  25.350   1.278
10867W        W83935   9.605   4.890   2.326
10868W        W83936  44.917  11.047   2.322
10869W        W83937   5.839  41.924  12.300
10870W        W83938  33.629  14.155  11.236
10871W        W83939  16.857  14.246  12.953
10872W        W83940   6.290   5.679  10.948
10873W        W83941  10.059  19.490   0.284
10874W        W83942  18.512  33.507   3.773
10875W        W83943  36.067  44.005   2.252
10876W        W83944  11.783  37.861   2.683
10877W        W83945  39.182   6.248   0.364
10878W        W83946  33.872  17.509  13.401
10879W        W83947  23.446  27.048  11.615
10880W        W83948  23.234  13.303   1.536
10881W        W83949  36.577   8.857  11.015
10882W        W83950  26.500  34.488   0.693
10883W        W83951  36.537   2.946  14.363
10884W        W83952  11.648  33.822  10.712
10885W        W83953  30.445  33.183  10.782
10886W        W83954  27.048  40.332   1.372
10887W        W83955  34.616  17.764   1.238
10888W        W83956  13.031  25.956  11.979
10889W        W83957  26.145  32.158  11.027
10890W        W83958  19.029  32.388   4.511
10891W        W83959  27.807  27.115   0.554
10892W        W83960  31.633  16.275  11.933
10893W        W83961  21.993  10.914   1.252
10894W        W83962  34.449   9.861   1.426
10895W        W83963  33.089  17.602   3.689
10896W        W83964  35.077  23.897   0.314
10897W        W83965  20.285  44.230  12.485
10898W        W83966  24.415  22.610  12.436
10899W        W83967  30.547  39.885  12.439
10900W        W83968   6.334  36.535  14.042
10901W        W83969  22.967   1.978   0.510
10902W        W83970   7.247  16.157  12.370
10903W        W83971  32.843  36.797  12.847
10904W        W83972  35.049   6.238   2.795
10905W        W83973  23.042  20.676  14.829
10906W        W83974   0.406  40.271   2.760
10907W        W83975   5.284  22.845   4.516
10908W        W83976  14.261  43.843   1.485
10909W        W83977  32.597  36.063  11.611
10910W        W83978  40.970  17.911   0.042
10911W        W83979  18.100  44.007   1.370
10912W        W83980  10.301  33.368  13.979
10913W        W83981  14.672   0.199  13.329
10914W        W83982   9.458  30.010  13.060
10915W        W83983  12.796  34.827   0.376
10916W        W83984  34.639   1.238   0.160
10917W        W83985  20.079  42.736  13.479
10918W        W83986   8.863  25.501  11.814
10919W        W83987  40.430  28.658  12.431
10920W        W83988  24.915  28.374   4.175
10921W        W83989   4.245  30.454  13.458
10922W        W83990  14.375  34.481  12.001
10923W        W83991   9.476  39.586   5.564
10924W        W83992  14.433  25.410  13.905
10925W        W83993  41.285  26.046  12.101
10926W        W83994  14.753  28.120  14.168
10927W        W83995   9.828  38.744  10.861
10928W        W83996  29.392  43.337  11.987
10929W        W83997  37.831  37.210   2.291
10930W        W83998  26.473  40.828  14.364
10931W        W83999   6.970   5.878   3.640
10932W        W84000  18.851  17.062   3.207
10933W        W84001  15.280   3.376  10.967
10934W        W84002  34.312  33.821  13.502
10935W        W84003  20.314  27.099  12.432
10936W        W84004  26.681  18.382   3.199
10937W        W84005  24.229  35.661  14.756
10938W        W84006  32.687  23.196   0.365
10939W        W84007  17.314  13.712  14.023
10940W        W84008   0.887  39.626  11.183
10941W        W84009  35.111   2.695   4.035
10942W        W84010   0.574   5.937   0.910
10943W        W84011  39.541  10.127  11.100
10944W        W84012   3.860  44.983   4.675
10945W        W84013  15.144  29.211   0.886
10946W        W84014  37.376  22.734   0.342
10947W        W84015  18.790  22.714   3.760
10948W        W84016  19.497  23.069   2.205
10949W        W84017  10.190   7.254   4.779
10950W        W84018   5.969  35.736   0.983
10951W        W84019  33.054  30.686   0.471
10952W        W84020  28.312  10.670   4.969
10953W        W84021  23.586  43.289  13.385
10954W        W84022   3.241  20.156   0.681
10955W        W84023  27.734   7.758   4.901
10956W        W84024  30.101  43.749   0.288
10957W        W84025  17.354  29.980  13.766
10958W        W84026  37.608  16.981  13.060
10959W        W84027   7.749  24.674   4.649
10960W        W84028  32.883  41.718   1.219
10961W        W84029  30.069  14.803  14.915
10962W        W84030   0.570  20.737  14.671
10963W        W84031  13.453  17.808   2.093
10964W        W84032  32.715  33.705  11.372
10965W        W84033  35.463  27.985   1.939
10966W        W84034  20.902   8.723   4.261
10967W        W84035  12.419  18.116  14.291
10968W        W84036  18.798  18.349   2.841
10969W        W84037  34.722   8.336  12.059
10970W        W84038  36.814  39.201  11.668
10971W        W84039   9.258   5.167  10.688
10972W        W84040  22.306   8.717   0.688
10973W        W84041  14.536   4.751  13.079
10974W        W84042  22.033   8.126   1.786
10975W        W84043  34.361  25.081  14.079
10976W        W84044  10.305   8.154  11.192
10977W        W84045  12.119  20.446  11.114
10978W        W84046  31.404   5.824   0.378
10979W        W84047  10.183  13.838  10.891
10980W        W84048   0.209  41.952   4.620
10981W        W84049  44.881   0.848   4.703
10982W        W84050  43.266   5.735  12.793
10983W        W84051  28.741  13.807   3.747
10984W        W84052   7.634  31.271  13.111
10985W        W84053  24.607  14.804  13.190
10986W        W84054  17.528  35.865  13.572
10987W        W84055  39.507  35.950  12.270
10988W        W84056   0.752  32.373   2.733
10989W        W84057  26.625   7.775   3.980
10990W        W84058   5.895  27.109  13.677
10991W        W84059  22.297   7.231  12.989
10992W        W84060  44.951   0.100  11.553
10993W        W84061  43.868  35.418   3.388
10994W        W84062   6.295  43.248  14.156
10995W        W84063  30.513  36.997   2.451
10996W        W84064  12.449   9.711  12.205
10997W        W84065  30.881  40.760  13.078
10998W        W84066  32.216  42.531   2.718
10999W        W84067  18.441  44.902  13.737
11000W        W84068   9.340  12.738   4.628
11001W        W84069  41.030  24.136  10.639
11002W        W84070  27.732   2.269   2.716
11003W        W84071  24.786  13.110  14.370
11004W        W84072  11.458   7.281   3.561
11005W        W84073   2.015   5.756   1.811
11006W        W84074  12.313  11.687   0.889
11007W        W84075   4.212  36.971  11.574
11008W        W84076  14.293   2.984  13.756
11009W        W84077  29.195  13.743   4.681
11010W        W84078   5.576  26.028  14.062
11011W        W84079  13.622   3.896   4.342
11012W        W84080  41.513   5.443   3.779
11013W        W84081  28.228   5.479   0.674
11014W        W84082  43.964  27.884  12.881
11015W        W84083   3.413  33.298  14.792
11016W        W84084  15.374  24.996  10.371
11017W        W84085  44.197  20.991   4.319
11018W        W84086   4.898  11.581   5.182
11019W        W84087  20.294  39.922  14.887
11020W        W84088  37.928  11.086  11.621
11021W        W84089  43.269  26.641  11.974
11022W        W84090   4.721  16.431  13.327
11023W        W84091   4.377   2.907   2.078
11024W        W84092  30.179   7.239   4.544
11025W        W84093  11.831  32.614  12.537
11026W        W84094  11.766   5.815   1.918
11027W        W84095  14.667  39.859  11.526
11028W        W84096  27.918  37.315  11.977
11029W        W84097  43.785  38.835  14.811
11030W        W84098  24.869   9.765  13.140
11031W        W84099   7.703  13.802  10.712
11032W        W84100  21.467   1.923  12.125
11033W        W84101   2.927  38.932   0.936
11034W        W84102   6.815  17.498   0.663
11035W        W84103  42.912  15.047  12.048
11036W        W84104   1.325  39.327   2.951
11037W        W84105  18.199  33.476   3.331
11038W        W84106  28.578  33.907  14.400
11039W        W84107   4.972  38.331  10.454
11040W        W84108  12.222   0.760   1.525
11041W        W84109  29.976   4.946   0.669
11042W        W84110  18.102  36.429  11.264
11043W        W84111  37.430  30.361  10.326
11044W        W84112  32.322  13.367   3.871
11045W        W84113   5.818  33.839   1.026
11046W        W84114   8.594  19.191  14.466
11047W        W84115   3.309  18.020   3.704
11048W        W84116  11.323  20.733   1.296
11049W        W84117   8.438  23.147  11.312
11050W        W84118  27.705  20.102   2.193
11051W        W84119   0.024  13.325  11.571
11052W        W84120  12.115   7.586   0.840
11053W        W84121   8.301  35.646  13.599
11054W        W84122   7.833  29.869   1.503
11055W        W84123   3.868  30.704   3.570
11056W        W84124   8.425   6.986   1.013
11057W        W84125   3.388  29.407   0.960
11058W        W84126  43.740  19.959   0.958
11059W        W84127  37.348  18.540  10.702
11060W        W84128  21.175   5.623  10.072
11061W        W84129  28.362  31.137   4.323
11062W        W84130  25.562  30.393   3.604
11063W        W84131  43.405  40.855   4.200
11064W        W84132  18.774  26.753   2.662
11065W        W84133  36.043  13.411  10.936
11066W        W84134  35.409  37.314   0.414
11067W        W84135  18.719  35.533   1.564
11068W        W84136  31.628   1.683   4.580
11069W        W84137  31.899  29.146   1.917
11070W        W84138  28.730  32.671   4.289
11071W        W84139  16.254   0.832  11.742
11072W        W84140   2.673  29.429  11.206
11073W        W84141   8.816  14.415   0.965
11074W        W84142  29.117  13.588  11.960
11075W        W84143  11.429   9.786   2.569
11076W        W84144   4.291  19.553  12.993
11077W        W84145   3.487  17.061  12.043
11078W        W84146  17.847   2.335   3.787
11079W        W84147  28.573  41.856   0.046
11080W        W84148   6.398  19.736  11.884
11081W        W84149  10.207  28.614   3.113
11082W        W84150  38.052  17.706  10.656
11083W        W84151  40.826  39.303  14.759
11084W        W84152  13.459  29.005   2.304
11085W        W84153  18.175  36.433  12.688
11086W        W84154  12.833  41.428  11.559
11087W        W84155   4.324  16.158   2.127
11088W        W84156  33.789   2.871  10.608
11089W        W84157  22.191   2.395   1.396
11090W        W84158  19.997  23.740   2.812
11091W        W84159  18.500  35.979  12.818
11092W        W84160  36.481  20.064   4.591
11093W        W84161  39.098   8.476  13.848
11094W        W84162  42.488  19.151  14.342
11095W        W84163  19.090  15.351   2.932
11096W        W84164  15.705  18.123  11.585
11097W        W84165  31.302  18.796   3.264
11098W        W84166  25.535  18.850   2.944
11099W        W84167  16.120  29.377  13.331
11100W        W84168   7.612   4.737   0.056
11101W        W84169  11.828  23.768  13.930
11102W        W84170  31.941  44.250   0.848
11103W        W84171  14.686  22.708  12.082
11104W        W84172  30.972  16.030  10.675
11105W        W84173  31.153  14.573   2.345
11106W        W84174  42.455  38.311  11.164
11107W        W84175   4.341  39.298   0.415
11108W        W84176   3.355  30.390   2.755
11109W        W84177   6.453  10.301  14.979
11110W        W84178  27.987  10.437   2.329
11111W        W84179  24.999   3.271  13.796
11112W        W84180  31.919  22.938   1.031
11113W        W84181  11.937  18.162   3.823
11114W        W84182  12.380   9.867  14.117
11115W        W84183   1.944  28.409  14.455
11116W        W84184  33.311  20.583  12.802
11117W        W84185   4.387  39.010   1.914
11118W        W84186  38.762   1.972   0.338
11119W        W84187  10.411  26.175  12.362
11120W        W84188   5.388   1.503  14.318
11121W        W84189   8.898   8.391   0.760
11122W        W84190  14.584  32.440  13.584
11123W        W84191  18.481   9.212  11.978
11124W        W84192  27.879  40.970  11.288
11125W        W84193  22.154   3.212   2.971
11126W        W84194  29.612  38.409  12.137
11127W        W84195   0.738   5.779   1.357
11128W        W84196  35.826   2.608   2.183
11129W        W84197   2.453  15.660  10.725
11130W        W84198  12.862  20.270   1.250
11131W        W84199  10.162  26.105  14.884
11132W        W84200  36.840   5.372  11.935
11133W        W84201  30.588   4.829  13.583
11134W        W84202  28.440  14.365   0.836
11135W        W84203  27.424  37.953   2.955
11136W        W84204  23.750   4.762  13.859
11137W        W84205  34.499  22.142  10.792
11138W        W84206  40.491   1.796  13.571
11139W        W84207  37.375  26.553   0.379
11140W        W84208  44.717  14.065  12.056
11141W        W84209   2.346  42.098   1.669
11142W        W84210   2.774  34.343   3.234
11143W        W84211  23.759  18.662   4.643
11144W        W84212  38.832  23.264  12.064
11145W        W84213  22.866   2.469   0.274
11146W        W84214   4.778  35.841  12.470
11147W        W84215  14.703  31.207   2.902
11148W        W84216   3.745  37.249  10.981
11149W        W84217  31.063  22.985   1.798
11150W        W84218  12.928   9.216  13.350
11151W        W84219  18.050  14.179   1.826
11152W        W84220  39.123  32.465  13.745
11153W        W84221  37.933   6.400   0.790
11154W        W84222  24.417  33.590   0.891
11155W        W84223  19.009   1.964  14.902
11156W        W84224   1.825  12.678  12.940
11157W        W84225   6.708  36.363   3.705
11158W        W84226   0.281  38.248   3.858
11159W        W84227  23.042  11.240  10.664
11160W        W84228   1.957  10.893  13.488
11161W        W84229  11.319  29.215   1.663
11162W        W84230  34.622  35.879  13.030
11163W        W84231  29.607   0.429   1.601
11164W        W84232  12.659  13.262  12.030
11165W        W84233  17.539  24.629  12.399
11166W        W84234  22.119  14.033   3.721
11167W        W84235  27.357  42.321  12.488
11168W        W84236  22.158   6.261  11.484
11169W        W84237  40.878  33.830  11.868
11170W        W84238  22.643  11.320   3.686
11171W        W84239  14.154  26.906  10.836
11172W        W84240  19.501  43.758   1.325
11173W        W84241  23.801  29.421   0.370
11174W        W84242   3.403  26.549  12.275
11175W        W84243  11.817  31.561   0.385
11176W        W84244  30.453  23.638  12.246
11177W        W84245  32.482   0.903   2.832
11178W        W84246  23.673  16.216   1.004
11179W        W84247   2.418   9.562  13.513
11180W        W84248  20.287  39.406   2.162
11181W        W84249  14.556  25.101  12.945
11182W        W84250   0.345   0.398  10.500
11183W        W84251  24.410   1.046   1.761
11184W        W84252   2.504  16.060  12.301
11185W        W84253   3.189  13.959  12.009
11186W        W84254  31.952  32.569  10.560
11187W        W84255  10.227  31.629  13.558
11188W        W84256  22.553  38.412   4.539
11189W        W84257   4.419  34.016   1.394
11190W        W84258  11.625  27.051   4.082
11191W        W84259  33.929  44.389   4.545
11192W        W84260  28.504  19.034   3.387
11193W        W84261  10.825  13.120   1.379
11194W        W84262   9.038  23.021   3.179
11195W        W84263  39.957  13.078   0.762
11196W        W84264   2.497   5.334   2.309
11197W        W84265  16.794  28.369  14.642
11198W        W84266   1.768  25.484  13.376
11199W        W84267   6.513   0.837  13.129
11200W        W84268  29.414  24.087   2.812
11201W        W84269   0.555  34.512   2.969
11202W        W84270  32.474  29.119  12.870
11203W        W84271   9.346  41.943  10.893
11204W        W84272  33.124  20.026  14.843
11205W        W84273   2.262  42.283  13.995
11206W        W84274  11.586  38.866  14.813
11207W        W84275  15.743  38.099   3.762
11208W        W84276  30.489  15.316  14.474
11209W        W84277  23.732  16.802  11.925
11210W        W84278  40.831  28.179   1.831
11211W        W84279  43.267   7.779  14.697
11212W        W84280  14.866   8.446   2.564
11213W        W84281  26.808  44.003   3.591
11214W        W84282  24.840  25.493  11.452
11215W        W84283   5.305  40.855   4.290
11216W        W84284  24.490   9.426  10.525
11217W        W84285   0.215  12.307  10.740
11218W        W84286   2.310  32.593  11.300
11219W        W84287  27.695  13.122  10.662
11220W        W84288  39.135  14.071   2.852
11221W        W84289  18.012  43.232   3.699
11222W        W84290  20.071  44.478  12.066
11223W        W84291  27.143   2.094   1.320
11224W        W84292  14.079  19.070   3.183
11225W        W84293  20.269   7.684   3.630
11226W        W84294  19.863   4.924   0.535
11227W        W84295  12.246   5.306   1.456
11228W        W84296   0.352  10.041  13.750
11229W        W84297  15.810   6.926  12.029
11230W        W84298  33.086  35.492   3.835
11231W        W84299   2.491  33.027  12.623
11232W        W84300  14.593  35.942   0.810
11233W        W84301  38.579  29.397  11.556
11234W        W84302  35.044  15.123   0.010
11235W        W84303  31.369  21.950   0.296
11236W        W84304   5.282   2.151  13.310
11237W        W84305  19.657  19.770   1.010
11238W        W84306  29.670  26.080   4.643
11239W        W84307  30.662  24.971   4.247
11240W        W84308  38.021   0.507  11.499
11241W        W84309  43.052   2.748  14.717
11242W        W84310   3.632  39.535   0.905
11243W        W84311  24.154  29.722   2.986
11244W        W84312   4.503  12.678   1.790
11245W        W84313   8.762   9.951   3.355
11246W        W84314  21.794  17.628   3.374
11247W        W84315   6.154   0.856   3.958
11248W        W84316  25.811  42.849  14.838
11249W        W84317  18.194  25.228   2.924
11250W        W84318  29.576  16.138  11.055
11251W        W84319   9.303  21.182  11.574
11252W        W84320  29.513  32.632  14.908
11253W        W84321  29.900  26.623  12.501
11254W        W84322  34.483  19.306  13.992
11255W        W84323  26.156  38.987   0.519
11256W        W84324   2.810   6.954  10.597
11257W        W84325  36.473   2.133  13.742
11258W        W84326  34.067  31.378   1.810
11259W        W84327  37.384  41.927   0.476
11260W        W84328  39.559  11.295   0.352
11261W        W84329  23.740  39.473   0.436
11262W        W84330  25.677  19.745  13.629
11263W        W84331  42.907  15.990   0.806
11264W        W84332  35.489  27.149   4.941
11265W        W84333   1.919  21.376   5.006
11266W        W84334  41.866  35.983   5.059
11267W        W84335  36.432  11.302   3.403
11268W        W84336  38.621  11.602   4.036
11269W        W84337  12.194  37.863   3.246
11270W        W84338  24.248  23.326  12.477
11271W        W84339  30.567  37.167   1.973
11272W        W84340  38.081   3.882   1.841
11273W        W84341  40.138   9.218   4.540
11274W        W84342  33.415   3.715   3.235
11275W        W84343  23.939  30.762  13.470
11276W        W84344  22.485  10.745  13.425
11277W        W84345  34.726  32.122  10.663
11278W        W84346  41.499  11.916  14.403
11279W        W84347  11.685  29.371  11.148
11280W        W84348  29.053  29.125  11.408
11281W        W84349  18.737  40.907  12.895
11282W        W84350   0.054  24.129  10.664
11283W        W84351   9.686   8.236  11.918
11284W        W84352   3.932  41.856  14.631
11285W        W84353  35.912  25.149   0.687
11286W        W84354  24.992   6.347  12.301
11287W        W84355  12.088   7.420  13.915
11288W        W84356   8.741  21.300  10.671
11289W        W84357  19.462  37.889   2.297
11290W        W84358   4.755  39.871   3.698
11291W        W84359   7.764  22.386   4.861
11292W        W84360  23.438  23.477  11.665
11293W        W84361  15.325  27.480   1.500
11294W        W84362  17.295  36.320   3.814
11295W        W84363   7.948  42.869  13.364
11296W        W84364  12.410  24.237  11.200
11297W        W84365  15.221  18.108  11.193
11298W        W84366  16.527  26.102   0.844
11299W        W84367   0.113  17.711  13.049
11300W        W84368  29.712  42.150  13.204
11301W        W84369  35.425   0.815   0.051
11302W        W84370  25.457  39.660  12.907
11303W        W84371  40.273  17.084  12.366
11304W        W84372  44.559  28.554  13.968
11305W        W84373  16.966  33.519   0.830
11306W        W84374  23.169  29.393   2.826
11307W        W84375   7.794  12.908  13.219
11308W        W84376  21.156  16.242  11.351
11309W        W84377   6.910  35.148  14.860
11310W        W84378  18.901   3.672   1.031
11311W        W84379  17.338  37.471   1.789
11312W        W84380  42.405  42.424  13.415
11313W        W84381  14.129  26.107   3.761
11314W        W84382   3.512  28.528  11.541
11315W        W84383   3.581   1.776   2.424
11316W        W84384  26.822  39.765   4.262
11317W        W84385  20.891  34.925  10.571
11318W        W84386  25.835   8.868  11.273
11319W        W84387  28.584  32.473  12.734
11320W        W84388  37.488   1.263   1.343
11321W        W84389  15.366  36.218   3.820
11322W        W84390  26.521   7.732   0.736
11323W        W84391  38.085  28.411   3.388
11324W        W84392  16.549  37.302   1.365
11325W        W84393   2.802  10.466   2.299
11326W        W84394  14.113  13.906   1.422
11327W        W84395  40.480  26.669  13.384
11328W        W84396  20.735  33.579  14.905
11329W        W84397  13.193  12.172   1.808
11330W        W84398   4.318  41.024  13.136
11331W        W84399  23.190  28.426  12.478
11332W        W84400  21.059   7.860   4.310
11333W        W84401  36.830  23.526   2.406
11334W        W84402  35.922  36.573   0.255
11335W        W84403  35.062   4.363   2.546
11336W        W84404  39.357  28.457  13.911
11337W        W84405  23.601  33.302   4.316
11338W        W84406  19.457  40.777   2.872
11339W        W84407   2.938  43.270  14.463
11340W        W84408  19.011  23.282   0.611
11341W        W84409  25.044  33.073  11.090
11342W        W84410  13.747  35.786  13.410
11343W        W84411  35.582  15.610  10.639
11344W        W84412  23.595  22.814  13.003
11345W        W84413   2.858  16.657   4.557
11346W        W84414  40.754  37.784  12.515
11347W        W84415  34.587  22.910  12.994
11348W        W84416  32.561  21.914  13.906
11349W        W84417   2.218  32.003  11.032
11350W        W84418  14.386  30.844  14.413
11351W        W84419  22.640   0.874  12.375
11352W        W84420  12.312  42.424  13.177
11353W        W84421  18.156   6.180   4.677
11354W        W84422   8.888  29.253  11.900
11355W        W84423  16.644   1.505   0.938
11356W        W84424  40.626  35.468  13.412
11357W        W84425  36.331  24.539  13.585
11358W        W84426  26.031  25.663   3.249
11359W        W84427  42.640  29.206  11.944
11360W        W84428   6.016  30.486   3.198
11361W        W84429  32.051  20.888  13.601
11362W        W84430  14.949  10.712  13.901
11363W        W84431  42.692  35.062  12.475
11364W        W84432  40.245  20.734  13.453
11365W        W84433  13.702  22.589  10.570
11366W        W84434  44.229  36.997  14.997
11367W        W84435  43.908  30.909   0.572
11368W        W84436  38.866   9.607   2.432
11369W        W84437   1.153  19.792  14.997
11370W        W84438   5.069  41.017  13.645
11371W        W84439  37.100  30.040  13.927
11372W        W84440   5.730   4.350   4.745
11373W        W84441   3.686  32.072   3.162
11374W        W84442  40.833  38.591   0.855
11375W        W84443  42.295  37.358  11.562
11376W        W84444  24.337  31.959  11.558
11377W        W84445  17.683  26.651   3.279
11378W        W84446  31.573   7.754  13.599
11379W        W84447  25.900  11.639  11.431
11380W        W84448  28.956   6.333  12.929
11381W        W84449  40.466  35.794   3.357
11382W        W84450  44.014  17.875   2.606
11383W        W84451  22.554   0.904  14.827
11384W        W84452  15.748  27.413  11.947
11385W        W84453   6.435  14.272  13.933
11386W        W84454   8.426  28.852   2.477
11387W        W84455   5.317  42.733  12.642
11388W        W84456  18.578   8.287   2.838
11389W        W84457  23.700  36.115  13.001
11390W        W84458  42.324  16.094  12.185
11391W        W84459  22.472  24.570  12.888
11392W        W84460   4.763  44.569  12.142
11393W        W84461  21.740  28.577  11.601
11394W        W84462  38.987  16.484  11.183
11395W        W84463   5.405  13.747  10.746
11396W        W84464   9.876  12.719   0.296
11397W        W84465  16.030  26.667  12.611
11398W        W84466  32.248  42.662   3.228
11399W        W84467  22.289   7.466  11.235
11400W        W84468  43.791  26.712   1.665
11401W        W84469  14.257  21.633   4.171
11402W        W84470  30.675   6.170   2.883
11403W        W84471  43.360   5.062   0.486
11404W        W84472  43.844  22.341  14.341
11405W        W84473  28.708  34.420  12.949
11406W        W84474  40.691  16.056  12.645
11407W        W84475  42.338  16.592  10.963
11408W        W84476   7.099  37.181  10.721
11409W        W84477  36.246  14.877   0.252
11410W        W84478  13.377   7.331   1.161
11411W        W84479  22.308  25.534   3.902
11412W        W84480  29.679  10.147  12.752
11413W        W84481  31.069  42.041   3.713
11414W        W84482  43.490  18.191   1.905
11415W        W84483  13.787  23.691   0.495
11416W        W84484  30.922   3.315   0.247
11417W        W84485  27.158  36.978   4.576
11418W        W84486  15.067  14.643  14.589
11419W        W84487  40.214   0.862   2.075
11420W        W84488  16.185  19.567  12.529
11421W        W84489   9.462  40.162  12.512
11422W        W84490  22.100   7.648   4.318
11423W        W84491   6.848  24.176   4.422
11424W        W84492  18.461   6.320   2.178
11425W        W84493  30.478  14.004  11.153
11426W        W84494  16.876  41.979  14.967
11427W        W84495  23.130  25.596  13.501
11428W        W84496  29.696   9.491   2.270
11429W        W84497  43.787   9.715  10.727
11430W        W84498   6.473   1.437   4.950
11431W        W84499  11.818  15.772   4.883
11432W        W84500  33.305   3.379  13.391
11433W        W84501  26.646  30.154   2.146
11434W        W84502   4.837   4.316  14.451
11435W        W84503   7.366  28.450  13.608
11436W        W84504   3.896  43.007  12.525
11437W        W84505  39.541  21.092   4.624
11438W        W84506  20.670  34.567   1.850
11439W        W84507   9.359  27.102   4.561
11440W        W84508  44.746  17.130   3.684
11441W        W84509  13.181  42.417   1.386
11442W        W84510  41.865  23.945   0.522
11443W        W84511  33.110   7.207   0.022
11444W        W84512  14.193  14.791   4.743
11445W        W84513  44.943   7.798   3.574
11446W        W84514   1.974  33.119  14.572
11447W        W84515   0.943  36.792   2.864
11448W        W84516   2.544  28.354  10.401
11449W        W84517  42.757   9.421   1.802
11450W        W84518  13.050  41.535   4.713
11451W        W84519   7.276  19.213   1.047
11452W        W84520  23.304  42.504  12.101
11453W        W84521  19.722  16.208  13.026
11454W        W84522  23.657   6.842  13.482
11455W        W84523  42.487  43.417   1.243
11456W        W84524  25.524  36.109   0.333
11457W        W84525  30.459  10.082   3.826
11458W        W84526  30.591  11.040  14.424
11459W        W84527  23.238  44.049   1.311
11460W        W84528   1.049  37.896  14.384
11461W        W84529  43.018  41.534   0.545
11462W        W84530  23.214  26.041   4.422
11463W        W84531   2.909  20.516   4.358
11464W        W84532  14.050  37.842   0.860
11465W        W84533  32.092  21.007  14.518
11466W        W84534  16.054  35.672   4.814
11467W        W84535  32.046  27.540  11.031
11468W        W84536  26.413   3.841  13.523
11469W        W84537  15.345  14.199  13.862
11470W        W84538  17.295  26.684   5.039
11471W        W84539  38.228  10.102  11.464
11472W        W84540  38.326  17.066   4.692
11473W        W84541  17.170  25.238  13.818
11474W        W84542  33.822  18.484   4.053
11475W        W84543  10.736  33.613  14.061
11476W        W84544  32.320  36.291  14.922
11477W        W84545  29.587  36.929   1.564
11478W        W84546  33.264  21.545  12.176
11479W        W84547   3.118  26.583   9.935
11480W        W84548  20.223  37.989   0.502
11481W        W84549  22.059  16.790   0.918
11482W        W84550  17.530  17.596   4.953
11483W        W84551  16.225  30.407   1.251
11484W        W84552  39.523  13.265  13.663
11485W        W84553  23.770   3.155  10.314
11486W        W84554  38.474   4.960  14.291
11487W        W84555  35.307   8.870   2.705
11488W        W84556  33.593  18.596  12.447
11489W        W84557  20.698  17.604  14.830
11490W        W84558  43.053  18.457  13.318
11491W        W84559  19.990  13.580   1.473
11492W        W84560  35.630  11.317   0.829
11493W        W84561  30.019  15.561   2.627
11494W        W84562  40.769  21.538  12.909
11495W        W84563  32.218  19.747   1.060
11496W        W84564  15.214  43.839   0.593
11497W        W84565  14.100  22.615   4.623
11498W        W84566  18.267  11.909  13.035
11499W        W84567  24.591  35.880  10.497
11500W        W84568  32.149  24.802   1.130
11501W        W84569  39.898  44.839  10.673
11502W        W84570  26.644   1.895   4.540
11503W        W84571  34.956  20.561   2.736
11504W        W84572  20.109  41.985  10.495
11505W        W84573  25.937   1.417  11.962
11506W        W84574  40.227  43.577   1.559
11507W        W84575  39.829  31.626  11.145
11508W        W84576  16.320  31.219   0.819
11509W        W84577  15.305  23.592   0.288
11510W        W84578  38.337  10.285   2.155
11511W        W84579  11.274   7.134  12.548
11512W        W84580  13.912   3.841   0.295
11513W        W84581  40.639   4.367   1.717
11514W        W84582  39.125  15.771   0.786
11515W        W84583   4.624  32.623  12.155
11516W        W84584   5.742   5.889  13.096
11517W        W84585  37.821  14.762   1.416
11518W        W84586  16.542  20.172  11.996
11519W        W84587  16.337  31.605  12.081
11520W        W84588  13.256  23.742   2.788
11521W        W84589  20.184  10.880   0.807
11522W        W84590  37.471  31.941   1.266
11523W        W84591  40.515  35.669   2.829
11524W        W84592  38.182  37.115   1.747
11525W        W84593   4.262  20.272   0.351
11526W        W84594   2.551   5.877   0.936
11527W        W84595  38.755   6.360  12.774
11528W        W84596  39.329  30.396  12.859
11529W        W84597  25.349  18.082   0.548
11530W        W84598  17.393  11.285  13.000
11531W        W84599  40.568   1.738   2.637
11532W        W84600  35.871  37.270  14.545
11533W        W84601   1.324  16.890  11.189
11534W        W84602  17.322  10.171   2.361
11535W        W84603   7.883  26.950   1.863
11536W        W84604  19.749   4.517  12.131
11537W        W84605  23.228  32.882   3.853
11538W        W84606   3.909  31.543   4.266
11539W        W84607  36.294  31.896  14.203
11540W        W84608   7.929  43.519   0.671
11541W        W84609  17.714   9.752   4.592
11542W        W84610  10.132  27.550   4.138
11543W        W84611   1.294  22.693   2.178
11544W        W84612  26.506  33.305  14.819
11545W        W84613  36.132  37.875  13.438
11546W        W84614  24.052   8.194  10.935
11547W        W84615  42.320  40.870  11.921
11548W        W84616  31.629  24.664   4.542
11549W        W84617  30.394  22.577   0.920
11550W        W84618  16.636  24.704   1.881
11551W        W84619  28.487  36.520  11.910
11552W        W84620  25.060   2.472   0.985
11553W        W84621  15.778   4.836  13.298
11554W        W84622   3.431  33.432  11.436
11555W        W84623  31.080  38.626  13.952
11556W        W84624  33.126  11.875  14.267
11557W        W84625  17.181  31.257   3.181
11558W        W84626  14.700  27.279  11.472
11559W        W84627  39.262  25.669   1.716
11560W        W84628   7.924  23.690  11.062
11561W        W84629  15.176   7.353   3.229
11562W        W84630  26.402  20.317   4.194
11563W        W84631  33.440  18.046   2.189
11564W        W84632  43.300   5.909   3.610
11565W        W84633  25.142  19.002   4.442
11566W        W84634  16.199  38.543   0.250
11567W        W84635   2.572  18.060  11.298
11568W        W84636  25.716   1.200  14.401
11569W        W84637  33.500  24.710   4.328
11570W        W84638  42.783  41.386   2.741
11571W        W84639  12.041  22.148  14.381
11572W        W84640   6.891  26.309   1.782
11573W        W84641  11.573  21.571   1.542
11574W        W84642  21.203  11.330  13.231
11575W        W84643  19.368  42.924   4.639
11576W        W84644  43.819  36.814  13.188
11577W        W84645  35.392  24.098   3.646
11578W        W84646  41.882  35.558  12.883
11579W        W84647  29.105  38.455  11.927
11580W        W84648   1.438   4.171   2.305
11581W        W84649  33.511  25.203   2.160
11582W        W84650   3.892  29.265  11.049
11583W        W84651  17.534  12.841   2.046
11584W        W84652  38.605  39.558  14.525
11585W        W84653  27.288  19.693  11.234
11586W        W84654   0.506  16.867  13.139
11587W        W84655   6.013  37.835   0.836
11588W        W84656  21.075  37.480  12.490
11589W        W84657  31.361  27.545  13.083
11590W        W84658  19.924   3.644   3.679
11591W        W84659  10.805   6.474  12.962
11592W        W84660  22.118  34.649  11.079
11593W        W84661  31.357  28.031  11.002
11594W        W84662  21.214  10.229   1.923
11595W        W84663  27.833  13.839   0.784
11596W        W84664   7.531  43.745  12.923
11597W        W84665   3.789  14.334   4.563
11598W        W84666  20.021  14.283   2.256
11599W        W84667   1.668  20.946   2.126
11600W        W84668   6.261  30.620   4.071
11601W        W84669  32.520  19.657   5.215
11602W        W84670  23.723  23.286  12.037
11603W        W84671  13.795  44.145  11.151
11604W        W84672  19.859  42.581  12.100
11605W        W84673  15.779  24.253  11.917
11606W        W84674  27.393  36.925   3.327
11607W        W84675  32.399  41.025   1.813
11608W        W84676   9.273  25.141  14.833
11609W        W84677  18.197  35.448   1.190
11610W        W84678  27.279  40.546  12.938
11611W        W84679  41.330   4.203  14.853
11612W        W84680  35.575   1.274  12.548
11613W        W84681  30.372  42.183  13.015
11614W        W84682   1.766  15.251   3.906
11615W        W84683   0.889   8.214   3.463
11616W        W84684  35.310  26.545   2.823
11617W        W84685  27.606  28.320   2.430
11618W        W84686  41.900  14.757   1.775
11619W        W84687  41.926  39.670  13.423
11620W        W84688  11.540  10.806   2.413
11621W        W84689  15.851  35.534   0.317
11622W        W84690  27.150   7.326  14.706
11623W        W84691  34.399  35.582   4.096
11624W        W84692   0.220  29.868   2.347
11625W        W84693   9.974   3.193  12.435
11626W        W84694  16.958   6.520  11.553
11627W        W84695   9.136  42.617   4.633
11628W        W84696  32.088  15.779   0.848
11629W        W84697   7.850  21.521   0.463
11630W        W84698  11.160   6.895  12.110
11631W        W84699   3.943  17.297   0.491
11632W        W84700  28.191  32.463  11.443
11633W        W84701  19.820  11.083  12.580
11634W        W84702  18.617  42.511  13.412
11635W        W84703   7.557  20.627  11.561
11636W        W84704  38.020  31.983   3.687
11637W        W84705  34.008   8.299  10.783
11638W        W84706  17.279  18.083  14.992
11639W        W84707  25.365  10.214  14.047
11640W        W84708  23.969  33.349   0.953
11641W        W84709  32.695   9.834  11.134
11642W        W84710  42.542   4.154   3.321
11643W        W84711  19.751  32.918   0.878
11644W        W84712  17.035   3.488  14.121
11645W        W84713  19.361  16.159   4.581
11646W        W84714  35.486  18.269  12.889
11647W        W84715  18.746  28.443  13.586
11648W        W84716  36.385  35.342   4.374
11649W        W84717  27.347  38.865  14.981
11650W        W84718   0.349  28.059   0.710
11651W        W84719  23.388  19.001   4.545
11652W        W84720  11.178   5.752  12.969
11653W        W84721  34.253  17.661  13.753
11654W        W84722  31.614   5.734  13.442
11655W        W84723  22.239  18.099  12.518
11656W        W84724  23.679  43.689   4.117
11657W        W84725  22.011  15.177  11.213
11658W        W84726  35.928  18.402  11.184
11659W        W84727   6.790   0.773   1.037
11660W        W84728   5.845   9.328   0.483
11661W        W84729   7.299  40.768   3.360
11662W        W84730  16.096   8.121   4.094
11663W        W84731  13.844  24.669  12.560
11664W        W84732  26.400   8.378   2.743
11665W        W84733  27.994  16.527  11.475
11666W        W84734   7.617  43.274  14.505
11667W        W84735  44.004  16.604  11.485
11668W        W84736  20.031  44.328   4.968
11669W        W84737   6.265  31.663   3.117
11670W        W84738  19.476  13.246  12.817
11671W        W84739   0.902  23.418   0.549
11672W        W84740  34.913  39.995   1.239
11673W        W84741  32.444  33.711  14.920
11674W        W84742  35.131  20.756  13.424
11675W        W84743  41.598   6.365  13.352
11676W        W84744  44.880  14.664  11.214
11677W        W84745  24.486  13.141   4.284
11678W        W84746  24.138  16.455   3.210
11679W        W84747   5.481  43.874   4.024
11680W        W84748  25.971  24.682   3.080
11681W        W84749  39.531  13.693  11.959
11682W        W84750  33.416  28.137   1.297
11683W        W84751  41.345  13.086   0.017
11684W        W84752  24.604  26.494   1.622
11685W        W84753  39.564  25.004   0.734
11686W        W84754   9.644  44.313  10.600
11687W        W84755   2.382  37.923   0.434
11688W        W84756  36.008  21.895   1.179
11689W        W84757  21.054  34.318   0.965
11690W        W84758  18.034  39.795   1.448
11691W        W84759  30.911  35.291  11.889
11692W        W84760   5.017  41.855   4.307
11693W        W84761  31.286  10.514   0.389
11694W        W84762  34.899   5.719   3.645
11695W        W84763  35.022  13.013   2.622
11696W        W84764  40.819   2.917   1.932
11697W        W84765  38.955  29.467   2.204
11698W        W84766  26.321  10.361  13.859
11699W        W84767  28.165  11.861   1.351
11700W        W84768   5.051  33.720   3.793
11701W        W84769  24.188  15.121   1.654
11702W        W84770   3.394  44.389  13.361
11703W        W84771  25.150  31.938   1.061
11704W        W84772  14.979  16.691   4.055
11705W        W84773  27.006  29.661  13.515
11706W        W84774  14.342  12.584  11.658
11707W        W84775  35.478   4.187   4.136
11708W        W84776  36.860  14.676   4.151
11709W        W84777   1.356  15.543   4.572
11710W        W84778  13.753  29.257  11.259
11711W        W84779  41.017  41.547  14.353
11712W        W84780  32.362  23.581   1.328
11713W        W84781  10.719  29.525  12.981
11714W        W84782  38.899  35.004  10.180
11715W        W84783  30.417  16.569   3.924
11716W        W84784  20.311   1.204   1.506
11717W        W84785  19.634  44.322   2.049
11718W        W84786  14.828  37.931   4.272
11719W        W84787  35.462   4.078  14.374
11720W        W84788  36.094   8.625  11.064
11721W        W84789  30.826  23.595  12.599
11722W        W84790  43.940  14.609  13.989
11723W        W84791  32.462  20.284  12.839
11724W        W84792  19.180  23.554  12.008
11725W        W84793  36.046   2.946  14.098
11726W        W84794  16.717  35.940   1.717
11727W        W84795  21.976   2.322   4.638
11728W        W84796  20.715  13.850   4.166
11729W        W84797   8.632   1.519  11.529
11730W        W84798   1.669   2.213  14.881
11731W        W84799  27.266  10.036   3.218
11732W        W84800  41.472   9.014   0.331
11733W        W84801   7.258  11.277  13.313
11734W        W84802  34.425  40.785   2.647
11735W        W84803  21.428  42.915   5.218
11736W        W84804  26.459  40.831  13.013
11737W        W84805  24.664  24.065   4.521
11738W        W84806  39.912   3.187  12.476
11739W        W84807  32.103   7.781  13.553
11740W        W84808  10.160   1.203  10.686
11741W        W84809   1.684  15.732   2.700
11742W        W84810  17.047  37.490   1.324
11743W        W84811  13.810   0.759   2.445
11744W        W84812   0.213  44.935   2.853
11745W        W84813  30.699  11.782  13.283
11746W        W84814  44.086  12.187   1.022
11747W        W84815   0.505  17.739   1.121
11748W        W84816   5.434  20.768   4.511
11749W        W84817   3.590  29.228   1.431
11750W        W84818   7.252  12.788  12.096
11751W        W84819  21.718  31.102   2.145
11752W        W84820   9.267  41.467  14.748
11753W        W84821  31.475   8.241  13.322
11754W        W84822   4.239  21.656   1.131
11755W        W84823  29.507  28.026   1.901
11756W        W84824  10.736   9.669  12.910
11757W        W84825  28.516   9.087   0.024
11758W        W84826  44.464  25.470  14.548
11759W        W84827   7.797  28.499  12.177
11760W        W84828   2.482  14.453   2.240
11761W        W84829  29.497   8.215   3.101
11762W        W84830  33.047  22.564  10.594
11763W        W84831  41.857  25.102  13.588
11764W        W84832  13.691   4.273   0.515
11765W        W84833  14.689  44.664  14.517
11766W        W84834  28.957  25.497   3.235
11767W        W84835  44.062   6.151  13.508
11768W        W84836  20.100  15.276   3.094
11769W        W84837  24.024  15.472  12.472
11770W        W84838   0.972  11.701   1.616
11771W        W84839  28.716  14.320   3.229
11772W        W84840  25.940  34.586  11.488
11773W        W84841  28.878  13.882   1.898
11774W        W84842  36.536  12.332  14.010
11775W        W84843  29.384  16.213   3.898
11776W        W84844  11.753  40.070   4.435
11777W        W84845  13.755  24.199  14.277
11778W        W84846  29.596  37.532  10.713
11779W        W84847  44.858  31.206  10.612
11780W        W84848  33.100  15.192  14.897
11781W        W84849  29.622  38.036   0.196
11782W        W84850   5.696   2.004   4.393
11783W        W84851   1.516   1.548  11.597
11784W        W84852  10.405  21.174   4.111
11785W        W84853  34.410  39.932   1.135
11786W        W84854  18.771  22.514  14.953
11787W        W84855   9.814   8.969  13.245
11788W        W84856  13.656  22.425   2.858
11789W        W84857  16.799   9.883   0.106
11790W        W84858  16.215  25.339   0.372
11791W        W84859  11.158  19.267   1.876
11792W        W84860  21.541  40.104   0.811
11793W        W84861  35.347  35.063   3.722
11794W        W84862  10.267  42.331   3.663
11795W        W84863  31.130  41.377   2.711
11796W        W84864  14.327  35.463   3.986
11797W        W84865   6.208  31.646  13.078
11798W        W84866   0.134  34.587   3.337
11799W        W84867  22.080   5.239   1.319
11800W        W84868   4.395  17.194  14.415
11801W        W84869  29.067  38.247  14.428
11802W        W84870  30.138  42.834  13.345
11803W        W84871  26.042  21.185  11.858
11804W        W84872  37.868  42.567  14.985
11805W        W84873   6.632  39.016  14.951
11806W        W84874   6.239  43.348   1.829
11807W        W84875  40.205  41.348  11.235
11808W        W84876  24.891  38.468   1.403
11809W        W84877   6.996  11.821  13.534
11810W        W84878  44.199   9.370   4.587
11811W        W84879  11.138  41.238   1.062
11812W        W84880  34.316  11.873   1.874
11813W        W84881  12.026   7.893  13.269
11814W        W84882   1.934  19.024  11.734
11815W        W84883  10.374  32.943   2.852
11816W        W84884  36.411   0.860   2.782
11817W        W84885  40.276  31.081   2.783
11818W        W84886   8.093  14.309  13.283
11819W        W84887  28.414  15.762   0.866
11820W        W84888   9.779  32.835   3.212
11821W        W84889   7.482  30.243   1.596
11822W        W84890  11.668  26.182  11.834
11823W        W84891  27.548  23.132  13.545
11824W        W84892  44.293  43.390   3.318
11825W        W84893   3.342   6.709  10.696
11826W        W84894  10.359   5.890   4.903
11827W        W84895  31.752   1.413  12.132
11828W        W84896   5.443  17.000   3.216
11829W        W84897  18.782  16.759   1.747
11830W        W84898  20.082  42.147  11.921
11831W        W84899  15.508  36.057  12.046
11832W        W84900  25.637  20.296   0.454
11833W        W84901  27.398  24.962  10.842
11834W        W84902  24.064  31.188  12.132
11835W        W84903  26.030  20.229  12.694
11836W        W84904  28.481  10.204  11.712
11837W        W84905  15.571  38.146   4.749
11838W        W84906  10.628   4.755  10.455
11839W        W84907   7.791  22.687   9.940
11840W        W84908  23.456  28.513  10.769
11841W        W84909   9.576  31.586  11.623
11842W        W84910  42.495  12.634   4.204
11843W        W84911   2.249  17.565   0.713
11844W        W84912  10.789  44.503   0.562
11845W        W84913  32.981  24.837  11.662
11846W        W84914  15.259   3.294   0.880
11847W        W84915  11.885  30.533  12.059
11848W        W84916   2.766  12.635   4.888
11849W        W84917   0.181  42.827  13.777
11850W        W84918  12.834  35.625   3.810
11851W        W84919  23.619  32.809   3.213
11852W        W84920  32.448   3.876  10.295
11853W        W84921  39.801  25.575   4.977
11854W        W84922  30.573  20.832   2.818
11855W        W84923  27.995  10.359  10.059
11856W        W84924  36.325  38.338  11.887
11857W        W84925  21.134  26.939   4.187
11858W        W84926  21.003  41.010  14.266
11859W        W84927  10.596   2.816   0.992
11860W        W84928  27.203  31.018  14.807
11861W        W84929   3.013   4.845   4.214
11862W        W84930  13.112  28.200   4.665
11863W        W84931  30.009   5.718   4.401
11864W        W84932  43.353  21.586  11.150
11865W        W84933  25.722  16.323  11.540
11866W        W84934  44.886  42.840   2.860
11867W        W84935  18.722  13.208   4.696
11868W        W84936  40.939  33.458  13.177
11869W        W84937  40.502  26.667  10.653
11870W        W84938  19.150  11.652   2.904
11871W        W84939  29.076  40.507  12.508
11872W        W84940  30.936   2.345  14.384
11873W        W84941  23.112  25.467  12.535
11874W        W84942  32.462  35.382   0.281
11875W        W84943  14.945  29.920  14.886
11876W        W84944   2.050  44.244   1.854
11877W        W84945  24.545  17.040  10.813
11878W        W84946  41.679  30.859  14.271
11879W        W84947  40.050  26.024  13.069
11880W        W84948  18.732  10.373  13.932
11881W        W84949   2.557  44.275   1.808
11882W        W84950  38.105  39.947   2.188
11883W        W84951  21.641   7.812  10.648
11884W        W84952  18.780  39.381   2.343
11885W        W84953  15.039   3.909  13.815
11886W        W84954   4.729  37.486   4.631
11887W        W84955  32.456  38.374   0.954
11888W        W84956   5.793  44.402   3.755
11889W        W84957  33.955  20.294  13.356
11890W        W84958  20.991  14.275  11.747
11891W        W84959  12.584  29.347   5.134
11892W        W84960  12.782   7.873   2.654
11893W        W84961  26.131   8.284   4.693
11894W        W84962  38.318   7.956   5.041
11895W        W84963  14.428  12.538  14.935
11896W        W84964   3.307  44.325   2.563
11897W        W84965  10.078  18.134  11.790
11898W        W84966  11.386  10.683   2.928
11899W        W84967  27.927  38.970  11.565
11900W        W84968  21.152  15.312  13.189
11901W        W84969   0.931  38.543   1.050
11902W        W84970  16.781  36.603  10.749
11903W        W84971  37.866  41.262  11.899
11904W        W84972  17.259  35.450  14.291
11905W        W84973  41.276  17.253   2.877
11906W        W84974   6.941   9.993  12.911
11907W        W84975  18.146  36.043   3.837
11908W        W84976  43.050  16.200   0.312
11909W        W84977  39.525  43.242   0.845
11910W        W84978  10.190   2.875  13.613
11911W        W84979  38.597  33.770   4.786
11912W        W84980  28.367  31.599  13.976
11913W        W84981  10.787  44.338  13.296
11914W        W84982  30.953   6.298  14.391
11915W        W84983  18.813   0.828  10.252
11916W        W84984  10.821  19.612  14.438
11917W        W84985  20.715   8.757  14.960
11918W        W84986   9.654  17.264   3.374
11919W        W84987   7.099  15.161   1.359
11920W        W84988  29.607  16.695  14.389
11921W        W84989  12.677  23.576  13.388
11922W        W84990  18.860  34.418   4.707
11923W        W84991  25.941  18.061   4.727
11924W        W84992  23.915  35.827  13.501
11925W        W84993   3.172  11.354   4.214
11926W        W84994  15.177  18.748   3.052
11927W        W84995  38.982  18.589  13.905
11928W        W84996  23.476  15.834   2.297
11929W        W84997   6.652   5.889  13.547
11930W        W84998  21.148  20.662   4.381
11931W        W84999  28.158  25.688   2.846
11932W        W85000  16.532  33.843   3.554
11933W        W85001  10.692  29.021  11.022
11934W        W85002  20.536  36.441   2.225
11935W        W85003  35.880  37.436  12.598
11936W        W85004  36.324  32.607  12.392
11937W        W85005   0.907  16.531  13.109
11938W        W85006  44.257  31.145   3.213
11939W        W85007   9.399   6.210   1.796
11940W        W85008  11.266  44.258   3.226
11941W        W85009   0.057  13.170   0.298
11942W        W85010   2.467   9.909   2.900
11943W        W85011   6.534  11.884   4.790
11944W        W85012  41.537  42.455   3.738
11945W        W85013   2.715  10.708   4.394
11946W        W85014   4.787  20.270   0.903
11947W        W85015  43.291   9.936  10.659
11948W        W85016  18.692   7.470   1.552
11949W        W85017  29.129  21.656  13.881
11950W        W85018  15.174  40.837  12.893
11951W        W85019   5.150  20.019   1.996
11952W        W85020  10.401   0.208  14.541
11953W        W85021  12.168   8.424  11.530
11954W        W85022  38.850  15.032   4.113
11955W        W85023  29.473  44.775  10.364
11956W        W85024   1.778  11.768  11.690
11957W        W85025  18.078  24.688   0.379
11958W        W85026   7.089  15.641   4.301
11959W        W85027   6.345  40.531   0.933
11960W        W85028  41.046  18.160   3.140
11961W        W85029  34.954  25.172   5.167
11962W        W85030  30.876  16.078   3.914
11963W        W85031   7.541  33.028  10.688
11964W        W85032  32.036  40.450   2.312
11965W        W85033  23.691  34.389   2.376
11966W        W85034  21.598   4.990  14.329
11967W        W85035   5.341  41.475  11.099
11968W        W85036  26.054  39.254   3.947
11969W        W85037  16.807   0.872   3.983
11970W        W85038  44.013  25.021  11.776
11971W        W85039  25.697   7.178  12.977
11972W        W85040  11.284  36.991  10.395
11973W        W85041  44.932  38.836   0.410
11974W        W85042   6.083   4.666   4.545
11975W        W85043  23.547  30.608   2.313
11976W        W85044   0.043  33.799  11.607
11977W        W85045  16.594  12.597   3.163
11978W        W85046  17.118   2.227  13.482
11979W        W85047  10.194  40.138   0.812
11980W        W85048  28.106   1.593  10.996
11981W        W85049   7.166  20.487  10.729
11982W        W85050  27.434  29.476  10.705
11983W        W85051  20.436   2.368  11.125
11984W        W85052  38.934   8.346   2.850
11985W        W85053  16.789  20.599   2.111
11986W        W85054  27.690  35.166   4.503
11987W        W85055  41.968  12.149  12.949
11988W        W85056  31.948  44.764   0.900
11989W        W85057  28.665  39.130   2.529
11990W        W85058  23.690  43.183   4.067
11991W        W85059  43.742  41.988  12.281
11992W        W85060  15.366  20.046   1.867
11993W        W85061  44.045  34.469  12.581
11994W        W85062   2.263   9.900   2.425
11995W        W85063  21.786  43.471  11.502
11996W        W85064  17.115  30.712   1.825
11997W        W85065   1.006   2.399  12.814
11998W        W85066  10.388  43.300   2.426
11999W        W85067   4.263  19.537   3.565
12000W        W85068  36.993  12.891  10.715
12001W        W85069  11.274   4.349   3.653
12002W        W85070  18.478  24.894  10.325
12003W        W85071   8.338  36.438   3.705
12004W        W85072   8.132  44.192   4.606
12005W        W85073  39.485  14.190  12.099
12006W        W85074  37.537  18.834  12.428
12007W        W85075  28.151  18.286  11.495
12008W        W85076  25.354  38.569  10.416
12009W        W85077  25.582  43.507   3.166
12010W        W85078  20.182  41.781  12.310
12011W        W85079  33.799  15.330  14.037
12012W        W85080  10.726  32.079  14.542
12013W        W85081  17.550  22.713   4.272
12014W        W85082   7.263  40.267  12.540
12015W        W85083  44.874  21.573   4.173
12016W        W85084   6.891  42.904   4.217
12017W        W85085  30.104  16.278  10.725
12018W        W85086  44.817   1.942   0.890
12019W        W85087  21.211  38.387   1.903
12020W        W85088  25.441  20.766  12.507
12021W        W85089  34.127  34.795  12.944
12022W        W85090  33.890   1.361   1.137
12023W        W85091  37.675  37.054  10.635
12024W        W85092  34.364  37.451  10.560
12025W        W85093  43.904  28.678  11.485
12026W        W85094   4.459  34.518  12.651
12027W        W85095  41.076  22.241  11.127
12028W        W85096  16.136  21.594  12.997
12029W        W85097  20.672  18.038  11.060
12030W        W85098  14.123  12.640   3.257
12031W        W85099   4.907  26.639   0.837
12032W        W85100  35.003  25.165   0.016
12033W        W85101  15.270  17.339   4.512
12034W        W85102  44.350  13.170   4.939
12035W        W85103  39.008  39.316   1.360
12036W        W85104  18.907  31.387  14.681
12037W        W85105   2.380   5.935  10.696
12038W        W85106  40.887   1.586   4.312
12039W        W85107  42.138  21.970   3.230
12040W        W85108  40.453   9.855   1.664
12041W        W85109  31.376  20.188  11.058
12042W        W85110   1.723  15.330   1.905
12043W        W85111   6.436  29.968   0.418
12044W        W85112  20.092  26.253   3.109
12045W        W85113  42.394  44.410  11.681
12046W        W85114   6.298  34.254  12.554
12047W        W85115  36.632   1.376  12.359
12048W        W85116  37.203  42.925   1.530
12049W        W85117  29.404  27.519  11.566
12050W        W85118  40.468   4.288  12.537
12051W        W85119  10.283  40.498  11.225
12052W        W85120  42.753   2.321   4.587
12053W        W85121  31.928  41.849   1.994
12054W        W85122   8.896  23.136   4.824
12055W        W85123  39.809  13.781  14.778
12056W        W85124   9.323  37.273  11.589
12057W        W85125   0.752   1.564   2.663
12058W        W85126  13.540  41.379  14.966
12059W        W85127  33.605  43.907   2.288
12060W        W85128  36.443  37.453  14.104
12061W        W85129  26.068   3.799  11.566
12062W        W85130  31.188  28.623   1.001
12063W        W85131   6.727  32.386  11.623
12064W        W85132  39.955  25.268  13.744
12065W        W85133  23.109  34.971   1.834
12066W        W85134  42.442  26.719   0.820
12067W        W85135  43.826   8.678   1.738
12068W        W85136  29.153  31.122   4.608
12069W        W85137  37.235   2.415   3.279
12070W        W85138   3.533   3.188   3.664
12071W        W85139  12.261  21.642   0.532
12072W        W85140  32.565  20.608  10.997
12073W        W85141  40.959  43.912  13.398
12074W        W85142   9.796  13.775  14.482
12075W        W85143  12.569   8.233  12.503
12076W        W85144  30.518  14.776   0.685
12077W        W85145  33.354  11.321   0.323
12078W        W85146  32.031  32.001  12.408
12079W        W85147   6.510  39.756   5.150
12080W        W85148  12.385  29.713   1.733
12081W        W85149  31.149  16.116  12.045
12082W        W85150   8.416  44.270  14.464
12083W        W85151   0.543  15.304   1.344
12084W        W85152  18.693  22.655   4.688
12085W        W85153  44.855  32.236   3.360
12086W        W85154  31.561   0.921   0.366
12087W        W85155   1.274  12.815   2.126
12088W        W85156  13.234  18.894   3.242
12089W        W85157  20.130  21.000  14.953
12090W        W85158  17.733   2.440  12.649
12091W        W85159   7.812  17.181  11.135
12092W        W85160  30.140  40.468   3.723
12093W        W85161  34.831  36.390  11.118
12094W        W85162   2.381  34.282  10.151
12095W        W85163  11.934  37.334  12.425
12096W        W85164  27.923  27.747  13.039
12097W        W85165  25.696  23.011   4.077
12098W        W85166  22.186   4.836   3.414
12099W        W85167  41.264  21.947  13.725
12100W        W85168   7.398  39.775   3.027
12101W        W85169  25.169   7.278   4.856
12102W        W85170   4.494   5.208  13.929
12103W        W85171  25.832  10.080   3.264
12104W        W85172   1.564  43.379   4.611
12105W        W85173  30.712  10.340  13.997
12106W        W85174  27.134  11.660   1.969
12107W        W85175   0.537   2.055  14.514
12108W        W85176  23.138  17.195   0.254
12109W        W85177  37.364  12.790   4.304
12110W        W85178  32.410  38.327  13.844
12111W        W85179   3.341  18.841  12.636
12112W        W85180   2.296  33.956  11.648
12113W        W85181  23.822  40.922   3.238
12114W        W85182   3.477  27.010   2.771
12115W        W85183  24.492   4.553   3.519
12116W        W85184  36.348   5.170   1.332
12117W        W85185  40.082   3.159  11.090
12118W        W85186  31.187  13.124   2.383
12119W        W85187  21.113  23.085   3.924
12120W        W85188  15.643  10.920  13.016
12121W        W85189  22.579  23.814  12.484
12122W        W85190  20.741  17.807   2.207
12123W        W85191   0.308  18.830   4.689
12124W        W85192  34.977  35.779  10.074
12125W        W85193  13.643  43.877  11.584
12126W        W85194  28.447  42.381   4.267
12127W        W85195   2.349   7.131  11.986
12128W        W85196  43.318  30.189   4.526
12129W        W85197  37.090  17.030  14.892
12130W        W85198  16.816  41.792  11.118
12131W        W85199  21.334  10.103  14.817
12132W        W85200  42.453  24.610   4.358
12133W        W85201   2.075  40.150  10.715
12134W        W85202  15.775  37.074  10.771
12135W        W85203  23.894  14.576   3.436
12136W        W85204  33.537  30.921   1.827
12137W        W85205  36.956  41.889   4.914
12138W        W85206  44.036  39.343   2.252
12139W        W85207   6.862  14.675   1.643
12140W        W85208   3.369  13.161  13.923
12141W        W85209  38.861  40.325   1.281
12142W        W85210  39.882  44.520   1.890
12143W        W85211  10.285  43.238  10.821
12144W        W85212  44.817   8.196   4.360
12145W        W85213  17.088  19.185   2.849
12146W        W85214  27.235  12.060   1.242
12147W        W85215  44.515  36.584   2.276
12148W        W85216  23.217  24.497   3.757
12149W        W85217  10.232  12.972  14.373
12150W        W85218   3.919  10.631  13.803
12151W        W85219  23.689  19.202   5.472
12152W        W85220  29.616  18.853   0.754
12153W        W85221  32.051  17.227  12.136
12154W        W85222   8.983  13.271  13.777
12155W        W85223   8.708  14.604  11.142
12156W        W85224  16.946  10.774   0.266
12157W        W85225  15.159  37.333   0.045
12158W        W85226  43.540  33.627   0.551
12159W        W85227  36.361   9.255  12.968
12160W        W85228   3.417  11.279  14.116
12161W        W85229   1.803  44.951  12.226
12162W        W85230  35.434  20.066   3.161
12163W        W85231  34.152  10.190   0.620
12164W        W85232   2.860  39.137  11.334
12165W        W85233  15.286  12.887  11.489
12166W        W85234   9.256  16.642  13.094
12167W        W85235  38.337   2.179   2.577
12168W        W85236  11.261  42.974  12.073
12169W        W85237  22.728  11.257  14.542
12170W        W85238  31.702  12.769  14.720
12171W        W85239  24.223  30.635   2.845
12172W        W85240  38.132  37.960  13.556
12173W        W85241  43.957  20.663  13.865
12174W        W85242  14.225  15.111  11.087
12175W        W85243  19.996   9.541   0.802
12176W        W85244  44.995  22.372   2.452
12177W        W85245  41.810  15.786  13.573
12178W        W85246   8.173  44.246  13.982
12179W        W85247   0.722  21.026   4.080
12180W        W85248  25.241  40.770   3.254
12181W        W85249  27.411  29.560  14.550
12182W        W85250   9.906  24.196   4.375
12183W        W85251   4.914   6.836   4.792
12184W        W85252  10.877  34.376  11.962
12185W        W85253  27.925  24.664  12.047
12186W        W85254  43.946   6.285   0.698
12187W        W85255  26.968  37.586   0.478
12188W        W85256  41.796   0.241   0.796
12189W        W85257  24.590   7.608   2.641
12190W        W85258  38.057  34.041   1.789
12191W        W85259  31.015  40.811  10.554
12192W        W85260  29.007  13.142  12.953
12193W        W85261  18.217  40.989  12.806
12194W        W85262  26.941  24.819  11.213
12195W        W85263  19.251  32.876   4.118
12196W        W85264   2.246   4.326  14.342
12197W        W85265  21.187  11.658  12.158
12198W        W85266  30.890   1.887  12.488
12199W        W85267  15.706  41.602  14.687
12200W        W85268  38.942   9.310   0.310
12201W        W85269  24.929  22.569  12.423
12202W        W85270  11.329   1.172   2.647
12203W        W85271  32.565  12.819  14.796
12204W        W85272   6.897   5.833  14.574
12205W        W85273   2.335  43.465   1.409
12206W        W85274  43.968  12.914  10.434
12207W        W85275  27.692   3.984  10.439
12208W        W85276  35.803  14.703   1.167
12209W        W85277  23.391  24.325   0.816
12210W        W85278  43.481  19.454   4.147
12211W        W85279   8.920  20.490   0.819
12212W        W85280  37.252  42.535  13.899
12213W        W85281  10.792  44.047  10.666
12214W        W85282  22.259  25.029   2.326
12215W        W85283   7.150  15.865  13.545
12216W        W85284   3.029  30.625   4.050
12217W        W85285  44.291  29.017   2.419
12218W        W85286  19.164  15.079   0.320
12219W        W85287  31.694  33.912  13.334
12220W        W85288   0.062  23.670  14.782
12221W        W85289  19.580   5.320  14.912
12222W        W85290  25.932  14.107   2.774
12223W        W85291  21.520  10.271   2.835
12224W        W85292  31.486  25.206  11.551
12225W        W85293   3.382  39.575  13.012
12226W        W85294  23.207  16.254  13.085
12227W        W85295   9.078  17.285  10.677
12228W        W85296   0.536  26.451   9.917
12229W        W85297   0.866  11.063   0.213
12230W        W85298  22.933  42.406  11.166
12231W        W85299   5.665  20.314   0.843
12232W        W85300   8.882  21.702  14.280
12233W        W85301  41.060  33.198   4.297
12234W        W85302  19.486  44.298   3.907
12235W        W85303  10.268  12.924  12.423
12236W        W85304   7.807   5.705   0.719
12237W        W85305  29.024  38.040   1.830
12238W        W85306   0.025  39.383  11.156
12239W        W85307  27.721  30.438  14.975
12240W        W85308   3.679  37.549  14.825
12241W        W85309  18.622  33.853  12.438
12242W        W85310  28.539  10.849   4.536
12243W        W85311  35.731  29.942  10.439
12244W        W85312  19.975   4.274  14.900
12245W        W85313  27.742  24.508   0.309
12246W        W85314   8.331  32.343   4.063
12247W        W85315  21.559   8.318   1.679
12248W        W85316  21.710  14.858   3.821
12249W        W85317  41.650  34.753   0.460
12250W        W85318  16.039  42.341   3.179
12251W        W85319   5.484   6.821  12.479
12252W        W85320  26.110  34.146  13.505
12253W        W85321  11.158  12.261   2.817
12254W        W85322   5.488  13.186  13.981
12255W        W85323  18.798  32.638   4.073
12256W        W85324   4.911   6.373  13.077
12257W        W85325  22.741   7.674   2.216
12258W        W85326   3.705  16.569   1.137
12259W        W85327  20.690  24.331  12.992
12260W        W85328  18.028   2.116  12.391
12261W        W85329   5.911  32.189  12.017
12262W        W85330  32.594  38.901   3.714
12263W        W85331   5.751  12.300  13.425
12264W        W85332  26.360  34.944   5.147
12265W        W85333  34.542  15.302  13.576
12266W        W85334  20.012   5.324   2.224
12267W        W85335  11.717   8.726  13.838
12268W        W85336  23.936  10.440   2.663
12269W        W85337  43.848  10.100  11.602
12270W        W85338  34.150   6.129  12.819
12271W        W85339   2.307   1.329   2.544
12272W        W85340  21.720  21.074   1.956
12273W        W85341  12.614  28.938   4.316
12274W        W85342  41.547   5.146   4.223
12275W        W85343  35.645  28.906   1.837
12276W        W85344  25.380   3.692   4.125
12277W        W85345  16.887  37.200   4.189
12278W        W85346   6.751  33.645  10.764
12279W        W85347  23.729  17.010   2.780
12280W        W85348  23.951  32.420  14.419
12281W        W85349  11.143  18.778  12.090
12282W        W85350  24.153   9.869   0.400
12283W        W85351  11.893  17.264   4.632
12284W        W85352  24.707  36.755   0.314
12285W        W85353  40.473  28.784   3.652
12286W        W85354  44.689  12.631  11.974
12287W        W85355  10.969  13.150   3.161
12288W        W85356  29.402  20.563  13.794
12289W        W85357  29.749  36.557  12.294
12290W        W85358   7.653  17.271   1.924
12291W        W85359  39.088   0.794   1.484
12292W        W85360  21.234  12.174  13.030
12293W        W85361   9.170  28.516  14.427
12294W        W85362  11.843  17.972  14.839
12295W        W85363   2.879  20.799   0.539
12296W        W85364  10.579  29.718  14.422
12297W        W85365  20.305  22.956  13.495
12298W        W85366  33.196   6.893   0.420
12299W        W85367   6.376  30.473  12.468
12300W        W85368  38.857  41.395  11.063
12301W        W85369  27.621  34.875  13.296
12302W        W85370   3.316   2.486  12.667
12303W        W85371  11.246  19.531   3.231
12304W        W85372  26.696  12.892  13.375
12305W        W85373  15.601  20.986  14.387
12306W        W85374  24.093  43.865  11.521
12307W        W85375  23.251  18.558   3.268
12308W        W85376  43.259   1.262   4.496
12309W        W85377   3.793  39.344   3.703
12310W        W85378  20.280   3.984   2.308
12311W        W85379  10.844  12.755  12.090
12312W        W85380  36.842  13.601   3.648
12313W        W85381  20.902  23.268  11.978
12314W        W85382   6.799  37.294   1.833
12315W        W85383  16.182  28.012   0.037
12316W        W85384  40.257  36.856   1.760
12317W        W85385   8.247  43.383   3.314
12318W        W85386   4.519  10.847   4.096
12319W        W85387  21.038  21.001  14.386
12320W        W85388  11.185  15.844   2.591
12321W        W85389  16.373   4.365  11.841
12322W        W85390  21.769  26.485   0.777
12323W        W85391  10.643   6.123   0.204
12324W        W85392  10.220   6.899  14.812
12325W        W85393  10.632   6.881  11.395
12326W        W85394   3.691  27.640   1.277
12327W        W85395  19.829  43.891  10.325
12328W        W85396  37.427  41.567   0.897
12329W        W85397  11.123  35.712   4.005
12330W        W85398  11.104  22.101  12.650
12331W        W85399   4.006  11.535   0.801
12332W        W85400  30.638  23.964  11.877
12333W        W85401  44.693  36.938  11.726
12334W        W85402   5.391   1.678   4.145
12335W        W85403  35.338  23.093  10.781
12336W        W85404  42.603  12.970   1.461
12337W        W85405  13.964   6.969   1.761
12338W        W85406  15.711  37.117   1.278
12339W        W85407  20.401  41.119  10.460
12340W        W85408   8.197   2.371  14.802
12341W        W85409  27.235  38.517  12.449
12342W        W85410  38.613   7.950   2.692
12343W        W85411  38.435  31.731   2.580
12344W        W85412  21.475  23.553   3.222
12345W        W85413   0.730   2.193  12.403
12346W        W85414  20.040  16.198  13.522
12347W        W85415  14.744  38.564   0.919
12348W        W85416  34.070  20.078   4.110
12349W        W85417   1.431  39.883  12.608
12350W        W85418  41.772  18.343   1.205
12351W        W85419  26.448  16.303   2.120
12352W        W85420   5.794   0.580   4.240
12353W        W85421   5.684  20.126   2.297
12354W        W85422  22.214   5.179   4.120
12355W        W85423   8.260  10.931  12.017
12356W        W85424  30.036   2.790  14.961
12357W        W85425  37.055  41.830  11.904
12358W        W85426   3.915  31.029   4.484
12359W        W85427   9.738   8.970   1.507
12360W        W85428  16.294  32.508   3.984
12361W        W85429  32.493  39.119   2.243
12362W        W85430   2.894   9.275   1.488
12363W        W85431  25.169  29.022   4.571
12364W        W85432   4.894  21.694  12.343
12365W        W85433   5.307  16.762  13.573
12366W        W85434  22.034  21.511   1.574
12367W        W85435  30.347   6.373  10.669
12368W        W85436   3.290  42.228  12.627
12369W        W85437  12.793  38.853  11.547
12370W        W85438  34.689  14.482   0.060
12371W        W85439  19.766  20.702   4.066
12372W        W85440  35.681  43.929  11.096
12373W        W85441  25.284  42.318  10.523
12374W        W85442   8.711   1.595   4.073
12375W        W85443  26.192  16.025  10.674
12376W        W85444  24.192  43.246   0.960
12377W        W85445  41.349   1.979  11.019
12378W        W85446  38.803  30.034  14.455
12379W        W85447  14.360  24.023   0.148
12380W        W85448  14.671  24.607   3.224
12381W        W85449  37.958  23.470  12.575
12382W        W85450  34.126  42.403   0.366
12383W        W85451  28.352  23.621  11.032
12384W        W85452   2.918   0.963   3.556
12385W        W85453  40.648   2.406   4.486
12386W        W85454  44.034  28.843  12.961
12387W        W85455  41.531   5.206   1.295
12388W        W85456   5.548  12.344  14.672
12389W        W85457  15.683  19.370  12.480
12390W        W85458  39.030  40.432   4.648
12391W        W85459  41.495  25.951   4.624
12392W        W85460   0.257  33.223  10.534
12393W        W85461  29.699   5.962   1.500
12394W        W85462  44.774  37.518  12.041
12395W        W85463  25.184   3.854   0.511
12396W        W85464  13.603   7.909   4.377
12397W        W85465   9.506  30.531   0.353
12398W        W85466  33.492  33.014   2.920
12399W        W85467  18.815   7.410   0.021
12400W        W85468  34.393  30.971   4.168
12401W        W85469  14.310  38.302   0.232
12402W        W85470  26.680  25.463  13.937
12403W        W85471  26.086  17.972   1.065
12404W        W85472  31.488  26.630   3.148
12405W        W85473  40.965   4.270   1.189
12406W        W85474  26.536  33.886  13.357
12407W        W85475   5.905  17.185  13.941
12408W        W85476   8.378  31.870   0.658
12409W        W85477  40.333  37.058  11.901
12410W        W85478   5.442  39.788   2.219
12411W        W85479   7.812  22.961   2.705
12412W        W85480  19.761  39.788   0.776
12413W        W85481   2.790   2.062  10.528
12414W        W85482   1.461  29.225  14.425
12415W        W85483  19.633  11.843   1.294
12416W        W85484  26.731  18.305   4.673
12417W        W85485  14.560  15.969   4.232
12418W        W85486  19.356  36.459   3.124
12419W        W85487  32.347  29.600  11.595
12420W        W85488   3.234  23.722  13.982
12421W        W85489   2.230  12.153  14.832
12422W        W85490   7.235   1.053   0.823
12423W        W85491  11.077  33.999  14.112
12424W        W85492  37.470  36.294  13.966
12425W        W85493  11.084  24.662   1.745
12426W        W85494   8.735  10.194  11.581
12427W        W85495   2.997  44.769   3.709
12428W        W85496  35.379  37.275   4.947
12429W        W85497  34.827  32.112   0.725
12430W        W85498  21.190  16.108   0.815
12431W        W85499   6.342  44.239   1.954
12432W        W85500  30.596   5.680  10.707
12433W        W85501   7.504   2.809   3.139
12434W        W85502  22.156   6.407  10.453
12435W        W85503  37.294  34.176  10.410
12436W        W85504  34.987  15.608  14.820
12437W        W85505  22.809  44.555   2.727
12438W        W85506  41.132  43.023   2.370
12439W        W85507  36.171  40.909   0.734
12440W        W85508   5.595  39.081  11.601
12441W        W85509  30.233  37.860  11.144
12442W        W85510  15.606  26.579  14.401
12443W        W85511  27.701  14.609  12.579
12444W        W85512  21.728  35.948   5.080
12445W        W85513   4.387  14.869   0.978
12446W        W85514   2.960  24.237  13.254
12447W        W85515  25.573  29.370   3.829
12448W        W85516  39.926   8.749  12.053
12449W        W85517  22.900  43.778   3.381
12450W        W85518   0.188   8.778   1.843
12451W        W85519  10.783   7.741   1.612
12452W        W85520  12.355  31.543  10.724
12453W        W85521   0.812  43.928   4.834
12454W        W85522   0.737  29.524   1.720
12455W        W85523   6.769  18.312   4.835
12456W        W85524  32.063  22.285   1.398
12457W        W85525  35.448   7.936   4.541
12458W        W85526  25.872  37.430  10.422
12459W        W85527   7.706   8.901  14.792
12460W        W85528   1.295  19.759   4.873
12461W        W85529  17.823   7.397   0.317
12462W        W85530   7.619  27.074  14.520
12463W        W85531   3.520  27.436   4.186
12464W        W85532  15.817  37.482  11.084
12465W        W85533  10.880  29.199   2.928
12466W        W85534  20.113  25.960   4.077
12467W        W85535  27.691  14.775   3.786
12468W        W85536  29.346   7.210  11.396
12469W        W85537  30.671  12.745  13.232
12470W        W85538  36.998   8.795   1.694
12471W        W85539  17.539  44.276   3.148
12472W        W85540   2.238   7.836   3.730
12473W        W85541  26.474  43.989   4.457
12474W        W85542   4.233  22.101   0.836
12475W        W85543  21.481  26.068   4.338
12476W        W85544   5.929  25.101  13.504
12477W        W85545   6.181  29.343   0.758
12478W        W85546   1.972   7.200  11.586
12479W        W85547  38.637  27.887  12.512
12480W        W85548  17.993  18.709   3.193
12481W        W85549  36.384  40.854   1.182
12482W        W85550  19.254  23.608  14.021
12483W        W85551  36.212  17.718   4.888
12484W        W85552  28.760  32.045   3.845
12485W        W85553   5.969  19.538  14.872
12486W        W85554  21.981   6.349   3.907
12487W        W85555   5.384  35.079  12.921
12488W        W85556   0.496  14.308   3.047
12489W        W85557  36.444  40.017   1.184
12490W        W85558  23.958   4.975   4.581
12491W        W85559  26.003   9.177  14.874
12492W        W85560  13.023   6.258   2.351
12493W        W85561   2.389  36.390  12.154
12494W        W85562  23.606  22.098  12.425
12495W        W85563  18.623   9.851  13.933
12496W        W85564  34.289  22.645  12.493
12497W        W85565  42.028  13.805  14.029
12498W        W85566  10.244   8.973  13.605
12499W        W85567   8.370   5.400  13.251
12500W        W85568   5.730  29.673   0.894
12501W        W85569  11.799  32.423  10.651
12502W        W85570  36.118  24.512  13.118
12503W        W85571  10.613  22.761   0.218
12504W        W85572  27.728  34.772   4.162
12505W        W85573   6.365  27.962  13.863
12506W        W85574  31.166  38.763  12.959
12507W        W85575   1.932  32.490   1.359
12508W        W85576  11.231  16.812  14.024
12509W        W85577   6.868  32.875   1.277
12510W        W85578  40.231   4.981   1.507
12511W        W85579  16.166  15.536  10.300
12512W        W85580  26.632  40.520   3.566
12513W        W85581  19.620  25.273   0.790
12514W        W85582  26.851  28.767  14.843
12515W        W85583   8.287  37.314  14.808
12516W        W85584  15.512   6.669   3.773
12517W        W85585   8.184  40.778   4.284
12518W        W85586  20.278  38.522   1.776
12519W        W85587  38.472   1.533   0.235
12520W        W85588  44.752   2.284   3.197
12521W        W85589  20.504  38.979   1.944
12522W        W85590  27.650  41.385  14.479
12523W        W85591  11.532  22.544   2.392
12524W        W85592  12.330  29.578  11.950
12525W        W85593   0.910   4.694  12.531
12526W        W85594   4.450  15.649   4.924
12527W        W85595   1.540   1.747  14.408
12528W        W85596  23.674   8.093  11.275
12529W        W85597  17.958   9.273  11.980
12530W        W85598  39.653   5.143  10.194
12531W        W85599  33.223  43.812  14.283
12532W        W85600  23.746  24.121  11.292
12533W        W85601  22.174   9.128  10.808
12534W        W85602  11.650  28.416   4.715
12535W        W85603  12.391  30.967  11.478
12536W        W85604  32.070  14.004   0.282
12537W        W85605  17.014  33.852  12.035
12538W        W85606  29.529  32.548  11.359
12539W        W85607  39.421   3.371   4.555
12540W        W85608  16.347  21.499   2.315
12541W        W85609  19.996   8.637  11.521
12542W        W85610  29.479  26.577  13.277
12543W        W85611   6.763  11.437   0.805
12544W        W85612  41.621   0.406  12.527
12545W        W85613   8.787  20.110   4.569
12546W        W85614  16.797  24.224   1.835
12547W        W85615   1.667  44.038  14.320
12548W        W85616  31.728  20.154  12.022
12549W        W85617   3.954  31.255  12.402
12550W        W85618  28.872   6.382  14.411
12551W        W85619  22.535  25.287   2.700
12552W        W85620  31.675   1.926   0.429
12553W        W85621  29.893  19.348  12.547
12554W        W85622  22.194   9.886  12.817
12555W        W85623   0.697  24.192  13.127
12556W        W85624   3.776  38.586   3.136
12557W        W85625  23.285  44.352   2.672
12558W        W85626  16.914  22.633   2.782
12559W        W85627   8.268  41.378   0.509
12560W        W85628  16.343  29.565  14.834
12561W        W85629  39.157  13.699  14.319
12562W        W85630  25.555   0.379  12.971
12563W        W85631  15.364   9.692   4.073
12564W        W85632  43.336  12.318   3.663
12565W        W85633  44.541  43.838  11.049
12566W        W85634   8.670  28.648  14.528
12567W        W85635  23.473  43.278  12.509
12568W        W85636   8.773   1.882   3.199
12569W        W85637  36.309   0.315   0.746
12570W        W85638   0.443  38.401  11.856
12571W        W85639   1.813  18.782   1.850
12572W        W85640  41.304  30.202  12.053
12573W        W85641   6.589  29.966  12.971
12574W        W85642  36.419   3.293  10.656
12575W        W85643   6.940  20.072  10.940
12576W        W85644  36.869  28.060   4.185
12577W        W85645  22.046  33.368   2.556
12578W        W85646   6.233  12.164  11.224
12579W        W85647  44.496  24.207   0.421
12580W        W85648  37.585  28.725   4.475
12581W        W85649   1.760   9.276   0.193
12582W        W85650  44.293  29.346  10.960
12583W        W85651   7.235  42.781   3.380
12584W        W85652  34.536   6.370  13.370
12585W        W85653  28.238   6.808   4.886
12586W        W85654  22.176  32.855  13.869
12587W        W85655  42.774  16.167  14.836
12588W        W85656   9.400  14.660   1.263
12589W        W85657  30.691  36.440  12.604
12590W        W85658   6.283  32.127   2.064
12591W        W85659  22.646  21.753   2.785
12592W        W85660  32.879   7.103   2.749
12593W        W85661  44.590  27.999   0.347
12594W        W85662   2.507  32.050   2.681
12595W        W85663  36.252  44.198  13.965
12596W        W85664  38.095  30.079   2.325
12597W        W85665  14.145  34.631  14.956
12598W        W85666  33.629  27.864   3.817
12599W        W85667  38.014  11.804  10.206
12600W        W85668   1.945  34.830  13.873
12601W        W85669  34.128   5.972  11.077
12602W        W85670   8.797  37.925   3.371
12603W        W85671   4.123  27.511  14.881
12604W        W85672  10.574  16.098  13.087
12605W        W85673  16.809  37.588   4.539
12606W        W85674  29.838  20.690   1.020
12607W        W85675  14.701  39.980   2.717
12608W        W85676  40.797  18.533   0.881
12609W        W85677   3.677   3.661  14.314
12610W        W85678  33.430  18.582   0.417
12611W        W85679  30.118  31.689   2.815
12612W        W85680  37.337  32.569  14.355
12613W        W85681  36.321   1.658   2.137
12614W        W85682  14.300  31.426  12.895
12615W        W85683  15.527  17.743   0.772
12616W        W85684  11.612  39.893   3.225
12617W        W85685  38.823  11.749  10.771
12618W        W85686   4.955  18.230   3.537
12619W        W85687  23.283  37.355   1.707
12620W        W85688  11.722   6.639  12.906
12621W        W85689  31.015   5.842  10.963
12622W        W85690   7.784  38.170  11.078
12623W        W85691  39.556   7.752  11.876
12624W        W85692  40.136  24.448  14.045
12625W        W85693   9.710  27.028  11.327
12626W        W85694  21.981   3.219   0.450
12627W        W85695  35.896  22.774   1.755
12628W        W85696   3.672  43.824  14.399
12629W        W85697  42.716   2.334  11.647
12630W        W85698  10.926  30.639   4.400
12631W        W85699  26.284  33.020  14.424
12632W        W85700  38.787   8.806   3.694
12633W        W85701  24.693  40.853  14.896
12634W        W85702   0.051  43.876  10.941
12635W        W85703  18.632  42.788   2.353
12636W        W85704   9.101   3.907   3.219
12637W        W85705  19.320  38.087  14.894
12638W        W85706  43.806  27.202  11.037
12639W        W85707  37.367  23.603   4.814
12640W        W85708  40.941   4.447  10.679
12641W        W85709  31.589  24.786   0.414
12642W        W85710  12.556  17.061  10.740
12643W        W85711  12.723   7.626   0.205
12644W        W85712  44.794  36.114  10.634
12645W        W85713  19.297  41.952  14.525
12646W        W85714   1.895  31.698   3.307
12647W        W85715   0.643   6.447   2.864
12648W        W85716   8.806  24.953   1.856
12649W        W85717   4.553  12.733  14.720
12650W        W85718  28.101  12.615   2.797
12651W        W85719  18.415  40.818  13.288
12652W        W85720  35.009   1.015  12.325
12653W        W85721   9.179  41.279   5.042
12654W        W85722  38.941  15.243  10.746
12655W        W85723  27.603  28.619  13.088
12656W        W85724  17.527  31.178  13.326
12657W        W85725   6.739  19.821  13.183
12658W        W85726  18.045  20.394   0.976
12659W        W85727   8.976  29.884  13.239
12660W        W85728  23.251  31.608  12.108
12661W        W85729  27.835  23.934   3.873
12662W        W85730   2.306  17.551   3.189
12663W        W85731  33.567   1.377   2.813
12664W        W85732  29.102  31.181  14.097
12665W        W85733  21.529  10.485  13.972
12666W        W85734  29.343  18.688  14.249
12667W        W85735  41.114  30.079  13.883
12668W        W85736   5.535   4.305  13.031
12669W        W85737  18.989  25.483  13.850
12670W        W85738  24.338  13.967  13.192
12671W        W85739  41.743  29.119   1.472
12672W        W85740  31.489   1.781  14.115
12673W        W85741   0.961  34.691  11.599
12674W        W85742  16.648  43.941  13.350
12675W        W85743  36.071  24.354  10.736
12676W        W85744  12.911  27.639   2.687
12677W        W85745  21.562  37.104   1.327
12678W        W85746   8.384  27.622   0.917
12679W        W85747  44.520  34.412  13.901
12680W        W85748   6.127  22.853  14.754
12681W        W85749  40.293  15.836   1.385
12682W        W85750  14.126  20.178  11.066
12683W        W85751  14.370  23.789   1.818
12684W        W85752  40.230  23.590   1.969
12685W        W85753  11.308  34.473   1.343
12686W        W85754   8.456  21.047   3.786
12687W        W85755  36.935  18.442  13.522
12688W        W85756  17.322  13.760   0.784
12689W        W85757  12.326  41.002  12.021
12690W        W85758  12.353   2.304  12.034
12691W        W85759  24.519  41.445  11.629
12692W        W85760  26.551  43.668   1.188
12693W        W85761  28.072  42.900  12.209
12694W        W85762  31.367  27.965  11.516
12695W        W85763   8.565  41.084  14.960
12696W        W85764  44.221  44.377   0.357
12697W        W85765   1.774   3.820  12.095
12698W        W85766  19.168  40.908   4.734
12699W        W85767   9.020   8.309   2.177
12700W        W85768  10.233   4.605   4.153
12701W        W85769   5.150  18.217  14.503
12702W        W85770  38.569  40.688   1.888
12703W        W85771  24.264  23.021   2.820
12704W        W85772   2.353  29.662  12.975
12705W        W85773  41.962  18.100  13.025
12706W        W85774  26.799  44.093  10.413
12707W        W85775   1.791  18.246   0.336
12708W        W85776  19.775  41.768  14.521
12709W        W85777  41.857  42.944   0.846
12710W        W85778  20.786   5.395   0.624
12711W        W85779  31.001   8.325  13.566
12712W        W85780  28.679  21.996  12.471
12713W        W85781  10.040   7.171  13.027
12714W        W85782  22.186  25.633   0.919
12715W        W85783  36.079  38.652   2.237
12716W        W85784   3.899  44.767   1.950
12717W        W85785  22.771  18.066   1.851
12718W        W85786   4.843  28.766   1.747
12719W        W85787  28.494  33.581  11.534
12720W        W85788   4.851  10.882   0.886
12721W        W85789  20.837  29.441   5.133
12722W        W85790  16.334  27.934  11.995
12723W        W85791   3.027  33.478  12.690
12724W        W85792   3.807  31.176   1.785
12725W        W85793   5.751  20.012   4.642
12726W        W85794   5.774  14.604   2.358
12727W        W85795  44.038  20.555   2.189
12728W        W85796  23.778  44.143   1.919
12729W        W85797   8.604   1.949   2.718
12730W        W85798   2.481   1.787  11.398
12731W        W85799  32.372   3.478   1.292
12732W        W85800  36.566   3.609   3.174
12733W        W85801  38.101  23.684  12.082
12734W        W85802  34.814   1.951   2.282
12735W        W85803   0.552  34.418   3.575
12736W        W85804   0.853  16.187  11.154
12737W        W85805  25.468  23.468   1.777
12738W        W85806   5.862   1.468   2.821
12739W        W85807  39.398  21.678  10.893
12740W        W85808  12.363  31.906   3.698
12741W        W85809  10.151   3.920   0.319
12742W        W85810  31.661  16.020  11.043
12743W        W85811   7.388  14.152   2.163
12744W        W85812  25.568  18.710   0.709
12745W        W85813  18.275  42.921  12.113
12746W        W85814  26.563  13.882   4.227
12747W        W85815  42.174  19.373  11.082
12748W        W85816  13.254  15.928  11.156
12749W        W85817  14.195  42.061   3.772
12750W        W85818  13.809  19.074   3.914
12751W        W85819  44.418   5.369  10.467
12752W        W85820  16.707  36.874   3.211
12753W        W85821  23.608  34.932  11.039
12754W        W85822  29.464   3.666  11.191
12755W        W85823  34.005  16.728   0.417
12756W        W85824   7.324  40.165   2.145
12757W        W85825  28.398  23.612   2.775
12758W        W85826  14.107  27.536  10.758
12759W        W85827  27.616  32.102  12.965
12760W        W85828   4.846  22.108   2.739
12761W        W85829  11.626   0.450  12.370
12762W        W85830   9.746  14.115  14.048
12763W        W85831  13.198   0.346   3.191
12764W        W85832   7.281   7.796  14.547
12765W        W85833   7.320  33.650   0.232
12766W        W85834  30.064  13.693  12.981
12767W        W85835  42.456  13.560  14.904
12768W        W85836  38.366  18.669   0.178
12769W        W85837  21.983  35.694  14.093
12770W        W85838   1.325  35.681  10.636
12771W        W85839  43.070  39.878  11.637
12772W        W85840  27.954  22.216   2.776
12773W        W85841  44.289  12.239   4.643
12774W        W85842  30.036   1.041  13.299
12775W        W85843  31.013  18.005  12.416
12776W        W85844  34.959  41.470  13.354
12777W        W85845   8.359  15.593   3.697
12778W        W85846  40.825  25.572   1.660
12779W        W85847   5.911  35.525  13.449
12780W        W85848  39.295   4.500  12.371
12781W        W85849  12.159  39.568   1.902
12782W        W85850  18.052  30.879   0.416
12783W        W85851  37.396  18.141  13.501
12784W        W85852   0.479  30.465   2.108
12785W        W85853   7.207   3.896  13.109
12786W        W85854  27.864  24.530  13.865
12787W        W85855  31.920  40.324   4.116
12788W        W85856   9.016  26.455   0.416
12789W        W85857  35.090  15.280   3.302
12790W        W85858  41.907  18.063   0.386
12791W        W85859  38.728   7.260   0.345
12792W        W85860  30.065   5.951  14.033
12793W        W85861  43.753  17.645  13.354
12794W        W85862  42.349   1.435   2.029
12795W        W85863  11.620  14.723  13.572
12796W        W85864  31.158   4.494  12.488
12797W        W85865  30.255  32.224  12.045
12798W        W85866  29.284  41.380  12.845
12799W        W85867  38.772  39.912   4.577
12800W        W85868  30.425  32.033   3.097
12801W        W85869  40.771  19.044   1.189
12802W        W85870  10.631  29.077  13.245
12803W        W85871  27.963  38.266  13.006
12804W        W85872   4.901   6.172  10.577
12805W        W85873   4.845  17.804  12.939
12806W        W85874  23.758  12.381  12.424
12807W        W85875  35.526  38.040  11.173
12808W        W85876  22.443  39.134   1.753
12809W        W85877  10.222   5.232   0.827
12810W        W85878   9.697  42.264  14.915
12811W        W85879   8.769  43.901  11.732
12812W        W85880  10.375  13.372   0.202
12813W        W85881  40.086  25.069  12.775
12814W        W85882  28.005  12.388  12.042
12815W        W85883  38.109  28.228   1.664
12816W        W85884  38.490  28.926  10.621
12817W        W85885   4.453  42.946  11.571
12818W        W85886  36.603  44.358   4.226
12819W        W85887  12.209  16.229   0.444
12820W        W85888  10.179  19.069  13.339
12821W        W85889  26.951  44.063   0.278
12822W        W85890  38.037  31.892  14.313
12823W        W85891  27.846  30.421   0.860
12824W        W85892  36.910  22.999   4.219
12825W        W85893   5.398  11.502   3.578
12826W        W85894  24.724  15.038  14.775
12827W        W85895  14.278  40.627  12.433
12828W        W85896  23.782  32.911  12.552
12829W        W85897   4.725  36.871   1.267
12830W        W85898  36.303  20.204   3.228
12831W        W85899   4.171  42.184   0.291
12832W        W85900   8.793  18.327  11.634
12833W        W85901  25.502   1.687   2.241
12834W        W85902  10.871   3.318  13.616
12835W        W85903  33.016  35.118   4.552
12836W        W85904  27.160  43.979  13.960
12837W        W85905  35.543  20.768  11.959
12838W        W85906  34.951   7.739   0.196
12839W        W85907  16.373  16.277  13.534
12840W        W85908  28.946  13.810  11.532
12841W        W85909  25.380  13.421   1.030
12842W        W85910  23.290  43.905   4.369
12843W        W85911  43.918  42.048   1.775
12844W        W85912  35.882  30.012   3.233
12845W        W85913  36.199  41.328   0.432
12846W        W85914  12.158  43.103  14.486
12847W        W85915  22.141  41.249   2.853
12848W        W85916  11.281  24.131   4.714
12849W        W85917   5.904  26.242  12.183
12850W        W85918  36.299  27.111   0.026
12851W        W85919  29.036  44.184   0.992
12852W        W85920   3.967  34.493  12.819
12853W        W85921  33.463   6.664  11.140
12854W        W85922  29.688  25.651  13.961
12855W        W85923  23.654  32.819   4.167
12856W        W85924  10.300   0.919   4.156
12857W        W85925  27.572   3.520  10.640
12858W        W85926  31.888  16.357   4.622
12859W        W85927  19.174   0.689  14.400
12860W        W85928  15.664   3.977   4.077
12861W        W85929   0.980  34.151  11.543
12862W        W85930  22.681  17.360  11.115
12863W        W85931  33.491  39.067   0.329
12864W        W85932  27.911   2.749   1.984
12865W        W85933  20.240  18.197   3.492
12866W        W85934   2.289  19.365  14.359
12867W        W85935  32.016  23.466  11.015
12868W        W85936  43.559  33.124   4.030
12869W        W85937  24.947  41.030   2.878
12870W        W85938  39.978   4.663   0.746
12871W        W85939  37.376  15.325   4.015
12872W        W85940  18.704  13.693  13.963
12873W        W85941  21.188  41.327   1.038
12874W        W85942  30.770  30.438   3.653
12875W        W85943  30.543  36.294  14.638
12876W        W85944   2.285  12.917   1.003
12877W        W85945  41.411  12.387   1.699
12878W        W85946  40.566  33.960   4.051
12879W        W85947  43.642   8.417   2.361
12880W        W85948  42.088  34.623   0.234
12881W        W85949  40.319  27.039  14.134
12882W        W85950  12.292  43.814   4.313
12883W        W85951  15.654  44.920  14.509
12884W        W85952  11.425  35.753   0.482
12885W        W85953   4.204  18.662  10.561
12886W        W85954  19.087  44.292  11.027
12887W        W85955  17.494  22.941  11.424
12888W        W85956  18.183  33.051   0.891
12889W        W85957  38.579  30.269   2.149
12890W        W85958   7.125  38.890   3.432
12891W        W85959  17.234  41.563  10.690
12892W        W85960  18.249   1.235  13.980
12893W        W85961  42.006  17.324  11.068
12894W        W85962  42.614  36.253  10.647
12895W        W85963  28.406  41.113   3.714
12896W        W85964  30.938  15.524  10.871
12897W        W85965   4.621  10.383   3.309
12898W        W85966  26.887  29.370   2.732
12899W        W85967  31.959   7.005  12.355
12900W        W85968  17.810  13.568  11.511
12901W        W85969   7.861  17.493   4.101
12902W        W85970  31.034   0.371   3.664
12903W        W85971   3.903  24.987   3.556
12904W        W85972  20.663  18.312   2.147
12905W        W85973   5.870  41.788   0.748
12906W        W85974   3.831  20.604   0.941
12907W        W85975  34.940  31.898   4.982
12908W        W85976  34.488  11.383   2.009
12909W        W85977  38.908   6.468  11.181
12910W        W85978  22.446  28.497  10.617
12911W        W85979   8.774  17.513   4.043
12912W        W85980  20.262   6.482  11.374
12913W        W85981  40.362  35.637  10.674
12914W        W85982  27.462  28.741  12.554
12915W        W85983   0.816  20.561  12.567
12916W        W85984  42.178  13.216   4.837
12917W        W85985   9.184  35.515  14.738
12918W        W85986  35.946  17.641  10.691
12919W        W85987  33.240   5.752  11.175
12920W        W85988  25.647  36.005  13.652
12921W        W85989  41.316  17.046  11.943
12922W        W85990   4.927  37.455  12.349
12923W        W85991  43.823  19.515  14.830
12924W        W85992  34.469   1.220  14.674
12925W        W85993  32.001  26.035  12.654
12926W        W85994  20.316  16.547  11.971
12927W        W85995  38.023   4.321   0.769
12928W        W85996  27.033  41.762  13.536
12929W        W85997  15.527  35.082   3.940
12930W        W85998  30.549  20.260  11.575
12931W        W85999   7.845  38.216   0.321
12932W        W86000  40.760  39.863   2.771
12933W        W86001   0.004  22.781  12.080
12934W        W86002  18.510  15.656  12.205
12935W        W86003  24.973  41.935   2.741
12936W        W86004  31.091  32.095  12.512
12937W        W86005   2.968  17.024   1.359
12938W        W86006   6.264  12.327   0.031
12939W        W86007  36.673  38.301  11.498
12940W        W86008  10.118  11.327   3.815
12941W        W86009  23.947  33.345  14.349
12942W        W86010  36.254  22.770  14.461
12943W        W86011  14.708   9.575   0.981
12944W        W86012  23.205   7.924   2.269
12945W        W86013  17.516  12.417   1.733
12946W        W86014  41.957  15.138   3.580
12947W        W86015  29.436  29.901  13.802
12948W        W86016  38.486  42.023  11.430
12949W        W86017   5.769  39.534  12.488
12950W        W86018  39.940  27.002  13.435
12951W        W86019  35.793  16.635   3.706
12952W        W86020  35.566  43.492   0.245
12953W        W86021  20.059  43.856   5.273
12954W        W86022  43.759   7.486   0.242
12955W        W86023  26.616  17.284  11.882
12956W        W86024  44.282  34.270   1.017
12957W        W86025  10.537  41.376  11.121
12958W        W86026  32.503  24.990   3.366
12959W        W86027  22.138  36.333   2.319
12960W        W86028  26.960  31.805  14.339
12961W        W86029  31.477  25.036  10.768
12962W        W86030  31.093  35.051   4.405
12963W        W86031  43.887   2.714   3.360
12964W        W86032  15.984  19.974  14.313
12965W        W86033  29.811  29.561  14.822
12966W        W86034  24.734  14.575   2.297
12967W        W86035  17.211  28.756   0.968
12968W        W86036  24.715  20.806  11.950
12969W        W86037  27.220  24.334   1.544
12970W        W86038  10.388  15.377  13.074
12971W        W86039   4.862   9.040  12.008
12972W        W86040   2.396  33.504  11.434
12973W        W86041  31.432  20.980   3.694
12974W        W86042  24.574  34.028   4.624
12975W        W86043  42.198  17.680  13.387
12976W        W86044   6.291  42.735  12.429
12977W        W86045   7.967  15.397  13.081
12978W        W86046  33.990  11.831   4.629
12979W        W86047  29.568  41.862   4.719
12980W        W86048  19.107   0.404  13.583
12981W        W86049   6.678  18.481  13.526
12982W        W86050   6.413  19.007   3.305
12983W        W86051  32.283  43.834   0.836
12984W        W86052   4.426  17.174   4.142
12985W        W86053  36.062  13.835   2.850
12986W        W86054   7.726  41.425  13.778
12987W        W86055  17.688  23.709   0.759
12988W        W86056  31.662  15.121   0.909
12989W        W86057  24.732   6.496   1.809
12990W        W86058   2.645  38.881  13.363
12991W        W86059  42.571  14.719   2.304
12992W        W86060  36.349  39.908  10.645
12993W        W86061   9.418   8.775   0.218
12994W        W86062  34.348  11.284   0.105
12995W        W86063  42.276  32.657   2.329
12996W        W86064  21.939   1.795  11.941
12997W        W86065   7.191  32.231   0.247
12998W        W86066   2.881  44.906  11.386
12999W        W86067   0.909  18.835   0.474
13000W        W86068  10.890  30.079  10.741
13001W        W86069  22.187  43.353  11.071
13002W        W86070  19.766  37.371  13.961
13003W        W86071  10.351  38.081   2.830
13004W        W86072  12.307  33.908  13.718
13005W        W86073   2.801  26.487   1.039
13006W        W86074  26.913  10.865  12.028
13007W        W86075  25.007  36.812  11.235
13008W        W86076   1.293  30.665  11.547
13009W        W86077   0.313   4.000  10.394
13010W        W86078  12.211  11.831  13.514
13011W        W86079  24.752   8.141   0.379
13012W        W86080   5.233  15.815  14.324
13013W        W86081   7.876  39.707  11.213
13014W        W86082  44.879   8.271   1.807
13015W        W86083  39.782  25.020   0.125
13016W        W86084  18.468  39.948  11.940
13017W        W86085  40.783   1.991  13.121
13018W        W86086   5.546  40.975  11.206
13019W        W86087   0.942  14.053  13.495
13020W        W86088  13.394   3.789   3.316
13021W        W86089  14.422  19.248  14.985
13022W        W86090  18.562   0.016  12.477
13023W        W86091   5.727  19.980  14.833
13024W        W86092  29.666  35.001   2.118
13025W        W86093  18.700  29.737   2.395
13026W        W86094  21.649   3.031  11.829
13027W        W86095  12.353   8.713  14.248
13028W        W86096  27.983   8.084   2.599
13029W        W86097  44.580   4.201   2.253
13030W        W86098  10.275   4.410  11.741
13031W        W86099  16.599   4.208  11.423
13032W        W86100   7.728  21.134  10.148
13033W        W86101  20.515  28.649   4.132
13034W        W86102  36.794   1.681   1.399
13035W        W86103  44.827  23.721  12.324
13036W        W86104  44.898  42.302   0.433
13037W        W86105   2.985  37.306  10.348
13038W        W86106  40.395  21.987   4.145
13039W        W86107  44.249   1.390  12.657
13040W        W86108  40.264   3.900   2.426
13041W        W86109  12.876  18.173   2.836
13042W        W86110  31.329  25.055   1.541
13043W        W86111  20.082  23.499   4.203
13044W        W86112  12.979  41.020   2.588
13045W        W86113  42.261  23.114  12.821
13046W        W86114  34.938  17.448  11.151
13047W        W86115  25.576  43.698  10.409
13048W        W86116  28.975  19.839   4.317
13049W        W86117  20.038  33.510  14.246
13050W        W86118   8.189  31.011   4.558
13051W        W86119  42.086  25.405   2.804
13052W        W86120  29.643  20.180  11.406
13053W        W86121  21.741  15.110   4.278
13054W        W86122  36.040  29.278  14.669
13055W        W86123  41.095  22.794   1.443
13056W        W86124   6.185  38.107  14.893
13057W        W86125  27.463  23.625  10.840
13058W        W86126  10.752  37.937   4.295
13059W        W86127  13.509   1.216   2.383
13060W        W86128  24.470  28.629  10.772
13061W        W86129  30.939  10.419  12.721
13062W        W86130  26.116   6.069  11.574
13063W        W86131  24.089   8.800   4.344
13064W        W86132   9.581  17.672  10.729
13065W        W86133   3.808  25.107   0.244
13066W        W86134  24.859  37.160   2.187
13067W        W86135  21.664   6.885   0.518
13068W        W86136  28.694  14.232   4.219
13069W        W86137  23.725  44.831   0.372
13070W        W86138  14.331  22.674  13.481
13071W        W86139  15.243   4.526   4.705
13072W        W86140   1.310  43.902  13.167
13073W        W86141  19.306  41.686  11.763
13074W        W86142  43.558  11.807   3.654
13075W        W86143  14.478  44.483  12.237
13076W        W86144  25.157  29.874   4.164
13077W        W86145  30.371  25.013   5.082
13078W        W86146  38.420   0.361   0.930
13079W        W86147  18.211  26.422   4.240
13080W        W86148  36.391  10.028  14.072
13081W        W86149  23.667  16.499  13.245
13082W        W86150  30.861   4.847   1.259
13083W        W86151  36.929   0.955  12.401
13084W        W86152  19.557  28.524  12.206
13085W        W86153  29.652  29.524   2.197
13086W        W86154   0.666  12.224   4.352
13087W        W86155  32.486  26.185   1.819
13088W        W86156  21.774  13.323   1.398
13089W        W86157  24.671  18.518  11.633
13090W        W86158   7.218   7.947   1.398
13091W        W86159  18.223   7.039  13.355
13092W        W86160   2.338  15.874   4.079
13093W        W86161   1.349  16.891  13.960
13094W        W86162   8.359  43.858  12.594
13095W        W86163  22.742  16.600  11.968
13096W        W86164  33.982  15.172   0.375
13097W        W86165  13.216  27.051   4.124
13098W        W86166  12.828  38.074  12.509
13099W        W86167  11.258   3.883   3.904
13100W        W86168  28.172  13.608  14.398
13101W        W86169  15.245   4.777  11.917
13102W        W86170  32.567   1.537  13.329
13103W        W86171  22.520  32.720   1.356
13104W        W86172  38.871  22.314   1.854
13105W        W86173  23.952  21.702   3.598
13106W        W86174   6.000  43.360  11.962
13107W        W86175  23.268  20.789   4.307
13108W        W86176  44.106  25.177   4.207
13109W        W86177  13.827  25.802   2.653
13110W        W86178  11.696  42.996   4.052
13111W        W86179  21.579   1.975  10.614
13112W        W86180  38.876   8.526   0.801
13113W        W86181  11.827  25.944   2.802
13114W        W86182  10.326  35.096  13.427
13115W        W86183  25.925  27.719  11.211
13116W        W86184   0.432  15.116  14.890
13117W        W86185  43.446  33.628   1.083
13118W        W86186  42.091  16.111  10.682
13119W        W86187  22.008   5.907  10.619
13120W        W86188   2.158  25.917  13.534
13121W        W86189  43.024  23.031  13.432
13122W        W86190   9.230  23.537   0.172
13123W        W86191  38.127   0.795   3.740
13124W        W86192  16.553  13.071   2.373
13125W        W86193  29.052  15.109   4.138
13126W        W86194  24.560  42.928  13.837
13127W        W86195  33.467   9.664  10.454
13128W        W86196  17.257  29.060   5.159
13129W        W86197  30.312  44.462  10.699
13130W        W86198   0.425  41.994  14.789
13131W        W86199  43.873   2.765   3.943
13132W        W86200  10.315  19.658  12.180
13133W        W86201  21.098  24.931   4.561
13134W        W86202  36.027  33.966   0.786
13135W        W86203   9.420  43.336   2.405
13136W        W86204   3.294   9.173   4.178
13137W        W86205  11.704   3.662  10.448
13138W        W86206  39.364  14.649  13.524
13139W        W86207  10.487  33.498   2.663
13140W        W86208  29.922   0.769  14.325
13141W        W86209  28.225   2.146  13.909
13142W        W86210  32.604  14.126  13.371
13143W        W86211  38.893  19.180   1.839
13144W        W86212  31.950  20.329  12.908
13145W        W86213  26.243  43.945   2.910
13146W        W86214  41.950  15.614   1.092
13147W        W86215  30.887  19.584  10.613
13148W        W86216  43.083  25.247  12.876
13149W        W86217  39.862   0.761   2.422
13150W        W86218  22.721  14.531  14.424
13151W        W86219  25.563  21.276  12.558
13152W        W86220  33.521  31.169   3.220
13153W        W86221  44.686  32.034   1.566
13154W        W86222   7.777  16.772  13.415
13155W        W86223  42.506  42.371  11.220
13156W        W86224  36.925  24.318   1.851
13157W        W86225  11.402   2.733  12.345
13158W        W86226  34.924  32.639  12.537
13159W        W86227  14.120  43.969  13.351
13160W        W86228  34.807  22.581  12.409
13161W        W86229  22.876  44.081  11.109
13162W        W86230  36.207  39.857  13.381
13163W        W86231  33.518  36.459   0.259
13164W        W86232   8.736  32.386   4.974
13165W        W86233  30.699  39.580   3.262
13166W        W86234   2.311  14.085  12.084
13167W        W86235  13.203  29.085   1.303
13168W        W86236  41.977   8.053  11.192
13169W        W86237  35.408  17.563  14.774
13170W        W86238  29.690  14.297   2.053
13171W        W86239  42.070   5.678   2.031
13172W        W86240  10.431  40.868   3.871
13173W        W86241  36.536  40.536   2.968
13174W        W86242   1.655   3.433  11.497
13175W        W86243  35.386  40.036   4.632
13176W        W86244  21.512  23.558   1.811
13177W        W86245  44.022   9.244   3.298
13178W        W86246  31.285   8.616   2.796
13179W        W86247  23.012  31.537  11.636
13180W        W86248  17.673  32.962   0.916
13181W        W86249   1.306   2.378  11.128
13182W        W86250   5.814  39.037  13.992
13183W        W86251   4.245  18.672  11.975
13184W        W86252  37.101  43.595   0.708
13185W        W86253  25.154  28.822   4.087
13186W        W86254  27.425   7.881   0.871
13187W        W86255  15.762  22.002  10.817
13188W        W86256  44.784   9.399   1.328
13189W        W86257  16.719  42.977   3.094
13190W        W86258  29.537  33.314  13.092
13191W        W86259   0.508   7.009  12.970
13192W        W86260  27.445   7.161  12.935
13193W        W86261   3.878   4.763  14.980
13194W        W86262  24.250  34.344  14.591
13195W        W86263   6.210  21.272   2.685
13196W        W86264  30.137  44.937   4.212
13197W        W86265   6.684  36.036  13.736
13198W        W86266  23.199  16.031  12.611
13199W        W86267  26.944  13.813  10.823
13200W        W86268   1.805  25.026  10.900
13201W        W86269  21.707   3.637   1.752
13202W        W86270   6.633  43.347   4.307
13203W        W86271  21.649   1.425   2.626
13204W        W86272   0.864  32.299   0.269
13205W        W86273  31.546  17.781  13.914
13206W        W86274  41.957  42.172   4.457
13207W        W86275  17.366  41.588   0.753
13208W        W86276  35.993   9.311   3.135
13209W        W86277  28.651  22.755   1.261
13210W        W86278  43.771   2.322   3.691
13211W        W86279  32.530  30.436   2.179
13212W        W86280  18.229  44.911   1.407
13213W        W86281  19.953  32.735   0.442
13214W        W86282  39.278  42.372  12.557
13215W        W86283  14.667   0.614   0.101
13216W        W86284  20.941  21.673  10.598
13217W        W86285  20.974  25.977   4.208
13218W        W86286  24.658  28.087  10.668
13219W        W86287  27.471  13.968   0.220
13220W        W86288  27.441  32.380  11.059
13221W        W86289   8.127  26.770   3.879
13222W        W86290  28.610  18.536   3.266
13223W        W86291  24.973  12.743  12.829
13224W        W86292  38.866  21.002  13.614
13225W        W86293  13.293   7.611  12.532
13226W        W86294  19.810  29.219  12.634
13227W        W86295  39.771  40.852  14.929
13228W        W86296  22.007  13.270   3.130
13229W        W86297   9.489  14.133  12.126
13230W        W86298   1.382  13.606  11.916
13231W        W86299  22.107   0.636   3.777
13232W        W86300  35.834  16.822  11.141
13233W        W86301  25.612   3.201  12.505
13234W        W86302  35.876  26.925   4.641
13235W        W86303  24.277   7.303  10.979
13236W        W86304   9.434   3.196  11.574
13237W        W86305  20.507  33.651   3.612
13238W        W86306   3.410  19.101  13.922
13239W        W86307  12.116  25.916  14.293
13240W        W86308  42.523  25.502   3.206
13241W        W86309   2.716  32.997  13.992
13242W        W86310  10.550  41.413  10.614
13243W        W86311  33.957  12.923  14.762
13244W        W86312  14.071  28.367   3.647
13245W        W86313  38.156  21.450  12.138
13246W        W86314   3.435  13.411   3.279
13247W        W86315   1.338  27.946  13.963
13248W        W86316  31.098  12.148   3.854
13249W        W86317  18.599  20.757   4.320
13250W        W86318  41.882  44.354  14.078
13251W        W86319  41.416  42.345  14.573
13252W        W86320   7.740   9.925  14.909
13253W        W86321  11.012  20.619   0.198
13254W        W86322   2.990  12.629  14.502
13255W        W86323  19.140  37.339  14.521
13256W        W86324   5.763  30.967  11.976
13257W        W86325  41.378   2.849  13.581
13258W        W86326  40.725  32.017   5.073
13259W        W86327  26.612  39.514   4.677
13260W        W86328   1.469   0.827  13.290
13261W        W86329  17.401  34.304  11.939
13262W        W86330   0.002  11.780   1.809
13263W        W86331  21.996  15.126  13.490
13264W        W86332   2.222  24.034   3.673
13265W        W86333  44.029  44.441  10.699
13266W        W86334  28.666  26.940  12.008
13267W        W86335  39.042  12.620  10.554
13268W        W86336  36.216   2.131   3.379
13269W        W86337  24.321  28.421   3.136
13270W        W86338  38.961  38.616  12.192
13271W        W86339  11.197  40.615  10.681
13272W        W86340  31.627  40.867  13.330
13273W        W86341  43.424  21.297  14.816
13274W        W86342  32.750  27.191  11.055
13275W        W86343   7.363   1.920  12.899
13276W        W86344  32.020  23.691   2.629
13277W        W86345  33.193  35.036   4.076
13278W        W86346   2.789  12.879   2.682
13279W        W86347  41.440  41.802  13.052
13280W        W86348  17.806  38.748  10.806
13281W        W86349  19.917  23.133  11.969
13282W        W86350  30.350  38.812   3.130
13283W        W86351  43.764   1.214   1.757
13284W        W86352  29.338  14.122   0.831
13285W        W86353  41.668  10.248  12.046
13286W        W86354   0.469  12.827  10.706
13287W        W86355  42.416   7.788  11.125
13288W        W86356  43.054   6.979  11.083
13289W        W86357   5.869  18.078  13.585
13290W        W86358  30.886  34.506   1.546
13291W        W86359  25.573  29.596   4.299
13292W        W86360  21.352   4.219  12.402
13293W        W86361  20.400  12.794  14.437
13294W        W86362  37.333   6.116   1.793
13295W        W86363   6.721   6.874  14.978
13296W        W86364  14.659  40.984  13.022
13297W        W86365  41.935  38.331   2.091
13298W        W86366  14.542  17.128   1.886
13299W        W86367   3.222   3.818  13.085
13300W        W86368  32.519  27.215  10.591
13301W        W86369  15.580  18.470   3.183
13302W        W86370  15.448  23.619   0.777
13303W        W86371  23.069  12.200   0.368
13304W        W86372  10.075  32.048  11.012
13305W        W86373  18.260   9.533   2.732
13306W        W86374  41.794  43.375  13.925
13307W        W86375  29.547   1.513   4.595
13308W        W86376  36.909  41.479   0.858
13309W        W86377  37.804  28.678  14.600
13310W        W86378   6.307   8.688   0.907
13311W        W86379  30.950  21.202   3.749
13312W        W86380  38.849  12.859  13.955
13313W        W86381  20.245  41.790  10.943
13314W        W86382  17.950  27.621   2.213
13315W        W86383  37.129  12.941  13.878
13316W        W86384  15.750  16.111   4.809
13317W        W86385   0.820  21.967   0.971
13318W        W86386  37.733  22.228  10.601
13319W        W86387  25.251  21.513  12.901
13320W        W86388  21.300  25.280   1.331
13321W        W86389  34.889   4.406   0.861
13322W        W86390   3.826  41.119   0.286
13323W        W86391  14.561  44.438   4.537
13324W        W86392   6.358  18.555   1.843
13325W        W86393  17.699  41.210   0.819
13326W        W86394  22.993  19.078  10.919
13327W        W86395  39.846  42.465   1.266
13328W        W86396  15.831  30.595   2.348
13329W        W86397   9.155   0.961  12.987
13330W        W86398  33.734  24.285   4.641
13331W        W86399  30.686  35.882   4.620
13332W        W86400  35.922  11.337   4.611
13333W        W86401   6.244   5.866  11.954
13334W        W86402  19.143   8.613   1.342
13335W        W86403  39.563  38.272   3.302
13336W        W86404  13.074  32.552   0.898
13337W        W86405  21.011  16.660   5.323
13338W        W86406  26.206  19.146  14.666
13339W        W86407  42.710  31.185   3.287
13340W        W86408  17.607  30.535   4.292
13341W        W86409  30.824  44.947  12.464
13342W        W86410   6.884  20.556   3.772
13343W        W86411  22.761  31.107   4.378
13344W        W86412  44.050  14.022   3.244
13345W        W86413  21.728  29.963   2.963
13346W        W86414   7.775  35.693   1.269
13347W        W86415   6.485  23.986  12.522
13348W        W86416  32.446  38.876  14.990
13349W        W86417  23.708  34.205  11.617
13350W        W86418   5.729  26.079   4.384
13351W        W86419  20.520  23.224   0.963
13352W        W86420  33.187  21.090   3.145
13353W        W86421  34.062  31.526  10.533
13354W        W86422  41.533  33.129  10.707
13355W        W86423  24.417  40.816  12.936
13356W        W86424   3.443  40.953   0.574
13357W        W86425  24.964  34.240   3.325
13358W        W86426   1.180   1.449   3.392
13359W        W86427  25.469   5.372  11.989
13360W        W86428  27.498  40.313   1.886
13361W        W86429   9.649  34.077  11.589
13362W        W86430  18.833  27.031   3.120
13363W        W86431   7.104  36.892  13.777
13364W        W86432  15.465  15.769   3.055
13365W        W86433  39.357  35.103  12.669
13366W        W86434  28.931  17.206   1.480
13367W        W86435  10.309  12.965   0.514
13368W        W86436  26.916   5.398   2.267
13369W        W86437  19.714  21.785   4.894
13370W        W86438  33.898   6.389   3.618
13371W        W86439  38.023  10.186  12.595
13372W        W86440  32.776  34.697   4.004
13373W        W86441  14.565  11.365  11.922
13374W        W86442  14.168  44.824   4.119
13375W        W86443  17.685  23.266  12.305
13376W        W86444  37.937  35.359   2.145
13377W        W86445  10.416   5.234   4.772
13378W        W86446  13.738   5.869   3.063
13379W        W86447   8.178  12.569  13.045
13380W        W86448  39.975  34.599  13.827
13381W        W86449  12.368  29.477   1.254
13382W        W86450  37.924   3.835   3.727
13383W        W86451  27.736  12.128   1.344
13384W        W86452  28.153  35.333   2.762
13385W        W86453  20.323   2.903  11.116
13386W        W86454  31.422  37.854  10.646
13387W        W86455  11.762  42.456  13.945
13388W        W86456  38.342   5.458  14.156
13389W        W86457  30.843  10.212   5.094
13390W        W86458   4.924  17.340  11.628
13391W        W86459  33.505  31.565  11.283
13392W        W86460  29.907  36.948  14.010
13393W        W86461   8.140  30.617   1.812
13394W        W86462  42.264  41.578   1.773
13395W        W86463  12.486  44.141   2.378
13396W        W86464  20.458  18.271   0.262
13397W        W86465  37.391  42.836   0.293
13398W        W86466  30.967   7.623  11.617
13399W        W86467  11.184  41.730   0.868
13400W        W86468   6.657   1.420  12.458
13401W        W86469  35.529  32.109  12.349
13402W        W86470  26.671  31.540  10.759
13403W        W86471  20.000  22.505  14.279
13404W        W86472   3.209  24.646  14.794
13405W        W86473   7.654  36.461   3.357
13406W        W86474   4.219   6.719  14.869
13407W        W86475  28.653  24.768  14.711
13408W        W86476  29.318  38.762   3.334
13409W        W86477  41.220  40.469  11.014
13410W        W86478   2.721   0.721  10.795
13411W        W86479   2.864   0.303  11.719
13412W        W86480   9.342  34.442   5.088
13413W        W86481  40.980  41.806  10.706
13414W        W86482   3.248  32.366  12.353
13415W        W86483  43.990  21.072   1.886
13416W        W86484  14.640  13.252  12.099
13417W        W86485  34.749   4.563  13.775
13418W        W86486  21.282   9.402   2.240
13419W        W86487   6.586   7.316   4.431
13420W        W86488  23.407  40.461  12.315
13421W        W86489   1.048  20.736  11.662
13422W        W86490  35.091  30.094   4.693
13423W        W86491   8.450  11.190  11.248
13424W        W86492  16.039  38.968   4.747
13425W        W86493  13.833  39.939  12.977
13426W        W86494   2.351  28.288   9.827
13427W        W86495   9.253  24.313  11.200
13428W        W86496   7.898  13.292   3.279
13429W        W86497  43.913  34.018  10.894
13430W        W86498  27.458  43.443  12.660
13431W        W86499  17.152  28.548   2.016
13432W        W86500   9.120   5.644   2.505
13433W        W86501  44.468  13.768   1.682
13434W        W86502  28.123  40.928  14.487
13435W        W86503  16.902  31.656   1.671
13436W        W86504  20.410  17.212  14.397
13437W        W86505  12.716  43.966   3.775
13438W        W86506  25.225   2.505  13.329
13439W        W86507   6.776  27.947  10.655
13440W        W86508  29.026  35.352   0.745
13441W        W86509  23.606  17.139  11.102
13442W        W86510  31.983  40.541  14.518
13443W        W86511  35.529   3.202  11.622
13444W        W86512   5.621  42.352  12.475
13445W        W86513  43.419  24.213   0.388
13446W        W86514   6.469   9.774   4.232
13447W        W86515  20.955  18.090   4.355
13448W        W86516  27.857  23.432  13.839
13449W        W86517   7.913  42.989  11.137
13450W        W86518   9.906  41.337   4.667
13451W        W86519  27.941  36.474   0.943
13452W        W86520   6.864  36.475  13.977
13453W        W86521  24.993  25.446  13.506
13454W        W86522   4.412  13.414   3.609
13455W        W86523  26.436  27.373   2.685
13456W        W86524  21.107  37.392  11.029
13457W        W86525  29.958   8.533   1.803
13458W        W86526   0.461   0.189  13.942
13459W        W86527  42.805  26.085   0.412
13460W        W86528  34.894  25.527  14.321
13461W        W86529  36.034  22.832  12.918
13462W        W86530  21.032  17.572  13.221
13463W        W86531  17.192  37.054   3.217
13464W        W86532  12.189  25.985   0.353
13465W        W86533   2.343  33.923  12.132
13466W        W86534  38.166  13.218   1.141
13467W        W86535  18.973  20.126   2.230
13468W        W86536  31.826  28.431   3.400
13469W        W86537   0.072  17.564  11.747
13470W        W86538   4.285  32.480   0.469
13471W        W86539  29.877  29.618  13.939
13472W        W86540  36.055   2.758  14.586
13473W        W86541  34.946   1.459   2.183
13474W        W86542  28.846  10.985   5.479
13475W        W86543  16.325  24.386  13.594
13476W        W86544  14.324  12.827  13.540
13477W        W86545   7.496   5.634  13.440
13478W        W86546   3.794  27.932  10.694
13479W        W86547  11.943  27.501  14.303
13480W        W86548   8.816  14.973   4.200
13481W        W86549  43.143  16.793  12.136
13482W        W86550  44.901  32.162  10.831
13483W        W86551  28.203   1.592   0.888
13484W        W86552  39.532   9.433   1.684
13485W        W86553  21.928  39.301   4.446
13486W        W86554  35.839   8.443   3.277
13487W        W86555  35.636  44.374   4.204
13488W        W86556  15.275  32.626  12.938
13489W        W86557  14.585  37.039   3.904
13490W        W86558   3.033   6.388  12.420
13491W        W86559  38.012  13.131   2.931
13492W        W86560   7.679  21.979   1.799
13493W        W86561  38.835  15.310  13.817
13494W        W86562  39.304  23.629   1.779
13495W        W86563  42.323  44.696  10.253
13496W        W86564   4.452  27.632   1.919
13497W        W86565  22.784   3.864  13.121
13498W        W86566  44.027  31.616   0.031
13499W        W86567  30.523  22.187   0.065
13500W        W86568  22.181  22.217  11.059
13501W        W86569  15.272  16.074  12.975
13502W        W86570  26.020  37.795   4.112
13503W        W86571  22.189  14.555   2.152
13504W        W86572  13.794  29.992   3.756
13505W        W86573   5.979  16.076  12.837
13506W        W86574  39.101   7.168   3.139
13507W        W86575  41.081  18.189   1.608
13508W        W86576  13.756   1.886   4.743
13509W        W86577  44.557  25.732  11.533
13510W        W86578  34.645  43.361  11.566
13511W        W86579  35.416  20.634   2.990
13512W        W86580  44.742  15.178  13.465
13513W        W86581   1.280  20.497   0.987
13514W        W86582  18.814   3.914  13.086
13515W        W86583  40.134   4.230   1.673
13516W        W86584  41.527  23.962   1.893
13517W        W86585  41.354  39.524  10.965
13518W        W86586  25.652   7.253  11.481
13519W        W86587   4.930  20.805   2.199
13520W        W86588  42.506  25.225  12.911
13521W        W86589  15.735  41.897  14.274
13522W        W86590  26.446   5.540   3.683
13523W        W86591  33.655  14.800  14.007
13524W        W86592  25.160  44.936   2.813
13525W        W86593  33.585   1.479   4.244
13526W        W86594  43.493  41.250   1.826
13527W        W86595  11.247   8.761   2.229
13528W        W86596  20.743  15.291   3.737
13529W        W86597  28.215   4.856   3.009
13530W        W86598  37.474  43.518   2.667
13531W        W86599  29.617  44.290  10.238
13532W        W86600   6.357  21.598  10.692
13533W        W86601  41.963  42.546   4.824
13534W        W86602  19.146   0.807  13.901
13535W        W86603  21.181  27.246   2.730
13536W        W86604   7.234  32.154  13.416
13537W        W86605  39.989  26.738   4.221
13538W        W86606  42.131   4.652   0.476
13539W        W86607  44.476  25.167  13.356
13540W        W86608  33.018  16.574   2.809
13541W        W86609  29.641   0.953  11.991
13542W        W86610  31.422  23.808   0.369
13543W        W86611  32.056  38.557  12.872
13544W        W86612  15.037  15.729   0.335
13545W        W86613  27.443  42.445  14.554
13546W        W86614  44.545  28.870  13.012
13547W        W86615  36.048   5.835  13.092
13548W        W86616   9.156  17.293  13.917
13549W        W86617  24.990  37.998  14.831
13550W        W86618  11.810  41.037  11.902
13551W        W86619  32.031  10.193  10.740
13552W        W86620  20.764   3.508   1.721
13553W        W86621  43.393  34.427  12.544
13554W        W86622   8.628   2.387   5.358
13555W        W86623  20.021   4.173   3.722
13556W        W86624  14.559  10.292   4.718
13557W        W86625  42.271   6.982  14.865
13558W        W86626  18.624   1.977   3.895
13559W        W86627   2.337  22.439  11.594
13560W        W86628  30.432  12.277   1.701
13561W        W86629   7.851  36.135   5.117
13562W        W86630   7.472   0.513   4.271
13563W        W86631  14.791   4.404  10.488
13564W        W86632  19.797  24.189   1.646
13565W        W86633  38.891   3.403  11.574
13566W        W86634   4.847  37.050   3.194
13567W        W86635   0.876  28.187  13.895
13568W        W86636  31.559  13.786   1.020
13569W        W86637  20.087   1.478   0.776
13570W        W86638   9.711   1.430  11.848
13571W        W86639   4.747  24.999   3.273
13572W        W86640  44.266  30.546   4.616
13573W        W86641  19.590  33.447   1.619
13574W        W86642  40.098  21.437  14.740
13575W        W86643   7.967  20.301   1.400
13576W        W86644  29.579  30.910   3.535
13577W        W86645  33.444  44.356  11.461
13578W        W86646  22.661   3.889   0.429
13579W        W86647  32.828   1.283  12.951
13580W        W86648  15.201  34.801   3.647
13581W        W86649  11.724   5.239  10.632
13582W        W86650  26.853   1.294   4.594
13583W        W86651  42.015  31.423  13.812
13584W        W86652  11.748  20.035  13.593
13585W        W86653  25.098  40.827   1.215
13586W        W86654  38.831  10.829   4.026
13587W        W86655  38.948  31.589   0.525
13588W        W86656  30.389  23.274  14.475
13589W        W86657  28.285   7.242   2.716
13590W        W86658   8.170  22.275  10.765
13591W        W86659  27.095   0.295   0.917
13592W        W86660  41.695  16.152  13.920
13593W        W86661  22.127  29.566   3.216
13594W        W86662  27.007  20.519   1.728
13595W        W86663  40.160  44.810  13.941
13596W        W86664   3.952  15.570   4.739
13597W        W86665  18.080  24.863   4.212
13598W        W86666  44.689  40.018  13.002
13599W        W86667  21.259   3.710  14.881
13600W        W86668   5.826  42.880  13.439
13601W        W86669  24.209  28.581  11.253
13602W        W86670  42.786  28.615  12.810
13603W        W86671  22.517   1.374  10.950
13604W        W86672  33.363  33.102   2.429
13605W        W86673   4.555  32.163  11.915
13606W        W86674  11.808   6.483  11.049
13607W        W86675  12.557  41.402   0.696
13608W        W86676  25.021  36.924  12.118
13609W        W86677  26.721  25.696   2.543
13610W        W86678  38.023  22.704   2.806
13611W        W86679  22.051  42.524  11.663
13612W        W86680  43.813  38.055  14.429
13613W        W86681   3.773  42.337   1.435
13614W        W86682  16.190   8.598  13.850
13615W        W86683  43.821   3.794   4.285
13616W        W86684  44.471  22.103  11.702
13617W        W86685  25.041  35.953   2.725
13618W        W86686  36.372  23.683   3.178
13619W        W86687   0.674  13.019  13.375
13620W        W86688  34.148   1.810  11.500
13621W        W86689  26.118   5.397   2.774
13622W        W86690   0.907  43.392  12.953
13623W        W86691  15.326   2.888  14.661
13624W        W86692   1.903   9.312   0.723
13625W        W86693  13.633  30.431  14.769
13626W        W86694   8.214  17.111  10.773
13627W        W86695  14.792  31.019   0.867
13628W        W86696  33.591  34.993   4.406
13629W        W86697  10.263  31.985  11.484
13630W        W86698  29.900  24.724   1.722
13631W        W86699  18.578  38.083   2.092
13632W        W86700  36.875   0.868  14.847
13633W        W86701  19.632   3.332  11.486
13634W        W86702  11.394  30.607  13.003
13635W        W86703  15.448  22.089  11.967
13636W        W86704  13.728  43.934   2.182
13637W        W86705   7.000  35.332   4.669
13638W        W86706  44.520  24.739   3.121
13639W        W86707  43.223  37.058  11.610
13640W        W86708  15.769  16.009   3.383
13641W        W86709  18.202  44.004  12.089
13642W        W86710  34.569   8.399  12.593
13643W        W86711  27.467  15.188   0.309
13644W        W86712  41.824  33.216  13.394
13645W        W86713   3.408   4.450   3.325
13646W        W86714  17.303  26.039  14.708
13647W        W86715  32.752  16.906  11.522
13648W        W86716  41.047  17.322   1.791
13649W        W86717  26.172   0.122  13.889
13650W        W86718  38.283  15.321  13.845
13651W        W86719  15.156  27.045   3.966
13652W        W86720   5.495  37.292  11.547
13653W        W86721  38.487  13.636   1.130
13654W        W86722  44.583  22.121   0.424
13655W        W86723  20.605  42.491   4.941
13656W        W86724   0.043  44.230   3.086
13657W        W86725  37.256  12.876  11.168
13658W        W86726  32.073  11.270   1.094
13659W        W86727  10.106  15.645  11.100
13660W        W86728  23.187  18.530   0.383
13661W        W86729  26.647  10.140   2.207
13662W        W86730  12.069   8.482  12.433
13663W        W86731  39.342  18.819  10.378
13664W        W86732  33.501  40.956  12.949
13665W        W86733  35.973  41.764   1.188
13666W        W86734  36.986  40.794   3.748
13667W        W86735   2.496  26.576   4.505
13668W        W86736  24.024  43.475  12.461
13669W        W86737  41.884  16.817  10.186
13670W        W86738  36.843   4.947   1.339
13671W        W86739  10.436  30.355  12.828
13672W        W86740  13.558   2.448  11.706
13673W        W86741  42.270  25.043   3.152
13674W        W86742  17.480  13.748  11.880
13675W        W86743  42.419  32.145  13.274
13676W        W86744  18.079  30.061  14.427
13677W        W86745  41.436  31.783   3.356
13678W        W86746  20.971   8.861  13.280
13679W        W86747   0.703   3.883   1.425
13680W        W86748  30.886   5.748   0.021
13681W        W86749  42.833  31.095   1.614
13682W        W86750  33.821  42.915   5.014
13683W        W86751  15.864  22.704   3.702
13684W        W86752  40.065  23.708  10.749
13685W        W86753  21.998  41.748   3.805
13686W        W86754  40.596  12.706   0.240
13687W        W86755   5.718  15.639   4.374
13688W        W86756  41.289   8.765  14.415
13689W        W86757  24.473  14.808  11.125
13690W        W86758   3.416   3.255  14.853
13691W        W86759  34.988  24.400  13.648
13692W        W86760  42.522  39.524  12.963
13693W        W86761  24.208  21.075  14.499
13694W        W86762   9.626   3.962  12.592
13695W        W86763  40.427  35.828  13.792
13696W        W86764   5.456  14.255   3.152
13697W        W86765  42.581   2.687   3.499
13698W        W86766  28.975  13.151   3.541
13699W        W86767  40.661  14.725  12.893
13700W        W86768  26.131   5.544  12.421
13701W        W86769  15.673  33.121   0.831
13702W        W86770  17.234   9.865  11.116
13703W        W86771  21.207  43.442   1.607
13704W        W86772  41.076   2.635   4.649
13705W        W86773  34.417  43.365   3.077
13706W        W86774  13.309  11.680  11.635
13707W        W86775  35.346  22.725   2.761
13708W        W86776  22.773  22.762   2.864
13709W        W86777  14.085  32.968  11.166
13710W        W86778  39.346   6.190   2.633
13711W        W86779  10.777  44.968  10.928
13712W        W86780   0.318  28.937   2.274
13713W        W86781  43.941   6.035  11.558
13714W        W86782   9.878  32.952  12.568
13715W        W86783  21.483  32.405   2.907
13716W        W86784   8.226  17.350   1.906
13717W        W86785   7.791   7.328   3.769
13718W        W86786  18.503  24.152   1.404
13719W        W86787  11.587  12.725   0.038
13720W        W86788  39.936  26.359   1.417
13721W        W86789  38.801  25.424   0.858
13722W        W86790  36.171   1.844   2.798
13723W        W86791  34.314  32.102   1.384
13724W        W86792  34.109  26.710   3.280
13725W        W86793  43.871   3.366   1.198
13726W        W86794  23.213   3.105  13.319
13727W        W86795  28.009   0.185  13.367
13728W        W86796  11.908   5.926   3.713
13729W        W86797  42.480  33.367  11.500
13730W        W86798  23.564  30.438   0.437
13731W        W86799   9.179  34.565   3.172
13732W        W86800  24.513  40.833  11.052
13733W        W86801  38.476  14.032  13.511
13734W        W86802  41.728  27.464  12.806
13735W        W86803  42.228   6.443  11.233
13736W        W86804  20.681  26.866  10.562
13737W        W86805   2.418  35.921  10.566
13738W        W86806  14.861   1.945   1.724
13739W        W86807  42.037  26.960  10.749
13740W        W86808   9.626  16.882   2.801
13741W        W86809  24.600   6.658  13.939
13742W        W86810  40.808   6.183   2.868
13743W        W86811  18.017  29.656  14.764
13744W        W86812   0.883   8.706   3.307
13745W        W86813   8.315  41.297  14.557
13746W        W86814   9.707  29.947  13.797
13747W        W86815  43.973   5.415  14.406
13748W        W86816  17.037  10.643  10.659
13749W        W86817  12.269   6.935  12.520
13750W        W86818  44.834   5.138  12.380
13751W        W86819   0.631   5.134   3.725
13752W        W86820  25.687   2.434  14.818
13753W        W86821   7.401  22.281   0.830
13754W        W86822  40.166  14.816  12.819
13755W        W86823   9.713   5.631  13.788
13756W        W86824  34.884  31.675  11.101
13757W        W86825  36.358   5.960  14.397
13758W        W86826   0.820  30.418  11.561
13759W        W86827  16.742  18.045   3.765
13760W        W86828  22.075  28.277   1.883
13761W        W86829   9.386  41.526   4.610
13762W        W86830  30.410  43.353   1.263
13763W        W86831  25.663  41.867  10.824
13764W        W86832  39.526  43.746   2.197
13765W        W86833  21.095  37.820   2.252
13766W        W86834   4.853   7.300  13.808
13767W        W86835  32.662  16.160   1.671
13768W        W86836   2.501   8.915   1.319
13769W        W86837  41.870  22.610   4.817
13770W        W86838  11.424  37.306  12.448
13771W        W86839  14.871  33.227  11.507
13772W        W86840  40.350   8.920  11.821
13773W        W86841  22.097   9.926   1.429
13774W        W86842  33.028  24.980   4.086
13775W        W86843  40.909   9.320   4.685
13776W        W86844  37.801  27.621   0.859
13777W        W86845  10.936  33.857   0.511
13778W        W86846  22.690  42.567  10.647
13779W        W86847  12.687  27.222   0.849
13780W        W86848  43.717  13.642  13.569
13781W        W86849  43.095  34.112   4.170
13782W        W86850   5.771  15.611   4.903
13783W        W86851   7.064   3.349   2.529
13784W        W86852  24.822  19.595   1.523
13785W        W86853  21.711  14.412   1.979
13786W        W86854   6.423  29.124  13.812
13787W        W86855   3.844  42.564  10.917
13788W        W86856  31.533  11.404  14.210
13789W        W86857  26.492  16.701   3.625
13790W        W86858   3.845  29.514   1.884
13791W        W86859  15.834   7.628   3.800
13792W        W86860  15.120  28.563   4.861
13793W        W86861  41.912  41.981  12.860
13794W        W86862   5.573  32.296   3.356
13795W        W86863  27.761   1.572  14.387
13796W        W86864   7.950  34.111   1.224
13797W        W86865   0.379   1.311   1.931
13798W        W86866  26.993  22.069   0.345
13799W        W86867   6.351  35.457   0.298
13800W        W86868  22.537  41.138   3.667
13801W        W86869  38.321  41.157   3.816
13802W        W86870   0.242  40.165  13.492
13803W        W86871  22.230   6.434   4.858
13804W        W86872  24.218  31.097   3.572
13805W        W86873  17.833  13.331  11.991
13806W        W86874  20.986  14.527  14.797
13807W        W86875   1.892  23.160  13.613
13808W        W86876   0.428  29.738  12.951
13809W        W86877  35.130  31.424   2.122
13810W        W86878   0.766  13.537   3.173
13811W        W86879  18.136  14.314  13.926
13812W        W86880  25.295   0.032   4.586
13813W        W86881  31.569  19.150  11.538
13814W        W86882   1.454  34.532  13.815
13815W        W86883  41.957  31.168   2.767
13816W        W86884  35.106  30.637  14.735
13817W        W86885  40.474   0.192  12.838
13818W        W86886  17.709  15.467   0.302
13819W        W86887  35.097   0.180  10.668
13820W        W86888  33.891   6.319  10.668
13821W        W86889   8.663  31.150   3.467
13822W        W86890   0.979  30.968   4.773
13823W        W86891  29.863  36.978   0.721
13824W        W86892  11.270  36.024   3.397
13825W        W86893  22.699  41.604  12.175
13826W        W86894   0.335  16.693   4.475
13827W        W86895  15.521   7.842  12.213
13828W        W86896  41.803  32.546  14.986
13829W        W86897  42.239  31.422   3.160
13830W        W86898   4.463  42.855   0.977
13831W        W86899  30.506  13.614   3.642
13832W        W86900   6.713  24.596   0.008
13833W        W86901  41.479   4.241   1.330
13834W        W86902  31.944  41.919   1.476
13835W        W86903  24.407   9.839   1.799
13836W        W86904  33.430  22.067   1.059
13837W        W86905  28.552  11.858  12.744
13838W        W86906  25.821  24.226   2.765
13839W        W86907  40.400   5.349   1.820
13840W        W86908  34.928  13.723  14.936
13841W        W86909  18.585  31.377   4.387
13842W        W86910  27.822  17.049  13.506
13843W        W86911   1.260  27.654   4.161
13844W        W86912  13.885   0.335  12.010
13845W        W86913  36.632  22.185  11.545
13846W        W86914   6.129  23.626  12.441
13847W        W86915  41.508  39.940  13.537
13848W        W86916  31.003   1.753   1.453
13849W        W86917  27.995  29.893  13.907
13850W        W86918   1.435   7.849  11.555
13851W        W86919  35.298  34.033  14.968
13852W        W86920  23.498  41.807  12.500
13853W        W86921   7.372   9.627  11.391
13854W        W86922  18.232  41.833   1.404
13855W        W86923  36.450   8.198   1.966
13856W        W86924  12.811  34.113  14.797
13857W        W86925   5.337  21.085   4.103
13858W        W86926  43.867   4.711   4.307
13859W        W86927  42.394  26.950  12.473
13860W        W86928  20.791  16.643  12.146
13861W        W86929  18.560  29.637  13.007
13862W        W86930  38.096   6.471   4.891
13863W        W86931  29.208  25.423   4.140
13864W        W86932  34.119  42.043   1.720
13865W        W86933  22.515  26.201   1.312
13866W        W86934  30.955  36.552   3.397
13867W        W86935  31.516   3.945   3.323
13868W        W86936  15.281  34.476   1.884
13869W        W86937  43.964  33.533  11.713
13870W        W86938  33.470   1.617   2.360
13871W        W86939   1.451  19.311   4.060
13872W        W86940  39.012  13.569   1.325
13873W        W86941  17.159  20.952  12.159
13874W        W86942   8.419  31.487   3.773
13875W        W86943   6.170  38.779  13.315
13876W        W86944   0.522  24.045  14.452
13877W        W86945   2.732  27.066   3.281
13878W        W86946  11.247   7.460   0.452
13879W        W86947  38.603  37.580  11.441
13880W        W86948   3.009  32.562   4.075
13881W        W86949  41.122  26.675  13.922
13882W        W86950  33.561  39.313  14.762
13883W        W86951  20.586  39.551  14.654
13884W        W86952  25.989   5.247   4.544
13885W        W86953  36.124  36.404   4.574
13886W        W86954  40.429  21.544   1.333
13887W        W86955  16.759  23.094   1.612
13888W        W86956  43.477  37.555   0.276
13889W        W86957  15.108  25.740  11.290
13890W        W86958  39.903   6.426  13.777
13891W        W86959  18.299   7.780   2.866
13892W        W86960  26.596  30.062   2.661
13893W        W86961  38.967  29.644   0.432
13894W        W86962  26.219  34.610  10.696
13895W        W86963  34.120   3.223  11.538
13896W        W86964  22.774  25.121  12.115
13897W        W86965  12.882  18.232   5.041
13898W        W86966   0.927  40.482  14.118
13899W        W86967  29.310  32.206  11.038
13900W        W86968   0.192  36.981   1.365
13901W        W86969   5.384  37.017  14.710
13902W        W86970  17.236  27.198   4.890
13903W        W86971  12.847  14.170   1.348
13904W        W86972  21.916  26.440  10.975
13905W        W86973  22.388  25.220  12.450
13906W        W86974   1.460  20.201   2.847
13907W        W86975  31.586  42.032  14.642
13908W        W86976  28.963   9.789   2.060
13909W        W86977  28.319   1.849   9.793
13910W        W86978  15.100  39.372  13.768
13911W        W86979   1.276  43.722  14.211
13912W        W86980  22.754   9.687  14.940
13913W        W86981  20.350  38.456   4.132
13914W        W86982  26.733   6.835   1.211
13915W        W86983  34.353  23.609  12.535
13916W        W86984  23.439  30.028  12.036
13917W        W86985  20.172   3.942  13.132
13918W        W86986   5.953  22.287   0.556
13919W        W86987   8.794  16.021  12.140
13920W        W86988  20.178  34.476   2.598
13921W        W86989   5.293  30.495   4.736
13922W        W86990  13.678  39.970  11.909
13923W        W86991  16.683  13.555   2.563
13924W        W86992   3.381   6.709   2.687
13925W        W86993  12.160  15.113   4.576
13926W        W86994  43.059  17.065  13.464
13927W        W86995  11.670  18.536   3.383
13928W        W86996   4.714  38.941   0.169
13929W        W86997  37.316   9.288   3.849
13930W        W86998  23.471  37.807   3.725
13931W        W86999  28.620  33.932  13.178
13932W        W87000   5.869  44.484  11.196
13933W        W87001  31.374   9.345   3.609
13934W        W87002  33.103  20.289  12.406
13935W        W87003  35.964  25.034  12.875
13936W        W87004  24.999  38.910  12.408
13937W        W87005   8.274  40.303   3.351
13938W        W87006  13.597   5.148   0.438
13939W        W87007  38.047   8.813  12.840
13940W        W87008  23.009  19.714   2.894
13941W        W87009   1.695  28.003   3.323
13942W        W87010  22.273  29.132  10.232
13943W        W87011  29.375  16.753   4.201
13944W        W87012  19.560  16.827   2.772
13945W        W87013  29.168  17.581   1.121
13946W        W87014  10.094  31.535  11.640
13947W        W87015  33.567  39.971  14.212
13948W        W87016  23.234  11.390   1.933
13949W        W87017  29.454   8.809  12.886
13950W        W87018   6.749  27.551   4.030
13951W        W87019   2.835  27.259   4.475
13952W        W87020  36.607  36.236  10.492
13953W        W87021   7.210   4.956  11.842
13954W        W87022  16.617  27.962   3.411
13955W        W87023   0.424   1.277  14.800
13956W        W87024  30.751  42.507  14.664
13957W        W87025  26.242  34.350  13.976
13958W        W87026   7.706  14.600  11.072
13959W        W87027  32.598  19.896   0.771
13960W        W87028  24.615  16.543   3.047
13961W        W87029  44.920  14.086   3.262
13962W        W87030  20.513  29.131  13.869
13963W        W87031  18.796   6.491   0.649
13964W        W87032  28.990  30.435  14.449
13965W        W87033  43.337  44.960   4.114
13966W        W87034  16.774  10.945   3.227
13967W        W87035  44.407  38.104   3.611
13968W        W87036   7.522  23.054  14.528
13969W        W87037  43.355  24.259  13.309
13970W        W87038  16.207  31.420  13.172
13971W        W87039  13.431  11.541   3.228
13972W        W87040  34.487  10.383   0.253
13973W        W87041   2.891  16.090  13.543
13974W        W87042  19.680  23.744  13.454
13975W        W87043  28.212  34.647  14.527
13976W        W87044  41.351  20.576   0.835
13977W        W87045  33.479   4.901   1.739
13978W        W87046  42.449  42.438   1.177
13979W        W87047  39.861  29.549   4.159
13980W        W87048  33.581  44.407  14.854
13981W        W87049   2.317  24.601  14.308
13982W        W87050  41.596  16.590  11.976
13983W        W87051  22.086  37.407  12.078
13984W        W87052   8.004  32.185  14.979
13985W        W87053   0.327   7.309  10.691
13986W        W87054  30.429  20.353   2.886
13987W        W87055   9.401   0.293   0.478
13988W        W87056   3.417  28.253  10.894
13989W        W87057  31.021   0.389   3.132
13990W        W87058  18.049   9.330  11.134
13991W        W87059  35.063  22.395   3.310
13992W        W87060   4.311  13.317  10.731
13993W        W87061  30.109  42.362  11.277
13994W        W87062  43.291  13.084  12.158
13995W        W87063   4.311  22.138  14.995
13996W        W87064   5.708  31.158  13.877
13997W        W87065  29.526  39.372   0.783
13998W        W87066  23.153   1.198   1.873
13999W        W87067   8.311   3.780  10.435
14000W        W87068  10.852   8.377  13.026
14001W        W87069   0.670  35.613  13.849
14002W        W87070  13.859  43.240  11.084
14003W        W87071  41.442   1.584   0.505
14004W        W87072  31.080  15.819   3.315
14005W        W87073   4.498  28.966   2.909
14006W        W87074  10.214  25.547  12.920
14007W        W87075   8.244  41.527   0.008
14008W        W87076   3.818  25.286  12.094
14009W        W87077   0.903  17.128  13.842
14010W        W87078   8.153  39.310  13.491
14011W        W87079  25.059  38.866   3.218
14012W        W87080  15.673  36.295   5.278
14013W        W87081  36.032   0.959  10.871
14014W        W87082   8.848  18.294  12.492
14015W        W87083  31.414  42.287  12.878
14016W        W87084  41.955  25.082  12.608
14017W        W87085  14.581   5.140  14.438
14018W        W87086  40.796  44.041  10.962
14019W        W87087  11.193  15.843   1.709
14020W        W87088   9.758  32.482  13.420
14021W        W87089   1.884  42.698  13.298
14022W        W87090   3.360  35.965   0.424
14023W        W87091  27.258  39.839   1.294
14024W        W87092  31.903  38.978   1.846
14025W        W87093  23.990   8.400   0.772
14026W        W87094  29.484  40.297  11.054
14027W        W87095   6.871   1.427  13.827
14028W        W87096  33.344   2.547  13.904
14029W        W87097   4.825  34.474  14.408
14030W        W87098   9.691   1.294   3.707
14031W        W87099   7.488  24.101  14.964
14032W        W87100  12.929  22.068  12.459
14033W        W87101  35.243  19.655   3.618
14034W        W87102   8.469  10.283   1.622
14035W        W87103  37.967  33.880  11.167
14036W        W87104  30.076  33.413   4.882
14037W        W87105   7.504  14.810  14.550
14038W        W87106   8.799   5.941  11.521
14039W        W87107  29.403  33.107  11.302
14040W        W87108  18.356  11.852   4.150
14041W        W87109  25.352   7.273   2.236
14042W        W87110  11.221  43.993   2.797
14043W        W87111  36.275  13.781  11.978
14044W        W87112  17.707  11.762   2.309
14045W        W87113  33.846  30.980  12.332
14046W        W87114  20.611  26.369  10.398
14047W        W87115  23.754  12.507  12.918
14048W        W87116   4.680  30.500   2.923
14049W        W87117  34.514   4.743  12.917
14050W        W87118  32.423  36.552   2.301
14051W        W87119  39.747  43.335  12.073
14052W        W87120   7.436  30.794  13.190
14053W        W87121  11.294  41.726  11.561
14054W        W87122  30.084  13.164  14.283
14055W        W87123  39.627  32.451   4.976
14056W        W87124  36.390  34.991  13.442
14057W        W87125  41.269   2.183  13.871
14058W        W87126  20.080  13.565  10.659
14059W        W87127  20.065  21.523  13.824
14060W        W87128  41.871   7.652  12.420
14061W        W87129  32.980  20.889  11.095
14062W        W87130   3.969  38.064   1.738
14063W        W87131  20.480  40.800  12.344
14064W        W87132  19.452  27.322   2.323
14065W        W87133  25.173  17.845  10.645
14066W        W87134  26.230  34.883  11.142
14067W        W87135   7.882  30.531  13.008
14068W        W87136   3.509  30.943   4.753
14069W        W87137  10.320  12.343   4.980
14070W        W87138  22.109  41.409   1.859
14071W        W87139   3.838  40.385   4.622
14072W        W87140   1.685  26.474  13.802
14073W        W87141  34.799   6.841  14.679
14074W        W87142  23.397  10.716  12.979
14075W        W87143  44.480  43.173  13.022
14076W        W87144  25.359  15.113  13.564
14077W        W87145  37.970   8.254  14.315
14078W        W87146  26.183   3.912   2.826
14079W        W87147  24.812  32.012   1.452
14080W        W87148  19.656  42.919   3.319
14081W        W87149  21.653  31.179  12.500
14082W        W87150  42.056  39.365   4.787
14083W        W87151  28.778  41.486  12.938
14084W        W87152  41.912  19.508   2.666
14085W        W87153  24.640  24.767  10.761
14086W        W87154  22.767  40.495   2.634
14087W        W87155   0.221  36.109  12.132
14088W        W87156  14.867   7.079   2.460
14089W        W87157  31.606  29.411  14.336
14090W        W87158  14.235  31.176  12.436
14091W        W87159  35.567   1.079   2.661
14092W        W87160  19.126   7.942  13.457
14093W        W87161  22.607  41.608   0.665
14094W        W87162   1.875   6.354   1.362
14095W        W87163  30.550  10.699   3.255
14096W        W87164  12.691   1.016  13.077
14097W        W87165  37.138   5.219   0.280
14098W        W87166   9.903  43.997   0.616
14099W        W87167  20.283  25.164  14.549
14100W        W87168   0.992  43.800   0.407
14101W        W87169  34.184   8.081   1.772
14102W        W87170  27.922  18.750   4.463
14103W        W87171  26.933  42.377  12.042
14104W        W87172   5.605  32.659   2.438
14105W        W87173   8.609  37.192  12.619
14106W        W87174  21.096  32.056   3.944
14107W        W87175  44.995  24.699   2.494
14108W        W87176  11.141  37.503   0.935
14109W        W87177  13.878  30.539  12.017
14110W        W87178  39.365  28.192  13.456
14111W        W87179  23.948  15.467   1.361
14112W        W87180   3.801  29.502  10.608
14113W        W87181  32.117  18.168   2.421
14114W        W87182  13.450  33.426  12.426
14115W        W87183  34.505  32.687  14.349
14116W        W87184  16.672  35.866  12.516
14117W        W87185  31.490  15.111   4.532
14118W        W87186   9.338  22.939   4.548
14119W        W87187  11.768  12.155  12.860
14120W        W87188  24.648  42.678  12.642
14121W        W87189  38.402  41.127   0.992
14122W        W87190  24.204  43.768   0.982
14123W        W87191  30.604  40.031   0.296
14124W        W87192  25.511  37.827  10.410
14125W        W87193  25.494  38.862   4.710
14126W        W87194   6.826  26.490   0.794
14127W        W87195   6.126  39.935  14.832
14128W        W87196  29.027  34.867  11.958
14129W        W87197  38.030  22.725  13.116
14130W        W87198   0.978  30.335   2.125
14131W        W87199  10.828   9.856  12.034
14132W        W87200  14.394  15.564   2.400
14133W        W87201  15.725  14.636   4.667
14134W        W87202  33.547  23.236   3.303
14135W        W87203  21.549   7.168  14.215
14136W        W87204  33.280  12.771   3.323
14137W        W87205  21.955  26.530   4.009
14138W        W87206   1.989  27.501   3.223
14139W        W87207  28.614   1.922  14.919
14140W        W87208  11.591  41.356   0.878
14141W        W87209  24.164   2.972  13.730
14142W        W87210  42.902  21.568   3.068
14143W        W87211  12.697  35.331   0.218
14144W        W87212  31.149  11.494   2.904
14145W        W87213  40.985  42.234   2.767
14146W        W87214  33.978  15.034  14.408
14147W        W87215   5.280  32.654  10.606
14148W        W87216   3.991  12.820   1.807
14149W        W87217  15.084  43.754  13.196
14150W        W87218   3.231  30.628  12.008
14151W        W87219  28.579  26.980   3.209
14152W        W87220  15.632  18.310  13.140
14153W        W87221  23.746  26.173  13.156
14154W        W87222   7.198  43.310  12.836
14155W        W87223   7.856  42.002   2.192
14156W        W87224  30.486  19.965   2.193
14157W        W87225  35.346   2.448  11.189
14158W        W87226   1.031  20.155   1.769
14159W        W87227  39.270  39.530   3.638
14160W        W87228  30.616   6.950   0.437
14161W        W87229  11.578  10.366   0.942
14162W        W87230   4.924   5.043  13.280
14163W        W87231  34.424  42.994  12.516
14164W        W87232  35.133   0.867   1.380
14165W        W87233  30.453  31.120   4.157
14166W        W87234   0.386  33.861   0.888
14167W        W87235  15.707  18.516  14.082
14168W        W87236  43.894   6.207  13.013
14169W        W87237   4.742   7.231   2.834
14170W        W87238  13.094  11.647  11.172
14171W        W87239   2.025  20.044   1.986
14172W        W87240  17.313  10.722  11.950
14173W        W87241  23.460  43.894   0.610
14174W        W87242  41.859  40.666   1.421
14175W        W87243   4.427  29.869   4.737
14176W        W87244  30.018  34.638   3.631
14177W        W87245  13.659  25.947  10.743
14178W        W87246  22.967  11.418  12.647
14179W        W87247   0.974  33.828  12.388
14180W        W87248   4.651  32.345   2.327
14181W        W87249  36.598  21.574   0.340
14182W        W87250  31.673   2.954  12.929
14183W        W87251  44.846  11.590  11.158
14184W        W87252   7.893  26.461  11.916
14185W        W87253  43.527  38.843  12.450
14186W        W87254  26.632   8.665  12.928
14187W        W87255  27.492  29.571   0.543
14188W        W87256  24.753  29.118   0.530
14189W        W87257  39.898   1.544  13.481
14190W        W87258  36.615  24.541  14.040
14191W        W87259  27.212  25.033   0.903
14192W        W87260  21.860  20.164   1.995
14193W        W87261  22.063  20.643   3.434
14194W        W87262   0.225  22.544   2.906
14195W        W87263  34.577  30.182   4.551
14196W        W87264  31.460   7.646  14.081
14197W        W87265   9.206  25.618   4.255
14198W        W87266   4.283  11.602  13.427
14199W        W87267   3.674   1.507  11.379
14200W        W87268  24.672  33.011   2.359
14201W        W87269  40.636  13.070  14.362
14202W        W87270  28.685  37.375   2.231
14203W        W87271  44.044   2.373  11.066
14204W        W87272  42.353  23.283  13.307
14205W        W87273  38.143  25.564  13.872
14206W        W87274  29.684  32.460  12.241
14207W        W87275   6.435  36.407  11.597
14208W        W87276   8.863   4.373   3.242
14209W        W87277  22.491  38.234   0.374
14210W        W87278  35.236   8.225  11.999
14211W        W87279  42.580  24.513  12.561
14212W        W87280  11.742  28.488  11.529
14213W        W87281   0.248   3.058  10.574
14214W        W87282  33.065   0.924   4.736
14215W        W87283   1.188  32.055  12.538
14216W        W87284  31.891  34.839   4.992
14217W        W87285  24.002  31.822  13.363
14218W        W87286  25.023  27.165   1.769
14219W        W87287   9.319  44.729   2.223
14220W        W87288  28.453  26.154   1.445
14221W        W87289  14.251  18.674  14.372
14222W        W87290   0.289  31.849   2.848
14223W        W87291  11.825  37.046   3.354
14224W        W87292  14.764  24.177  11.543
14225W        W87293  14.348  20.235   3.613
14226W        W87294  16.121   9.738   1.333
14227W        W87295  43.653  30.702   5.303
14228W        W87296  23.803  39.540  12.419
14229W        W87297  34.483  17.608  11.518
14230W        W87298  32.483  17.784   2.373
14231W        W87299  28.991  26.169  13.835
14232W        W87300  44.963  39.107   2.255
14233W        W87301   6.201  27.869   0.406
14234W        W87302  31.273  23.399   2.658
14235W        W87303   7.420  19.277   3.269
14236W        W87304  28.389  42.961   0.249
14237W        W87305  27.313  13.368   2.545
14238W        W87306   2.494  32.138   0.031
14239W        W87307  22.053  31.007  13.341
14240W        W87308   9.134   0.381   0.031
14241W        W87309  41.755  11.166  12.924
14242W        W87310  21.985   4.491   0.927
14243W        W87311  39.249   4.249  11.272
14244W        W87312  31.677   7.670   3.676
14245W        W87313  25.031  33.723   1.437
14246W        W87314   2.700  16.356   1.930
14247W        W87315  30.522   1.770   1.242
14248W        W87316  25.018   6.676   2.228
14249W        W87317  18.547   0.127   1.800
14250W        W87318   3.922  28.456  13.075
14251W        W87319  28.964  33.907  10.459
14252W        W87320  37.109  32.068   4.101
14253W        W87321  35.339   4.715  13.924
14254W        W87322  20.284  21.644   3.295
14255W        W87323  20.799  37.954  13.405
14256W        W87324  15.721  34.884   1.383
14257W        W87325  37.547  40.538  14.201
14258W        W87326  25.468  44.028   0.741
14259W        W87327  22.281  23.652   4.352
14260W        W87328   5.818  37.000   2.667
14261W        W87329  11.382   3.332   2.798
14262W        W87330  16.614  28.715   1.633
14263W        W87331  16.595  32.538   3.402
14264W        W87332  26.082  43.835   4.735
14265W        W87333  24.247  38.605  11.445
14266W        W87334  42.405  42.811  14.487
14267W        W87335  40.885   0.194   1.723
14268W        W87336   4.955  33.703   2.176
14269W        W87337   2.690  25.642  11.040
14270W        W87338  14.074  13.378   1.408
14271W        W87339  37.774  19.716   5.065
14272W        W87340  13.615  42.292   1.121
14273W        W87341  10.907  40.451   3.290
14274W        W87342  19.056  14.770   4.555
14275W        W87343  42.492   2.850   2.179
14276W        W87344   2.949  35.080  10.683
14277W        W87345  42.294  16.611   4.564
14278W        W87346   0.964   3.831   1.863
14279W        W87347  33.397  27.108   3.409
14280W        W87348  32.337   0.106  13.165
14281W        W87349  20.196  13.171   3.655
14282W        W87350  18.228  37.151  14.485
14283W        W87351   6.261  10.204   4.032
14284W        W87352   5.375  40.155  13.783
14285W        W87353  13.853  12.716   2.775
14286W        W87354   9.497  41.036   2.303
14287W        W87355  23.751  35.259  12.895
14288W        W87356  20.316  15.808  13.291
14289W        W87357  14.636  34.906  14.958
14290W        W87358   7.877  40.400  13.061
14291W        W87359  12.789  18.612   3.151
14292W        W87360  18.648  40.918  13.753
14293W        W87361  25.172  30.971  13.404
14294W        W87362  30.891  19.722   5.142
14295W        W87363   5.591   5.133  11.023
14296W        W87364   9.260  28.462  13.904
14297W        W87365  24.991  31.665   2.858
14298W        W87366   7.252  31.654   3.144
14299W        W87367  21.195   3.416   3.799
14300W        W87368  13.378   9.618  11.619
14301W        W87369   3.756  21.201  13.361
14302W        W87370   5.852  21.821   2.260
14303W        W87371  29.440   2.268  14.346
14304W        W87372  13.700  26.476   0.096
14305W        W87373  27.041  34.976  14.998
14306W        W87374  19.284  14.290  14.271
14307W        W87375  19.616  34.008   0.278
14308W        W87376  41.384  38.471   3.204
14309W        W87377  23.065  25.438  11.527
14310W        W87378   3.841  12.779   4.070
14311W        W87379  26.000  38.440   0.486
14312W        W87380  23.222   3.822   0.740
14313W        W87381  36.358   2.630   4.329
14314W        W87382   9.284  42.497   0.913
14315W        W87383  43.847  44.463   2.490
14316W        W87384  14.526   2.015  13.855
14317W        W87385  29.885  27.693  11.614
14318W        W87386  36.919  32.062   4.562
14319W        W87387  34.396  40.734  12.517
14320W        W87388  29.905  30.090  13.726
14321W        W87389   5.370  21.074  13.312
14322W        W87390  17.067  39.964  13.418
14323W        W87391   7.679  33.885   3.356
14324W        W87392  35.583  27.588   1.632
14325W        W87393  37.022  13.285  14.714
14326W        W87394  34.390  42.575   2.418
14327W        W87395  32.038  15.509   0.415
14328W        W87396  21.021   8.891  11.580
14329W        W87397   1.700  12.245   4.186
14330W        W87398  40.713  11.754   0.490
14331W        W87399  12.796  30.448   3.794
14332W        W87400  23.715  35.947   3.525
14333W        W87401  28.373   4.414  12.968
14334W        W87402   3.977  16.537   1.573
14335W        W87403  31.353   6.357  11.621
14336W        W87404  35.422  11.274   4.745
14337W        W87405  11.790   4.319   0.806
14338W        W87406  16.372  43.224  13.367
14339W        W87407  24.970  39.984  14.583
14340W        W87408  38.983  30.986   3.478
14341W        W87409   9.640   1.068   4.609
14342W        W87410   5.883   2.261   1.683
14343W        W87411  24.506  41.833  10.673
14344W        W87412  15.531  19.209   2.710
14345W        W87413  42.197   3.532  14.603
14346W        W87414  36.428   5.934  10.938
14347W        W87415  11.605   5.814   4.144
14348W        W87416  29.943  13.239  12.798
14349W        W87417  20.624  31.662   2.303
14350W        W87418   3.367  44.042   4.406
14351W        W87419  24.928  21.084   0.911
14352W        W87420  31.104  10.893  10.676
14353W        W87421   3.910  39.443   2.716
14354W        W87422  21.298  30.590  12.847
14355W        W87423   7.955  29.568   1.900
14356W        W87424   0.803  18.263  13.066
14357W        W87425  10.428  39.770   5.237
14358W        W87426  18.192  24.764   1.885
14359W        W87427  33.951  24.961   3.618
14360W        W87428  39.854   5.973  11.632
14361W        W87429  28.590  35.356   1.845
14362W        W87430  11.854  36.408  12.445
14363W        W87431   9.806  11.892  14.897
14364W        W87432   8.131  16.155  13.985
14365W        W87433   3.440  15.177  12.471
14366W        W87434  19.984  40.869   1.414
14367W        W87435  38.035  20.175  10.968
14368W        W87436  11.236  19.817  12.143
14369W        W87437  36.319  43.951   2.913
14370W        W87438  41.295  30.646   3.261
14371W        W87439   4.124  21.245  14.696
14372W        W87440  22.543   1.484  12.883
14373W        W87441  14.448  35.371  10.958
14374W        W87442   8.912  42.113  11.655
14375W        W87443  17.512  18.337  13.057
14376W        W87444  44.567  18.472   1.161
14377W        W87445  15.536   4.625   0.905
14378W        W87446   2.791  44.527  14.908
14379W        W87447  18.133  27.007   4.513
14380W        W87448  12.914  13.182   1.961
14381W        W87449   6.246  20.028  11.442
14382W        W87450  42.249  10.641   3.262
14383W        W87451  12.839   0.977   4.191
14384W        W87452  24.195  27.872   2.561
14385W        W87453  16.346  22.424  14.807
14386W        W87454  33.436  15.616  12.571
14387W        W87455  14.187  40.785  14.773
14388W        W87456   5.380  44.321   2.272
14389W        W87457  16.163  33.068   0.990
14390W        W87458  27.441   5.697  11.480
14391W        W87459  36.607  18.107   1.647
14392W        W87460  22.137  17.603   2.136
14393W        W87461  16.570  39.540   4.160
14394W        W87462  27.820   3.501  12.518
14395W        W87463  37.118  40.526   0.984
14396W        W87464   8.424  38.960   2.790
14397W        W87465  10.607  23.852   5.000
14398W        W87466  40.859  36.353   4.336
14399W        W87467  34.063  30.508   4.131
14400W        W87468   4.477  19.355  13.440
14401W        W87469  12.570   3.471   0.430
14402W        W87470   0.178   5.826  10.700
14403W        W87471  10.996   1.937  12.059
14404W        W87472  33.416  44.373  12.940
14405W        W87473  40.608   8.272  13.765
14406W        W87474  41.810  24.521  11.697
14407W        W87475  16.718  19.335  14.333
14408W        W87476  23.513   3.778   4.284
14409W        W87477  41.891  31.508  14.298
14410W        W87478  25.009   4.422  13.831
14411W        W87479   4.345  22.194   3.980
14412W        W87480  42.127   4.815  13.846
14413W        W87481  18.021  17.262  12.011
14414W        W87482  18.027  42.842  11.645
14415W        W87483   2.576  29.868  11.476
14416W        W87484   4.742   6.918   1.144
14417W        W87485  10.766  21.754   0.697
14418W        W87486  24.890  35.732  13.351
14419W        W87487  13.705  43.015   5.112
14420W        W87488   9.202  19.620   3.676
14421W        W87489  37.425  14.894  14.395
14422W        W87490   2.223   3.234  12.439
14423W        W87491  29.574   6.800  13.433
14424W        W87492  19.210  17.666  13.427
14425W        W87493  35.062  22.117   4.782
14426W        W87494  16.171   9.746   4.813
14427W        W87495  16.135  26.463   1.748
14428W        W87496   9.325  42.580   2.915
14429W        W87497   0.663  36.140  10.918
14430W        W87498  12.751  39.524   3.644
14431W        W87499  35.963   1.450  10.657
14432W        W87500   1.974  30.153   0.989
14433W        W87501   3.313  43.835  10.699
14434W        W87502  39.862  29.663  12.979
14435W        W87503  30.110   3.727   1.644
14436W        W87504   9.291  41.497   1.298
14437W        W87505  40.060  20.027  12.535
14438W        W87506  26.389  18.709   2.911
14439W        W87507   1.360  14.996   1.500
14440W        W87508  42.315  24.962  13.397
14441W        W87509  43.545  14.096  13.371
14442W        W87510   9.346   3.269   2.771
14443W        W87511  40.388   1.773  10.646
14444W        W87512  38.357  18.800  12.718
14445W        W87513   9.233  17.812  13.875
14446W        W87514   9.156   4.255  11.068
14447W        W87515   9.761   0.776   4.199
14448W        W87516  15.768  44.320  12.202
14449W        W87517  12.836  34.149   3.965
14450W        W87518  20.788  10.122   0.724
14451W        W87519   4.933   9.694  11.443
14452W        W87520  21.231  18.130  12.013
14453W        W87521   4.969   6.003   2.380
14454W        W87522  27.893  40.452  14.617
14455W        W87523  27.038   9.911   0.438
14456W        W87524  30.955  19.719  13.310
14457W        W87525  20.447   6.681  13.997
14458W        W87526   0.507  37.136  12.003
14459W        W87527  29.198   8.329  10.783
14460W        W87528   4.494   3.349  13.730
14461W        W87529  13.781   6.225   4.122
14462W        W87530  24.039   6.348  10.656
14463W        W87531  26.967  40.771   4.852
14464W        W87532  28.015  19.669  12.578
14465W        W87533  21.751  23.137   0.022
14466W        W87534  22.026   2.550  12.585
14467W        W87535   7.363   8.674  11.536
14468W        W87536  19.520  36.588  14.898
14469W        W87537  19.124  14.335   3.325
14470W        W87538  23.539   1.284  14.297
14471W        W87539   8.831   7.524   3.459
14472W        W87540   8.227   3.687  12.973
14473W        W87541  35.365  42.456  13.947
14474W        W87542  29.668  12.288   3.359
14475W        W87543  44.860  17.003   2.352
14476W        W87544  28.958  39.783   4.112
14477W        W87545  29.433  44.178  12.398
14478W        W87546  16.978  43.859  11.900
14479W        W87547  41.217  26.198  11.606
14480W        W87548   5.349  14.690  12.535
14481W        W87549  42.058  13.145  11.166
14482W        W87550   6.222  10.022   1.820
14483W        W87551  37.525  27.192   1.379
14484W        W87552  40.844   6.890   3.206
14485W        W87553  30.330  21.767   4.686
14486W        W87554   7.676  19.119   4.202
14487W        W87555   4.963  13.017   4.273
14488W        W87556  33.369  14.538   1.423
14489W        W87557  39.388  24.138  10.613
14490W        W87558   4.302  32.528  10.732
14491W        W87559   7.267  17.145  10.396
14492W        W87560  10.944   6.454  11.429
14493W        W87561  25.693  18.976   2.453
14494W        W87562   3.506  32.937  11.587
14495W        W87563  32.121  32.623   2.890
14496W        W87564  19.213  42.356   4.125
14497W        W87565   3.210   2.740   2.180
14498W        W87566  39.760   5.848   1.810
14499W        W87567  29.269  39.317   3.223
14500W        W87568  37.798  39.520  14.747
14501W        W87569   8.412  19.839   0.336
14502W        W87570  26.698  11.972   5.051
14503W        W87571   3.660  22.825  11.886
14504W        W87572   1.490  15.204   2.875
14505W        W87573  40.521   2.259   2.847
14506W        W87574  38.103  38.441  11.771
14507W        W87575  35.817  29.254  12.694
14508W        W87576  20.871  39.107   3.237
14509W        W87577   5.896  25.128   4.807
14510W        W87578  23.158  11.197   4.546
14511W        W87579   7.589  43.811  14.467
14512W        W87580  36.005  34.864  13.770
14513W        W87581  39.390  43.053   0.202
14514W        W87582  41.978   4.335  10.542
14515W        W87583   4.171   8.280   4.596
14516W        W87584  12.139  36.851   2.354
14517W        W87585  14.789   9.428   3.241
14518W        W87586  25.122   8.689  10.775
14519W        W87587  11.354  28.378   4.094
14520W        W87588   2.702  21.216   0.816
14521W        W87589  38.578  30.982  10.592
14522W        W87590  11.180   4.529  11.650
14523W        W87591   9.397  13.276   0.468
14524W        W87592  39.002   9.336  13.625
14525W        W87593  25.620  22.047  11.108
14526W        W87594  34.804  14.406  12.933
14527W        W87595  11.137  15.383   2.800
14528W        W87596   4.759  34.632   0.378
14529W        W87597  42.699  10.595  11.093
14530W        W87598   3.220  34.627   0.989
14531W        W87599   4.563  19.157   4.350
14532W        W87600  32.604  29.979   0.468
14533W        W87601  29.028  30.141   1.761
14534W        W87602  11.204  14.861   2.693
14535W        W87603  26.235  39.243  10.982
14536W        W87604  34.097   5.075   0.465
14537W        W87605  23.686  29.891   4.698
14538W        W87606  15.187  26.118  13.874
14539W        W87607   3.267   6.323   0.949
14540W        W87608  12.025   0.444   1.995
14541W        W87609  31.956  43.292   1.888
14542W        W87610   0.514  12.716   4.231
14543W        W87611   6.209  30.544  14.143
14544W        W87612  44.716  16.098   3.522
14545W        W87613  36.335  39.611   4.598
14546W        W87614   0.488  33.622  10.759
14547W        W87615  30.892  10.345  11.451
14548W        W87616  10.360   9.840   1.447
14549W        W87617  41.953   1.797  14.386
14550W        W87618  36.818  37.071   0.324
14551W        W87619   6.453  11.763   2.344
14552W        W87620  40.575   8.259   3.202
14553W        W87621  14.973   7.656   1.117
14554W        W87622  15.393  21.533   1.354
14555W        W87623  43.742  20.574   2.628
14556W        W87624  24.195   3.272  14.457
14557W        W87625   0.544  28.215  14.334
14558W        W87626  12.128  17.065  12.918
14559W        W87627  43.547  17.058   2.269
14560W        W87628  40.839  19.677   1.748
14561W        W87629  39.311   5.203  11.138
14562W        W87630  43.453   2.156  10.566
14563W        W87631  13.358  19.584   0.867
14564W        W87632  21.659   9.708  14.826
14565W        W87633  24.200  24.155  11.982
14566W        W87634  31.071  23.281  14.919
14567W        W87635  19.747  31.409   1.906
14568W        W87636  25.258   8.861  12.907
14569W        W87637  15.067  25.957  11.736
14570W        W87638   6.640  23.502  14.342
14571W        W87639  44.823  21.427  14.922
14572W        W87640  27.023   8.951   2.084
14573W        W87641  17.213  42.346  12.736
14574W        W87642  11.877  26.763   0.309
14575W        W87643  31.974  43.911   0.423
14576W        W87644   7.366   1.400  12.951
14577W        W87645  19.264   7.175   2.167
14578W        W87646   4.010   4.009   4.266
14579W        W87647  29.842  41.811   0.400
14580W        W87648  26.263   0.707   4.122
14581W        W87649  29.983  31.326  10.798
14582W        W87650  14.775  23.563  14.421
14583W        W87651  35.552  11.929   1.655
14584W        W87652  26.507  21.958  13.423
14585W        W87653  42.638  33.091  14.819
14586W        W87654   4.555  26.789   3.244
14587W        W87655  36.573  11.355  10.679
14588W        W87656  35.926  16.041   1.173
14589W        W87657  24.156   3.020   2.287
14590W        W87658  24.682  32.620  11.942
14591W        W87659  39.465  43.445  11.061
14592W        W87660   8.335  22.624   4.378
14593W        W87661  28.909  30.623   1.920
14594W        W87662  28.689  16.527   0.483
14595W        W87663  38.616  27.540   3.181
14596W        W87664  19.984   7.426   3.247
14597W        W87665   9.293  39.410  11.155
14598W        W87666  32.154  22.436  10.984
14599W        W87667   0.446   3.532  12.356
14600W        W87668  11.788   2.775   1.712
14601W        W87669  39.546  22.565  14.395
14602W        W87670  17.109  15.120   2.393
14603W        W87671  26.610   4.030  12.909
14604W        W87672  23.784  17.664  12.100
14605W        W87673  31.952   5.315  11.999
14606W        W87674  11.067  16.773   0.950
14607W        W87675   2.626  40.488   2.636
14608W        W87676  10.166  10.228  12.478
14609W        W87677  41.396  24.708   0.785
14610W        W87678   5.005  36.438   1.153
14611W        W87679  14.129  31.868  11.557
14612W        W87680   3.243  16.904  11.595
14613W        W87681   1.813  38.834  12.831
14614W        W87682  18.349   1.875  11.049
14615W        W87683   3.261   3.001  10.056
14616W        W87684   3.452  22.242  13.305
14617W        W87685   3.932  37.515  13.465
14618W        W87686  38.386  39.467  10.669
14619W        W87687  27.544   8.168   3.102
14620W        W87688  16.880  42.709   0.405
14621W        W87689  26.224  30.940  14.315
14622W        W87690  38.618  44.352   0.286
14623W        W87691  13.259  11.968  12.052
14624W        W87692  25.924  34.920   2.396
14625W        W87693  22.094  12.807   4.672
14626W        W87694   3.992  32.135   1.824
14627W        W87695  39.510  10.884  13.512
14628W        W87696   4.181  19.077   0.831
14629W        W87697  22.295  23.183   2.180
14630W        W87698   1.530  22.939   1.643
14631W        W87699  25.656   0.051  14.838
14632W        W87700  36.195  41.767   1.650
14633W        W87701  16.641  44.102  14.369
14634W        W87702  13.174   5.261   2.185
14635W        W87703  12.512   8.262   1.434
14636W        W87704   5.833  38.871  12.034
14637W        W87705  28.178   2.026   3.842
14638W        W87706  16.039  37.368   2.368
14639W        W87707  28.118  42.537  11.398
14640W        W87708  13.698   2.371   0.320
14641W        W87709  14.146  19.639   2.301
14642W        W87710  16.370   8.782   1.191
14643W        W87711  38.556  36.802   4.416
14644W        W87712  26.622  27.985   0.948
14645W        W87713  44.756  41.053   2.789
14646W        W87714  40.334  16.859   1.239
14647W        W87715   0.187   6.750   2.460
14648W        W87716  24.557  37.013  11.047
14649W        W87717  21.257  34.898  13.839
14650W        W87718   3.708  11.153  10.421
14651W        W87719  13.483  18.672  10.120
14652W        W87720  31.423  36.976  10.626
14653W        W87721  31.400   3.210  14.954
14654W        W87722  14.578  25.628   1.844
14655W        W87723  43.983   3.825   4.764
14656W        W87724  22.483  35.578   4.597
14657W        W87725   8.143  20.572  13.921
14658W        W87726  21.854  44.388   0.189
14659W        W87727  35.471  28.180  13.354
14660W        W87728   1.915  27.621   0.540
14661W        W87729  33.158  13.785  12.507
14662W        W87730  28.557  31.093  13.977
14663W        W87731  23.142  38.378  13.070
14664W        W87732  21.144  11.017  12.835
14665W        W87733  22.588  21.474  14.099
14666W        W87734  36.968  42.860   2.425
14667W        W87735   3.337  32.060   0.026
14668W        W87736  33.500   8.630   2.178
14669W        W87737   6.771  40.434  14.861
14670W        W87738  23.008  18.650  13.427
14671W        W87739   8.945  24.022   1.723
14672W        W87740  25.647  10.639  13.384
14673W        W87741   9.045  34.641   0.330
14674W        W87742  21.698  41.637  13.433
14675W        W87743  15.045  13.616   0.531
14676W        W87744   2.263   6.173   2.707
14677W        W87745  31.019  26.871   1.781
14678W        W87746  10.229  27.264  11.992
14679W        W87747  20.653  25.045   3.771
14680W        W87748   8.158  24.244  12.891
14681W        W87749  42.282  41.516   0.972
14682W        W87750  23.695  29.683  11.553
14683W        W87751   2.053  25.513  11.623
14684W        W87752  32.583   2.717  14.284
14685W        W87753  31.433  26.771   3.817
14686W        W87754  23.156  15.623   4.659
14687W        W87755  30.890   8.918   1.765
14688W        W87756   6.458  24.977  10.695
14689W        W87757  16.745   4.612  10.580
14690W        W87758  30.782  43.950  11.105
14691W        W87759   4.731  24.453  13.710
14692W        W87760  23.555  40.469   3.345
14693W        W87761  11.803  40.934   0.610
14694W        W87762  21.124  41.157   1.533
14695W        W87763  32.358  11.657   3.287
14696W        W87764  24.734   5.441  12.448
14697W        W87765   4.189  14.271   3.091
14698W        W87766  15.950  33.971  11.093
14699W        W87767   5.929  35.084  13.132
14700W        W87768  36.427  41.998   2.902
14701W        W87769   9.311  32.067  10.457
14702W        W87770   6.111   5.906  14.925
14703W        W87771  22.948  38.914  12.555
14704W        W87772   2.798  20.679   0.034
14705W        W87773  21.023  29.530  12.044
14706W        W87774   7.450  12.715   4.282
14707W        W87775   9.584  17.737   3.136
14708W        W87776  29.107  16.188   3.160
14709W        W87777   3.216  41.502  11.946
14710W        W87778  36.988  38.270  12.667
14711W        W87779  15.513  30.008  11.523
14712W        W87780   0.247  30.032   4.752
14713W        W87781   4.236   0.242  11.158
14714W        W87782  10.340  39.525   2.787
14715W        W87783  27.283  35.628  13.351
14716W        W87784  37.749  28.419   0.031
14717W        W87785  16.143   4.322   2.925
14718W        W87786   7.162  26.061   0.160
14719W        W87787  24.603   4.655  13.511
14720W        W87788  29.374  41.553   1.489
14721W        W87789  32.750  20.182   3.875
14722W        W87790  29.086  40.525   4.601
14723W        W87791  14.852  28.173   4.561
14724W        W87792   9.259  35.537  13.238
14725W        W87793   2.131  36.833  13.288
14726W        W87794  30.581  33.446  11.664
14727W        W87795  29.020  17.324   0.147
14728W        W87796   8.868  12.613   0.697
14729W        W87797  34.271  37.954  11.181
14730W        W87798  27.002  23.893  13.597
14731W        W87799  21.693  34.030   1.275
14732W        W87800  35.890  37.341   4.608
14733W        W87801   8.891   1.102   4.164
14734W        W87802  35.599  43.353  14.334
14735W        W87803  40.272  16.520   2.190
14736W        W87804   3.368  38.953  12.171
14737W        W87805  35.823  42.562  14.156
14738W        W87806  26.255  41.913   0.602
14739W        W87807  22.811   7.989  14.372
14740W        W87808   9.089  26.166   3.518
14741W        W87809   9.645  31.669   0.736
14742W        W87810  13.805  44.540  14.491
14743W        W87811   1.406   9.858   2.236
14744W        W87812  17.326  10.880   4.516
14745W        W87813  18.945  38.782   2.727
14746W        W87814  25.459  11.661  14.292
14747W        W87815  22.043  28.717   2.829
14748W        W87816   2.542  23.931  13.382
14749W        W87817  11.078  38.788  14.805
14750W        W87818  30.592  29.405   3.125
14751W        W87819  33.535  39.062  10.996
14752W        W87820  11.002  36.160   3.805
14753W        W87821   9.390   4.324   4.540
14754W        W87822  28.501  32.505  14.132
14755W        W87823  22.614  28.948   0.743
14756W        W87824  12.721  29.149   1.512
14757W        W87825  31.643  37.868   2.909
14758W        W87826  21.920   9.080  12.170
14759W        W87827  44.367  37.799   1.219
14760W        W87828  11.700  24.677   4.361
14761W        W87829  36.679  30.356   1.406
14762W        W87830  12.260  20.410  12.567
14763W        W87831  27.623  38.082   0.917
14764W        W87832  31.185  41.027  12.425
14765W        W87833  33.088  29.090  12.865
14766W        W87834  17.609  25.624  14.318
14767W        W87835  44.260  34.098   3.407
14768W        W87836  29.432  16.081  14.849
14769W        W87837  33.625  17.580   1.340
14770W        W87838  21.135  43.795  14.835
14771W        W87839  44.844  39.548   4.592
14772W        W87840   0.493  12.762   2.407
14773W        W87841  39.915  12.107   0.843
14774W        W87842  20.294  36.379   0.381
14775W        W87843  22.234  24.589  14.542
14776W        W87844   8.381  20.627  12.917
14777W        W87845   5.817  19.536  13.541
14778W        W87846   7.846  15.569  14.816
14779W        W87847  19.501  11.292   0.638
14780W        W87848  39.549  16.656   2.738
14781W        W87849  28.069  13.413   1.058
14782W        W87850  12.237  23.937   2.622
14783W        W87851  31.539  11.786  13.057
14784W        W87852  32.605   4.675   2.265
14785W        W87853  25.026   2.442   3.256
14786W        W87854  23.104   5.742  13.357
14787W        W87855  23.674   2.553  13.773
14788W        W87856  41.524  33.931   3.232
14789W        W87857  22.481  35.439  10.507
14790W        W87858  15.589   4.886   1.350
14791W        W87859  34.798  31.949   3.249
14792W        W87860  14.614  26.227   0.412
14793W        W87861  12.960  16.074  14.992
14794W        W87862  38.042  25.499  11.516
14795W        W87863  38.531  21.124   0.438
14796W        W87864  36.287  19.350  11.937
14797W        W87865  12.163  44.177   4.712
14798W        W87866  41.493  38.256  14.411
14799W        W87867  27.109  12.129   1.739
14800W        W87868  17.255  15.730  13.487
14801W        W87869  12.319  44.718  14.801
14802W        W87870   2.328  38.447   0.362
14803W        W87871  26.119  29.675  13.513
14804W        W87872  34.885  17.057   0.813
14805W        W87873  36.326  41.415  11.980
14806W        W87874  24.747   1.731   4.405
14807W        W87875  40.086  25.459   2.142
14808W        W87876  44.925  35.380  14.525
14809W        W87877  20.040  37.688  12.713
14810W        W87878   0.288  13.626   3.746
14811W        W87879   0.448  29.037   3.636
14812W        W87880   1.860  44.278   4.141
14813W        W87881  44.010  42.558   1.718
14814W        W87882  36.462  34.630  12.031
14815W        W87883  41.353  23.167   0.730
14816W        W87884  36.423   0.149   5.044
14817W        W87885  13.239  13.416   4.232
14818W        W87886  40.036  42.799  14.514
14819W        W87887  14.486   6.248   2.804
14820W        W87888  28.436  18.863  12.017
14821W        W87889  20.411  13.316  11.571
14822W        W87890  23.629  38.398  12.831
14823W        W87891   4.739   4.754  10.516
14824W        W87892  29.577   9.387   0.901
14825W        W87893   1.431  16.856  11.702
14826W        W87894  15.723  28.506   0.850
14827W        W87895   4.869  21.734  12.858
14828W        W87896  15.046  15.675  12.308
14829W        W87897   7.384  12.241  10.880
14830W        W87898  20.190  27.739   4.628
14831W        W87899  35.356  38.097   3.686
14832W        W87900  24.970  10.732  11.054
14833W        W87901  28.023  10.976   3.746
14834W        W87902  20.011   0.442  12.020
14835W        W87903  36.906  10.764   2.757
14836W        W87904   9.172  29.216  10.318
14837W        W87905  24.090  33.842   3.741
14838W        W87906  43.488  27.484   2.199
14839W        W87907  34.872  12.225  13.431
14840W        W87908  40.529  14.163   2.792
14841W        W87909  42.704  37.972   4.590
14842W        W87910  13.912  31.011   4.300
14843W        W87911  18.740  24.592  14.191
14844W        W87912  25.427  24.732  14.849
14845W        W87913  20.088   4.424   4.212
14846W        W87914  41.745  14.160  11.127
14847W        W87915  17.170  14.357   5.057
14848W        W87916   9.624  24.206  11.599
14849W        W87917   9.556  41.471  13.441
14850W        W87918  35.876   7.760   1.335
14851W        W87919  14.140  11.859   1.549
14852W        W87920  11.227   3.946   4.939
14853W        W87921  31.820  43.833   1.733
14854W        W87922  36.021   8.703   2.833
14855W        W87923  34.851  41.435   2.657
14856W        W87924   1.814  39.976   3.065
14857W        W87925  29.203  30.717   4.300
14858W        W87926   5.647  23.037  13.784
14859W        W87927  26.197  28.442  13.855
14860W        W87928  15.959   0.700   0.867
14861W        W87929  38.947  36.349  13.011
14862W        W87930  13.354  17.591  11.667
14863W        W87931  39.375   4.851   4.655
14864W        W87932  37.098  26.516  13.491
14865W        W87933   4.184  31.678  14.838
14866W        W87934  35.847  11.098  14.860
14867W        W87935  18.273  23.147   3.387
14868W        W87936   7.750  13.054  11.905
14869W        W87937   3.049  19.709   0.479
14870W        W87938  30.064   8.342   0.374
14871W        W87939  15.216  21.105  10.511
14872W        W87940  36.464  14.424   5.162
14873W        W87941  12.072   9.840   0.806
14874W        W87942   0.466  20.785  11.002
14875W        W87943  25.397  17.574   0.389
14876W        W87944  12.011  34.952  10.606
14877W        W87945  37.784  33.699   1.482
14878W        W87946   7.911   8.302   4.776
14879W        W87947   5.453   6.281  12.882
14880W        W87948   0.949  25.643  12.721
14881W        W87949   4.367  42.599   2.063
14882W        W87950  38.906   0.803  14.031
14883W        W87951  23.744  32.216   0.476
14884W        W87952  31.577  22.522   3.727
14885W        W87953  28.650   0.896   0.287
14886W        W87954  20.780  24.490  14.788
14887W        W87955  33.297   9.263  14.339
14888W        W87956  37.526  10.990   1.881
14889W        W87957  20.646  21.142   0.014
14890W        W87958  17.140  30.934   1.361
14891W        W87959  20.994  32.480   4.655
14892W        W87960  20.008  35.063   1.982
14893W        W87961  22.614  23.780   2.739
14894W        W87962  15.650   2.545   2.127
14895W        W87963  35.356  15.158  10.719
14896W        W87964  29.596  24.412  10.843
14897W        W87965  32.897  38.478  13.912
14898W        W87966  16.251  19.990   3.202
14899W        W87967  25.157   3.217   4.096
14900W        W87968  21.429  40.678  11.514
14901W        W87969   4.742  34.082   2.449
14902W        W87970  24.017   6.978  12.422
14903W        W87971  11.361  22.698   3.764
14904W        W87972  35.118  41.523  12.833
14905W        W87973   4.250  37.463  12.201
14906W        W87974  22.607  14.997   3.272
14907W        W87975  20.153   1.247  13.028
14908W        W87976  42.852  20.992  10.737
14909W        W87977  41.982  11.655  14.458
14910W        W87978  39.371  21.189   5.108
14911W        W87979   4.182   2.592  13.408
14912W        W87980  34.620   7.176   1.925
14913W        W87981  24.579  34.619  14.244
14914W        W87982   5.500  33.196   4.349
14915W        W87983  20.858  38.408   4.100
14916W        W87984  22.591  26.196   3.599
14917W        W87985  24.154  24.016   1.044
14918W        W87986  27.983   8.922  12.796
14919W        W87987  14.107  15.165  14.507
14920W        W87988  22.660   3.678   2.382
14921W        W87989  41.506  34.360  11.868
14922W        W87990  24.846  14.530  14.662
14923W        W87991  19.311  11.515  11.581
14924W        W87992  21.088  20.687   3.364
14925W        W87993  36.491  39.554   2.564
14926W        W87994   1.425  11.003   3.165
14927W        W87995  17.711   4.290  14.570
14928W        W87996  40.162   8.234   9.774
14929W        W87997  17.704   1.389  14.082
14930W        W87998  10.793  15.475   0.771
14931W        W87999  16.237  17.235   4.597
14932W        W88000  44.296  19.759   0.122
14933W        W88001   9.168  18.017   4.579
14934W        W88002  26.001  34.764  12.423
14935W        W88003  28.547  30.053  11.971
14936W        W88004  29.435  43.299   0.281
14937W        W88005  32.029  22.003  11.827
14938W        W88006  15.630  31.659   0.672
14939W        W88007  34.597  44.805   2.763
14940W        W88008  32.074  43.795  14.924
14941W        W88009  35.436  21.018   2.024
14942W        W88010  17.657  35.099   4.751
14943W        W88011  44.896   6.282   2.343
14944W        W88012  33.855  29.466  11.970
14945W        W88013   1.926  37.615   1.490
14946W        W88014  39.569   8.604   4.127
14947W        W88015   2.923  19.874   2.931
14948W        W88016   1.357  25.043   3.848
14949W        W88017   9.389  19.708  13.501
14950W        W88018  29.688   1.972   2.372
14951W        W88019   1.488   2.506   1.850
14952W        W88020   0.542  19.919  12.450
14953W        W88021  35.973  44.862   0.254
14954W        W88022  10.918  13.029   0.876
14955W        W88023   0.893   8.277  14.082
14956W        W88024   4.826  31.598   2.058
14957W        W88025  33.541  30.372   1.770
14958W        W88026  33.904  37.324  12.650
14959W        W88027  28.175  39.030  11.110
14960W        W88028  24.684  21.312   3.095
14961W        W88029  17.531  21.362   3.708
14962W        W88030  42.346  14.035   0.287
14963W        W88031  24.768   3.728  13.014
14964W        W88032  11.264  34.443   3.662
14965W        W88033   3.921  23.029   3.119
14966W        W88034   5.952  20.500   4.322
14967W        W88035  19.654  15.050   3.264
14968W        W88036  39.915  24.548   2.597
14969W        W88037  44.735  28.055   2.205
14970W        W88038  10.358  16.928  10.781
14971W        W88039  36.637  37.064  13.819
14972W        W88040   8.705  20.749  12.537
14973W        W88041  11.233  44.397   0.355
14974W        W88042  43.719  22.210   2.383
14975W        W88043  22.168  42.005  13.892
14976W        W88044  43.873  34.829  11.548
14977W        W88045  29.770  43.490   2.786
14978W        W88046  37.015   0.646  10.556
14979W        W88047  30.011  19.215   0.801
14980W        W88048  31.367  24.583  12.232
14981W        W88049  36.064  37.845   4.856
14982W        W88050  39.073  34.616  13.676
14983W        W88051  24.469  32.455   3.762
14984W        W88052  25.408  35.425  12.512
14985W        W88053  22.313  40.594  14.249
14986W        W88054   5.024  30.500  10.756
14987W        W88055   0.885   6.211  11.573
14988W        W88056  19.064  16.718  14.390
14989W        W88057  14.879   3.996   0.524
14990W        W88058  25.586   0.364   4.942
14991W        W88059  44.472  32.029  11.096
14992W        W88060  22.579   2.675  14.826
14993W        W88061  26.720   5.132  11.665
14994W        W88062  24.220  39.882   1.744
14995W        W88063  38.924  20.602  13.972
14996W        W88064  33.116   0.948   3.464
14997W        W88065   8.305   5.400  11.094
14998W        W88066   8.365  36.946  12.238
14999W        W88067  34.544  31.643   1.453
15000W        W88068  10.925  34.829   1.350
15001W        W88069   5.462  37.220  13.727
15002W        W88070  43.457  12.126   1.215
15003W        W88071  14.837  34.737   4.134
15004W        W88072   2.988  36.851   4.392
15005W        W88073  37.981  37.789  14.534
15006W        W88074  22.661  27.645  12.698
15007W        W88075  26.849  34.700  11.913
15008W        W88076  35.885  10.626   3.439
15009W        W88077  22.021  18.775  11.133
15010W        W88078  41.271  30.180   2.713
15011W        W88079  23.698   8.633   2.149
15012W        W88080  36.130  22.287   0.850
15013W        W88081  44.993  30.600   4.098
15014W        W88082  22.178  42.069   3.255
15015W        W88083  29.730  10.231  13.787
15016W        W88084  18.152  33.875   2.606
15017W        W88085   5.778  12.286   4.699
15018W        W88086   3.292  41.978  12.151
15019W        W88087  42.853   2.683   0.272
15020W        W88088  26.553  11.614  10.643
15021W        W88089   6.257  31.463  11.158
15022W        W88090  32.933  26.773  14.421
15023W        W88091   5.397  13.925  11.601
15024W        W88092   4.861  31.293  11.019
15025W        W88093  17.285   3.342   1.433
15026W        W88094  39.278  35.428   2.455
15027W        W88095  22.486   7.132   2.741
15028W        W88096  31.517  23.130  11.030
15029W        W88097  40.992  36.807  12.652
15030W        W88098  32.964  26.743  10.878
15031W        W88099  29.971  37.474   2.786
15032W        W88100  32.504  13.311  13.837
15033W        W88101   5.278  20.958   3.245
15034W        W88102  40.476  28.600   4.716
15035W        W88103  33.415   6.795  13.324
15036W        W88104  32.257  15.786  14.558
15037W        W88105  20.605  15.837  10.635
15038W        W88106  33.107   6.505   4.955
15039W        W88107  18.516   7.800   3.350
15040W        W88108   3.193  42.308   3.632
15041W        W88109  25.801  21.160   2.770
15042W        W88110  19.500  17.095   4.144
15043W        W88111  34.860  18.150   3.841
15044W        W88112  42.511  40.039   3.742
15045W        W88113   9.171  27.625  14.742
15046W        W88114  20.140  20.935   3.314
15047W        W88115  26.686  13.781   3.669
15048W        W88116  33.522  42.043  13.862
15049W        W88117  40.368  43.535  13.931
15050W        W88118  30.116  36.457  13.966
15051W        W88119  13.783  14.590  11.552
15052W        W88120  19.092   8.150  14.137
15053W        W88121  36.186  43.023  10.696
15054W        W88122  15.551  21.965  11.467
15055W        W88123   9.201  17.175  12.937
15056W        W88124  11.729  41.271  14.600
15057W        W88125  41.762  42.446  12.610
15058W        W88126  27.956   0.503   2.881
15059W        W88127  18.995  42.337   3.657
15060W        W88128  37.927  36.125   4.128
15061W        W88129  20.209   6.498  10.873
15062W        W88130   9.119  23.260   4.179
15063W        W88131  42.406  13.078   0.548
15064W        W88132  12.888  31.101   0.992
15065W        W88133  22.837  33.709   2.899
15066W        W88134  42.996   0.364  13.813
15067W        W88135  36.176  24.963  12.398
15068W        W88136  15.152  20.733  14.238
15069W        W88137  34.935   0.411   1.147
15070W        W88138  23.205   7.417   2.161
15071W        W88139  31.500  25.430   3.324
15072W        W88140  34.941  43.782   3.848
15073W        W88141  12.603  20.041  12.737
15074W        W88142  38.047  25.066  14.284
15075W        W88143   0.490   2.280   4.682
15076W        W88144  17.311  12.853  11.090
15077W        W88145  38.078  36.471  13.042
15078W        W88146   4.175  43.389  12.367
15079W        W88147  18.622   5.846   0.453
15080W        W88148  44.843  14.339   3.717
15081W        W88149   4.206  40.567  12.070
15082W        W88150  36.881   8.739   3.839
15083W        W88151  34.551  42.319  13.049
15084W        W88152  25.036  43.502   2.836
15085W        W88153   5.414  25.870   4.757
15086W        W88154  24.470  29.939   0.965
15087W        W88155  10.989   3.027   2.321
15088W        W88156   0.813  28.674  14.010
15089W        W88157   6.846  31.897  11.825
15090W        W88158   6.727  12.621  12.054
15091W        W88159   9.191  23.238   1.764
15092W        W88160  36.812  40.973  13.883
15093W        W88161   2.188  11.819  12.559
15094W        W88162  29.792  30.926   1.101
15095W        W88163  17.643   4.328   1.977
15096W        W88164  27.870   7.398   4.554
15097W        W88165   6.482  32.423  11.181
15098W        W88166  30.822   1.679  12.004
15099W        W88167   7.742  31.662   3.264
15100W        W88168   1.055  31.918   4.658
15101W        W88169  23.300  31.072  11.421
15102W        W88170  21.567  36.592   1.364
15103W        W88171  23.244  19.135  14.491
15104W        W88172   6.877   7.466   3.668
15105W        W88173  18.224  13.427  14.480
15106W        W88174  43.286  27.788   2.666
15107W        W88175  13.120  38.991   4.954
15108W        W88176  31.490  18.710   0.838
15109W        W88177  35.188  34.150  11.205
15110W        W88178   9.814   6.806   0.458
15111W        W88179   8.347  33.352   2.393
15112W        W88180  27.622   1.006   3.293
15113W        W88181  16.859  42.620  14.477
15114W        W88182  38.082  32.424  12.152
15115W        W88183  14.228   0.959  13.333
15116W        W88184   5.312  32.525   2.983
15117W        W88185  20.475  24.803  12.962
15118W        W88186  26.257  12.931  12.911
15119W        W88187  24.530  13.620  13.963
15120W        W88188  19.255  22.730  14.933
15121W        W88189  10.030  33.495  12.670
15122W        W88190  33.446  17.819  13.330
15123W        W88191  15.769  28.181   1.895
15124W        W88192  14.699  16.198  11.607
15125W        W88193  19.673   7.361   4.620
15126W        W88194   0.906  19.161   3.143
15127W        W88195  20.540  38.897  12.788
15128W        W88196  41.850   9.420   3.748
15129W        W88197  20.714  18.242  14.807
15130W        W88198  24.004  18.193  11.557
15131W        W88199  30.053  22.272  12.561
15132W        W88200  18.821  30.527   4.046
15133W        W88201  36.178   0.394   1.960
15134W        W88202   3.756   9.229  12.449
15135W        W88203  33.545  41.509  13.878
15136W        W88204  19.805   8.464   3.834
15137W        W88205  43.143   2.865  13.851
15138W        W88206   1.893  33.584  14.793
15139W        W88207  44.777  14.132   1.418
15140W        W88208   4.963  34.044  10.617
15141W        W88209  26.237   3.796  12.026
15142W        W88210  25.250  16.701   4.308
15143W        W88211   5.247  35.406   1.855
15144W        W88212  42.764  43.935   4.729
15145W        W88213   4.225  42.236   4.922
15146W        W88214  10.633   6.935   4.140
15147W        W88215  18.662   9.183   1.811
15148W        W88216  26.048  26.143  11.584
15149W        W88217  13.008  33.430  12.682
15150W        W88218   4.208  24.679   0.860
15151W        W88219  33.071   4.716  13.851
15152W        W88220   6.013  18.774  11.140
15153W        W88221  27.443  34.922   2.624
15154W        W88222   6.276   0.004   2.436
15155W        W88223  35.608  26.602   4.161
15156W        W88224   0.735  37.698   0.958
15157W        W88225  31.100  35.117   2.534
15158W        W88226  23.775  18.225  14.504
15159W        W88227   3.123   6.998  12.927
15160W        W88228  12.230  10.646  11.206
15161W        W88229  36.832  13.154   0.171
15162W        W88230  22.109  21.796  12.318
15163W        W88231  13.340  44.512  12.995
15164W        W88232   5.218  14.767   0.387
15165W        W88233  25.197  42.526  11.962
15166W        W88234  26.651   5.847  12.925
15167W        W88235   8.389  33.981   1.443
15168W        W88236  12.848  20.446   4.003
15169W        W88237  42.520  13.551   0.827
15170W        W88238   7.958  30.511   0.345
15171W        W88239  32.151   7.336  13.295
15172W        W88240  25.036  12.679   0.712
15173W        W88241  36.843  42.833   4.567
15174W        W88242   3.472  42.785   3.687
15175W        W88243  17.856  10.259  10.769
15176W        W88244   4.859  25.605   1.161
15177W        W88245   8.872  11.356  10.325
15178W        W88246  27.812   0.794   0.054
15179W        W88247  33.590  38.811  14.870
15180W        W88248   5.494  40.426   1.285
15181W        W88249  21.271  39.279   2.404
15182W        W88250   1.755  17.552  13.287
15183W        W88251  13.230  22.650  10.140
15184W        W88252  40.814  24.586   3.854
15185W        W88253  17.235  33.956   3.168
15186W        W88254  11.749  23.234   2.637
15187W        W88255   8.990   4.113   1.698
15188W        W88256  35.958  19.576  12.653
15189W        W88257  13.048  28.972   5.040
15190W        W88258  32.283  14.721  14.959
15191W        W88259  33.462  44.351  14.323
15192W        W88260  32.815  23.552  14.525
15193W        W88261  16.114   5.267   1.043
15194W        W88262  39.010  13.294  13.690
15195W        W88263  38.793   8.839   4.633
15196W        W88264  19.624   8.243  12.208
15197W        W88265  44.948  44.664  10.758
15198W        W88266  25.045  36.513   4.682
15199W        W88267  40.854  33.654   3.201
15200W        W88268   3.873  35.637  14.791
15201W        W88269  29.382  21.033  11.594
15202W        W88270  10.239   4.800   1.159
15203W        W88271  41.462   5.378  13.267
15204W        W88272  32.208   6.644  12.057
15205W        W88273  18.732  44.055  12.494
15206W        W88274  18.225   1.138   0.722
15207W        W88275  37.880  23.238  13.066
15208W        W88276  42.764  40.163  11.349
15209W        W88277  11.320   7.801   2.787
15210W        W88278  43.514  26.164  12.871
15211W        W88279  30.330  15.420  11.213
15212W        W88280  11.377  31.178   1.258
15213W        W88281  42.556  17.084  13.402
15214W        W88282  20.264  18.943   3.131
15215W        W88283   1.460  18.898   0.035
15216W        W88284  29.554  23.567   2.329
15217W        W88285   7.989  29.936  12.427
15218W        W88286  25.731  39.387  13.680
15219W        W88287  36.189  34.315  13.828
15220W        W88288   7.758  13.946  13.071
15221W        W88289  37.007   6.137   0.163
15222W        W88290  25.896   1.938   0.766
15223W        W88291  11.391  11.738  14.354
15224W        W88292  22.284   3.260  12.158
15225W        W88293  18.096  20.061   3.654
15226W        W88294  17.606  32.586   1.536
15227W        W88295  32.536   5.848  12.434
15228W        W88296  29.974  43.108   2.410
15229W        W88297  24.471  42.916   1.233
15230W        W88298  17.176  10.630   1.265
15231W        W88299  27.836   6.768   1.862
15232W        W88300  33.829   8.366  14.578
15233W        W88301  22.430   2.257  12.385
15234W        W88302  14.480   9.186  12.045
15235W        W88303  39.779  21.776  12.858
15236W        W88304  41.944  31.944   0.511
15237W        W88305  35.416  16.461  12.168
15238W        W88306  19.380  26.199   1.731
15239W        W88307  18.740  22.037  14.766
15240W        W88308  39.287  31.289   2.739
15241W        W88309  44.626  26.271  11.487
15242W        W88310   6.299  16.876  11.098
15243W        W88311  42.340  11.320   0.012
15244W        W88312  24.987  18.212  10.940
15245W        W88313  30.439  10.473  12.605
15246W        W88314  18.282  38.983  11.006
15247W        W88315  30.406  26.689   0.271
15248W        W88316  35.526  21.863   2.816
15249W        W88317  11.378  30.675   1.353
15250W        W88318  18.090  37.910   1.963
15251W        W88319  28.649   3.670  12.407
15252W        W88320  33.547   4.644   0.671
15253W        W88321  19.770  34.059  10.681
15254W        W88322  42.708   6.751  13.984
15255W        W88323  14.759   1.767   2.734
15256W        W88324  39.275  37.462   4.088
15257W        W88325  19.566   2.067   1.173
15258W        W88326  11.610  31.490   0.911
15259W        W88327   9.729  35.904  10.670
15260W        W88328  31.643  13.817  14.972
15261W        W88329  21.429   3.249  13.944
15262W        W88330  10.096   8.597   1.358
15263W        W88331  12.182   9.248  14.243
15264W        W88332  23.842  13.720  11.176
15265W        W88333  41.053   3.290   2.211
15266W        W88334   5.213   1.240  12.449
15267W        W88335  11.155  23.595   0.444
15268W        W88336   3.955  17.404   3.395
15269W        W88337  17.818   6.815   4.894
15270W        W88338  38.577  36.004   2.302
15271W        W88339   1.001  22.702   3.622
15272W        W88340  15.547   4.770  12.815
15273W        W88341  12.274  26.646  14.713
15274W        W88342  27.085  35.116   0.529
15275W        W88343  24.893  41.814   1.111
15276W        W88344   4.877  41.653   2.697
15277W        W88345   8.994  35.031  11.981
15278W        W88346  27.981  34.896   3.731
15279W        W88347   1.414  40.251  14.200
15280W        W88348  40.855  26.126   2.895
15281W        W88349  19.557  15.660  13.723
15282W        W88350  12.092  11.405  13.258
15283W        W88351  10.350  16.130  11.120
15284W        W88352  21.677  43.505  13.348
15285W        W88353   7.615   9.247  10.673
15286W        W88354  37.612   1.937  10.563
15287W        W88355  17.082  39.902   3.586
15288W        W88356   8.118  29.284  11.134
15289W        W88357  30.733  31.898  14.567
15290W        W88358  14.012  22.639   1.466
15291W        W88359  24.233  30.051  12.947
15292W        W88360  15.749  24.602   1.762
15293W        W88361  15.635  31.001   3.150
15294W        W88362  20.516  11.212   2.931
15295W        W88363  18.030  32.306   2.779
15296W        W88364  37.556  16.250  11.867
15297W        W88365   4.386  27.716   2.429
15298W        W88366  40.249  36.762   3.198
15299W        W88367   3.261  20.487   3.667
15300W        W88368  44.231   0.317   1.207
15301W        W88369  42.987  35.541   0.491
15302W        W88370  33.037  37.300  11.171
15303W        W88371  26.038  29.636  10.946
15304W        W88372  25.741  11.865   3.587
15305W        W88373  20.220  10.747  14.896
15306W        W88374  37.303  34.644  12.075
15307W        W88375  44.032   7.235  14.797
15308W        W88376  40.520  25.021  11.243
15309W        W88377  29.045  23.963  14.284
15310W        W88378  14.543  27.658  14.980
15311W        W88379  16.886   9.610   2.749
15312W        W88380  17.273   1.617  13.955
15313W        W88381  19.028  41.327  12.018
15314W        W88382  22.492  44.324   2.311
15315W        W88383   2.448   6.276  14.998
15316W        W88384  44.581   8.752  13.181
15317W        W88385  19.695  31.101   3.280
15318W        W88386  35.136  17.782   4.632
15319W        W88387  42.467   1.854   3.084
15320W        W88388  20.126  36.856   3.188
15321W        W88389  43.938  22.662  14.765
15322W        W88390  20.978   0.312  10.523
15323W        W88391   8.239  36.786  14.913
15324W        W88392  12.396  28.398  11.256
15325W        W88393  37.939  42.873  14.329
15326W        W88394  29.872  32.405  11.723
15327W        W88395  27.204  30.890   0.474
15328W        W88396   0.970  38.996   5.079
15329W        W88397  33.083   2.037   0.257
15330W        W88398  33.021  40.826  11.645
15331W        W88399   1.650  25.848   4.104
15332W        W88400  12.110  32.386   0.906
15333W        W88401  34.471  43.020  13.943
15334W        W88402  19.993   3.638  11.658
15335W        W88403  29.530  17.804   0.344
15336W        W88404  26.989   0.812   1.000
15337W        W88405  17.462   5.870   3.145
15338W        W88406  22.764  18.560   4.664
15339W        W88407  25.646  24.023  10.745
15340W        W88408  18.980  30.753  13.620
15341W        W88409  23.996  32.303  13.610
15342W        W88410  27.497  32.876  11.339
15343W        W88411  40.412  36.766  14.293
15344W        W88412  20.070  11.786   5.008
15345W        W88413  24.610  31.801  14.412
15346W        W88414  27.243  20.759  10.971
15347W        W88415  33.803   3.793  10.514
15348W        W88416  13.068  44.755   3.788
15349W        W88417  35.997  41.717   0.169
15350W        W88418  30.449  27.041  10.741
15351W        W88419  38.990  14.718   2.048
15352W        W88420  10.625  31.030  11.139
15353W        W88421  14.804  39.896  11.002
15354W        W88422  33.430  18.580   1.325
15355W        W88423  35.421   7.390  12.904
15356W        W88424  24.160   8.779  12.385
15357W        W88425   6.688  44.752  11.518
15358W        W88426  29.711  30.641   4.183
15359W        W88427  14.174   8.821  14.970
15360W        W88428  24.771  40.382  14.305
15361W        W88429  31.699  18.176  13.118
15362W        W88430   0.489   1.486  13.999
15363W        W88431  13.263  29.946   1.869
15364W        W88432  36.948  29.432  14.261
15365W        W88433  42.116  36.740   4.454
15366W        W88434  26.043  29.409  10.483
15367W        W88435  28.572  18.575  11.614
15368W        W88436  12.627  13.647  12.806
15369W        W88437  13.072  44.475   3.078
15370W        W88438  10.749   3.755  10.793
15371W        W88439  10.963   0.173  12.950
15372W        W88440  40.624  16.117   3.745
15373W        W88441  41.807  26.940  12.908
15374W        W88442   8.282  14.912   0.250
15375W        W88443  23.011   7.706   4.263
15376W        W88444  39.432  35.441   0.913
15377W        W88445  24.259  44.836   4.590
15378W        W88446   9.977  34.529  12.410
15379W        W88447  30.447  17.976   0.324
15380W        W88448  16.275  35.433   2.869
15381W        W88449   9.798  15.945  12.261
15382W        W88450  30.813  34.585   4.161
15383W        W88451  41.842  23.823   4.655
15384W        W88452  29.017  42.929   1.852
15385W        W88453  28.156   0.235   1.899
15386W        W88454  25.252  23.165  11.686
15387W        W88455  29.173  21.126  10.298
15388W        W88456   3.228   1.469  12.668
15389W        W88457  20.635  18.663  14.482
15390W        W88458  20.692   3.832  12.573
15391W        W88459   2.823  14.731   0.385
15392W        W88460  12.021   7.670  12.806
15393W        W88461  36.922  31.377  11.581
15394W        W88462  34.913   2.537   1.208
15395W        W88463   4.950  14.914   3.725
15396W        W88464  29.467  43.248   2.359
15397W        W88465  26.189  41.608   1.628
15398W        W88466  22.370  39.254   4.856
15399W        W88467  44.246  21.476  11.058
15400W        W88468  19.613  40.988   2.401
15401W        W88469  39.851  16.763  10.512
15402W        W88470  37.834  24.629   1.031
15403W        W88471   0.982   7.331   1.523
15404W        W88472  37.043  32.341   9.914
15405W        W88473  13.414  38.466   1.412
15406W        W88474  39.400  21.789  11.396
15407W        W88475  14.793  40.876  12.526
15408W        W88476  18.040  32.397  13.367
15409W        W88477  13.380  19.615  11.164
15410W        W88478  27.512  28.094  13.133
15411W        W88479  24.626  39.949  11.318
15412W        W88480  11.724  16.826  11.528
15413W        W88481   0.607  29.522  10.788
15414W        W88482  15.899  11.067   3.113
15415W        W88483  12.754  30.084   1.812
15416W        W88484   9.340   2.501  13.485
15417W        W88485   6.470  38.101   0.883
15418W        W88486  15.316  10.723  12.152
15419W        W88487  21.242  10.577   3.669
15420W        W88488   2.795  28.848   3.347
15421W        W88489   0.531  18.133  11.211
15422W        W88490  14.389  41.215   1.485
15423W        W88491  26.656  23.017   4.555
15424W        W88492  19.466  36.660  13.320
15425W        W88493  17.014  15.828  12.631
15426W        W88494  27.976   6.505  13.927
15427W        W88495   7.677  15.396   0.769
15428W        W88496  23.124  17.724   5.155
15429W        W88497  27.616  36.484   4.585
15430W        W88498   1.808   9.933   2.688
15431W        W88499  25.692  40.455   9.741
15432W        W88500   2.312  17.187  14.864
15433W        W88501  26.241  17.639  12.046
15434W        W88502  22.215  12.878  14.943
15435W        W88503  24.519  43.572  11.590
15436W        W88504   6.255  25.041   3.417
15437W        W88505  41.232  26.918  11.065
15438W        W88506  32.009  40.756   0.699
15439W        W88507  10.853  31.839   1.076
15440W        W88508   8.383  17.124   3.373
15441W        W88509  40.957  40.839   1.928
15442W        W88510  12.127  16.708   0.227
15443W        W88511  37.498  44.918  13.552
15444W        W88512  24.281   4.858  12.924
15445W        W88513  44.924  11.900  14.837
15446W        W88514  44.162  24.533   2.746
15447W        W88515   3.516  41.771  12.616
15448W        W88516  15.347  38.055   4.285
15449W        W88517  40.363  44.983   0.362
15450W        W88518  23.503  38.048   1.399
15451W        W88519  44.837  32.515   1.903
15452W        W88520  30.810  37.115   2.826
15453W        W88521  12.179  11.551  11.220
15454W        W88522  23.985  36.472   0.651
15455W        W88523   1.278  43.368   0.541
15456W        W88524  42.935   6.301   0.035
15457W        W88525  38.154   6.798  10.380
15458W        W88526  26.012  11.857   1.331
15459W        W88527  10.571  38.535   2.234
15460W        W88528  12.255  25.435  14.449
15461W        W88529  36.897   4.650  14.727
15462W        W88530  25.063   7.375   4.286
15463W        W88531  37.048  36.442  13.034
15464W        W88532  32.461  23.008  10.678
15465W        W88533  19.775  41.541   4.142
15466W        W88534  19.008  19.864  12.467
15467W        W88535  27.063   4.123   2.878
15468W        W88536  13.126  19.151  12.035
15469W        W88537  44.350  12.122   1.467
15470W        W88538   2.244  40.618   1.488
15471W        W88539  28.478  36.943   4.114
15472W        W88540   6.892  26.133   3.980
15473W        W88541  23.083   2.323  14.388
15474W        W88542  38.551  16.092   2.777
15475W        W88543  40.526   7.854  12.968
15476W        W88544  13.630   5.606   2.178
15477W        W88545  34.868   0.261  14.422
15478W        W88546  41.095  12.545   2.098
15479W        W88547  39.045  12.811  13.484
15480W        W88548   7.977   6.342   1.722
15481W        W88549  41.086  31.936  12.955
15482W        W88550  43.966  10.647   0.904
15483W        W88551  14.252  43.321   4.179
15484W        W88552  21.939  43.233  12.538
15485W        W88553  24.493   9.416  11.038
15486W        W88554  12.614  36.325  12.968
15487W        W88555  32.389   8.732  10.787
15488W        W88556   6.863  14.773  13.511
15489W        W88557  42.550   9.364  14.394
15490W        W88558   4.951   6.037   4.606
15491W        W88559  11.712  23.546  12.430
15492W        W88560  12.590  21.574  11.624
15493W        W88561   8.498  28.440   2.185
15494W        W88562  24.471   5.322  12.873
15495W        W88563  11.615   1.778   4.065
15496W        W88564  41.706   9.527  13.544
15497W        W88565   8.678   6.469   4.139
15498W        W88566  13.774  24.676   4.253
15499W        W88567  29.108  41.772  11.882
15500W        W88568  31.107  10.384  10.566
15501W        W88569  33.315   2.780   4.905
15502W        W88570  25.232  18.054   1.858
15503W        W88571  35.804  13.334   0.479
15504W        W88572   3.927  17.981  10.990
15505W        W88573  22.245  25.459  11.538
15506W        W88574  12.851  43.414   0.394
15507W        W88575  33.413  44.833  14.605
15508W        W88576   8.343  42.835   2.164
15509W        W88577  22.527  25.067  11.672
15510W        W88578  39.039  28.567  11.669
15511W        W88579  10.397  26.986   4.734
15512W        W88580  19.653   1.940  11.691
15513W        W88581  42.773  12.188  11.416
15514W        W88582  17.230  43.821  10.672
15515W        W88583  18.143  30.969   1.274
15516W        W88584  19.141   9.174   3.093
15517W        W88585   9.137  30.956  11.869
15518W        W88586  23.592  22.621   3.826
15519W        W88587  12.806   6.784   2.256
15520W        W88588  40.830  22.953   2.807
15521W        W88589   4.790  27.669  11.748
15522W        W88590  16.653  33.615  13.910
15523W        W88591  24.178  33.974  11.664
15524W        W88592  25.599  30.474   0.203
15525W        W88593  19.266   4.196   0.390
15526W        W88594  24.924  41.458   4.727
15527W        W88595  24.715  22.406  11.202
15528W        W88596   0.404  16.171   2.750
15529W        W88597  17.013  22.506   2.270
15530W        W88598  43.952  27.658   3.210
15531W        W88599  26.952  12.278  11.227
15532W        W88600  37.858  31.982  10.080
15533W        W88601   2.744   0.291   1.348
15534W        W88602   3.206  26.083  12.169
15535W        W88603   7.160  15.288   3.646
15536W        W88604   2.838  25.317   4.881
15537W        W88605  24.545  20.770   0.748
15538W        W88606  39.292  33.546   3.421
15539W        W88607  18.591  25.733  10.933
15540W        W88608   8.864  17.999  13.563
15541W        W88609  22.133  41.484  11.772
15542W        W88610   7.711  29.022  12.374
15543W        W88611   0.906  43.851   4.072
15544W        W88612  37.542  26.023   4.621
15545W        W88613  32.261  19.099   3.105
15546W        W88614  11.522  41.400  11.171
15547W        W88615  25.503  44.238  11.613
15548W        W88616  27.500  11.827   4.447
15549W        W88617  33.536  33.508  11.989
15550W        W88618  41.940  34.836   4.034
15551W        W88619  17.085   4.346  13.062
15552W        W88620   3.396   2.102   0.244
15553W        W88621  44.262  16.879  13.357
15554W        W88622  43.533  22.572   3.638
15555W        W88623  33.682  31.668  11.744
15556W        W88624   9.517   7.871  10.920
15557W        W88625  26.259  42.597  14.885
15558W        W88626   0.240  16.507  10.511
15559W        W88627  11.536  43.674   0.117
15560W        W88628  32.976   2.979  11.030
15561W        W88629  43.863  14.464   0.344
15562W        W88630  14.840  31.975   1.738
15563W        W88631  27.206  34.356   2.607
15564W        W88632   2.563  21.372  12.542
15565W        W88633   7.922   4.630  10.424
15566W        W88634  13.095  38.890   3.162
15567W        W88635  21.919  18.175  10.559
15568W        W88636  34.693   3.877   1.256
15569W        W88637  23.909  12.287  13.958
15570W        W88638  35.071  27.154   1.263
15571W        W88639  23.968  31.474   2.858
15572W        W88640   2.434  18.600   1.848
15573W        W88641  20.921  39.669   0.134
15574W        W88642  38.266  36.835   0.685
15575W        W88643  35.961   4.748   1.164
15576W        W88644  24.018  30.967  14.342
15577W        W88645  17.061   2.891   3.615
15578W        W88646  21.762  20.191   2.497
15579W        W88647  34.045  16.025  14.356
15580W        W88648  39.962  24.731   2.097
15581W        W88649  42.001   4.085   2.586
15582W        W88650  15.311  17.861   4.509
15583W        W88651  43.715   1.624   2.615
15584W        W88652  29.286  11.522  11.122
15585W        W88653   3.066  10.647   0.879
15586W        W88654  14.340  30.049   5.135
15587W        W88655  21.409  30.056  14.780
15588W        W88656  19.293  27.819   2.196
15589W        W88657  23.278  36.629  12.035
15590W        W88658   8.628  31.480  13.972
15591W        W88659   8.915  19.817  10.713
15592W        W88660   6.964   2.345   3.708
15593W        W88661  32.994  40.969   4.786
15594W        W88662  21.125  18.262   1.387
15595W        W88663  43.691  31.999  13.467
15596W        W88664  13.750   9.209  12.857
15597W        W88665  25.240  37.130   9.883
15598W        W88666  39.027  44.448  14.325
15599W        W88667  34.862  28.134   0.190
15600W        W88668  44.911   3.948  13.540
15601W        W88669  26.142   2.215   4.697
15602W        W88670  22.965  16.105  14.335
15603W        W88671  14.777   7.767  13.395
15604W        W88672  18.857  15.798   2.754
15605W        W88673  24.676   3.717   3.339
15606W        W88674  15.936   3.898   4.505
15607W        W88675  14.788  19.079   3.838
15608W        W88676  16.175  38.045   0.690
15609W        W88677   3.883  44.984   4.147
15610W        W88678   3.772  29.947   4.079
15611W        W88679  32.654   1.034  13.373
15612W        W88680  32.511  21.478   2.861
15613W        W88681   0.947   6.180  14.406
15614W        W88682  18.977  24.137  14.757
15615W        W88683  11.881  39.138  10.562
15616W        W88684   3.707  20.970  10.529
15617W        W88685  37.063  43.368  12.368
15618W        W88686   2.200  40.225   2.770
15619W        W88687   7.746  21.006   0.381
15620W        W88688  31.174   1.367  14.408
15621W        W88689   9.982  19.148  14.719
15622W        W88690   7.756  16.465   4.371
15623W        W88691  15.198  11.151  14.977
15624W        W88692   6.059  30.933   2.903
15625W        W88693  37.588  37.447  11.425
15626W        W88694  18.902   4.153   3.132
15627W        W88695   1.332  39.348  11.001
15628W        W88696  26.057  26.632   3.568
15629W        W88697  19.557  44.776  12.941
15630W        W88698  39.947  37.017  14.323
15631W        W88699  37.008  42.443  10.731
15632W        W88700  10.825  23.560   1.687
15633W        W88701  39.130  31.580  14.019
15634W        W88702  40.565   5.397  12.443
15635W        W88703  29.937  43.522  10.693
15636W        W88704  17.331  32.706  14.683
15637W        W88705  15.822  16.247  12.022
15638W        W88706   5.804  17.341   0.252
15639W        W88707  11.872   8.113   4.126
15640W        W88708  22.104  13.862  13.063
15641W        W88709  24.689  13.620  13.017
15642W        W88710  40.604   0.560  12.494
15643W        W88711  19.782  41.954  11.104
15644W        W88712  15.041   8.387  11.044
15645W        W88713   8.930   8.450   3.568
15646W        W88714  35.663  16.180   3.313
15647W        W88715  24.221   6.674  14.780
15648W        W88716  33.630   9.215   1.367
15649W        W88717  19.491  24.209   3.130
15650W        W88718   1.974   0.312  11.416
15651W        W88719   0.141  26.228  11.582
15652W        W88720  26.654  39.038  12.072
15653W        W88721  33.889   5.956  14.279
15654W        W88722  12.929  15.480  13.516
15655W        W88723  41.719   7.098   0.411
15656W        W88724   9.427  37.322   4.547
15657W        W88725  26.592  37.148  12.938
15658W        W88726  32.397  35.954   2.717
15659W        W88727   5.847   7.613   0.476
15660W        W88728  29.481  26.237   0.855
15661W        W88729  23.163  35.066  12.097
15662W        W88730  25.620  30.687   3.155
15663W        W88731  41.742   6.343   4.594
15664W        W88732  23.042  32.157  11.134
15665W        W88733  13.222   9.562  14.266
15666W        W88734   3.738  18.526  11.949
15667W        W88735  33.421   4.431  10.600
15668W        W88736   7.613   6.245  12.417
15669W        W88737   6.638  40.157  11.561
15670W        W88738  25.066  22.072  12.267
15671W        W88739  34.133  16.112  13.441
15672W        W88740  44.015  41.957   2.785
15673W        W88741  26.309   3.140  11.059
15674W        W88742  26.866  24.782   4.219
15675W        W88743   6.675  22.112   1.846
15676W        W88744  16.065  13.327   0.606
15677W        W88745  14.679   2.687  14.976
15678W        W88746  12.375  10.679  11.800
15679W        W88747  13.235  15.335  12.479
15680W        W88748   3.132  12.088  13.314
15681W        W88749   3.205  41.943  13.058
15682W        W88750   9.174  14.050  10.430
15683W        W88751  38.735  16.736   4.609
15684W        W88752  37.075   1.309  13.401
15685W        W88753  12.430   0.477  12.892
15686W        W88754  21.894   8.134  13.933
15687W        W88755  24.073  38.507   4.162
15688W        W88756   0.193  11.394  13.020
15689W        W88757  34.346  29.930   0.899
15690W        W88758  25.418  20.622  13.375
15691W        W88759  32.419  34.888   3.679
15692W        W88760  18.734   2.366   4.402
15693W        W88761  33.372  21.264   4.152
15694W        W88762  29.541   1.371  14.791
15695W        W88763  25.686  30.464  12.105
15696W        W88764  44.223  14.219  12.117
15697W        W88765  44.342  27.644   2.219
15698W        W88766   5.300  32.416   3.811
15699W        W88767  20.200  11.224   4.469
15700W        W88768  21.682  36.905   1.777
15701W        W88769  14.623  13.908   4.702
15702W        W88770  29.258   6.772  13.031
15703W        W88771   8.261  10.687  14.819
15704W        W88772  44.112  11.338   1.472
15705W        W88773  30.062  43.499  13.869
15706W        W88774  38.435  29.075   2.948
15707W        W88775  10.801  30.580  14.729
15708W        W88776  39.404  31.466   1.898
15709W        W88777  30.854  38.949   4.065
15710W        W88778  35.154  34.396  13.843
15711W        W88779   2.217   2.590  11.173
15712W        W88780  23.182  17.657  14.967
15713W        W88781  40.759  23.443   2.888
15714W        W88782   6.862  15.168  12.442
15715W        W88783  30.076  29.549  13.053
15716W        W88784  35.341  24.596   2.217
15717W        W88785  32.896  16.791  14.525
15718W        W88786  22.337  23.618  13.840
15719W        W88787  13.193   7.206   4.728
15720W        W88788  20.735  18.346  11.518
15721W        W88789  28.446  34.481  14.981
15722W        W88790  42.286  30.437   0.970
15723W        W88791  24.438   4.793   0.817
15724W        W88792  35.812  14.130  12.042
15725W        W88793  27.221  39.092  14.257
15726W        W88794  33.113  15.196  13.485
15727W        W88795  43.453  28.416  10.723
15728W        W88796  33.542  44.982   1.417
15729W        W88797  29.982   0.357  13.981
15730W        W88798  24.891  26.481  12.311
15731W        W88799  21.299  12.762  10.723
15732W        W88800  20.491   9.239  13.390
15733W        W88801  27.019  29.493  14.035
15734W        W88802  21.150   1.419   1.852
15735W        W88803  38.969   8.644  10.647
15736W        W88804  43.018   5.918  14.121
15737W        W88805  20.530   9.822  11.550
15738W        W88806   3.406  39.643   2.578
15739W        W88807  27.711   1.798   3.810
15740W        W88808  30.116  31.013  14.886
15741W        W88809   9.412   4.440  14.766
15742W        W88810  36.011  11.779  13.495
15743W        W88811  14.239   9.147   4.433
15744W        W88812  14.649   2.394  14.256
15745W        W88813  14.589  26.348  13.352
15746W        W88814  33.744   9.951  13.977
15747W        W88815  39.486   0.222  13.465
15748W        W88816  33.692   5.395   0.440
15749W        W88817  15.686   6.219  11.568
15750W        W88818   4.072   6.170   1.263
15751W        W88819  30.435   5.729   0.802
15752W        W88820  15.487  17.116  11.277
15753W        W88821  19.252  28.076  11.732
15754W        W88822  29.228   0.302   1.955
15755W        W88823   2.247  34.169   2.311
15756W        W88824  26.701  13.571   2.761
15757W        W88825  33.507  36.842  14.325
15758W        W88826   6.313  40.505  13.044
15759W        W88827  13.584  34.824  12.397
15760W        W88828  37.042  18.395   4.133
15761W        W88829  36.319  14.183  13.066
15762W        W88830  21.535  38.119   2.198
15763W        W88831  43.774  32.571  12.163
15764W        W88832   7.643   2.893  13.022
15765W        W88833  41.986  22.277  14.459
15766W        W88834  19.974  40.788  12.078
15767W        W88835   5.740   1.035  12.415
15768W        W88836  37.604  29.990   3.168
15769W        W88837  32.025  39.124  14.268
15770W        W88838  41.623   3.381  11.272
15771W        W88839  20.317  37.176  12.623
15772W        W88840  44.495  32.641  14.409
15773W        W88841   9.236   7.702   0.890
15774W        W88842  41.474   1.779  11.605
15775W        W88843   9.381  10.092  11.084
15776W        W88844   5.704  23.040   1.785
15777W        W88845  33.379  42.970  14.521
15778W        W88846   1.938   5.683  10.584
15779W        W88847  44.227  44.326   2.165
15780W        W88848  28.889   4.938  14.514
15781W        W88849  13.874  26.359  11.637
15782W        W88850  11.693  25.506   4.726
15783W        W88851  24.513  35.375  13.280
15784W        W88852  21.284   4.992   4.478
15785W        W88853  34.227   4.339   4.670
15786W        W88854   8.014  13.298  14.014
15787W        W88855  32.860  34.103  10.640
15788W        W88856  42.981   2.576  14.237
15789W        W88857   9.199  28.612   3.336
15790W        W88858  24.580  25.153   2.394
15791W        W88859  17.244  17.116   0.567
15792W        W88860  31.940  14.345   4.203
15793W        W88861   4.932  29.430  10.686
15794W        W88862  29.308   8.052   2.624
15795W        W88863  43.147  40.986  13.814
15796W        W88864   8.345  25.670   1.899
15797W        W88865  26.055  27.894  10.752
15798W        W88866  38.024  25.163   2.347
15799W        W88867   1.703  24.080   3.671
15800W        W88868   1.281   1.685  12.023
15801W        W88869  42.745  31.477   2.582
15802W        W88870  22.542  20.433  11.590
15803W        W88871  32.053  29.991  10.813
15804W        W88872  22.693  23.458   4.098
15805W        W88873  26.692   9.597   2.300
15806W        W88874  43.531   5.729  14.302
15807W        W88875  33.868  29.078   0.239
15808W        W88876   6.668  19.604   5.002
15809W        W88877   7.248   0.555  12.865
15810W        W88878  30.715  17.436  13.283
15811W        W88879  20.084  25.587   2.736
15812W        W88880   0.714  12.715   3.749
15813W        W88881  44.495  17.566  13.867
15814W        W88882  13.606  43.687   0.023
15815W        W88883   2.950  40.940   3.937
15816W        W88884  33.362   8.762   1.328
15817W        W88885   5.878  29.497  11.955
15818W        W88886   6.360  21.204   0.446
15819W        W88887  10.130  32.125  12.332
15820W        W88888  27.572   9.787   0.368
15821W        W88889  20.765  39.801  12.390
15822W        W88890  21.892  16.628  10.232
15823W        W88891  12.678  32.491  12.364
15824W        W88892  30.431  42.805  11.158
15825W        W88893   4.788  10.844  13.998
15826W        W88894  18.106   6.404   1.785
15827W        W88895  25.051  37.099  10.809
15828W        W88896  10.342  26.662  13.550
15829W        W88897  22.965  12.710   1.146
15830W        W88898  44.984  16.319  14.133
15831W        W88899  25.983  31.185  10.952
15832W        W88900  21.715  43.484   1.460
15833W        W88901   6.813  36.218  12.437
15834W        W88902  36.857  33.782  14.497
15835W        W88903   6.576  40.238   2.726
15836W        W88904  36.859  35.462   3.231
15837W        W88905  39.617   7.792  10.546
15838W        W88906  13.444  27.406  13.748
15839W        W88907   1.559  23.688  12.011
15840W        W88908  42.245  38.345  11.635
15841W        W88909   9.712   6.084   1.396
15842W        W88910  19.879  24.970  13.056
15843W        W88911   7.322   2.794   3.674
15844W        W88912  37.961  41.233  14.060
15845W        W88913  29.467  17.414  11.570
15846W        W88914  34.806  30.406  14.231
15847W        W88915  16.234   3.296   3.307
15848W        W88916  35.525  17.569   2.870
15849W        W88917   4.223  14.244   4.052
15850W        W88918  31.895   0.478   3.433
15851W        W88919  34.535  36.151  12.023
15852W        W88920   5.865  26.735  11.066
15853W        W88921  30.978  32.856   1.933
15854W        W88922  38.529   2.348   1.703
15855W        W88923  18.188   4.447  14.501
15856W        W88924  42.075  14.667  14.491
15857W        W88925  22.593  42.030   2.108
15858W        W88926  23.800  15.675   2.660
15859W        W88927  21.048   7.167   3.549
15860W        W88928  10.805  18.475  13.417
15861W        W88929   7.850   5.212  14.549
15862W        W88930   1.710  11.578   3.706
15863W        W88931  15.357  38.423  14.332
15864W        W88932   6.914  14.056  13.700
15865W        W88933   3.927  32.102  14.265
15866W        W88934   6.960   3.434  13.049
15867W        W88935  11.362  21.070  11.656
15868W        W88936  24.726  36.347   2.040
15869W        W88937  30.990  41.597  14.568
15870W        W88938  21.113  31.143   1.355
15871W        W88939  41.369  23.342  12.549
15872W        W88940   3.607  15.121   3.873
15873W        W88941  27.590   9.839   0.882
15874W        W88942  14.651  14.587  14.889
15875W        W88943  44.693   7.418  13.423
15876W        W88944   2.989  32.216  13.004
15877W        W88945   2.941   1.060   1.700
15878W        W88946  18.177  20.815  14.083
15879W        W88947  18.020  18.618  10.923
15880W        W88948  18.031  30.566  14.239
15881W        W88949  29.507  27.364  13.281
15882W        W88950  36.353  16.471   2.877
15883W        W88951  24.005  43.031   0.467
15884W        W88952  36.034  20.001   3.844
15885W        W88953   7.345  35.744   0.621
15886W        W88954  31.943  25.005   2.304
15887W        W88955  32.125  42.328  12.361
15888W        W88956   6.849  12.386  14.415
15889W        W88957   3.952  24.255  12.042
15890W        W88958  34.986  12.570  12.015
15891W        W88959  40.883  44.956  10.739
15892W        W88960   7.220   7.409  13.596
15893W        W88961   3.728  41.462  11.887
15894W        W88962  35.751   5.448   4.135
15895W        W88963  42.992   0.287  14.766
15896W        W88964  34.349   2.280  13.885
15897W        W88965  36.125   9.917  13.437
15898W        W88966  37.103  30.700  12.969
15899W        W88967  24.498  43.672  12.498
15900W        W88968  36.461  40.966  12.643
15901W        W88969  41.394  43.723  13.948
15902W        W88970   2.736  26.300  14.427
15903W        W88971  19.345  32.090   0.825
15904W        W88972  34.862  41.911  13.022
15905W        W88973   6.788  42.539  12.520
15906W        W88974   6.309  44.043   1.451
15907W        W88975  13.696  28.127   2.453
15908W        W88976  30.528  20.487  12.946
15909W        W88977  28.544   4.885   4.688
15910W        W88978  25.166  42.969   2.302
15911W        W88979  33.713  29.181   2.222
15912W        W88980  11.872   8.927  10.730
15913W        W88981   6.066  21.752  13.930
15914W        W88982  24.196  10.300  13.129
15915W        W88983  24.213  39.072   1.324
15916W        W88984  15.292  22.970   4.698
15917W        W88985   9.271  30.862   4.430
15918W        W88986  38.260   3.399   3.652
15919W        W88987  36.028  14.094  14.828
15920W        W88988  17.562  40.464   3.433
15921W        W88989  27.905   6.985  12.625
15922W        W88990  18.562  39.061  11.557
15923W        W88991  28.345  17.823  11.048
15924W        W88992  29.943  23.570   3.664
15925W        W88993  44.833  27.106  13.876
15926W        W88994  31.900  26.873  13.666
15927W        W88995  21.699  15.721   1.394
15928W        W88996  27.637  27.195   3.721
15929W        W88997  30.550   3.946   4.692
15930W        W88998  31.407   5.606  14.908
15931W        W88999  29.500  21.654   4.416
15932W        W89000  20.758  24.015   1.381
15933W        W89001  38.020   0.523   4.923
15934W        W89002  38.494  33.828  14.839
15935W        W89003  25.921   0.658  12.628
15936W        W89004  12.266  43.431   2.721
15937W        W89005   1.952   7.149  10.736
15938W        W89006  13.555  37.631  12.112
15939W        W89007  23.286  17.815  10.628
15940W        W89008  12.833  28.094   0.073
15941W        W89009   0.729  41.606  11.147
15942W        W89010  18.624  33.198  11.967
15943W        W89011  14.935   9.678  10.724
15944W        W89012  28.368  28.343   3.885
15945W        W89013  40.057   5.767   3.843
15946W        W89014  26.971  41.946  13.051
15947W        W89015  18.791   4.691   1.885
15948W        W89016  28.543  28.250  13.490
15949W        W89017  20.569  35.974   1.967
15950W        W89018  27.148   8.347   2.303
15951W        W89019  23.876  31.027  13.024
15952W        W89020   5.432  17.032   0.007
15953W        W89021  19.459  14.831   0.733
15954W        W89022   1.911  25.108  12.389
15955W        W89023  38.889  36.135  12.103
15956W        W89024  16.056  12.352  11.482
15957W        W89025  12.173  17.681   0.121
15958W        W89026  10.370  16.218   1.677
15959W        W89027   0.262  18.062  12.539
15960W        W89028   0.191   4.868   0.327
15961W        W89029  19.087  20.260  13.923
15962W        W89030  39.642  17.670  11.608
15963W        W89031   3.298   2.920  12.408
15964W        W89032  32.916  21.506   3.241
15965W        W89033  12.497  12.274   4.622
15966W        W89034  24.977  24.730  12.912
15967W        W89035   1.057  22.062   1.798
15968W        W89036   7.208  42.257   3.382
15969W        W89037  37.189  38.785  14.200
15970W        W89038  23.725  11.350   0.666
15971W        W89039  44.522  21.421  12.882
15972W        W89040  33.101  23.992  14.425
15973W        W89041  41.263  25.709   0.808
15974W        W89042   2.937  22.457   4.790
15975W        W89043  43.213  18.715  13.852
15976W        W89044  42.569  39.760   0.530
15977W        W89045  25.467  14.628  12.812
15978W        W89046  30.341  36.136   2.576
15979W        W89047  42.857   3.373   1.169
15980W        W89048  35.428  35.624  14.844
15981W        W89049  37.220   8.352  12.489
15982W        W89050  39.881  35.460   4.761
15983W        W89051  28.403  13.711  10.662
15984W        W89052  29.612  31.610  14.252
15985W        W89053   4.213  10.262   1.368
15986W        W89054  36.875  16.015   5.090
15987W        W89055  32.692  13.295  11.194
15988W        W89056  35.560  37.569   0.864
15989W        W89057  16.078  12.587   3.340
15990W        W89058  36.937  37.289  10.139
15991W        W89059  29.865  18.199   0.227
15992W        W89060  28.399  15.200   3.301
15993W        W89061   7.524   4.753  12.547
15994W        W89062  21.444  20.067  14.442
15995W        W89063  37.435   1.689  11.555
15996W        W89064  29.654  19.025  14.033
15997W        W89065  15.818  15.412   1.686
15998W        W89066   1.956  12.679  13.974
15999W        W89067   0.245  38.021  12.142
16000W        W89068  21.966  29.631  10.667
16001W        W89069  44.777  16.557  10.752
16002W        W89070  26.692   8.221   0.511
16003W        W89071   7.163  43.095   3.779
16004W        W89072  22.046  39.257   2.670
16005W        W89073  18.866   7.184   4.100
16006W        W89074   9.793  12.880   2.077
16007W        W89075  33.155  35.400   2.018
16008W        W89076  24.820  33.070   0.276
16009W        W89077  16.765   5.121  14.277
16010W        W89078  44.380  21.587  14.701
16011W        W89079  39.921  29.600   1.753
16012W        W89080  38.278  41.268  14.572
16013W        W89081  16.113  44.861  12.840
16014W        W89082   4.118  21.437   0.676
16015W        W89083  13.249  15.356   0.070
16016W        W89084  34.695  13.450   1.441
16017W        W89085  39.890  23.328  14.932
16018W        W89086  23.617  43.808  14.551
16019W        W89087  41.273   8.461   0.944
16020W        W89088  17.714  42.982   0.677
16021W        W89089  30.050   5.715  14.511
16022W        W89090  41.347  17.977  11.527
16023W        W89091   3.250  40.023  11.973
16024W        W89092  27.734  19.641  14.013
16025W        W89093  37.884  40.585  12.530
16026W        W89094  37.889  17.298   4.888
16027W        W89095  13.306  24.130   4.190
16028W        W89096   2.714  13.223   0.905
16029W        W89097  38.007  14.406  11.504
16030W        W89098  26.689  38.348   3.072
16031W        W89099  35.655  12.183   1.216
16032W        W89100  18.299  21.980   0.519
16033W        W89101  19.072  44.329   2.707
16034W        W89102  35.506  18.545  10.754
16035W        W89103   3.398  41.405   1.625
16036W        W89104  17.689  16.339  11.818
16037W        W89105  24.539  39.550   0.502
16038W        W89106  36.615  36.562   1.766
16039W        W89107  43.763  20.288  12.080
16040W        W89108   1.712  31.032   1.708
16041W        W89109   2.391   9.095   0.727
16042W        W89110  19.704  21.194  11.498
16043W        W89111  20.686  15.847  12.473
16044W        W89112   2.532  36.531   2.973
16045W        W89113  41.514  19.082   3.353
16046W        W89114  22.122  44.983  11.489
16047W        W89115  12.906  44.432   2.219
16048W        W89116  30.712  36.028   1.456
16049W        W89117   4.467  17.273  10.486
16050W        W89118  11.590   5.427  12.463
16051W        W89119  37.216  36.404  12.554
16052W        W89120   1.321  32.652   2.191
16053W        W89121  20.545  44.410  14.958
16054W        W89122   2.072  19.258   1.896
16055W        W89123   7.074   3.138  14.298
16056W        W89124  17.759  32.608  10.508
16057W        W89125  11.796   4.824   0.278
16058W        W89126  32.146  12.587  10.815
16059W        W89127  34.933  18.229  13.540
16060W        W89128   1.351  12.081   4.826
16061W        W89129  31.168  11.705  14.412
16062W        W89130  12.811  44.560  14.817
16063W        W89131  28.044  10.934   2.228
16064W        W89132  43.953  13.857  13.168
16065W        W89133  36.341  28.644  12.978
16066W        W89134  27.660  44.733  11.993
16067W        W89135  44.183  26.559   2.753
16068W        W89136  35.392  11.342  14.790
16069W        W89137  23.880  29.013  12.811
16070W        W89138   2.375   7.522   1.537
16071W        W89139  41.554   0.998  14.275
16072W        W89140   1.548   5.249  12.149
16073W        W89141   5.211  37.548  11.926
16074W        W89142  44.764  20.110   4.629
16075W        W89143  20.048  34.819   0.307
16076W        W89144  30.846  30.957   4.965
16077W        W89145   7.442  27.475   3.588
16078W        W89146  28.967  32.525   3.851
16079W        W89147  18.342   4.687   0.013
16080W        W89148  43.508  42.879  10.790
16081W        W89149  27.975  26.120   2.172
16082W        W89150  34.119  31.881  11.529
16083W        W89151  18.101  29.930   1.244
16084W        W89152  37.667   0.224   3.140
16085W        W89153   7.725   7.890   4.104
16086W        W89154  37.403  17.105   2.751
16087W        W89155   4.117   3.508   0.384
16088W        W89156  13.894   8.789  14.064
16089W        W89157  35.895  29.160   4.181
16090W        W89158   7.635  42.393   1.944
16091W        W89159  40.995  16.304   4.059
16092W        W89160  40.578   4.274   2.617
16093W        W89161   3.525  15.125   2.563
16094W        W89162  26.747   1.435   2.874
16095W        W89163  28.674   3.724   2.763
16096W        W89164  24.257  13.900   4.153
16097W        W89165   4.696  27.073   0.445
16098W        W89166  12.883  31.655  10.833
16099W        W89167  42.613   0.387  12.628
16100W        W89168  38.861  27.535  13.911
16101W        W89169  26.529  32.136  14.414
16102W        W89170  11.639  41.301   3.157
16103W        W89171  25.764  13.464  11.373
16104W        W89172   6.972  24.188  12.479
16105W        W89173  35.727  13.056   1.376
16106W        W89174  30.888  41.378   2.260
16107W        W89175  26.393  26.047  11.950
16108W        W89176   9.917  30.952   3.602
16109W        W89177  43.383  15.836  12.884
16110W        W89178   2.988   1.006   0.855
16111W        W89179   8.791  22.468  11.044
16112W        W89180  12.069   4.116  12.074
16113W        W89181  11.655  41.611  10.726
16114W        W89182  33.409  22.728  11.497
16115W        W89183   0.715  23.524  11.622
16116W        W89184  29.804  39.527   3.602
16117W        W89185  37.952  18.263   1.677
16118W        W89186  11.976  31.920   4.514
16119W        W89187  17.887  10.340   3.663
16120W        W89188  43.537  15.194  10.359
16121W        W89189   6.798  26.311  13.924
16122W        W89190  20.665  43.910   0.753
16123W        W89191  23.894  42.088  13.745
16124W        W89192  23.656   7.875  12.468
16125W        W89193  21.118  44.862  14.011
16126W        W89194  22.510   6.293   1.686
16127W        W89195  33.894   4.976   1.421
16128W        W89196  26.873  41.339  11.984
16129W        W89197  12.602   6.788  14.052
16130W        W89198   8.640  11.256  12.090
16131W        W89199   3.481  24.211   4.111
16132W        W89200  30.937  42.022   1.847
16133W        W89201  22.735  41.373   9.961
16134W        W89202   0.263  23.106   3.670
16135W        W89203  29.122  23.663  13.074
16136W        W89204   8.893  19.621  14.450
16137W        W89205  23.021  22.759  10.774
16138W        W89206   5.744  15.671  11.604
16139W        W89207  28.496  17.312   0.821
16140W        W89208  18.739   4.731  14.692
16141W        W89209  15.556   3.910   1.378
16142W        W89210  16.541  34.587  11.088
16143W        W89211  19.103  36.364  14.537
16144W        W89212  13.922  34.851  11.603
16145W        W89213  31.866  14.793  11.259
16146W        W89214   2.421  36.965   3.665
16147W        W89215   4.923  24.862  10.662
16148W        W89216   5.318  23.128  14.316
16149W        W89217  38.376  32.883   4.691
16150W        W89218   9.453  31.447   2.904
16151W        W89219  31.623  11.673  11.608
16152W        W89220  39.501  40.856   3.818
16153W        W89221  25.709  44.053   5.026
16154W        W89222  27.434  27.538   4.559
16155W        W89223  23.521  10.272   1.494
16156W        W89224  42.186  10.420  12.306
16157W        W89225  29.759  29.908  11.490
16158W        W89226  29.147  37.580   0.799
16159W        W89227   7.236   3.288   3.893
16160W        W89228  40.731  39.947   1.876
16161W        W89229  33.247  21.736  14.462
16162W        W89230   1.981  25.164   3.057
16163W        W89231   7.857  18.108  12.584
16164W        W89232  26.425  13.780  13.820
16165W        W89233  15.292  30.557   2.281
16166W        W89234  21.615  26.514  13.376
16167W        W89235  23.247   4.820  12.058
16168W        W89236  35.012  22.422  13.652
16169W        W89237  40.626   7.780   2.900
16170W        W89238  13.138  41.424  12.370
16171W        W89239  20.485  20.346   1.833
16172W        W89240  39.411  26.149  14.026
16173W        W89241   3.746  12.883   0.908
16174W        W89242  13.161  28.573   1.369
16175W        W89243   9.674   3.730  12.084
16176W        W89244   2.284  15.190  13.338
16177W        W89245   7.888  34.381   2.708
16178W        W89246  12.886  12.194   2.234
16179W        W89247   8.702  19.878  14.023
16180W        W89248  33.612  26.492  10.745
16181W        W89249  17.282  41.948  13.497
16182W        W89250  12.896   3.584   3.261
16183W        W89251   3.746  26.444  14.741
16184W        W89252  20.810  42.864  12.166
16185W        W89253  12.268  26.474  12.458
16186W        W89254  40.266  10.473   2.353
16187W        W89255  44.202   4.937  14.445
16188W        W89256   5.843  40.097  14.007
16189W        W89257  34.452  16.300   0.483
16190W        W89258  31.304  38.686  12.466
16191W        W89259  28.122  41.447   2.665
16192W        W89260  12.152   1.320   1.711
16193W        W89261  22.801   8.260   4.565
16194W        W89262   3.996  43.837  14.821
16195W        W89263  17.924  32.143  10.692
16196W        W89264  10.643  26.829  14.832
16197W        W89265  20.536  27.523  10.434
16198W        W89266   3.428  24.514   4.576
16199W        W89267  34.933   0.707  11.920
16200W        W89268  17.591  10.247   4.532
16201W        W89269  43.935  12.370  13.907
16202W        W89270  12.280  40.714  11.575
16203W        W89271   3.239  19.178   0.914
16204W        W89272  11.173  41.415   3.884
16205W        W89273  27.573  44.347   0.155
16206W        W89274  33.437   1.908   2.782
16207W        W89275  27.028  25.610   4.536
16208W        W89276   9.298  34.680  12.617
16209W        W89277  36.984  16.655   1.177
16210W        W89278  22.228  37.451   0.153
16211W        W89279  26.705  16.764  13.926
16212W        W89280  28.578  21.163  12.036
16213W        W89281  26.863  11.707  12.451
16214W        W89282   2.439  23.755   4.631
16215W        W89283   8.370  20.085  12.156
16216W        W89284  14.050   5.241  11.715
16217W        W89285   2.742  27.741   2.697
16218W        W89286  17.676   6.210   3.567
16219W        W89287  11.228  23.680  12.362
16220W        W89288  36.056   0.918  12.962
16221W        W89289  24.768  38.577  11.578
16222W        W89290  14.286  20.827   1.322
16223W        W89291  41.360  17.585   1.481
16224W        W89292  11.131  22.835   0.034
16225W        W89293  27.663  24.532  10.727
16226W        W89294  44.177   3.290   0.786
16227W        W89295  39.786  16.439   1.147
16228W        W89296  44.496  38.532  14.768
16229W        W89297  25.582  43.537   0.793
16230W        W89298  17.271  34.480  12.910
16231W        W89299   8.599  27.979  12.362
16232W        W89300   1.358   3.362   4.416
16233W        W89301  33.505  15.306   1.928
16234W        W89302  32.426  15.082  13.555
16235W        W89303  23.740   5.366   3.272
16236W        W89304   2.824  24.651   0.153
16237W        W89305  28.561  43.326  11.625
16238W        W89306   5.332  22.999   0.914
16239W        W89307  14.725   5.448  13.472
16240W        W89308  32.994  24.886   4.571
16241W        W89309  41.998  19.954  13.308
16242W        W89310  25.112  29.349  13.394
16243W        W89311  31.042  33.315  14.999
16244W        W89312   3.540   4.862   1.922
16245W        W89313   0.843  10.851  14.340
16246W        W89314  33.868   9.367  11.912
16247W        W89315   3.845  25.988   0.909
16248W        W89316  43.598  32.667  12.908
16249W        W89317  40.822   4.683   2.843
16250W        W89318  35.194  42.964   4.177
16251W        W89319  11.899  30.539   4.790
16252W        W89320  41.389  39.049  10.693
16253W        W89321  29.040  13.086   2.181
16254W        W89322  19.856  18.746  13.904
16255W        W89323  28.336  32.894  11.090
16256W        W89324  35.294  19.579   3.061
16257W        W89325  16.206   6.749   1.453
16258W        W89326  43.440  42.944  12.680
16259W        W89327  26.977  20.711   3.090
16260W        W89328   0.503   5.419  12.834
16261W        W89329  40.044  41.894  12.516
16262W        W89330  29.329  42.058  11.485
16263W        W89331  23.909  42.471  13.339
16264W        W89332  44.388  32.627  13.035
16265W        W89333  42.010  26.520  11.042
16266W        W89334  31.620  14.274  11.992
16267W        W89335  20.250   0.857  10.763
16268W        W89336   1.795  29.523   0.032
16269W        W89337  14.249  40.947  10.972
16270W        W89338  26.387  32.577  11.988
16271W        W89339   9.667  35.518  12.459
16272W        W89340   9.202  32.462  12.985
16273W        W89341  24.600   8.128   3.908
16274W        W89342  22.450   6.674  12.542
16275W        W89343  41.879   9.762  11.658
16276W        W89344   3.364  41.332  14.322
16277W        W89345   4.409  17.187   3.184
16278W        W89346  32.736  13.341   4.734
16279W        W89347  38.858   2.794   4.198
16280W        W89348  13.616   3.296   5.079
16281W        W89349  13.379  41.878  12.410
16282W        W89350  23.690  42.286  10.652
16283W        W89351  30.404   8.630   3.237
16284W        W89352  19.584  43.369   4.102
16285W        W89353  35.691   9.861  12.670
16286W        W89354  17.132  32.471  11.654
16287W        W89355  42.843   4.758   4.367
16288W        W89356  43.009  29.458   4.458
16289W        W89357  11.647  26.467   0.657
16290W        W89358  23.613  40.008  12.566
16291W        W89359  15.093  18.233   4.172
16292W        W89360   7.913  29.512   3.446
16293W        W89361   1.219  32.562  12.297
16294W        W89362  17.802   9.983   2.313
16295W        W89363  29.666  22.925   4.608
16296W        W89364   2.950   9.624  12.296
16297W        W89365  44.734   5.466   2.935
16298W        W89366  23.738  41.210   4.913
16299W        W89367  22.538  30.023   2.716
16300W        W89368  12.373  26.514   0.330
16301W        W89369  17.032  34.627   4.647
16302W        W89370  28.409   1.507   4.217
16303W        W89371  33.712  31.680   3.183
16304W        W89372  15.896   8.479  14.852
16305W        W89373  26.838  29.163  13.482
16306W        W89374  19.452  29.188  11.013
16307W        W89375   5.252  30.955  12.608
16308W        W89376  15.259  15.548   2.257
16309W        W89377  32.276   4.772  11.924
16310W        W89378  44.982  29.012   0.302
16311W        W89379   7.361  23.473   3.585
16312W        W89380   2.275  24.701  14.960
16313W        W89381  17.855  17.073  14.967
16314W        W89382  40.286  44.383  13.092
16315W        W89383  26.610  34.419  12.260
16316W        W89384  10.771   1.949   2.400
16317W        W89385   3.736   1.653  12.596
16318W        W89386  31.604  10.894  11.046
16319W        W89387  24.251  38.420   5.150
16320W        W89388   0.974   7.323  13.967
16321W        W89389  26.549  43.960   4.982
16322W        W89390  22.517  22.961  13.387
16323W        W89391  12.590   4.809  13.518
16324W        W89392  22.017  27.249  10.681
16325W        W89393  26.197  38.337  12.626
16326W        W89394  12.929  18.549   4.150
16327W        W89395   3.765   2.317   1.759
16328W        W89396  36.309  34.855   4.216
16329W        W89397   2.102   4.372   0.423
16330W        W89398  37.770  43.722  13.945
16331W        W89399  26.194  37.281  10.947
16332W        W89400  36.404  23.069   1.008
16333W        W89401   0.230  36.985  14.937
16334W        W89402  23.660  20.308   2.362
16335W        W89403   3.236  36.985  10.682
16336W        W89404   0.976  24.525   2.202
16337W        W89405  44.270  35.204   2.688
16338W        W89406  27.869  37.937   4.989
16339W        W89407  33.140  37.010   1.880
16340W        W89408   5.478  36.337   4.244
16341W        W89409  22.041  39.461   1.751
16342W        W89410  43.542  38.516  12.950
16343W        W89411  29.001   3.222   0.493
16344W        W89412   3.715  41.318   4.184
16345W        W89413  20.633   3.938   0.351
16346W        W89414  17.583  20.580   0.259
16347W        W89415  28.363  21.195  11.539
16348W        W89416  18.024  27.667  12.660
16349W        W89417  22.491  39.449   1.344
16350W        W89418   9.339  34.421  11.197
16351W        W89419   7.733  31.936  14.035
16352W        W89420  22.669   9.720   2.236
16353W        W89421  32.471  23.118   2.942
16354W        W89422  20.808  14.105  14.015
16355W        W89423   1.134  17.024   2.630
16356W        W89424   8.119  23.556   1.139
16357W        W89425  11.521  20.593   0.279
16358W        W89426  31.134  24.523  13.436
16359W        W89427  17.535  25.002   0.094
16360W        W89428  23.835   3.193   4.656
16361W        W89429  29.599  44.370   3.223
16362W        W89430  11.908  33.026  10.449
16363W        W89431  26.925  11.200   1.762
16364W        W89432  35.314   1.684   1.805
16365W        W89433  28.635  18.813  14.763
16366W        W89434  16.296  42.600  10.736
16367W        W89435  38.279  33.630   1.242
16368W        W89436  30.995  24.577  11.650
16369W        W89437  26.413  27.030   1.802
16370W        W89438   2.705   5.879  14.205
16371W        W89439  13.661   5.782   0.308
16372W        W89440  15.797  35.485   2.662
16373W        W89441  36.544   6.972   4.550
16374W        W89442  27.194   2.217   4.714
16375W        W89443  30.594  28.657  14.382
16376W        W89444  32.077  39.027   4.549
16377W        W89445  21.202  33.991   2.931
16378W        W89446  15.824  19.355  12.983
16379W        W89447  24.627  10.339   3.909
16380W        W89448  22.275   9.030   2.680
16381W        W89449  42.360  40.911  11.403
16382W        W89450  30.421  31.637  12.958
16383W        W89451  34.480  16.760  11.928
16384W        W89452  29.072  35.344  11.769
16385W        W89453  22.321  24.659   3.683
16386W        W89454  17.575  26.189   3.590
16387W        W89455  10.898  36.939  14.616
16388W        W89456  37.836  25.475   3.224
16389W        W89457  15.630  33.028   4.580
16390W        W89458  39.222   0.422  10.305
16391W        W89459  27.642  14.848   2.835
16392W        W89460  24.211  15.452   3.573
16393W        W89461   8.708  40.779  11.081
16394W        W89462  44.499   1.151   2.388
16395W        W89463  37.922  30.129  11.495
16396W        W89464  40.045  37.590  13.140
16397W        W89465  39.841   1.821  13.046
16398W        W89466  25.721  21.653   2.208
16399W        W89467   3.810   3.566   4.467
16400W        W89468  11.581  22.054   3.347
16401W        W89469  31.090  18.960   4.161
16402W        W89470   4.995  41.956   2.254
16403W        W89471  22.669  40.365  14.930
16404W        W89472  12.072  24.409  12.698
16405W        W89473  24.785  44.894   4.622
16406W        W89474   3.740  24.061  10.775
16407W        W89475  28.526  16.470  13.005
16408W        W89476  33.506  34.474   5.308
16409W        W89477  33.355  24.669   3.818
16410W        W89478  43.166  24.977   1.552
16411W        W89479  19.303  36.739  11.215
16412W        W89480  36.602  21.031  10.740
16413W        W89481  13.744  25.870  11.627
16414W        W89482   0.854   4.014  12.285
16415W        W89483   6.780  40.403  12.397
16416W        W89484  43.098  37.048  13.535
16417W        W89485  40.563  14.000   5.353
16418W        W89486  39.483  26.204   0.017
16419W        W89487   3.270  21.186   2.379
16420W        W89488  41.912  37.905   0.860
16421W        W89489   4.253  31.809  13.967
16422W        W89490  16.478  17.263  11.037
16423W        W89491  15.966   0.517   0.138
16424W        W89492  38.496   4.528  12.940
16425W        W89493  36.221   4.813   3.957
16426W        W89494   9.862  41.950  14.531
16427W        W89495  14.123  44.888   2.568
16428W        W89496   7.897  20.752  14.367
16429W        W89497  14.181   5.720   0.428
16430W        W89498   7.291  31.627   1.319
16431W        W89499  19.148   7.782   3.725
16432W        W89500  36.739  39.983   2.089
16433W        W89501  33.070   2.388  10.490
16434W        W89502   3.641  34.174  12.507
16435W        W89503   7.145  22.523  11.527
16436W        W89504  28.137  31.165   1.870
16437W        W89505  19.536  25.679   4.049
16438W        W89506  23.738   4.676  11.190
16439W        W89507   6.360  18.012  14.122
16440W        W89508   8.940  43.994   4.881
16441W        W89509  12.645   2.822  10.809
16442W        W89510  20.024   7.328  10.878
16443W        W89511  28.438   2.009   4.306
16444W        W89512  35.184  44.142   4.183
16445W        W89513  17.787  10.651   3.160
16446W        W89514  38.962  31.158   5.060
16447W        W89515  13.164  34.062   3.224
16448W        W89516   8.094  11.265   3.701
16449W        W89517  25.059   6.730  10.622
16450W        W89518  43.795  35.353   2.857
16451W        W89519   2.805  15.202  13.377
16452W        W89520   0.976  31.284   0.071
16453W        W89521   7.729  44.303   3.669
16454W        W89522  35.808  40.041   2.210
16455W        W89523  39.731   9.308   0.816
16456W        W89524   4.103  10.717  11.092
16457W        W89525  20.012  10.529   1.160
16458W        W89526  11.363  11.810  12.905
16459W        W89527  22.684  16.580   1.788
16460W        W89528  21.528  35.334   0.425
16461W        W89529  37.356   6.868  14.487
16462W        W89530  32.560   3.693   3.745
16463W        W89531   4.170   5.271   0.433
16464W        W89532  36.556  23.418   0.235
16465W        W89533   6.298  19.115  10.180
16466W        W89534   5.798  44.308   2.605
16467W        W89535  35.815  17.404   5.011
16468W        W89536  28.416  28.106   2.650
16469W        W89537  26.941  12.400   0.959
16470W        W89538  14.833  43.418  11.167
16471W        W89539  17.833  18.657   0.243
16472W        W89540   5.266  41.058  10.780
16473W        W89541  31.120   9.666  13.321
16474W        W89542  44.320  33.616  13.435
16475W        W89543  37.185  26.688   1.738
16476W        W89544  40.900  16.721  10.665
16477W        W89545   9.936  24.000  11.962
16478W        W89546   0.491  41.682   3.679
16479W        W89547  30.464   9.130   1.301
16480W        W89548  29.578  28.063  13.865
16481W        W89549  34.181   6.661   0.455
16482W        W89550  29.010  20.630  13.384
16483W        W89551  24.270  27.981   1.714
16484W        W89552  28.199  41.798   2.268
16485W        W89553  29.465  24.597  12.811
16486W        W89554  33.330  15.668  14.860
16487W        W89555  42.458  24.970   3.628
16488W        W89556  34.853  27.363   0.834
16489W        W89557  19.790  33.336  13.801
16490W        W89558  42.415  27.917  13.271
16491W        W89559  21.230  12.656  13.468
16492W        W89560  11.387  30.605   4.803
16493W        W89561   2.619  25.068   4.160
16494W        W89562  25.857  26.196   2.728
16495W        W89563  41.035  41.711   2.801
16496W        W89564  36.354  32.046   4.580
16497W        W89565  23.249  34.184   2.168
16498W        W89566  36.009  35.868   0.821
16499W        W89567  13.305  42.936  11.522
16500W        W89568  42.060  43.449   0.949
16501W        W89569  13.357  41.111   1.753
16502W        W89570  11.311  27.638  11.407
16503W        W89571   7.167  15.519   0.837
16504W        W89572  37.615  44.913   3.600
16505W        W89573  44.817  43.519   4.219
16506W        W89574  31.202  31.406   0.528
16507W        W89575  43.851  35.450   1.372
16508W        W89576   2.845  18.162   1.755
16509W        W89577   5.831   7.441   3.158
16510W        W89578  20.654  33.139   3.594
16511W        W89579  31.637  19.932   4.864
16512W        W89580  13.069   6.724   0.298
16513W        W89581  25.360  18.099   3.365
16514W        W89582  41.102   0.734  11.962
16515W        W89583  11.413  40.292   4.805
16516W        W89584   9.701  37.420  14.914
16517W        W89585  14.413   1.460  14.957
16518W        W89586  21.181  39.314   3.915
16519W        W89587   3.327   8.599   0.413
16520W        W89588  32.162   8.970   3.674
16521W        W89589  41.951  44.968   3.184
16522W        W89590  20.062  41.958   0.779
16523W        W89591  37.468  17.567   1.798
16524W        W89592  16.157  33.460  13.905
16525W        W89593   1.468   3.961  12.477
16526W        W89594  27.125  18.444  12.386
16527W        W89595   1.011  25.000  12.071
16528W        W89596   3.495  14.176  14.385
16529W        W89597  16.708  22.160   2.839
16530W        W89598  24.616  25.581   4.381
16531W        W89599  32.996  41.406   3.014
16532W        W89600  18.154  21.048   1.483
16533W        W89601  15.665  13.996  14.331
16534W        W89602  14.850   7.977  10.776
16535W        W89603   4.934   7.091  14.289
16536W        W89604  27.998  24.532   0.778
16537W        W89605   5.161   0.011   3.781
16538W        W89606   2.500  36.987   1.763
16539W        W89607  40.235   6.243   5.385
16540W        W89608   9.160  10.624  14.122
16541W        W89609  43.795   7.131   1.212
16542W        W89610   9.419  25.514  13.572
16543W        W89611  11.286   5.384  14.887
16544W        W89612  41.348  33.014   2.717
16545W        W89613  22.831  32.904  11.581
16546W        W89614  18.860   4.655   3.293
16547W        W89615  26.594   7.560   4.861
16548W        W89616  25.775  38.882  14.308
16549W        W89617  22.893   6.870  11.136
16550W        W89618  39.437   7.085  13.396
16551W        W89619  16.941   5.346   2.414
16552W        W89620   2.718  25.030  12.914
16553W        W89621   2.444  10.323  14.392
16554W        W89622  13.038  14.268   3.196
16555W        W89623  13.367  27.684   1.795
16556W        W89624  38.167   0.733   1.663
16557W        W89625   2.016  22.109  12.989
16558W        W89626  29.060  13.333  12.441
16559W        W89627  34.334  36.889  13.014
16560W        W89628   6.707   1.025   1.484
16561W        W89629  12.622  42.908   3.838
16562W        W89630  27.469  39.432  11.671
16563W        W89631  40.905   9.585  12.061
16564W        W89632  26.552  34.207  10.751
16565W        W89633  11.082   7.041  11.189
16566W        W89634  17.106   1.710  11.638
16567W        W89635  18.977  16.771  11.627
16568W        W89636  38.438  16.138   4.551
16569W        W89637   3.331  14.465  11.939
16570W        W89638  39.021  26.730  13.320
16571W        W89639  17.495   6.102  10.981
16572W        W89640  42.033   8.406   3.795
16573W        W89641  10.298  32.014   5.206
16574W        W89642  27.474  11.234  11.143
16575W        W89643  24.144  21.140   3.237
16576W        W89644   1.966  29.909   1.444
16577W        W89645  15.240  26.514  10.723
16578W        W89646  28.375  38.920   3.440
16579W        W89647   4.484  40.923   3.267
16580W        W89648   6.829  27.557  11.611
16581W        W89649  38.987  40.661   4.190
16582W        W89650  28.186  40.789   2.180
16583W        W89651  26.053   4.929  11.135
16584W        W89652  32.411  17.577  13.390
16585W        W89653  37.405  26.235   1.907
16586W        W89654  42.040  31.463   4.108
16587W        W89655  23.306  10.109  13.820
16588W        W89656   2.973  41.372   2.141
16589W        W89657  38.370  39.805   0.808
16590W        W89658  39.635   4.842   3.323
16591W        W89659  26.467   3.125  14.499
16592W        W89660  21.626   5.298   1.013
16593W        W89661  38.949  25.668   0.326
16594W        W89662   0.509  39.299  11.100
16595W        W89663   7.473  10.783   4.035
16596W        W89664  22.538  16.241   3.818
16597W        W89665   7.950  20.051  10.978
16598W        W89666  33.523  36.028  11.486
16599W        W89667  15.741   6.737  14.230
16600W        W89668  25.942   7.003  14.314
16601W        W89669  42.583  24.117  11.430
16602W        W89670  31.602  36.813  11.096
16603W        W89671  40.506  11.772  11.912
16604W        W89672  36.495  35.144   3.827
16605W        W89673  10.775  35.486  11.673
16606W        W89674  41.391   4.355  12.404
16607W        W89675  26.589   0.086  14.756
16608W        W89676  24.478  21.390   2.332
16609W        W89677  30.545  20.995  12.167
16610W        W89678  38.074   8.582  12.374
16611W        W89679  13.076  22.632  13.073
16612W        W89680  31.131  40.003   0.332
16613W        W89681  26.992  28.669  13.343
16614W        W89682  24.014  12.541   4.560
16615W        W89683  43.096   7.842   0.904
16616W        W89684   3.969  21.990   0.402
16617W        W89685  39.599  33.015  11.642
16618W        W89686  27.165   1.026  12.133
16619W        W89687   7.187  36.773   0.750
16620W        W89688  15.026  35.714   3.138
16621W        W89689  27.032  26.270  11.749
16622W        W89690  11.926  36.946  14.500
16623W        W89691  25.279   0.598  11.460
16624W        W89692   7.943  43.996   2.828
16625W        W89693  22.494   6.179  12.073
16626W        W89694   2.864  15.802   4.178
16627W        W89695   9.930   5.282  13.453
16628W        W89696  30.783  11.915   4.205
16629W        W89697  42.224  13.281   3.806
16630W        W89698  10.766  14.594   2.728
16631W        W89699  15.263  12.744  12.342
16632W        W89700  33.812  29.605   4.471
16633W        W89701  16.145  20.528  14.973
16634W        W89702  18.850   8.204   3.348
16635W        W89703  19.806  42.395   1.806
16636W        W89704  41.271  24.003  11.070
16637W        W89705  28.189  40.298  12.978
16638W        W89706  37.691  16.589  11.101
16639W        W89707  21.410   5.743  12.494
16640W        W89708  29.891  38.974  10.660
16641W        W89709   6.199  31.148  12.959
16642W        W89710  41.284   0.429  13.481
16643W        W89711  40.316  20.616  10.956
16644W        W89712  34.897  12.282  12.522
16645W        W89713  17.002  18.180   5.065
16646W        W89714  14.756  44.824  14.016
16647W        W89715   3.416   6.146   3.581
16648W        W89716  38.241  29.519   0.034
16649W        W89717  16.653  28.433  10.624
16650W        W89718   5.743  28.696   3.847
16651W        W89719  35.597  10.698  12.121
16652W        W89720  26.932   5.688  13.375
16653W        W89721  14.811  21.167   0.728
16654W        W89722  41.329  15.910  13.461
16655W        W89723  11.563   2.793  13.616
16656W        W89724  44.432  44.927   0.313
16657W        W89725   7.789  15.612   3.075
16658W        W89726  25.455  25.580  14.778
16659W        W89727  12.196   7.841   3.230
16660W        W89728  35.652  35.481   0.768
16661W        W89729  36.665   9.143  12.573
16662W        W89730  42.447  11.347  11.231
16663W        W89731   1.471  38.971   3.843
16664W        W89732  38.138  18.696   3.687
16665W        W89733  31.017  31.909  13.579
16666W        W89734  18.875  12.139   2.859
16667W        W89735   2.757  36.884   2.212
16668W        W89736  42.829   3.890   1.114
16669W        W89737  33.526  11.721  14.983
16670W        W89738  15.087  29.680   1.819
16671W        W89739  34.567  43.095   1.710
16672W        W89740  19.278  32.539  12.813
16673W        W89741  18.077  23.940  14.318
16674W        W89742   1.931  23.163  13.034
16675W        W89743  24.604  19.221  10.495
16676W        W89744   2.517  35.769   0.955
16677W        W89745  32.141  17.530  12.930
16678W        W89746   3.763  44.779  11.590
16679W        W89747  31.836  34.746   0.771
16680W        W89748  32.021  12.631   0.500
16681W        W89749  18.573  11.841   1.749
16682W        W89750   5.236   4.635   1.287
16683W        W89751  29.555  20.185  13.423
16684W        W89752  29.334  17.791  11.225
16685W        W89753  14.568  14.281   3.333
16686W        W89754  37.372  21.780  13.464
16687W        W89755  43.465  24.618  14.778
16688W        W89756  13.290   2.995   3.912
16689W        W89757  28.802  33.862   0.875
16690W        W89758  22.142   6.258  12.476
16691W        W89759  37.264  21.194  12.357
16692W        W89760  22.481  23.039   0.836
16693W        W89761  26.108  40.494   0.878
16694W        W89762  29.216  41.997   2.310
16695W        W89763   8.568   9.527  12.039
16696W        W89764   2.139   3.812  11.160
16697W        W89765  28.358  43.726   0.849
16698W        W89766  26.928   6.741  14.267
16699W        W89767  26.695   1.458  11.593
16700W        W89768  18.264  16.382  11.136
16701W        W89769  35.766   5.690  13.540
16702W        W89770  19.800  15.152  12.000
16703W        W89771  42.225  40.367  11.196
16704W        W89772   6.244  30.284   0.022
16705W        W89773  42.797   8.441  11.664
16706W        W89774  43.046  23.969   2.657
16707W        W89775  33.839  31.049   1.431
16708W        W89776   9.463   1.675  10.031
16709W        W89777  24.994  24.405  13.986
16710W        W89778   2.319  30.831   0.453
16711W        W89779  15.361  40.014   4.626
16712W        W89780  20.624   2.812   4.029
16713W        W89781   4.290  16.052   0.660
16714W        W89782  21.272  29.053   4.582
16715W        W89783  28.861  18.579  10.729
16716W        W89784  38.883  23.496  12.522
16717W        W89785   9.164   6.111   2.250
16718W        W89786  14.621   6.283  10.263
16719W        W89787  18.384  26.950  13.053
16720W        W89788  37.212  39.019   0.221
16721W        W89789  21.063  44.471  12.758
16722W        W89790  27.081  10.919  11.081
16723W        W89791  20.304   7.578   2.840
16724W        W89792  35.973   2.766   0.821
16725W        W89793  40.870  36.949   2.668
16726W        W89794   3.263  14.742  10.635
16727W        W89795   5.370  41.795   0.506
16728W        W89796   6.847   9.394  13.447
16729W        W89797  21.149  22.523  12.815
16730W        W89798  42.053  21.701  11.236
16731W        W89799  32.298  19.990   0.370
16732W        W89800  11.144  17.149   1.296
16733W        W89801  30.934   1.972   0.953
16734W        W89802  27.044  28.961  12.904
16735W        W89803  43.081   9.762   3.862
16736W        W89804   3.160  14.069  13.903
16737W        W89805  39.849  31.447   0.536
16738W        W89806  23.738  22.320  12.901
16739W        W89807  28.904  25.951  14.500
16740W        W89808  31.631  39.500   3.740
16741W        W89809  16.626  32.438  13.379
16742W        W89810  38.932   6.467   2.616
16743W        W89811  28.250  14.416   9.976
16744W        W89812  43.441  11.809  11.137
16745W        W89813   7.842  21.840  13.424
16746W        W89814  14.520  24.451  14.889
16747W        W89815   6.365  41.618   2.180
16748W        W89816  40.788   4.192  12.981
16749W        W89817  18.256  15.023   0.546
16750W        W89818   7.127  34.341   2.509
16751W        W89819  41.950  17.539   0.275
16752W        W89820  16.533  11.770   3.680
16753W        W89821  11.695   9.506   4.192
16754W        W89822  44.556  17.280  14.523
16755W        W89823  25.605  13.838   4.310
16756W        W89824  27.862  11.078   1.732
16757W        W89825   9.100  34.061  11.544
16758W        W89826  35.187   3.504   2.925
16759W        W89827  12.281  18.931  10.857
16760W        W89828   0.186  27.373   1.846
16761W        W89829  17.969  31.469  14.740
16762W        W89830   5.522   2.812  10.752
16763W        W89831  30.050  34.491  14.999
16764W        W89832  43.521  14.601  13.344
16765W        W89833  13.670  10.864  14.477
16766W        W89834   4.749   0.549   3.741
16767W        W89835  38.391  13.119  13.987
16768W        W89836  15.533  35.554  10.921
16769W        W89837  43.429  15.854   0.752
16770W        W89838  42.945  36.147  14.206
16771W        W89839  20.270  36.974   2.161
16772W        W89840  34.012  44.316   3.634
16773W        W89841   0.965  32.540   1.754
16774W        W89842   4.792  34.009  12.991
16775W        W89843  17.457  21.121   2.267
16776W        W89844  17.252  30.210   3.277
16777W        W89845  11.120  38.627   1.290
16778W        W89846  38.375  17.331  13.847
16779W        W89847  30.415  29.099   2.173
16780W        W89848  14.357  28.358   4.076
16781W        W89849  35.427  31.834   3.743
16782W        W89850  37.586  42.378  14.348
16783W        W89851  33.490  11.334  12.046
16784W        W89852  21.596  27.570   2.811
16785W        W89853  41.755  35.887   0.788
16786W        W89854   6.678  38.816   0.432
16787W        W89855  12.915  11.420   3.218
16788W        W89856  10.229  16.387  14.861
16789W        W89857  43.513  29.019   0.082
16790W        W89858  39.998   1.056   3.823
16791W        W89859  15.932  25.458   3.857
16792W        W89860  37.097  22.946   3.374
16793W        W89861  15.435  17.586  13.878
16794W        W89862  22.954   7.341  12.674
16795W        W89863  19.976   5.392  11.960
16796W        W89864   7.737  14.375   1.463
16797W        W89865   6.864  39.292   2.233
16798W        W89866  17.262  41.923  12.127
16799W        W89867  17.256  27.582   1.480
16800W        W89868  18.197   7.866   3.777
16801W        W89869  23.690   2.302   1.717
16802W        W89870  27.865  43.487  14.446
16803W        W89871  29.417   1.444   3.736
16804W        W89872  29.917  28.307  10.823
16805W        W89873  27.033  23.295  10.891
16806W        W89874  32.441  36.452  14.408
16807W        W89875  20.744   2.473   2.745
16808W        W89876  39.437   5.392   0.936
16809W        W89877  16.620  25.013  10.751
16810W        W89878  39.427  33.154  13.116
16811W        W89879  39.127  39.063   3.339
16812W        W89880   9.217  14.054   2.699
16813W        W89881   2.746  44.749   0.378
16814W        W89882   9.285  30.074   4.894
16815W        W89883  13.830  15.590   2.320
16816W        W89884  23.733  30.371  14.920
16817W        W89885   0.850  31.965   0.723
16818W        W89886   3.406  42.892   0.920
16819W        W89887   8.512  15.243   2.854
16820W        W89888  34.844  31.000  12.311
16821W        W89889  30.463  13.244   0.068
16822W        W89890  14.645  43.315  11.658
16823W        W89891  20.731  15.094  12.920
16824W        W89892  33.338  31.584   2.267
16825W        W89893   0.452   9.742   4.185
16826W        W89894  27.909  18.179   0.794
16827W        W89895  11.835  20.424   2.317
16828W        W89896  34.564  12.428   0.320
16829W        W89897   7.294   4.752   4.328
16830W        W89898  30.202  14.035   0.287
16831W        W89899  25.016   1.315   4.238
16832W        W89900   1.652  17.316   4.712
16833W        W89901  19.295  20.879   1.847
16834W        W89902  17.058  29.009  12.597
16835W        W89903   6.437  13.890  12.634
16836W        W89904  41.134  35.088   2.924
16837W        W89905   4.839  25.899  10.543
16838W        W89906  33.743  36.573  11.870
16839W        W89907  10.229  25.888  13.314
16840W        W89908  37.981  35.976  13.120
16841W        W89909  18.297  40.971  10.558
16842W        W89910  23.962  37.909  14.864
16843W        W89911  15.088  30.484  13.516
16844W        W89912   9.146  11.328  10.759
16845W        W89913   0.974  35.330  12.504
16846W        W89914  10.851  31.599  11.971
16847W        W89915  11.212  37.274  13.813
16848W        W89916  36.211  22.578  10.696
16849W        W89917  22.682  37.861   2.864
16850W        W89918  17.325  29.450   0.479
16851W        W89919  39.010  23.987  12.476
16852W        W89920  23.785  31.915  13.871
16853W        W89921  14.964  20.566   2.843
16854W        W89922  21.774   0.570   0.806
16855W        W89923   6.927   9.896   0.958
16856W        W89924  38.924  40.473   3.708
16857W        W89925  18.766   2.511   3.875
16858W        W89926  35.993  41.221  14.301
16859W        W89927  14.411  18.856   0.310
16860W        W89928  31.443   6.264   1.176
16861W        W89929  32.532  32.120  14.489
16862W        W89930  24.192   5.763   2.103
16863W        W89931   9.057  39.963   3.728
16864W        W89932  15.346  16.636  10.705
16865W        W89933  20.031   5.779  13.886
16866W        W89934  30.217   2.883  10.665
16867W        W89935  21.265   3.299  10.375
16868W        W89936   4.007  35.622  10.968
16869W        W89937  14.263  39.802   1.321
16870W        W89938  36.541  32.279   1.314
16871W        W89939  33.440  19.650   0.757
16872W        W89940  21.053  12.449   1.770
16873W        W89941  41.411   0.898   1.729
16874W        W89942  18.593  43.053  14.423
16875W        W89943  29.924  29.750  12.619
16876W        W89944  35.420   9.869  10.776
16877W        W89945   6.975  37.021  12.148
16878W        W89946   4.429  41.409  11.687
16879W        W89947  16.417  14.659  14.361
16880W        W89948  30.754  26.113   1.443
16881W        W89949  30.122   8.272   1.284
16882W        W89950  42.189  18.591  11.603
16883W        W89951  34.796  42.764   5.068
16884W        W89952  11.294  43.419   0.509
16885W        W89953  24.049  17.955  12.529
16886W        W89954  21.477  17.645   3.762
16887W        W89955   1.285  16.708  10.693
16888W        W89956   5.437  25.105  14.896
16889W        W89957   9.271   6.451  13.909
16890W        W89958  39.594  44.958  13.007
16891W        W89959  18.068   8.239   2.977
16892W        W89960   9.015  27.464   0.427
16893W        W89961  35.499  33.478   2.281
16894W        W89962  17.480  37.757   0.380
16895W        W89963  17.214  16.157   4.572
16896W        W89964  26.541  10.694  14.469
16897W        W89965  27.475  10.710   4.590
16898W        W89966  39.827  42.969   3.723
16899W        W89967   0.376  34.437   0.192
16900W        W89968  10.996  24.383   1.305
16901W        W89969  21.649   8.393  11.940
16902W        W89970  37.106  34.625   4.402
16903W        W89971  40.499  28.452   4.214
16904W        W89972  19.218   8.288  12.505
16905W        W89973  27.054  16.232  12.039
16906W        W89974  29.614  24.578   2.778
16907W        W89975  32.904  21.477   4.120
16908W        W89976  20.755  28.125  14.011
16909W        W89977  35.927  44.823  12.854
16910W        W89978  37.563  35.885   0.779
16911W        W89979   9.039   5.170   2.861
16912W        W89980  34.017  11.280   2.760
16913W        W89981   9.667  24.439  12.575
16914W        W89982  33.908  33.027  13.377
16915W        W89983  43.737  31.426  12.620
16916W        W89984  23.726  27.464   3.135
16917W        W89985  31.538  34.669  12.130
16918W        W89986  32.482  34.080  14.011
16919W        W89987   5.855  34.117  12.812
16920W        W89988  35.973  22.754   0.263
16921W        W89989   6.495  26.265  13.425
16922W        W89990  22.206   4.181   0.464
16923W        W89991  32.738  43.472   1.790
16924W        W89992   5.866   5.220   2.925
16925W        W89993  44.087  32.505   4.512
16926W        W89994  32.525  43.912  12.872
16927W        W89995  26.467  29.467  12.338
16928W        W89996  42.916  36.173   2.781
16929W        W89997  32.829  11.041   3.984
16930W        W89998  18.985  33.016   2.274
16931W        W89999  12.544   7.298   1.369
16932W        W90000  21.581  24.706   4.392
16933W        W90001  11.772  31.893  11.765
16934W        W90002  19.770  14.252   3.582
16935W        W90003  23.245  35.627  11.019
16936W        W90004   9.907  17.382   0.806
16937W        W90005  36.055   8.381  12.173
16938W        W90006  43.055  25.883   0.852
16939W        W90007  11.707  32.530   3.860
16940W        W90008  30.723  37.650  11.995
16941W        W90009  16.251  44.262  11.432
16942W        W90010  14.834  14.059   0.745
16943W        W90011  32.925   7.231   4.880
16944W        W90012  26.564  21.983  11.148
16945W        W90013  16.185   4.360  10.293
16946W        W90014  37.126  14.661  14.025
16947W        W90015   0.999  42.666  14.708
16948W        W90016   9.080  15.056  11.895
16949W        W90017  28.678  28.361  11.936
16950W        W90018  17.584  17.296   2.814
16951W        W90019  22.800  31.900  10.697
16952W        W90020   6.820  43.079   4.704
16953W        W90021  32.155  19.344  12.902
16954W        W90022  27.627   3.889   1.732
16955W        W90023  42.085  10.405   2.146
16956W        W90024  22.313  15.758   2.914
16957W        W90025  11.235  29.659   1.411
16958W        W90026  19.167   9.080   1.128
16959W        W90027   4.318   5.722  11.154
16960W        W90028  29.928  34.289   1.365
16961W        W90029  44.410  44.304  11.466
16962W        W90030  44.723   4.451   2.702
16963W        W90031  21.509   1.772  14.828
16964W        W90032  23.653   0.529   2.307
16965W        W90033   9.528   8.146   2.437
16966W        W90034   6.682  29.598  12.589
16967W        W90035   5.702  27.697   4.349
16968W        W90036  33.656  11.255   2.068
16969W        W90037  37.377  16.207   4.322
16970W        W90038  20.761   8.088   3.713
16971W        W90039  38.503   4.793  14.792
16972W        W90040   8.727   7.959  10.534
16973W        W90041   5.703   6.840  13.488
16974W        W90042   1.955  36.927   4.894
16975W        W90043  32.053  33.892   2.022
16976W        W90044  43.274  24.192  11.967
16977W        W90045  41.573  32.158  12.136
16978W        W90046  36.052  28.841   0.012
16979W        W90047  17.035  16.238  11.037
16980W        W90048  43.361  19.366  11.928
16981W        W90049   6.325  10.307   2.712
16982W        W90050  39.602  23.184  11.075
16983W        W90051  36.471  21.783   1.404
16984W        W90052   0.034  26.928  12.881
16985W        W90053  16.739  26.499   1.375
16986W        W90054  15.548   3.446  13.981
16987W        W90055   6.679  14.658   2.625
16988W        W90056  44.445  31.839   2.554
16989W        W90057  37.955   9.742   0.539
16990W        W90058  32.303  18.692   2.354
16991W        W90059   5.446   0.866  10.346
16992W        W90060   1.387  43.978   3.131
16993W        W90061   0.518  11.867  10.598
16994W        W90062  17.522  23.232  11.835
16995W        W90063   7.807  12.599   2.837
16996W        W90064  35.915  23.158  13.823
16997W        W90065   8.851  13.670   3.147
16998W        W90066   1.896  14.814   3.634
16999W        W90067  17.675  19.423   4.638
17000W        W90068   0.734  18.159   3.624
17001W        W90069  24.815   1.683   3.561
17002W        W90070  17.331  18.162  11.970
17003W        W90071  13.481   4.087  13.886
17004W        W90072  38.956  28.084  11.459
17005W        W90073  32.900  35.966  10.307
17006W        W90074  32.885   6.182  12.619
17007W        W90075  32.384   5.941   1.920
17008W        W90076  14.671  32.585   4.324
17009W        W90077  17.130  27.255   1.057
17010W        W90078  23.998   0.888   2.458
17011W        W90079  34.386  34.817  13.571
17012W        W90080   4.446  37.511  10.560
17013W        W90081  11.878  19.540  14.488
17014W        W90082  24.229   7.635   4.645
17015W        W90083  25.470  11.379  10.162
17016W        W90084   7.392  13.218   1.684
17017W        W90085   2.816   1.996  14.071
17018W        W90086   0.808  28.647   1.964
17019W        W90087   5.599  23.732   3.226
17020W        W90088   0.024  33.919  12.990
17021W        W90089   9.595  38.107  11.913
17022W        W90090  16.168  36.571  11.855
17023W        W90091  23.597  21.091  13.251
17024W        W90092  38.410  26.820  11.580
17025W        W90093   1.062  25.063   0.818
17026W        W90094  17.766  36.264   4.108
17027W        W90095   3.914  32.491  11.094
17028W        W90096  11.831  10.082   1.307
17029W        W90097  14.639  34.159  10.914
17030W        W90098  29.484  10.218  10.937
17031W        W90099  38.682  23.900  11.093
17032W        W90100  30.441  40.077  11.485
17033W        W90101  17.312  23.987   0.971
17034W        W90102  35.696  39.090   3.864
17035W        W90103   4.375   3.054   0.295
17036W        W90104  25.241  40.828  12.556
17037W        W90105  21.088  35.664  13.612
17038W        W90106  21.479  26.747   2.280
17039W        W90107  13.183  35.200   4.041
17040W        W90108  13.859  24.478   2.738
17041W        W90109  13.164  30.488   3.416
17042W        W90110  19.933   3.263  12.270
17043W        W90111  11.757  33.914  13.465
17044W        W90112  11.803  21.476   0.915
17045W        W90113  11.284  37.057   4.366
17046W        W90114  22.203  44.428   4.790
17047W        W90115  11.989  33.615   4.170
17048W        W90116  38.468  38.759  11.987
17049W        W90117  19.779  17.743   0.001
17050W        W90118  10.389  44.311   1.497
17051W        W90119  36.580  21.075   0.476
17052W        W90120  27.782  22.030  11.570
17053W        W90121  40.047  32.341  13.704
17054W        W90122  15.528  10.292   4.597
17055W        W90123   7.249  36.398   3.798
17056W        W90124  24.493  12.030  12.074
17057W        W90125  24.917  19.218   2.749
17058W        W90126  41.500  20.457   1.769
17059W        W90127  28.791  36.759   3.427
17060W        W90128  10.754  36.062   2.228
17061W        W90129  33.608  30.629   3.190
17062W        W90130  34.385  29.377  12.873
17063W        W90131  30.832  21.502  10.806
17064W        W90132   5.381  12.420  14.213
17065W        W90133  29.961   9.534   1.801
17066W        W90134  17.214  41.273  11.492
17067W        W90135   8.110  21.036   1.829
17068W        W90136  31.233  33.667  13.442
17069W        W90137   3.343  34.086   2.152
17070W        W90138   4.693  29.425  14.377
17071W        W90139  24.996  44.350  11.585
17072W        W90140  23.741   5.768  11.861
17073W        W90141  35.951  26.103  13.864
17074W        W90142  41.407   2.074   2.228
17075W        W90143   8.285  15.694  11.542
17076W        W90144  28.987   7.292  12.050
17077W        W90145  37.314  24.125  11.187
17078W        W90146  29.518   9.182   3.444
17079W        W90147  25.252  22.068   1.828
17080W        W90148   1.267  19.585   1.209
17081W        W90149   5.022  12.216  14.559
17082W        W90150  43.393  11.595  10.198
17083W        W90151  35.397  30.075   2.500
17084W        W90152   4.069  44.019   2.815
17085W        W90153  39.275   0.676  14.363
17086W        W90154  40.790  14.394  13.868
17087W        W90155  32.183  36.364  11.603
17088W        W90156  42.711  44.460   1.408
17089W        W90157  29.792   6.326  12.310
17090W        W90158   9.394   1.284  12.655
17091W        W90159  33.631  31.394   2.728
17092W        W90160   0.786   0.751   3.315
17093W        W90161   9.427  21.963   2.370
17094W        W90162  42.340  17.235   1.422
17095W        W90163  33.282  35.778   1.635
17096W        W90164  17.617  20.619   1.708
17097W        W90165  11.804  30.213   3.137
17098W        W90166  29.954  26.684   4.290
17099W        W90167   8.884   6.159   3.753
17100W        W90168  44.923  43.593  14.371
17101W        W90169  14.116   3.766   4.509
17102W        W90170  33.796   8.106   1.224
17103W        W90171   7.860  43.872  12.485
17104W        W90172  40.376  21.219   0.736
17105W        W90173  15.688  30.355   3.800
17106W        W90174  28.488  28.048  14.487
17107W        W90175   9.074  21.415   3.269
17108W        W90176  27.950  43.612  13.503
17109W        W90177  12.686  29.184   3.387
17110W        W90178   5.256  31.739   1.736
17111W        W90179  36.995  33.904   0.850
17112W        W90180  43.501  41.807   1.294
17113W        W90181  39.075  12.931  11.486
17114W        W90182  12.745  33.500   3.756
17115W        W90183   8.888  36.913  12.137
17116W        W90184  37.975  30.485   2.806
17117W        W90185   2.838  15.132   4.392
17118W        W90186  14.263  28.443  10.826
17119W        W90187  39.904  29.360   0.778
17120W        W90188  30.690  41.386  11.188
17121W        W90189  36.988  28.467   4.525
17122W        W90190   8.791  24.690  14.979
17123W        W90191  30.404   4.031   0.030
17124W        W90192   8.930  12.542   1.213
17125W        W90193  23.564   5.633  14.224
17126W        W90194  16.985  41.715  11.607
17127W        W90195  24.634  35.174  14.352
17128W        W90196   0.326   0.903   4.963
17129W        W90197  23.125  30.689   3.679
17130W        W90198   0.968   5.276  12.957
17131W        W90199  34.547   1.240  12.367
17132W        W90200  41.294  23.560  14.897
17133W        W90201  43.849   1.732  14.581
17134W        W90202  36.813  18.827  14.499
17135W        W90203  38.315  41.821   0.384
17136W        W90204  44.473  28.444  12.535
17137W        W90205  36.270  28.702   2.696
17138W        W90206  13.801  39.764  11.366
17139W        W90207  31.839  28.064   2.157
17140W        W90208  43.481  11.330  14.228
17141W        W90209  17.275  26.043   4.493
17142W        W90210  25.460  33.007   4.578
17143W        W90211  22.496  28.614  13.835
17144W        W90212  35.088  15.622   4.032
17145W        W90213  17.099  32.028   1.961
17146W        W90214  21.151  13.286   1.205
17147W        W90215  19.237  10.618  11.199
17148W        W90216   3.262  37.603  11.688
17149W        W90217   1.654  41.077  14.523
17150W        W90218  24.591  43.513   4.610
17151W        W90219  39.510  29.159   4.138
17152W        W90220  18.259  30.649  11.754
17153W        W90221   7.735  26.427   4.997
17154W        W90222  14.461  22.030   1.652
17155W        W90223  37.627  15.376  11.360
17156W        W90224  40.746  16.310   9.772
17157W        W90225  10.649  35.422   3.311
17158W        W90226  39.783  11.353  11.385
17159W        W90227  39.963  13.727   2.349
17160W        W90228  14.522  28.534   1.486
17161W        W90229   4.162  38.343  12.336
17162W        W90230   0.897   6.013   0.360
17163W        W90231   1.078  29.106   2.800
17164W        W90232  17.582   9.077   0.923
17165W        W90233  32.702  15.523  13.397
17166W        W90234  17.721  30.465  12.976
17167W        W90235  15.330  32.192   3.729
17168W        W90236  22.753  41.961  13.008
17169W        W90237  16.573  39.457   2.746
17170W        W90238   4.144  16.063   1.628
17171W        W90239  41.542  13.764   3.342
17172W        W90240  35.631   2.232  14.053
17173W        W90241  18.193  37.868  12.007
17174W        W90242   5.624  36.573   2.186
17175W        W90243  29.195  30.455  12.355
17176W        W90244  44.294   8.874   1.659
17177W        W90245  17.070   2.239  14.787
17178W        W90246  14.769  12.338   0.298
17179W        W90247  31.948  11.891   4.110
17180W        W90248   6.414  41.904  12.956
17181W        W90249  18.046  37.043  11.965
17182W        W90250   5.407   3.759   2.160
17183W        W90251  14.552  21.256   4.340
17184W        W90252  30.582  11.801  13.788
17185W        W90253  41.620   6.961   3.871
17186W        W90254  18.722  31.984  11.190
17187W        W90255  14.565  31.609   3.354
17188W        W90256  18.821  14.194  13.301
17189W        W90257  19.291  31.121  13.406
17190W        W90258  12.928  42.234   3.950
17191W        W90259  21.155   5.635   0.285
17192W        W90260  38.124  37.235   1.253
17193W        W90261   4.976  33.082  14.219
17194W        W90262  21.999  36.799  13.292
17195W        W90263  38.467  12.074   0.226
17196W        W90264  23.606  14.875  13.033
17197W        W90265  37.794  36.601  13.463
17198W        W90266  16.887   8.364  14.906
17199W        W90267  18.292  42.398  11.522
17200W        W90268  26.038  20.789   3.077
17201W        W90269  12.603   4.722  14.948
17202W        W90270  40.808  33.458   3.894
17203W        W90271  21.787  11.778   1.743
17204W        W90272  30.376   9.250  14.826
17205W        W90273  38.012  19.203   4.288
17206W        W90274  23.029   0.645  11.450
17207W        W90275  19.871  36.541   4.546
17208W        W90276  31.475  13.251  14.937
17209W        W90277  34.386   0.525  11.581
17210W        W90278  21.133   3.122   0.958
17211W        W90279  39.002  24.650   0.265
17212W        W90280   8.843  18.545  14.999
17213W        W90281  29.250  31.218  11.876
17214W        W90282  42.499   4.652  10.496
17215W        W90283  37.432  18.501   0.358
17216W        W90284  14.240  23.307   3.333
17217W        W90285  44.763   2.671  11.617
17218W        W90286  22.476  11.655  13.754
17219W        W90287  39.071  35.900   2.282
17220W        W90288  30.872  19.297  11.072
17221W        W90289  39.660  20.001   0.493
17222W        W90290   1.213  32.560  11.108
17223W        W90291   9.795  34.944   4.125
17224W        W90292  44.959  38.617  13.943
17225W        W90293   0.483  15.128  12.817
17226W        W90294  34.668  31.445  10.270
17227W        W90295  41.472  24.667   4.772
17228W        W90296  15.092  10.757   3.157
17229W        W90297  35.516  28.063   1.428
17230W        W90298  29.466  25.677  11.325
17231W        W90299  35.078  43.969  12.639
17232W        W90300   4.906   3.622  11.640
17233W        W90301  31.092  11.804  13.921
17234W        W90302  33.402  12.225   2.238
17235W        W90303  22.055  32.031   2.560
17236W        W90304  15.347  14.722  12.467
17237W        W90305  26.017  19.799  11.123
17238W        W90306  41.537  37.840   3.687
17239W        W90307   5.344  30.164  14.511
17240W        W90308  35.523  27.032   2.825
17241W        W90309   5.757  26.155   2.411
17242W        W90310  31.932   7.331  11.392
17243W        W90311  31.446   4.912  11.775
17244W        W90312   2.914  29.749  12.630
17245W        W90313  20.700  23.444   0.537
17246W        W90314   0.878  32.433   4.739
17247W        W90315  14.575  14.768  12.983
17248W        W90316  31.887   1.873  14.411
17249W        W90317  41.784   4.270  11.021
17250W        W90318  40.921  23.286   2.391
17251W        W90319   0.487  42.472  13.990
17252W        W90320  36.729   9.681   0.007
17253W        W90321  11.611   0.059  13.225
17254W        W90322  33.957  40.029   1.861
17255W        W90323  41.062  24.010   0.067
17256W        W90324  15.734  25.107   1.918
17257W        W90325  14.926   7.571   2.265
17258W        W90326  35.125  33.906  12.899
17259W        W90327   6.690  15.580   0.666
17260W        W90328  30.953  34.342   1.065
17261W        W90329  25.018  29.924   0.451
17262W        W90330   2.225  13.140   4.104
17263W        W90331  44.374  20.457   4.554
17264W        W90332  20.739  25.525   1.940
17265W        W90333  20.791  14.828   4.070
17266W        W90334  31.135  16.591  12.315
17267W        W90335   0.898  14.547  11.146
17268W        W90336   7.566  25.390   4.171
17269W        W90337  18.266  28.967   3.856
17270W        W90338  23.058  18.252   1.256
17271W        W90339  22.541  35.131  12.948
17272W        W90340  23.239  26.552  13.319
17273W        W90341  36.399  44.027   3.851
17274W        W90342  25.022  20.113  13.125
17275W        W90343  40.339  36.153  10.673
17276W        W90344  33.179   5.251  12.543
17277W        W90345  39.418  29.668  11.025
17278W        W90346  43.910  30.980  11.338
17279W        W90347   2.899  30.199  13.534
17280W        W90348  31.334   9.024   1.469
17281W        W90349  26.018  13.882  11.239
17282W        W90350   8.008  31.434  13.414
17283W        W90351  21.008  10.267   2.714
17284W        W90352   7.659  30.564   0.780
17285W        W90353  13.293  15.771  14.757
17286W        W90354  22.557  19.322  10.774
17287W        W90355   1.439  22.193  13.559
17288W        W90356  23.298  22.068  12.863
17289W        W90357  25.375  27.634  14.461
17290W        W90358  25.959   6.956   3.912
17291W        W90359  44.534  25.965   4.330
17292W        W90360  41.027  23.017  13.915
17293W        W90361   2.456  39.841   3.693
17294W        W90362  24.198   7.638   0.906
17295W        W90363  37.149  28.872   1.443
17296W        W90364   6.818   2.792   1.379
17297W        W90365  33.495   6.848   4.941
17298W        W90366   9.073  26.889  12.984
17299W        W90367  41.884  13.529  10.718
17300W        W90368  30.014  42.337   1.300
17301W        W90369  30.102  14.540   0.374
17302W        W90370  35.331  31.881   4.624
17303W        W90371  26.064  20.084   0.263
17304W        W90372  44.449  13.012  12.382
17305W        W90373   4.925   5.647   0.514
17306W        W90374  23.673  24.104   1.718
17307W        W90375  28.087   3.986   0.683
17308W        W90376   7.772  27.099   1.376
17309W        W90377  11.851   8.379  14.260
17310W        W90378  43.807  16.657  13.455
17311W        W90379  31.511  22.692  14.248
17312W        W90380   5.317  11.366  14.321
17313W        W90381  10.867  34.359  11.169
17314W        W90382  13.210  33.929   2.733
17315W        W90383   7.939  13.359   4.220
17316W        W90384  10.616   4.663  14.899
17317W        W90385  41.004   9.912  11.659
17318W        W90386  28.717   8.478  10.624
17319W        W90387  41.839  37.564   3.365
17320W        W90388  18.536  30.409  10.657
17321W        W90389  40.420  37.529  13.915
17322W        W90390  41.921  16.315  10.226
17323W        W90391   3.494  36.376  14.800
17324W        W90392  38.643  29.002  13.013
17325W        W90393  43.102  24.833  10.253
17326W        W90394  19.334  31.582  11.597
17327W        W90395  37.963   2.677  14.164
17328W        W90396   9.774  41.536  12.963
17329W        W90397   8.259  42.049  11.884
17330W        W90398   9.175  24.591  12.564
17331W        W90399  37.025  11.363  10.984
17332W        W90400  21.048  15.048   2.395
17333W        W90401  12.942  14.729   4.133
17334W        W90402  13.898   7.343   3.600
17335W        W90403  11.493  10.289  13.985
17336W        W90404  18.231  44.051  11.202
17337W        W90405   0.771   1.906  14.075
17338W        W90406  10.659  40.329   1.060
17339W        W90407  43.050   5.963   1.367
17340W        W90408  29.560  34.118   3.227
17341W        W90409  17.262  23.238  13.963
17342W        W90410  19.538  42.580   0.208
17343W        W90411  24.749  40.363   1.180
17344W        W90412  35.006   3.255  13.100
17345W        W90413  13.718  29.546  13.065
17346W        W90414  26.191  34.349   4.115
17347W        W90415   8.515   5.775  12.901
17348W        W90416  25.282  40.962   9.833
17349W        W90417   5.916   5.457  12.007
17350W        W90418  42.335  32.039  14.239
17351W        W90419   7.776  25.663  13.004
17352W        W90420  44.102  11.656   0.264
17353W        W90421  30.179   6.694  11.070
17354W        W90422  36.028  11.865   4.102
17355W        W90423  24.546   6.719   2.400
17356W        W90424  42.089   6.142   4.228
17357W        W90425  37.919  30.361  13.271
17358W        W90426  28.004  25.481   1.275
17359W        W90427  16.578   0.682   4.429
17360W        W90428  37.990   6.960   4.986
17361W        W90429  12.616   0.205   4.226
17362W        W90430  11.074  40.830  11.868
17363W        W90431  29.536  27.440   0.305
17364W        W90432  33.954  25.120  11.643
17365W        W90433  44.422  39.399  14.236
17366W        W90434  25.667  19.780  10.719
17367W        W90435  23.061  17.210  12.944
17368W        W90436  30.734  23.542   2.626
17369W        W90437  31.359  22.984   3.708
17370W        W90438   8.375  12.759  12.606
17371W        W90439  42.145   8.483  14.746
17372W        W90440  40.284  35.343   0.664
17373W        W90441   9.700   7.799  14.993
17374W        W90442  17.110  15.639   2.331
17375W        W90443  20.057  26.386   1.276
17376W        W90444   7.000  39.020   0.778
17377W        W90445   4.746  30.640  13.358
17378W        W90446  25.204  19.131  11.106
17379W        W90447  25.464  15.882  11.386
17380W        W90448  34.010  16.050   1.771
17381W        W90449   5.310  15.282   3.752
17382W        W90450  39.470  22.296   4.083
17383W        W90451  11.889   7.654   4.377
17384W        W90452  24.554  35.433   0.881
17385W        W90453   6.655  25.198   2.702
17386W        W90454   1.099  18.818   4.058
17387W        W90455  19.556  17.822  12.042
17388W        W90456   3.240   3.423  12.423
17389W        W90457  33.133  11.205  11.696
17390W        W90458  19.798  17.106  11.545
17391W        W90459  22.609   4.559   4.902
17392W        W90460  39.958  38.850   4.556
17393W        W90461   6.256   3.312  12.471
17394W        W90462  11.596  40.068   0.285
17395W        W90463  20.315   7.918  12.024
17396W        W90464  44.768  23.000   3.640
17397W        W90465  25.624  44.831  11.173
17398W        W90466  18.094  13.673   1.708
17399W        W90467  22.097  13.762  12.564
17400W        W90468  11.720  34.342   1.692
17401W        W90469  16.420   4.818   1.679
17402W        W90470  32.874  34.985  11.866
17403W        W90471  28.783  14.285  13.676
17404W        W90472  32.638   4.806   1.420
17405W        W90473   3.467  30.979  13.482
17406W        W90474  10.864  25.079   0.224
17407W        W90475   5.682  32.335  11.517
17408W        W90476  15.572  44.360   5.000
17409W        W90477  23.441  27.556   3.650
17410W        W90478  44.834  27.306   3.738
17411W        W90479  17.185   1.455   0.911
17412W        W90480  31.002  17.783   1.754
17413W        W90481  44.262  23.869  14.852
17414W        W90482  21.656   2.380   4.217
17415W        W90483  24.530  33.959  14.776
17416W        W90484   5.667  13.274  13.479
17417W        W90485  21.255  24.658   0.951
17418W        W90486   3.959  30.020   0.869
17419W        W90487  17.320  22.277   4.670
17420W        W90488  20.964  43.948   3.690
17421W        W90489  17.926  12.626   4.957
17422W        W90490  12.517   0.274   2.103
17423W        W90491  20.551  22.364   0.838
17424W        W90492  36.954   2.350  13.782
17425W        W90493   7.772  20.647   1.735
17426W        W90494  32.765  38.610   3.311
17427W        W90495  26.321  33.449   4.617
17428W        W90496  20.275  29.440   2.622
17429W        W90497  30.798  32.156  12.052
17430W        W90498  19.816   6.393  11.632
17431W        W90499  32.548  34.075   3.206
17432W        W90500  18.299   0.617   3.652
17433W        W90501   5.733  29.977   3.182
17434W        W90502   1.986  30.211  12.087
17435W        W90503  14.804  15.254  12.093
17436W        W90504  42.305  37.106   0.846
17437W        W90505  13.302  18.766  12.466
17438W        W90506  38.648  18.814  14.198
17439W        W90507  29.006  17.803  13.836
17440W        W90508  23.245  33.592  10.926
17441W        W90509  40.252  25.469   0.801
17442W        W90510  31.586  19.239   2.808
17443W        W90511   0.651  14.096   4.533
17444W        W90512   9.608   2.970   1.350
17445W        W90513  29.112  21.287  14.871
17446W        W90514  22.683  27.339   3.235
17447W        W90515   4.904  40.765  14.841
17448W        W90516  19.543  39.618  12.853
17449W        W90517   4.466  34.578   0.805
17450W        W90518  37.699   6.166   4.995
17451W        W90519   6.890  37.813  11.631
17452W        W90520  40.807  25.654   3.609
17453W        W90521  34.389   5.518   2.761
17454W        W90522  21.790  44.939   4.042
17455W        W90523   0.544  23.520  12.114
17456W        W90524  44.967  26.759   4.533
17457W        W90525  32.203   0.894   2.372
17458W        W90526  43.082  31.868   2.721
17459W        W90527  10.869   0.244   1.436
17460W        W90528  36.344  44.431   2.320
17461W        W90529  16.894  38.097  11.484
17462W        W90530  28.932  39.389  12.042
17463W        W90531   9.751  24.107   1.074
17464W        W90532  11.641  14.128   1.333
17465W        W90533  20.053  25.583  12.033
17466W        W90534   8.905  25.475  10.971
17467W        W90535   9.202   4.239  14.339
17468W        W90536   5.511  15.365  14.199
17469W        W90537   5.222  28.057   0.398
17470W        W90538   5.673   0.969  10.789
17471W        W90539   2.781  27.470  13.804
17472W        W90540  29.445   2.274   0.410
17473W        W90541  29.400  39.564   3.943
17474W        W90542  11.865  19.898   5.055
17475W        W90543  39.958  21.135   2.260
17476W        W90544  32.373  35.301  11.010
17477W        W90545  42.502   6.248   0.471
17478W        W90546   3.715  17.058   3.699
17479W        W90547  11.582  23.230   1.691
17480W        W90548   2.168  14.746  12.443
17481W        W90549   3.352  43.072   4.084
17482W        W90550  10.062  17.269  13.889
17483W        W90551  38.605  24.462  13.805
17484W        W90552  15.915  39.324   1.664
17485W        W90553  15.342  43.606   2.402
17486W        W90554  20.820  35.044   1.654
17487W        W90555  27.599  40.326   2.758
17488W        W90556  13.082   9.210   2.825
17489W        W90557  39.014  13.692   3.224
17490W        W90558  28.473   8.421  14.351
17491W        W90559  39.400  43.245  13.317
17492W        W90560  23.689  44.744  11.400
17493W        W90561  34.148  13.860   4.203
17494W        W90562  21.111  44.580   0.607
17495W        W90563  38.443  27.114  12.048
17496W        W90564  34.860  20.962  11.075
17497W        W90565  39.970   4.388   2.603
17498W        W90566  38.546  20.904   2.310
17499W        W90567  17.215  24.060   2.728
17500W        W90568  11.902  19.351   4.458
17501W        W90569  34.473  20.740  14.888
17502W        W90570  34.014   3.937   2.399
17503W        W90571  26.657  19.031  14.400
17504W        W90572   3.951  36.205   3.725
17505W        W90573   9.512  31.601  10.705
17506W        W90574  28.083  15.640  14.082
17507W        W90575  32.647  39.083  14.538
17508W        W90576  34.375  34.546  10.716
17509W        W90577  39.927   9.135  14.127
17510W        W90578  10.831  17.673  14.004
17511W        W90579  15.627  22.549  13.962
17512W        W90580  32.689  18.314   4.664
17513W        W90581   7.150   1.349  14.404
17514W        W90582   8.751  15.295  14.841
17515W        W90583   3.381  26.007   4.661
17516W        W90584  29.151   0.760   1.726
17517W        W90585   0.002  36.862  14.472
17518W        W90586   3.906  24.698   1.536
17519W        W90587  38.128  19.568   1.477
17520W        W90588   3.663  35.782   3.774
17521W        W90589  23.663  40.718   4.712
17522W        W90590  20.887  36.467  11.615
17523W        W90591   4.104   0.274   5.110
17524W        W90592  24.648  39.261   3.676
17525W        W90593  10.062  14.776   4.694
17526W        W90594  25.988  20.394   3.435
17527W        W90595  18.618  36.576   4.376
17528W        W90596  15.795  17.192   1.535
17529W        W90597  39.991  40.909  10.491
17530W        W90598  29.412  35.957  14.146
17531W        W90599  15.585  29.089  11.536
17532W        W90600   5.501  23.592   0.680
17533W        W90601  40.364  36.359   1.880
17534W        W90602  37.371   6.295  11.062
17535W        W90603  26.683  33.422   1.755
17536W        W90604  13.823  27.011  11.652
17537W        W90605  43.836  28.267   2.444
17538W        W90606  20.813  41.485  14.195
17539W        W90607  35.968  17.009  12.973
17540W        W90608  33.519  41.338   0.163
17541W        W90609  15.785  40.851  12.197
17542W        W90610  25.203  44.561  13.442
17543W        W90611  25.272  31.840  11.162
17544W        W90612  12.671   7.047   1.810
17545W        W90613  28.467  18.638   3.767
17546W        W90614  16.839  20.503  13.920
17547W        W90615  16.048   6.396   2.767
17548W        W90616  40.288  13.122   0.338
17549W        W90617  17.369  21.142   4.980
17550W        W90618  41.913  34.824   3.504
17551W        W90619  41.661  34.972  14.104
17552W        W90620   0.038   7.841   0.444
17553W        W90621  38.315  23.270   3.736
17554W        W90622  37.576  16.146  13.116
17555W        W90623  39.408  14.577  14.562
17556W        W90624  21.508   5.925   3.282
17557W        W90625   7.764  15.437   2.580
17558W        W90626   8.044  34.141  13.956
17559W        W90627   8.769  15.375  14.329
17560W        W90628  32.583  30.173   3.620
17561W        W90629  36.342   8.925   4.789
17562W        W90630  10.184  14.058   4.285
17563W        W90631  20.912   2.222  11.007
17564W        W90632  34.915  40.162  13.978
17565W        W90633  26.657  14.180  14.943
17566W        W90634  31.481   4.423   4.555
17567W        W90635  24.096  26.431   1.863
17568W        W90636  20.468  18.131   4.679
17569W        W90637  24.754  32.138  10.563
17570W        W90638  13.827  41.567  11.590
17571W        W90639  24.062  44.618   5.014
17572W        W90640  12.498   9.121   0.415
17573W        W90641  12.344  13.053   3.777
17574W        W90642   4.820  23.836  14.437
17575W        W90643  15.770  15.543   3.617
17576W        W90644  36.958  31.699   1.759
17577W        W90645  43.764  21.614  13.884
17578W        W90646  17.353   6.211   2.176
17579W        W90647   6.812  17.600  13.845
17580W        W90648  10.290  37.913   0.524
17581W        W90649  27.045  17.305   4.362
17582W        W90650  40.812  21.025  11.567
17583W        W90651   5.685  16.090   3.203
17584W        W90652  16.487  13.575  12.136
17585W        W90653  23.526  44.032   0.036
17586W        W90654  36.994  26.247   3.401
17587W        W90655  17.258  24.664  11.959
17588W        W90656  36.155  39.769  14.299
17589W        W90657  16.350  17.208   2.401
17590W        W90658  21.635  40.782   1.698
17591W        W90659   8.118  42.841  12.464
17592W        W90660   8.261  20.676   4.079
17593W        W90661  12.401  24.059   4.506
17594W        W90662   5.827  33.460   2.854
17595W        W90663  20.546  14.924   4.504
17596W        W90664  18.069  41.225   3.583
17597W        W90665  13.576  10.857  11.509
17598W        W90666  16.249  25.494  11.164
17599W        W90667  24.016   4.969   3.099
17600W        W90668   2.427  37.403   0.306
17601W        W90669  16.398  18.305   0.914
17602W        W90670  33.846  23.677   3.363
17603W        W90671   2.236  38.082  13.044
17604W        W90672  37.012  44.719   2.776
17605W        W90673  42.567  27.099  11.517
17606W        W90674   9.275  44.942   9.936
17607W        W90675  34.033  20.665  12.073
17608W        W90676  13.417  35.701   4.080
17609W        W90677  24.152  44.442  12.596
17610W        W90678  34.028   8.428  12.696
17611W        W90679   0.139   6.363   2.812
17612W        W90680  20.621  14.402   3.852
17613W        W90681  27.611  26.643   0.476
17614W        W90682  41.415  22.811   4.628
17615W        W90683  10.666  32.755  12.842
17616W        W90684  37.399   9.271  13.096
17617W        W90685   6.626  31.994  10.955
17618W        W90686   6.250  26.374   1.406
17619W        W90687  27.075  19.659   4.289
17620W        W90688  12.102   1.289   0.856
17621W        W90689   5.387   5.228  13.064
17622W        W90690  11.710  40.568   0.220
17623W        W90691   2.293  19.032  14.768
17624W        W90692   1.043  29.107   1.843
17625W        W90693  42.397  21.729   3.782
17626W        W90694   4.762  29.345   0.900
17627W        W90695  38.559  37.993  14.902
17628W        W90696  14.035  37.044   1.499
17629W        W90697   9.663  37.173   4.111
17630W        W90698  41.315  36.535  14.931
17631W        W90699  30.664  30.402   1.420
17632W        W90700   0.537  35.638  12.529
17633W        W90701  13.172  24.546  14.811
17634W        W90702  25.159  34.061  11.514
17635W        W90703  35.544  25.139   1.748
17636W        W90704  21.197  17.483  14.729
17637W        W90705  13.662  22.717   0.961
17638W        W90706  42.945  15.269   4.776
17639W        W90707   4.381  28.186  13.106
17640W        W90708  43.229  39.964   4.902
17641W        W90709  40.019  34.999   4.963
17642W        W90710  21.419  36.517  11.638
17643W        W90711  22.756   5.369  12.440
17644W        W90712   6.400  16.264   0.442
17645W        W90713  18.749  12.617   0.480
17646W        W90714  17.031  29.985  12.518
17647W        W90715  30.473  11.100  11.654
17648W        W90716  37.555  24.528  10.518
17649W        W90717  13.793  26.705  11.241
17650W        W90718  37.006   8.329   4.783
17651W        W90719   0.893   9.738   2.250
17652W        W90720   3.816  13.489  10.784
17653W        W90721  41.213  41.784   0.045
17654W        W90722  40.479  13.198   0.830
17655W        W90723  30.590  27.569  10.745
17656W        W90724  36.454   3.096   3.147
17657W        W90725  18.730  10.292   1.706
17658W        W90726  19.338  17.672   0.921
17659W        W90727  38.111  37.927   2.750
17660W        W90728  16.366  17.805  13.449
17661W        W90729  42.521   9.621   1.349
17662W        W90730  43.931  35.859   0.813
17663W        W90731  43.884  28.873   4.670
17664W        W90732  10.951  16.926   3.827
17665W        W90733   0.754   0.721   2.335
17666W        W90734  22.238   1.169   0.983
17667W        W90735   8.744  21.095   4.999
17668W        W90736  40.982  35.882  11.174
17669W        W90737  33.342  29.050   1.449
17670W        W90738  40.493  44.404  12.061
17671W        W90739  36.144  14.202   3.746
17672W        W90740  24.584   4.024  12.423
17673W        W90741  38.251   5.323  10.972
17674W        W90742  18.688  12.905  11.348
17675W        W90743  28.814  18.212   0.528
17676W        W90744  36.657  26.150   2.679
17677W        W90745  23.550   1.175   1.289
17678W        W90746  24.212  15.608  14.929
17679W        W90747  29.925  10.735  13.944
17680W        W90748  30.359  16.096   0.179
17681W        W90749  23.308  31.580  14.455
17682W        W90750  34.442   3.820   4.661
17683W        W90751  13.960  27.556  11.644
17684W        W90752  17.129   0.834   2.633
17685W        W90753  14.745  13.161   2.140
17686W        W90754  22.243  18.492   4.662
17687W        W90755   1.932  18.549  12.511
17688W        W90756  33.724  10.358  10.706
17689W        W90757  36.462   3.177   0.105
17690W        W90758   7.882  44.273  14.462
17691W        W90759  36.874  34.549  10.765
17692W        W90760  36.031   3.000  11.567
17693W        W90761  10.315   3.917  11.061
17694W        W90762  22.207  18.575  13.888
17695W        W90763   1.209   2.429   3.331
17696W        W90764  34.910  20.288   4.107
17697W        W90765  29.631   2.938   1.300
17698W        W90766  40.557  37.032  12.399
17699W        W90767  18.372  14.464  14.384
17700W        W90768   7.916   2.544  10.819
17701W        W90769   9.213  14.132  14.243
17702W        W90770  37.814   9.215   2.715
17703W        W90771   6.835  36.160   3.247
17704W        W90772  39.078   1.671  14.444
17705W        W90773   5.792  27.605  12.427
17706W        W90774  38.522  22.779   1.073
17707W        W90775  41.295   7.711   2.198
17708W        W90776   9.794  28.069   3.409
17709W        W90777   9.270  17.161  11.891
17710W        W90778  13.627  27.967  14.974
17711W        W90779  11.246  22.607  12.597
17712W        W90780   9.629  28.056  13.846
17713W        W90781  13.295  34.147  13.897
17714W        W90782  18.820  38.619  11.755
17715W        W90783  32.011   0.672   1.946
17716W        W90784  33.667   3.179   2.604
17717W        W90785   9.330  38.008  11.073
17718W        W90786   1.691  12.152   0.302
17719W        W90787  17.151  14.612  11.984
17720W        W90788  37.970  10.329   3.735
17721W        W90789  20.410  23.193  12.018
17722W        W90790  13.134   8.809  12.161
17723W        W90791  12.626  19.170   1.823
17724W        W90792  32.350   0.506   3.165
17725W        W90793   4.955  43.086  13.897
17726W        W90794  29.499  22.158   0.776
17727W        W90795  43.968  27.596  11.718
17728W        W90796  31.519  43.306  13.889
17729W        W90797   5.386  37.962   4.117
17730W        W90798  18.303  44.207   4.167
17731W        W90799  31.910   6.447  10.952
17732W        W90800  13.502  36.603  14.405
17733W        W90801  28.072   9.234   4.945
17734W        W90802  16.318  35.646  12.177
17735W        W90803  42.280   3.987  14.851
17736W        W90804  13.787   1.685  12.058
17737W        W90805  31.650  31.062  12.149
17738W        W90806  11.632  38.688  10.684
17739W        W90807  41.890  31.576  11.401
17740W        W90808  20.183  34.041  13.559
17741W        W90809  19.568  40.533   4.116
17742W        W90810  16.036   4.747  12.612
17743W        W90811   6.314   7.225   9.934
17744W        W90812   9.188  39.966  11.157
17745W        W90813  10.181   5.465   1.840
17746W        W90814  24.954  35.984  12.899
17747W        W90815  36.010   8.492   1.854
17748W        W90816  24.211  42.464   3.211
17749W        W90817  37.404   3.764   3.562
17750W        W90818  13.687  21.594  11.580
17751W        W90819  44.522  21.024   4.711
17752W        W90820  19.279  21.577   1.394
17753W        W90821   6.487  16.015  14.560
17754W        W90822   4.426  15.306  12.600
17755W        W90823   7.826  36.392   3.847
17756W        W90824  27.510  38.330   3.320
17757W        W90825  31.615  30.360  12.361
17758W        W90826  27.229   4.013   0.410
17759W        W90827  35.426  17.721   3.350
17760W        W90828  17.309  17.077   1.521
17761W        W90829   5.939  22.168  10.385
17762W        W90830  18.541  27.248   0.957
17763W        W90831  42.376  41.389  11.658
17764W        W90832  11.176  42.083   3.143
17765W        W90833  41.545  17.231   5.080
17766W        W90834   7.441  16.670   9.971
17767W        W90835  31.458  36.764  13.841
17768W        W90836  32.606  40.351   0.475
17769W        W90837  39.088  32.406   0.078
17770W        W90838  16.820  32.689   4.267
17771W        W90839  13.073  37.295  12.095
17772W        W90840  43.733  41.538   2.885
17773W        W90841  28.559  18.416  13.856
17774W        W90842  37.368  42.935   2.021
17775W        W90843  17.665  39.548   1.207
17776W        W90844  34.346   9.424   1.866
17777W        W90845  35.315  27.154   1.746
17778W        W90846  17.515  31.504  12.910
17779W        W90847   6.325  11.748  11.520
17780W        W90848  42.410  37.897  10.884
17781W        W90849  36.108  29.330  11.084
17782W        W90850  23.479   0.504   0.571
17783W        W90851  22.477   5.259   2.680
17784W        W90852   1.172  36.895  12.956
17785W        W90853  31.130  12.696   2.660
17786W        W90854  29.977  24.216   2.906
17787W        W90855  44.917  10.465   3.711
17788W        W90856  15.808  15.110  13.968
17789W        W90857   7.788   2.443   1.965
17790W        W90858  10.886  25.122  14.319
17791W        W90859   0.207  40.694   3.643
17792W        W90860   7.185  13.714   2.417
17793W        W90861  28.723  11.442   4.018
17794W        W90862  20.225  39.467   2.691
17795W        W90863  20.019  37.008  12.026
17796W        W90864  14.246  21.129   0.782
17797W        W90865   1.143   4.877   5.030
17798W        W90866  33.292  41.800  14.289
17799W        W90867  14.955  44.527   2.258
17800W        W90868  26.083  10.791  13.658
17801W        W90869  11.144  42.198  11.377
17802W        W90870  18.740  20.463  13.375
17803W        W90871  23.526   8.932  11.589
17804W        W90872  28.644  31.410  13.358
17805W        W90873  23.814   2.964   3.740
17806W        W90874  37.811  34.436   3.688
17807W        W90875  15.001  42.626  12.127
17808W        W90876  26.946  29.190  11.507
17809W        W90877   8.433  44.974  10.641
17810W        W90878   7.262  18.335   1.165
17811W        W90879   1.043  44.541   0.948
17812W        W90880  19.440   0.247   1.989
17813W        W90881   6.332  19.548   3.630
17814W        W90882  31.758  23.607  14.566
17815W        W90883   8.957   7.951   3.780
17816W        W90884  36.131   1.318   1.760
17817W        W90885   0.742   1.809   0.828
17818W        W90886  26.728  44.752  11.973
17819W        W90887  23.603  42.136   2.348
17820W        W90888  32.368  43.005   4.174
17821W        W90889  31.849  25.463   0.327
17822W        W90890  25.999   6.739   0.217
17823W        W90891   9.132  17.232   1.219
17824W        W90892  41.935  28.734  14.874
17825W        W90893  28.019   6.274  11.479
17826W        W90894  27.682  33.597   1.733
17827W        W90895  13.635  18.791  12.039
17828W        W90896   7.237  12.051  14.306
17829W        W90897   7.329   5.304   3.153
17830W        W90898  38.070  35.224   0.763
17831W        W90899   7.385  33.350   2.299
17832W        W90900  32.080  22.784   2.810
17833W        W90901  42.474  40.981   2.758
17834W        W90902   9.997  16.134   3.849
17835W        W90903  13.070  23.089  10.374
17836W        W90904  20.775  39.858  10.665
17837W        W90905  44.858  19.209   3.375
17838W        W90906  16.051  29.971  12.529
17839W        W90907  29.906  44.378  12.498
17840W        W90908  39.275  33.060   4.598
17841W        W90909  13.199  21.669   0.723
17842W        W90910  23.884   3.906  13.369
17843W        W90911  11.235  33.471  11.095
17844W        W90912  31.702   3.647  11.542
17845W        W90913  29.642  16.997  10.673
17846W        W90914   6.267  11.582   0.899
17847W        W90915  19.506  42.942  12.576
17848W        W90916  38.058   4.862  11.101
17849W        W90917   8.884  42.805   3.598
17850W        W90918  15.671   9.150  10.740
17851W        W90919  30.768   0.785   5.113
17852W        W90920   5.295  40.094  11.547
17853W        W90921  40.791  14.173  12.535
17854W        W90922   1.479  19.771  12.580
17855W        W90923  42.882  21.292  12.984
17856W        W90924  28.850  39.618   0.918
17857W        W90925   4.409  43.329  13.920
17858W        W90926  39.883  20.661  10.664
17859W        W90927  44.766  33.932  12.001
17860W        W90928   5.681  42.612   3.791
17861W        W90929  19.753  32.011  10.772
17862W        W90930  25.516  10.336  11.006
17863W        W90931  37.983  30.586  12.416
17864W        W90932  19.550  24.666   4.583
17865W        W90933   8.810  20.582  13.341
17866W        W90934  10.838  17.407  12.139
17867W        W90935   9.926  42.620  11.502
17868W        W90936  38.927   5.241   3.195
17869W        W90937  20.221  15.783   3.187
17870W        W90938  41.850  44.784  12.858
17871W        W90939  42.956   0.011   1.338
17872W        W90940  26.482  27.971   3.763
17873W        W90941  12.748  33.497   2.760
17874W        W90942  25.062  18.550   2.036
17875W        W90943   3.976  37.995  11.347
17876W        W90944  22.304   1.911   1.622
17877W        W90945   7.287  16.829   3.205
17878W        W90946  23.172  16.545  12.554
17879W        W90947  25.751   0.844  11.239
17880W        W90948   6.235  21.612  13.451
17881W        W90949   7.099  19.689   0.481
17882W        W90950  42.935  43.325  11.454
17883W        W90951  27.519  19.319  13.695
17884W        W90952  37.962  17.489  14.838
17885W        W90953  24.011  16.952   3.239
17886W        W90954  21.807  38.669  11.079
17887W        W90955  35.847  43.440  14.801
17888W        W90956   3.260  32.609  12.807
17889W        W90957  29.146  10.333   2.347
17890W        W90958  27.014  27.164  12.496
17891W        W90959   9.080  20.518   3.417
17892W        W90960   6.877  39.459   4.543
17893W        W90961   5.388  39.963   0.759
17894W        W90962   4.984  10.619   2.371
17895W        W90963  37.829  33.279   3.246
17896W        W90964  34.764   1.963  13.955
17897W        W90965   0.903   7.859   3.071
17898W        W90966  42.735  32.891  11.424
17899W        W90967  32.877  17.336   2.337
17900W        W90968   9.926  38.025  11.522
17901W        W90969  42.398  33.402  10.583
17902W        W90970  14.683  36.985   1.424
17903W        W90971   5.333  28.637   1.578
17904W        W90972  15.056  38.408  12.407
17905W        W90973  26.193   2.130   3.738
17906W        W90974  33.148  15.859   2.399
17907W        W90975  41.438  44.720   2.685
17908W        W90976  36.417  32.527   3.453
17909W        W90977  36.933  36.981  10.940
17910W        W90978  22.624  38.487  13.332
17911W        W90979  19.997  16.289   0.392
17912W        W90980  29.430  24.870  13.660
17913W        W90981  20.752  31.273  14.420
17914W        W90982   1.633   4.280  11.908
17915W        W90983   6.461   5.989   0.489
17916W        W90984  31.467  26.922  13.913
17917W        W90985  20.037  22.054  13.944
17918W        W90986  14.869   8.893   4.702
17919W        W90987  28.089   2.544   3.812
17920W        W90988   0.483  13.702   1.834
17921W        W90989  10.121  15.821  13.027
17922W        W90990   5.970  23.492   1.733
17923W        W90991  40.829  41.261   0.814
17924W        W90992  43.737  19.152   2.189
17925W        W90993  16.760  22.756  13.298
17926W        W90994  44.066  28.540  10.299
17927W        W90995   1.886   6.285   0.530
17928W        W90996  41.885  43.507  14.861
17929W        W90997  17.637  26.897  12.436
17930W        W90998  40.394   4.186  14.441
17931W        W90999   1.969   2.740   0.973
17932W        W91000  35.176  14.802  12.963
17933W        W91001  22.499   4.481  14.263
17934W        W91002  12.856   6.236  10.521
17935W        W91003   8.665  17.029  10.525
17936W        W91004  22.978  40.169   5.036
17937W        W91005  15.048  29.084  11.566
17938W        W91006  38.224  21.531   2.273
17939W        W91007  38.593  37.368  12.356
17940W        W91008  27.211  44.357   3.909
17941W        W91009   7.349  38.520   2.592
17942W        W91010  38.548  11.121   0.276
17943W        W91011  19.912  17.206   0.327
17944W        W91012  22.071  17.305   0.789
17945W        W91013  33.224  43.759  12.951
17946W        W91014  10.382  40.939   0.497
17947W        W91015  14.371   1.367  12.402
17948W        W91016  43.278  35.607  13.778
17949W        W91017  18.690  32.169  12.026
17950W        W91018   2.753  30.092   2.293
17951W        W91019  13.463   5.659   1.683
17952W        W91020  38.504  29.752   2.312
17953W        W91021  11.133  29.603  12.554
17954W        W91022  16.819  11.347   1.911
17955W        W91023  33.095  36.072   4.134
17956W        W91024   1.691  15.705  12.451
17957W        W91025   4.224  42.169   3.950
17958W        W91026   0.267  30.488   3.659
17959W        W91027   4.253  35.144  11.054
17960W        W91028   4.975  17.262   3.110
17961W        W91029  18.260  13.203   0.507
17962W        W91030  29.541   9.596  11.842
17963W        W91031   9.945  25.137   4.399
17964W        W91032  12.974  26.431   5.119
17965W        W91033  11.294  36.599   4.076
17966W        W91034   9.860   5.828   4.552
17967W        W91035  19.808  29.286  13.390
17968W        W91036  22.809   9.391  13.465
17969W        W91037   6.095  16.257  11.604
17970W        W91038  23.969  32.964  10.858
17971W        W91039  10.085   8.774   4.072
17972W        W91040  40.487  35.409  11.600
17973W        W91041  14.789  17.533   4.529
17974W        W91042   3.277  11.220  12.145
17975W        W91043   4.836   8.132  14.047
17976W        W91044  28.186  39.879  11.662
17977W        W91045  14.651  30.159  13.786
17978W        W91046  13.841  25.015   1.965
17979W        W91047   4.287  42.381   4.425
17980W        W91048  40.745   5.187  13.051
17981W        W91049  35.369  22.962  11.597
17982W        W91050  36.543  36.426  11.783
17983W        W91051  16.418  21.317   0.339
17984W        W91052  33.002  39.297   2.731
17985W        W91053  19.978  43.331   5.492
17986W        W91054   7.684  33.696  11.582
17987W        W91055  12.091  29.509   2.106
17988W        W91056  26.017   0.499  11.522
17989W        W91057  22.728  31.414   3.059
17990W        W91058  34.201  21.401   0.865
17991W        W91059  24.747  16.066   2.677
17992W        W91060  42.956  40.870   2.581
17993W        W91061  42.783  25.031   3.198
17994W        W91062   0.717  19.238   0.770
17995W        W91063  20.674  42.750   2.117
17996W        W91064  12.251  18.152  11.519
17997W        W91065   9.866   2.769   3.595
17998W        W91066  26.192  23.707  13.145
17999W        W91067   8.711  14.249  12.511
18000W        W91068  35.302  17.650   1.914
18001W        W91069  16.812   7.191  10.332
18002W        W91070  36.668  10.174  10.781
18003W        W91071  19.198  43.770   0.479
18004W        W91072  29.095  34.311   2.626
18005W        W91073   9.577  39.790   3.793
18006W        W91074   8.219  31.012   2.131
18007W        W91075  41.936  29.171  10.671
18008W        W91076  10.249  18.928   4.991
18009W        W91077  32.145   6.194  14.807
18010W        W91078   3.588   6.910   1.762
18011W        W91079  13.775  16.121  11.915
18012W        W91080  18.227   8.444   1.213
18013W        W91081  29.968  26.551   3.276
18014W        W91082  26.620  36.025   4.183
18015W        W91083  31.093   6.276  11.188
18016W        W91084  20.744  10.559   3.476
18017W        W91085  42.931  27.013  12.445
18018W        W91086  24.028  26.251   3.840
18019W        W91087  20.067  19.634   3.726
18020W        W91088   9.231  39.216   2.174
18021W        W91089   4.905  16.723   4.742
18022W        W91090  18.391   4.910   3.361
18023W        W91091  38.692  37.157  12.800
18024W        W91092  18.199   4.368  11.711
18025W        W91093  21.589  20.611  11.962
18026W        W91094   4.822  42.439   2.260
18027W        W91095  33.080  18.571  12.581
18028W        W91096  30.027   6.277   0.324
18029W        W91097   5.707  15.176  11.759
18030W        W91098   1.110   8.324  12.100
18031W        W91099  31.680  11.706  10.520
18032W        W91100  44.425  41.891  10.833
18033W        W91101   1.339   7.700  13.880
18034W        W91102  16.714   1.832  14.509
18035W        W91103   1.256  18.737  14.564
18036W        W91104  37.953  42.142  14.712
18037W        W91105  41.697   7.161  12.438
18038W        W91106  14.586  19.258  14.482
18039W        W91107   2.589  15.645   0.867
18040W        W91108  28.546   1.255   2.779
18041W        W91109  44.311  34.340  11.221
18042W        W91110   0.750  38.087  14.870
18043W        W91111  25.835  33.614  12.875
18044W        W91112  32.644  29.138   3.947
18045W        W91113  12.373  23.089   1.279
18046W        W91114  13.821   0.300  12.938
18047W        W91115  44.439  39.815  12.460
18048W        W91116  30.553  30.127  11.737
18049W        W91117  35.471  11.813   0.687
18050W        W91118  36.259  17.242  10.780
18051W        W91119  11.581   6.011  11.103
18052W        W91120  28.611  25.964   4.531
18053W        W91121  27.512   0.752   2.803
18054W        W91122  34.954  19.678  13.754
18055W        W91123  38.493  34.351   1.681
18056W        W91124  42.763  17.159   4.677
18057W        W91125  33.275  30.003  10.016
18058W        W91126  10.350  44.235   0.444
18059W        W91127  18.219  22.686  14.969
18060W        W91128  41.470  20.215  12.492
18061W        W91129   8.116  16.870  14.533
18062W        W91130  32.032  13.566  10.701
18063W        W91131  42.401  38.777   1.255
18064W        W91132   5.853  29.657  13.677
18065W        W91133  18.976  36.401  11.484
18066W        W91134   9.495  22.974   2.392
18067W        W91135  22.029  26.061   3.232
18068W        W91136  17.021  22.037   1.256
18069W        W91137  20.413  38.028  12.498
18070W        W91138  30.923  16.168  14.343
18071W        W91139  18.992  32.409   2.953
18072W        W91140   1.706  27.806  13.035
18073W        W91141  41.253   9.593  12.440
18074W        W91142  35.974   1.962  10.513
18075W        W91143  26.039  25.966  10.687
18076W        W91144  33.988  18.058   4.304
18077W        W91145  43.496  28.433   4.329
18078W        W91146  26.523  21.180  12.087
18079W        W91147  11.815   2.327  11.179
18080W        W91148  19.528   2.260   4.271
18081W        W91149  24.075  30.541  10.737
18082W        W91150  27.176  15.699  12.736
18083W        W91151  41.945   6.775   2.648
18084W        W91152  23.720  20.192  14.294
18085W        W91153  12.637  36.984  11.821
18086W        W91154   7.835  20.116  11.994
18087W        W91155  27.080  40.956   0.528
18088W        W91156  22.314  34.528   0.119
18089W        W91157  16.793  22.011  11.520
18090W        W91158  33.498   1.458  10.374
18091W        W91159  11.003  43.701   0.203
18092W        W91160  40.269  32.343   4.270
18093W        W91161  26.760  17.546  13.405
18094W        W91162   2.988  27.795  12.868
18095W        W91163  11.109   4.811   4.294
18096W        W91164  26.912  28.995   1.285
18097W        W91165  24.492  24.245   2.739
18098W        W91166  10.331  44.864   0.977
18099W        W91167  17.755  14.401  12.403
18100W        W91168  44.245  10.918   3.807
18101W        W91169  32.485  33.201  14.872
18102W        W91170  17.316  27.551   3.639
18103W        W91171  39.620  43.090  14.689
18104W        W91172  32.410  23.756   5.092
18105W        W91173   1.192  40.873  11.500
18106W        W91174  21.055  44.306  14.771
18107W        W91175   4.906   1.024  11.964
18108W        W91176  24.047  13.863  13.978
18109W        W91177  32.250  44.284  10.217
18110W        W91178   1.470  12.608  10.961
18111W        W91179  17.190   3.484  10.024
18112W        W91180  38.839  24.005  13.420
18113W        W91181  25.985   7.139   3.431
18114W        W91182  34.892  32.645   1.929
18115W        W91183   5.416   0.903  11.247
18116W        W91184  27.362  38.290  11.966
18117W        W91185  25.056  11.702  12.880
18118W        W91186  27.646  20.988  10.648
18119W        W91187   9.949  20.107   3.247
18120W        W91188  35.940  38.932   1.801
18121W        W91189   1.254  19.502   2.230
18122W        W91190  23.120  25.141   3.346
18123W        W91191  11.597  35.494  12.932
18124W        W91192  36.975   9.127   1.234
18125W        W91193   9.268  41.262  14.278
18126W        W91194  22.549  20.351  10.591
18127W        W91195   5.446  38.511  12.040
18128W        W91196  18.637  20.658  14.908
18129W        W91197  44.027  20.665  12.869
18130W        W91198  35.590  24.552  10.757
18131W        W91199  25.687  34.162  11.685
18132W        W91200  29.509  17.217  11.107
18133W        W91201  31.889  26.968   0.062
18134W        W91202   3.965   3.766  10.702
18135W        W91203  22.249  31.398   0.441
18136W        W91204  44.299  27.910  14.907
18137W        W91205   7.456  25.540   1.405
18138W        W91206  10.353  26.524  11.427
18139W        W91207  17.816   0.884   2.110
18140W        W91208  33.037   8.240  11.366
18141W        W91209  10.154   0.459  13.058
18142W        W91210  32.588  19.231   2.723
18143W        W91211  10.276  22.962   2.815
18144W        W91212  30.161  38.341   2.380
18145W        W91213  37.359  28.136  11.871
18146W        W91214   5.644  29.382  11.136
18147W        W91215  36.864  38.523   4.120
18148W        W91216  40.473  19.731  14.357
18149W        W91217  15.613   6.222   4.023
18150W        W91218  16.359   5.840  13.519
18151W        W91219  25.447  15.294  14.453
18152W        W91220  37.404  40.050  14.040
18153W        W91221  14.523  35.563  12.911
18154W        W91222  34.354  26.159  13.000
18155W        W91223  16.437   2.581   0.937
18156W        W91224  15.563  14.258  12.412
18157W        W91225   2.411   9.057  11.732
18158W        W91226  19.327   2.979  14.836
18159W        W91227  34.923   9.640   4.504
18160W        W91228  30.436   3.717   2.380
18161W        W91229  25.476  11.968  13.007
18162W        W91230  38.075  27.051   0.226
18163W        W91231  37.843  29.136   5.095
18164W        W91232  43.416   7.731   3.546
18165W        W91233  42.498   7.490   2.671
18166W        W91234  15.214   1.042  12.897
18167W        W91235  28.515  42.807   1.646
18168W        W91236  25.381  40.822   4.969
18169W        W91237  42.758   7.013  11.579
18170W        W91238  19.283  41.467  13.453
18171W        W91239  20.880  14.588   2.674
18172W        W91240  20.775  44.312  10.626
18173W        W91241  25.838  42.279  14.883
18174W        W91242  29.024  10.233   0.347
18175W        W91243  31.134  39.472   2.271
18176W        W91244  21.627  10.159   1.255
18177W        W91245  30.551  27.478   4.145
18178W        W91246   7.040  44.719  10.255
18179W        W91247  15.502  42.479  14.800
18180W        W91248   0.740   3.949  10.670
18181W        W91249   5.173  23.530   2.057
18182W        W91250  10.744  39.286   4.126
18183W        W91251  23.867  22.312  13.419
18184W        W91252   4.395  18.529  14.525
18185W        W91253   6.575  27.999  13.382
18186W        W91254  36.437  41.318   1.795
18187W        W91255  42.796  33.387  13.159
18188W        W91256  43.523   6.350  10.781
18189W        W91257  26.906  37.990  11.641
18190W        W91258  37.806  28.515   2.432
18191W        W91259  37.362   1.804   3.765
18192W        W91260  29.161  31.733  12.522
18193W        W91261  30.922  33.604   2.808
18194W        W91262  30.927  23.801   1.244
18195W        W91263  21.826  12.139  13.520
18196W        W91264  28.693  38.240   2.744
18197W        W91265  21.810  11.364  11.637
18198W        W91266   3.288   2.493   3.002
18199W        W91267  33.560   5.909   1.448
18200W        W91268   0.271  25.419   1.852
18201W        W91269  11.200  31.918   4.537
18202W        W91270  39.392  34.759  14.528
18203W        W91271  42.393   3.412  13.627
18204W        W91272  16.678  29.099   2.838
18205W        W91273  24.972  28.501   4.760
18206W        W91274  27.020  28.166  13.320
18207W        W91275   2.977  10.458  14.558
18208W        W91276  16.103  10.891   1.836
18209W        W91277  15.398  25.605   4.673
18210W        W91278  36.003  41.479   4.186
18211W        W91279  20.578  14.119   1.429
18212W        W91280  39.465   8.967  13.310
18213W        W91281  28.692  40.623  11.562
18214W        W91282  37.810   1.104  10.022
18215W        W91283  36.443  15.218   5.089
18216W        W91284  40.097   8.186  13.848
18217W        W91285   6.383   4.254  10.972
18218W        W91286  44.975  44.496   1.761
18219W        W91287  16.300   8.430  12.352
18220W        W91288   4.423  16.012   4.196
18221W        W91289  28.878  29.703  10.726
18222W        W91290  40.312   3.922   3.368
18223W        W91291  13.694  34.317  13.379
18224W        W91292  11.172  38.422  11.517
18225W        W91293  42.460  38.278  14.342
18226W        W91294   6.715  13.088  14.983
18227W        W91295  24.726  10.082   1.477
18228W        W91296   9.373  39.426  10.618
18229W        W91297  36.920  23.725   0.058
18230W        W91298  31.171  13.633  10.985
18231W        W91299   3.719  13.377   1.010
18232W        W91300  21.753  37.478   3.662
18233W        W91301  14.291  41.219  13.988
18234W        W91302  26.963   4.213  14.836
18235W        W91303  32.013  18.579  13.810
18236W        W91304   3.269   2.103   3.389
18237W        W91305  31.114   1.172   0.258
18238W        W91306  19.130   9.890  14.675
18239W        W91307  22.778  40.844  11.512
18240W        W91308  34.530  36.484   2.898
18241W        W91309   2.940  22.474  12.414
18242W        W91310  43.990  22.022   3.385
18243W        W91311  36.068  25.033  14.272
18244W        W91312   4.171  20.843  10.313
18245W        W91313  28.946  15.299   1.406
18246W        W91314  38.577  24.413   5.108
18247W        W91315  13.642  18.683   3.628
18248W        W91316   5.159  24.978   0.354
18249W        W91317  35.588   7.485  10.639
18250W        W91318  35.320  10.765  14.559
18251W        W91319  14.905  26.855   1.152
18252W        W91320  18.185  16.179   0.874
18253W        W91321   0.541   8.727   0.511
18254W        W91322  15.022  28.839  10.721
18255W        W91323   2.871  38.793  12.390
18256W        W91324  23.445  42.233   4.104
18257W        W91325  21.235  15.736   3.627
18258W        W91326  37.400  21.589   2.675
18259W        W91327   8.165  13.185  10.834
18260W        W91328  27.716  21.601  13.833
18261W        W91329  11.564   8.426  12.494
18262W        W91330  14.830  12.921  13.461
18263W        W91331  15.205  22.213   2.417
18264W        W91332  16.849   6.282   0.532
18265W        W91333  43.965  43.383   4.660
18266W        W91334  13.084  34.855   3.675
18267W        W91335  34.398  33.526  14.806
18268W        W91336  36.420  22.361  11.115
18269W        W91337  41.797  10.141  14.380
18270W        W91338  33.279  31.376   3.674
18271W        W91339  41.435  44.830   3.205
18272W        W91340  31.935  13.498   5.075
18273W        W91341   8.803  27.250   1.353
18274W        W91342  41.383   4.953   4.785
18275W        W91343  16.180   7.633   4.186
18276W        W91344  26.416  39.175   5.003
18277W        W91345  15.566  37.450  11.510
18278W        W91346   5.410  23.969   1.012
18279W        W91347  38.418   3.786   2.760
18280W        W91348   3.245  11.643  14.562
18281W        W91349  37.974  15.206  10.541
18282W        W91350   0.490  30.529   3.186
18283W        W91351  39.965   2.556  13.461
18284W        W91352  18.741  44.639   0.488
18285W        W91353   8.927   4.407  14.928
18286W        W91354   5.684  19.631  14.447
18287W        W91355  19.507  38.421   3.229
18288W        W91356  33.394  25.994   1.893
18289W        W91357  43.746  15.910  14.660
18290W        W91358  28.147  14.719   4.848
18291W        W91359  16.744  42.143  14.507
18292W        W91360  27.826  11.175   2.629
18293W        W91361  40.781   2.513  11.621
18294W        W91362  10.273  20.232   1.819
18295W        W91363  15.324   3.812  13.081
18296W        W91364  42.747  38.507   0.914
18297W        W91365  20.858  12.568  13.116
18298W        W91366   0.991  41.280   2.306
18299W        W91367   1.768  29.332  10.637
18300W        W91368  14.594  30.142   1.266
18301W        W91369  36.864   6.707  10.745
18302W        W91370  10.227   2.753  12.498
18303W        W91371  22.256   9.472  14.950
18304W        W91372  42.865  21.926   0.272
18305W        W91373  39.586   7.888  14.919
18306W        W91374   2.861  10.187  12.943
18307W        W91375  23.092  20.503   0.337
18308W        W91376  24.010  20.210  13.855
18309W        W91377   8.967  37.295  13.831
18310W        W91378  43.219  31.863   3.735
18311W        W91379  25.614  27.220   1.265
18312W        W91380  36.964   1.559   3.022
18313W        W91381  37.776  40.425   0.213
18314W        W91382  42.423  38.355   2.258
18315W        W91383  28.052  35.525   0.454
18316W        W91384  29.520   6.748  11.599
18317W        W91385  12.968  40.468  12.399
18318W        W91386  27.190   4.866   0.156
18319W        W91387   2.543   1.579  11.893
18320W        W91388   3.375  34.691  11.424
18321W        W91389  30.505  24.364   0.469
18322W        W91390  22.585  34.904   0.383
18323W        W91391  16.882  38.496   4.568
18324W        W91392  14.007  16.349  11.523
18325W        W91393  38.878  32.926  13.514
18326W        W91394  40.507  12.511  13.129
18327W        W91395  32.036  26.489  13.358
18328W        W91396  28.227  25.666   3.795
18329W        W91397  33.991  24.490   1.323
18330W        W91398   6.139  44.826   3.754
18331W        W91399  27.182  25.084   3.239
18332W        W91400  42.381  28.053   4.829
18333W        W91401  18.002  14.527   3.666
18334W        W91402  15.917  32.891   1.432
18335W        W91403  14.554   8.459   1.865
18336W        W91404  25.576  19.029   4.757
18337W        W91405  25.153  39.056   3.698
18338W        W91406  39.625   2.903   4.956
18339W        W91407   0.835   9.178   3.635
18340W        W91408  20.139  16.528   1.815
18341W        W91409  42.808  15.645  10.652
18342W        W91410  43.763  25.051   4.622
18343W        W91411  35.813  39.533   4.240
18344W        W91412  19.262  41.465  14.763
18345W        W91413  17.376   9.154  14.458
18346W        W91414   1.784  36.624   0.701
18347W        W91415  35.070   9.824  14.325
18348W        W91416  15.473  43.293   3.306
18349W        W91417  18.237  38.355   4.713
18350W        W91418  33.002  17.315   3.260
18351W        W91419  25.092  10.624   3.098
18352W        W91420   7.326  44.677   0.402
18353W        W91421  17.707   5.439   2.881
18354W        W91422  28.827  36.399   0.271
18355W        W91423  37.050   4.438  14.293
18356W        W91424   0.698  30.131   4.276
18357W        W91425  22.123  43.978  11.551
18358W        W91426  14.370  28.109   4.737
18359W        W91427  28.933   7.820  12.064
18360W        W91428   2.593  30.726  14.275
18361W        W91429  12.026  43.468  10.623
18362W        W91430  39.744  36.597   0.972
18363W        W91431  37.879  38.513   3.779
18364W        W91432  35.025   8.742  14.874
18365W        W91433   1.239  16.237   1.622
18366W        W91434  20.189  17.054  13.955
18367W        W91435   6.287   2.390  10.852
18368W        W91436  37.337  17.175  11.585
18369W        W91437  26.047   6.549   1.568
18370W        W91438   3.206  19.211   3.309
18371W        W91439  33.251  38.439   3.179
18372W        W91440  15.584  43.642  11.444
18373W        W91441  34.399   1.499   2.351
18374W        W91442  26.641   4.331   3.187
18375W        W91443   8.314  23.426   3.143
18376W        W91444  35.160   4.204  13.917
18377W        W91445  32.880  43.193   2.267
18378W        W91446   7.368  15.263  12.303
18379W        W91447  19.913   1.935   4.117
18380W        W91448  13.199  36.105   0.117
18381W        W91449  42.499  41.623   2.339
18382W        W91450  10.250  33.350  10.786
18383W        W91451  39.332  17.591   0.892
18384W        W91452  24.451  19.435   2.799
18385W        W91453   4.230  33.959   4.312
18386W        W91454  21.089  12.121   3.863
18387W        W91455  37.501  44.390  12.123
18388W        W91456   0.329  35.479  14.212
18389W        W91457   8.771   5.605   1.661
18390W        W91458  25.057  14.018  11.117
18391W        W91459  17.561  28.470  14.728
18392W        W91460  23.093  27.056  13.342
18393W        W91461  13.361  20.060  14.318
18394W        W91462  29.193  32.116  12.889
18395W        W91463  36.997  30.482   2.855
18396W        W91464   4.228  39.280   4.057
18397W        W91465  26.423  21.367   4.142
18398W        W91466   8.320   7.890  13.395
18399W        W91467  42.130  43.489  13.480
18400W        W91468  41.193  39.947  13.073
18401W        W91469  14.062  14.723   2.916
18402W        W91470  34.686  26.998  12.353
18403W        W91471  19.188  18.391  11.283
18404W        W91472  24.673  30.929  11.053
18405W        W91473  23.710  33.521  13.035
18406W        W91474  40.371  29.503   3.310
18407W        W91475  34.036  32.194   3.640
18408W        W91476  10.840  26.447   0.344
18409W        W91477   9.938  42.950   3.179
18410W        W91478  30.229  20.110   3.764
18411W        W91479   8.468  24.184  14.276
18412W        W91480  25.627  23.189  12.057
18413W        W91481  15.154  37.344  10.512
18414W        W91482  26.896   1.792  14.834
18415W        W91483   0.988  22.725   4.711
18416W        W91484  43.896  40.727   4.050
18417W        W91485   0.004  17.729   1.200
18418W        W91486  10.233  11.615  14.906
18419W        W91487  38.817  14.559   1.236
18420W        W91488  14.540  38.492  12.495
18421W        W91489  28.020  13.909  11.967
18422W        W91490  42.817   4.331   2.929
18423W        W91491  32.580  22.339  14.896
18424W        W91492   2.491  28.912  12.662
18425W        W91493   2.525  36.447  14.156
18426W        W91494   4.372   4.486   2.632
18427W        W91495  13.793  13.281  12.133
18428W        W91496  15.087  35.063  12.027
18429W        W91497   9.415  31.527   1.861
18430W        W91498   4.135  12.435  11.245
18431W        W91499  13.573  40.923  14.416
18432W        W91500  10.687  13.185  12.363
18433W        W91501  22.848  30.666   4.120
18434W        W91502  37.113  33.098  12.612
18435W        W91503  43.751   6.212  12.484
18436W        W91504  10.720  32.859   3.213
18437W        W91505  41.763  29.089  12.106
18438W        W91506  38.923  21.522  13.862
18439W        W91507  40.307  13.872  14.850
18440W        W91508   6.917   6.911   1.407
18441W        W91509  18.331  44.371  12.516
18442W        W91510  37.495  29.368   0.729
18443W        W91511   0.751  14.149  13.013
18444W        W91512   3.851  26.892  10.683
18445W        W91513  41.480  12.706  14.695
18446W        W91514  14.330  29.231  14.852
18447W        W91515  44.272  33.764   1.080
18448W        W91516  17.637   5.216  14.914
18449W        W91517  34.567  41.811   2.853
18450W        W91518  26.161  12.071  14.525
18451W        W91519  10.880  24.433  11.950
18452W        W91520   2.706   5.933  12.356
18453W        W91521  41.371  24.255  11.529
18454W        W91522  32.153  27.854  12.108
18455W        W91523  32.644   6.402  14.531
18456W        W91524   6.732   5.864  12.120
18457W        W91525  31.802  29.222   2.829
18458W        W91526  18.250  20.864   1.953
18459W        W91527  37.379  39.750  12.563
18460W        W91528  13.067  21.641   1.756
18461W        W91529  17.756  34.081  11.646
18462W        W91530  42.911  40.956   3.076
18463W        W91531  40.461  37.276  14.364
18464W        W91532  43.329  25.680   2.159
18465W        W91533  16.214  43.207   1.824
18466W        W91534  44.436   4.528  11.599
18467W        W91535  11.467  11.449   1.944
18468W        W91536  33.496  12.627  14.490
18469W        W91537  31.517  38.156   1.437
18470W        W91538  14.652   2.406   3.887
18471W        W91539  23.917   1.906   0.893
18472W        W91540  18.677  10.139   2.199
18473W        W91541  34.896   6.171   1.370
18474W        W91542  14.224   3.210   1.947
18475W        W91543  31.492  33.152   3.620
18476W        W91544  32.060  22.181  12.676
18477W        W91545  20.500  42.858  14.288
18478W        W91546  34.190  14.667   3.560
18479W        W91547  27.673  23.050   2.946
18480W        W91548  41.297  19.576   3.394
18481W        W91549  40.442  41.103  14.852
18482W        W91550  34.982  32.588  10.685
18483W        W91551  10.564  35.577   0.788
18484W        W91552  28.569   2.371   1.453
18485W        W91553  28.422   0.750  12.418
18486W        W91554  21.556  35.269   1.836
18487W        W91555   0.835  34.456   4.286
18488W        W91556  19.499  37.566  13.546
18489W        W91557   8.720  15.208   3.751
18490W        W91558  28.183  40.507   4.108
18491W        W91559  18.553  39.503  10.865
18492W        W91560  41.870   2.275  14.107
18493W        W91561   2.158  19.537   4.528
18494W        W91562  43.961  23.613  11.822
18495W        W91563  11.650   3.117   1.312
18496W        W91564   6.762  26.374  14.887
18497W        W91565  29.628  13.191  12.346
18498W        W91566  35.317  32.572   3.969
18499W        W91567  29.891  17.090  11.423
18500W        W91568   6.664  19.269   1.857
18501W        W91569  13.739  36.980  13.989
18502W        W91570  16.364  33.446   4.357
18503W        W91571  27.765  35.455  10.347
18504W        W91572  38.099   8.532   3.201
18505W        W91573  37.053   9.724  13.098
18506W        W91574  28.507  20.951   0.666
18507W        W91575  17.674  36.077  10.636
18508W        W91576   5.497   8.472  11.465
18509W        W91577   6.298  41.848   0.429
18510W        W91578  36.815   9.264   3.646
18511W        W91579  43.956  21.563  12.832
18512W        W91580  12.103  27.195  12.958
18513W        W91581   0.488   9.862  10.897
18514W        W91582  14.594  37.321  10.415
18515W        W91583   7.441  34.170   2.917
18516W        W91584  22.209  19.177   3.525
18517W        W91585  18.603  35.437  10.563
18518W        W91586  24.258  40.449   1.333
18519W        W91587  12.207  39.125  13.095
18520W        W91588   5.361  12.445   3.786
18521W        W91589   0.019   9.627  14.384
18522W        W91590   1.413  26.439   0.878
18523W        W91591  43.307  43.363  12.966
18524W        W91592  23.767  19.714  12.583
18525W        W91593  12.709   4.666   0.915
18526W        W91594  44.997  13.736   2.881
18527W        W91595  44.731   8.330   0.505
18528W        W91596  28.139  35.604   0.982
18529W        W91597  25.661  15.879   2.329
18530W        W91598   0.822  42.492   2.720
18531W        W91599  31.083  31.426  10.576
18532W        W91600  16.195  43.251  12.872
18533W        W91601  29.886  28.625   3.043
18534W        W91602  10.613  24.183   1.031
18535W        W91603   1.414  14.608   4.606
18536W        W91604  27.889  32.020  12.546
18537W        W91605  11.685  15.889  10.649
18538W        W91606  32.090   2.978   3.565
18539W        W91607  27.972  12.910  12.001
18540W        W91608  32.626  16.818   1.466
18541W        W91609  21.442  13.812  10.655
18542W        W91610  22.504  19.161  12.180
18543W        W91611  43.540  24.141  10.654
18544W        W91612  40.829  38.452  11.167
18545W        W91613  37.973   9.634  11.512
18546W        W91614  22.445  40.149  14.486
18547W        W91615  17.812  27.618  12.194
18548W        W91616  30.273   8.367   2.719
18549W        W91617  42.275   7.808  11.630
18550W        W91618  14.810  40.977  11.111
18551W        W91619  28.161  15.277   1.961
18552W        W91620   6.264  37.055   1.124
18553W        W91621  16.822   4.002   1.667
18554W        W91622   3.219  15.523   2.757
18555W        W91623   9.782   2.740  13.295
18556W        W91624  43.513  10.621  13.916
18557W        W91625  43.858  40.047   1.529
18558W        W91626   4.339  43.288   3.698
18559W        W91627  17.074  37.611  11.537
18560W        W91628  34.101  33.481   0.353
18561W        W91629  43.387  29.828   0.719
18562W        W91630  33.723  10.773  12.607
18563W        W91631  24.773  24.275  12.977
18564W        W91632   2.238  18.753   3.232
18565W        W91633  13.467  17.995  10.368
18566W        W91634   5.057  42.598   3.284
18567W        W91635  12.892  24.945   1.721
18568W        W91636   6.808   6.392   3.635
18569W        W91637   4.197  15.206   1.910
18570W        W91638  12.211  25.993  11.033
18571W        W91639   6.058   8.910   0.271
18572W        W91640  27.523   6.217  11.601
18573W        W91641  25.178  11.238  10.586
18574W        W91642  32.416  13.333  12.919
18575W        W91643  12.130   5.352  12.562
18576W        W91644  35.812  28.730   2.903
18577W        W91645  43.994  40.257  14.402
18578W        W91646  18.439   5.878   3.208
18579W        W91647  33.900  24.865   0.765
18580W        W91648  32.615  20.470   1.572
18581W        W91649   0.529  14.069   4.004
18582W        W91650  44.447  33.401  12.602
18583W        W91651   4.366  19.030   2.638
18584W        W91652  37.937  19.512  14.835
18585W        W91653  36.406   7.216   0.269
18586W        W91654  11.865  29.530   1.576
18587W        W91655  39.010  17.756   4.806
18588W        W91656   7.410   6.321  14.254
18589W        W91657  19.056  32.817   0.436
18590W        W91658  29.829  17.519   4.586
18591W        W91659  11.162  43.794   2.329
18592W        W91660  43.009   1.424  12.104
18593W        W91661   7.385  42.231   4.658
18594W        W91662   1.864  38.420   1.839
18595W        W91663  24.752   0.822  11.566
18596W        W91664  26.280  43.089  13.273
18597W        W91665  21.493  12.186   0.931
18598W        W91666  35.308  43.535  12.495
18599W        W91667  24.603  34.646  12.022
18600W        W91668   9.837  25.036  11.190
18601W        W91669  40.001  36.896   2.209
18602W        W91670  39.561  30.632   3.641
18603W        W91671  30.220  27.729  14.313
18604W        W91672   3.195  26.029  14.463
18605W        W91673  26.101  12.968  14.966
18606W        W91674  12.394  19.185  12.978
18607W        W91675  13.221  29.002   0.758
18608W        W91676  15.618  21.758  12.814
18609W        W91677  40.094  20.075   4.909
18610W        W91678  13.695  32.957  13.562
18611W        W91679   8.935  23.718  13.510
18612W        W91680  32.442  23.539  10.693
18613W        W91681  26.639  16.797  14.837
18614W        W91682  33.951  13.387   4.181
18615W        W91683   2.920  34.641   1.419
18616W        W91684  32.082  44.827  11.824
18617W        W91685  10.695  12.271  10.356
18618W        W91686  14.561  31.628  12.493
18619W        W91687  39.292  44.768  11.499
18620W        W91688  31.065  10.244  12.251
18621W        W91689  20.600  42.075  10.683
18622W        W91690   2.908   1.932  11.666
18623W        W91691  29.415   2.274   3.338
18624W        W91692  20.677  38.140  10.718
18625W        W91693  31.628  42.079  13.328
18626W        W91694  11.029  19.755   2.053
18627W        W91695  26.780   8.347  10.591
18628W        W91696  12.501  22.193   1.717
18629W        W91697  21.960  41.470  10.773
18630W        W91698  29.145  31.929   0.065
18631W        W91699  38.222  33.468   0.746
18632W        W91700  38.419  26.856  14.462
18633W        W91701  17.412  13.854  13.521
18634W        W91702  42.207  32.390   1.639
18635W        W91703  23.803  13.289  10.667
18636W        W91704  25.062  38.915  11.877
18637W        W91705   0.542  20.510   0.148
18638W        W91706  24.646  29.185  11.636
18639W        W91707  10.818  16.125  10.909
18640W        W91708   4.745  44.514   3.784
18641W        W91709  21.551  14.870   0.818
18642W        W91710  40.037  38.997  11.074
18643W        W91711  32.499   1.269  11.659
18644W        W91712  28.391   0.822  11.394
18645W        W91713  15.224  24.922   4.160
18646W        W91714  33.260   5.847   0.002
18647W        W91715  19.772  24.388   2.746
18648W        W91716  31.644   8.833   0.257
18649W        W91717  17.499  42.922   1.652
18650W        W91718  30.098   3.893   1.149
18651W        W91719  21.196  23.582  12.460
18652W        W91720  31.278   0.223   0.429
18653W        W91721  39.318  10.427  10.739
18654W        W91722   2.094  44.947  10.793
18655W        W91723   2.965  15.065  14.405
18656W        W91724  23.275  23.263  14.244
18657W        W91725  33.039  11.107   3.298
18658W        W91726  26.470   1.744  11.061
18659W        W91727  22.087   2.661   4.250
18660W        W91728  11.731  44.383   2.799
18661W        W91729  39.455  19.531  13.272
18662W        W91730  13.621  13.701   1.439
18663W        W91731  41.808  32.892   2.156
18664W        W91732  30.615  42.497  13.369
18665W        W91733  35.530  24.980   3.711
18666W        W91734  35.976  27.783  14.738
18667W        W91735  16.083  14.185  12.441
18668W        W91736  16.965  43.936  14.797
18669W        W91737  35.336  31.167   4.131
18670W        W91738   9.286   4.320  12.366
18671W        W91739  18.276  25.944  11.849
18672W        W91740   5.687  41.845   3.662
18673W        W91741  38.496  10.879   0.724
18674W        W91742  23.070  44.322   4.158
18675W        W91743  39.365  26.503   3.716
18676W        W91744  20.141  41.117  11.701
18677W        W91745  18.908   2.203   5.289
18678W        W91746  16.123  36.988   1.575
18679W        W91747  40.530  39.319  10.337
18680W        W91748   5.732  16.594   0.941
18681W        W91749  25.711  43.423  11.266
18682W        W91750  17.501  27.082   3.542
18683W        W91751  35.107   4.378  12.851
18684W        W91752  28.460  39.951   0.090
18685W        W91753  44.364   2.064  14.221
18686W        W91754  23.690  29.198   2.122
18687W        W91755   4.847   9.193  11.509
18688W        W91756  11.250  39.921   4.330
18689W        W91757  19.274   8.684   2.833
18690W        W91758   8.210  17.711   0.983
18691W        W91759  34.004  27.584  10.685
18692W        W91760  29.741   7.259  11.740
18693W        W91761  37.740  35.480   4.703
18694W        W91762   0.041   5.318  11.949
18695W        W91763  18.471  22.642   4.204
18696W        W91764  39.355  32.818   0.886
18697W        W91765  38.276  24.158   0.112
18698W        W91766   7.280   4.158   1.320
18699W        W91767   6.274  27.181   3.176
18700W        W91768  31.212  21.262  12.535
18701W        W91769  32.878   8.315   0.387
18702W        W91770  18.100  18.817  11.902
18703W        W91771  12.916  30.455   2.893
18704W        W91772  17.367  32.070   3.238
18705W        W91773   5.867  41.330  13.341
18706W        W91774  44.899   1.190   0.204
18707W        W91775  16.897  34.371  12.030
18708W        W91776   7.654  16.477   2.882
18709W        W91777  36.866   8.941   0.756
18710W        W91778  37.367  31.273  12.587
18711W        W91779  21.155  36.957   1.739
18712W        W91780  19.002  18.708  11.660
18713W        W91781  40.109  42.694  12.103
18714W        W91782  13.148  38.974  13.415
18715W        W91783  25.909  23.409  11.185
18716W        W91784  30.481  21.264  11.731
18717W        W91785   7.347  40.572  12.136
18718W        W91786  34.082  31.481   1.280
18719W        W91787  15.620   7.251  12.419
18720W        W91788  43.715   3.440  14.812
18721W        W91789  32.008  14.283  14.306
18722W        W91790  40.536  40.984  11.128
18723W        W91791   9.084  15.898  10.981
18724W        W91792  44.384  39.963  13.422
18725W        W91793  44.914  13.580   3.372
18726W        W91794  33.472  23.506  12.929
18727W        W91795  25.664  21.050   3.729
18728W        W91796  34.513  19.921   1.802
18729W        W91797  32.179  40.529   4.534
18730W        W91798  41.352  10.551   2.375
18731W        W91799  20.709  12.601   5.106
18732W        W91800  43.905  16.846   1.968
18733W        W91801   8.949  19.773   0.441
18734W        W91802  44.211  13.268  14.345
18735W        W91803  15.188   2.291   1.443
18736W        W91804   9.676  19.299   3.756
18737W        W91805  16.585  34.413   4.876
18738W        W91806  40.084   8.607  12.954
18739W        W91807  27.745  12.179   0.539
18740W        W91808  11.315  24.184  14.726
18741W        W91809  42.889  21.783  11.144
18742W        W91810  18.764  11.358   1.585
18743W        W91811  21.558  28.018  10.490
18744W        W91812  24.029  28.822   3.278
18745W        W91813  34.312   4.845   4.576
18746W        W91814   5.472  42.254   2.279
18747W        W91815  41.882  29.016  12.623
18748W        W91816  27.961  18.300   0.276
18749W        W91817   8.942   4.290  10.602
18750W        W91818  19.643   4.161  11.129
18751W        W91819   5.341   7.541  13.059
18752W        W91820  37.858   7.405  12.911
18753W        W91821  18.826  26.903   4.280
18754W        W91822  12.378  34.279  11.092
18755W        W91823  38.958  18.182   1.790
18756W        W91824   2.220  29.983   0.575
18757W        W91825  38.824  27.456   3.789
18758W        W91826  31.439  11.676   0.559
18759W        W91827  16.070  10.123   5.153
18760W        W91828  41.317  14.192   2.258
18761W        W91829   8.082   6.389  12.544
18762W        W91830  11.802  42.761  14.339
18763W        W91831  29.007   3.905   3.721
18764W        W91832   4.335  18.534  12.471
18765W        W91833  37.168   5.807  10.243
18766W        W91834   6.636  25.304   3.681
18767W        W91835  16.043   8.808  13.064
18768W        W91836  34.363   2.014   2.506
18769W        W91837   2.360  17.809   2.711
18770W        W91838   2.914  42.934   0.775
18771W        W91839  24.045  44.498  11.680
18772W        W91840  41.276   2.093   0.515
18773W        W91841  14.561  19.561  12.506
18774W        W91842  26.161  13.612   2.737
18775W        W91843  26.691   9.200  12.847
18776W        W91844  31.112  17.810   3.158
18777W        W91845  30.306  14.392  12.949
18778W        W91846  40.529  36.391   0.479
18779W        W91847  33.738  15.815   4.517
18780W        W91848   8.110  26.999  14.658
18781W        W91849  34.967  15.047  13.419
18782W        W91850  29.668   4.385   1.353
18783W        W91851  34.329  14.867   3.087
18784W        W91852  16.826  20.681  10.676
18785W        W91853   4.420  11.858  12.974
18786W        W91854  35.328   5.773   0.339
18787W        W91855  39.362   5.769   0.282
18788W        W91856  42.722  23.941  14.853
18789W        W91857  14.749  21.322  12.905
18790W        W91858  26.481   1.766   2.568
18791W        W91859   6.329  41.212   1.847
18792W        W91860  26.710  22.145  10.230
18793W        W91861   4.967  36.513   4.209
18794W        W91862  40.796  27.620  11.569
18795W        W91863  15.068   8.717   3.672
18796W        W91864  20.277  31.986   0.765
18797W        W91865  21.140  24.256  14.491
18798W        W91866  20.958  29.811  14.945
18799W        W91867   5.370  28.159   3.302
18800W        W91868   1.829  44.635   0.783
18801W        W91869  18.654   1.936   2.336
18802W        W91870   1.205  32.011   0.009
18803W        W91871   8.078   5.923   2.868
18804W        W91872  37.508  24.041  13.146
18805W        W91873  18.713  26.991  12.431
18806W        W91874  11.439  20.068   2.769
18807W        W91875   4.655  19.814  11.163
18808W        W91876  43.420  25.158   3.668
18809W        W91877   1.906   0.086   2.861
18810W        W91878  19.165  10.124   1.925
18811W        W91879   5.271   9.064   0.026
18812W        W91880  28.986  30.916  12.173
18813W        W91881  35.097  31.594  14.842
18814W        W91882  12.596   4.411   0.456
18815W        W91883  41.057  26.576  11.945
18816W        W91884  22.272  42.478  12.477
18817W        W91885   7.494  26.656  13.035
18818W        W91886  16.253  38.268  12.835
18819W        W91887  18.805  17.622  11.169
18820W        W91888  38.339   5.906   5.379
18821W        W91889  30.547  17.081  14.394
18822W        W91890  38.334  11.108   1.157
18823W        W91891  35.653  12.845   3.598
18824W        W91892  40.281  30.427  13.897
18825W        W91893  42.732  15.789   0.255
18826W        W91894  10.053  19.981  11.448
18827W        W91895  17.104  25.042  13.333
18828W        W91896  18.515  25.611   0.327
18829W        W91897  44.985  20.772   1.340
18830W        W91898  27.403  17.818   3.650
18831W        W91899  34.975  34.651   3.231
18832W        W91900   3.285  15.780  13.316
18833W        W91901  23.355   2.729  14.227
18834W        W91902  17.909  33.454  13.335
18835W        W91903   7.648  18.785   2.412
18836W        W91904  40.827   7.980   4.100
18837W        W91905  29.647  39.212  13.233
18838W        W91906  30.016  13.298  14.784
18839W        W91907  21.976  25.006  11.593
18840W        W91908   0.128   7.053   1.217
18841W        W91909  10.433   8.753   0.546
18842W        W91910  37.985   4.347  12.923
18843W        W91911   0.008  24.182  14.514
18844W        W91912  22.493  10.738   1.236
18845W        W91913  39.515  39.343   1.271
18846W        W91914   0.789  40.882  14.403
18847W        W91915  18.201  19.784  14.360
18848W        W91916  11.263  26.251  11.043
18849W        W91917  16.761   6.736  13.135
18850W        W91918   1.876  39.003  11.021
18851W        W91919  29.366  31.738  11.196
18852W        W91920   9.421   9.903   1.727
18853W        W91921  28.780   2.386   1.960
18854W        W91922  22.208  21.731   1.134
18855W        W91923   8.139  36.756   4.066
18856W        W91924  19.840  35.930  12.991
18857W        W91925   9.365  37.779   1.823
18858W        W91926   1.872  25.770   3.664
18859W        W91927  43.023  35.929  12.475
18860W        W91928  41.888  21.221  12.081
18861W        W91929  44.345  16.211  12.893
18862W        W91930   7.315   8.387   2.864
18863W        W91931  43.017  37.913  13.128
18864W        W91932  33.961  41.500   0.421
18865W        W91933   9.822  33.879   1.421
18866W        W91934   0.293  28.134  12.403
18867W        W91935  37.634  20.384  11.209
18868W        W91936  40.604   8.754  13.952
18869W        W91937  37.406  31.110  13.470
18870W        W91938   5.229  23.249   3.329
18871W        W91939  37.418  37.287   4.042
18872W        W91940  14.545  41.035  12.028
18873W        W91941  11.829   3.395  11.511
18874W        W91942   9.863  38.383   1.905
18875W        W91943  32.450  39.636  12.356
18876W        W91944  16.072   7.460   1.803
18877W        W91945  44.959   3.927  14.389
18878W        W91946  37.502  13.069   3.850
18879W        W91947  29.235   2.180   2.191
18880W        W91948  34.940  39.904   1.755
18881W        W91949  20.811  17.359  11.594
18882W        W91950  18.005  20.607   2.925
18883W        W91951  26.109  39.781  12.003
18884W        W91952  14.542   0.700  11.656
18885W        W91953   3.451  12.139   4.738
18886W        W91954  24.006  33.347   2.843
18887W        W91955  14.238  21.449  10.751
18888W        W91956   6.513  25.050  12.019
18889W        W91957  13.189  23.563  11.136
18890W        W91958  17.803  13.513  14.822
18891W        W91959  35.661  30.415   1.456
18892W        W91960  34.022   8.245   2.261
18893W        W91961  17.631  31.838  12.236
18894W        W91962  27.351  17.236  13.471
18895W        W91963  32.989   2.181   2.834
18896W        W91964  31.233  24.143   0.929
18897W        W91965   9.860   6.906   1.799
18898W        W91966  43.692  35.417   1.867
18899W        W91967  11.668  13.223   4.053
18900W        W91968  36.173  29.143  10.575
18901W        W91969  11.186   8.000   1.433
18902W        W91970  33.021  20.049  13.911
18903W        W91971  24.533  19.946   1.164
18904W        W91972  29.596  42.852   4.750
18905W        W91973  35.597  34.902   4.172
18906W        W91974  29.086  14.867  12.326
18907W        W91975  20.155  34.860  11.089
18908W        W91976  24.493  43.012  12.986
18909W        W91977  13.163   8.372   0.289
18910W        W91978  33.606  17.306   0.738
18911W        W91979  41.414   6.368  11.410
18912W        W91980  31.170  39.124  13.821
18913W        W91981  29.078  19.606  11.049
18914W        W91982  33.554  25.990  10.519
18915W        W91983   6.344  15.255   3.372
18916W        W91984  42.916  32.646  10.136
18917W        W91985   4.875  30.614  13.871
18918W        W91986  16.579  21.588   3.619
18919W        W91987  20.779  23.057   1.374
18920W        W91988  23.030   1.196  13.021
18921W        W91989  18.363  31.160   0.770
18922W        W91990  36.674  31.631   4.683
18923W        W91991  16.150   2.883   2.120
18924W        W91992  13.243  19.279  12.521
18925W        W91993  11.824   3.752   0.881
18926W        W91994  24.495  15.614   1.272
18927W        W91995   2.798  23.608  11.258
18928W        W91996  36.067  32.074  12.383
18929W        W91997  38.782  44.348   3.252
18930W        W91998  35.067   0.789  12.816
18931W        W91999   3.412  12.244   1.283
18932W        W92000   8.947  24.004  14.330
18933W        W92001  34.558  17.234  12.869
18934W        W92002  41.558  14.734  12.260
18935W        W92003  11.281  25.696  14.759
18936W        W92004  34.401  38.879  13.788
18937W        W92005  27.992   8.775  10.321
18938W        W92006  11.431  42.717   0.942
18939W        W92007  43.912   5.052  13.600
18940W        W92008  12.170   4.363  11.591
18941W        W92009   0.196   4.688   1.269
18942W        W92010  28.894   1.880  13.500
18943W        W92011  28.998  44.864   1.749
18944W        W92012  44.504  36.007   1.860
18945W        W92013  11.354   7.159  13.337
18946W        W92014  10.404   1.896  13.886
18947W        W92015  36.246  21.311   1.428
18948W        W92016  20.717  16.780   1.217
18949W        W92017  42.278  23.089   3.837
18950W        W92018   4.882  28.355  12.974
18951W        W92019  12.195  23.229  10.935
18952W        W92020  35.388   1.445   4.143
18953W        W92021  42.417   8.197  11.932
18954W        W92022  12.614  17.152   2.304
18955W        W92023   0.541  34.118  14.574
18956W        W92024   6.097   6.935   1.830
18957W        W92025  19.132  42.535   2.369
18958W        W92026   4.154   1.040  10.766
18959W        W92027  38.058  43.205  13.850
18960W        W92028  36.340  16.881   0.270
18961W        W92029  17.216  12.710   0.132
18962W        W92030  26.594   6.705  12.904
18963W        W92031  42.928   1.658  12.860
18964W        W92032  43.772  16.287  13.813
18965W        W92033   3.281  23.381   3.817
18966W        W92034  29.177  28.995  11.873
18967W        W92035   0.697   6.753   2.396
18968W        W92036  10.872  27.517  10.801
18969W        W92037  41.068   9.328   2.248
18970W        W92038  34.362  27.161   3.104
18971W        W92039  30.057  40.523   0.903
18972W        W92040  43.839  24.917   5.129
18973W        W92041  44.476  28.178   0.826
18974W        W92042  24.170  14.207   3.701
18975W        W92043  19.253  42.388  14.819
18976W        W92044  21.778  33.493  12.002
18977W        W92045   6.377  16.012   2.803
18978W        W92046  30.080  19.619   3.821
18979W        W92047   4.786  32.246   5.055
18980W        W92048  26.096  29.395   3.187
18981W        W92049  33.522  18.182   0.070
18982W        W92050  36.016  15.596   4.396
18983W        W92051  32.355  44.464   1.163
18984W        W92052  39.536   0.217  11.640
18985W        W92053  19.850  43.276  14.889
18986W        W92054  22.783  37.354  13.431
18987W        W92055  12.299  43.527   0.441
18988W        W92056  44.548  41.968   1.183
18989W        W92057  11.171  18.148  12.840
18990W        W92058  23.474  23.185   4.923
18991W        W92059  11.850  13.102   3.575
18992W        W92060  41.770   3.245  13.018
18993W        W92061  33.915   3.175  13.831
18994W        W92062   1.541  16.148  10.635
18995W        W92063  31.981  14.801  14.481
18996W        W92064  15.078   1.039  14.373
18997W        W92065  37.955  41.462   1.841
18998W        W92066  31.454   0.239   3.341
18999W        W92067  13.169  14.319   4.634
19000W        W92068  16.560  33.582  12.073
19001W        W92069  34.916   9.687   3.669
19002W        W92070  21.696  36.678  12.502
19003W        W92071  21.073  15.092  11.491
19004W        W92072  38.431  37.566  13.889
19005W        W92073  42.771  16.084  13.061
19006W        W92074  44.004   1.479   0.035
19007W        W92075  29.907  28.171  12.514
19008W        W92076   7.586  18.073  13.008
19009W        W92077  15.355  16.325  13.471
19010W        W92078  38.410   4.159   2.362
19011W        W92079  17.296  38.818   4.584
19012W        W92080   3.783   2.941  13.355
19013W        W92081  36.062  31.495   1.211
19014W        W92082  40.394  29.776   1.892
19015W        W92083   4.432  14.255   1.732
19016W        W92084  32.660  20.469  14.972
19017W        W92085  39.800  17.392   0.780
19018W        W92086   3.995  35.969   4.164
19019W        W92087  33.632  42.072  11.113
19020W        W92088   3.176   4.303  11.037
19021W        W92089  10.585  10.399   2.814
19022W        W92090  41.280  24.137   2.924
19023W        W92091  25.127  21.006   0.446
19024W        W92092  42.234  41.445  13.753
19025W        W92093  19.416   5.334  12.007
19026W        W92094  28.886  33.107   4.515
19027W        W92095  16.090   8.944   2.552
19028W        W92096  32.889  40.370  12.554
19029W        W92097   6.985  17.690  10.418
19030W        W92098  44.202  21.633  14.199
19031W        W92099  14.260  36.819  11.565
19032W        W92100  20.010  18.994   0.016
19033W        W92101  25.830  39.304   3.449
19034W        W92102  29.403  39.283  13.730
19035W        W92103  25.826  20.173  11.872
19036W        W92104  26.830  10.407   0.289
19037W        W92105  41.310   9.781   1.809
19038W        W92106  35.514  25.207  14.755
19039W        W92107  32.556   3.192   3.676
19040W        W92108  22.285  30.522  10.444
19041W        W92109  33.460  12.294   1.700
19042W        W92110  14.112   7.551  11.842
19043W        W92111  31.792  12.852  14.150
19044W        W92112  17.132  21.281   4.536
19045W        W92113  16.458  35.513   2.349
19046W        W92114  12.702   0.408  11.420
19047W        W92115  15.892  38.043  14.056
19048W        W92116  20.584  43.447   4.078
19049W        W92117  27.787   9.914   9.703
19050W        W92118  33.628  23.340  12.108
19051W        W92119  25.041  44.749   1.000
19052W        W92120  39.844   2.477   2.843
19053W        W92121   5.337  27.486  11.464
19054W        W92122  18.460  24.653   1.204
19055W        W92123  20.128  25.713   4.682
19056W        W92124  32.547  14.204  14.293
19057W        W92125  36.979  16.230   0.314
19058W        W92126  22.039  44.274   4.327
19059W        W92127   7.341  14.321  13.020
19060W        W92128   8.201  25.966   2.300
19061W        W92129   4.878   4.139   1.885
19062W        W92130  12.170  24.097   1.716
19063W        W92131  21.477   3.267  12.531
19064W        W92132  16.145  10.102   2.253
19065W        W92133  15.983  17.581  13.798
19066W        W92134   5.934  36.541   1.286
19067W        W92135  34.015  44.205   0.745
19068W        W92136  40.955   9.698   1.417
19069W        W92137  25.687   1.488   5.107
19070W        W92138  39.866  11.730  12.615
19071W        W92139  36.527  34.162  11.822
19072W        W92140  22.959  21.760   0.565
19073W        W92141  31.038   7.849  13.781
19074W        W92142  16.679  14.238  14.505
19075W        W92143  37.626  15.395  11.936
19076W        W92144  25.136   9.406  13.557
19077W        W92145  35.435  31.158  13.418
19078W        W92146   1.922   7.704   4.137
19079W        W92147  21.708  20.479   0.654
19080W        W92148  19.066  27.417   0.904
19081W        W92149  19.786  27.905   2.756
19082W        W92150  24.276  24.547   2.348
19083W        W92151   1.745  43.797   4.906
19084W        W92152  21.694  25.585   1.150
19085W        W92153  13.770   0.911   0.530
19086W        W92154  26.660  14.111   1.498
19087W        W92155  31.397  28.263  13.318
19088W        W92156   6.445  35.621   0.778
19089W        W92157  39.416   3.793   2.441
19090W        W92158  16.255  17.778   4.629
19091W        W92159  28.949  33.351   0.920
19092W        W92160  28.423  20.038  10.622
19093W        W92161  17.188  30.536  11.982
19094W        W92162  17.631  34.578  11.565
19095W        W92163  17.500  31.359  11.558
19096W        W92164  38.945  21.540  12.515
19097W        W92165  32.404  30.407  11.083
19098W        W92166  11.283  31.892  11.962
19099W        W92167   3.724  10.321  13.408
19100W        W92168   9.361  39.637  12.486
19101W        W92169  23.395  30.458  14.534
19102W        W92170  13.828  36.089   1.450
19103W        W92171  14.564  35.057   1.384
19104W        W92172  14.290  40.433  11.132
19105W        W92173  30.183  40.346  12.835
19106W        W92174   1.448  21.264   4.812
19107W        W92175  15.052  22.075  13.431
19108W        W92176  33.455  43.533   1.508
19109W        W92177  35.541  20.221  13.492
19110W        W92178  44.971  25.942  12.442
19111W        W92179  37.035  23.696  14.019
19112W        W92180  11.274  10.922   1.953
19113W        W92181  44.936  13.218   3.724
19114W        W92182  35.590  41.465  12.654
19115W        W92183  29.166   8.692   4.616
19116W        W92184  40.055  44.228   4.143
19117W        W92185  15.857  21.135  13.947
19118W        W92186  37.255   2.971   4.150
19119W        W92187  13.145  27.868   3.154
19120W        W92188  27.540  13.607  14.831
19121W        W92189  16.854   8.865   2.324
19122W        W92190  30.343  10.267   2.813
19123W        W92191   1.803  38.456  14.295
19124W        W92192  27.747  23.645   0.208
19125W        W92193  33.081  14.207   4.934
19126W        W92194  38.775  36.451  12.512
19127W        W92195  31.418  31.391   4.601
19128W        W92196   2.795  37.953  13.076
19129W        W92197  32.963   3.232  10.440
19130W        W92198  14.563  25.872  12.428
19131W        W92199  39.818  36.633  11.091
19132W        W92200  37.756  12.720  11.111
19133W        W92201  38.571   4.883   1.682
19134W        W92202  19.335  33.156   3.172
19135W        W92203  42.836   5.608   3.281
19136W        W92204  44.751   2.487  14.548
19137W        W92205  21.789  23.222  14.501
19138W        W92206  20.098  40.580   1.003
19139W        W92207  14.509  35.044   2.771
19140W        W92208   3.698  14.907   3.394
19141W        W92209  36.276   2.258   0.460
19142W        W92210  42.950  11.601  11.040
19143W        W92211  35.960  32.357   3.235
19144W        W92212  11.243  12.942  11.495
19145W        W92213  19.133  27.899   0.768
19146W        W92214   4.900  40.588  12.647
19147W        W92215  30.384   0.704  14.049
19148W        W92216  23.610  25.425   0.417
19149W        W92217  11.604  39.328   4.088
19150W        W92218   7.108  41.583   1.829
19151W        W92219  28.915  42.945   3.933
19152W        W92220  14.542   4.344   2.190
19153W        W92221  35.090  26.486  14.891
19154W        W92222   4.630   8.445  13.334
19155W        W92223  40.436  12.610  11.971
19156W        W92224  23.267   6.829   3.803
19157W        W92225  13.524  21.133   5.046
19158W        W92226  30.283   6.830  12.938
19159W        W92227   1.800  28.688   3.651
19160W        W92228  19.059  22.826   1.855
19161W        W92229   1.228  14.306   0.227
19162W        W92230   3.297   2.453   1.008
19163W        W92231  11.891   1.219   0.385
19164W        W92232  39.703   6.330   5.546
19165W        W92233   7.755  42.747  12.021
19166W        W92234  16.268  25.663  14.969
19167W        W92235  34.973  14.297   1.391
19168W        W92236  25.452  22.541  13.630
19169W        W92237  23.184  40.296   0.091
19170W        W92238   4.998  43.669   0.066
19171W        W92239  14.293  18.282  10.856
19172W        W92240  14.070  42.554   2.861
19173W        W92241   7.709  31.840   1.534
19174W        W92242  16.091  38.738  13.103
19175W        W92243  32.983  10.028   5.054
19176W        W92244   7.640  41.579   4.243
19177W        W92245   3.627  25.864  13.486
19178W        W92246  31.898  13.524  11.612
19179W        W92247   1.308   4.892   4.540
19180W        W92248  28.747  43.319   2.708
19181W        W92249  17.228  18.110  14.452
19182W        W92250  24.519  25.697  14.779
19183W        W92251  27.890  43.757   3.945
19184W        W92252  22.153  39.995   3.282
19185W        W92253  27.140  40.836  14.994
19186W        W92254  25.634  12.586  12.153
19187W        W92255  23.350  26.530   4.251
19188W        W92256  26.016  42.413   0.372
19189W        W92257  28.220  17.612   3.180
19190W        W92258   0.800  11.259  14.709
19191W        W92259  31.385   5.679  11.277
19192W        W92260  41.009  20.251  14.256
19193W        W92261   0.950  28.510  11.838
19194W        W92262   8.589   1.269   2.366
19195W        W92263  24.485  39.303  14.998
19196W        W92264  10.119  23.953   4.833
19197W        W92265  31.173  39.553  14.959
19198W        W92266  23.052  11.281   0.436
19199W        W92267  21.520  36.146   3.077
19200W        W92268  29.564  10.817  12.098
19201W        W92269   8.622  16.302   2.954
19202W        W92270  44.378  41.210   1.064
19203W        W92271   4.446  30.587  14.718
19204W        W92272  23.214   1.814  11.615
19205W        W92273   2.248  13.292  14.304
19206W        W92274  44.741  24.969  11.088
19207W        W92275  12.716  42.493  14.713
19208W        W92276  31.846  22.752  14.879
19209W        W92277  15.863  43.380  14.433
19210W        W92278   3.675  11.964   1.655
19211W        W92279  17.232   5.692   4.582
19212W        W92280  40.961  37.828   1.364
19213W        W92281  32.009   6.304   0.299
19214W        W92282   6.728  35.479  12.843
19215W        W92283  19.098  17.292   2.819
19216W        W92284  26.499  29.259   0.429
19217W        W92285  28.387  29.402   2.756
19218W        W92286  40.406  22.995   4.086
19219W        W92287  30.584  14.451   4.032
19220W        W92288  27.829  33.643  14.262
19221W        W92289  15.729   4.733   4.875
19222W        W92290  27.558  30.578   2.740
19223W        W92291  19.211  13.087   1.477
19224W        W92292  16.070  44.100   1.908
19225W        W92293  20.660  11.383   3.776
19226W        W92294  11.923   3.503   2.285
19227W        W92295  42.349  10.049   4.976
19228W        W92296  21.473   6.896  14.989
19229W        W92297  32.090  42.791   1.815
19230W        W92298  13.777  16.350  12.866
19231W        W92299  20.707  36.374   0.032
19232W        W92300  30.082  14.193   4.792
19233W        W92301   6.520   8.848   2.657
19234W        W92302  18.759  30.127  12.940
19235W        W92303  23.657   8.157  12.890
19236W        W92304  24.548  35.370  13.809
19237W        W92305  40.500  34.502   2.358
19238W        W92306   5.615  26.019   2.900
19239W        W92307  35.830  43.898   2.720
19240W        W92308  39.935   9.093  13.085
19241W        W92309  42.454  12.346  11.057
19242W        W92310  15.788  31.681  11.182
19243W        W92311  36.030  31.661   2.650
19244W        W92312  23.531  43.171  11.588
19245W        W92313  34.812  43.773   0.352
19246W        W92314  16.219   4.470   4.885
19247W        W92315  43.954   8.769   0.400
19248W        W92316   2.986  31.912   2.790
19249W        W92317  42.244  34.419   4.206
19250W        W92318  21.151  22.480   4.605
19251W        W92319  25.989   3.025  14.261
19252W        W92320   8.204  40.923   4.783
19253W        W92321   3.781  42.390   3.806
19254W        W92322  26.571   4.232   2.685
19255W        W92323  24.582  44.453   4.416
19256W        W92324  27.001  38.539   3.473
19257W        W92325  24.708  25.233  11.915
19258W        W92326  43.190   1.500  11.194
19259W        W92327   4.321  15.102   4.147
19260W        W92328  37.448  19.541  11.537
19261W        W92329  20.684  27.833  11.378
19262W        W92330  23.236   7.866   0.055
19263W        W92331  33.711   6.415   0.591
19264W        W92332  31.902  23.262   2.875
19265W        W92333  29.199  44.395   1.911
19266W        W92334  20.389  14.101   4.841
19267W        W92335  12.481   6.960  11.129
19268W        W92336  20.300  34.284   4.592
19269W        W92337   4.942  27.514  10.766
19270W        W92338  17.587  23.557   2.229
19271W        W92339  11.162  12.323   3.737
19272W        W92340  24.411  25.200   3.765
19273W        W92341  17.103  43.009   0.767
19274W        W92342  16.646   3.125  14.500
19275W        W92343  43.693  42.934   1.967
19276W        W92344  17.248  38.439   2.830
19277W        W92345  34.718  34.654   0.547
19278W        W92346   1.796  34.412   0.902
19279W        W92347  19.531   2.734   4.531
19280W        W92348   3.927  38.840   3.678
19281W        W92349  20.943   6.195   3.745
19282W        W92350   5.819  29.748   2.345
19283W        W92351   3.168  43.379   0.818
19284W        W92352   6.405   7.369   1.760
19285W        W92353  16.120  14.519  12.006
19286W        W92354  21.270  34.836   3.125
19287W        W92355   6.949  19.120   2.249
19288W        W92356  25.919  31.601  14.938
19289W        W92357   8.697  12.102   1.359
19290W        W92358   7.968  10.240  12.719
19291W        W92359  38.822  18.274   0.340
19292W        W92360  13.205  36.259   4.929
19293W        W92361  22.693  32.941  11.104
19294W        W92362  36.965  31.240   3.201
19295W        W92363  13.664  17.923   1.450
19296W        W92364  39.462  36.161   0.203
19297W        W92365  15.152   6.925  13.400
19298W        W92366  37.545  12.290  14.940
19299W        W92367   4.455  40.442  14.544
19300W        W92368  11.598  31.728  12.347
19301W        W92369   0.309  20.746   4.272
19302W        W92370  31.399  18.657  10.707
19303W        W92371   1.445  12.396   3.752
19304W        W92372   5.725   4.004   1.811
19305W        W92373  24.547  37.071  12.021
19306W        W92374  12.086   0.555  13.690
19307W        W92375  17.633  37.356   3.175
19308W        W92376  38.018  18.307  11.898
19309W        W92377  16.589  42.803  13.637
19310W        W92378   3.368  42.846   0.389
19311W        W92379  19.962  30.998   2.787
19312W        W92380  24.990  35.045   0.998
19313W        W92381  29.446  18.583  14.740
19314W        W92382  17.676  38.596   2.362
19315W        W92383  33.875  37.988   1.989
19316W        W92384  34.576  38.621   1.216
19317W        W92385   4.223  12.914  13.754
19318W        W92386  33.203  42.315  14.378
19319W        W92387   2.047   8.339   2.701
19320W        W92388  16.633  42.083   3.626
19321W        W92389  10.393  37.058   0.380
19322W        W92390  30.938  39.075  14.831
19323W        W92391  43.865  37.197  11.125
19324W        W92392  30.211  22.238   4.893
19325W        W92393  25.505   9.103  11.615
19326W        W92394  43.859  33.439   3.223
19327W        W92395   0.881  23.750  12.437
19328W        W92396  20.152  25.053  13.914
19329W        W92397  36.717  19.082  12.087
19330W        W92398  39.562  44.209   2.777
19331W        W92399  11.153  23.715   2.599
19332W        W92400   4.247  43.703  10.904
19333W        W92401  44.220  13.382   0.765
19334W        W92402  35.378  36.768  14.008
19335W        W92403  11.797  26.725   3.039
19336W        W92404  22.511   6.491  11.168
19337W        W92405   5.448  23.255   2.398
19338W        W92406   4.860  19.650   3.151
19339W        W92407  22.463  29.489  10.575
19340W        W92408  20.776   4.341   3.259
19341W        W92409  27.510  34.881   0.711
19342W        W92410   2.656  38.756  10.415
19343W        W92411   6.331  11.846   4.332
19344W        W92412  41.779   2.941  11.043
19345W        W92413   7.900  40.398   4.502
19346W        W92414  40.898  42.031   4.609
19347W        W92415  30.988  11.683   1.124
19348W        W92416  38.457  11.642  13.851
19349W        W92417  27.876  23.076   2.259
19350W        W92418  15.190   0.789   1.927
19351W        W92419   5.355  24.666  11.853
19352W        W92420  40.808  22.421   2.831
19353W        W92421  19.680  34.549  12.123
19354W        W92422  26.197  35.700   2.788
19355W        W92423  32.037   5.033   2.904
19356W        W92424  28.659  12.243  13.435
19357W        W92425  25.438   5.832   0.863
19358W        W92426  44.216  21.919   0.076
19359W        W92427  43.689   8.684   0.851
19360W        W92428  31.708   9.656   1.915
19361W        W92429  22.930  13.564   4.904
19362W        W92430  35.082  10.280   5.021
19363W        W92431  11.177   2.024   4.112
19364W        W92432  14.121   1.782  12.553
19365W        W92433  39.105  39.994   3.736
19366W        W92434  17.087  42.049  10.749
19367W        W92435  18.370  25.105  13.058
19368W        W92436  41.514  41.974  10.660
19369W        W92437   2.676  11.236   4.260
19370W        W92438  19.378  25.051  12.979
19371W        W92439  33.536  35.721   2.223
19372W        W92440   0.471  15.872  14.689
19373W        W92441   9.110  22.489   3.218
19374W        W92442  12.010   7.678  11.957
19375W        W92443  13.623  10.717   0.276
19376W        W92444  36.956   9.924  13.582
19377W        W92445  18.484  27.656  11.528
19378W        W92446   8.914  34.193   1.263
19379W        W92447   7.823   5.975   3.830
19380W        W92448  20.561   6.694   0.899
19381W        W92449  13.067  23.057  14.298
19382W        W92450  44.229  10.147  11.113
19383W        W92451  20.576   0.985  12.506
19384W        W92452   3.124  10.338   3.296
19385W        W92453   5.706  11.383  14.772
19386W        W92454  35.854  32.529  11.514
19387W        W92455  29.155  41.922   0.030
19388W        W92456  20.622   2.578   1.362
19389W        W92457  31.960  27.969  12.575
19390W        W92458  10.884  15.752   4.571
19391W        W92459  30.838  20.647   0.999
19392W        W92460  23.220  15.777  10.941
19393W        W92461  16.527   3.300   2.053
19394W        W92462  43.007  27.704   2.223
19395W        W92463  34.438   1.303   3.942
19396W        W92464  31.197  42.462   4.318
19397W        W92465   7.929  37.893  14.431
19398W        W92466   9.444  26.066  11.556
19399W        W92467  16.757  25.881  14.811
19400W        W92468  35.425   5.475   1.178
19401W        W92469  21.625  21.999  10.888
19402W        W92470  27.543  24.923   3.647
19403W        W92471  44.248   5.801  13.172
19404W        W92472  11.383   1.377   0.399
19405W        W92473  25.639  24.129   4.748
19406W        W92474   5.943  37.394  13.058
19407W        W92475   4.281  26.511   4.630
19408W        W92476  27.015  44.897   3.764
19409W        W92477  10.486  11.588  14.254
19410W        W92478  13.762  13.793  12.097
19411W        W92479  28.562  10.659   9.725
19412W        W92480  37.358  39.827  14.931
19413W        W92481  40.233  17.673   0.671
19414W        W92482  21.575  29.798  14.360
19415W        W92483  40.821  15.558  11.435
19416W        W92484  41.880  38.585   3.318
19417W        W92485   9.190  12.654   3.237
19418W        W92486  29.247  43.254   3.650
19419W        W92487   4.362  35.576  14.994
19420W        W92488  24.547  12.652  10.965
19421W        W92489  43.688  33.553   4.812
19422W        W92490  33.120  44.099   1.562
19423W        W92491  38.823   6.215   0.754
19424W        W92492  18.688  20.641   2.404
19425W        W92493  36.382  34.598   5.614
19426W        W92494  39.476  17.010   2.280
19427W        W92495   1.553  27.061  14.931
19428W        W92496  35.981  11.790   1.393
19429W        W92497  42.021   2.900   0.742
19430W        W92498   5.778   9.393  12.277
19431W        W92499   2.851  17.952  13.966
19432W        W92500   3.009  23.499   0.294
19433W        W92501  23.436   5.689   1.115
19434W        W92502  31.381  21.756   3.315
19435W        W92503  28.718  12.077  11.331
19436W        W92504  25.592  10.644   5.169
19437W        W92505  28.044  44.495   3.209
19438W        W92506  16.764  22.781   0.697
19439W        W92507  40.033  44.859  12.551
19440W        W92508  17.706  40.812   1.960
19441W        W92509  40.098  10.233   3.626
19442W        W92510  38.474  41.427   1.708
19443W        W92511  27.045  17.380  14.294
19444W        W92512  15.002  18.934   0.774
19445W        W92513  32.584   0.258   3.706
19446W        W92514   3.231  33.902   3.889
19447W        W92515  28.473  36.074  14.643
19448W        W92516  29.094  29.081  14.751
19449W        W92517  13.877  14.309   1.174
19450W        W92518  16.554   1.878   4.059
19451W        W92519  38.901  44.926   4.063
19452W        W92520   7.393  19.701   5.265
19453W        W92521  14.275  29.137  12.003
19454W        W92522   4.678  23.581   1.115
19455W        W92523   3.324  16.832   4.866
19456W        W92524  19.902   1.161  10.506
19457W        W92525  22.678   5.807   1.867
19458W        W92526   0.646   5.480   3.242
19459W        W92527   5.262  17.259  13.367
19460W        W92528   4.424  16.177  13.007
19461W        W92529  17.759  42.196  14.859
19462W        W92530  18.739  42.129   4.084
19463W        W92531   4.317  24.763  13.609
19464W        W92532  39.272  15.237   0.713
19465W        W92533  19.196   3.772   4.569
19466W        W92534  43.279  14.318   4.447
19467W        W92535  26.103  28.768  11.497
19468W        W92536  23.738  39.468   4.086
19469W        W92537  36.174  22.680   2.283
19470W        W92538  28.470  18.487  14.376
19471W        W92539  39.075   9.356   5.502
19472W        W92540  30.131  13.884   3.935
19473W        W92541  35.311  33.389  12.960
19474W        W92542  20.337  16.256  10.743
19475W        W92543  25.460  44.540   0.761
19476W        W92544  15.589   1.249  13.311
19477W        W92545  27.218  29.958  14.267
19478W        W92546  24.702  44.045   1.768
19479W        W92547   7.864   6.607  11.545
19480W        W92548  43.798  34.874   4.049
19481W        W92549   8.369  23.106   4.083
19482W        W92550  12.638  27.494  11.906
19483W        W92551  18.174  37.441  11.674
19484W        W92552  17.547   6.633  14.809
19485W        W92553  23.139  35.117  10.986
19486W        W92554  23.987   4.300  13.977
19487W        W92555  43.430   3.491   5.075
19488W        W92556   2.910   9.967  11.003
19489W        W92557  35.148  21.809  11.113
19490W        W92558  13.600  31.644   2.136
19491W        W92559  13.560  40.064  11.028
19492W        W92560  36.576  30.856  10.273
19493W        W92561   0.050  16.763  12.925
19494W        W92562  26.428  12.789   0.930
19495W        W92563  22.397   9.813  14.585
19496W        W92564  20.134  44.518   3.622
19497W        W92565  31.565  12.643   0.235
19498W        W92566  30.121   5.360   1.439
19499W        W92567  42.450  25.113  11.205
19500W        W92568   6.922  32.942   3.086
19501W        W92569   7.264   9.726   2.862
19502W        W92570  35.843  36.926  12.924
19503W        W92571  22.192   2.230   2.775
19504W        W92572  18.708   0.668  13.416
19505W        W92573  10.965  39.910   1.084
19506W        W92574  31.854   1.807   3.317
19507W        W92575  32.202  10.203   3.103
19508W        W92576  42.593  35.434  14.685
19509W        W92577  12.691  43.409  13.049
19510W        W92578  37.669  16.606  14.768
19511W        W92579   7.204  39.492  11.939
19512W        W92580  20.653  31.601  12.117
19513W        W92581  29.554  10.286  13.275
19514W        W92582   3.208  10.300   1.377
19515W        W92583  12.395  27.605   2.652
19516W        W92584  30.102  31.942   1.878
19517W        W92585  37.548   7.614   3.213
19518W        W92586  40.001   7.710  13.707
19519W        W92587  11.817  39.960   2.215
19520W        W92588  17.740   3.973   0.316
19521W        W92589  21.563  37.630  12.494
19522W        W92590   6.873  11.088  11.126
19523W        W92591  32.486  20.697   4.310
19524W        W92592  26.591  33.363  13.349
19525W        W92593   5.747  24.703  11.157
19526W        W92594  18.184  14.707  13.086
19527W        W92595  13.046   4.763  14.211
19528W        W92596  11.419  11.736   4.629
19529W        W92597   8.651  13.625  11.568
19530W        W92598  24.657   1.889   1.885
19531W        W92599  11.696   0.443  14.013
19532W        W92600  27.347  33.228   2.018
19533W        W92601  33.993   3.495   0.203
19534W        W92602  13.015  25.620   4.235
19535W        W92603  17.718  38.675   1.455
19536W        W92604  17.077  27.731   3.214
19537W        W92605  19.291  32.882   1.860
19538W        W92606  43.799  15.779   2.792
19539W        W92607  40.289   4.168  13.019
19540W        W92608   0.455   8.445   3.219
19541W        W92609  37.027  37.898   0.886
19542W        W92610  36.987  40.417   4.894
19543W        W92611   8.742  43.495   0.952
19544W        W92612   1.588   8.817   4.632
19545W        W92613  16.592  34.889  11.586
19546W        W92614  25.511  10.273   4.207
19547W        W92615  17.848  12.149   2.677
19548W        W92616  11.459  44.770   4.596
19549W        W92617  41.796  44.284  12.500
19550W        W92618  29.326  36.976   3.258
19551W        W92619  26.223  21.211  14.344
19552W        W92620  34.846  18.611   4.115
19553W        W92621   1.020   1.987   2.776
19554W        W92622  22.143   4.967  10.092
19555W        W92623  15.103   9.447   0.664
19556W        W92624   7.257  34.965   4.950
19557W        W92625   6.321  11.705  14.383
19558W        W92626  25.689   6.799  11.734
19559W        W92627  42.316  20.972  11.931
19560W        W92628   5.493  10.243  12.943
19561W        W92629  29.002   2.833  14.919
19562W        W92630  18.284  31.488  12.310
19563W        W92631  36.402  26.555  14.627
19564W        W92632  27.481  28.224   3.761
19565W        W92633  27.922  35.956  12.415
19566W        W92634  17.287  27.643  12.104
19567W        W92635  19.181  36.653  12.889
19568W        W92636  12.613  36.384   1.736
19569W        W92637  32.072  27.504  13.026
19570W        W92638  40.140   0.765  14.308
19571W        W92639  23.751  44.793  13.441
19572W        W92640   2.914  17.277   4.136
19573W        W92641  34.556  41.814  10.757
19574W        W92642   8.269  17.057  11.297
19575W        W92643  30.904  34.125  12.417
19576W        W92644   3.384  30.065  13.375
19577W        W92645  31.834  35.819  13.838
19578W        W92646  28.468   0.403  14.499
19579W        W92647  43.793   5.064  11.480
19580W        W92648  14.629  13.840  11.210
19581W        W92649   7.229  14.270   3.636
19582W        W92650   1.232  33.490  13.422
19583W        W92651  15.022   9.471  14.455
19584W        W92652  31.415  20.556  12.028
19585W        W92653  37.989  29.134   1.247
19586W        W92654   4.389  37.930  14.072
19587W        W92655  40.282  32.102   2.261
19588W        W92656  34.641  32.499  14.806
19589W        W92657   2.681   2.506  14.070
19590W        W92658   8.790  25.205   0.016
19591W        W92659  43.875   6.626   3.306
19592W        W92660  19.261  15.219   2.458
19593W        W92661  21.157  34.960  11.007
19594W        W92662  25.540  34.497  12.367
19595W        W92663  31.901   9.264   0.184
19596W        W92664  13.296  12.885  11.604
19597W        W92665  16.476  36.753   4.143
19598W        W92666  12.460  35.497   4.154
19599W        W92667   1.840  18.327  12.029
19600W        W92668  43.894  29.625  10.776
19601W        W92669  29.069  36.071  12.363
19602W        W92670  25.145  17.625   3.810
19603W        W92671  23.569  17.419   3.640
19604W        W92672  40.525  22.481   4.099
19605W        W92673   2.693  37.524   4.843
19606W        W92674  15.754  25.634   2.610
19607W        W92675   9.049   2.362   3.932
19608W        W92676  21.455  28.170  11.478
19609W        W92677  15.614  31.871   0.192
19610W        W92678  23.422  32.510  14.372
19611W        W92679   1.685  28.555  13.293
19612W        W92680   8.602   8.438   1.165
19613W        W92681  10.093  38.744   2.210
19614W        W92682  27.417  16.057  14.409
19615W        W92683   8.793  20.959  12.998
19616W        W92684  23.203  21.000   0.240
19617W        W92685   0.545  41.515   4.703
19618W        W92686  24.918  17.274  13.467
19619W        W92687  36.430  41.348  10.471
19620W        W92688  28.442  33.124   4.203
19621W        W92689  34.673  44.269  14.335
19622W        W92690  17.059  43.489  14.019
19623W        W92691  29.037  26.572  12.085
19624W        W92692   9.219  23.529  11.568
19625W        W92693  34.693  30.718   2.439
19626W        W92694  26.546  23.723   2.448
19627W        W92695  17.043   6.918  13.853
19628W        W92696  36.926  36.985   4.217
19629W        W92697  37.981   2.634   4.732
19630W        W92698  17.831   2.426  14.994
19631W        W92699   1.246  33.091  14.236
19632W        W92700  37.328  15.533   1.920
19633W        W92701   9.421  42.447  11.514
19634W        W92702  39.154  35.908  13.949
19635W        W92703  32.897  43.654  11.624
19636W        W92704  21.532   4.485   2.751
19637W        W92705  23.685  23.028  12.479
19638W        W92706  33.560  30.751  11.695
19639W        W92707  40.060  39.731   0.420
19640W        W92708  13.577  17.780  10.810
19641W        W92709  18.417   1.219  14.689
19642W        W92710  44.311  36.734   1.282
19643W        W92711  40.534  22.281   3.274
19644W        W92712  16.004  13.462  14.375
19645W        W92713  17.290  30.743  13.137
19646W        W92714  40.903  41.335   1.771
19647W        W92715  31.542  26.248   0.586
19648W        W92716  18.038  19.102  10.746
19649W        W92717  19.075  11.752  13.453
19650W        W92718  13.197  22.091   0.372
19651W        W92719   2.393  36.438   2.438
19652W        W92720  24.550  20.823   3.053
19653W        W92721   4.233  34.066   3.375
19654W        W92722   6.699  12.398   3.370
19655W        W92723  25.083  10.678  14.127
19656W        W92724   0.140  25.978  14.953
19657W        W92725  26.201  30.125  11.635
19658W        W92726   1.277  30.154  14.387
19659W        W92727  18.382   0.287  11.490
19660W        W92728  13.254  19.240  13.047
19661W        W92729  32.141  29.122  11.579
19662W        W92730  43.295  14.221  10.807
19663W        W92731  11.861  31.969   0.712
19664W        W92732  41.371  16.672  10.986
19665W        W92733  18.565  36.992  11.919
19666W        W92734  42.468  42.491   4.610
19667W        W92735  28.917   8.617   5.083
19668W        W92736  27.573  11.868   1.786
19669W        W92737  44.245  37.921  10.493
19670W        W92738  12.593  39.011   3.148
19671W        W92739  11.772  25.574   1.438
19672W        W92740  19.270  26.706   4.539
19673W        W92741  10.741  13.641  12.608
19674W        W92742   5.229   8.330  12.790
19675W        W92743  39.940   2.288   9.876
19676W        W92744  11.552  43.239   0.909
19677W        W92745  13.729  28.459   1.555
19678W        W92746  42.127  23.645  12.995
19679W        W92747  28.405  21.201  12.872
19680W        W92748  27.668  44.226  12.007
19681W        W92749  35.047  26.128  12.388
19682W        W92750  41.338   6.114   5.519
19683W        W92751  17.020  17.663  11.136
19684W        W92752  17.119  18.468  10.938
19685W        W92753  29.559  32.528  10.344
19686W        W92754  21.467   5.490   3.021
19687W        W92755  37.637  26.770   3.343
19688W        W92756  13.203   3.849  12.072
19689W        W92757  14.397  22.260  12.805
19690W        W92758  42.005  27.964  14.225
19691W        W92759  22.635  17.857  11.217
19692W        W92760  19.470   5.257  12.894
19693W        W92761  40.093   5.679   1.432
19694W        W92762  23.983  35.523  11.506
19695W        W92763  36.809  42.211   3.676
19696W        W92764   3.478  25.596  10.636
19697W        W92765  43.823  13.419  12.904
19698W        W92766  13.077  36.395  11.090
19699W        W92767  16.243  17.469  14.419
19700W        W92768  23.384  28.085  13.576
19701W        W92769  12.606   9.313  10.593
19702W        W92770  36.783   8.414   2.866
19703W        W92771  20.242   0.599   4.800
19704W        W92772  30.170   2.247   4.567
19705W        W92773  35.571   9.964   1.869
19706W        W92774  41.385   4.711  11.089
19707W        W92775  44.905  32.975   1.634
19708W        W92776  42.523   5.287  14.405
19709W        W92777  26.675  43.756   2.173
19710W        W92778   2.991   3.357   1.269
19711W        W92779  37.458  43.464  11.101
19712W        W92780  17.341  35.854   1.274
19713W        W92781   3.277  15.456  12.879
19714W        W92782  31.597  37.244  12.523
19715W        W92783   6.397  39.486   3.005
19716W        W92784  38.916  17.303   0.633
19717W        W92785   4.777  35.306  12.499
19718W        W92786  18.205   4.771   2.548
19719W        W92787  16.098  40.076   0.829
19720W        W92788  29.960  13.565   4.330
19721W        W92789  18.962   2.542  14.335
19722W        W92790  13.793  30.690  11.544
19723W        W92791   5.808  17.502  11.688
19724W        W92792   9.085  35.850   1.840
19725W        W92793   0.163  22.945  14.223
19726W        W92794  41.700  19.330   0.376
19727W        W92795  41.727  30.653   1.784
19728W        W92796   9.142  33.770   4.232
19729W        W92797  29.967  24.265   1.956
19730W        W92798   2.759  35.626  13.897
19731W        W92799  31.046  44.793  14.828
19732W        W92800  39.598  39.511  13.040
19733W        W92801  42.118  29.230  13.922
19734W        W92802  22.567  13.525   4.198
19735W        W92803  40.614  29.190   2.740
19736W        W92804  40.392  24.154   3.092
19737W        W92805  36.098  44.847   0.759
19738W        W92806   3.173   8.290   3.941
19739W        W92807  38.929   2.440   4.563
19740W        W92808  38.077  29.699   1.972
19741W        W92809   7.768   2.235   0.539
19742W        W92810  16.909  10.419   3.684
19743W        W92811  43.325  13.359   3.286
19744W        W92812   0.904  38.622   0.525
19745W        W92813  34.941  42.420  14.904
19746W        W92814  12.715   7.734  12.543
19747W        W92815   9.545   2.398   0.182
19748W        W92816  14.123  30.362  10.666
19749W        W92817  26.015  28.177  14.739
19750W        W92818   5.907  16.686  10.775
19751W        W92819  13.367  38.963   3.599
19752W        W92820  20.721  23.734  10.488
19753W        W92821   3.962  14.682   1.892
19754W        W92822  32.374  30.616   5.037
19755W        W92823  17.027  44.785  14.941
19756W        W92824  17.845  43.024   0.188
19757W        W92825   2.283   5.745  12.907
19758W        W92826  30.440   4.230   0.929
19759W        W92827  12.133  44.056  14.284
19760W        W92828   7.440  10.676  14.359
19761W        W92829  31.503  43.801  11.510
19762W        W92830  41.851  17.346   1.281
19763W        W92831  37.761  24.980   3.354
19764W        W92832  37.957  25.084   1.773
19765W        W92833  18.375  28.245  13.902
19766W        W92834   2.078  29.371   3.191
19767W        W92835   1.975  27.623  13.435
19768W        W92836  23.644  21.088  14.318
19769W        W92837  41.035  37.271  13.612
19770W        W92838  13.141  22.295   1.446
19771W        W92839   0.642   6.363   0.644
19772W        W92840   6.770   9.246  11.156
19773W        W92841  18.658  20.314   1.817
19774W        W92842  19.952  33.581  12.427
19775W        W92843  19.943  25.076  10.708
19776W        W92844  15.179  44.883   2.755
19777W        W92845   0.467  33.347  14.925
19778W        W92846  25.517  30.454  12.593
19779W        W92847  31.884  22.545   4.138
19780W        W92848  22.954   2.905   2.646
19781W        W92849  20.506  29.503  10.652
19782W        W92850  20.562  25.065  12.514
19783W        W92851  16.690  27.432  11.039
19784W        W92852  30.405  37.835   0.788
19785W        W92853  15.300   2.176  13.882
19786W        W92854  29.018  16.624   0.891
19787W        W92855  13.241   7.714   4.702
19788W        W92856   8.651  40.620   4.171
19789W        W92857  22.237   9.436   1.340
19790W        W92858   1.655  16.394   3.789
19791W        W92859  33.969  29.805  11.572
19792W        W92860  44.225  28.408  11.180
19793W        W92861  23.302   7.205  11.403
19794W        W92862  12.568  34.897  13.853
19795W        W92863  42.387  42.052  13.064
19796W        W92864  38.395   4.641   2.103
19797W        W92865  40.883   8.245   0.473
19798W        W92866  41.419  11.486   0.885
19799W        W92867  15.303   8.253   4.457
19800W        W92868  18.246   9.320   4.490
19801W        W92869  14.368  36.546   2.934
19802W        W92870  19.853   6.246  11.163
19803W        W92871  29.653   7.437  12.655
19804W        W92872  17.145  11.737  14.764
19805W        W92873  44.458  20.487  13.818
19806W        W92874  14.601  21.170   2.196
19807W        W92875   8.915  37.633   2.713
19808W        W92876  34.073  32.715  12.035
19809W        W92877   1.705   1.824   2.298
19810W        W92878  30.615   6.822  10.692
19811W        W92879  40.803  26.202  10.652
19812W        W92880  33.279  38.093  14.393
19813W        W92881   3.954  18.557   1.804
19814W        W92882   6.265   6.150   4.611
19815W        W92883  21.991  11.774   3.401
19816W        W92884   0.137  34.022   0.435
19817W        W92885   3.650  14.074   0.421
19818W        W92886  21.261   1.014  11.049
19819W        W92887  42.037  36.048  14.352
19820W        W92888  25.965   9.188  12.531
19821W        W92889  15.802  16.100   2.876
19822W        W92890  44.419  22.956  14.788
19823W        W92891  34.008   1.974  13.261
19824W        W92892  13.962  44.704   4.579
19825W        W92893  44.707  16.308   0.429
19826W        W92894  15.574  13.241  12.282
19827W        W92895  31.697  40.371  10.689
19828W        W92896   4.919  18.854  12.898
19829W        W92897  27.495   8.649  11.933
19830W        W92898  38.860  21.798   1.924
19831W        W92899  26.213  39.564  10.146
19832W        W92900  38.464  27.130   1.012
19833W        W92901  11.409  40.396   3.209
19834W        W92902  19.553   3.504   1.494
19835W        W92903  12.051  44.858   3.683
19836W        W92904  14.434  16.661  12.222
19837W        W92905   4.536  32.878   0.243
19838W        W92906  27.246  25.690  10.772
19839W        W92907   2.794  26.888  11.656
19840W        W92908   8.692  23.974   1.243
19841W        W92909   3.165  27.704   0.901
19842W        W92910   8.261   3.170  12.993
19843W        W92911  33.578  16.343   1.748
19844W        W92912  21.311   8.508  12.320
19845W        W92913  33.551   0.491   0.062
19846W        W92914   3.754  33.646  14.571
19847W        W92915  40.960  34.955   4.428
19848W        W92916  36.976   7.758   2.852
19849W        W92917  21.547  22.481  10.760
19850W        W92918  44.919  14.908  13.011
19851W        W92919  23.473  15.329   3.503
19852W        W92920  19.274  31.531  12.539
19853W        W92921  36.971  42.852   1.071
19854W        W92922  25.622  10.782   4.272
19855W        W92923  15.557  36.628  13.462
19856W        W92924  12.190  36.874   4.698
19857W        W92925   3.982  30.927  13.364
19858W        W92926  24.433  29.517   3.736
19859W        W92927  16.746  28.664   4.637
19860W        W92928  39.128  34.039   1.313
19861W        W92929  10.340  42.890   2.856
19862W        W92930  39.485  20.147   4.271
19863W        W92931  16.750  43.351   2.735
19864W        W92932  25.256  13.561  11.485
19865W        W92933  23.921  39.250  14.959
19866W        W92934  21.773  21.453   3.816
19867W        W92935   2.356  21.828  12.688
19868W        W92936   6.927  37.188   4.521
19869W        W92937   2.401  15.128  10.623
19870W        W92938  12.335   8.150  14.990
19871W        W92939   3.350   8.257   2.204
19872W        W92940  36.052  38.273  12.827
19873W        W92941  13.138   4.363   0.498
19874W        W92942   0.961   4.348   1.382
19875W        W92943  40.910  26.859  14.364
19876W        W92944  18.358  15.127  11.349
19877W        W92945   3.842  18.851  13.741
19878W        W92946   1.918  34.660   3.262
19879W        W92947  22.212   4.884  10.648
19880W        W92948   0.202   1.423  13.424
19881W        W92949  13.873  40.447  14.289
19882W        W92950  32.888  35.999  10.823
19883W        W92951  28.619   7.903   1.850
19884W        W92952  43.496  44.284  10.626
19885W        W92953  44.174  23.475   0.819
19886W        W92954  21.218   3.874  11.111
19887W        W92955   9.612   7.902  14.488
19888W        W92956  36.427  28.155   1.970
19889W        W92957  18.733  42.340  14.891
19890W        W92958  41.763  40.933   3.108
19891W        W92959  19.567  31.117   1.419
19892W        W92960   3.828  40.036   1.870
19893W        W92961  16.040  37.437   4.493
19894W        W92962  30.070  23.292  12.392
19895W        W92963  27.164   8.273   0.264
19896W        W92964  19.307  20.601   3.811
19897W        W92965   0.446   5.741   1.790
19898W        W92966  32.565   8.485   3.785
19899W        W92967  25.705  13.196   1.367
19900W        W92968  44.949  37.768  11.475
19901W        W92969  16.562  38.606   3.250
19902W        W92970  24.153  19.519   2.380
19903W        W92971  28.703   7.442   1.238
19904W        W92972  16.304  21.893  14.920
19905W        W92973   8.342  38.534   1.003
19906W        W92974  41.439   1.915   3.139
19907W        W92975  24.022  17.872   1.466
19908W        W92976  21.174  33.530  10.902
19909W        W92977   1.917   7.687  13.298
19910W        W92978  44.355  10.381   1.138
19911W        W92979  38.706  19.737  14.939
19912W        W92980  19.012  11.872  12.547
19913W        W92981   3.249  23.107  13.352
19914W        W92982   6.672  14.295  14.384
19915W        W92983  41.265   0.765   2.977
19916W        W92984  39.103  38.012  10.910
19917W        W92985  33.145  38.971   1.268
19918W        W92986  44.839  44.222  13.246
19919W        W92987  40.404   9.723   3.478
19920W        W92988  32.029  40.014   4.603
19921W        W92989   0.384  37.936  13.105
19922W        W92990  19.019  22.106  11.993
19923W        W92991  38.575   5.767  10.208
19924W        W92992  40.502  25.862  10.971
19925W        W92993   1.270  34.924   1.679
19926W        W92994  32.475   9.942   3.664
19927W        W92995  36.097   5.405   0.436
19928W        W92996  21.753   3.815  11.234
19929W        W92997   8.273  44.453  10.850
19930W        W92998   8.252  14.275  11.812
19931W        W92999  28.973   7.366  11.052
19932W        W93000   1.495   1.475   1.949
19933W        W93001  43.537   0.482   4.913
19934W        W93002  18.264  29.468  11.643
19935W        W93003  19.413  21.049  12.556
19936W        W93004  43.782   5.565  11.512
19937W        W93005  31.900   8.850   3.231
19938W        W93006  38.499  33.530  11.139
19939W        W93007   2.022  42.842   4.197
19940W        W93008  39.374  20.656  11.431
19941W        W93009  23.113  31.579   4.394
19942W        W93010  38.641   1.392  12.408
19943W        W93011  28.152  21.024   4.631
19944W        W93012  44.772  21.618   3.667
19945W        W93013   4.149  37.940  10.665
19946W        W93014  35.989   2.217   3.840
19947W        W93015   1.029  28.568   0.991
19948W        W93016  27.959   1.802   4.261
19949W        W93017   9.403  16.059  14.813
19950W        W93018  14.800  44.779   4.880
19951W        W93019  21.594  31.511   2.426
19952W        W93020  30.401  41.505   2.266
19953W        W93021   5.857   8.099   0.652
19954W        W93022  39.048  32.453  11.045
19955W        W93023  23.962  24.751   3.234
19956W        W93024  36.619  22.295  14.440
19957W        W93025  43.058   9.150  14.448
19958W        W93026  10.830  10.245   2.353
19959W        W93027  19.565  34.086  12.331
19960W        W93028  34.617  42.330   2.812
19961W        W93029   3.428  42.805  11.406
19962W        W93030  10.314   8.929  12.065
19963W        W93031  28.491  33.590   2.761
19964W        W93032   4.164  42.451   1.133
19965W        W93033  40.833  15.658   0.333
19966W        W93034   5.858   3.515   4.354
19967W        W93035  24.484  25.987   4.645
19968W        W93036  38.476  20.823  11.629
19969W        W93037   7.664   1.937  11.997
19970W        W93038  10.658  15.656   2.674
19971W        W93039  29.221  38.409   1.247
19972W        W93040  11.410  16.607  11.915
19973W        W93041  35.971  14.221   1.352
19974W        W93042  20.272   8.242   3.668
19975W        W93043   0.344  38.056   2.598
19976W        W93044  19.040  16.248  13.490
19977W        W93045  14.835   8.097   2.165
19978W        W93046  41.942   0.335  14.387
19979W        W93047   7.764  25.445  10.416
19980W        W93048   9.624  36.564  10.496
19981W        W93049  21.122  37.585   2.728
19982W        W93050  37.739   8.932   4.298
19983W        W93051  23.175  39.673   2.400
19984W        W93052  28.884  28.645   1.394
19985W        W93053   1.525   8.188  14.488
19986W        W93054   6.285  21.325  14.824
19987W        W93055  17.122  40.941   4.241
19988W        W93056   5.810  25.515  10.581
19989W        W93057   4.998  16.524   0.030
19990W        W93058  39.845  12.314   4.571
19991W        W93059  18.123  15.179   1.016
19992W        W93060  11.716   1.918  12.515
19993W        W93061  18.608  18.207  13.999
19994W        W93062  28.075  34.168  11.025
19995W        W93063  11.224  42.842   3.849
19996W        W93064  39.527  14.812   0.562
19997W        W93065  23.011   7.010  10.614
19998W        W93066  23.084  37.902  12.814
19999W        W93067  40.569   5.876  11.159
20000W        W93068   3.314   7.715  14.754
20001W        W93069  18.148  40.910   4.277
20002W        W93070   4.397  20.822  13.216
20003W        W93071  42.982  37.455  13.841
20004W        W93072  33.945  41.735  14.746
20005W        W93073   2.927   2.257  13.424
20006W        W93074  18.015  29.428   3.752
20007W        W93075  26.857  16.944  12.627
20008W        W93076  35.304  41.365   3.564
20009W        W93077  20.704  11.651  12.047
20010W        W93078   5.411  21.009   2.186
20011W        W93079  39.612  40.329   1.712
20012W        W93080   7.053  14.798   4.789
20013W        W93081   0.784   3.430  11.202
20014W        W93082  42.243  37.336  14.571
20015W        W93083   9.928   0.785   3.710
20016W        W93084  40.412   3.385  12.439
20017W        W93085  39.531  42.903   2.224
20018W        W93086  26.748  25.784   4.146
20019W        W93087   9.160  25.934  12.954
20020W        W93088  13.373  34.095   4.093
20021W        W93089  35.599  30.695  14.432
20022W        W93090  35.346  10.540   4.632
20023W        W93091   1.443  26.976  11.962
20024W        W93092  13.588  18.615   5.024
20025W        W93093  17.365  42.830   0.272
20026W        W93094  23.038  15.572   2.274
20027W        W93095  25.181  23.777   3.360
20028W        W93096  36.999  26.558  14.018
20029W        W93097  23.801   6.677  11.915
20030W        W93098  22.674  44.240  14.016
20031W        W93099  26.233  44.839  14.335
20032W        W93100  25.585   0.653   3.210
20033W        W93101  33.462  41.365  10.548
20034W        W93102  21.610  16.042  10.707
20035W        W93103  19.699  41.850  13.025
20036W        W93104  30.834  12.617  11.082
20037W        W93105  21.968  11.648  13.426
20038W        W93106  37.004   3.187  13.421
20039W        W93107  26.582  20.037  13.489
20040W        W93108   8.366  26.340  13.521
20041W        W93109   8.227   2.368   1.689
20042W        W93110  40.356  27.631   1.324
20043W        W93111  30.248  35.838   2.165
20044W        W93112  37.786  38.433  14.946
20045W        W93113  31.578  15.334  11.841
20046W        W93114  25.564   8.069  12.508
20047W        W93115  36.815  44.389   1.121
20048W        W93116  16.535   6.587   0.845
20049W        W93117  35.322  42.618   4.538
20050W        W93118  43.787  17.199  11.616
20051W        W93119  34.028  18.636   0.815
20052W        W93120   0.929  16.802   2.169
20053W        W93121   0.411   9.211  13.429
20054W        W93122  14.844  31.528  10.973
20055W        W93123  20.347  12.401   3.176
20056W        W93124   3.943  35.043   1.885
20057W        W93125   1.189  31.703  11.148
20058W        W93126  24.481  32.185   1.828
20059W        W93127  22.107  13.791  11.183
20060W        W93128  16.546   0.957  12.586
20061W        W93129  37.915  29.073   0.717
20062W        W93130  40.913  27.186   4.208
20063W        W93131  23.302  31.205  13.892
20064W        W93132   1.336  32.902   1.715
20065W        W93133  31.078  12.526  13.498
20066W        W93134   3.266  12.680   0.998
20067W        W93135  23.213  11.698   4.129
20068W        W93136  41.041  40.965   1.410
20069W        W93137  23.198  41.480  14.398
20070W        W93138  17.298  25.457   3.899
20071W        W93139   2.782  35.490  12.915
20072W        W93140   2.635  25.807  13.291
20073W        W93141  39.542  35.877   1.181
20074W        W93142  19.136   3.915  11.831
20075W        W93143   3.949   8.635   3.737
20076W        W93144   8.684  15.176  10.464
20077W        W93145   1.342   6.332  13.394
20078W        W93146   0.050  29.307  13.517
20079W        W93147  25.506  11.414  12.072
20080W        W93148   0.921  43.220   3.212
20081W        W93149  34.945  39.095  12.421
20082W        W93150  24.550  37.232   3.737
20083W        W93151  13.181  38.442  13.527
20084W        W93152  31.176  10.623  11.923
20085W        W93153  29.053  26.332  12.558
20086W        W93154  20.210  38.834   3.806
20087W        W93155  42.243   5.327  13.951
20088W        W93156  32.161   0.362  11.077
20089W        W93157  33.529  36.959  13.485
20090W        W93158  36.419   0.873  11.186
20091W        W93159  33.663  36.026  13.024
20092W        W93160  43.040  16.425   1.817
20093W        W93161  40.524  40.800  13.427
20094W        W93162  30.183  28.532   1.614
20095W        W93163   4.120   3.894   3.774
20096W        W93164   2.927  17.160  13.329
20097W        W93165  35.072   2.862  11.990
20098W        W93166  15.442  18.191  13.607
20099W        W93167   0.441   2.346  11.202
20100W        W93168  20.482   3.115   4.464
20101W        W93169  35.857   1.946  12.990
20102W        W93170  25.984   7.965  14.417
20103W        W93171  22.185   8.848   2.200
20104W        W93172  15.420  43.474   1.694
20105W        W93173  37.348  42.502   2.293
20106W        W93174  39.991  35.467  14.770
20107W        W93175   2.678  41.384   0.693
20108W        W93176   8.749   7.086   2.301
20109W        W93177  44.874  10.417  14.013
20110W        W93178  34.164  33.088  12.380
20111W        W93179  18.747   1.161   0.962
20112W        W93180  33.713  42.832  13.000
20113W        W93181  37.903  21.606   4.151
20114W        W93182  25.143  24.629  10.631
20115W        W93183  30.521   7.423   2.742
20116W        W93184   0.202   4.344   1.664
20117W        W93185  25.725   4.856  12.841
20118W        W93186  13.806  14.035  12.584
20119W        W93187  44.840  19.724  14.191
20120W        W93188  36.799   9.286   2.677
20121W        W93189  39.858  21.243   3.586
20122W        W93190  28.764  35.834   1.763
20123W        W93191  44.572  26.986   4.259
20124W        W93192  15.476  11.757   4.604
20125W        W93193  19.316  22.772  11.751
20126W        W93194  23.745  37.053  13.462
20127W        W93195  19.111   4.813  14.274
20128W        W93196  24.638  39.572  11.731
20129W        W93197   5.385  10.776  11.948
20130W        W93198  38.760  13.726   2.744
20131W        W93199  29.193  28.784   4.174
20132W        W93200  19.787   7.579   2.800
20133W        W93201  40.291  39.347  14.365
20134W        W93202  18.300  31.871  10.475
20135W        W93203  27.501  17.727  11.394
20136W        W93204  17.103   2.042   3.278
20137W        W93205  28.502  14.646  13.975
20138W        W93206  41.572  30.432  14.565
20139W        W93207  38.965  30.608   4.296
20140W        W93208  38.802  19.314   0.260
20141W        W93209  34.609  31.471   3.177
20142W        W93210  32.474   4.109  14.741
20143W        W93211  33.458  15.758   4.985
20144W        W93212  16.737  20.498   1.200
20145W        W93213   6.176  43.574  14.542
20146W        W93214  13.784  43.832   3.260
20147W        W93215  30.897   7.204   4.211
20148W        W93216  31.128  20.091   4.890
20149W        W93217  20.351   0.356   3.822
20150W        W93218  22.775  29.068  14.906
20151W        W93219  14.109  17.753  13.526
20152W        W93220  38.241  31.103  11.723
20153W        W93221  12.882   5.445   0.799
20154W        W93222   7.700  43.910   0.983
20155W        W93223   0.414  43.537  13.116
20156W        W93224  18.797  39.825  14.378
20157W        W93225  19.158  26.061   4.222
20158W        W93226  21.737  30.135   4.076
20159W        W93227  43.534  39.778  11.476
20160W        W93228   4.809  34.798  12.385
20161W        W93229  39.077  31.134  13.742
20162W        W93230  41.322  33.414  11.581
20163W        W93231  37.486  22.996  11.967
20164W        W93232  28.043   8.896   4.094
20165W        W93233  41.753  44.299   2.007
20166W        W93234  15.543  26.118  11.867
20167W        W93235  41.435   1.483  11.153
20168W        W93236  16.801   5.357  14.752
20169W        W93237   8.404  14.710   4.015
20170W        W93238  43.456  15.819  11.384
20171W        W93239   8.072  41.692   2.809
20172W        W93240  29.676  41.326  11.104
20173W        W93241   7.845  35.392   1.688
20174W        W93242  28.569  36.957   1.412
20175W        W93243  12.201  14.802  14.327
20176W        W93244  27.768   7.506   0.914
20177W        W93245   8.236  12.788   1.932
20178W        W93246  17.311  31.841  14.131
20179W        W93247  17.085  17.098   5.074
20180W        W93248  35.340  14.343  12.115
20181W        W93249   5.689  15.790   0.482
20182W        W93250  40.680  42.049  13.576
20183W        W93251  36.616  34.661   4.618
20184W        W93252  28.352  44.820   4.610
20185W        W93253  10.354  17.280  11.205
20186W        W93254  17.107   3.803   1.293
20187W        W93255   9.844  27.757   0.722
20188W        W93256   4.715  33.492   1.758
20189W        W93257   1.830  24.064   4.564
20190W        W93258   2.787  37.591   1.693
20191W        W93259  25.765  18.126   1.822
20192W        W93260  37.536   6.763   2.189
20193W        W93261  18.728  35.989  14.654
20194W        W93262  12.358   2.370  14.935
20195W        W93263  28.809  10.220  12.135
20196W        W93264  30.090   9.750   4.060
20197W        W93265  41.907  34.629  13.778
20198W        W93266  41.546  29.505  13.285
20199W        W93267  19.399  17.171   2.409
20200W        W93268  27.505   7.593   0.433
20201W        W93269  39.900  16.741  12.404
20202W        W93270  25.126  21.141  11.813
20203W        W93271  41.532   4.658  13.954
20204W        W93272  26.024   8.351   2.343
20205W        W93273  42.543  38.815   0.311
20206W        W93274  13.904  17.433  11.892
20207W        W93275   2.919  22.207   3.700
20208W        W93276  16.144  28.552   1.778
20209W        W93277  21.151  41.842   0.936
20210W        W93278   6.313  42.706   2.676
20211W        W93279   3.617  40.490   2.763
20212W        W93280   4.926  27.616   3.297
20213W        W93281  19.104   1.453  10.641
20214W        W93282  29.595   4.336  13.611
20215W        W93283  43.355   1.306   0.836
20216W        W93284  34.981  28.410  10.003
20217W        W93285  35.545  15.314   2.314
20218W        W93286  43.191  44.007  13.909
20219W        W93287  10.233  25.622  13.782
20220W        W93288  14.719  35.638  10.626
20221W        W93289  23.229  13.732  13.082
20222W        W93290  19.469  36.934  13.948
20223W        W93291  26.583  15.769  14.746
20224W        W93292   8.686   2.400   2.471
20225W        W93293  24.604   2.739   2.360
20226W        W93294  16.965  37.337  14.531
20227W        W93295   7.919   1.356   1.406
20228W        W93296  20.223  26.626  10.692
20229W        W93297  22.035  19.453  12.542
20230W        W93298  33.495  13.066  10.802
20231W        W93299  18.885  39.400  12.353
20232W        W93300  31.167  28.345   1.632
20233W        W93301  14.641  13.127  13.883
20234W        W93302  37.425  35.328  11.128
20235W        W93303  11.740  12.137  14.407
20236W        W93304  12.876  36.831   1.637
20237W        W93305   1.743  13.697  11.507
20238W        W93306  38.500   1.960  14.001
20239W        W93307  39.808   6.710  13.346
20240W        W93308  42.660  44.036  13.967
20241W        W93309  42.505   4.382   4.662
20242W        W93310  20.232  36.513   4.924
20243W        W93311   1.448  40.926   0.964
20244W        W93312  12.523  25.707  10.685
20245W        W93313  30.918  22.942  11.902
20246W        W93314   6.848   7.877  14.840
20247W        W93315  40.368  10.696  12.561
20248W        W93316   6.728  38.086  12.061
20249W        W93317   2.316  26.115   2.370
20250W        W93318  25.037  13.549  14.470
20251W        W93319  14.344   5.917   0.920
20252W        W93320  12.666   8.598  11.033
20253W        W93321  25.974  23.792   3.000
20254W        W93322  14.053  33.409   4.167
20255W        W93323  13.192  43.535   1.820
20256W        W93324   4.425   6.870   1.539
20257W        W93325   1.191  31.590   2.828
20258W        W93326  28.590  25.668   0.665
20259W        W93327  31.660   1.823  13.099
20260W        W93328  11.637  13.069  14.286
20261W        W93329   1.082  25.176  10.273
20262W        W93330  20.235  42.840   4.182
20263W        W93331   2.133  42.608  12.824
20264W        W93332  19.978   5.347  12.976
20265W        W93333  24.173   9.740  14.881
20266W        W93334   3.060  19.468  13.810
20267W        W93335   1.322  44.339   4.968
20268W        W93336  30.303  24.281   4.725
20269W        W93337  14.093  38.864   1.457
20270W        W93338  33.259   4.242   3.263
20271W        W93339  20.323   3.178   3.774
20272W        W93340   0.238  31.518   2.470
20273W        W93341  39.638   7.398   1.003
20274W        W93342  20.051  20.161   0.318
20275W        W93343  11.529  19.797   1.796
20276W        W93344  39.297  42.964   3.620
20277W        W93345  19.293   1.660  11.990
20278W        W93346   6.788  38.085   1.338
20279W        W93347   9.820  22.216   1.668
20280W        W93348  20.275  43.566  14.901
20281W        W93349  33.973  15.280   2.207
20282W        W93350   0.320  39.792  11.146
20283W        W93351  20.356  36.591  11.993
20284W        W93352  26.197  24.308  11.324
20285W        W93353  17.701  25.771   4.320
20286W        W93354  31.611  43.279   0.890
20287W        W93355  28.461  39.598   2.681
20288W        W93356  25.862  28.246  12.874
20289W        W93357  22.780  23.461   1.311
20290W        W93358  11.529  14.311  10.681
20291W        W93359   6.606   6.730  13.579
20292W        W93360  25.980  39.566  11.554
20293W        W93361  43.774  12.202   3.906
20294W        W93362   2.019  33.567  10.504
20295W        W93363  37.307   9.775  14.434
20296W        W93364   1.514  40.984   0.421
20297W        W93365  11.184   0.470  13.899
20298W        W93366  38.486  40.820  10.714
20299W        W93367  22.068  12.358   2.747
20300W        W93368   0.707  10.730  13.405
20301W        W93369   4.357  21.507   3.208
20302W        W93370  33.529   3.234   3.083
20303W        W93371  31.945   7.929  14.035
20304W        W93372  23.186   0.719   0.959
20305W        W93373  35.317  12.311  14.826
20306W        W93374  25.456  23.235  12.924
20307W        W93375  37.916  26.577   1.264
20308W        W93376  39.066  42.025  14.399
20309W        W93377  39.017  38.804   3.776
20310W        W93378  16.905   6.682   3.693
20311W        W93379  37.057   3.310  11.209
20312W        W93380  36.115   6.789   1.499
20313W        W93381  29.537  18.086   3.075
20314W        W93382  39.346  44.038   0.501
20315W        W93383  11.652  21.410  12.023
20316W        W93384  10.247  29.261  12.897
20317W        W93385  41.074   6.442   0.025
20318W        W93386  18.191  28.500   2.379
20319W        W93387  24.222   5.776   0.688
20320W        W93388  34.985   0.904   3.382
20321W        W93389  12.940   6.381   3.885
20322W        W93390   0.928  31.327   3.198
20323W        W93391   0.021  37.614  14.013
20324W        W93392  30.177  25.503  13.843
20325W        W93393   0.209   3.883   0.289
20326W        W93394  27.888  37.505   0.205
20327W        W93395  16.796   4.198   3.651
20328W        W93396  42.489   1.840  11.521
20329W        W93397  18.554  29.057  10.760
20330W        W93398  38.984  15.834   1.793
20331W        W93399  35.350  25.240  11.992
20332W        W93400  20.799  31.909  13.847
20333W        W93401  13.240   8.197  14.788
20334W        W93402   7.185  17.804   0.460
20335W        W93403  40.202   9.854   0.333
20336W        W93404   9.436   0.786  13.893
20337W        W93405  35.133   5.966  12.889
20338W        W93406  18.181   2.034  11.507
20339W        W93407  21.286  23.839  11.553
20340W        W93408   3.323  37.947   3.390
20341W        W93409  21.773  38.204   4.206
20342W        W93410   2.868   8.906   4.353
20343W        W93411  39.830  39.240  14.589
20344W        W93412  27.190  31.913   2.838
20345W        W93413  14.250   9.393  12.906
20346W        W93414  22.064  43.315   4.675
20347W        W93415  35.122  31.498   3.154
20348W        W93416  17.711  10.486   2.227
20349W        W93417   2.875  20.189   0.302
20350W        W93418   6.333   7.382   0.424
20351W        W93419  16.181  16.978   3.243
20352W        W93420  13.196  22.614  14.055
20353W        W93421  33.614  43.751  12.109
20354W        W93422  23.206  15.228  14.337
20355W        W93423  35.678  24.588   1.804
20356W        W93424  29.385  11.839  12.117
20357W        W93425   7.502  16.807   1.755
20358W        W93426  15.718  38.646   2.847
20359W        W93427  42.090  38.591  10.974
20360W        W93428  15.699  36.082   4.785
20361W        W93429   9.625  40.269  13.507
20362W        W93430   5.707  33.881   4.644
20363W        W93431  10.831   8.374   0.626
20364W        W93432  39.387  34.404   4.977
20365W        W93433  40.375  38.771  13.442
20366W        W93434  22.281  34.332  11.512
20367W        W93435   6.422  30.079   1.812
20368W        W93436   1.778  29.330   4.076
20369W        W93437  26.244  21.671   2.213
20370W        W93438  37.954   1.057   4.987
20371W        W93439  40.363   8.244   4.575
20372W        W93440  26.558  17.509  14.362
20373W        W93441  18.548  38.455  14.348
20374W        W93442  33.813   1.768  11.886
20375W        W93443  18.234  12.688   1.318
20376W        W93444  21.368  12.672   2.511
20377W        W93445  16.120  13.348  14.894
20378W        W93446   4.644   1.245  12.403
20379W        W93447  23.939  32.836   2.780
20380W        W93448  11.165  20.567   3.642
20381W        W93449  17.064  38.056   0.317
20382W        W93450   5.324  37.083  11.086
20383W        W93451  21.044  37.007   4.233
20384W        W93452  44.494  11.288  13.336
20385W        W93453   7.982  27.485   0.415
20386W        W93454  44.142  10.973  11.291
20387W        W93455  23.329  26.006   1.268
20388W        W93456  31.262  40.994  10.985
20389W        W93457   5.201  30.171   2.251
20390W        W93458  32.314   6.167   3.288
20391W        W93459  21.154  15.121  10.566
20392W        W93460  28.209  41.555  12.665
20393W        W93461   7.098   5.943  11.532
20394W        W93462  27.437  31.013  13.358
20395W        W93463  32.924  30.882   1.324
20396W        W93464   6.471   0.217  11.452
20397W        W93465   7.614  28.435  14.471
20398W        W93466   2.967  20.073   3.809
20399W        W93467  34.333  37.449  11.901
20400W        W93468  38.263  22.367   3.116
20401W        W93469   0.869  39.016   4.028
20402W        W93470  43.829  34.984   4.579
20403W        W93471   0.554  10.792   3.193
20404W        W93472   8.266  43.593  12.126
20405W        W93473   2.674  31.628   0.340
20406W        W93474   9.343  28.132   3.176
20407W        W93475   2.354  23.641  11.996
20408W        W93476  39.488   2.613  13.674
20409W        W93477  11.395  17.226  11.557
20410W        W93478   3.301  15.379   4.298
20411W        W93479   8.087   3.905   3.353
20412W        W93480  29.118  12.012  13.393
20413W        W93481  13.890  42.001   3.241
20414W        W93482  30.646   3.935  12.357
20415W        W93483  33.614  26.153   0.352
20416W        W93484  16.607  36.415   1.958
20417W        W93485  29.217  26.676   3.627
20418W        W93486  38.976  20.173   3.844
20419W        W93487   5.794   3.738  13.839
20420W        W93488  19.875   4.312  10.698
20421W        W93489  28.606  44.003   3.303
20422W        W93490  33.492  26.565   4.119
20423W        W93491  12.829  31.918   0.493
20424W        W93492  14.560  11.349  14.336
20425W        W93493  44.529  42.467   0.781
20426W        W93494  25.406  26.899   3.511
20427W        W93495   7.841  17.520   0.184
20428W        W93496  13.609  20.851   0.328
20429W        W93497  23.132   9.069   3.727
20430W        W93498   1.919  34.363   3.703
20431W        W93499  22.161  15.312   3.133
20432W        W93500  31.741   5.790  12.086
20433W        W93501  37.481  32.056   0.747
20434W        W93502  41.268  16.571   1.479
20435W        W93503  17.133  33.211   3.727
20436W        W93504  11.413   5.364   4.953
20437W        W93505  11.090  41.485  10.686
20438W        W93506  23.982   5.215  14.027
20439W        W93507  31.773  17.600  11.744
20440W        W93508  12.838   0.705  12.689
20441W        W93509  24.666  30.747   1.759
20442W        W93510   0.209   0.465   4.553
20443W        W93511  34.811   3.926   3.705
20444W        W93512  15.057  29.921  13.554
20445W        W93513  40.065  11.559   3.972
20446W        W93514   9.565  32.274  14.311
20447W        W93515  22.865  26.266  12.993
20448W        W93516  30.723  18.098   2.281
20449W        W93517   0.441  22.116  13.898
20450W        W93518   5.249  29.086  14.516
20451W        W93519  36.508  41.738  13.509
20452W        W93520  26.455  14.670  13.862
20453W        W93521  14.336  14.140  14.006
20454W        W93522  29.970   4.003  14.280
20455W        W93523  40.639  41.163   2.232
20456W        W93524  20.590  33.195  12.852
20457W        W93525  20.175  21.594   1.169
20458W        W93526  16.065  28.400   2.800
20459W        W93527  41.052   5.093  11.271
20460W        W93528  12.292  27.410   3.614
20461W        W93529  28.932   3.049   4.670
20462W        W93530  29.697   2.968  10.614
20463W        W93531  33.870  12.130   1.953
20464W        W93532  37.478   2.660   0.340
20465W        W93533  11.183  28.608   4.537
20466W        W93534  39.392  32.968  13.589
20467W        W93535   4.690   5.206   0.403
20468W        W93536  41.865  17.029  12.956
20469W        W93537  26.723  26.911   3.695
20470W        W93538   1.400  10.882   2.153
20471W        W93539   9.191  19.738  13.977
20472W        W93540  29.499  19.590  10.267
20473W        W93541  22.529  34.687   2.826
20474W        W93542   9.544  41.469   3.203
20475W        W93543  17.240   5.571  14.953
20476W        W93544  23.667  31.040   2.863
20477W        W93545  10.174  27.753   2.784
20478W        W93546   8.456  23.923   3.421
20479W        W93547  43.297  12.299   2.626
20480W        W93548  10.217  10.692  11.762
20481W        W93549  17.548  39.062  13.504
20482W        W93550  13.147  25.314  10.247
20483W        W93551  26.519  29.120  13.932
20484W        W93552  21.206  38.306  11.597
20485W        W93553  22.936  23.196   3.473
20486W        W93554  24.614  29.339   4.527
20487W        W93555  31.407  27.152   0.377
20488W        W93556  10.455  42.374   2.199
20489W        W93557   3.722  11.076  11.900
20490W        W93558  15.254  12.267   5.272
20491W        W93559  10.889  20.737  12.461
20492W        W93560  39.928  38.323   4.617
20493W        W93561  21.115  32.570   0.691
20494W        W93562   2.442  34.966  10.766
20495W        W93563   3.981  18.612   0.873
20496W        W93564   1.398  13.879  14.978
20497W        W93565  20.612  33.751  11.079
20498W        W93566   7.740   8.788   4.781
20499W        W93567   9.449  34.590  10.685
20500W        W93568   7.386  41.874   0.321
20501W        W93569  11.294  42.934  12.603
20502W        W93570  23.581  22.547   1.724
20503W        W93571   5.839  33.460   4.078
20504W        W93572   9.281  12.616  14.688
20505W        W93573  43.952  34.703   0.295
20506W        W93574  25.059  30.557   0.941
20507W        W93575  30.389   7.122  13.833
20508W        W93576  17.952   5.957   3.136
20509W        W93577  20.289   2.931  14.108
20510W        W93578  26.280   4.339   3.574
20511W        W93579   0.335  39.050   4.116
20512W        W93580   0.901  21.229   0.530
20513W        W93581   7.772   6.942   2.757
20514W        W93582  11.088  16.046  12.693
20515W        W93583  35.063   8.936  10.242
20516W        W93584  26.492  43.348  14.446
20517W        W93585  23.736  27.940  12.128
20518W        W93586  31.643  40.181  14.423
20519W        W93587  30.181  20.090  14.976
20520W        W93588  17.343  17.655  13.775
20521W        W93589  23.897  24.412   0.846
20522W        W93590  37.346   8.725   0.846
20523W        W93591  11.654  15.329  10.763
20524W        W93592   5.875  37.066   4.377
20525W        W93593  13.236  29.400  12.926
20526W        W93594   9.352  16.594   2.473
20527W        W93595  15.311  35.371   2.884
20528W        W93596   8.229  25.862  11.105
20529W        W93597   7.801  35.324   3.154
20530W        W93598  13.663  17.561  14.380
20531W        W93599   6.617  29.918   1.339
20532W        W93600  24.932   1.988   0.767
20533W        W93601  20.098  44.388  12.995
20534W        W93602  34.106  18.828  14.781
20535W        W93603  34.841   2.458   0.147
20536W        W93604  21.723  36.398  12.071
20537W        W93605  43.916  37.950  11.608
20538W        W93606  43.465  37.861   2.784
20539W        W93607  29.106  21.135   1.313
20540W        W93608  29.179   0.724  14.972
20541W        W93609  16.213  30.206  14.445
20542W        W93610   3.582  38.584  11.491
20543W        W93611  23.648  27.928   3.333
20544W        W93612  31.461  11.720   4.240
20545W        W93613  39.901  24.026   0.853
20546W        W93614  19.051  17.145   1.551
20547W        W93615  26.630  23.633   0.360
20548W        W93616  23.121  12.626   4.410
20549W        W93617  14.620  27.645  10.692
20550W        W93618  36.618  35.592  12.596
20551W        W93619  30.306  12.672  11.119
20552W        W93620  25.969  25.659   3.820
20553W        W93621  23.727   4.629   2.828
20554W        W93622  10.212  12.573   2.816
20555W        W93623  23.467   6.111   0.329
20556W        W93624  23.399  40.841  13.164
20557W        W93625  17.003  37.537   0.420
20558W        W93626  44.474  32.130  12.983
20559W        W93627  41.957  41.996   0.461
20560W        W93628  13.846  38.009  14.345
20561W        W93629   0.105   3.164  12.444
20562W        W93630  16.446  15.697   4.382
20563W        W93631   5.640  10.920  11.505
20564W        W93632  39.404  21.335  11.615
20565W        W93633  40.958  29.988   3.718
20566W        W93634   5.339  39.584  10.701
20567W        W93635  17.939   0.806   3.329
20568W        W93636  14.637   4.345  12.786
20569W        W93637  25.956  33.292   1.330
20570W        W93638  36.513   8.332  11.394
20571W        W93639   4.675  41.444   3.513
20572W        W93640  44.725  26.648   2.726
20573W        W93641  44.913  10.888   0.002
20574W        W93642  30.427  25.649  11.221
20575W        W93643   4.873  25.025   4.409
20576W        W93644  16.095  29.088  12.565
20577W        W93645  42.751   3.379  12.221
20578W        W93646  40.360  20.542   0.374
20579W        W93647  35.568  11.098   3.398
20580W        W93648  41.927  19.339   3.568
20581W        W93649  17.905   3.810   4.723
20582W        W93650   8.108   1.719  10.623
20583W        W93651  30.816  33.261   5.062
20584W        W93652  25.910  22.588  14.974
20585W        W93653  42.519  15.635   2.258
20586W        W93654  24.218   4.202   0.365
20587W        W93655  17.054  40.223  10.836
20588W        W93656  40.998  22.558  12.533
20589W        W93657  31.350  34.592  14.988
20590W        W93658  28.784  13.305   3.994
20591W        W93659  13.740  14.557  14.899
20592W        W93660  29.197  41.489   3.652
20593W        W93661  34.315   4.350   1.833
20594W        W93662   5.083   0.022  14.040
20595W        W93663  41.784  25.531  11.586
20596W        W93664  29.177  27.128   3.859
20597W        W93665  10.360  25.182   0.212
20598W        W93666   3.884  16.404   3.301
20599W        W93667  19.127   7.709   1.418
20600W        W93668  30.404   8.815   1.977
20601W        W93669  17.431  34.142   1.987
20602W        W93670  15.164  21.774   4.752
20603W        W93671  22.180   3.679   0.442
20604W        W93672  24.158  44.251   3.177
20605W        W93673  31.850   9.160  14.307
20606W        W93674   4.901  36.210   2.545
20607W        W93675  18.589  28.202  12.132
20608W        W93676  25.976  12.327  13.835
20609W        W93677   1.308  37.872  10.860
20610W        W93678  19.398   0.653   4.084
20611W        W93679  38.815   4.946  12.033
20612W        W93680  31.067  38.280  12.810
20613W        W93681  37.361  10.854   3.126
20614W        W93682   2.496  15.595   4.489
20615W        W93683  17.258  20.105  13.641
20616W        W93684  44.002   5.941  14.396
20617W        W93685   0.443   2.785  14.969
20618W        W93686  38.915  43.257  10.685
20619W        W93687  19.914  21.497  11.118
20620W        W93688  24.497  31.412   4.698
20621W        W93689   7.208   9.747  13.276
20622W        W93690   9.887  25.498  12.074
20623W        W93691  34.419  15.759   1.882
20624W        W93692   1.336  33.236   3.155
20625W        W93693   3.292  25.039  13.549
20626W        W93694  37.713  15.815  11.636
20627W        W93695   5.481  42.395  10.832
20628W        W93696  20.740  35.326  10.978
20629W        W93697  31.977  43.865   4.292
20630W        W93698   3.270  34.867   4.846
20631W        W93699  41.981  21.456  13.501
20632W        W93700  16.322  12.571  11.080
20633W        W93701   5.612  44.894  14.983
20634W        W93702  12.224  12.598  12.413
20635W        W93703  12.705  23.852  13.819
20636W        W93704  27.522  12.919   2.630
20637W        W93705  41.905  15.689   5.166
20638W        W93706  14.798  33.515   3.049
20639W        W93707  15.420   9.146   2.237
20640W        W93708  36.609   5.261  12.588
20641W        W93709  44.807  23.288  13.987
20642W        W93710  13.006  36.499   4.036
20643W        W93711  37.414   7.389  11.245
20644W        W93712  15.681  11.897  13.026
20645W        W93713  38.506  43.919   1.019
20646W        W93714  15.673  27.889  11.072
20647W        W93715   8.166  38.025  11.827
20648W        W93716   8.754  10.052  10.323
20649W        W93717  27.599  25.942  12.455
20650W        W93718  32.044   2.035   4.635
20651W        W93719  39.477  38.487  13.837
20652W        W93720   2.374  13.455   4.511
20653W        W93721  35.443  35.621  11.751
20654W        W93722  10.187  41.351   1.758
20655W        W93723  33.075  21.585  14.929
20656W        W93724  28.407  20.789  13.730
20657W        W93725  11.725  42.712  12.472
20658W        W93726  42.448   8.019   2.659
20659W        W93727  33.909  14.591  13.572
20660W        W93728  28.481   8.343  12.414
20661W        W93729  38.615  32.369  13.541
20662W        W93730   7.897  19.422   2.716
20663W        W93731  34.851  31.588   9.805
20664W        W93732  23.460  28.941  12.020
20665W        W93733  38.785  22.057  10.595
20666W        W93734  21.278  43.260  10.565
20667W        W93735  28.057  43.889  12.027
20668W        W93736  11.720   3.856   1.928
20669W        W93737  35.495  14.666  10.858
20670W        W93738  23.754  25.646   3.335
20671W        W93739   9.824  10.231  14.713
20672W        W93740  26.908  32.671  11.997
20673W        W93741   8.486  18.787   5.040
20674W        W93742  42.424  18.450  14.945
20675W        W93743  30.177  30.608  12.374
20676W        W93744  28.996  32.785  14.914
20677W        W93745  16.124   4.372  14.429
20678W        W93746  16.309  13.667  13.496
20679W        W93747  26.480  13.615  10.631
20680W        W93748  16.568  21.533  10.760
20681W        W93749  10.866  18.906  14.871
20682W        W93750  32.021  21.105   3.188
20683W        W93751  12.565  36.947  13.829
20684W        W93752  44.924   2.425  14.072
20685W        W93753  23.212  28.595   0.309
20686W        W93754  41.358   2.407   0.919
20687W        W93755  17.558  36.323   3.270
20688W        W93756   1.810  10.804  10.827
20689W        W93757   2.441   3.918  14.580
20690W        W93758  34.023  35.324  11.455
20691W        W93759   9.833  27.585  12.093
20692W        W93760  39.948  26.646   4.727
20693W        W93761  20.494  30.416  12.862
20694W        W93762  28.504  22.081   3.189
20695W        W93763   8.695  20.300   2.100
20696W        W93764  32.538  36.827  11.173
20697W        W93765  44.792  12.790  10.699
20698W        W93766  28.841  37.663  12.942
20699W        W93767  21.682  24.763  14.926
20700W        W93768  18.187  26.217  13.841
20701W        W93769   6.871  17.105   2.361
20702W        W93770  28.898  28.628  14.980
20703W        W93771  21.588  30.915  12.030
20704W        W93772  11.203  25.502   0.281
20705W        W93773   5.180  27.524  14.809
20706W        W93774  23.417  14.101   1.900
20707W        W93775  29.057   3.450   0.949
20708W        W93776  26.205  44.878  13.434
20709W        W93777  33.106  30.849  12.880
20710W        W93778  31.504  15.075  12.888
20711W        W93779  43.331  30.520  12.474
20712W        W93780  31.254   1.803   2.458
20713W        W93781  22.926   2.398  11.510
20714W        W93782  34.839   5.131   0.016
20715W        W93783  10.676  42.494   2.733
20716W        W93784   2.126  12.768   1.877
20717W        W93785  13.766   2.641  14.864
20718W        W93786  38.822   2.020   2.316
20719W        W93787   9.957  33.540  14.885
20720W        W93788  27.556  43.729  11.943
20721W        W93789  25.158  38.198  10.702
20722W        W93790  27.510  17.711  10.887
20723W        W93791  33.085  39.503   4.233
20724W        W93792  34.667  44.782  14.360
20725W        W93793  37.989  39.789  14.012
20726W        W93794  15.686  21.738  14.823
20727W        W93795  27.284  17.742   2.199
20728W        W93796  17.610  27.998  11.928
20729W        W93797  14.213  27.111   2.566
20730W        W93798   1.167   8.887  11.390
20731W        W93799   9.872  35.473  10.434
20732W        W93800  10.147  19.043  14.238
20733W        W93801  18.612  36.601  11.160
20734W        W93802  29.564  16.394   0.393
20735W        W93803  14.601   7.787   4.185
20736W        W93804  36.309  29.614  14.986
20737W        W93805  19.115  18.566   1.023
20738W        W93806  44.787  17.027   0.972
20739W        W93807  37.994  39.006   2.696
20740W        W93808  24.630  36.826   1.856
20741W        W93809   8.366  12.227   0.778
20742W        W93810  25.225  10.356  14.530
20743W        W93811   2.645  11.182  14.629
20744W        W93812  18.358  36.166  13.288
20745W        W93813  39.435   9.367   5.048
20746W        W93814  31.665  15.901   4.477
20747W        W93815  38.980  25.974   3.753
20748W        W93816   5.193  42.052   3.577
20749W        W93817   8.212  38.487   2.866
20750W        W93818  11.858   4.360  14.277
20751W        W93819   6.318  39.472   0.028
20752W        W93820  18.534  30.515   4.506
20753W        W93821  39.152   0.095   4.499
20754W        W93822   2.768  23.693   2.209
20755W        W93823  10.399  14.017   0.136
20756W        W93824   8.253   5.164  14.197
20757W        W93825   2.594  20.422   2.366
20758W        W93826  26.386  41.571  11.980
20759W        W93827  31.601  32.848   3.196
20760W        W93828  35.506  13.534  12.514
20761W        W93829  27.143  17.051  10.738
20762W        W93830  16.767  21.519  13.901
20763W        W93831  21.090   6.933   0.892
20764W        W93832  39.871  40.411   0.307
20765W        W93833  36.357  35.219  13.961
20766W        W93834  43.382  40.024  13.755
20767W        W93835  18.766  42.355  13.905
20768W        W93836  32.623  32.490  12.016
20769W        W93837  22.471  12.390  12.207
20770W        W93838   6.894  19.581  11.643
20771W        W93839  11.428  33.486  14.818
20772W        W93840  21.643  31.222   0.859
20773W        W93841  36.475  31.358   2.973
20774W        W93842  21.667  22.541   4.482
20775W        W93843  40.095  28.481   0.823
20776W        W93844  20.815  29.428   2.464
20777W        W93845  26.162  14.216  13.965
20778W        W93846   5.256   3.846  10.936
20779W        W93847  14.097  11.118   4.573
20780W        W93848  22.788  28.214   9.854
20781W        W93849  39.914   5.421   4.711
20782W        W93850   0.451  33.909   3.554
20783W        W93851  35.058  42.508  14.397
20784W        W93852  16.665  12.949   3.631
20785W        W93853  32.996  31.675   0.462
20786W        W93854  35.093   7.980   1.715
20787W        W93855   6.583  36.614   3.197
20788W        W93856  27.164  32.418   2.024
20789W        W93857  21.429  15.554  10.630
20790W        W93858  11.707   9.243   3.726
20791W        W93859  41.372  19.084   2.388
20792W        W93860   4.774  34.527  10.694
20793W        W93861  33.985  22.126   2.670
20794W        W93862  42.860  41.595   3.675
20795W        W93863   8.968  28.891  13.798
20796W        W93864  26.084  41.834   2.484
20797W        W93865   3.614  28.223   2.216
20798W        W93866  28.095  37.832  12.029
20799W        W93867  21.644  18.582   5.390
20800W        W93868  44.912  20.128  12.969
20801W        W93869   2.812   7.170   3.978
20802W        W93870  17.250   8.786   0.319
20803W        W93871   5.270  20.250   4.577
20804W        W93872  13.720  26.863  13.313
20805W        W93873  23.777  31.620  12.019
20806W        W93874  39.990  21.070  12.605
20807W        W93875  12.936  21.851   4.156
20808W        W93876  43.585  29.657  11.183
20809W        W93877  20.289  44.700  13.373
20810W        W93878  38.103   3.688   0.843
20811W        W93879  17.876   1.495   2.746
20812W        W93880   6.783  21.110  10.450
20813W        W93881  20.577  31.044  12.926
20814W        W93882  23.648  38.209   2.814
20815W        W93883   2.470  14.979  14.548
20816W        W93884   2.855   3.745  14.855
20817W        W93885  41.929   6.191  14.942
20818W        W93886  14.634   4.907   1.854
20819W        W93887  37.830  37.529  10.969
20820W        W93888  11.250   4.469  13.829
20821W        W93889  34.082  10.169  14.332
20822W        W93890  39.880   4.003  14.352
20823W        W93891  24.364  14.687   3.292
20824W        W93892  28.403  38.004  11.604
20825W        W93893  12.365  30.883  13.191
20826W        W93894   0.495  13.575  11.196
20827W        W93895   8.193   9.594   4.046
20828W        W93896  36.589  22.038   0.884
20829W        W93897   5.842  11.887  11.613
20830W        W93898  25.632  17.770  12.025
20831W        W93899  28.550  18.024  11.655
20832W        W93900  43.046  39.785   3.988
20833W        W93901  26.210  21.784   0.823
20834W        W93902  24.315  31.088   0.286
20835W        W93903   9.358  28.512   2.308
20836W        W93904  35.865  42.249   3.753
20837W        W93905   6.647  40.701   3.778
20838W        W93906   8.768   9.321   5.058
20839W        W93907  36.734  32.731  13.381
20840W        W93908  39.915  17.711   1.453
20841W        W93909   4.214  40.047  14.336
20842W        W93910  14.114   0.356   2.251
20843W        W93911  24.271  44.813  13.483
20844W        W93912  30.914  34.662   2.817
20845W        W93913   7.077   5.751   3.136
20846W        W93914  14.208  44.849  10.879
20847W        W93915  32.915  16.714  10.707
20848W        W93916   6.925  42.843   1.504
20849W        W93917  15.844   8.590  13.480
20850W        W93918  26.664  25.054   3.217
20851W        W93919  30.066  38.311   0.211
20852W        W93920  42.262  27.306  14.042
20853W        W93921  32.163  38.565  14.671
20854W        W93922  38.565   3.913   0.746
20855W        W93923  28.235  25.568   4.309
20856W        W93924  43.188  11.884  13.420
20857W        W93925  21.044  28.992   0.607
20858W        W93926  32.458  42.891  14.435
20859W        W93927  26.474  16.834  11.617
20860W        W93928  41.187  40.445   1.652
20861W        W93929  15.757   6.673   4.758
20862W        W93930  11.864   4.980   2.217
20863W        W93931  38.921  22.723  13.281
20864W        W93932   3.663  28.176  10.243
20865W        W93933  33.580  11.883   3.663
20866W        W93934   0.279  13.137  12.635
20867W        W93935   1.943  42.377  12.028
20868W        W93936   8.398  17.905   4.321
20869W        W93937  32.192   3.243   4.512
20870W        W93938  18.638  24.715   0.227
20871W        W93939   2.895   7.938  14.557
20872W        W93940  24.171   2.570   1.561
20873W        W93941   1.339  17.086  12.641
20874W        W93942  20.565   3.651   1.285
20875W        W93943   2.891  10.356   2.810
20876W        W93944  32.998  41.912  12.088
20877W        W93945  32.841  12.280   3.908
20878W        W93946  15.998  40.555   1.545
20879W        W93947  26.111  32.581   1.820
20880W        W93948   6.707  16.301  10.382
20881W        W93949  35.905  30.435  11.824
20882W        W93950  22.959  36.961  11.104
20883W        W93951  39.407  27.152   2.490
20884W        W93952   5.703  27.467  14.752
20885W        W93953  12.094   2.249   2.665
20886W        W93954  31.304  23.427   9.937
20887W        W93955  39.366   4.251   4.136
20888W        W93956  29.480   4.223   0.876
20889W        W93957  29.134   2.218  10.760
20890W        W93958  41.369  33.679   5.037
20891W        W93959   9.638  43.025  11.431
20892W        W93960   3.962  36.119  12.816
20893W        W93961  13.697   9.007   0.051
20894W        W93962  44.960  31.977   2.453
20895W        W93963  29.521  34.908   3.711
20896W        W93964   2.473  39.114  12.295
20897W        W93965  28.989  14.222   2.761
20898W        W93966  11.640  30.628  11.611
20899W        W93967  27.510   3.943  10.919
20900W        W93968  35.389  24.305   3.171
20901W        W93969  31.729  20.585  14.478
20902W        W93970  25.659  10.126  13.415
20903W        W93971  34.041  35.524   0.981
20904W        W93972  20.940  12.514   2.270
20905W        W93973  26.337  19.974   2.001
20906W        W93974   9.222   6.372   1.183
20907W        W93975   3.950   3.441  13.433
20908W        W93976  28.737  24.282   1.283
20909W        W93977  41.755  25.789  12.147
20910W        W93978  29.045  31.557   1.659
20911W        W93979  35.093  44.053  14.551
20912W        W93980   2.038  28.230   3.660
20913W        W93981  35.584  41.774  14.527
20914W        W93982  18.877  36.909  11.480
20915W        W93983  31.661  27.903   3.678
20916W        W93984  15.348   0.931  11.915
20917W        W93985  21.599  15.350   3.247
20918W        W93986   5.005   3.842   2.734
20919W        W93987  17.427   5.739   1.724
20920W        W93988  20.039  36.354   4.090
20921W        W93989  13.831  35.280  12.365
20922W        W93990  12.079  40.260  12.489
20923W        W93991  23.722  11.240   2.156
20924W        W93992   6.282  15.498   1.391
20925W        W93993  18.702  44.734  12.034
20926W        W93994  17.396  14.399  11.456
20927W        W93995  37.511  35.104  11.983
20928W        W93996  33.652  34.943  11.403
20929W        W93997  44.280   7.438   0.225
20930W        W93998   6.154  29.402  11.075
20931W        W93999  23.684   4.185   3.067
20932W        W94000  42.917   3.238  11.767
20933W        W94001  21.619  37.659   4.133
20934W        W94002  29.610  22.494  11.543
20935W        W94003  15.014  44.434  11.001
20936W        W94004  38.898  16.956   5.063
20937W        W94005  43.433  14.343  11.673
20938W        W94006  43.390   9.339   1.354
20939W        W94007  33.690   3.062  11.882
20940W        W94008  36.364  18.638  10.445
20941W        W94009  16.522   3.382  14.052
20942W        W94010  27.672  41.047   3.305
20943W        W94011  34.097  40.897  11.607
20944W        W94012  26.560   0.307   4.925
20945W        W94013  25.982  15.520   3.722
20946W        W94014   3.357  25.471  13.287
20947W        W94015   7.595  40.300   1.727
20948W        W94016  36.359  13.867   4.198
20949W        W94017   9.546   3.311   2.022
20950W        W94018  18.782  44.218   1.901
20951W        W94019  13.550  19.817   3.667
20952W        W94020  20.327  23.182   1.985
20953W        W94021  36.533   7.122  12.519
20954W        W94022   1.023  12.667   4.186
20955W        W94023  43.359  43.233   1.331
20956W        W94024  28.624  26.614  14.870
20957W        W94025  18.563  38.532   3.374
20958W        W94026  32.520  23.083  12.542
20959W        W94027  35.105  23.003  12.369
20960W        W94028  23.561   7.057   2.055
20961W        W94029  14.301  43.877   3.276
20962W        W94030  25.084   4.385  14.737
20963W        W94031  13.566  23.993  14.738
20964W        W94032   3.920   5.745  13.454
20965W        W94033  38.830  13.356   0.882
20966W        W94034  26.148  19.270  13.677
20967W        W94035  28.033   9.867  10.925
20968W        W94036   2.817  22.049   4.196
20969W        W94037  10.746  26.801  12.899
20970W        W94038  15.794   3.783  14.302
20971W        W94039   4.719   1.006  13.947
20972W        W94040   5.145   7.311   3.158
20973W        W94041  33.662   6.885  11.597
20974W        W94042   9.374  24.985  14.310
20975W        W94043   4.015  44.358  10.194
20976W        W94044  20.693  35.565  11.442
20977W        W94045   7.264   5.758   4.502
20978W        W94046  43.634  25.263   2.886
20979W        W94047  28.278  14.179  13.806
20980W        W94048  31.131   8.792   0.356
20981W        W94049  37.795  10.301  13.052
20982W        W94050  18.368  26.091   2.330
20983W        W94051  10.984   2.429  12.265
20984W        W94052  18.639  38.228  12.424
20985W        W94053  10.777  35.867   4.701
20986W        W94054  37.165  30.220   3.332
20987W        W94055   9.688  41.728  14.977
20988W        W94056  23.362  15.514  11.741
20989W        W94057  15.108  16.699   1.328
20990W        W94058  22.432  26.542  13.065
20991W        W94059  26.579  14.265  12.520
20992W        W94060   7.306  35.793  14.344
20993W        W94061   9.783   0.769   1.413
20994W        W94062  29.389  38.543   4.871
20995W        W94063  26.716  25.634   2.023
20996W        W94064   6.917  10.825   3.214
20997W        W94065  32.487  13.330   2.845
20998W        W94066   1.029  37.571  10.191
20999W        W94067  35.555  27.669   3.653
21000W        W94068   7.213   5.431  11.622
21001W        W94069   4.168  17.001   1.674
21002W        W94070   3.592  36.728  12.092
21003W        W94071  39.487  11.923   3.685
21004W        W94072  23.061   1.460   1.413
21005W        W94073  41.948  23.807  12.025
21006W        W94074   2.324  26.411  13.015
21007W        W94075  35.889  30.517   4.628
21008W        W94076  32.161  19.703  11.204
21009W        W94077  34.916   2.951   0.877
21010W        W94078  24.421   5.501  10.735
21011W        W94079  25.093  42.474   4.757
21012W        W94080  23.622  25.943   0.372
21013W        W94081  22.308  31.086   4.608
21014W        W94082  31.825  31.723   9.939
21015W        W94083  44.499   4.271   4.767
21016W        W94084  19.124   9.537   0.743
21017W        W94085  38.038  28.473   4.624
21018W        W94086  41.101  10.922  11.965
21019W        W94087  32.491  41.154   1.316
21020W        W94088  22.977  38.346  12.587
21021W        W94089  38.278  33.382   4.880
21022W        W94090  15.712  29.386   2.292
21023W        W94091  14.425   4.283  13.250
21024W        W94092  26.024  32.596  13.297
21025W        W94093   9.532   3.875   1.492
21026W        W94094  28.869  26.166  11.607
21027W        W94095   9.690   4.098  14.051
21028W        W94096  31.002  13.255  12.888
21029W        W94097  34.636   6.604  11.579
21030W        W94098   7.285  15.410  13.758
21031W        W94099  22.454  42.059   0.451
21032W        W94100  41.107  31.058  10.787
21033W        W94101  24.954  10.824  14.616
21034W        W94102  31.540  22.692  13.266
21035W        W94103  18.342   6.895  10.452
21036W        W94104   2.829  22.570   2.756
21037W        W94105   0.038  26.497  13.235
21038W        W94106  18.128  16.521  13.065
21039W        W94107  40.922  35.123   1.599
21040W        W94108  24.196  34.558  10.405
21041W        W94109  37.909  19.158  12.450
21042W        W94110  18.153  19.612  10.677
21043W        W94111  22.529   0.402  12.198
21044W        W94112  25.785  25.722   2.119
21045W        W94113   2.328   2.995  14.469
21046W        W94114   6.427  33.699   2.262
21047W        W94115   8.869  11.710  12.768
21048W        W94116  37.705  10.054  11.268
21049W        W94117  34.122  22.210  12.729
21050W        W94118  18.489  34.056  12.928
21051W        W94119  30.179  42.834  12.501
21052W        W94120   3.741   1.996   4.576
21053W        W94121  40.834  13.871   4.647
21054W        W94122  40.865  21.283   1.469
21055W        W94123  36.874  32.488   0.720
21056W        W94124  43.279  21.774   1.717
21057W        W94125   1.724   0.065  14.437
21058W        W94126   4.940   0.446  13.772
21059W        W94127  38.055  25.792   4.803
21060W        W94128   2.397   0.930  11.143
21061W        W94129  26.622   9.323   1.301
21062W        W94130  19.558  41.830  14.986
21063W        W94131  27.585  21.934  10.505
21064W        W94132  32.885  14.537   4.103
21065W        W94133  38.748  40.987   2.373
21066W        W94134  40.337  25.649  11.399
21067W        W94135  24.604  22.538   0.485
21068W        W94136  21.231  17.562  10.664
21069W        W94137  14.857   5.908   0.846
21070W        W94138  10.190  29.992   0.115
21071W        W94139  38.664  35.444  12.434
21072W        W94140  14.395  18.194  11.862
21073W        W94141  14.794   2.392   3.378
21074W        W94142  20.789  41.609   1.261
21075W        W94143  22.099  40.294   2.171
21076W        W94144   2.698  21.742   2.436
21077W        W94145  21.801  42.442   1.853
21078W        W94146   1.547  18.698  14.127
21079W        W94147  39.047  15.717   1.289
21080W        W94148  41.071  31.052   0.986
21081W        W94149  10.179  36.798  10.558
21082W        W94150  39.388  29.873   1.789
21083W        W94151  18.316   8.686   3.088
21084W        W94152   7.825  14.846  10.633
21085W        W94153  36.219   0.267  13.452
21086W        W94154  24.794  13.023  10.654
21087W        W94155  34.429  31.391  11.135
21088W        W94156  36.066  43.029  12.052
21089W        W94157   5.265  30.712  13.068
21090W        W94158  16.125  12.486  14.490
21091W        W94159  42.984  10.951  12.038
21092W        W94160  10.912   0.299   2.801
21093W        W94161  24.006  11.757   0.907
21094W        W94162  17.357  21.136  12.634
21095W        W94163  14.694  21.098  11.892
21096W        W94164   1.444   1.972  13.470
21097W        W94165  13.359  28.594   2.919
21098W        W94166   8.199  32.351   0.732
21099W        W94167  42.411   2.169  12.524
21100W        W94168   4.389   2.783  14.247
21101W        W94169  21.593  29.588   1.818
21102W        W94170  37.025   3.861  12.903
21103W        W94171  12.567  39.128  11.907
21104W        W94172  22.962   2.467  12.405
21105W        W94173  22.249   2.901   3.407
21106W        W94174  34.985  44.402   1.495
21107W        W94175  21.648  42.369   2.364
21108W        W94176  37.831   6.914   0.355
21109W        W94177   2.825  38.474   2.185
21110W        W94178   6.007   1.883  12.586
21111W        W94179  12.473  32.878  12.107
21112W        W94180  41.842  16.699  14.882
21113W        W94181  16.208  28.160  10.593
21114W        W94182  42.768  32.007   0.874
21115W        W94183  27.054  43.785  11.134
21116W        W94184   5.669  38.547  11.566
21117W        W94185  16.098  17.448   4.150
21118W        W94186  16.797  27.629   3.786
21119W        W94187  20.133   2.682   1.522
21120W        W94188  37.924  35.023   0.293
21121W        W94189   1.420  21.683  12.342
21122W        W94190  20.524  26.573  13.985
21123W        W94191  41.885  37.051  12.306
21124W        W94192   7.305  42.477   1.351
21125W        W94193   5.243  22.993  11.169
21126W        W94194  42.803  35.793  10.811
21127W        W94195  25.114   2.040   0.253
21128W        W94196  42.271  36.388   0.247
21129W        W94197  39.032  32.044   1.428
21130W        W94198   3.943   8.877   0.767
21131W        W94199   0.946  24.951   4.152
21132W        W94200   2.377   2.230   3.888
21133W        W94201   6.220   5.008  12.230
21134W        W94202  32.246   8.920  14.911
21135W        W94203  29.232  27.169  14.933
21136W        W94204  34.641  44.878   4.598
21137W        W94205  29.091  40.548   3.661
21138W        W94206  38.387  39.812   2.611
21139W        W94207  19.663  42.233  14.294
21140W        W94208   7.944  15.489   4.051
21141W        W94209  27.310  32.526  14.819
21142W        W94210  20.264  24.994  13.400
21143W        W94211  16.101   5.387  13.573
21144W        W94212  26.906  32.054   2.363
21145W        W94213  28.637  31.653  12.509
21146W        W94214  32.552  39.593  11.804
21147W        W94215  42.481  25.658   0.317
21148W        W94216   6.290   6.434   4.178
21149W        W94217  13.545  44.556   3.706
21150W        W94218  25.074  39.587   3.639
21151W        W94219   0.701  14.834   0.508
21152W        W94220   6.627  42.861  14.823
21153W        W94221  17.337  43.459  14.453
21154W        W94222  27.526  13.411   1.734
21155W        W94223  38.136  26.146  14.909
21156W        W94224  12.289  41.060   1.877
21157W        W94225  11.689  44.905  10.705
21158W        W94226  20.817  14.353   3.297
21159W        W94227  40.408  16.130  13.605
21160W        W94228   7.135  38.943  12.641
21161W        W94229  23.209  44.332  12.872
21162W        W94230  17.034  17.027   4.210
21163W        W94231  22.268  29.626  13.831
21164W        W94232  31.635  42.888  14.790
21165W        W94233  25.965  40.965  14.280
21166W        W94234  17.503   3.782   3.711
21167W        W94235  29.652  15.109  14.953
21168W        W94236  36.693  21.807  11.929
21169W        W94237  24.171   4.948   3.584
21170W        W94238  13.806  39.343  12.315
21171W        W94239  43.262  16.132   2.338
21172W        W94240   4.988   0.104  11.937
21173W        W94241  17.321   1.892  13.000
21174W        W94242  11.219  40.786  14.838
21175W        W94243  20.639   3.328   0.894
21176W        W94244   5.307  40.344  12.425
21177W        W94245  14.169  33.649   3.737
21178W        W94246   3.230  36.217   2.769
21179W        W94247  22.436  31.730   2.778
21180W        W94248  34.754  33.404   2.883
21181W        W94249  26.412   2.208   4.206
21182W        W94250   1.545   5.379   2.231
21183W        W94251  44.246   9.652  12.947
21184W        W94252   5.200  17.495   0.897
21185W        W94253  12.177  25.398   4.609
21186W        W94254  31.064  33.604  12.558
21187W        W94255   6.374  13.163  11.539
21188W        W94256  20.809  42.298   2.420
21189W        W94257  40.469  18.024   2.203
21190W        W94258  10.335  41.861   3.360
21191W        W94259  19.539  19.195   0.154
21192W        W94260  32.066  18.086   4.256
21193W        W94261  41.606  20.018  14.983
21194W        W94262  19.044  24.137  14.237
21195W        W94263  29.684   7.099  14.827
21196W        W94264  14.670  18.608  10.688
21197W        W94265  36.644  15.290  11.976
21198W        W94266  11.300  39.545   1.783
21199W        W94267  38.020  36.660  10.738
21200W        W94268  29.942  39.858   4.403
21201W        W94269  30.303   0.761  11.447
21202W        W94270  25.169   5.900  13.917
21203W        W94271  38.235  13.370  10.763
21204W        W94272  35.098  19.189   0.316
21205W        W94273  15.313   8.724  14.042
21206W        W94274  11.648  44.309   4.800
21207W        W94275  43.594  25.648   0.704
21208W        W94276   5.684  10.123   1.821
21209W        W94277  39.381  33.025   0.386
21210W        W94278  32.880  39.584   1.804
21211W        W94279  10.862  25.828   4.593
21212W        W94280  42.204  26.706   0.309
21213W        W94281   1.193  14.453  13.813
21214W        W94282  22.986   2.836  12.829
21215W        W94283  24.032  41.578  13.318
21216W        W94284  10.843  10.935  13.452
21217W        W94285  25.339  39.430  13.349
21218W        W94286  28.782  39.335  10.674
21219W        W94287   4.284  25.580   2.151
21220W        W94288  23.253  17.663  13.837
21221W        W94289  42.064  20.304   1.348
21222W        W94290  26.049  43.288   0.750
21223W        W94291  38.497  15.234  10.452
21224W        W94292  13.365   6.117   3.858
21225W        W94293  40.348  10.201  13.006
21226W        W94294   2.869  10.050  14.254
21227W        W94295  37.533  13.296  14.854
21228W        W94296   9.282  20.197  12.400
21229W        W94297  11.417  27.158  13.478
21230W        W94298  16.729  18.571   3.791
21231W        W94299  22.791  18.830  12.438
21232W        W94300  28.999  23.468  13.534
21233W        W94301   4.256   9.597   2.812
21234W        W94302  41.390  13.920  14.397
21235W        W94303  37.462  27.232  13.930
21236W        W94304  21.319   7.378   4.374
21237W        W94305  22.760  13.186  13.689
21238W        W94306  36.512  12.410   1.449
21239W        W94307  32.449  36.090  10.564
21240W        W94308   1.460  28.255  11.461
21241W        W94309   4.030   3.627  12.507
21242W        W94310   8.198  15.149  12.268
21243W        W94311  19.032  25.562   4.271
21244W        W94312  26.525  31.073   2.615
21245W        W94313   4.340  10.356   0.328
21246W        W94314  37.010  15.268  13.086
21247W        W94315  13.527   4.041  11.668
21248W        W94316  39.727  16.435   3.650
21249W        W94317  25.862  42.080   2.900
21250W        W94318  39.526  22.790  11.500
21251W        W94319  18.170  16.003  13.976
21252W        W94320  18.521  25.711  13.850
21253W        W94321  26.684  43.645  10.141
21254W        W94322  20.251  42.894   4.708
21255W        W94323   6.103  37.067  13.780
21256W        W94324  22.548  21.932   4.494
21257W        W94325  16.829   3.563   0.867
21258W        W94326  24.206  38.035   4.041
21259W        W94327  13.649  11.703  12.266
21260W        W94328  30.329  14.297   0.812
21261W        W94329  21.130  25.675  12.922
21262W        W94330  28.231  33.174  10.231
21263W        W94331   5.097  44.449   2.692
21264W        W94332  32.909   2.826  14.683
21265W        W94333  27.159  34.373  14.561
21266W        W94334  36.940  25.596   4.610
21267W        W94335  29.639   4.868  12.885
21268W        W94336  37.837  38.328   0.920
21269W        W94337  40.724  18.677  12.949
21270W        W94338  13.617   2.117  13.466
21271W        W94339  19.177  37.558   5.295
21272W        W94340  21.824  18.037   3.709
21273W        W94341  15.798  33.203   2.318
21274W        W94342  34.926  18.669   0.288
21275W        W94343  29.458  21.278  12.021
21276W        W94344  25.426  43.891   3.999
21277W        W94345  40.663   2.174   2.358
21278W        W94346  37.570  19.745  13.551
21279W        W94347  24.754  13.698   4.099
21280W        W94348  16.293  24.631  10.715
21281W        W94349   3.971  22.211  13.054
21282W        W94350  11.591  11.130   2.817
21283W        W94351  38.482  10.361   0.775
21284W        W94352  16.299  33.366  14.753
21285W        W94353   9.293  23.446   4.654
21286W        W94354   3.422  27.136   1.249
21287W        W94355  15.302  35.129  11.172
21288W        W94356  12.144   4.402  13.821
21289W        W94357   5.657  40.574   4.026
21290W        W94358  42.965  17.049   5.151
21291W        W94359  32.990   3.187   3.110
21292W        W94360   5.359  32.764   3.436
21293W        W94361  17.157  32.711   2.701
21294W        W94362   2.483   4.884   4.140
21295W        W94363  42.793  41.864   4.123
21296W        W94364  26.012  11.905   2.308
21297W        W94365   1.778  44.427   2.266
21298W        W94366  22.124  20.705  14.051
21299W        W94367  19.263  38.571  13.482
21300W        W94368  28.429   2.861  10.574
21301W        W94369   0.110  28.743  11.036
21302W        W94370  22.529  10.931   1.893
21303W        W94371  22.010  34.065   4.160
21304W        W94372  10.685  19.203   5.096
21305W        W94373  23.527  28.454   0.814
21306W        W94374  13.404  28.647  14.825
21307W        W94375   8.143   8.669   3.154
21308W        W94376  27.106   1.707   4.765
21309W        W94377  35.816   1.749   1.655
21310W        W94378  28.163  44.803   1.361
21311W        W94379  17.021  22.202  12.127
21312W        W94380  30.036  23.109   3.403
21313W        W94381  20.235   9.253   3.505
21314W        W94382  43.430  14.263   4.966
21315W        W94383  39.025  24.663   1.628
21316W        W94384  23.593  43.770   1.607
21317W        W94385  34.441  38.333   2.761
21318W        W94386  37.777  21.689  14.462
21319W        W94387   3.483   4.276  13.260
21320W        W94388  38.314  16.060  10.607
21321W        W94389  26.724  16.954   4.053
21322W        W94390  29.526   7.948   0.091
21323W        W94391  35.866  24.921   4.757
21324W        W94392   5.250   3.221  11.755
21325W        W94393  35.003   8.455  11.617
21326W        W94394   9.150   0.817  12.049
21327W        W94395  17.526  14.847   4.422
21328W        W94396  41.398  21.484  12.886
21329W        W94397   0.554  41.512   2.422
21330W        W94398  11.589  34.537   0.730
21331W        W94399   7.867  40.040   4.997
21332W        W94400  27.908  23.304   9.880
21333W        W94401  30.689  37.619  14.988
21334W        W94402   3.836  15.816   0.284
21335W        W94403  27.971   4.008  11.225
21336W        W94404  39.842  34.573  12.242
21337W        W94405   4.422  41.600   2.461
21338W        W94406  26.445  44.018  13.300
21339W        W94407  20.668  32.821   2.566
21340W        W94408   6.716  10.709  13.822
21341W        W94409  11.899  35.071  14.801
21342W        W94410  32.580  12.884   2.596
21343W        W94411  19.629  14.934  13.722
21344W        W94412  17.012   1.707  13.506
21345W        W94413  39.267  26.278  12.832
21346W        W94414  34.980  16.585  13.362
21347W        W94415  25.925   0.558   1.135
21348W        W94416   4.435   5.378  14.989
21349W        W94417   1.444   7.204  10.830
21350W        W94418   5.918  44.523  14.279
21351W        W94419  31.638   3.697   2.340
21352W        W94420  27.634  40.384  10.614
21353W        W94421  19.642  24.257   2.142
21354W        W94422  29.161   1.204  12.392
21355W        W94423  34.968   7.835  14.685
21356W        W94424  16.294  10.645  11.077
21357W        W94425  21.642  35.843   2.663
21358W        W94426  36.342   2.584   2.269
21359W        W94427  14.396  32.880   3.324
21360W        W94428  22.908  32.568  14.352
21361W        W94429  16.726  18.913   0.401
21362W        W94430   7.678  27.399  11.848
21363W        W94431  28.033  39.769   0.898
21364W        W94432  43.312   7.747   2.528
21365W        W94433   7.880   8.655   1.537
21366W        W94434  38.561  22.993   2.394
21367W        W94435  16.618   0.721   3.514
21368W        W94436   4.845  33.778   4.278
21369W        W94437   2.859  44.532   2.731
21370W        W94438  11.119  24.037   3.718
21371W        W94439  19.522  36.953  12.099
21372W        W94440  22.109   6.239   1.368
21373W        W94441   6.434  21.673   1.717
21374W        W94442  27.629   7.694   3.432
21375W        W94443  42.790  28.476  14.043
21376W        W94444  37.410  41.551   2.713
21377W        W94445   5.298  39.643   3.347
21378W        W94446   2.452  30.861   3.275
21379W        W94447  17.588   1.918   2.663
21380W        W94448  34.576   7.274  14.062
21381W        W94449   1.223   4.306   1.834
21382W        W94450  43.062  11.844   2.519
21383W        W94451  38.431  25.289   0.524
21384W        W94452  37.906  38.977   1.221
21385W        W94453  20.663  25.276   4.275
21386W        W94454  42.377  31.292   3.715
21387W        W94455  12.788  44.771  14.326
21388W        W94456  21.032  11.002   5.145
21389W        W94457  33.199  36.206  13.834
21390W        W94458  31.374  41.786  14.225
21391W        W94459  28.235  41.969   4.052
21392W        W94460   0.846  18.529  11.196
21393W        W94461  38.373   7.486   3.571
21394W        W94462  16.172   2.061   0.337
21395W        W94463  37.636  19.090   4.624
21396W        W94464  42.541  14.167  13.529
21397W        W94465  19.453  21.156  11.049
21398W        W94466   0.414  23.210   1.427
21399W        W94467  19.065  30.900  14.368
21400W        W94468   4.804  17.780   2.440
21401W        W94469  35.841  33.417   4.808
21402W        W94470  20.607  31.756  14.314
21403W        W94471  19.676  40.397  14.439
21404W        W94472  27.010  25.400   0.263
21405W        W94473  16.798  16.805   0.755
21406W        W94474  15.514  15.961   1.101
21407W        W94475  22.581   8.220  12.807
21408W        W94476  37.808   6.274   3.108
21409W        W94477  25.008  36.095   1.273
21410W        W94478   7.589  39.243  13.415
21411W        W94479  37.095  21.474  14.840
21412W        W94480  33.059  13.016  12.080
21413W        W94481  44.068  25.570  11.556
21414W        W94482   0.053   2.699  12.922
21415W        W94483  11.270  14.873  11.937
21416W        W94484   5.310   6.621  13.266
21417W        W94485  14.074  44.330   3.236
21418W        W94486  28.765  36.496  12.343
21419W        W94487  23.705  23.869   0.388
21420W        W94488  21.146   0.781   3.836
21421W        W94489  15.064  34.630  14.544
21422W        W94490  33.861   9.709  12.590
21423W        W94491  37.009  25.573   0.408
21424W        W94492   9.176  34.986   1.915
21425W        W94493  22.998  10.861  13.394
21426W        W94494  36.539   3.234  12.621
21427W        W94495  37.097  34.468   3.015
21428W        W94496   2.802  35.588  12.360
21429W        W94497  31.561  28.872  10.716
21430W        W94498  25.824   2.984   4.500
21431W        W94499  18.665  16.070  14.764
21432W        W94500  37.690  12.784  10.432
21433W        W94501   3.522  43.811  12.949
21434W        W94502  21.672  30.559  11.627
21435W        W94503  23.631   3.706   4.783
21436W        W94504  14.570  33.286   0.956
21437W        W94505   9.817  41.047  11.576
21438W        W94506  18.459  43.488   0.711
21439W        W94507  32.465  28.016  12.520
21440W        W94508  31.126   2.106  13.936
21441W        W94509  40.450  10.125   4.981
21442W        W94510  26.707  26.468  14.807
21443W        W94511  32.097  16.144   4.206
21444W        W94512  23.765  14.404  12.938
21445W        W94513  16.407   2.909  13.876
21446W        W94514  24.965  39.000  13.871
21447W        W94515  30.863  40.906   3.959
21448W        W94516  19.676  15.466  11.571
21449W        W94517  21.598  40.035   4.647
21450W        W94518  19.787  35.311  14.949
21451W        W94519  12.299  34.330  14.522
21452W        W94520  19.202   5.356   0.896
21453W        W94521   1.810  29.539  12.116
21454W        W94522   2.868  35.281  14.827
21455W        W94523   2.676   8.125   3.771
21456W        W94524   3.200  17.081   3.705
21457W        W94525   4.628  23.629   1.632
21458W        W94526  36.408  24.244  12.140
21459W        W94527  19.114  42.015   1.057
21460W        W94528  40.407  21.294  12.414
21461W        W94529  27.515  43.407   3.806
21462W        W94530  16.872  40.625  14.455
21463W        W94531  20.711   9.115   2.329
21464W        W94532  17.225  12.296   3.895
21465W        W94533   2.883  14.333   0.049
21466W        W94534  37.593  43.237  11.545
21467W        W94535  34.144  10.243  11.486
21468W        W94536  28.677  21.597  11.663
21469W        W94537  32.938  24.934   5.067
21470W        W94538  13.326  14.445   2.656
21471W        W94539  18.955  29.414   2.668
21472W        W94540  31.927  13.596   2.632
21473W        W94541  42.998  42.176  13.544
21474W        W94542   1.318  23.213   2.957
21475W        W94543  21.089  13.131   0.715
21476W        W94544  22.204  36.591   0.770
21477W        W94545  41.506  19.029  14.842
21478W        W94546  15.256  13.777  11.684
21479W        W94547  15.231  36.849   0.406
21480W        W94548  19.072  22.040   1.506
21481W        W94549  17.643  38.913  10.275
21482W        W94550  37.959  10.412  10.537
21483W        W94551  19.645  37.887   3.678
21484W        W94552  26.382  41.042   2.760
21485W        W94553  36.521  25.576   1.254
21486W        W94554   0.004  34.401  14.430
21487W        W94555  42.958   2.265   1.826
21488W        W94556  13.559  42.460  10.742
21489W        W94557  11.980  11.636   0.261
21490W        W94558  37.291  11.411   1.538
21491W        W94559  36.881   6.894   4.165
21492W        W94560  36.017  32.359  14.039
21493W        W94561  10.653  27.697   1.519
21494W        W94562  20.070   2.735   3.680
21495W        W94563  42.805   7.655   0.480
21496W        W94564  18.690  18.707   0.763
21497W        W94565  36.548  42.754   4.116
21498W        W94566   3.776  23.686  12.871
21499W        W94567  38.093   3.383  11.213
21500W        W94568  28.136  36.462  14.517
21501W        W94569  12.777  15.807   4.691
21502W        W94570   7.289  13.155   4.537
21503W        W94571  12.700  32.995  11.125
21504W        W94572  11.071  17.669  13.511
21505W        W94573   8.661  19.711   3.222
21506W        W94574  16.132   2.994   0.211
21507W        W94575  30.725  42.999  10.767
21508W        W94576  19.971  16.334  12.576
21509W        W94577  33.458  15.724  13.926
21510W        W94578  13.202  18.129  13.848
21511W        W94579  37.380  17.797  12.512
21512W        W94580  22.783  10.068   0.714
21513W        W94581  42.050  40.284   1.736
21514W        W94582  44.731  41.275  11.952
21515W        W94583  27.560  25.740   2.360
21516W        W94584  16.642  43.512   2.256
21517W        W94585  15.288  17.362  11.751
21518W        W94586   8.664  23.242   3.455
21519W        W94587  28.408   2.425  12.923
21520W        W94588  12.659  14.449   4.783
21521W        W94589  34.168  37.114  14.952
21522W        W94590  15.520   6.083  13.403
21523W        W94591  17.668   4.907   2.765
21524W        W94592  34.704  18.820  11.094
21525W        W94593  35.015   3.076   2.695
21526W        W94594  40.024  24.635   0.477
21527W        W94595  38.591  42.956   2.814
21528W        W94596  30.620   5.318   1.240
21529W        W94597  39.432  27.564  14.036
21530W        W94598  27.933  31.468  11.812
21531W        W94599   7.054  33.475  14.221
21532W        W94600  41.250  28.656  12.939
21533W        W94601   9.795  15.018  13.410
21534W        W94602   2.973  14.646   4.585
21535W        W94603  27.659  32.264   1.517
21536W        W94604  20.182  44.493  14.010
21537W        W94605  42.887  44.522  11.449
21538W        W94606  16.735  17.523   3.767
21539W        W94607  27.113  24.943   2.355
21540W        W94608  23.671   3.377  14.562
21541W        W94609  20.486   9.349  10.687
21542W        W94610  29.162  39.602   4.879
21543W        W94611  14.808  40.447  11.146
21544W        W94612   1.159   2.959  13.378
21545W        W94613  24.743  17.515   2.692
21546W        W94614  25.069  30.953  11.669
21547W        W94615  11.635  39.848   0.771
21548W        W94616  34.126  21.298  10.758
21549W        W94617  17.017  24.035   0.005
21550W        W94618  25.674  13.729   1.393
21551W        W94619  41.587  42.809  11.897
21552W        W94620  17.059  30.933  14.496
21553W        W94621  19.759  37.638   1.962
21554W        W94622  14.184  43.863   4.138
21555W        W94623   3.750   0.984   4.819
21556W        W94624   2.801  32.595  11.566
21557W        W94625  24.635   7.250  11.944
21558W        W94626  42.549  28.646  11.090
21559W        W94627   3.059  29.093   1.222
21560W        W94628  24.796  32.065  12.556
21561W        W94629  21.153  44.575   2.374
21562W        W94630   6.989   5.509  13.596
21563W        W94631   0.242  28.942   3.178
21564W        W94632  37.331  30.626  10.857
21565W        W94633   1.369   2.916   2.661
21566W        W94634  43.702  28.985   4.208
21567W        W94635  41.343  35.418   1.768
21568W        W94636   9.184  11.620  14.986
21569W        W94637   8.190   9.748   0.532
21570W        W94638  27.223  33.381  14.367
21571W        W94639  41.422  41.521   4.263
21572W        W94640  28.081  35.510  10.745
21573W        W94641  42.232  42.978   4.588
21574W        W94642  15.698  23.997   2.716
21575W        W94643  34.406   3.352  13.353
21576W        W94644   7.465  40.777  10.757
21577W        W94645  40.474  27.800  14.840
21578W        W94646   1.017  23.997  14.298
21579W        W94647  15.335  44.428  11.937
21580W        W94648   1.014  41.506   0.157
21581W        W94649  43.439  18.135  11.067
21582W        W94650  35.693  21.718  13.322
21583W        W94651   2.533  32.763   3.229
21584W        W94652  18.789  31.730   2.401
21585W        W94653  19.680  30.966   3.821
21586W        W94654   5.082  41.240  14.348
21587W        W94655  35.987  32.577  10.060
21588W        W94656  36.191  44.920   2.189
21589W        W94657  40.018  20.583   4.869
21590W        W94658  12.553  11.881  11.357
21591W        W94659   8.614   5.944   4.127
21592W        W94660   9.965  22.220   0.740
21593W        W94661  30.141  25.012  11.929
21594W        W94662  17.500  41.023  11.124
21595W        W94663  19.535  34.670   4.239
21596W        W94664  36.279  29.142  12.454
21597W        W94665  17.587  24.522   4.580
21598W        W94666  31.367  30.946   4.170
21599W        W94667  28.936   5.438  11.089
21600W        W94668  32.664  42.049   0.829
21601W        W94669  40.719   2.912   2.433
21602W        W94670   1.015  43.465   3.702
21603W        W94671   5.132  25.565   3.385
21604W        W94672  30.018  36.090  12.990
21605W        W94673  16.550  37.446  14.242
21606W        W94674  44.831   2.754   2.971
21607W        W94675  23.085  18.621  11.141
21608W        W94676  33.032  27.675   4.598
21609W        W94677  44.923  23.683   1.257
21610W        W94678  10.349  10.846   3.743
21611W        W94679  35.411  17.361   1.470
21612W        W94680  32.088  34.043  13.665
21613W        W94681  41.339  40.938   0.356
21614W        W94682  19.599   3.362  13.027
21615W        W94683  26.969   3.286   0.719
21616W        W94684   6.264  30.591   4.605
21617W        W94685  20.210   6.247  13.838
21618W        W94686  27.607  34.588   1.290
21619W        W94687  24.256  41.401   2.657
21620W        W94688  16.880  16.820   3.246
21621W        W94689   2.487   6.803  11.013
21622W        W94690  29.558  16.227   3.420
21623W        W94691  36.324  25.717   1.717
21624W        W94692   2.848  22.835  13.881
21625W        W94693  19.343  27.459   1.370
21626W        W94694  18.983  27.888  13.123
21627W        W94695  41.334  38.403   4.632
21628W        W94696  41.346  41.571   1.516
21629W        W94697   4.745  16.864  14.192
21630W        W94698  21.058   0.728   1.335
21631W        W94699   0.891  35.498  12.017
21632W        W94700  35.962   9.657   3.892
21633W        W94701  30.945   0.155  12.936
21634W        W94702   3.689   2.265   0.732
21635W        W94703  14.567  40.941  14.399
21636W        W94704   5.860  14.692  11.846
21637W        W94705   3.368  34.509   3.481
21638W        W94706  32.702   2.766  10.664
21639W        W94707  43.968  10.812  14.771
21640W        W94708   1.812  21.127  14.386
21641W        W94709  10.801   4.329   3.334
21642W        W94710  19.867  27.362   1.338
21643W        W94711  17.443  35.229  11.482
21644W        W94712   0.203   0.837   0.898
21645W        W94713  28.094   8.093  14.544
21646W        W94714  25.196  44.625  11.976
21647W        W94715  24.688  15.622  13.304
21648W        W94716   8.987  36.894   1.392
21649W        W94717  10.256  27.432   2.369
21650W        W94718  40.946   2.964  14.289
21651W        W94719  38.985  27.916   2.767
21652W        W94720  32.984  41.480  13.397
21653W        W94721  43.832  24.990  14.018
21654W        W94722  29.894  18.756  10.555
21655W        W94723  32.368   1.178   0.879
21656W        W94724  33.997  33.881   1.368
21657W        W94725  15.779   9.193  11.894
21658W        W94726  19.083  44.325   4.649
21659W        W94727  22.123  20.299  10.878
21660W        W94728  37.364  19.477   9.899
21661W        W94729  11.666  12.706  11.580
21662W        W94730  41.569  36.508   1.853
21663W        W94731   5.981  26.985   2.779
21664W        W94732  19.255   2.028   2.867
21665W        W94733  41.240  21.239  10.737
21666W        W94734  30.433   7.417   4.104
21667W        W94735  29.165   2.337  13.491
21668W        W94736  28.618   2.998   4.237
21669W        W94737  27.990   0.921  10.072
21670W        W94738  16.305  30.770  11.617
21671W        W94739  22.480   1.560   0.348
21672W        W94740   0.700  13.333  12.386
21673W        W94741  38.783  23.783  13.901
21674W        W94742  10.299   8.254   0.459
21675W        W94743  38.163  41.803  14.385
21676W        W94744  34.055  28.743  12.673
21677W        W94745  33.479   1.309   3.753
21678W        W94746   5.133  19.154   3.710
21679W        W94747  21.239  42.465   2.672
21680W        W94748  37.804  33.467   5.046
21681W        W94749   1.496  22.948   2.573
21682W        W94750  41.567  40.922  12.921
21683W        W94751  23.698  10.270  13.023
21684W        W94752  19.515  25.063   1.678
21685W        W94753  24.063  28.157   4.113
21686W        W94754  43.528   2.411  11.024
21687W        W94755  17.574  38.428  10.465
21688W        W94756   9.343  42.874   5.061
21689W        W94757  17.786  20.049  13.787
21690W        W94758  16.143   6.933   0.939
21691W        W94759   1.414  38.397   0.587
21692W        W94760  11.577  27.821  12.708
21693W        W94761   7.345  42.503  14.568
21694W        W94762  15.970  31.540   1.044
21695W        W94763  44.675  35.321   2.239
21696W        W94764   7.173  43.752   3.241
21697W        W94765  38.248  27.853   0.947
21698W        W94766  40.333  39.136   3.657
21699W        W94767   1.693   6.666  10.769
21700W        W94768  13.731  32.028  12.517
21701W        W94769   6.679  10.106   0.488
21702W        W94770   2.409  41.505  13.424
21703W        W94771   0.898  20.600   3.836
21704W        W94772  10.127  28.988  14.704
21705W        W94773  44.594  12.840   2.137
21706W        W94774  17.600  20.431   4.507
21707W        W94775  41.049  14.125   3.643
21708W        W94776  41.982  18.514   1.715
21709W        W94777  34.567  34.108   0.689
21710W        W94778  32.739  26.423   0.884
21711W        W94779  25.059   0.842   3.294
21712W        W94780  34.999  18.478  11.977
21713W        W94781  44.657  11.546  12.912
21714W        W94782  43.441  35.880  13.323
21715W        W94783   3.903   4.846  13.310
21716W        W94784  15.344  18.301   0.088
21717W        W94785   4.208  43.865  11.413
21718W        W94786   1.569  17.539  14.522
21719W        W94787  24.437  40.928   4.234
21720W        W94788   8.925  19.256  12.402
21721W        W94789  28.970  17.281  12.894
21722W        W94790  22.591  24.290   2.745
21723W        W94791   0.444  16.230   2.236
21724W        W94792  25.672  16.604  14.929
21725W        W94793  29.964  14.624  11.519
21726W        W94794   6.139  41.355  14.283
21727W        W94795  24.592   7.269   4.503
21728W        W94796  14.061  40.672   2.770
21729W        W94797  27.091  12.629  11.638
21730W        W94798  20.761   3.543   4.597
21731W        W94799  33.941  33.215  10.471
21732W        W94800  31.542  44.783   4.704
21733W        W94801   3.117  25.609  14.832
21734W        W94802   1.882  20.170   3.788
21735W        W94803  22.588  12.248   2.773
21736W        W94804   6.265  36.324   0.350
21737W        W94805  33.129  38.620   1.712
21738W        W94806  12.699  18.582  14.387
21739W        W94807   9.282  10.102   0.844
21740W        W94808  21.971  17.297   4.380
21741W        W94809  13.780  17.777  11.288
21742W        W94810   6.193   5.634   4.604
21743W        W94811  13.566  32.944   0.347
21744W        W94812  36.605  41.919  14.442
21745W        W94813  26.671  39.265  14.337
21746W        W94814  28.137   5.050   4.438
21747W        W94815  10.867  19.985   0.232
21748W        W94816  21.767  36.877   2.690
21749W        W94817  16.676   2.800   2.014
21750W        W94818  23.994  32.378   3.906
21751W        W94819   8.220  39.748  10.145
21752W        W94820   7.693  10.330   1.316
21753W        W94821   5.917   4.754   0.923
21754W        W94822  31.218  37.878  12.054
21755W        W94823  24.997  43.818  12.525
21756W        W94824  13.391   5.649  12.383
21757W        W94825  34.697   6.753   0.389
21758W        W94826   0.230  40.972  10.767
21759W        W94827   9.275  15.767  11.468
21760W        W94828  32.544   2.025  13.200
21761W        W94829  26.150  26.051   2.292
21762W        W94830  32.884  42.379  11.000
21763W        W94831  29.888  27.119  12.363
21764W        W94832  34.223  13.215   4.604
21765W        W94833  42.507  40.274   0.672
21766W        W94834   6.659  16.451  14.939
21767W        W94835  19.845  40.023  13.606
21768W        W94836  16.576  13.236  10.866
21769W        W94837  12.265  35.918   3.641
21770W        W94838  11.386  27.534  10.895
21771W        W94839  21.610  11.008  10.454
21772W        W94840  17.057  18.096  12.990
21773W        W94841  11.809  14.151   4.602
21774W        W94842  33.114   1.188   2.581
21775W        W94843  29.063  20.958  12.125
21776W        W94844   5.675  13.296   2.901
21777W        W94845  20.313  23.653   4.645
21778W        W94846   8.533  13.872   5.009
21779W        W94847  21.468   1.512   0.766
21780W        W94848  24.657  28.664   1.208
21781W        W94849   5.140  29.361  11.148
21782W        W94850  19.817  35.492   1.233
21783W        W94851  16.516   4.483   3.327
21784W        W94852  12.565  28.901   4.828
21785W        W94853  30.298  33.427  11.231
21786W        W94854  38.516  33.964  13.942
21787W        W94855  33.208  11.451  13.112
21788W        W94856  32.914  36.549  14.575
21789W        W94857  29.054  21.324  10.766
21790W        W94858  37.067  39.917  13.128
21791W        W94859  22.068  31.425  12.369
21792W        W94860  26.649  28.942  12.111
21793W        W94861   8.088  37.432   3.068
21794W        W94862  32.533  32.893   2.701
21795W        W94863   2.553   6.190  13.030
21796W        W94864  22.144  18.711   9.794
21797W        W94865   3.072  26.667   0.434
21798W        W94866   7.441   0.319   1.339
21799W        W94867  23.842   2.407  12.934
21800W        W94868  40.876  30.672  11.654
21801W        W94869  34.482  44.542  12.235
21802W        W94870  36.555  12.127   0.724
21803W        W94871  33.468  35.397  11.124
21804W        W94872  24.915  30.589  14.325
21805W        W94873   7.487  13.288  14.896
21806W        W94874  11.621  13.595   3.685
21807W        W94875  43.858   2.101   2.220
21808W        W94876  37.890   5.281   3.658
21809W        W94877  12.047  31.365  14.962
21810W        W94878  39.045  30.097   4.154
21811W        W94879  40.006   1.152   4.699
21812W        W94880  22.465   9.905  11.570
21813W        W94881  35.762   2.413  12.084
21814W        W94882  20.749  11.248  13.474
21815W        W94883  20.597  18.260   3.147
21816W        W94884  17.265  33.823  11.129
21817W        W94885  12.883  23.212   0.172
21818W        W94886   1.233  36.043   2.840
21819W        W94887  10.409  16.887  14.922
21820W        W94888  38.126   2.450   2.003
21821W        W94889   0.897  35.267  13.548
21822W        W94890  38.972  35.784   3.134
21823W        W94891  38.919  10.437  13.845
21824W        W94892  27.589   7.247  10.646
21825W        W94893  37.129  38.533  12.183
21826W        W94894  37.654   0.733  11.849
21827W        W94895  11.605  42.802   1.653
21828W        W94896  24.981   4.409  12.336
21829W        W94897  23.521   5.245  10.579
21830W        W94898  17.647  21.448   2.608
21831W        W94899  11.246   9.879   1.658
21832W        W94900  13.482  15.127  10.899
21833W        W94901  15.597  12.250   4.852
21834W        W94902  18.706  24.266   0.479
21835W        W94903  27.954  40.563   1.781
21836W        W94904  27.863   3.475  13.478
21837W        W94905   2.629  25.605   0.050
21838W        W94906  42.480   3.409   4.643
21839W        W94907  28.282  35.996   1.777
21840W        W94908  14.322  13.578   5.073
21841W        W94909  18.132  20.729  13.078
21842W        W94910  30.569  15.190  13.586
21843W        W94911  33.149  31.619   4.530
21844W        W94912  39.833  17.053   4.472
21845W        W94913  30.950  19.603  11.898
21846W        W94914  20.619  12.149   4.183
21847W        W94915  20.540  16.236  13.483
21848W        W94916  40.415  41.287   0.428
21849W        W94917  21.332  38.309  14.089
21850W        W94918  17.488  12.274   0.220
21851W        W94919  20.374  40.298   2.180
21852W        W94920   1.951   0.770   3.741
21853W        W94921  39.592  39.821   1.499
21854W        W94922  26.763   6.915  14.753
21855W        W94923  11.491   1.614   2.805
21856W        W94924  33.066  34.539   3.167
21857W        W94925   1.401  35.141   1.238
21858W        W94926  17.668  17.336  11.584
21859W        W94927  34.582   8.175  11.494
21860W        W94928  17.577  18.782  12.597
21861W        W94929   1.792   9.456  12.781
21862W        W94930  25.756  37.821  14.434
21863W        W94931   6.842  22.258   3.277
21864W        W94932  35.812  16.607   2.750
21865W        W94933  21.980  39.500   3.571
21866W        W94934   0.417  11.812   2.388
21867W        W94935   2.701  38.006   0.858
21868W        W94936   3.355  34.886   3.956
21869W        W94937  24.010  14.664   1.863
21870W        W94938  38.287  19.592   4.894
21871W        W94939  41.463  26.973   4.236
21872W        W94940  17.119  29.202  14.351
21873W        W94941  41.222  11.207   1.295
21874W        W94942  40.534   7.662   3.768
21875W        W94943   4.483   5.438   0.812
21876W        W94944   4.108  32.016  12.831
21877W        W94945   3.942  17.613  14.299
21878W        W94946  30.996  38.039  14.938
21879W        W94947  15.590   7.693  11.207
21880W        W94948  39.831  31.988  13.370
21881W        W94949  34.092  32.155  13.251
21882W        W94950  39.538  25.375   2.766
21883W        W94951  16.061   4.228  11.438
21884W        W94952  12.261   4.122  11.145
21885W        W94953  41.284   6.826  10.740
21886W        W94954  37.879  12.779   4.067
21887W        W94955  38.891   5.523  11.567
21888W        W94956   1.067  38.835  14.307
21889W        W94957  28.505  15.605  10.286
21890W        W94958   2.941  17.847  12.790
21891W        W94959   7.793  13.556   3.760
21892W        W94960  40.471  30.328  11.527
21893W        W94961  37.386  34.587   0.320
21894W        W94962  10.764  23.562  10.583
21895W        W94963  44.247  28.982  13.858
21896W        W94964  38.396  36.086  13.992
21897W        W94965  29.009  41.042  14.823
21898W        W94966  34.762  10.742  11.849
21899W        W94967  27.689   5.452   3.634
21900W        W94968  44.969  41.569  11.597
21901W        W94969   9.195  34.265   4.070
21902W        W94970  21.149   7.455   1.780
21903W        W94971  38.582  22.476   2.454
21904W        W94972  35.926  37.125   1.243
21905W        W94973   3.196  39.749  13.460
21906W        W94974  26.107   2.717  12.908
21907W        W94975  32.665  24.966  12.081
21908W        W94976   8.961  25.045   3.181
21909W        W94977  16.173   4.393   0.891
21910W        W94978  35.028  38.346   4.577
21911W        W94979   5.722   4.894   4.884
21912W        W94980   0.832  15.008  13.167
21913W        W94981  35.325  16.619  11.167
21914W        W94982   7.996   2.986   4.224
21915W        W94983   5.152   8.121   3.830
21916W        W94984  12.341  43.276   4.151
21917W        W94985   0.951   2.789   0.789
21918W        W94986   2.797  39.981  12.499
21919W        W94987  19.080  27.715   1.738
21920W        W94988   9.265  41.572   3.623
21921W        W94989  14.061  23.123  11.070
21922W        W94990  35.593   7.475   2.858
21923W        W94991  33.449  37.394  12.959
21924W        W94992  35.647  29.667  12.416
21925W        W94993   9.830  33.098   3.647
21926W        W94994  42.477  14.940   0.045
21927W        W94995  33.467  29.511   1.255
21928W        W94996  32.878  31.864   2.350
21929W        W94997  29.236   8.650  11.488
21930W        W94998  39.012  12.654   0.450
21931W        W94999  26.475  42.854  10.799
21932W        W95000  13.297  19.265   1.282
21933W        W95001  17.055  39.483  13.023
21934W        W95002  17.825   0.088   2.764
21935W        W95003  29.922  20.002   2.878
21936W        W95004   6.215  33.606  10.698
21937W        W95005  23.344   3.979  11.733
21938W        W95006  16.330  42.414  13.391
21939W        W95007  38.812  40.475   2.289
21940W        W95008  19.024   6.765   2.766
21941W        W95009  35.903  21.963  11.851
21942W        W95010  15.602  40.458   4.552
21943W        W95011  44.891  20.732   0.456
21944W        W95012  14.358  23.020   1.354
21945W        W95013  18.681  37.959  13.063
21946W        W95014  32.669  30.706  14.364
21947W        W95015   3.973  19.747  10.345
21948W        W95016  36.516   8.869   1.144
21949W        W95017  38.931  36.620  13.606
21950W        W95018  32.302   3.114  14.469
21951W        W95019   6.934  43.846   2.772
21952W        W95020  41.028  34.924   4.944
21953W        W95021   3.860  27.454  12.105
21954W        W95022   2.316  14.592   4.402
21955W        W95023  14.329   0.239   0.296
21956W        W95024  37.593  43.204  10.683
21957W        W95025  18.724  27.454  13.275
21958W        W95026  21.335  40.244  14.883
21959W        W95027  21.080  22.176  14.017
21960W        W95028   3.422   7.629   2.725
21961W        W95029  41.032  38.335   2.779
21962W        W95030   8.641  23.299  13.596
21963W        W95031  12.213  23.216  11.473
21964W        W95032  31.968  36.071   0.863
21965W        W95033  15.241  14.206  12.840
21966W        W95034   7.973  33.152  10.944
21967W        W95035  29.021   0.413   0.942
21968W        W95036   3.901  24.865   2.544
21969W        W95037  39.817   3.500   0.229
21970W        W95038   9.258  39.462   2.765
21971W        W95039  43.915  31.424   1.463
21972W        W95040  32.410  21.197   1.795
21973W        W95041  18.814   1.760   2.801
21974W        W95042  27.948  34.533   3.353
21975W        W95043  14.460   8.651   4.484
21976W        W95044   0.050  41.490  12.499
21977W        W95045  34.924  24.319  11.201
21978W        W95046  21.041  40.739   1.255
21979W        W95047  18.103   9.816  14.023
21980W        W95048  39.505   4.574   2.861
21981W        W95049  34.630  44.923   3.644
21982W        W95050  16.560   6.305   4.364
21983W        W95051  35.755  22.603  14.566
21984W        W95052  36.556  10.208   0.653
21985W        W95053   1.433  26.501  13.156
21986W        W95054   8.369   1.406  14.503
21987W        W95055  28.135  40.589  12.551
21988W        W95056  19.722  41.980  12.487
21989W        W95057  32.059   2.868   0.120
21990W        W95058  25.490  12.279   3.425
21991W        W95059  30.998  17.791   4.734
21992W        W95060   5.770  35.516  14.614
21993W        W95061  10.625   8.649  13.825
21994W        W95062   2.494   0.803   4.243
21995W        W95063  43.234  40.453   2.403
21996W        W95064   6.121  19.092   3.753
21997W        W95065   7.120   9.961  11.737
21998W        W95066  19.910   0.333  14.982
21999W        W95067  35.714  22.024   0.703
22000W        W95068  43.862   0.672   3.807
22001W        W95069  20.563  15.316  14.842
22002W        W95070  17.175  39.933   1.737
22003W        W95071  27.507  18.214   2.326
22004W        W95072  35.802  40.213   3.360
22005W        W95073  22.710   6.467  14.341
22006W        W95074   1.029  16.638   3.770
22007W        W95075  35.634  30.382   0.410
22008W        W95076   8.213  19.036   2.971
22009W        W95077   4.106   5.993  11.567
22010W        W95078   6.755  40.581  10.658
22011W        W95079  33.996  12.364   4.889
22012W        W95080  24.612  23.032  13.759
22013W        W95081   1.797  13.099   0.819
22014W        W95082  29.557  35.230  12.071
22015W        W95083   7.876  24.618   2.246
22016W        W95084  25.831  11.442   2.124
22017W        W95085  29.582  30.036   3.377
22018W        W95086   1.664  32.493  12.052
22019W        W95087  24.146   1.230  10.449
22020W        W95088  41.970  31.959  14.988
22021W        W95089  35.097   0.248  13.324
22022W        W95090   4.812  18.284   2.204
22023W        W95091  15.126  37.889  10.684
22024W        W95092  10.719  43.525   3.607
22025W        W95093   8.696  35.252   1.292
22026W        W95094  10.416  30.642   4.274
22027W        W95095  30.537  12.067  11.853
22028W        W95096  27.031  25.276  10.996
22029W        W95097  28.313  12.739   0.427
22030W        W95098  23.149  22.143   2.740
22031W        W95099  13.661  23.693  14.241
22032W        W95100  20.585  21.885   3.644
22033W        W95101  39.495  23.822   2.654
22034W        W95102  35.035  14.510   0.907
22035W        W95103  30.079   6.539  11.917
22036W        W95104  35.500  37.402   1.363
22037W        W95105  14.070  24.612  13.757
22038W        W95106  25.962   4.093   3.259
22039W        W95107   8.930  20.719   2.340
22040W        W95108  11.343  43.396   1.370
22041W        W95109   1.655  29.987   0.624
22042W        W95110  42.994  27.012   0.969
22043W        W95111  11.133  19.540  12.570
22044W        W95112  40.494  43.388  14.806
22045W        W95113  38.532  34.939  11.055
22046W        W95114  42.710  30.818  13.065
22047W        W95115  22.909   4.073   3.598
22048W        W95116   3.088   6.920   1.661
22049W        W95117  43.187  31.545   3.256
22050W        W95118  41.002  42.935   1.445
22051W        W95119  40.459  27.614   2.366
22052W        W95120  29.374  25.184   2.296
22053W        W95121  34.702   6.714  12.078
22054W        W95122  20.116  25.771  12.934
22055W        W95123  21.796  28.661   0.212
22056W        W95124  12.370  31.673   2.816
22057W        W95125  37.485  23.654   1.701
22058W        W95126  12.719  26.628   2.445
22059W        W95127   3.903   4.248  14.852
22060W        W95128   7.887   3.167   0.587
22061W        W95129  26.234  13.591  11.617
22062W        W95130  17.529  17.788   1.668
22063W        W95131  38.907  43.445   2.799
22064W        W95132  24.527  35.696  12.877
22065W        W95133  20.835  25.598   0.808
22066W        W95134   5.373   5.351  11.554
22067W        W95135  19.109  33.391   1.832
22068W        W95136  17.555   6.440  10.605
22069W        W95137   1.292   3.824   4.672
22070W        W95138  34.083  36.949  12.317
22071W        W95139  17.192  21.222   2.718
22072W        W95140  28.376  29.396   1.827
22073W        W95141   6.516   3.597   3.795
22074W        W95142  35.654  38.321   3.305
22075W        W95143  36.513  30.676  13.815
22076W        W95144   1.498   3.508  10.659
22077W        W95145  11.785  25.199  12.607
22078W        W95146  42.911  30.245   4.198
22079W        W95147   2.331  34.004   0.104
22080W        W95148   3.675  32.826   4.860
22081W        W95149  12.676  20.270  11.328
22082W        W95150  32.297  22.695  11.948
22083W        W95151  43.670  31.013   4.146
22084W        W95152  43.968  22.042  13.406
22085W        W95153  29.787  19.506  14.802
22086W        W95154   9.673  17.077   1.927
22087W        W95155   5.430  17.751   4.691
22088W        W95156  28.000  38.531   3.203
22089W        W95157  33.464  10.748  11.269
22090W        W95158  33.901   7.708   3.151
22091W        W95159   9.320  12.425  10.752
22092W        W95160  37.320  37.099   0.249
22093W        W95161  15.810  32.366   3.842
22094W        W95162  11.174  21.579   0.337
22095W        W95163  36.243  10.785   2.171
22096W        W95164  32.106   3.432   2.605
22097W        W95165  44.924   6.372   4.509
22098W        W95166   5.945  24.447  14.490
22099W        W95167  24.054  29.060  11.097
22100W        W95168  32.945  29.973  10.855
22101W        W95169  17.090   6.430  11.052
22102W        W95170  35.448  26.301   0.886
22103W        W95171   5.476   3.627   5.021
22104W        W95172  25.643  40.055   4.443
22105W        W95173  19.024   1.788   3.281
22106W        W95174  13.137  40.538   2.635
22107W        W95175  30.200  26.967   1.290
22108W        W95176  39.528  32.680  10.330
22109W        W95177  44.440  27.815  11.831
22110W        W95178   2.657  26.550  13.995
22111W        W95179  11.380  11.831  10.639
22112W        W95180   0.078  31.108  13.500
22113W        W95181   8.778   5.778   2.146
22114W        W95182  35.596   8.614  11.991
22115W        W95183  12.280  22.765  10.671
22116W        W95184  21.732  39.454   2.175
22117W        W95185   6.820  32.865   1.793
22118W        W95186  33.472  24.785  13.336
22119W        W95187  38.911  23.414   0.973
22120W        W95188  28.532   7.803   0.395
22121W        W95189  39.688  10.846  12.592
22122W        W95190  23.518  36.693   2.973
22123W        W95191  42.298  25.597  12.331
22124W        W95192  27.584   4.036  11.901
22125W        W95193  44.907  26.456  12.373
22126W        W95194  28.664  28.546  14.416
22127W        W95195  12.322  13.548   0.815
22128W        W95196  41.507  41.681   3.750
22129W        W95197  35.268  39.897  10.826
22130W        W95198  25.479  28.855  14.848
22131W        W95199   4.903   9.667  10.586
22132W        W95200  41.889  28.466  10.454
22133W        W95201  12.558  25.642  13.524
22134W        W95202  36.681  41.453   3.193
22135W        W95203   9.740   0.942  10.498
22136W        W95204  27.466  44.791  12.862
22137W        W95205  28.540  30.596  11.575
22138W        W95206  30.929  31.876  14.092
22139W        W95207  30.488   9.378   4.243
22140W        W95208   2.227  28.066  13.988
22141W        W95209  14.181   8.556   1.490
22142W        W95210  21.745  15.848   3.752
22143W        W95211  28.463  12.175   4.483
22144W        W95212  22.031   6.196  12.999
22145W        W95213  36.559   6.072  12.363
22146W        W95214  36.998  43.326  10.885
22147W        W95215  25.277  44.539  10.251
22148W        W95216  16.216  24.888  13.442
22149W        W95217  13.645   5.952  13.798
22150W        W95218  38.473  23.599   4.592
22151W        W95219  21.983   6.268  13.911
22152W        W95220   9.576  21.258   5.037
22153W        W95221   3.817  18.195   2.250
22154W        W95222   6.906  28.246   3.383
22155W        W95223  14.486   2.056   4.226
22156W        W95224  36.590  38.147   0.733
22157W        W95225  37.196  21.222   1.672
22158W        W95226   6.732  36.109  13.234
22159W        W95227  10.733  38.575  13.067
22160W        W95228   6.365  31.198  10.711
22161W        W95229  25.848  40.211  13.096
22162W        W95230  33.462   0.302   1.855
22163W        W95231   7.851  21.473  11.916
22164W        W95232   8.894  18.844   1.627
22165W        W95233   5.803   2.385  10.616
22166W        W95234  43.963  34.647   2.198
22167W        W95235  28.533   8.709   0.957
22168W        W95236  42.815  13.146   2.399
22169W        W95237   2.648  30.629  11.996
22170W        W95238  22.718  15.833   1.954
22171W        W95239   2.726  18.815   4.116
22172W        W95240  37.438  15.200  13.364
22173W        W95241  34.391  33.099  10.712
22174W        W95242  33.140  24.476  11.309
22175W        W95243  11.187  42.543   1.829
22176W        W95244  38.861  29.626   4.348
22177W        W95245  13.875  19.754  11.890
22178W        W95246  10.208  28.270   2.707
22179W        W95247   4.911  20.611   4.710
22180W        W95248   8.427  33.394  12.533
22181W        W95249  24.491  11.715  14.280
22182W        W95250  25.584  12.153   1.369
22183W        W95251  32.453  29.011  13.383
22184W        W95252  12.314   5.362  11.556
22185W        W95253  18.240  28.649  14.415
22186W        W95254  11.463   5.701  10.716
22187W        W95255  40.419  16.175   4.663
22188W        W95256  42.270  17.156  10.262
22189W        W95257  21.289  28.163  12.416
22190W        W95258  24.613  43.415   4.100
22191W        W95259  38.860  43.211  12.044
22192W        W95260   0.355  34.894  12.837
22193W        W95261  10.591  40.550  10.630
22194W        W95262  22.269  28.584  11.525
22195W        W95263  18.967  13.130  12.915
22196W        W95264   2.916  13.031  12.592
22197W        W95265   3.498  13.414  10.388
22198W        W95266  27.682  27.749  12.453
22199W        W95267   4.151   5.269  13.535
22200W        W95268  36.258  37.897   0.384
22201W        W95269  28.897  33.114   1.900
22202W        W95270   2.730  34.375   0.984
22203W        W95271  10.896  35.412  11.163
22204W        W95272  31.555  24.200  13.952
22205W        W95273  30.582  34.642  13.694
22206W        W95274   6.366  34.448  10.678
22207W        W95275  34.979  29.900   2.792
22208W        W95276   6.712  43.024  11.025
22209W        W95277  31.644  11.137  12.447
22210W        W95278   8.340  24.339   0.865
22211W        W95279  30.566  18.249  12.484
22212W        W95280  30.608  39.754   1.687
22213W        W95281  30.930  17.835  14.118
22214W        W95282  33.063  38.783   0.417
22215W        W95283   5.783  23.215  14.854
22216W        W95284  19.891   0.888   3.216
22217W        W95285   0.246   9.478  13.031
22218W        W95286  33.310   0.716  11.554
22219W        W95287  12.403   1.839   2.555
22220W        W95288   6.863   3.916   2.197
22221W        W95289   1.919  24.615  12.978
22222W        W95290  42.789   2.849   1.230
22223W        W95291  14.811  16.552  10.570
22224W        W95292  34.548  23.195  13.469
22225W        W95293  36.344  27.739   2.319
22226W        W95294  10.542   3.303   3.801
22227W        W95295  21.477   2.558  13.398
22228W        W95296  20.987  43.491   0.727
22229W        W95297  34.502  42.569   1.894
22230W        W95298  25.404  19.286  12.114
22231W        W95299  38.561  26.935  10.574
22232W        W95300  12.094  12.019  11.540
22233W        W95301  20.599   4.747  14.337
22234W        W95302  40.627  10.791  14.546
22235W        W95303  19.179   2.465  14.809
22236W        W95304  24.508  33.840  10.721
22237W        W95305  13.251  12.751   2.843
22238W        W95306  36.827  25.752   1.798
22239W        W95307  23.737  26.667  13.329
22240W        W95308   9.136   6.696   4.003
22241W        W95309   7.197  24.060  14.013
22242W        W95310  16.239   6.211   3.199
22243W        W95311   0.328  37.958   2.080
22244W        W95312  20.673  12.068   2.921
22245W        W95313  33.877  40.619   0.848
22246W        W95314  10.588  44.710  14.606
22247W        W95315  33.437  21.122  12.473
22248W        W95316   8.830  40.839   0.325
22249W        W95317  19.533  42.414  11.125
22250W        W95318  40.903  34.533   1.554
22251W        W95319  44.080  13.208   4.032
22252W        W95320   1.376   8.915  11.881
22253W        W95321   1.862   9.899  10.989
22254W        W95322  12.526  10.805   2.143
22255W        W95323  34.327   9.255  14.268
22256W        W95324  22.534   6.898   4.914
22257W        W95325  31.744  39.597   2.437
22258W        W95326  43.511  39.894   3.724
22259W        W95327  24.145  37.453  14.131
22260W        W95328  26.364  33.450   4.085
22261W        W95329   1.494  10.616  13.384
22262W        W95330  28.415  10.646   3.660
22263W        W95331  35.199  15.234   0.473
22264W        W95332  18.072  18.067  12.547
22265W        W95333  40.368  30.593   0.267
22266W        W95334  25.999  29.109   3.615
22267W        W95335  23.252  16.192  13.922
22268W        W95336   2.050   4.882  14.970
22269W        W95337  43.731  12.003   0.242
22270W        W95338   4.609  28.420  14.397
22271W        W95339  18.105  20.623  12.576
22272W        W95340  15.292   8.759  11.328
22273W        W95341   3.926  38.383  10.468
22274W        W95342  20.560  26.384  14.821
22275W        W95343  29.861  13.112   1.694
22276W        W95344  20.185  28.510   2.141
22277W        W95345   9.228  23.284   2.712
22278W        W95346  34.096  43.553  14.332
22279W        W95347  34.495  18.313  12.037
22280W        W95348  27.485  38.647   3.738
22281W        W95349  37.411   0.236   4.022
22282W        W95350  13.356  10.462   9.965
22283W        W95351   3.044  24.156   0.818
22284W        W95352   3.604  30.162  11.132
22285W        W95353  19.402   1.832  13.094
22286W        W95354  42.534   7.392   1.712
22287W        W95355   0.890   4.689   3.602
22288W        W95356   0.020  11.210   0.435
22289W        W95357  21.695   6.354   1.637
22290W        W95358  32.548  25.059   3.870
22291W        W95359  43.295  35.451   1.163
22292W        W95360  18.810   0.364   2.869
22293W        W95361   8.447  41.913   9.815
22294W        W95362   6.679  35.168  13.656
22295W        W95363  29.097  13.476  11.171
22296W        W95364  32.169  13.827  14.074
22297W        W95365  26.442  12.328   4.753
22298W        W95366  20.259  22.019  12.455
22299W        W95367  40.035  22.939   2.743
22300W        W95368  30.057  38.413  11.890
22301W        W95369  28.397  27.459   3.405
22302W        W95370  21.773  34.644  10.680
22303W        W95371   2.942  15.869   1.886
22304W        W95372   8.453  34.526  13.147
22305W        W95373  18.100  16.967  14.153
22306W        W95374   6.916  26.133  11.020
22307W        W95375  13.361  40.461  12.746
22308W        W95376  39.516  31.175  14.913
22309W        W95377  11.355  29.201   3.705
22310W        W95378  30.132  40.825  14.398
22311W        W95379  21.170  28.546   4.220
22312W        W95380  44.724  16.533   2.140
22313W        W95381  29.117  40.499  13.544
22314W        W95382  26.230  22.532  12.059
22315W        W95383  18.781  15.149   3.309
22316W        W95384   3.786   7.254  12.161
22317W        W95385  42.535  24.039   2.655
22318W        W95386   6.041  14.996   2.177
22319W        W95387  18.468  36.109  11.088
22320W        W95388  27.383  11.142  14.924
22321W        W95389  32.081  24.727  11.570
22322W        W95390   0.440  16.520   3.147
22323W        W95391  37.388  37.417   2.065
22324W        W95392  10.222  41.857  14.911
22325W        W95393  38.807  26.445   2.752
22326W        W95394  38.492  35.184  12.841
22327W        W95395  32.825   0.803   0.881
22328W        W95396  18.941  25.963   2.417
22329W        W95397  37.151   6.400  14.292
22330W        W95398  39.574  33.632  10.640
22331W        W95399   7.818  16.383   1.753
22332W        W95400   9.656  11.343   4.584
22333W        W95401  19.295  10.383  13.456
22334W        W95402  43.479   2.018  14.805
22335W        W95403  44.741  23.222  12.998
22336W        W95404   8.413  29.714   3.404
22337W        W95405  21.055   9.995   0.245
22338W        W95406  10.705  25.580   0.910
22339W        W95407  25.129  16.160  14.472
22340W        W95408   6.790  28.655  12.645
22341W        W95409  18.452  42.798  13.852
22342W        W95410  37.616  28.500   3.211
22343W        W95411  28.012   8.782   1.687
22344W        W95412  22.458  15.291  11.433
22345W        W95413   2.455  10.880  11.896
22346W        W95414   6.957  40.381   3.524
22347W        W95415   3.284  10.066  13.481
22348W        W95416  34.317  40.733  13.407
22349W        W95417   8.202   6.994  11.435
22350W        W95418   4.926  14.320   4.929
22351W        W95419   6.966  30.166  13.872
22352W        W95420  24.235  33.542  14.914
22353W        W95421  12.341   4.418  12.414
22354W        W95422  39.891  28.701   1.997
22355W        W95423  21.728  26.136  11.693
22356W        W95424  40.723  39.001   4.385
22357W        W95425  28.580  11.775   4.805
22358W        W95426  44.394   6.525  13.412
22359W        W95427   3.769  28.276   3.989
22360W        W95428  10.214   0.399   2.322
22361W        W95429  42.311   9.443   2.732
22362W        W95430  37.113  10.816  11.148
22363W        W95431  11.177  38.053   0.906
22364W        W95432  15.780  14.151  11.954
22365W        W95433  38.775  32.217  10.647
22366W        W95434  21.593  35.612  11.548
22367W        W95435  16.305   1.534   4.370
22368W        W95436  35.045  32.166   1.678
22369W        W95437  44.776  43.080   1.676
22370W        W95438  33.983  32.890  11.537
22371W        W95439   4.758   7.202  10.411
22372W        W95440  29.197   6.861   1.309
22373W        W95441   7.211  27.096  12.398
22374W        W95442  29.541   7.472  10.930
22375W        W95443  21.230  17.057   3.285
22376W        W95444  20.103  13.980   0.023
22377W        W95445  26.005  26.194   1.806
22378W        W95446  11.906  30.341  10.930
22379W        W95447  41.987   7.476  14.898
22380W        W95448  20.842  29.135  13.239
22381W        W95449   5.153  25.994   3.758
22382W        W95450  17.527  22.645  12.843
22383W        W95451  13.655  33.615  14.224
22384W        W95452  17.118   5.211   4.374
22385W        W95453  29.078  32.783  11.533
22386W        W95454  38.416  21.029   1.778
22387W        W95455  18.636  27.173  11.545
22388W        W95456  41.355   4.430   0.856
22389W        W95457  36.373  18.089  11.167
22390W        W95458   9.077  27.079   0.797
22391W        W95459  22.268  10.685  10.668
22392W        W95460  38.992  43.842  13.982
22393W        W95461  35.004  37.856   2.723
22394W        W95462  16.582  34.975   2.838
22395W        W95463   8.272   1.184  14.042
22396W        W95464  10.476  34.157  12.970
22397W        W95465  39.462  25.703  14.916
22398W        W95466  19.697  42.898   0.866
22399W        W95467  31.435  27.552  14.844
22400W        W95468  12.152  18.663  12.071
22401W        W95469   7.043   0.952  10.965
22402W        W95470  27.601  13.511  11.618
22403W        W95471  16.326  44.658   4.117
22404W        W95472  17.823  22.311  14.890
22405W        W95473  20.241  10.738   3.603
22406W        W95474  20.652  15.308  12.427
22407W        W95475  37.674  42.388   4.764
22408W        W95476  12.002  27.422   1.381
22409W        W95477   1.437  11.684   0.700
22410W        W95478  11.028  39.100   0.641
22411W        W95479  10.374   6.180  13.084
22412W        W95480   5.284  14.049  13.010
22413W        W95481  11.967  20.793   1.909
22414W        W95482  24.052  31.013   4.055
22415W        W95483  42.309  29.953  11.193
22416W        W95484  38.159   2.223  14.300
22417W        W95485   9.071  31.875  10.859
22418W        W95486  25.689  18.051  14.283
22419W        W95487   7.681  20.490   0.323
22420W        W95488   8.899  14.630  11.626
22421W        W95489  31.785  22.782   2.360
22422W        W95490   5.937  44.427   1.613
22423W        W95491  17.286  34.279  14.815
22424W        W95492  23.732  33.166   0.508
22425W        W95493  21.684  14.845   3.319
22426W        W95494  21.691   6.448   4.870
22427W        W95495  44.565  10.966   0.392
22428W        W95496   9.525  17.048   4.605
22429W        W95497  20.269   8.128   2.775
22430W        W95498  18.819  12.824   4.125
22431W        W95499   6.259   6.620  13.169
22432W        W95500   8.894  21.180  13.978
22433W        W95501  13.899  23.728   1.984
22434W        W95502  23.167   1.246   0.937
22435W        W95503   8.300   9.154   4.836
22436W        W95504  29.166  14.717   0.339
22437W        W95505   9.739  29.386  11.103
22438W        W95506  35.147  12.710  10.387
22439W        W95507   1.222  20.187  10.577
22440W        W95508  19.573   3.406  13.534
22441W        W95509  16.771  10.784  11.927
22442W        W95510  20.635  19.764  14.855
22443W        W95511  19.746  16.831   4.575
22444W        W95512  38.184  14.115  11.966
22445W        W95513  37.046  20.297   1.791
22446W        W95514  41.069  27.157   1.814
22447W        W95515  36.329  30.130   1.733
22448W        W95516   8.120  38.422   1.458
22449W        W95517  17.165  22.038   2.146
22450W        W95518   2.649   0.944   3.075
22451W        W95519  31.071  29.049   4.325
22452W        W95520  27.233  14.153  13.901
22453W        W95521  22.656  30.956  14.709
22454W        W95522  41.039  23.290   4.259
22455W        W95523   3.783  23.081  13.555
22456W        W95524  43.796  42.035   4.634
22457W        W95525  19.228  33.492   0.258
22458W        W95526  20.188  12.088   2.764
22459W        W95527  43.594  24.701  13.374
22460W        W95528   3.542   5.715   2.745
22461W        W95529  34.529   2.312   2.077
22462W        W95530  36.607  33.561  13.054
22463W        W95531   2.480  17.193   1.389
22464W        W95532   7.167  30.062  11.546
22465W        W95533  26.709  13.570  14.717
22466W        W95534  20.115  23.952  11.102
22467W        W95535  12.125  10.414  13.421
22468W        W95536  38.550   8.167   2.246
22469W        W95537  12.671  41.646  13.612
22470W        W95538  25.452  18.231   5.165
22471W        W95539  33.309   8.644  10.041
22472W        W95540   7.149  16.334  13.777
22473W        W95541   1.756  16.221   1.851
22474W        W95542  25.166  29.515  10.984
22475W        W95543  34.446  38.849   3.337
22476W        W95544  24.021  32.122  12.940
22477W        W95545  42.977  30.474  13.849
22478W        W95546  28.094  29.127   0.165
22479W        W95547  41.856  11.661  13.051
22480W        W95548  17.648  39.040  12.117
22481W        W95549  17.369   8.635  13.251
22482W        W95550  24.142  39.357   4.969
22483W        W95551  39.984   0.676  11.161
22484W        W95552  40.416   1.457  12.548
22485W        W95553   2.130  26.913   0.233
22486W        W95554  35.373   5.585   1.681
22487W        W95555   1.345  26.851  12.434
22488W        W95556  23.201  14.788  11.610
22489W        W95557  35.807  26.578   2.901
22490W        W95558  25.305  24.034  11.668
22491W        W95559   2.529  33.693   4.070
22492W        W95560  21.564   6.356   0.634
22493W        W95561  44.327   1.771  11.893
22494W        W95562  17.763  33.835  11.194
22495W        W95563  24.736  12.087  11.594
22496W        W95564  16.779  32.868   1.897
22497W        W95565  40.132   7.313   4.758
22498W        W95566  16.767   1.737   4.514
22499W        W95567  37.668  18.476   3.639
22500W        W95568   0.963  26.871   2.278
22501W        W95569  35.046   1.995  11.052
22502W        W95570  10.790  21.287   2.775
22503W        W95571  13.914  36.364   2.288
22504W        W95572  31.946  15.385   4.482
22505W        W95573  39.525  11.323  12.722
22506W        W95574  39.373  15.787   4.268
22507W        W95575   2.905  41.310  10.652
22508W        W95576  11.671  30.993   4.556
22509W        W95577  34.897  36.379  12.435
22510W        W95578   9.401  24.061  14.995
22511W        W95579   7.777   6.889   4.364
22512W        W95580  37.874  32.212   1.876
22513W        W95581   8.443  23.588   1.563
22514W        W95582  21.386  36.794  12.078
22515W        W95583  10.369  30.164   1.279
22516W        W95584  20.332  27.441  13.362
22517W        W95585  20.567   4.980   1.915
22518W        W95586  18.782   5.900  10.453
22519W        W95587  21.808  16.063   2.734
22520W        W95588   1.521  14.225  11.603
22521W        W95589  40.466  27.494  12.351
22522W        W95590   3.455  15.781   1.801
22523W        W95591  35.605  13.106  14.424
22524W        W95592  21.207  16.360  10.821
22525W        W95593   2.206   3.257   5.038
22526W        W95594  19.804  26.554   1.846
22527W        W95595   0.928  22.313   2.272
22528W        W95596   4.381  20.231  10.967
22529W        W95597  43.460   5.092   1.002
22530W        W95598  14.319  35.683  13.404
22531W        W95599  18.693  12.541   2.246
22532W        W95600  19.205  22.018  12.917
22533W        W95601   9.357  44.022  14.974
22534W        W95602  27.980  13.375   3.756
22535W        W95603  28.596  28.994   3.196
22536W        W95604  38.464  24.440   4.565
22537W        W95605   1.449  11.401  13.778
22538W        W95606  31.388   3.126  13.377
22539W        W95607   3.282   4.401   1.880
22540W        W95608  31.993   8.080   0.883
22541W        W95609  19.565   5.701   1.043
22542W        W95610  27.231  12.561   0.534
22543W        W95611   2.899  29.203   3.720
22544W        W95612  15.268  11.190  11.253
22545W        W95613  23.273  34.094  12.473
22546W        W95614   8.187   1.996  11.986
22547W        W95615  40.478  32.595  11.964
22548W        W95616   0.354  17.827  14.870
22549W        W95617  29.192  10.370   0.817
22550W        W95618  22.226  18.617   1.207
22551W        W95619  39.836  40.464   3.591
22552W        W95620   0.462  12.783  12.952
22553W        W95621  40.279  26.594  12.905
22554W        W95622  26.292  31.025   1.675
22555W        W95623  38.545  31.314   2.280
22556W        W95624  31.404  38.881  10.648
22557W        W95625  38.402  44.888   2.141
22558W        W95626   0.643  42.324   2.258
22559W        W95627  43.524  16.758  13.902
22560W        W95628  27.329  39.840  13.396
22561W        W95629  16.354   4.259  10.763
22562W        W95630  43.977  29.440   3.104
22563W        W95631  37.225  43.249   4.583
22564W        W95632   8.032  24.115   3.684
22565W        W95633  16.854  19.669   2.270
22566W        W95634   7.372  29.758   1.712
22567W        W95635  30.864  34.666   0.052
22568W        W95636  14.636  14.642   2.898
22569W        W95637  14.378  32.100   2.656
22570W        W95638   4.404  11.830   1.219
22571W        W95639  26.189  39.141   2.233
22572W        W95640   7.874  25.428  12.540
22573W        W95641  36.849  12.565  12.454
22574W        W95642   0.066  38.790  12.610
22575W        W95643   1.719  43.618   2.895
22576W        W95644  16.666  44.995  14.301
22577W        W95645   0.249  17.967   2.277
22578W        W95646   2.292  35.428  13.115
22579W        W95647  12.228  29.968   2.925
22580W        W95648   2.458  34.785   3.329
22581W        W95649   1.783  28.910   3.187
22582W        W95650  26.797  31.956  13.499
22583W        W95651  41.800   9.210   4.248
22584W        W95652  27.445   8.629  11.140
22585W        W95653  35.998   9.108  11.186
22586W        W95654  28.245  38.493  12.455
22587W        W95655  24.651  10.706   2.799
22588W        W95656  12.702  21.497   0.754
22589W        W95657  35.042  11.409   2.161
22590W        W95658  10.291  16.810  13.887
22591W        W95659   4.841  21.734   1.919
22592W        W95660  33.539  42.606  12.330
22593W        W95661  15.319  16.071   2.282
22594W        W95662   7.927  40.533  10.685
22595W        W95663  42.564  35.883   1.196
22596W        W95664  22.744  18.779   0.329
22597W        W95665   0.553  14.836  13.586
22598W        W95666  44.539  17.915   2.602
22599W        W95667   8.364  34.640   3.594
22600W        W95668   8.898  29.968  11.134
22601W        W95669  38.845  40.073  13.272
22602W        W95670  37.830  31.775  13.458
22603W        W95671  31.515   8.163  12.355
22604W        W95672   9.883   2.925   4.644
22605W        W95673  34.431  12.889  12.127
22606W        W95674  35.103  35.393   1.920
22607W        W95675   1.835  36.534  11.442
22608W        W95676  38.302   9.368   2.820
22609W        W95677   4.768   0.424   2.702
22610W        W95678  40.978  26.972   1.347
22611W        W95679  38.019  26.530  13.971
22612W        W95680  27.436  37.108   2.358
22613W        W95681  27.132  15.683  11.075
22614W        W95682   9.111  28.348  10.749
22615W        W95683  42.694  18.988   3.170
22616W        W95684  27.542   7.228   4.205
22617W        W95685  27.132  32.597   4.783
22618W        W95686  40.958  33.481   0.269
22619W        W95687  14.751   7.593  11.623
22620W        W95688  37.111  33.930  13.891
22621W        W95689  12.254   2.532   0.409
22622W        W95690  27.097  33.217   0.767
22623W        W95691  41.348   8.917   1.202
22624W        W95692  16.075  26.786  14.509
22625W        W95693  29.209  17.200  14.691
22626W        W95694  20.195  41.594   2.836
22627W        W95695  39.229   6.449  12.102
22628W        W95696   7.761  35.684  14.729
22629W        W95697  20.251   6.344  12.894
22630W        W95698  31.469  27.913  14.056
22631W        W95699   8.250   2.749   2.462
22632W        W95700  27.718   1.584  11.643
22633W        W95701  33.562  29.369   2.710
22634W        W95702  13.839  31.837   3.848
22635W        W95703  36.520   3.539  11.963
22636W        W95704  17.716   7.681   3.696
22637W        W95705  13.314  24.601   1.243
22638W        W95706  15.040  28.950  13.348
22639W        W95707  25.165  16.658  14.872
22640W        W95708  30.584  12.134   2.211
22641W        W95709  33.681  40.460  14.397
22642W        W95710  22.509  11.443  12.040
22643W        W95711  40.743  25.561  13.199
22644W        W95712   1.254  13.696  10.598
22645W        W95713   2.305  33.597  13.443
22646W        W95714   0.689  14.423   0.177
22647W        W95715   2.405  30.705  11.403
22648W        W95716  19.836   7.732  11.118
22649W        W95717   9.281  41.439  12.966
22650W        W95718  33.830  12.281   1.191
22651W        W95719   1.228   3.915   1.427
22652W        W95720   4.328  41.824  14.978
22653W        W95721  24.067  25.949  11.511
22654W        W95722  24.184  29.794   0.560
22655W        W95723  41.156  14.149  11.051
22656W        W95724   3.906  17.788  12.945
22657W        W95725  42.985  17.307  11.173
22658W        W95726  17.419  22.069   3.234
22659W        W95727   2.327   2.750  12.644
22660W        W95728  10.724  42.983   2.141
22661W        W95729  19.678  26.154   3.794
22662W        W95730   7.608  21.644   0.951
22663W        W95731  34.001  31.075   0.565
22664W        W95732  28.794  41.778   0.890
22665W        W95733  17.489  28.057  11.430
22666W        W95734  24.640   2.655  14.879
22667W        W95735  36.404  26.004  11.174
22668W        W95736  43.262  30.161  11.148
22669W        W95737  35.430   7.805  14.952
22670W        W95738  20.477  39.807  12.832
22671W        W95739   0.876  11.372  14.195
22672W        W95740  17.783  34.987   2.249
22673W        W95741  17.736  20.699   2.209
22674W        W95742  23.628   2.183   1.215
22675W        W95743  17.392  33.313  14.760
22676W        W95744  42.247   9.327   1.858
22677W        W95745  31.110   2.299   4.631
22678W        W95746   6.469  21.998   3.561
22679W        W95747  10.050  11.187   1.619
22680W        W95748   0.724  18.319  11.651
22681W        W95749   8.571  16.789   2.810
22682W        W95750   8.977   9.314  12.982
22683W        W95751  23.621   7.605  11.486
22684W        W95752  18.125  42.752  13.400
22685W        W95753  43.423  23.643  13.031
22686W        W95754  27.491  12.904   1.711
22687W        W95755  23.054  30.918   1.126
22688W        W95756   1.501   5.402   4.463
22689W        W95757  33.472  38.837  13.347
22690W        W95758  34.505  19.522  13.041
22691W        W95759  11.715  43.977  11.156
22692W        W95760  39.006  27.158   4.187
22693W        W95761  14.737   0.853   4.819
22694W        W95762   2.023   2.002   2.839
22695W        W95763  12.944  16.087   3.340
22696W        W95764  14.543  26.427  12.460
22697W        W95765  28.710  38.299  13.603
22698W        W95766  19.334  39.345   3.662
22699W        W95767  32.919  12.245  10.953
22700W        W95768  14.294  41.339   4.343
22701W        W95769  20.336  12.543  13.560
22702W        W95770  38.224   9.112   4.214
22703W        W95771  12.839  36.301  10.642
22704W        W95772  35.894  17.664   0.580
22705W        W95773  26.687  31.973   2.843
22706W        W95774  13.133   6.801   3.648
22707W        W95775  19.044   6.704   4.600
22708W        W95776  22.028  21.304  10.646
22709W        W95777  21.743  18.956  12.906
22710W        W95778  11.156  35.149  11.557
22711W        W95779  16.798  37.492   1.786
22712W        W95780  41.678  37.051   3.282
22713W        W95781   7.705  17.985   2.860
22714W        W95782  22.985   8.494   3.215
22715W        W95783   8.818  24.257  12.785
22716W        W95784  20.976   3.410  13.056
22717W        W95785  19.729  21.542  14.194
22718W        W95786   5.094  27.946   3.663
22719W        W95787  32.072  44.840  10.628
22720W        W95788   8.668  28.521   2.814
22721W        W95789  10.785  43.016   3.582
22722W        W95790  26.207  16.558  10.731
22723W        W95791  11.843  28.520  13.965
22724W        W95792  30.098  26.883  11.940
22725W        W95793  41.249  16.040   1.394
22726W        W95794  13.148  40.869   3.390
22727W        W95795  30.842  18.323   3.636
22728W        W95796  38.765  10.116  11.571
22729W        W95797  28.542  36.953   4.623
22730W        W95798  40.345  13.922   1.828
22731W        W95799  44.254  12.556   2.683
22732W        W95800  28.028  16.624   2.157
22733W        W95801   2.383   5.341   4.418
22734W        W95802   1.793  39.497   2.822
22735W        W95803  15.578  25.629  12.597
22736W        W95804  18.712  19.772   0.023
22737W        W95805  37.940  22.644   4.561
22738W        W95806  30.068  13.784   0.732
22739W        W95807  39.960  34.952   2.420
22740W        W95808   4.011  19.258  11.032
22741W        W95809  27.225  29.089   0.824
22742W        W95810   4.240  40.363   1.944
22743W        W95811  24.679  30.401   1.293
22744W        W95812  19.581  13.937  14.544
22745W        W95813  32.309  10.678  14.479
22746W        W95814  12.348   7.104   0.936
22747W        W95815  43.182  32.075   1.810
22748W        W95816  34.095  28.549   0.973
22749W        W95817   4.885  41.842  12.498
22750W        W95818   0.692   3.825   3.909
22751W        W95819   3.364  22.445   2.713
22752W        W95820   9.383   6.624   0.217
22753W        W95821  33.546  33.716  12.463
22754W        W95822   4.762  30.731   1.695
22755W        W95823  43.216  38.790  12.020
22756W        W95824  23.305   8.889  12.912
22757W        W95825  18.089  28.211  10.467
22758W        W95826  44.803  40.344  11.869
22759W        W95827  31.638  36.182   4.729
22760W        W95828   2.261   6.138  14.088
22761W        W95829  10.017  18.125  12.352
22762W        W95830  40.987   2.004   3.400
22763W        W95831  11.368  30.174   2.386
22764W        W95832   6.197  28.913  13.381
22765W        W95833  36.793  13.884  10.354
22766W        W95834   6.239  30.736  12.015
22767W        W95835  11.623  41.270   4.142
22768W        W95836  34.820  39.904   0.738
22769W        W95837  17.006  40.555  10.426
22770W        W95838  35.368  20.783  11.064
22771W        W95839  25.121  43.300   0.762
22772W        W95840   7.635  19.779  14.747
22773W        W95841  20.006  24.137  10.624
22774W        W95842  20.027  22.583   5.241
22775W        W95843  30.516  40.365  14.286
22776W        W95844  30.156  22.340   1.316
22777W        W95845  11.728  36.117  10.191
22778W        W95846  35.532  35.890   1.579
22779W        W95847  24.474  38.607  10.720
22780W        W95848  44.055   5.127   2.222
22781W        W95849  11.331  31.013   0.732
22782W        W95850   6.421  34.567   4.735
22783W        W95851  28.938   8.144  14.868
22784W        W95852  26.466  12.458  12.844
22785W        W95853  16.370  39.336   4.596
22786W        W95854  42.972  37.466  10.721
22787W        W95855   6.972  26.076  13.444
22788W        W95856  36.158   6.160   4.570
22789W        W95857  31.209  36.381   1.339
22790W        W95858  17.196   5.882  10.188
22791W        W95859  12.902  21.661   1.199
22792W        W95860  36.037  34.571   1.578
22793W        W95861  18.106  17.011  12.867
22794W        W95862   5.258  10.827  14.345
22795W        W95863  29.094  35.846  11.441
22796W        W95864   5.364  37.787  11.504
22797W        W95865  26.347  24.976   4.213
22798W        W95866  31.937   8.894  13.849
22799W        W95867  19.091   9.165  12.812
22800W        W95868  28.545  40.005   2.395
22801W        W95869  34.122  39.325   1.452
22802W        W95870  14.120  25.570  12.523
22803W        W95871  38.432  26.475   1.348
22804W        W95872   8.142  37.430  14.299
22805W        W95873   1.015  23.194   3.362
22806W        W95874  35.416  18.077   2.911
22807W        W95875  40.439  42.458  14.402
22808W        W95876   6.676  24.665   2.652
22809W        W95877  33.688   4.816  14.744
22810W        W95878  18.015  31.361  12.972
22811W        W95879  22.142  14.162   4.620
22812W        W95880  25.524  17.613   4.708
22813W        W95881   6.719  13.770   2.662
22814W        W95882  38.565  38.906   0.267
22815W        W95883   9.941  28.774   2.224
22816W        W95884  28.957  19.736  14.031
22817W        W95885  16.437  43.044  10.514
22818W        W95886  30.924   4.274  11.577
22819W        W95887   7.336   6.716   2.861
22820W        W95888  29.377  30.065   1.382
22821W        W95889  39.348  38.507   0.882
22822W        W95890  37.889  13.873   2.418
22823W        W95891  33.733   9.308   4.095
22824W        W95892  41.577  26.107  12.596
22825W        W95893  22.290  13.346  13.939
22826W        W95894  27.242  11.252   3.709
22827W        W95895  22.164  27.600   3.301
22828W        W95896  11.269  16.216  10.682
22829W        W95897  25.824   1.547   2.890
22830W        W95898  27.019  10.617   0.715
22831W        W95899  34.206  12.834   2.187
22832W        W95900  44.580  30.581  11.171
22833W        W95901  35.538  33.806  11.402
22834W        W95902  30.674   1.430  12.702
22835W        W95903  37.885  13.136   3.452
22836W        W95904   6.978  11.914   4.501
22837W        W95905  40.983  12.224  11.179
22838W        W95906  14.655  39.406  14.049
22839W        W95907  33.034  33.422  14.342
22840W        W95908   1.683  26.672  10.707
22841W        W95909  27.457  25.100   0.454
22842W        W95910  23.429   2.458  11.558
22843W        W95911  23.567   1.031   2.151
22844W        W95912  38.101  43.472  11.462
22845W        W95913   7.836   4.422   4.594
22846W        W95914  36.779  31.968   2.448
22847W        W95915  41.020  38.128  14.649
22848W        W95916   5.792   2.348  12.540
22849W        W95917  22.997  18.775   2.877
22850W        W95918  37.046   2.982   1.656
22851W        W95919  32.451  42.286  13.805
22852W        W95920  16.320  12.874  11.466
22853W        W95921  39.868  32.013   4.436
22854W        W95922  15.662  35.577  11.413
22855W        W95923  26.856  27.394  13.850
22856W        W95924  41.504  24.937   1.252
22857W        W95925  37.871   8.396  10.896
22858W        W95926   1.522   2.817   3.138
22859W        W95927  11.445   6.312   4.196
22860W        W95928  14.867  24.112  12.022
22861W        W95929  18.327  31.657   1.810
22862W        W95930  29.996  43.315  14.426
22863W        W95931   1.243  26.134   3.377
22864W        W95932  16.840  38.942  12.863
22865W        W95933  41.421  11.642   4.965
22866W        W95934  34.702  29.699   3.194
22867W        W95935  24.445  36.324   0.803
22868W        W95936   4.232   9.675   4.053
22869W        W95937  37.280   1.511   2.639
22870W        W95938  10.149  21.578   3.938
22871W        W95939  27.651  27.983  11.000
22872W        W95940  26.933  27.500   3.679
22873W        W95941  23.444   0.416   2.799
22874W        W95942   4.777   2.259  14.373
22875W        W95943  24.288   0.005  14.374
22876W        W95944  23.157  43.440  13.604
22877W        W95945  28.694   3.705  13.410
22878W        W95946  20.290  11.225  12.370
22879W        W95947  18.623   6.938  11.617
22880W        W95948  15.259  16.809   3.643
22881W        W95949   0.535  44.260   3.901
22882W        W95950  15.731  31.085  13.915
22883W        W95951  37.063  18.748   2.380
22884W        W95952   5.163  12.701   4.712
22885W        W95953   7.308   9.681  12.733
22886W        W95954  18.534  27.027  13.540
22887W        W95955  23.164  31.582   4.902
22888W        W95956  12.126  12.545  11.609
22889W        W95957  26.686   3.740   2.710
22890W        W95958  34.631   3.475  14.330
22891W        W95959  25.064  10.330   0.033
22892W        W95960   3.830  40.786  13.501
22893W        W95961  11.175   7.013  13.818
22894W        W95962  43.400   2.253   0.983
22895W        W95963   0.136  29.739  10.955
22896W        W95964  30.975  15.225   4.577
22897W        W95965   9.737  23.458   0.292
22898W        W95966  40.815  33.640   4.383
22899W        W95967  43.748  17.127   0.006
22900W        W95968  29.409  22.636  10.175
22901W        W95969  16.573  11.415   2.381
22902W        W95970  44.828  38.106  11.846
22903W        W95971  26.488  15.666   3.644
22904W        W95972  40.980   1.909  14.549
22905W        W95973  11.605   4.825   1.772
22906W        W95974  15.612   5.757   0.420
22907W        W95975  11.805  21.057   5.283
22908W        W95976   7.986  11.148  12.588
22909W        W95977  20.941   8.572  14.019
22910W        W95978   3.127  25.183   4.033
22911W        W95979  43.954  13.292   2.474
22912W        W95980  37.126  44.624   1.878
22913W        W95981  42.285  31.565  13.376
22914W        W95982   7.713  24.639  10.729
22915W        W95983  29.469  35.909   4.694
22916W        W95984  33.386  20.730   2.231
22917W        W95985  25.604   7.410   4.571
22918W        W95986  36.392  20.259   4.133
22919W        W95987   8.260  17.523   2.392
22920W        W95988  29.625  34.668   3.261
22921W        W95989  13.731   8.841   1.380
22922W        W95990  35.998  44.291  12.463
22923W        W95991   7.343   5.909   0.488
22924W        W95992  17.748  22.820  14.814
22925W        W95993  27.434  44.832   1.719
22926W        W95994  33.651  11.735  13.041
22927W        W95995  22.240  14.203  12.159
22928W        W95996  41.807   4.014   3.191
22929W        W95997  40.110  44.845   3.300
22930W        W95998  39.329  39.070   2.855
22931W        W95999   6.392  13.301   3.713
22932W        W96000  30.863  20.017   2.551
22933W        W96001  24.654  41.449   3.387
22934W        W96002  35.707  28.307   5.143
22935W        W96003  39.829  32.869  12.875
22936W        W96004  28.526  38.067  14.478
22937W        W96005   7.285   2.294   1.665
22938W        W96006  26.697  18.836   2.481
22939W        W96007  30.291  34.368   2.215
22940W        W96008  33.144  44.628   1.462
22941W        W96009  44.212  39.866  11.993
22942W        W96010  30.555  35.555  13.623
22943W        W96011   4.678  44.391   4.296
22944W        W96012  12.840  33.029  13.026
22945W        W96013  18.890   8.376  14.844
22946W        W96014  42.609  25.978  12.545
22947W        W96015  19.276   1.761   1.490
22948W        W96016  31.350  11.324  12.855
22949W        W96017  22.064  23.740  12.350
22950W        W96018  36.107  30.165  10.735
22951W        W96019  28.114  18.206   3.757
22952W        W96020   4.740   9.809   2.719
22953W        W96021  44.084   3.381   4.538
22954W        W96022  36.892  23.292  13.695
22955W        W96023  36.654   6.379  11.978
22956W        W96024   8.425  16.859   0.860
22957W        W96025  14.881   4.123  12.388
22958W        W96026  33.434  34.429  10.604
22959W        W96027   6.009  23.151   1.353
22960W        W96028  27.020   2.568  12.416
22961W        W96029  34.841   0.526   3.052
22962W        W96030   5.997  26.657  12.830
22963W        W96031  23.214  27.881   4.018
22964W        W96032  25.501  42.050   4.402
22965W        W96033   8.703  13.683   1.886
22966W        W96034  43.063  14.246  13.526
22967W        W96035  33.671   5.990   3.918
22968W        W96036  38.321  10.227  13.029
22969W        W96037  25.660  19.143   4.254
22970W        W96038  44.501  15.252  14.933
22971W        W96039  42.440  13.860  10.842
22972W        W96040  11.771  19.802  10.036
22973W        W96041  10.339  39.799  12.056
22974W        W96042  12.264  16.943  11.532
22975W        W96043   6.637   8.516  13.988
22976W        W96044  29.424  17.536  12.939
22977W        W96045   1.776  41.757   3.175
22978W        W96046  31.045   0.819  14.774
22979W        W96047  21.849  16.617  13.547
22980W        W96048   7.178  24.197   0.418
22981W        W96049  34.600  20.722   1.451
22982W        W96050   5.308  17.225   0.467
22983W        W96051   8.121  11.377   0.504
22984W        W96052  21.637  37.366  14.460
22985W        W96053   6.442  12.539  10.929
22986W        W96054  40.979  21.720  14.784
22987W        W96055  29.012  13.080  14.893
22988W        W96056  34.868  30.152  12.527
22989W        W96057  18.558  44.624   1.678
22990W        W96058   4.254  37.566  13.076
22991W        W96059   7.503  37.531  12.442
22992W        W96060  33.032  18.064   2.846
22993W        W96061   6.184  30.507   2.074
22994W        W96062  20.302  19.567  12.124
22995W        W96063   8.069   7.991  12.524
22996W        W96064  36.015  26.656  14.105
22997W        W96065  43.378  28.195  13.640
22998W        W96066  41.495   7.641   4.576
22999W        W96067  25.672  25.298  11.137
23000W        W96068   6.222  43.383  13.130
23001W        W96069  30.764  25.224   4.772
23002W        W96070  19.077  34.363   1.326
23003W        W96071  23.113  37.864  13.383
23004W        W96072  43.299  28.207  14.141
23005W        W96073  35.371  40.920   1.269
23006W        W96074   8.471  33.056  10.735
23007W        W96075  28.153  30.289  12.885
23008W        W96076  14.301  39.415  13.598
23009W        W96077  26.418   5.812   2.789
23010W        W96078  25.410  30.199   3.147
23011W        W96079  31.404  32.873  12.291
23012W        W96080  29.057  27.633  11.911
23013W        W96081   0.303  42.578  13.062
23014W        W96082  35.838  30.502  11.016
23015W        W96083   0.423  42.675  12.570
23016W        W96084  32.168  39.544  13.040
23017W        W96085  19.032  11.239  13.712
23018W        W96086   5.527  38.467   4.616
23019W        W96087  30.869  35.562  12.709
23020W        W96088  44.323  22.536  13.949
23021W        W96089  33.384  23.975   4.886
23022W        W96090  18.143  16.208  12.568
23023W        W96091   4.194  33.005  12.474
23024W        W96092  21.740  25.108   3.231
23025W        W96093  24.159   2.830  12.015
23026W        W96094   2.733  43.062   2.124
23027W        W96095  41.547   7.446   2.601
23028W        W96096   0.461   4.499   4.448
23029W        W96097  14.181  16.818   4.620
23030W        W96098  38.323  36.769   1.205
23031W        W96099  14.839  32.457   1.475
23032W        W96100  34.300  22.886   1.768
23033W        W96101  12.692  42.336  12.853
23034W        W96102  15.887  14.661  12.443
23035W        W96103   2.483  28.137  12.337
23036W        W96104  37.496  34.032  11.401
23037W        W96105  30.728  27.560   4.622
23038W        W96106  10.211  12.459  10.716
23039W        W96107  43.024  13.834   4.219
23040W        W96108  17.901  39.524   3.882
23041W        W96109  32.923   2.849  13.931
23042W        W96110  12.786  44.009  13.514
23043W        W96111  25.902  23.619   4.449
23044W        W96112  35.950  22.622  12.444
23045W        W96113  25.269  37.976  14.414
23046W        W96114  28.795   2.212   2.472
23047W        W96115  42.428   8.324   4.210
23048W        W96116  41.158  27.151   2.632
23049W        W96117  32.994  12.591   1.640
23050W        W96118   9.152  44.578  12.955
23051W        W96119  11.551  31.004   1.726
23052W        W96120  30.371  32.987   1.285
23053W        W96121  36.279   1.860  14.742
23054W        W96122  11.477  13.779   0.761
23055W        W96123  14.346  33.037  12.780
23056W        W96124   9.597  39.122   0.457
23057W        W96125  41.633   5.719   1.231
23058W        W96126  43.455   4.127  11.442
23059W        W96127  35.434  34.343  14.274
23060W        W96128  11.703  14.671   1.823
23061W        W96129  17.311  17.608  12.338
23062W        W96130  11.006  18.148   3.375
23063W        W96131  44.455  44.468  10.382
23064W        W96132  32.071   1.413   4.590
23065W        W96133  14.170   4.926  14.914
23066W        W96134  22.858  40.847   1.243
23067W        W96135  43.818  14.277  10.773
23068W        W96136  31.706  14.853  12.048
23069W        W96137   9.598   4.889   3.266
23070W        W96138  12.556  17.236  11.217
23071W        W96139   8.436  13.262  14.796
23072W        W96140  42.074  13.621   4.183
23073W        W96141   5.956  31.869  14.400
23074W        W96142  11.342  15.074  13.845
23075W        W96143  16.666  28.331  12.023
23076W        W96144   5.859  12.086  12.972
23077W        W96145  25.197   1.084  11.575
23078W        W96146  19.596  15.647  14.784
23079W        W96147  25.465  24.134  13.972
23080W        W96148  30.460   3.279  13.502
23081W        W96149  15.390  14.101  11.024
23082W        W96150  27.675   0.291  11.161
23083W        W96151  12.334  22.972  12.025
23084W        W96152  11.609  26.637   3.531
23085W        W96153  38.316  27.495   3.671
23086W        W96154  28.116  40.743   3.272
23087W        W96155   2.303   2.027   1.427
23088W        W96156  16.550  30.104   2.810
23089W        W96157  38.412  11.116   3.331
23090W        W96158  23.465  26.935   0.518
23091W        W96159  29.721  38.049   2.654
23092W        W96160  14.359  11.772  12.624
23093W        W96161  31.939  25.577  14.833
23094W        W96162   0.540  19.562  11.999
23095W        W96163   1.212  30.708   0.831
23096W        W96164  23.716  43.067   0.916
23097W        W96165  12.563  12.747  14.455
23098W        W96166   0.372   3.275   3.288
23099W        W96167  10.641  44.417  14.163
23100W        W96168   2.734  34.103  12.888
23101W        W96169  21.173  37.970   5.082
23102W        W96170  41.285   1.424  13.517
23103W        W96171  19.312  30.314  14.791
23104W        W96172   4.468   2.398  12.056
23105W        W96173   5.606  27.126  11.241
23106W        W96174  35.891  42.852   0.889
23107W        W96175  31.458  39.254  14.422
23108W        W96176   8.886   6.488   0.386
23109W        W96177   1.403   2.842  14.385
23110W        W96178   3.947   9.155   3.680
23111W        W96179  13.645  16.130  12.405
23112W        W96180  38.417  15.112   2.498
23113W        W96181  25.474  14.629  13.790
23114W        W96182  19.686   8.125  10.747
23115W        W96183  39.429  35.570  12.928
23116W        W96184  37.536  30.989  12.972
23117W        W96185  24.541   2.662   3.244
23118W        W96186  16.116  12.219   4.043
23119W        W96187  41.826  43.461  13.068
23120W        W96188  27.412  31.405  11.846
23121W        W96189  33.890  20.444  13.837
23122W        W96190  38.754  17.699   2.146
23123W        W96191  17.206  20.708   1.055
23124W        W96192  11.767  21.903  12.046
23125W        W96193   2.669   0.029  14.938
23126W        W96194  16.130  10.879   4.002
23127W        W96195  14.181  39.492  12.662
23128W        W96196   5.235  39.322   2.103
23129W        W96197  34.562  37.817   4.371
23130W        W96198  18.101  19.663   4.327
23131W        W96199  20.695  25.651   4.813
23132W        W96200   1.741  32.610   1.846
23133W        W96201  14.642  36.385  11.338
23134W        W96202  42.874  21.449   0.430
23135W        W96203  14.544  14.834   0.371
23136W        W96204  41.388  30.595  11.690
23137W        W96205  10.867  39.213  12.460
23138W        W96206  18.793   8.369   0.978
23139W        W96207  12.567  12.168  12.482
23140W        W96208   2.695  30.572   1.243
23141W        W96209  18.011   4.382  13.464
23142W        W96210  15.880  27.968  10.196
23143W        W96211  38.402  23.324  12.331
23144W        W96212   8.445  39.307  10.302
23145W        W96213  13.459   8.838  11.752
23146W        W96214  35.616  44.844   5.056
23147W        W96215  38.363  33.807   2.631
23148W        W96216  26.130   7.465   3.073
23149W        W96217  24.006  24.604  13.141
23150W        W96218   0.977  11.532   0.494
23151W        W96219  34.941   1.802  10.057
23152W        W96220  23.778   7.677  14.667
23153W        W96221  25.981   4.668  11.561
23154W        W96222  28.207  40.783   1.329
23155W        W96223  22.696   3.263  14.330
23156W        W96224  33.346  36.157  14.841
23157W        W96225  28.527   0.827   4.737
23158W        W96226  21.518  37.875  11.550
23159W        W96227   5.166  26.934  11.492
23160W        W96228  33.963  14.309   2.295
23161W        W96229  37.160  42.938  10.587
23162W        W96230  30.748  26.742   3.682
23163W        W96231  43.947   6.414   1.204
23164W        W96232  28.049  20.700   3.772
23165W        W96233  24.151  14.128  11.231
23166W        W96234   4.914  40.803   1.625
23167W        W96235  12.138   4.819   1.753
23168W        W96236  37.445  31.731   2.789
23169W        W96237  27.451  31.928   0.829
23170W        W96238  35.655  40.466   1.405
23171W        W96239   2.869  31.018   2.997
23172W        W96240  43.883  35.369   3.949
23173W        W96241  12.596  12.130   0.940
23174W        W96242  17.604  44.127   3.652
23175W        W96243   7.244  12.217  13.300
23176W        W96244  19.316   5.827   1.671
23177W        W96245  19.700   3.001  11.873
23178W        W96246  32.941  37.565  14.626
23179W        W96247  16.678   7.618   0.558
23180W        W96248   4.388  18.013   2.722
23181W        W96249  24.696  13.539   2.348
23182W        W96250  32.270  22.445   5.189
23183W        W96251   0.495   1.994   0.399
23184W        W96252  16.389  23.293   4.154
23185W        W96253  43.426  29.157   4.632
23186W        W96254   9.844   1.892   1.924
23187W        W96255   4.594  32.141   4.595
23188W        W96256  41.111   2.367  13.414
23189W        W96257   0.320   6.749  12.130
23190W        W96258  26.815   6.177  13.536
23191W        W96259  22.961   8.368  10.740
23192W        W96260  19.115  24.981  11.540
23193W        W96261  17.199  43.551   4.346
23194W        W96262  39.922  27.240  14.451
23195W        W96263  40.621  12.063   2.857
23196W        W96264  37.802  25.996  13.387
23197W        W96265  37.096  25.951   2.221
23198W        W96266  20.991  18.168   4.870
23199W        W96267  27.030   7.100  13.305
23200W        W96268  43.623  36.695   0.693
23201W        W96269  43.758  32.410   4.128
23202W        W96270   1.442   7.304  14.197
23203W        W96271  11.946  17.791   1.968
23204W        W96272  26.602  22.433  14.481
23205W        W96273   1.927  11.230   1.664
23206W        W96274  37.298   7.440   5.062
23207W        W96275  23.107  20.508  11.117
23208W        W96276   5.777  19.342   2.793
23209W        W96277   0.124  32.362  12.219
23210W        W96278  28.113  16.508  14.702
23211W        W96279  43.811  24.519  11.784
23212W        W96280  23.448   3.942  12.520
23213W        W96281  43.441   9.450   4.106
23214W        W96282  35.096   3.874   3.265
23215W        W96283  13.397  36.479   1.210
23216W        W96284  16.270  12.853  12.805
23217W        W96285  24.135  35.212  14.499
23218W        W96286  17.278  27.641  13.561
23219W        W96287  14.541  34.010   3.667
23220W        W96288  37.277  29.211   0.247
23221W        W96289  36.980  18.501  14.066
23222W        W96290  22.681  44.952   4.169
23223W        W96291  31.816  13.733  12.068
23224W        W96292  12.223  42.256  14.957
23225W        W96293  36.075  36.456  12.715
23226W        W96294  37.391  33.044   3.086
23227W        W96295   6.303  42.448   3.160
23228W        W96296  34.171   4.727  14.607
23229W        W96297  29.171  24.066  10.681
23230W        W96298  11.398  26.723  12.070
23231W        W96299  19.568  33.158  14.244
23232W        W96300  11.796   4.004   0.399
23233W        W96301   0.756  31.815  12.422
23234W        W96302  18.253  15.634   5.067
23235W        W96303   1.255  42.052   0.999
23236W        W96304  22.248  12.527   2.276
23237W        W96305  28.214   4.939  13.911
23238W        W96306  28.994  16.743  12.873
23239W        W96307   4.287   7.281   1.853
23240W        W96308  43.715  30.004   4.230
23241W        W96309  40.557  26.019  12.919
23242W        W96310  14.295  17.577   1.236
23243W        W96311  10.172  24.736  14.949
23244W        W96312   7.901  38.449  13.545
23245W        W96313   8.288   8.413  13.453
23246W        W96314  25.491  19.304  12.802
23247W        W96315  19.528  24.630  11.557
23248W        W96316  24.649  11.728  10.940
23249W        W96317   9.167   5.245   1.656
23250W        W96318   8.675  22.924  13.049
23251W        W96319  12.328   3.288  11.593
23252W        W96320  22.174  24.961  14.890
23253W        W96321  44.466  38.996   3.202
23254W        W96322  20.704   7.661   1.604
23255W        W96323  13.955   9.306  13.314
23256W        W96324  16.343  40.065  10.528
23257W        W96325  36.061   6.570   0.132
23258W        W96326  34.492  11.963  12.448
23259W        W96327  13.969   2.749   2.817
23260W        W96328  43.851  20.676   4.073
23261W        W96329   5.581  21.090   3.655
23262W        W96330  27.096  34.083   3.065
23263W        W96331  32.814  36.910  11.962
23264W        W96332  15.737  31.935   1.609
23265W        W96333  24.053  29.156   4.181
23266W        W96334  34.543  19.984   4.300
23267W        W96335  44.885   8.577  11.088
23268W        W96336  19.494  19.995  11.164
23269W        W96337  38.982  20.184  12.844
23270W        W96338   6.350  11.795   1.406
23271W        W96339  41.843  13.782   0.551
23272W        W96340   4.422  18.322  13.524
23273W        W96341  29.116   5.659   3.647
23274W        W96342  36.677  18.817   5.031
23275W        W96343  20.573  30.316   0.432
23276W        W96344  11.382  16.665  10.423
23277W        W96345   2.978  18.701   0.924
23278W        W96346  14.321  44.428   2.764
23279W        W96347   8.867  19.229   1.954
23280W        W96348  34.414  23.630  14.733
23281W        W96349  29.937   4.819   4.958
23282W        W96350  34.739  12.028  11.042
23283W        W96351   1.335  43.473   1.547
23284W        W96352  32.437  35.825  13.406
23285W        W96353  15.247   4.592  14.379
23286W        W96354  26.604  44.447   4.323
23287W        W96355  23.110   2.273   0.989
23288W        W96356  31.971  31.080  10.779
23289W        W96357  14.325   5.647   4.654
23290W        W96358  26.646  34.455   1.808
23291W        W96359  40.869  32.881   3.864
23292W        W96360  16.342  40.495  14.320
23293W        W96361  15.429  38.176   1.246
23294W        W96362  19.528  18.640  11.536
23295W        W96363  10.661  26.425  13.923
23296W        W96364   6.674  42.991   2.400
23297W        W96365   8.205  21.512   3.118
23298W        W96366  18.207  14.433   4.934
23299W        W96367  33.610  39.269  10.500
23300W        W96368   8.893  15.171   4.672
23301W        W96369   4.713  20.889  11.503
23302W        W96370  44.207  10.941   4.344
23303W        W96371  13.553  29.144   0.205
23304W        W96372  14.632  11.571  13.872
23305W        W96373  20.499  30.368  11.766
23306W        W96374  19.837  36.498   2.921
23307W        W96375  41.309  29.099   3.399
23308W        W96376  18.480  17.668   4.526
23309W        W96377  18.756  22.800   1.247
23310W        W96378  34.118   0.534  13.332
23311W        W96379  30.918  30.434   3.140
23312W        W96380   8.399  42.266   5.906
23313W        W96381   8.867   8.921  13.967
23314W        W96382  17.634   4.529   3.396
23315W        W96383  34.961  19.164  13.864
23316W        W96384  14.575   8.173  11.187
23317W        W96385  29.242  19.310  13.149
23318W        W96386  41.359  23.004  14.289
23319W        W96387  15.770  34.884  12.595
23320W        W96388   9.925  38.813   0.679
23321W        W96389   1.336  41.814  11.454
23322W        W96390  44.462  26.620   4.661
23323W        W96391  24.296  28.231   5.077
23324W        W96392  18.831  30.950   0.729
23325W        W96393  22.242  33.638   1.324
23326W        W96394  21.043   0.354  13.810
23327W        W96395   1.553  25.559  13.842
23328W        W96396  13.787   0.208   4.532
23329W        W96397   7.892  10.195  12.213
23330W        W96398   8.365  28.166  10.514
23331W        W96399   5.918  12.763   4.094
23332W        W96400  39.841  21.072  13.504
23333W        W96401  26.150  33.887   2.916
23334W        W96402  17.746   4.333  11.942
23335W        W96403  19.850  44.743   1.286
23336W        W96404  33.572  29.614   4.984
23337W        W96405   8.486  31.656  11.736
23338W        W96406   3.927   6.200   3.603
23339W        W96407  20.581  28.063   1.610
23340W        W96408  20.097  22.149   1.013
23341W        W96409   2.254  35.053   4.200
23342W        W96410   1.532  35.490   0.881
23343W        W96411  19.317  11.030  12.722
23344W        W96412  20.903  42.070   1.446
23345W        W96413  20.570   2.915   0.408
23346W        W96414  36.879  35.542  13.043
23347W        W96415  23.056  10.357   2.735
23348W        W96416  28.016  36.339   0.016
23349W        W96417  32.260  27.004  11.908
23350W        W96418  32.315  36.971   3.806
23351W        W96419  16.367  14.004   4.365
23352W        W96420  14.001  35.029   2.804
23353W        W96421  28.101  21.561  12.457
23354W        W96422  10.885  24.041   4.189
23355W        W96423  44.461  31.487   1.807
23356W        W96424  34.766  26.487   3.888
23357W        W96425  15.583  43.859  12.366
23358W        W96426   5.187  24.627  14.805
23359W        W96427   8.755  37.135   2.720
23360W        W96428  31.423  17.138  11.664
23361W        W96429  23.705  15.820  12.008
23362W        W96430  22.166  23.639   3.847
23363W        W96431   5.035  44.519  10.279
23364W        W96432  42.310  10.848  13.471
23365W        W96433  17.680  21.074  11.995
23366W        W96434  22.725  21.470   2.355
23367W        W96435  26.230  11.117  10.669
23368W        W96436  33.517  41.576  11.120
23369W        W96437  31.664  18.166   0.816
23370W        W96438  26.027  36.870  12.201
23371W        W96439  44.422   1.254  13.931
23372W        W96440  44.993   8.665   2.355
23373W        W96441  20.681  29.679   2.919
23374W        W96442  20.230  12.567   0.379
23375W        W96443   4.578   2.497   2.348
23376W        W96444  11.180  33.514   2.511
23377W        W96445  19.331  21.538  11.548
23378W        W96446   5.178  43.652   1.784
23379W        W96447  44.303  20.699   3.532
23380W        W96448   8.327  33.497  14.979
23381W        W96449   8.252  20.998  12.572
23382W        W96450  27.182  34.453  11.596
23383W        W96451   4.500   3.938   4.130
23384W        W96452   3.468   8.135  14.499
23385W        W96453  12.683   7.679  11.233
23386W        W96454  39.054  29.456  11.769
23387W        W96455  43.787  18.603   1.694
23388W        W96456  24.679   9.984  13.737
23389W        W96457  24.792   8.139  11.607
23390W        W96458  39.211  16.283   2.864
23391W        W96459  15.130  26.452  11.730
23392W        W96460  11.711   6.436   2.674
23393W        W96461  34.393   9.690  12.614
23394W        W96462  38.783  28.201   4.212
23395W        W96463  27.930   0.512   3.401
23396W        W96464   9.399  37.458  11.112
23397W        W96465   6.608  22.767  11.806
23398W        W96466  32.362  25.070   0.733
23399W        W96467   8.288  40.566  10.308
23400W        W96468  19.595  36.155  11.029
23401W        W96469   6.835  18.670   3.894
23402W        W96470  10.362   1.879   3.543
23403W        W96471  15.295  39.966   1.329
23404W        W96472  30.855  34.170  14.854
23405W        W96473   2.875  16.180   1.017
23406W        W96474  30.477   8.445  13.603
23407W        W96475  34.087  14.197   3.762
23408W        W96476  27.182  18.747   0.839
23409W        W96477  11.924  40.869   4.248
23410W        W96478  41.432  42.005   0.476
23411W        W96479  10.553  10.360   3.724
23412W        W96480  18.947  31.428   3.628
23413W        W96481   1.815  38.339  12.306
23414W        W96482  23.495  13.630   2.869
23415W        W96483  34.648  38.979   0.057
23416W        W96484  39.553  25.266  11.427
23417W        W96485   8.569  31.055  12.790
23418W        W96486  42.496  30.684  14.010
23419W        W96487  44.490  14.685   0.749
23420W        W96488  41.214   1.177   1.319
23421W        W96489  39.062  19.343  12.048
23422W        W96490  27.979  30.027  14.809
23423W        W96491  20.532  14.798  12.535
23424W        W96492  17.445  40.623   0.058
23425W        W96493   7.759   1.749  11.537
23426W        W96494  24.099  20.100  12.461
23427W        W96495  15.225  23.724   1.229
23428W        W96496   4.718  44.697   3.064
23429W        W96497  39.921   6.172  14.225
23430W        W96498  37.812  20.475   1.427
23431W        W96499   8.649  22.015   2.830
23432W        W96500  19.931   0.947   1.727
23433W        W96501  41.900  12.429  13.883
23434W        W96502  33.939  27.871  12.588
23435W        W96503  23.753  26.197  11.184
23436W        W96504   7.741  35.886  11.239
23437W        W96505  27.571  18.477   4.194
23438W        W96506  17.684  32.553   4.860
23439W        W96507  26.924  41.417  14.856
23440W        W96508  31.605  25.043  14.427
23441W        W96509  40.514  11.289   0.541
23442W        W96510  22.965  26.188   2.242
23443W        W96511  30.054  20.552  13.175
23444W        W96512  13.148  36.035   3.744
23445W        W96513  40.405   8.142   0.227
23446W        W96514  16.513  41.516  11.427
23447W        W96515  35.031  41.900   4.058
23448W        W96516   9.131  40.331   2.782
23449W        W96517   8.837  23.971  11.113
23450W        W96518  15.306  23.133   0.549
23451W        W96519  26.674  12.779  11.903
23452W        W96520  40.299  26.033   5.173
23453W        W96521  33.411  18.703  11.561
23454W        W96522  16.655   9.687  11.824
23455W        W96523  37.543  23.598   2.233
23456W        W96524  28.124  24.641   2.862
23457W        W96525  15.639  32.816   5.046
23458W        W96526  40.098   6.657  11.184
23459W        W96527  15.557  14.146  11.487
23460W        W96528  10.369  24.706   3.782
23461W        W96529   5.662  13.279   0.847
23462W        W96530  24.722  16.365  12.893
23463W        W96531  42.059  23.126   1.460
23464W        W96532  15.735  36.814   0.285
23465W        W96533  27.441  21.186  14.025
23466W        W96534  34.037  30.864   1.897
23467W        W96535   7.851  24.274  11.461
23468W        W96536   3.414  11.241   1.823
23469W        W96537   4.220  23.619   3.198
23470W        W96538  18.155  20.609   3.415
23471W        W96539  15.823  27.782   0.385
23472W        W96540  28.002  40.993  10.777
23473W        W96541   4.361   9.285  11.666
23474W        W96542  28.942  24.919   4.114
23475W        W96543  38.833  12.485   3.079
23476W        W96544  38.550   9.303   4.766
23477W        W96545  11.191  24.228  11.044
23478W        W96546  44.533  25.740   0.504
23479W        W96547   6.789  13.985  11.778
23480W        W96548  23.207   4.376  11.418
23481W        W96549  29.644  38.923  10.101
23482W        W96550  20.660  40.368   1.758
23483W        W96551   3.194  33.767  11.111
23484W        W96552  25.175  39.486  11.938
23485W        W96553  14.601  33.937  10.427
23486W        W96554  12.997  29.536   2.819
23487W        W96555   4.807  31.820   1.076
23488W        W96556  22.034  16.826   5.522
23489W        W96557  36.997  22.890  12.871
23490W        W96558  12.821  24.205   0.307
23491W        W96559  14.791   6.114  14.531
23492W        W96560  11.966  14.521   1.401
23493W        W96561  34.429  41.317  10.684
23494W        W96562   4.081  34.643  14.921
23495W        W96563  30.105  20.660  14.508
23496W        W96564  41.873   7.713  14.362
23497W        W96565  42.959  18.326  11.178
23498W        W96566  38.051  39.859  12.039
23499W        W96567  15.281  19.281   3.835
23500W        W96568  18.083  23.427   2.236
23501W        W96569  38.041  10.952  14.786
23502W        W96570  22.212  33.125  13.401
23503W        W96571  42.890  35.283  12.960
23504W        W96572   5.685  16.753   3.705
23505W        W96573  24.471  40.156   3.003
23506W        W96574  10.199  14.922  12.913
23507W        W96575  17.081  12.189   0.955
23508W        W96576  40.421  14.030   0.494
23509W        W96577  38.923  36.232   0.803
23510W        W96578  42.472  31.900  10.602
23511W        W96579   7.053   9.183  14.413
23512W        W96580  27.091   8.423  13.011
23513W        W96581  10.772  40.879  13.763
23514W        W96582  33.305  17.046   2.190
23515W        W96583  18.262  24.259  13.431
23516W        W96584   4.666  38.466  12.349
23517W        W96585  32.073   1.283   1.325
23518W        W96586  22.673   1.387   0.790
23519W        W96587   5.451  34.333  12.634
23520W        W96588   4.711  34.385   1.641
23521W        W96589   9.240  16.354   0.207
23522W        W96590  12.391  38.322  14.207
23523W        W96591  24.902  43.773   3.266
23524W        W96592  18.694  40.802  11.445
23525W        W96593  14.318   5.470  12.693
23526W        W96594  28.647  37.124   0.009
23527W        W96595   7.249  36.401  13.585
23528W        W96596  33.622  16.708  10.457
23529W        W96597  20.689  41.007   4.777
23530W        W96598  36.472  36.611  14.012
23531W        W96599  22.043  39.050  14.923
23532W        W96600  44.470  21.542   4.532
23533W        W96601   7.797   0.621  13.079
23534W        W96602  14.699  21.813  12.713
23535W        W96603  13.638   2.172  12.136
23536W        W96604  38.067  41.859   3.649
23537W        W96605   3.958  26.546  12.158
23538W        W96606   6.154  25.280   2.953
23539W        W96607  29.918  31.034  12.511
23540W        W96608  41.980  38.050  14.444
23541W        W96609  21.870  40.504   0.570
23542W        W96610  33.876   5.851   0.632
23543W        W96611  35.862  34.986   0.772
23544W        W96612  21.640  10.118   0.235
23545W        W96613   4.290  19.032  14.466
23546W        W96614  14.578  44.887  10.503
23547W        W96615  22.815  30.995  13.813
23548W        W96616  28.123  25.476  11.349
23549W        W96617  33.617  34.641  12.993
23550W        W96618  24.437  20.239  14.880
23551W        W96619  22.299  24.140   0.470
23552W        W96620  20.332  28.729   0.279
23553W        W96621   6.723   1.370  14.725
23554W        W96622  24.259   4.301  14.418
23555W        W96623  11.586  24.504  14.395
23556W        W96624  40.311  36.618   5.031
23557W        W96625  29.363   7.624  11.868
23558W        W96626  21.064  19.056  11.926
23559W        W96627   9.103   9.181  11.629
23560W        W96628   7.973  26.539  14.433
23561W        W96629  21.154  35.325   3.283
23562W        W96630  27.137  44.876   1.248
23563W        W96631   0.693   6.853   3.320
23564W        W96632  31.486   6.491   4.230
23565W        W96633   3.316  24.514   0.293
23566W        W96634  33.280   5.713  11.970
23567W        W96635  33.902  13.246  13.016
23568W        W96636  23.465  39.985  14.397
23569W        W96637   9.689   1.903  12.616
23570W        W96638  16.228  37.866  12.481
23571W        W96639  24.612  37.966  13.091
23572W        W96640  40.003   6.427  14.679
23573W        W96641  37.650  40.456  11.359
23574W        W96642   5.895  33.093   0.148
23575W        W96643  10.223  42.826   2.363
23576W        W96644   1.986   5.069   2.321
23577W        W96645   4.198  17.613  14.750
23578W        W96646  19.051   3.368   1.461
23579W        W96647   3.275  20.893  10.216
23580W        W96648  32.046   2.713  12.409
23581W        W96649  23.556  29.419  12.803
23582W        W96650  19.196   0.309   0.538
23583W        W96651  31.439  42.941   3.223
23584W        W96652  41.884  36.840   2.736
23585W        W96653  11.565  14.673  14.099
23586W        W96654  14.715  12.754   3.302
23587W        W96655   1.891   6.182  11.679
23588W        W96656  14.172   3.200  11.640
23589W        W96657  29.681  18.877  13.200
23590W        W96658  28.973   9.383   2.805
23591W        W96659  12.181  12.314  11.093
23592W        W96660  39.380  32.631  12.322
23593W        W96661   6.970  40.307  14.380
23594W        W96662  16.149  12.969  14.296
23595W        W96663  22.465   4.330  13.783
23596W        W96664  21.098  15.389   0.073
23597W        W96665   6.805   2.762  14.040
23598W        W96666   5.250  41.558   3.737
23599W        W96667  37.413  21.173  10.580
23600W        W96668  18.347   7.255   4.155
23601W        W96669  20.837  36.394  12.915
23602W        W96670  31.243  34.073  13.117
23603W        W96671  10.391   1.265   0.272
23604W        W96672  14.668  42.651   3.176
23605W        W96673  14.029   0.313   4.087
23606W        W96674  36.819  39.118   0.915
23607W        W96675   5.709  23.022  12.017
23608W        W96676   6.389   4.316   2.693
23609W        W96677  22.044  25.810  11.958
23610W        W96678  41.235  25.648  13.018
23611W        W96679  37.308  15.216   4.518
23612W        W96680  23.276  44.817   2.906
23613W        W96681  30.524  15.314   2.688
23614W        W96682   1.185   4.750  11.040
23615W        W96683  18.356  32.106   1.013
23616W        W96684  43.937  34.319   3.743
23617W        W96685  32.894  10.714  12.550
23618W        W96686  18.198  43.039   2.216
23619W        W96687  18.121  40.300  14.039
23620W        W96688  25.417  14.145   3.858
23621W        W96689   0.021  15.792  14.293
23622W        W96690   6.645  31.153   2.226
23623W        W96691  31.644  13.599   1.985
23624W        W96692   8.133  39.522   3.693
23625W        W96693   5.842   3.756   0.739
23626W        W96694  12.119  42.907  13.270
23627W        W96695  43.978  10.303   0.512
23628W        W96696  17.094  14.111  10.573
23629W        W96697  30.856   6.280   3.707
23630W        W96698  44.464   0.429  11.520
23631W        W96699   5.367  38.953  14.878
23632W        W96700  31.347   5.243  10.996
23633W        W96701  13.747   5.236   0.913
23634W        W96702   8.211  10.329  14.425
23635W        W96703  26.173   5.787   0.344
23636W        W96704  18.626  32.119  10.146
23637W        W96705  29.450  24.122   0.030
23638W        W96706   5.754  28.972   3.290
23639W        W96707   1.941  29.434  14.545
23640W        W96708  35.989  27.174  11.491
23641W        W96709  28.705  31.566   4.059
23642W        W96710   4.289   0.745  12.494
23643W        W96711  35.025  20.583  11.402
23644W        W96712   3.220  42.371   5.395
23645W        W96713   5.997  15.329  14.046
23646W        W96714  10.639  24.529  12.421
23647W        W96715  32.307  34.954   0.933
23648W        W96716  37.033  31.203   5.445
23649W        W96717  23.572  15.369   3.002
23650W        W96718  12.664  30.612   0.944
23651W        W96719  15.715  44.794   2.753
23652W        W96720  15.096  10.292   1.859
23653W        W96721  22.566   1.854  11.281
23654W        W96722  36.828   0.861  11.515
23655W        W96723  19.732  20.722   3.558
23656W        W96724  12.456  29.363   4.613
23657W        W96725  13.382   2.048   2.891
23658W        W96726  43.984  25.210   1.067
23659W        W96727   7.877  43.512  14.867
23660W        W96728  44.726  31.424   4.473
23661W        W96729  13.392  27.886   0.721
23662W        W96730  18.858   4.364   1.327
23663W        W96731  19.686   3.877  12.927
23664W        W96732   4.542  19.459  14.305
23665W        W96733  13.591  28.752   1.143
23666W        W96734  22.462   9.264   4.275
23667W        W96735   1.918  16.275  14.017
23668W        W96736  10.206   6.390   4.984
23669W        W96737   1.979   6.867  11.160
23670W        W96738  19.709  20.177   0.712
23671W        W96739   8.165  41.878   4.980
23672W        W96740   5.246  36.769  14.267
23673W        W96741  19.599  21.722   4.384
23674W        W96742  25.436  15.421   2.135
23675W        W96743  16.428   0.283   4.111
23676W        W96744  37.640  26.899   0.956
23677W        W96745  21.560  18.131   0.806
23678W        W96746  37.311   6.190  14.753
23679W        W96747  31.990   4.021   3.553
23680W        W96748  11.063  31.747  12.410
23681W        W96749  17.426  30.474  10.139
23682W        W96750  27.738  30.149   3.353
23683W        W96751   5.812   5.262   0.813
23684W        W96752  27.152  44.054   2.937
23685W        W96753  43.058  42.901  13.020
23686W        W96754  37.508  23.939  14.161
23687W        W96755  41.428  16.167  11.076
23688W        W96756   8.397  19.813  14.438
23689W        W96757  19.065  18.556   4.643
23690W        W96758   5.819  15.682  13.603
23691W        W96759  11.840  32.489   0.485
23692W        W96760  43.206  12.221   2.113
23693W        W96761  36.254  26.120  13.412
23694W        W96762  33.269  26.613  12.510
23695W        W96763   2.571  27.181   0.314
23696W        W96764  29.420  40.995   2.789
23697W        W96765   7.816  41.803  12.077
23698W        W96766  42.458  29.464   2.161
23699W        W96767  43.029   0.746  14.490
23700W        W96768   6.688  28.486  10.737
23701W        W96769  31.606  10.868  10.537
23702W        W96770  43.517   8.677   2.842
23703W        W96771  41.015  32.409  10.953
23704W        W96772  31.650   3.177   2.308
23705W        W96773  42.150  21.064   4.527
23706W        W96774  21.046   0.647  10.084
23707W        W96775   1.234   8.850  10.523
23708W        W96776  25.263  11.786   4.332
23709W        W96777  21.674  15.640   4.223
23710W        W96778  13.848  29.206   1.278
23711W        W96779  33.915  38.973  13.592
23712W        W96780  16.711  40.953  10.660
23713W        W96781  39.616  37.388   1.305
23714W        W96782  10.193  28.997   1.107
23715W        W96783  23.275  22.344  12.071
23716W        W96784   3.270  10.067   4.213
23717W        W96785   5.465  10.715   3.285
23718W        W96786  40.779  36.037  12.182
23719W        W96787  29.429   9.923   2.274
23720W        W96788  16.713  12.239  10.463
23721W        W96789  44.035  16.352   1.886
23722W        W96790  14.198  42.241  12.097
23723W        W96791  29.258  14.750  14.459
23724W        W96792  35.870  35.597   1.249
23725W        W96793   2.767  31.634  14.457
23726W        W96794   4.918   6.787  11.255
23727W        W96795  35.415  20.302   4.258
23728W        W96796  41.958  12.145  14.296
23729W        W96797  35.412  39.259   1.698
23730W        W96798   9.836  44.558  11.469
23731W        W96799   0.648  11.159  10.910
23732W        W96800   1.949  35.772  12.852
23733W        W96801  14.782  27.635  14.391
23734W        W96802   6.776  39.535   4.041
23735W        W96803  43.985  26.038   2.780
23736W        W96804  40.967  10.313   2.632
23737W        W96805  16.896  39.452   3.770
23738W        W96806  22.267  30.902   3.619
23739W        W96807   3.030  28.475  14.988
23740W        W96808  44.748  18.684   3.597
23741W        W96809  24.070   8.389   5.295
23742W        W96810  33.159  34.004  14.839
23743W        W96811  17.649  34.760   0.362
23744W        W96812  39.412   1.011   2.426
23745W        W96813  37.676   7.922   2.768
23746W        W96814  25.202  24.964   1.264
23747W        W96815   6.588  39.524  14.025
23748W        W96816  27.148  11.245   3.198
23749W        W96817  42.989  31.031   2.875
23750W        W96818  37.338  20.502  12.943
23751W        W96819  20.729   7.548   2.106
23752W        W96820  34.125  19.260  12.784
23753W        W96821  27.191  24.209  12.102
23754W        W96822  35.229  15.103  12.505
23755W        W96823  25.296  16.239   4.097
23756W        W96824  25.543  26.200  13.566
23757W        W96825  18.380  22.602  11.464
23758W        W96826  42.824  24.727  12.015
23759W        W96827  34.390   6.621  14.963
23760W        W96828  19.592  16.557  14.583
23761W        W96829  12.522  43.515  10.772
23762W        W96830  22.971  10.931  14.860
23763W        W96831  41.114  42.221  13.865
23764W        W96832  43.860  28.614   1.221
23765W        W96833  26.633  32.097  12.948
23766W        W96834  26.177  32.830   1.358
23767W        W96835  38.297  28.799  14.378
23768W        W96836  36.115   4.471  12.999
23769W        W96837  25.507  18.757  10.655
23770W        W96838  20.303  33.016   1.753
23771W        W96839   2.073  26.818  12.126
23772W        W96840  39.005   5.968  14.941
23773W        W96841  44.854  39.631   3.131
23774W        W96842  39.992  24.579  11.466
23775W        W96843  36.948   1.897  11.566
23776W        W96844  35.581  24.527   0.409
23777W        W96845  14.596   9.813  14.972
23778W        W96846   6.870  40.811  12.069
23779W        W96847  43.574  38.424   2.176
23780W        W96848  40.286  34.859   0.859
23781W        W96849   1.971  11.687  14.958
23782W        W96850  24.856  14.724   3.151
23783W        W96851  22.924  31.654  11.137
23784W        W96852   4.925  39.755  11.624
23785W        W96853  13.746  33.606   1.050
23786W        W96854  17.837   3.411   0.173
23787W        W96855  35.413  24.574  11.245
23788W        W96856   2.881   8.170  11.879
23789W        W96857  30.958  24.592   0.260
23790W        W96858   7.847  19.317  14.890
23791W        W96859   2.238   3.900   1.311
23792W        W96860  31.498   8.471   2.340
23793W        W96861  38.014  29.601  12.797
23794W        W96862  18.773  10.815   2.814
23795W        W96863  31.117  34.935   0.419
23796W        W96864  39.551  11.732  13.524
23797W        W96865  34.752  11.188  12.460
23798W        W96866  17.424  11.438   1.997
23799W        W96867  20.839   8.435   4.980
23800W        W96868  15.885   4.417  10.882
23801W        W96869  12.216  40.955   1.383
23802W        W96870  16.961  39.010   1.197
23803W        W96871  11.761   1.784  11.055
23804W        W96872   8.063  17.649  10.616
23805W        W96873  25.021  22.315   4.981
23806W        W96874  33.391   3.144   1.213
23807W        W96875   5.289  44.519   3.662
23808W        W96876  36.630   0.220   2.167
23809W        W96877   7.347  43.271   3.328
23810W        W96878  25.714  20.702   0.101
23811W        W96879   1.412  26.979  12.926
23812W        W96880  36.061  28.027  13.807
23813W        W96881   6.387   1.564   0.933
23814W        W96882   8.768  22.652   2.286
23815W        W96883  26.377  34.044   3.373
23816W        W96884  20.033  28.462  11.843
23817W        W96885  44.786  37.440  12.573
23818W        W96886  18.133  31.941  13.074
23819W        W96887  20.168  19.814   1.188
23820W        W96888  25.034  31.208  14.902
23821W        W96889  22.360   0.200   3.650
23822W        W96890  29.603  44.824  13.377
23823W        W96891  18.752  29.912  13.420
23824W        W96892  41.855  16.846  11.125
23825W        W96893   8.863  41.010  14.554
23826W        W96894  35.904  20.263  10.625
23827W        W96895   6.627  23.306  13.537
23828W        W96896   4.379  17.995  12.556
23829W        W96897  43.750   6.720  12.554
23830W        W96898  10.162  10.634   4.195
23831W        W96899  11.093  24.610  14.514
23832W        W96900  10.720  40.615  11.535
23833W        W96901  18.284  14.256  13.336
23834W        W96902  39.836  40.421   2.176
23835W        W96903  39.195   6.266   5.725
23836W        W96904   8.787   7.472  10.747
23837W        W96905  16.542   3.316  13.018
23838W        W96906  35.416  29.512  10.464
23839W        W96907  23.082  21.035  11.139
23840W        W96908  25.093  34.926  13.054
23841W        W96909   1.450  30.555  12.489
23842W        W96910  35.541  27.905   4.861
23843W        W96911  40.273  14.290   2.189
23844W        W96912  14.221  30.251   3.728
23845W        W96913  41.044  14.404  12.929
23846W        W96914  26.974  24.705  10.715
23847W        W96915   9.426  32.143   3.484
23848W        W96916  44.363  11.852  11.590
23849W        W96917   9.229   3.772  13.809
23850W        W96918  17.897  15.868  10.955
23851W        W96919  26.935  22.628  14.858
23852W        W96920  21.696  40.033  11.041
23853W        W96921  36.286  24.023  13.095
23854W        W96922  10.739   1.856  14.775
23855W        W96923  12.285  39.904  10.657
23856W        W96924  40.795  24.440   2.856
23857W        W96925  13.115  31.147  12.042
23858W        W96926  18.777  40.282   1.222
23859W        W96927  22.294  44.278   3.711
23860W        W96928  43.212  13.395  11.365
23861W        W96929  18.955  29.695  10.258
23862W        W96930   9.904   1.267   4.183
23863W        W96931  27.489  30.470   1.808
23864W        W96932   3.707  14.646  12.304
23865W        W96933  34.976  14.324   3.226
23866W        W96934   6.409  14.355   5.239
23867W        W96935  14.114  22.019  14.447
23868W        W96936  14.017  43.103   3.780
23869W        W96937  33.123  14.735  13.991
23870W        W96938  36.672   1.720   2.621
23871W        W96939  26.049  39.600  10.645
23872W        W96940  36.578  19.116   2.953
23873W        W96941  29.662  32.115   0.744
23874W        W96942  12.357  35.979   1.076
23875W        W96943   5.898  32.906   0.658
23876W        W96944  18.098  14.715  13.597
23877W        W96945   3.474  38.070   1.872
23878W        W96946  26.440  13.195  12.062
23879W        W96947  20.425   8.119   1.613
23880W        W96948   0.698  15.626   2.960
23881W        W96949  14.312  40.311  12.985
23882W        W96950  27.417  34.092  11.907
23883W        W96951  11.204  44.700   2.200
23884W        W96952  30.594  13.945  14.809
23885W        W96953  20.566  14.252   2.388
23886W        W96954  32.253  28.364  12.113
23887W        W96955   7.730   7.994  10.813
23888W        W96956  36.052  18.350   4.135
23889W        W96957   1.487  13.307   3.626
23890W        W96958  37.519   9.601  10.445
23891W        W96959  12.837  33.942   0.748
23892W        W96960  12.943  15.200  11.608
23893W        W96961  20.188  24.702   2.850
23894W        W96962  41.923   0.733  14.039
23895W        W96963  32.098  30.444   3.660
23896W        W96964   4.193  34.366   1.712
23897W        W96965  15.766  13.598   2.397
23898W        W96966  36.916  41.955   4.381
23899W        W96967  17.058  44.281  13.388
23900W        W96968  10.413  19.147   0.060
23901W        W96969  11.161  38.217  13.104
23902W        W96970  25.123  43.007   4.805
23903W        W96971  43.248  29.021   3.329
23904W        W96972  44.773  42.265  12.153
23905W        W96973  33.107  11.793   1.357
23906W        W96974   7.769  16.316  11.067
23907W        W96975   7.356  22.324  14.803
23908W        W96976  34.258   7.345  11.125
23909W        W96977  31.217  31.042  11.246
23910W        W96978  35.867   2.463  12.916
23911W        W96979   0.321  30.869   2.820
23912W        W96980  14.863  23.527  13.526
23913W        W96981  31.058  29.100   0.218
23914W        W96982  38.882   1.781   5.130
23915W        W96983   3.216  32.430   1.647
23916W        W96984  25.750  35.130  11.096
23917W        W96985   5.760  13.176  14.846
23918W        W96986  40.675  22.575   5.011
23919W        W96987  15.821  27.080   2.165
23920W        W96988  13.561  31.108   0.349
23921W        W96989  21.142   5.674   1.668
23922W        W96990  24.264  10.271  13.618
23923W        W96991  24.684   6.909  14.781
23924W        W96992  42.934  34.472  13.898
23925W        W96993  27.005  35.982   0.367
23926W        W96994  38.875  15.097  12.901
23927W        W96995  23.637  14.012  14.291
23928W        W96996  28.277   4.127   4.477
23929W        W96997   7.778  42.014   3.543
23930W        W96998  22.583  19.500  12.599
23931W        W96999  40.354  24.282  13.509
23932W        W97000  33.819   8.791  12.392
23933W        W97001  21.226  35.776   2.288
23934W        W97002  21.253  42.302   0.175
23935W        W97003  22.345  44.160   0.234
23936W        W97004  39.871  31.035  13.295
23937W        W97005  15.510  15.936  14.307
23938W        W97006  36.985   0.020  13.675
23939W        W97007   2.333  33.108  13.609
23940W        W97008  41.960  10.229   3.109
23941W        W97009  14.219  27.114   0.013
23942W        W97010  38.201  17.791   4.167
23943W        W97011  17.112  33.821   1.705
23944W        W97012  24.734  33.522   4.650
23945W        W97013   1.389  36.373  11.732
23946W        W97014   2.339  25.483   4.052
23947W        W97015   4.251  23.444   3.744
23948W        W97016  18.136   6.841  14.102
23949W        W97017  34.534   6.249   0.428
23950W        W97018  20.152  25.407  12.488
23951W        W97019  23.562  11.640  14.729
23952W        W97020  22.558   8.736  10.744
23953W        W97021  27.689  29.080  14.822
23954W        W97022  42.313   3.699   1.300
23955W        W97023  43.090  36.977   2.375
23956W        W97024  44.194  37.518   0.810
23957W        W97025  27.722  31.348  10.984
23958W        W97026   9.782  33.070   2.707
23959W        W97027  44.912   1.788  10.655
23960W        W97028  33.613  30.438  13.416
23961W        W97029  31.432  24.320   4.198
23962W        W97030   4.720  30.044  11.485
23963W        W97031  10.708   1.449  13.845
23964W        W97032   5.908  21.295   0.175
23965W        W97033   5.502  21.477   2.414
23966W        W97034  22.510  32.958  11.988
23967W        W97035  17.054   0.012  12.512
23968W        W97036  40.623  24.538  13.859
23969W        W97037   1.776  22.723   2.029
23970W        W97038  21.925  18.210  14.794
23971W        W97039  37.333  26.155  12.250
23972W        W97040   4.942  33.071  10.575
23973W        W97041  44.217   7.844   2.926
23974W        W97042  33.930  31.561   0.273
23975W        W97043  14.592  18.626  12.095
23976W        W97044  30.761  42.988  14.358
23977W        W97045  15.660  14.637   2.361
23978W        W97046  13.362   7.936  11.767
23979W        W97047  15.537  24.053   0.271
23980W        W97048  20.296  33.986  11.577
23981W        W97049  36.526  13.537   2.822
23982W        W97050  43.504  17.729   1.653
23983W        W97051  43.879  27.765   2.432
23984W        W97052  11.679   7.137  13.730
23985W        W97053  24.590  26.049  13.547
23986W        W97054  12.263  17.130   5.433
23987W        W97055   5.956   7.702  11.096
23988W        W97056  15.605  39.549   1.316
23989W        W97057  29.531  38.906  14.533
23990W        W97058  43.751  21.510   1.741
23991W        W97059  17.135  31.396  14.900
23992W        W97060  33.891  16.195  13.896
23993W        W97061   4.978  26.587  12.938
23994W        W97062  11.357  42.019  12.549
23995W        W97063   8.338  35.282   4.255
23996W        W97064  21.259   0.630  13.299
23997W        W97065  16.556  29.866   3.690
23998W        W97066  22.968  19.579   1.896
23999W        W97067  38.352  35.946   2.756
24000W        W97068  31.443  14.299   1.196
24001W        W97069  27.535  13.311  13.011
24002W        W97070  42.020   9.761  13.087
24003W        W97071  22.212   0.190   4.144
24004W        W97072  33.624  27.662   2.310
24005W        W97073   0.365  36.616  13.266
24006W        W97074  11.828  36.954   1.946
24007W        W97075  12.349  10.602  14.304
24008W        W97076  36.425  22.313  12.495
24009W        W97077  28.564  33.074  11.527
24010W        W97078  39.054  17.789  10.134
24011W        W97079  13.795  18.216  10.980
24012W        W97080  29.658   5.954   4.699
24013W        W97081  22.669  19.483  14.070
24014W        W97082  41.048  22.245   0.426
24015W        W97083  27.553  22.856  11.522
24016W        W97084  35.107  29.012   4.710
24017W        W97085  17.006  17.180  11.984
24018W        W97086  18.772  21.679  12.604
24019W        W97087  10.600  31.563  11.529
24020W        W97088  38.966  24.015  10.302
24021W        W97089   0.977   2.896  12.893
24022W        W97090  22.594   3.385   0.311
24023W        W97091  41.206  13.909   0.948
24024W        W97092  21.846  35.521  14.997
24025W        W97093   5.915  21.033   4.618
24026W        W97094  42.874  13.791  11.126
24027W        W97095  10.213  17.714   5.107
24028W        W97096  17.552  10.357   0.460
24029W        W97097  43.952  32.991  14.037
24030W        W97098  20.783  36.938   2.110
24031W        W97099  31.837  26.864   0.560
24032W        W97100  19.560  30.613   3.408
24033W        W97101  23.982  43.270  10.732
24034W        W97102   9.324  30.927   2.750
24035W        W97103  28.869   2.781  11.147
24036W        W97104  38.390  36.597   3.569
24037W        W97105  24.645  13.137   0.366
24038W        W97106  22.704  10.339  10.675
24039W        W97107   9.867   2.234  14.797
24040W        W97108  27.316  42.577  10.752
24041W        W97109  17.537   2.567  11.246
24042W        W97110  28.651  30.015   3.161
24043W        W97111  21.058  38.806   2.250
24044W        W97112   1.254  20.003   2.242
24045W        W97113   2.303   5.265  12.708
24046W        W97114  41.849  25.360   9.923
24047W        W97115  29.121   4.055  14.296
24048W        W97116  39.400  24.744  12.479
24049W        W97117  15.098  43.896  11.562
24050W        W97118  36.554  35.643  11.170
24051W        W97119  26.080  37.919  14.051
24052W        W97120   2.036   3.529  12.805
24053W        W97121  14.811  31.060   3.779
24054W        W97122  41.567  33.409  11.142
24055W        W97123  24.993  17.259   2.224
24056W        W97124   4.296  14.088  12.391
24057W        W97125  21.862  12.597   4.251
24058W        W97126  33.486  24.164  14.770
24059W        W97127  19.179   1.376  13.143
24060W        W97128  41.504  26.706  13.276
24061W        W97129  16.240  40.971  10.901
24062W        W97130  29.910  20.994  11.024
24063W        W97131   6.097   0.257   0.292
24064W        W97132  38.111  28.123   0.286
24065W        W97133   8.089  10.698   4.013
24066W        W97134  42.751  43.336  12.251
24067W        W97135  22.013  19.247   9.690
24068W        W97136  29.518  22.608  11.058
24069W        W97137   8.394  22.254  11.635
24070W        W97138  15.245  26.808  13.092
24071W        W97139   2.972  37.037  12.094
24072W        W97140   7.051  31.991   2.785
24073W        W97141   4.513   7.798   0.865
24074W        W97142   2.314  19.214   2.962
24075W        W97143  20.013  39.342   0.464
24076W        W97144   9.130  32.353  14.018
24077W        W97145  35.408  18.290   1.293
24078W        W97146  21.269   1.118  13.402
24079W        W97147  11.203  39.485  13.077
24080W        W97148  40.967  28.960  10.933
24081W        W97149  18.513  40.428   1.666
24082W        W97150  24.438  18.230   1.471
24083W        W97151  42.116   3.920   4.629
24084W        W97152   0.185  10.798  13.398
24085W        W97153  14.130  14.800   3.774
24086W        W97154  19.118  15.279  13.386
24087W        W97155  25.254   0.041   3.753
24088W        W97156  30.779  26.781  11.094
24089W        W97157  23.246  12.721   0.718
24090W        W97158  36.728   2.622   1.419
24091W        W97159  33.902   4.302  14.753
24092W        W97160  34.463  25.549   0.763
24093W        W97161  36.902  10.940   0.556
24094W        W97162  44.722  22.642   1.484
24095W        W97163  31.970   0.109   0.427
24096W        W97164  10.283  15.158  12.102
24097W        W97165  32.521  42.808  11.165
24098W        W97166  18.006  11.904  11.896
24099W        W97167  19.675  20.633  14.315
24100W        W97168  32.173  27.503  12.510
24101W        W97169  34.066  29.504   0.985
24102W        W97170  31.923  24.222   4.435
24103W        W97171   0.753   5.184  12.428
24104W        W97172  24.464  29.623  14.274
24105W        W97173   1.900  35.998  10.576
24106W        W97174  33.880  28.507  11.142
24107W        W97175  17.224   7.891  13.859
24108W        W97176  22.892  27.890  13.598
24109W        W97177  44.552  16.838   3.250
24110W        W97178  32.892  25.116   2.159
24111W        W97179  17.018  37.026   0.431
24112W        W97180  15.356  27.922   0.592
24113W        W97181  41.343  25.900   1.289
24114W        W97182  29.702  16.760   2.715
24115W        W97183  44.898  43.238  13.974
24116W        W97184  41.849  12.067   3.130
24117W        W97185  18.266  19.595  14.832
24118W        W97186   0.023  19.122   4.323
24119W        W97187  31.179  37.381  13.296
24120W        W97188  42.713   0.822   2.270
24121W        W97189   1.313   8.759   4.194
24122W        W97190  30.564  13.276   4.617
24123W        W97191  32.346  23.444   4.677
24124W        W97192  16.962  31.695   0.281
24125W        W97193  29.004  43.952  12.180
24126W        W97194  23.694  39.563   0.945
24127W        W97195  41.123  12.721  11.178
24128W        W97196  10.158  42.576   4.245
24129W        W97197  10.218  23.670   0.448
24130W        W97198  38.745  40.594   5.028
24131W        W97199  16.170  28.020  13.618
24132W        W97200  40.064  28.235   4.774
24133W        W97201  43.004  30.434  12.907
24134W        W97202  27.592  24.387  12.482
24135W        W97203  44.871  39.277  14.461
24136W        W97204   9.666  27.728  14.830
24137W        W97205  10.224  29.447   1.357
24138W        W97206  18.261  23.059   2.884
24139W        W97207  16.112   1.169  11.103
24140W        W97208  10.163   4.975   1.670
24141W        W97209  26.583  42.315  14.563
24142W        W97210  28.819  18.962   1.567
24143W        W97211  41.278  18.667  13.570
24144W        W97212  29.944  21.823  11.933
24145W        W97213  25.959  36.038   3.169
24146W        W97214  44.366   0.319  10.622
24147W        W97215  38.335  19.587  14.043
24148W        W97216   5.816   8.787   3.392
24149W        W97217  35.371  13.269   2.883
24150W        W97218  27.124  33.171   3.136
24151W        W97219  34.900  12.948   4.087
24152W        W97220  31.627   2.528   2.880
24153W        W97221   8.520  12.252   2.247
24154W        W97222   6.077  31.060   1.364
24155W        W97223   7.124  31.521   1.826
24156W        W97224   8.275  27.737   1.886
24157W        W97225  15.806  36.345   0.844
24158W        W97226  10.562  42.266   4.158
24159W        W97227  43.823  22.944   0.412
24160W        W97228  26.993  29.996   3.801
24161W        W97229   5.232  41.678  14.555
24162W        W97230  34.605  28.217  14.765
24163W        W97231  42.621   2.577   2.612
24164W        W97232  15.683  12.188  10.566
24165W        W97233  22.066  25.806  13.267
24166W        W97234  37.909  14.065  13.343
24167W        W97235  16.346  44.430   1.229
24168W        W97236  39.278  39.770  13.490
24169W        W97237  25.775  43.848   2.698
24170W        W97238  36.397  23.121  14.068
24171W        W97239  37.124   0.347  14.485
24172W        W97240  36.078   9.873   1.881
24173W        W97241   2.458  24.782   1.390
24174W        W97242  37.003  18.752  12.434
24175W        W97243   3.485  42.037  13.507
24176W        W97244  42.409  35.627  11.148
24177W        W97245  32.169   3.757  11.714
24178W        W97246   3.709  25.958   0.360
24179W        W97247  18.068  28.365  14.790
24180W        W97248  37.086  27.474   1.314
24181W        W97249  40.990  13.290   1.749
24182W        W97250   0.193  24.018   1.921
24183W        W97251  22.891   1.084   3.800
24184W        W97252   2.246  32.653  13.262
24185W        W97253  12.652  38.567   4.690
24186W        W97254  31.505  29.045   0.488
24187W        W97255  19.567  41.330   1.196
24188W        W97256  37.960  15.347   2.586
24189W        W97257  18.626  30.865  12.614
24190W        W97258  20.246  22.776  10.424
24191W        W97259  35.379   4.861   2.302
24192W        W97260  17.551  42.069  13.014
24193W        W97261   7.649   0.412  13.888
24194W        W97262   8.671  41.866  13.960
24195W        W97263   2.856  15.188   2.979
24196W        W97264  44.281  18.081  13.048
24197W        W97265  18.224  17.803  14.356
24198W        W97266  33.976   5.442  14.293
24199W        W97267  19.139  16.542  12.097
24200W        W97268  25.495   4.964   3.230
24201W        W97269  39.450  13.156   1.723
24202W        W97270  32.608  30.994  12.915
24203W        W97271   8.807  12.633  11.534
24204W        W97272   8.278  24.527   3.382
24205W        W97273  12.595  41.222   1.171
24206W        W97274  23.743  44.260   2.871
24207W        W97275  25.848   2.540  11.593
24208W        W97276  36.571  29.133   2.849
24209W        W97277  36.477  32.060  11.112
24210W        W97278  39.985  40.025   3.378
24211W        W97279  31.635   3.911   1.328
24212W        W97280  41.905   3.470   0.042
24213W        W97281   7.444   3.286   2.889
24214W        W97282  16.757   7.475   1.056
24215W        W97283  28.098  31.848  12.114
24216W        W97284  44.528   9.278   2.795
24217W        W97285   9.627  21.664  11.588
24218W        W97286   6.189  42.401   4.480
24219W        W97287  33.038  20.291  14.388
24220W        W97288   7.933  41.925   4.517
24221W        W97289  19.109  29.659   1.507
24222W        W97290   7.917  39.332  10.261
24223W        W97291   4.611  42.319   0.915
24224W        W97292  34.155  10.886  13.889
24225W        W97293  35.655   8.428   4.600
24226W        W97294  38.229  13.098   1.635
24227W        W97295  35.909  30.104  12.504
24228W        W97296  21.997  29.170   0.186
24229W        W97297  27.231  30.458  13.922
24230W        W97298  34.589  37.929   1.342
24231W        W97299  43.486  14.639   0.678
24232W        W97300  17.352  19.670  14.762
24233W        W97301  11.242  30.146  12.778
24234W        W97302   4.297  44.915   2.849
24235W        W97303   3.340   2.753  11.453
24236W        W97304  16.041  20.733  12.941
24237W        W97305  25.410  16.027   0.491
24238W        W97306  28.587   8.229  13.325
24239W        W97307  12.341  11.805   4.334
24240W        W97308   9.076  21.990  12.578
24241W        W97309  27.554   9.593   4.530
24242W        W97310  21.034   7.696   2.827
24243W        W97311  11.605   2.287   1.767
24244W        W97312  22.133  44.344   0.657
24245W        W97313  43.000  26.046   4.091
24246W        W97314   3.702  44.864  12.477
24247W        W97315   6.719   0.376  12.066
24248W        W97316  12.673   3.932  11.397
24249W        W97317  21.033  39.085   1.814
24250W        W97318  28.658  35.520  12.123
24251W        W97319  37.832   5.798  12.669
24252W        W97320  21.499  29.414  12.111
24253W        W97321  39.010  11.071  13.606
24254W        W97322  12.876  44.999   4.641
24255W        W97323  32.618  11.609   1.292
24256W        W97324  18.788  26.890   1.838
24257W        W97325  36.484  20.385  12.130
24258W        W97326   2.998  27.993  11.059
24259W        W97327  44.601   2.891  12.054
24260W        W97328  29.691  21.997  14.824
24261W        W97329  23.538  36.371  14.867
24262W        W97330  42.435  28.973   2.404
24263W        W97331  35.674  44.378  12.868
24264W        W97332  37.908   5.407  13.879
24265W        W97333   5.293  27.621   4.042
24266W        W97334   5.510  30.453   3.262
24267W        W97335   4.275  13.817   2.813
24268W        W97336  37.103   5.710   1.590
24269W        W97337  23.259   1.993  12.464
24270W        W97338  36.419  17.044  11.220
24271W        W97339  42.294  13.521  12.369
24272W        W97340  39.348  36.907   1.325
24273W        W97341  33.996  17.658  11.564
24274W        W97342  22.702  23.279   2.759
24275W        W97343  11.778   6.239   1.140
24276W        W97344  10.183   7.734   2.231
24277W        W97345  12.370  26.697  11.508
24278W        W97346  32.477  27.191   1.989
24279W        W97347  23.970  12.845   3.648
24280W        W97348  29.010  19.289  14.986
24281W        W97349  37.635  39.479  11.876
24282W        W97350  20.006  20.680  10.624
24283W        W97351  40.010  43.496  10.966
24284W        W97352   1.845  44.253   4.660
24285W        W97353  12.348   4.165  14.290
24286W        W97354  39.428   9.269   3.055
24287W        W97355  14.860  44.245   1.337
24288W        W97356   5.946  35.986  11.412
24289W        W97357   5.542  37.107  12.870
24290W        W97358  32.915  31.200  13.516
24291W        W97359   9.812   9.390  13.723
24292W        W97360  14.831   0.332  10.706
24293W        W97361  26.080   4.502   1.144
24294W        W97362  12.842   9.070  12.564
24295W        W97363  11.167  24.159   1.726
24296W        W97364  22.064   5.374   3.642
24297W        W97365  28.417  34.527   3.657
24298W        W97366  27.180  29.455   2.290
24299W        W97367   0.810   8.735  13.813
24300W        W97368  27.936  29.673   3.641
24301W        W97369  16.315  13.688  11.594
24302W        W97370  28.603   0.280   3.702
24303W        W97371  20.072  25.375   1.218
24304W        W97372  24.680  13.325  13.451
24305W        W97373   8.660  11.720   0.985
24306W        W97374  20.724  31.875  11.630
24307W        W97375  20.138   3.196   0.262
24308W        W97376  10.275  27.513   1.244
24309W        W97377  21.940  12.651  14.257
24310W        W97378  33.663  18.694  13.866
24311W        W97379   2.006  44.532  12.002
24312W        W97380  40.966  19.176   2.680
24313W        W97381  32.364  44.524   3.310
24314W        W97382   6.804  30.400  10.739
24315W        W97383   1.988  26.580   3.130
24316W        W97384  26.047  17.966  11.228
24317W        W97385  36.525  39.535   0.676
24318W        W97386  35.416  13.662   3.755
24319W        W97387  32.152  12.223  13.466
24320W        W97388  13.185  37.863  11.248
24321W        W97389   8.428   8.126  13.868
24322W        W97390  33.426  41.239  13.449
24323W        W97391  40.233  18.677  13.069
24324W        W97392  34.905  39.635   2.215
24325W        W97393  18.133  13.707   3.258
24326W        W97394  40.815  23.132   3.826
24327W        W97395  40.613  42.906  12.059
24328W        W97396  30.577  21.113   1.021
24329W        W97397  44.681   5.047   0.289
24330W        W97398  39.541   1.420  10.223
24331W        W97399   9.426  33.883  11.160
24332W        W97400  19.631  16.625   2.297
24333W        W97401   2.814  25.311  13.337
24334W        W97402  30.395   8.777  13.166
24335W        W97403  31.668  23.811   0.839
24336W        W97404   5.786  22.709  13.367
24337W        W97405  10.709  12.235   1.922
24338W        W97406  16.348   3.807  10.531
24339W        W97407  38.603  21.148   3.128
24340W        W97408  34.323  17.718   2.160
24341W        W97409  35.264   4.822  13.060
24342W        W97410  24.203  27.941  11.921
24343W        W97411   2.999  34.564   4.187
24344W        W97412  44.822  14.337  14.009
24345W        W97413  40.306  13.681   0.870
24346W        W97414  20.166  18.566  13.109
24347W        W97415   0.069  27.066   4.136
24348W        W97416   4.208   2.413   2.009
24349W        W97417  25.504  29.934   0.252
24350W        W97418  40.389  38.425  12.049
24351W        W97419  14.734   7.228   0.981
24352W        W97420   3.019  18.673  11.710
24353W        W97421  22.598   7.194  14.837
24354W        W97422  26.191  36.975   4.149
24355W        W97423  39.615  17.229   3.278
24356W        W97424  10.826  13.654   3.256
24357W        W97425  42.773  12.145   3.102
24358W        W97426  16.827  33.814  13.452
24359W        W97427  33.492  25.892   0.830
24360W        W97428  31.581  21.835  11.565
24361W        W97429   6.340   5.941  13.975
24362W        W97430  27.534  24.047  10.539
24363W        W97431  21.485   8.887  11.996
24364W        W97432  18.570  23.840  13.440
24365W        W97433  17.170  14.899  14.783
24366W        W97434  10.251  37.420   0.732
24367W        W97435  32.717  19.169  13.975
24368W        W97436  44.488  24.219  12.460
24369W        W97437  31.232  26.865   4.281
24370W        W97438  34.562  25.692   4.573
24371W        W97439   5.394  28.014  14.818
24372W        W97440  14.811  20.387   0.501
24373W        W97441   1.274   7.575   3.321
24374W        W97442  20.548  10.230   0.268
24375W        W97443  39.850   3.253   1.911
24376W        W97444  37.478   0.880   3.769
24377W        W97445  37.447  33.058  10.982
24378W        W97446  31.121  26.449  11.830
24379W        W97447  15.548  41.827  13.459
24380W        W97448  39.921   6.165   0.856
24381W        W97449   5.609  17.284   4.895
24382W        W97450  24.622   3.705   2.240
24383W        W97451  18.540  23.197  12.172
24384W        W97452  38.436   1.277   2.650
24385W        W97453  38.558  23.577  11.514
24386W        W97454  16.423  10.750   0.029
24387W        W97455  32.129   2.002   2.442
24388W        W97456  38.511   0.441   3.315
24389W        W97457  30.073  43.584   1.930
24390W        W97458   8.158  19.683   3.096
24391W        W97459  36.421   0.438   3.627
24392W        W97460   7.876  12.299  10.702
24393W        W97461   1.476   2.728   0.793
24394W        W97462  22.105   9.167  13.939
24395W        W97463  17.587  38.083  12.710
24396W        W97464  20.708  25.154  11.149
24397W        W97465  35.265  29.576  14.993
24398W        W97466  30.808  19.203   1.929
24399W        W97467  17.747   5.767   0.830
24400W        W97468   2.542  29.180   1.152
24401W        W97469  25.655  27.664  12.526
24402W        W97470   4.934  23.922  12.059
24403W        W97471  18.344  17.110  12.400
24404W        W97472  16.231  21.532   0.785
24405W        W97473   0.276  33.724   4.010
24406W        W97474  38.299   4.450   1.612
24407W        W97475  31.708  40.726   1.105
24408W        W97476  42.042  14.405  11.487
24409W        W97477   0.861  16.704  11.007
24410W        W97478  37.842  28.383  11.976
24411W        W97479  25.991  16.742   1.265
24412W        W97480   0.721  15.804  12.590
24413W        W97481   2.964  37.078   4.864
24414W        W97482  19.800  10.174  14.780
24415W        W97483  26.924  26.644  14.372
24416W        W97484  39.998  15.785  12.420
24417W        W97485  10.319  31.202   0.426
24418W        W97486  19.774  20.235   4.406
24419W        W97487  18.701   7.715  11.093
24420W        W97488  12.617  21.197   3.754
24421W        W97489  26.485  17.426   4.023
24422W        W97490   1.956   0.299  14.014
24423W        W97491  42.916  21.696   4.098
24424W        W97492   9.383  15.318  13.318
24425W        W97493   4.007  32.090  12.027
24426W        W97494  37.506  19.294   4.137
24427W        W97495   6.253  32.456   4.454
24428W        W97496  41.586  35.522  14.860
24429W        W97497   7.311  35.476   1.907
24430W        W97498  17.047  34.824   0.778
24431W        W97499   9.761   1.136   1.821
24432W        W97500  38.814   2.251  11.989
24433W        W97501  20.706  26.672  12.907
24434W        W97502   4.262  12.680   2.367
24435W        W97503   3.158   4.866  12.786
24436W        W97504  18.203  12.811  13.778
24437W        W97505  23.447  41.802  10.647
24438W        W97506  44.877   3.691   3.414
24439W        W97507  26.026  33.442   3.610
24440W        W97508  37.812  20.043   0.120
24441W        W97509  12.513  11.748   3.205
24442W        W97510  20.616   4.554   2.807
24443W        W97511  34.493   9.342   1.338
24444W        W97512  42.337  18.575   4.656
24445W        W97513  35.841  41.854  12.460
24446W        W97514  28.106  29.664  13.449
24447W        W97515  28.044   0.520   0.879
24448W        W97516  41.344  42.652  14.090
24449W        W97517  44.242   5.158  13.997
24450W        W97518   5.782  36.725   3.563
24451W        W97519  43.162   2.079  13.790
24452W        W97520  10.261  37.960  12.509
24453W        W97521  15.846  22.477  13.479
24454W        W97522  26.612   6.074  10.276
24455W        W97523  44.515  22.132   2.667
24456W        W97524   6.322   8.893   3.132
24457W        W97525  30.781  10.590   0.476
24458W        W97526  38.841  37.590   0.893
24459W        W97527  37.945  28.626   1.012
24460W        W97528  14.137  22.083   0.338
24461W        W97529  36.295  12.209  14.441
24462W        W97530  20.749  21.717  14.949
24463W        W97531  15.281   0.831  11.401
24464W        W97532   2.472  11.714   4.107
24465W        W97533  20.021  23.246  10.549
24466W        W97534  34.548  27.392   0.223
24467W        W97535  11.895  35.648  13.908
24468W        W97536  21.438  40.961  11.084
24469W        W97537   1.978   7.215   1.450
24470W        W97538  42.995  12.755   4.315
24471W        W97539   3.755   1.857  10.562
24472W        W97540  24.329  36.336   5.095
24473W        W97541  16.672  33.129   1.020
24474W        W97542   4.432  26.640  13.918
24475W        W97543  36.130  31.169  12.953
24476W        W97544  31.705  25.137  14.947
24477W        W97545  40.491  19.256   2.881
24478W        W97546   6.284  10.705  10.632
24479W        W97547   3.224  16.268   1.730
24480W        W97548  21.548   2.713   2.373
24481W        W97549  43.468  40.827   1.514
24482W        W97550  17.653   6.041   0.398
24483W        W97551  31.046   4.168   1.741
24484W        W97552  28.971  17.512  12.096
24485W        W97553   9.336  18.094   1.933
24486W        W97554  13.851  25.381   0.740
24487W        W97555  32.373  31.133   2.227
24488W        W97556   4.704  24.021   2.932
24489W        W97557  39.863  12.863  14.830
24490W        W97558  18.064  30.195   4.048
24491W        W97559  36.841  16.178   1.313
24492W        W97560  15.793  31.059   0.911
24493W        W97561   2.539   8.784   4.981
24494W        W97562  19.119  44.924  12.293
24495W        W97563   7.566   2.455  12.003
24496W        W97564  33.632  28.311   1.730
24497W        W97565   4.939  34.882  14.958
24498W        W97566  31.191  24.280  14.758
24499W        W97567   8.179  10.082   2.819
24500W        W97568  43.755  15.820   4.543
24501W        W97569   7.850  19.948   2.743
24502W        W97570  13.334  32.934  12.313
24503W        W97571  10.619  29.839   2.231
24504W        W97572   8.763   9.503   0.407
24505W        W97573  40.514  11.244   3.238
24506W        W97574  40.215  30.913  12.857
24507W        W97575  16.291  15.195  10.778
24508W        W97576  33.792  22.628  12.669
24509W        W97577  35.511   0.482  13.512
24510W        W97578  16.352   9.963  13.556
24511W        W97579  18.956  12.782  12.129
24512W        W97580  33.330   4.397   1.865
24513W        W97581   7.373  32.915   3.402
24514W        W97582   0.663   6.698  11.625
24515W        W97583  34.960  43.509   3.107
24516W        W97584   0.728   0.367   1.378
24517W        W97585  15.885   0.318   4.194
24518W        W97586   4.216  18.320  11.238
24519W        W97587  37.391   9.837   4.535
24520W        W97588  42.116  18.601   4.148
24521W        W97589  35.994  36.954  13.435
24522W        W97590  37.197   0.512  10.098
24523W        W97591  36.467  37.182  13.354
24524W        W97592   4.826  10.729   3.694
24525W        W97593  37.482   2.725  11.358
24526W        W97594  21.553  27.497   4.840
24527W        W97595  33.341  27.883   4.965
24528W        W97596  22.724   3.701  14.892
24529W        W97597  31.336  20.616   0.919
24530W        W97598  14.770  33.961   2.782
24531W        W97599   2.462  18.662   0.862
24532W        W97600   1.888  40.972   1.209
24533W        W97601  19.032  39.023  13.407
24534W        W97602  41.013  15.641  12.629
24535W        W97603  29.577  20.065  10.506
24536W        W97604  43.970   9.150  11.244
24537W        W97605   1.331  11.567  11.538
24538W        W97606  32.419   8.064  14.738
24539W        W97607  20.052  11.730   4.512
24540W        W97608  21.560  13.559   4.424
24541W        W97609   5.895  32.107  14.863
24542W        W97610  39.857  25.947  10.727
24543W        W97611  42.296  36.833  11.516
24544W        W97612   6.366  37.881  10.637
24545W        W97613  16.226  25.451  13.461
24546W        W97614  18.600  22.693  14.042
24547W        W97615  38.242  42.743   1.846
24548W        W97616  24.481  37.923  14.861
24549W        W97617  11.536  17.807  10.687
24550W        W97618  15.863   6.810   3.389
24551W        W97619  30.449   7.842  10.609
24552W        W97620  25.622  34.306   1.958
24553W        W97621  30.893  22.093   0.429
24554W        W97622  35.332  32.108   0.810
24555W        W97623  20.511  20.071  12.906
24556W        W97624  32.246  44.845   2.280
24557W        W97625  42.361  22.897  11.883
24558W        W97626  16.200  13.336   2.650
24559W        W97627  24.625  25.292   2.898
24560W        W97628  18.239  32.112  11.113
24561W        W97629   0.100  19.327  13.968
24562W        W97630  33.581  28.086  11.146
24563W        W97631  32.404  32.115   2.343
24564W        W97632  29.457   1.726  12.462
24565W        W97633  16.127  23.122   3.753
24566W        W97634  32.020  27.370  13.541
24567W        W97635  34.445  32.572  10.676
24568W        W97636  42.213  21.608  14.005
24569W        W97637  15.777  25.017  14.965
24570W        W97638   6.326  41.753  12.451
24571W        W97639  43.557  30.976  12.406
24572W        W97640  21.568  37.317   0.862
24573W        W97641   0.261  20.775   2.640
24574W        W97642  13.336  19.307   0.386
24575W        W97643  38.258   3.743   3.249
24576W        W97644   1.997  42.882  11.870
24577W        W97645  19.730  26.020   0.471
24578W        W97646  42.462  40.594   1.753
24579W        W97647  15.694  35.506   4.179
24580W        W97648  40.537   1.023   1.171
24581W        W97649  16.172   3.919  12.023
24582W        W97650  20.742  31.139   2.320
24583W        W97651  33.131  32.157  11.162
24584W        W97652  11.537  42.564  10.665
24585W        W97653  42.777  39.115   1.310
24586W        W97654   6.208   2.844   4.518
24587W        W97655  35.711  32.460  14.902
24588W        W97656   8.294  31.986   4.438
24589W        W97657  26.180  37.217  13.561
24590W        W97658  43.802  25.198  10.802
24591W        W97659  28.125  36.369   2.858
24592W        W97660  31.078  24.766   2.193
24593W        W97661  12.282  27.500  11.038
24594W        W97662  28.338  31.881  11.104
24595W        W97663  42.665  41.162  13.801
24596W        W97664  12.676  43.870   0.545
24597W        W97665  20.057  39.594  14.551
24598W        W97666   1.898  38.355   4.272
24599W        W97667   4.845  43.498  14.602
24600W        W97668  15.091  11.670  12.122
24601W        W97669  10.181   7.329  10.659
24602W        W97670  11.768  40.929   3.775
24603W        W97671  21.852  26.999  14.118
24604W        W97672  11.144  40.571  13.555
24605W        W97673  34.342  34.388   0.332
24606W        W97674  13.105  19.046   0.816
24607W        W97675  32.996  25.266  13.503
24608W        W97676  22.282   5.459   1.761
24609W        W97677  29.566  40.024  12.478
24610W        W97678  24.683   1.826  14.507
24611W        W97679  13.296  44.866   3.343
24612W        W97680  39.452  27.808   4.548
24613W        W97681  32.737   6.927   4.248
24614W        W97682  10.177  14.342  10.720
24615W        W97683  15.680  29.895  14.390
24616W        W97684   7.427  11.115   2.857
24617W        W97685  21.069  13.138   3.350
24618W        W97686  26.950  13.015   1.645
24619W        W97687  17.730  28.653   0.771
24620W        W97688  15.585  16.711   4.036
24621W        W97689  40.285   3.699   0.401
24622W        W97690  32.466  43.472   2.644
24623W        W97691  26.917  38.988  14.719
24624W        W97692  37.759   6.307   4.504
24625W        W97693  32.586  19.279   1.716
24626W        W97694  10.417   3.404   4.664
24627W        W97695   4.783  20.163   3.152
24628W        W97696  18.051  44.498   4.534
24629W        W97697  26.939  44.855  12.970
24630W        W97698   3.774  24.208  12.864
24631W        W97699  43.727  38.548   0.931
24632W        W97700  35.585  18.702   1.573
24633W        W97701  44.764  28.128  12.121
24634W        W97702  44.006  29.929   2.859
24635W        W97703  18.550  29.737  13.890
24636W        W97704  20.743   1.454   2.790
24637W        W97705  43.466  19.574   0.762
24638W        W97706   4.188   7.415   0.711
24639W        W97707  19.686   9.328  13.955
24640W        W97708  44.839   0.276   0.346
24641W        W97709  20.087  32.653  13.550
24642W        W97710   3.187  20.195  14.341
24643W        W97711  37.795  19.289   0.284
24644W        W97712   1.221   5.233   1.827
24645W        W97713  22.116  21.073   3.763
24646W        W97714  18.600  43.018  13.403
24647W        W97715  29.786  32.001  12.041
24648W        W97716  36.604  10.846   4.159
24649W        W97717  12.335  13.907  13.178
24650W        W97718  23.299  28.011  10.769
24651W        W97719  17.117  37.013   1.789
24652W        W97720  31.949   0.413  12.981
24653W        W97721  11.336  18.101  11.872
24654W        W97722  26.076  26.510  11.939
24655W        W97723   4.807  24.336  10.744
24656W        W97724  11.396  44.252   2.334
24657W        W97725  41.857  40.677  13.278
24658W        W97726   7.303  17.344  13.831
24659W        W97727  19.459   9.819   3.268
24660W        W97728  20.473   5.200   4.336
24661W        W97729  29.806  38.067   2.121
24662W        W97730  44.180   9.370  12.399
24663W        W97731  16.922  14.613  13.488
24664W        W97732  36.570   1.718   4.208
24665W        W97733   8.864   1.713   0.263
24666W        W97734  43.259  26.823  13.370
24667W        W97735  30.291  26.992   2.367
24668W        W97736  33.590  25.205  14.689
24669W        W97737   1.925  26.630  14.851
24670W        W97738  26.836   3.423   5.109
24671W        W97739   9.260  10.635  13.114
24672W        W97740  40.187  26.977   1.768
24673W        W97741  16.389   7.599  12.089
24674W        W97742  16.890  39.973  11.587
24675W        W97743  19.745  32.747   4.084
24676W        W97744   1.169   8.053  11.144
24677W        W97745  18.168  32.324   4.154
24678W        W97746  34.427  34.392   2.432
24679W        W97747  29.569  22.764  14.427
24680W        W97748  44.922  27.561   4.173
24681W        W97749  34.410  31.457   0.039
24682W        W97750  28.181   1.798   4.738
24683W        W97751   2.447   4.560  11.781
24684W        W97752  37.658  44.998  10.933
24685W        W97753   2.794  23.635   2.741
24686W        W97754  44.690  13.260   1.668
24687W        W97755  44.429  35.513  14.717
24688W        W97756  37.185  19.596  11.113
24689W        W97757  20.178  39.331   1.191
24690W        W97758  18.201  40.802  13.964
24691W        W97759   6.929  23.516  11.986
24692W        W97760  28.390  19.719   0.259
24693W        W97761   6.606   8.708   1.326
24694W        W97762  19.684   5.196   0.938
24695W        W97763  43.226   4.417  11.817
24696W        W97764   6.971  28.542   4.585
24697W        W97765  16.259  13.824   2.451
24698W        W97766   2.185  11.286   4.179
24699W        W97767  16.811  33.241   0.418
24700W        W97768   8.869   8.784  12.737
24701W        W97769   6.391  30.976  11.573
24702W        W97770  13.356  33.644   1.954
24703W        W97771  39.024  20.617   3.073
24704W        W97772  27.593  34.045  12.392
24705W        W97773  17.544   1.935  12.521
24706W        W97774  38.064  10.741  11.958
24707W        W97775  22.703   6.342  10.268
24708W        W97776  37.888  41.844   2.186
24709W        W97777   3.327  28.437   3.793
24710W        W97778   3.913  28.065   0.808
24711W        W97779   9.781  33.564  10.895
24712W        W97780  37.122  26.653   4.146
24713W        W97781   0.527  12.533   5.169
24714W        W97782  37.825   3.504   3.359
24715W        W97783  41.053  23.939  14.570
24716W        W97784  25.763  26.929   3.890
24717W        W97785  44.631  17.598  10.674
24718W        W97786  13.729  30.272  11.254
24719W        W97787   7.418  24.187  10.696
24720W        W97788  35.070  44.885  12.952
24721W        W97789  13.691  24.515  14.711
24722W        W97790  23.519  39.735  12.033
24723W        W97791   4.827  42.491   0.483
24724W        W97792  26.119  26.224   0.931
24725W        W97793  24.190  12.703  11.643
24726W        W97794  33.456  35.504  11.629
24727W        W97795   5.198   6.890  14.851
24728W        W97796  40.927  38.259  11.635
24729W        W97797   2.808  31.057   0.336
24730W        W97798   3.005   2.363  10.868
24731W        W97799  15.772  31.889   3.657
24732W        W97800  42.755   4.938  13.296
24733W        W97801  12.776  19.493  14.086
24734W        W97802  29.177  23.135  13.890
24735W        W97803  42.747  11.691  11.529
24736W        W97804  39.781   6.836   3.654
24737W        W97805   8.705  41.317  11.054
24738W        W97806   6.896  28.382  12.239
24739W        W97807  35.053  10.384  11.552
24740W        W97808  38.192  32.384  11.255
24741W        W97809   5.514  14.855  11.015
24742W        W97810  32.680  34.162  14.835
24743W        W97811  39.970  27.637  12.207
24744W        W97812  39.066  37.406  11.620
24745W        W97813   2.375  44.949  13.040
24746W        W97814  25.079  33.339  13.118
24747W        W97815   6.205  38.114   0.434
24748W        W97816  11.057  19.304   4.168
24749W        W97817  29.694  25.946  11.797
24750W        W97818  42.908   9.422  12.950
24751W        W97819  32.358  11.451   0.287
24752W        W97820  34.161  40.330  13.126
24753W        W97821  31.714  26.561  14.740
24754W        W97822  16.313   5.266   4.801
24755W        W97823   9.102  12.854   5.056
24756W        W97824  15.122  30.244  12.598
24757W        W97825  27.952   7.996   0.877
24758W        W97826  25.583  14.993   3.380
24759W        W97827  32.609   2.528   2.745
24760W        W97828  30.638  14.234   4.542
24761W        W97829  30.630   5.247   4.594
24762W        W97830  34.164  10.285  10.974
24763W        W97831   7.758  43.885   4.872
24764W        W97832  42.233  15.246  10.224
24765W        W97833  10.986  20.064  13.019
24766W        W97834  38.393  10.331  11.910
24767W        W97835  27.818  10.647  10.546
24768W        W97836  20.723  26.549  13.414
24769W        W97837  43.164  37.543  14.316
24770W        W97838  33.642   4.645  12.994
24771W        W97839   3.762  15.579   2.790
24772W        W97840  12.223  21.106  13.767
24773W        W97841  30.431  29.146  11.147
24774W        W97842  23.966  24.192  13.620
24775W        W97843  25.095  31.603  14.536
24776W        W97844  24.263  39.586  14.107
24777W        W97845   3.560   6.339  12.428
24778W        W97846   0.935  36.569  11.060
24779W        W97847  29.431  41.092  10.695
24780W        W97848  39.917  24.688   4.706
24781W        W97849  29.663  28.038   2.405
24782W        W97850  33.553  42.046  14.867
24783W        W97851  13.474  23.424  12.912
24784W        W97852  19.179  17.091   4.585
24785W        W97853  44.208  21.048  10.749
24786W        W97854   7.380  13.291   3.136
24787W        W97855  13.219  25.098   1.350
24788W        W97856  12.294  43.019  10.672
24789W        W97857  34.897  16.104   2.684
24790W        W97858   6.147  37.534   4.102
24791W        W97859  11.928  30.513   2.739
24792W        W97860  22.725  16.544  13.494
24793W        W97861  33.663  21.234   2.342
24794W        W97862  18.016  18.250   2.379
24795W        W97863  41.709  13.416  11.581
24796W        W97864   7.757  34.423   3.241
24797W        W97865  27.718   7.781   1.788
24798W        W97866   3.735  17.757   0.642
24799W        W97867  34.817  15.310   1.262
24800W        W97868   1.870  26.406  11.495
24801W        W97869  12.265   6.089   0.766
24802W        W97870  27.141   6.731  12.955
24803W        W97871  25.549  31.442   3.635
24804W        W97872  31.184  19.289   1.189
24805W        W97873  10.672  25.497   4.233
24806W        W97874  42.599  11.117   0.415
24807W        W97875  37.417  10.717  14.421
24808W        W97876   0.510  25.206   4.023
24809W        W97877  34.227  23.145   2.363
24810W        W97878  44.831   2.755   1.559
24811W        W97879  23.931  29.974  13.684
24812W        W97880  20.648  28.643  13.928
24813W        W97881  20.518  15.668  11.960
24814W        W97882  39.528  31.687   2.929
24815W        W97883  25.698  34.066  12.589
24816W        W97884  36.297  30.323   5.046
24817W        W97885  11.230  10.695  13.728
24818W        W97886  10.788  34.345   1.186
24819W        W97887  44.736  14.591   2.622
24820W        W97888  35.561  35.846   3.452
24821W        W97889   0.862   6.164  13.473
24822W        W97890  30.500  24.298   3.318
24823W        W97891   8.209  33.653   3.217
24824W        W97892  32.504  23.199   1.629
24825W        W97893  37.567  38.482  10.493
24826W        W97894  34.502  18.504  13.588
24827W        W97895  33.858   3.842  14.311
24828W        W97896  10.888  15.674   2.200
24829W        W97897  23.190  26.757  10.733
24830W        W97898  11.659  29.557  10.666
24831W        W97899  15.775  19.219   0.268
24832W        W97900  21.643   0.527  14.489
24833W        W97901  43.860  20.590   4.580
24834W        W97902  11.228  19.068  10.290
24835W        W97903  40.866  18.613   2.934
24836W        W97904  22.627  40.071  12.541
24837W        W97905  34.707  16.390   4.127
24838W        W97906  42.045  42.168   1.418
24839W        W97907   6.098  20.045   0.775
24840W        W97908   8.451  22.042  11.132
24841W        W97909  33.405  10.739   4.649
24842W        W97910   1.266  43.446  13.405
24843W        W97911  33.893  33.822  13.147
24844W        W97912   7.693   0.768   0.745
24845W        W97913   0.139   6.859  14.408
24846W        W97914  31.442   0.283  13.041
24847W        W97915  15.811  10.796  13.490
24848W        W97916  36.523  21.195   4.280
24849W        W97917  32.646   8.426   1.798
24850W        W97918   4.073  16.397   4.248
24851W        W97919  18.793  38.429  12.874
24852W        W97920  41.879   8.147   1.789
24853W        W97921   2.835  33.536   4.754
24854W        W97922  39.355  36.050  13.085
24855W        W97923  17.370   1.885   3.683
24856W        W97924  42.901  32.311   2.345
24857W        W97925  43.582   6.903  11.723
24858W        W97926  43.001  10.150   0.214
24859W        W97927  18.246  23.130  12.995
24860W        W97928  23.048  10.888   2.631
24861W        W97929  28.279  40.444  14.300
24862W        W97930  33.168  12.499  11.944
24863W        W97931  21.755   5.670  13.489
24864W        W97932  11.595  18.107   4.228
24865W        W97933  33.316  36.342  14.330
24866W        W97934   3.902  19.851   0.371
24867W        W97935  33.133   9.176  10.757
24868W        W97936  18.731  33.656  11.458
24869W        W97937  44.719  17.471  14.982
24870W        W97938  26.652   4.904   2.307
24871W        W97939  16.362  37.994  11.411
24872W        W97940  24.756  34.046   0.263
24873W        W97941  24.491   3.158  14.895
24874W        W97942   3.680  41.942   1.896
24875W        W97943   7.632  38.583  13.998
24876W        W97944   6.337  13.667  14.374
24877W        W97945  43.429  40.823  10.490
24878W        W97946  42.396  44.900   1.358
24879W        W97947  21.086  10.972  11.654
24880W        W97948  34.533  26.138   1.824
24881W        W97949   3.375  35.928  13.966
24882W        W97950  12.875  23.588  10.443
24883W        W97951  22.989  33.982   4.188
24884W        W97952  11.584  27.978   0.754
24885W        W97953  23.905  30.842   1.292
24886W        W97954  40.974  38.412   2.262
24887W        W97955  29.671   0.382   9.789
24888W        W97956  43.287  19.002   4.327
24889W        W97957  32.869  10.831  13.424
24890W        W97958   9.092  19.091  14.345
24891W        W97959   7.847  14.053   2.929
24892W        W97960  10.377  17.755  14.954
24893W        W97961  27.436  39.261   4.669
24894W        W97962  14.870  29.901  12.326
24895W        W97963   6.969  35.367  11.965
24896W        W97964  21.285  25.678  11.585
24897W        W97965   9.905  29.818  13.331
24898W        W97966  11.088  10.259   2.828
24899W        W97967  16.802  43.322  11.138
24900W        W97968  38.110  36.677   0.222
24901W        W97969  33.116  16.312  14.592
24902W        W97970  19.237   7.089  12.020
24903W        W97971  22.750  15.809  12.373
24904W        W97972  30.245   6.871   1.264
24905W        W97973   9.725  21.963   0.249
24906W        W97974  17.347  23.679   0.218
24907W        W97975  35.098  37.619   2.123
24908W        W97976   4.455   6.790   2.848
24909W        W97977  24.721  19.721  10.643
24910W        W97978   8.163   0.683   0.230
24911W        W97979  22.241  43.084  13.428
24912W        W97980  17.759  42.497   0.290
24913W        W97981  32.623  30.542   1.664
24914W        W97982   3.667   9.859  10.966
24915W        W97983   4.414  25.215   4.242
24916W        W97984  21.592  22.682  11.604
24917W        W97985  26.085  32.426   3.333
24918W        W97986  28.616  10.630  13.039
24919W        W97987  22.502  26.997   0.473
24920W        W97988   5.705  36.483   2.694
24921W        W97989   8.279  25.209   2.806
24922W        W97990  44.900  29.978   1.445
24923W        W97991   2.134  42.872  10.697
24924W        W97992  28.046  28.502   2.658
24925W        W97993  40.038  22.096  14.274
24926W        W97994  31.949  25.965   0.400
24927W        W97995  38.949  13.898  11.011
24928W        W97996   3.918   0.803  12.069
24929W        W97997   6.628  31.433  11.688
24930W        W97998  15.096  44.803   3.709
24931W        W97999  37.465  15.980  12.635
24932W        W98000  28.186  12.396   1.346
24933W        W98001  39.279  35.883  11.326
24934W        W98002  30.577  10.643  13.055
24935W        W98003  38.129  34.043   4.893
24936W        W98004  16.755  43.990   2.135
24937W        W98005  22.536  30.598   4.555
24938W        W98006  33.100  24.700   1.158
24939W        W98007  35.411  32.031   0.034
24940W        W98008  40.417  23.050  13.098
24941W        W98009   8.806  22.984   0.832
24942W        W98010  36.678  13.350  13.823
24943W        W98011  11.500   8.072   3.592
24944W        W98012  22.133  21.502  13.352
24945W        W98013  19.636  39.102   4.519
24946W        W98014  28.717  28.363   0.405
24947W        W98015  15.935   5.043  10.976
24948W        W98016  19.429  24.045  11.907
24949W        W98017   4.933  31.459   0.729
24950W        W98018  18.062  33.078   0.011
24951W        W98019   2.795   3.465  10.510
24952W        W98020  12.883   2.214   3.261
24953W        W98021  24.645  30.447  13.042
24954W        W98022  27.577  25.511   0.947
24955W        W98023   7.830  41.374  11.809
24956W        W98024  12.915   5.792  12.269
24957W        W98025  43.849  11.810   1.370
24958W        W98026  23.080   3.591   3.647
24959W        W98027  40.822  40.522   0.314
24960W        W98028   9.913  10.588   3.731
24961W        W98029  44.315  26.932   1.427
24962W        W98030  16.028  33.682   0.955
24963W        W98031   7.287  37.802   1.182
24964W        W98032  10.746  19.690   2.859
24965W        W98033   1.170   3.387   2.708
24966W        W98034  36.093  25.882   3.652
24967W        W98035  32.809  29.508  12.993
24968W        W98036  21.284  43.966  12.876
24969W        W98037  28.204  33.171  12.988
24970W        W98038  26.894   6.290  13.040
24971W        W98039  38.292   5.822  10.654
24972W        W98040  29.900  24.350  14.862
24973W        W98041  22.718  19.996  14.287
24974W        W98042  17.963  17.443   4.146
24975W        W98043  12.998   8.820  11.383
24976W        W98044  21.204   7.900  12.969
24977W        W98045  21.209  33.732   4.509
24978W        W98046  33.067  10.942  11.002
24979W        W98047  18.251  31.970  13.567
24980W        W98048  19.615   2.823  11.399
24981W        W98049  12.665  34.430   0.778
24982W        W98050  19.495  32.098   1.398
24983W        W98051  15.196  41.456   4.480
24984W        W98052   4.930  29.589  11.549
24985W        W98053  30.381  22.506   2.249
24986W        W98054  37.934  33.834   3.189
24987W        W98055  35.526  44.872  10.680
24988W        W98056   1.032  13.201  10.584
24989W        W98057  37.563   0.222   2.208
24990W        W98058  15.764  40.240  11.076
24991W        W98059  34.358  16.779   4.120
24992W        W98060  26.615  40.845   1.691
24993W        W98061  19.784  41.482  12.557
24994W        W98062  18.118  32.641   4.548
24995W        W98063  30.493  11.206   4.462
24996W        W98064  13.715   1.301  12.932
24997W        W98065  10.145  35.666  12.850
24998W        W98066  24.954  35.103  10.805
24999W        W98067  14.108  16.290  13.807
25000W        W98068  13.340  30.619  11.288
25001W        W98069  15.620  10.652   1.255
25002W        W98070  36.745   5.662   9.689
25003W        W98071  18.256  20.480  11.297
25004W        W98072  42.447  29.345   1.649
25005W        W98073  27.569   5.767   4.019
25006W        W98074  27.898   5.415  13.398
25007W        W98075  21.971  37.937   3.810
25008W        W98076   9.934  13.414  11.100
25009W        W98077  31.111   4.698  12.966
25010W        W98078  17.743  31.316  10.589
25011W        W98079  11.324   8.665  14.451
25012W        W98080   5.598  40.505   2.682
25013W        W98081  33.861   4.160   2.867
25014W        W98082   2.022  13.678   2.862
25015W        W98083  21.838  25.808  12.801
25016W        W98084  19.022   2.383   1.815
25017W        W98085  13.877  10.262   2.263
25018W        W98086   6.456  10.529   3.184
25019W        W98087  26.003  42.891  13.971
25020W        W98088  19.299  33.510  14.748
25021W        W98089   9.018  13.788   0.933
25022W        W98090  31.026   0.798  11.576
25023W        W98091  34.100  32.577  13.547
25024W        W98092  31.904  13.692   4.587
25025W        W98093  24.925   0.369  11.781
25026W        W98094   8.260  14.165   3.697
25027W        W98095  33.352  11.033  13.413
25028W        W98096  33.069  39.983  10.539
25029W        W98097  13.546  12.305   4.857
25030W        W98098   5.290   8.884  12.888
25031W        W98099  35.034  31.364   1.226
25032W        W98100  19.756   7.242  13.941
25033W        W98101   2.818  44.337  10.653
25034W        W98102  27.187  12.101  14.240
25035W        W98103  32.524   5.268   4.635
25036W        W98104  41.792  35.988   4.562
25037W        W98105  37.693  38.776  11.565
25038W        W98106  44.352  16.746   0.744
25039W        W98107  35.876  15.357  14.414
25040W        W98108   6.060   9.714   3.326
25041W        W98109  15.392   0.267   0.280
25042W        W98110  28.696  37.860  12.037
25043W        W98111  20.860  33.002  13.846
25044W        W98112   7.903  29.167  14.945
25045W        W98113  37.370  15.191   2.685
25046W        W98114  39.818   3.875  13.858
25047W        W98115   9.051  43.709  10.888
25048W        W98116   7.518  35.048  12.595
25049W        W98117   8.885  24.147   3.637
25050W        W98118  40.594  29.121  14.079
25051W        W98119  10.770  44.168   0.138
25052W        W98120  24.724  21.548  14.326
25053W        W98121  21.035   0.040   4.563
25054W        W98122  25.181  35.899  14.267
25055W        W98123  11.652  17.212   5.092
25056W        W98124  31.444  41.410  10.688
25057W        W98125  15.034  42.802  14.841
25058W        W98126  10.410   4.847  10.968
25059W        W98127   8.867   4.678   3.669
25060W        W98128  16.059  29.441   2.672
25061W        W98129  19.072  43.027   2.556
25062W        W98130   3.955  22.598  11.105
25063W        W98131   4.819  34.499   2.768
25064W        W98132  18.277   7.988   1.536
25065W        W98133  41.863  17.191  11.551
25066W        W98134  25.700  40.241  10.201
25067W        W98135   0.618  17.630   2.136
25068W        W98136   5.407  43.993   2.699
25069W        W98137   9.103  19.066   0.938
25070W        W98138  19.274   4.766   1.701
25071W        W98139  34.521  30.464   0.454
25072W        W98140  44.046  28.077  11.539
25073W        W98141  10.356  34.426   4.602
25074W        W98142  35.954   6.076   2.810
25075W        W98143  44.900   1.180   3.170
25076W        W98144  22.527  21.967   3.274
25077W        W98145  13.762   9.233  11.440
25078W        W98146  33.230  29.026  14.544
25079W        W98147   9.168  16.431  10.840
25080W        W98148  24.624  41.895   4.335
25081W        W98149  23.508   0.928   2.642
25082W        W98150  42.864  34.817   0.812
25083W        W98151   5.686  17.567  12.182
25084W        W98152  23.608  29.749   2.005
25085W        W98153  42.621   0.347   0.175
25086W        W98154  19.416  25.920   2.183
25087W        W98155  19.307  18.337   2.088
25088W        W98156   0.936  32.032   1.796
25089W        W98157  19.287  43.212   5.065
25090W        W98158   4.820  19.965  14.896
25091W        W98159  33.388  37.907  11.174
25092W        W98160   1.374  10.638   4.676
25093W        W98161   2.722  19.211  12.956
25094W        W98162   5.050  14.595  13.407
25095W        W98163  14.619  24.999  12.106
25096W        W98164   4.353  32.057   0.196
25097W        W98165   2.862  41.790  13.445
25098W        W98166  20.312   4.739   0.753
25099W        W98167  31.632  33.378   2.703
25100W        W98168   6.380  43.026  12.021
25101W        W98169  10.747   5.486  13.088
25102W        W98170  41.225  36.977  13.991
25103W        W98171   0.372  16.897  10.817
25104W        W98172   7.985  24.655   1.319
25105W        W98173   0.982   3.492   1.178
25106W        W98174   2.649  39.368   0.800
25107W        W98175  19.518  29.116   4.190
25108W        W98176   4.217  36.031  12.380
25109W        W98177   9.783   2.171  13.444
25110W        W98178  32.778  33.874  14.411
25111W        W98179   2.379  41.165  10.793
25112W        W98180  31.612  32.099   1.953
25113W        W98181  14.315  35.912   4.276
25114W        W98182  38.038   6.394   2.146
25115W        W98183  29.006   0.534  14.531
25116W        W98184   8.306   5.853   3.706
25117W        W98185  18.827   5.013  10.250
25118W        W98186  29.629   6.241  14.011
25119W        W98187  11.159  16.328   1.227
25120W        W98188  24.889  19.651   3.349
25121W        W98189   3.234  18.898   1.352
25122W        W98190   1.184  31.982   1.339
25123W        W98191  33.716  25.144  11.185
25124W        W98192  34.980  42.623  10.467
25125W        W98193  41.275   0.427   1.497
25126W        W98194  40.206  15.128   2.140
25127W        W98195   1.941  19.274   4.921
25128W        W98196  11.717  38.957  13.053
25129W        W98197  30.611  15.105  11.527
25130W        W98198  31.462  17.594   0.877
25131W        W98199  43.822  24.962   2.456
25132W        W98200  38.887  29.069   1.841
25133W        W98201  31.631  18.612  11.959
25134W        W98202  24.551  13.095   3.234
25135W        W98203  32.235  30.873  11.225
25136W        W98204  27.579   4.841  11.420
25137W        W98205  20.788  15.617  11.072
25138W        W98206  20.312  20.398   1.329
25139W        W98207  33.158   8.694  12.063
25140W        W98208  26.631  22.748   2.759
25141W        W98209  24.222  42.067  13.332
25142W        W98210  42.719  32.567   0.918
25143W        W98211  40.861   7.149  13.832
25144W        W98212   7.385  21.239   4.112
25145W        W98213  29.629  21.700  13.698
25146W        W98214  40.136  17.596  12.388
25147W        W98215   9.978  26.176   0.395
25148W        W98216  35.550  34.316  11.532
25149W        W98217   9.954  31.461  12.124
25150W        W98218  25.628  22.579  10.913
25151W        W98219   4.215  36.936   1.236
25152W        W98220  14.334  31.165   4.635
25153W        W98221  27.159  15.061  12.009
25154W        W98222   2.729  17.744   0.348
25155W        W98223  10.398  28.459   2.241
25156W        W98224  15.380  22.403  11.251
25157W        W98225  25.808   6.818  11.247
25158W        W98226  15.896  14.900   3.353
25159W        W98227  18.788  24.167   4.083
25160W        W98228  11.124   1.490  14.821
25161W        W98229  35.422  41.843   2.319
25162W        W98230  29.549   6.726   3.130
25163W        W98231   9.664  31.908  12.405
25164W        W98232  31.663  12.373  14.359
25165W        W98233   3.307  19.275  12.952
25166W        W98234  27.078  22.276  14.322
25167W        W98235  39.977  20.499   1.368
25168W        W98236   9.533  30.669  12.116
25169W        W98237  10.252  16.041  14.461
25170W        W98238   8.657  27.753   1.373
25171W        W98239   6.894   4.663   1.610
25172W        W98240  17.536  25.163   3.130
25173W        W98241  32.341  36.746  12.051
25174W        W98242  39.550  25.517   2.213
25175W        W98243   0.305  27.871  10.716
25176W        W98244  31.918  27.995   4.116
25177W        W98245   9.348  27.866  12.854
25178W        W98246   3.004  35.974   4.056
25179W        W98247  43.964   4.257   4.070
25180W        W98248  23.763  27.947  14.527
25181W        W98249  23.001  25.707   2.080
25182W        W98250  37.863  28.431  13.632
25183W        W98251  33.774  13.979   1.797
25184W        W98252   5.501   2.480  12.973
25185W        W98253  22.971  17.208  13.910
25186W        W98254   3.526   7.693  13.367
25187W        W98255  11.666  19.328   5.444
25188W        W98256   6.229  36.037  14.001
25189W        W98257   4.264  25.789  13.380
25190W        W98258  30.067   0.847   0.367
25191W        W98259  22.704  18.364  12.613
25192W        W98260  43.135  38.500   4.043
25193W        W98261  11.288   5.255  12.065
25194W        W98262  34.981  11.303  12.954
25195W        W98263  20.496  44.880   3.709
25196W        W98264   7.990  36.002  10.356
25197W        W98265  31.660  28.576   4.692
25198W        W98266  12.206  15.306   0.723
25199W        W98267  11.257  33.039  14.465
25200W        W98268  14.317  16.606   2.663
25201W        W98269  21.347  14.819   2.749
25202W        W98270  36.832  23.236  10.373
25203W        W98271  21.429  44.799  11.865
25204W        W98272  14.819  42.446  13.800
25205W        W98273  17.475  42.852   1.129
25206W        W98274   9.572  11.794  11.549
25207W        W98275  28.954  37.084   0.884
25208W        W98276  20.296   8.049  11.165
25209W        W98277  40.823   3.056  12.414
25210W        W98278  11.283  36.611   1.325
25211W        W98279  33.553  32.844   0.382
25212W        W98280  35.741  24.581  11.648
25213W        W98281  40.398  13.357   3.297
25214W        W98282  31.926  12.253  14.777
25215W        W98283   7.162  31.104   2.193
25216W        W98284  17.945   5.194   0.345
25217W        W98285  28.632  17.984  14.155
25218W        W98286  38.909   0.316   2.297
25219W        W98287  13.609  21.618   1.801
25220W        W98288  29.375   8.399   0.995
25221W        W98289  41.307   0.446   2.006
25222W        W98290  17.790   7.828   2.822
25223W        W98291  40.926  30.398   2.360
25224W        W98292  39.291  30.931   1.864
25225W        W98293  22.223  29.907  12.448
25226W        W98294  38.967  33.245   3.738
25227W        W98295   7.671  30.898   3.911
25228W        W98296   7.882  41.507  10.353
25229W        W98297  29.597  26.932  12.868
25230W        W98298  18.805  19.368   4.188
25231W        W98299   0.306  25.020  11.562
25232W        W98300  15.832   3.925   0.186
25233W        W98301  17.253   2.724   4.080
25234W        W98302  17.427  42.945  10.344
25235W        W98303  32.018  10.682   3.387
25236W        W98304  19.963  16.495   2.738
25237W        W98305  43.374   1.929  12.844
25238W        W98306  39.528  33.674   9.763
25239W        W98307  43.274   7.196   4.742
25240W        W98308   5.879  40.273   3.063
25241W        W98309  11.826   7.421  13.302
25242W        W98310   9.548  24.003  13.348
25243W        W98311  30.542  38.101  12.827
25244W        W98312  40.149  36.076  14.166
25245W        W98313  18.088  10.656  10.514
25246W        W98314   8.257   2.867   4.649
25247W        W98315   3.204  14.435   3.236
25248W        W98316   6.660  17.133  10.059
25249W        W98317  38.515   6.517   1.941
25250W        W98318  24.143  33.661  12.175
25251W        W98319  23.909  31.658  11.125
25252W        W98320   7.176  28.681  10.690
25253W        W98321   1.381  32.131  11.346
25254W        W98322  43.576   0.957   4.193
25255W        W98323  19.046  42.184  12.354
25256W        W98324  39.378  44.836   0.039
25257W        W98325  15.258  29.893  11.059
25258W        W98326  43.765  42.069  11.222
25259W        W98327  32.668   9.360  12.469
25260W        W98328  17.511  24.159  14.921
25261W        W98329  39.397   7.715  12.361
25262W        W98330  14.751  37.287   4.334
25263W        W98331   2.020   8.317   3.674
25264W        W98332   1.207  24.311  13.941
25265W        W98333   7.005   6.657   3.236
25266W        W98334  15.726  30.353  14.597
25267W        W98335  39.102   6.775  13.968
25268W        W98336  20.009  38.311  14.673
25269W        W98337  28.443  13.076   1.844
25270W        W98338  29.137  23.450   3.270
25271W        W98339  38.597  27.199   4.621
25272W        W98340  35.979   2.315   2.920
25273W        W98341  21.502  31.161   4.179
25274W        W98342   3.597  11.680   2.067
25275W        W98343   4.621  20.855   1.791
25276W        W98344   3.267   6.166   2.824
25277W        W98345   0.669  27.618   2.778
25278W        W98346  23.021  31.046   1.629
25279W        W98347  16.220  24.185  14.621
25280W        W98348  27.039   6.051  11.458
25281W        W98349  28.857  24.195  13.337
25282W        W98350  24.516  37.949   5.306
25283W        W98351   6.947   9.660   1.419
25284W        W98352  25.908  26.573   0.421
25285W        W98353  21.959  30.965  11.098
25286W        W98354  42.270   1.857   0.376
25287W        W98355  38.893  43.948   2.925
25288W        W98356  10.572  11.714   1.705
25289W        W98357  19.187  38.219  13.106
25290W        W98358  16.003  30.910  10.546
25291W        W98359  34.943   4.543  10.646
25292W        W98360  18.573   7.419  12.479
25293W        W98361  24.979  24.572   4.116
25294W        W98362  44.073  11.825   3.734
25295W        W98363  27.564  37.049   2.865
25296W        W98364  10.241   4.928   0.160
25297W        W98365  42.196  44.713  13.249
25298W        W98366   7.353   5.911   0.995
25299W        W98367  23.917  16.107   2.386
25300W        W98368  11.625  25.701  11.608
25301W        W98369  35.001  19.070  14.378
25302W        W98370   5.281  42.778   1.425
25303W        W98371  35.190  10.148   3.608
25304W        W98372  35.503  43.871  10.609
25305W        W98373  23.804  14.872   1.359
25306W        W98374   4.905  39.929   2.042
25307W        W98375  42.490   2.702   0.775
25308W        W98376  27.270   1.018  11.100
25309W        W98377   7.677  37.361   1.902
25310W        W98378   5.443  19.504  13.992
25311W        W98379  33.876  19.068   4.817
25312W        W98380  15.445  28.636  13.313
25313W        W98381  25.203  39.812   3.169
25314W        W98382  27.223  26.960  12.975
25315W        W98383  18.803  41.704  12.393
25316W        W98384  24.607   4.200   3.157
25317W        W98385   9.614  10.242  10.634
25318W        W98386   7.434  28.282  14.979
25319W        W98387  41.848  22.779   5.293
25320W        W98388  21.117  40.919  11.984
25321W        W98389  12.884  42.877  12.913
25322W        W98390   9.803  13.478   5.052
25323W        W98391  19.768  16.080  13.995
25324W        W98392  40.877  43.707  13.901
25325W        W98393  29.443   5.677   0.759
25326W        W98394   7.341  21.961  13.951
25327W        W98395  15.152  19.813   2.263
25328W        W98396  34.479  21.010  12.561
25329W        W98397  37.897   1.124   4.050
25330W        W98398  32.467  10.659   3.084
25331W        W98399  37.567   7.222  10.787
25332W        W98400  24.107  31.648  14.990
25333W        W98401   1.133  26.207  11.680
25334W        W98402  24.090  31.912  14.528
25335W        W98403  40.824   9.059  11.990
25336W        W98404   9.327  42.066   1.286
25337W        W98405   2.335  24.482   1.823
25338W        W98406  22.882  20.035   1.256
25339W        W98407  20.223   8.302  14.759
25340W        W98408   0.677  38.975   1.810
25341W        W98409  33.883  42.038  13.443
25342W        W98410  40.684  37.022  13.917
25343W        W98411  19.308   0.740   2.177
25344W        W98412  34.056   2.514  14.875
25345W        W98413  27.586   3.901   0.789
25346W        W98414   9.651   0.300   3.230
25347W        W98415  27.068   7.447  11.937
25348W        W98416  21.610  36.492   3.903
25349W        W98417  28.075  19.322   0.459
25350W        W98418  36.919  43.791   1.988
25351W        W98419  20.197  25.693  14.461
25352W        W98420  34.854   1.903  10.593
25353W        W98421  37.958  30.983   4.681
25354W        W98422   8.701  29.472  13.047
25355W        W98423  18.735  24.662  11.260
25356W        W98424   9.787   9.489  13.232
25357W        W98425  38.418  35.877  10.692
25358W        W98426   7.824  35.249   2.631
25359W        W98427  28.635  26.510  12.930
25360W        W98428  40.910  14.082  14.296
25361W        W98429  15.157   6.415   4.474
25362W        W98430  10.892  27.372   3.766
25363W        W98431  26.172  32.535   2.333
25364W        W98432  10.675   8.293   3.832
25365W        W98433  27.378  43.314   2.338
25366W        W98434  21.123  18.238   3.404
25367W        W98435  28.397   1.846  14.413
25368W        W98436   2.578  17.679   1.752
25369W        W98437  17.511  30.960   3.957
25370W        W98438  13.759  17.229   4.165
25371W        W98439  43.809  44.817  13.957
25372W        W98440   4.509  28.135   1.764
25373W        W98441  38.583  35.922   1.006
25374W        W98442  39.476   5.037  13.765
25375W        W98443  12.182  38.845   4.708
25376W        W98444  43.324   7.751  12.210
25377W        W98445  24.272  41.337  10.657
25378W        W98446  13.567  42.825  11.089
25379W        W98447  20.532   5.377   2.348
25380W        W98448  16.674  24.224  11.616
25381W        W98449  12.303   5.731   2.798
25382W        W98450  14.080  42.620  14.747
25383W        W98451  27.020  30.725  13.448
25384W        W98452   9.215   1.510   3.804
25385W        W98453  42.060  43.891   2.143
25386W        W98454  13.934  38.366   4.132
25387W        W98455  44.733   9.832   3.294
25388W        W98456  33.516  15.685  12.014
25389W        W98457  27.533   3.413   4.685
25390W        W98458   5.871   7.651   0.986
25391W        W98459  32.581  37.565  10.612
25392W        W98460  38.243  17.588   2.203
25393W        W98461  44.722   5.591  14.850
25394W        W98462  35.163  38.635   1.424
25395W        W98463   8.915  43.161  13.172
25396W        W98464  17.133   9.481   1.606
25397W        W98465  28.713  43.757  11.376
25398W        W98466  28.892  31.552  12.944
25399W        W98467  13.712  43.572   2.786
25400W        W98468  20.725  16.841   3.125
25401W        W98469  14.817   9.428  12.472
25402W        W98470   4.687  35.873  10.824
25403W        W98471   3.093  29.452  11.499
25404W        W98472  16.798   1.370  14.931
25405W        W98473  13.101  22.596   4.581
25406W        W98474   0.910  33.090  14.860
25407W        W98475   0.557  40.791   3.086
25408W        W98476  19.351  34.380  14.758
25409W        W98477   0.083  42.328  13.468
25410W        W98478  19.704  17.899  13.351
25411W        W98479  41.898  10.238   2.601
25412W        W98480   1.265   7.823  10.693
25413W        W98481  14.858  44.790   4.257
25414W        W98482  29.927  21.056  13.253
25415W        W98483  11.644  38.278  11.595
25416W        W98484  26.000  13.929  13.508
25417W        W98485  21.592  43.266  14.346
25418W        W98486  21.554   7.508  12.896
25419W        W98487  18.897  29.113   0.383
25420W        W98488  42.946  30.641  14.343
25421W        W98489  13.392  26.988  12.910
25422W        W98490  16.729  26.998  13.905
25423W        W98491   9.191  37.765  11.918
25424W        W98492  43.749  35.839  12.849
25425W        W98493   8.947  23.580   1.486
25426W        W98494  11.325  32.901  11.068
25427W        W98495  32.737  17.816  11.913
25428W        W98496  40.738  27.005   3.567
25429W        W98497  16.246  39.612  10.766
25430W        W98498   0.547  18.097   1.866
25431W        W98499  37.488   3.241  12.564
25432W        W98500  28.744  10.418   3.308
25433W        W98501  40.597  20.046   2.389
25434W        W98502  42.480   3.787   4.267
25435W        W98503   0.952  35.345   4.005
25436W        W98504  30.211  32.099  13.007
25437W        W98505  10.086  10.107   3.686
25438W        W98506   1.849   0.767   4.671
25439W        W98507  41.958   1.709   3.902
25440W        W98508  25.748  35.183   0.357
25441W        W98509  37.814   6.225  13.158
25442W        W98510  14.881  17.097   2.748
25443W        W98511  17.046  16.771  14.774
25444W        W98512  19.980  15.725  14.328
25445W        W98513  37.957  19.157   1.762
25446W        W98514  28.187  30.372   1.242
25447W        W98515  37.485  38.452   2.782
25448W        W98516   6.343  44.716  13.363
25449W        W98517  23.799  35.610   0.249
25450W        W98518  31.238  30.054   4.900
25451W        W98519  12.291  25.714   2.644
25452W        W98520  17.493  14.787  14.355
25453W        W98521  33.681   7.229   3.105
25454W        W98522  36.705  42.411  12.456
25455W        W98523   6.190  40.954   3.764
25456W        W98524  35.553   5.676  14.015
25457W        W98525  41.847  24.154  13.672
25458W        W98526  25.435   5.733  14.396
25459W        W98527  42.255  20.138   1.799
25460W        W98528  21.743   4.940   4.201
25461W        W98529  37.635  23.813  12.295
25462W        W98530   9.466  33.857   4.741
25463W        W98531   8.809   2.291   1.007
25464W        W98532  39.823  43.536  13.025
25465W        W98533   6.796  33.914   0.015
25466W        W98534   1.157  34.089   4.094
25467W        W98535  13.814  20.272   2.856
25468W        W98536  33.529  22.827   5.188
25469W        W98537   9.646  28.236  14.329
25470W        W98538   5.834  13.127  10.897
25471W        W98539  38.506  42.816  12.576
25472W        W98540   3.887  25.505   3.414
25473W        W98541   8.839  30.866  11.450
25474W        W98542  38.023  40.798  14.370
25475W        W98543   1.350  21.275  13.253
25476W        W98544  27.741  17.577  13.485
25477W        W98545   8.564  13.703   0.034
25478W        W98546  43.964  10.944  11.995
25479W        W98547   8.670  44.031  10.747
25480W        W98548  14.655  28.192   3.618
25481W        W98549  14.329   1.363   0.452
25482W        W98550  12.773  29.773  11.013
25483W        W98551  37.228   4.625   3.803
25484W        W98552  33.274   1.488  12.850
25485W        W98553  36.567  11.690   4.751
25486W        W98554  42.786   9.845   0.940
25487W        W98555   5.899  12.646  11.111
25488W        W98556  16.237  19.096   0.491
25489W        W98557  19.088  23.708  11.497
25490W        W98558   6.782  14.195   3.437
25491W        W98559  41.611  10.279  14.943
25492W        W98560   1.845  44.081   0.626
25493W        W98561   3.173  21.100  11.414
25494W        W98562  44.962  12.527   3.346
25495W        W98563  10.633   1.343  14.797
25496W        W98564  23.037  42.319   1.209
25497W        W98565  14.254   5.249   1.434
25498W        W98566  41.108  16.345   0.988
25499W        W98567  17.616  22.591   3.344
25500W        W98568   4.859   1.953   3.217
25501W        W98569  14.516  37.984   3.875
25502W        W98570   5.741  28.208   0.409
25503W        W98571  42.252  23.692  10.323
25504W        W98572  25.081   8.175  12.358
25505W        W98573   7.859  22.699  10.624
25506W        W98574  28.921  24.115  12.470
25507W        W98575  29.194  24.573  10.568
25508W        W98576  30.950  10.955   1.851
25509W        W98577  35.416  25.511  14.278
25510W        W98578  38.365  27.202   2.325
25511W        W98579  37.479  42.969  12.938
25512W        W98580   7.196  31.065   4.171
25513W        W98581  13.192   4.931  10.684
25514W        W98582  23.487  19.749  11.449
25515W        W98583  19.102  24.026   2.776
25516W        W98584  40.432  41.527   1.897
25517W        W98585  11.555  13.770  13.546
25518W        W98586  43.097  29.530  11.097
25519W        W98587  26.568  29.926  12.576
25520W        W98588  26.076  44.890   3.904
25521W        W98589  32.632  12.790  11.608
25522W        W98590  20.938  21.091   5.094
25523W        W98591  18.133   8.203   0.277
25524W        W98592  10.103   7.223   2.242
25525W        W98593   3.578  12.029  13.532
25526W        W98594  13.512  29.369  14.480
25527W        W98595  34.561   7.928   0.977
25528W        W98596  24.008  37.288  10.538
25529W        W98597  28.439  15.673  10.796
25530W        W98598  44.061   9.538  13.426
25531W        W98599  29.778   7.738   2.440
25532W        W98600  37.945   9.560   2.372
25533W        W98601   3.101  42.723  12.634
25534W        W98602  19.816  37.113   0.228
25535W        W98603  41.055  18.708   1.454
25536W        W98604  16.970  30.068  13.395
25537W        W98605   1.315  30.181   1.514
25538W        W98606  24.295  40.508   2.692
25539W        W98607  32.457  25.685   2.030
25540W        W98608  21.179  43.221  12.570
25541W        W98609  11.316   7.655  14.548
25542W        W98610  21.185  27.685   0.662
25543W        W98611   4.626  36.945  10.080
25544W        W98612  10.362  14.833   2.441
25545W        W98613   3.254  13.364   4.182
25546W        W98614  34.938   3.454  12.077
25547W        W98615  14.660  30.633   2.873
25548W        W98616  37.134  15.775   1.141
25549W        W98617  34.571  40.271  13.442
25550W        W98618   1.807  26.217  12.895
25551W        W98619  42.387  21.860   1.276
25552W        W98620  35.534  29.943  14.063
25553W        W98621  41.917  16.338  11.139
25554W        W98622  15.178  11.428  12.553
25555W        W98623  21.170  44.324   1.072
25556W        W98624  24.013  18.196   0.547
25557W        W98625  39.034  24.194   3.797
25558W        W98626  40.437  42.960   2.855
25559W        W98627  44.855  14.573   3.114
25560W        W98628  38.161  35.461  12.485
25561W        W98629  15.790  40.951  13.395
25562W        W98630   2.006  23.189   0.775
25563W        W98631   0.970   5.484  10.788
25564W        W98632   0.739  19.035  14.883
25565W        W98633  12.361  12.739   2.620
25566W        W98634  34.021  40.738  13.970
25567W        W98635  35.389   9.148  14.292
25568W        W98636  18.756   7.502   0.515
25569W        W98637  21.867  23.544   4.633
25570W        W98638  42.007  37.924  12.212
25571W        W98639  13.220  26.420  14.919
25572W        W98640  36.008   9.186   1.015
25573W        W98641  10.294  44.056  14.917
25574W        W98642  30.579  43.536   3.135
25575W        W98643  43.050  35.024  13.481
25576W        W98644  14.593  33.236  11.950
25577W        W98645  16.130  27.511  13.521
25578W        W98646   7.725   8.017   0.434
25579W        W98647   7.623  16.247  12.012
25580W        W98648   6.191   8.732  10.161
25581W        W98649   1.691   8.347   4.185
25582W        W98650  14.083  37.660  12.030
25583W        W98651  27.828   7.182   0.325
25584W        W98652  28.964  38.167  12.899
25585W        W98653  23.425   5.650  10.923
25586W        W98654  25.110  13.771  10.639
25587W        W98655  43.993   7.270  11.818
25588W        W98656  34.802  33.847   3.304
25589W        W98657  33.444  41.407   0.655
25590W        W98658  22.103  24.557  14.043
25591W        W98659  17.207  28.125  13.783
25592W        W98660  33.483  10.558  14.812
25593W        W98661   0.946   7.777   0.668
25594W        W98662  15.866  36.304  14.368
25595W        W98663  37.237  43.570  13.968
25596W        W98664   2.435  38.553  13.012
25597W        W98665   0.964  14.416   1.874
25598W        W98666  24.151  15.250   4.671
25599W        W98667   0.449  14.862   0.954
25600W        W98668  35.118   0.226   5.233
25601W        W98669  25.152   2.463  14.930
25602W        W98670  32.342  26.932  13.923
25603W        W98671  43.810  40.116   2.420
25604W        W98672   4.835  40.292  11.620
25605W        W98673  33.377  31.036   4.537
25606W        W98674  30.537  34.323  11.180
25607W        W98675  40.666  44.732  13.022
25608W        W98676   7.930  38.888  13.268
25609W        W98677  13.766  12.780   4.739
25610W        W98678  15.883  42.573   2.697
25611W        W98679   4.255   6.361   2.670
25612W        W98680  15.560  36.095  13.966
25613W        W98681  34.556  21.498  12.380
25614W        W98682   5.901  32.909  13.360
25615W        W98683  35.570  16.864   2.356
25616W        W98684   7.735   2.535   4.348
25617W        W98685  11.726  26.455   5.033
25618W        W98686  27.071   0.420   3.736
25619W        W98687   1.060  27.999  11.712
25620W        W98688  27.533   4.450  13.523
25621W        W98689  17.211  23.098  13.467
25622W        W98690  26.466  42.084   5.191
25623W        W98691  19.089  28.379  14.883
25624W        W98692  44.901  33.829   4.666
25625W        W98693  41.533  22.128  14.144
25626W        W98694  31.065  33.509   0.479
25627W        W98695  42.007  12.117  11.141
25628W        W98696  30.697  25.991  12.469
25629W        W98697  25.082  30.134  14.904
25630W        W98698  20.982  39.305  12.430
25631W        W98699  35.892  43.138   2.329
25632W        W98700   3.394   6.179   5.099
25633W        W98701  42.473   2.360  10.680
25634W        W98702  23.146  42.687  14.865
25635W        W98703  17.820   8.116  14.844
25636W        W98704  19.606  23.728  11.550
25637W        W98705  31.245  44.164  11.107
25638W        W98706  28.569   4.779  10.411
25639W        W98707  18.606  24.561   3.609
25640W        W98708  42.889  18.722  12.088
25641W        W98709  29.668  39.965  14.349
25642W        W98710   0.107   0.625  13.082
25643W        W98711  44.333  32.388  14.845
25644W        W98712  16.144  36.832   3.754
25645W        W98713  23.099   9.722   0.938
25646W        W98714  32.823  44.802   3.872
25647W        W98715   1.197  21.434   1.747
25648W        W98716  42.702   0.764  14.892
25649W        W98717  42.720  30.006  13.026
25650W        W98718  13.873  21.708   3.845
25651W        W98719   9.228   0.166  11.641
25652W        W98720   3.927  18.353  13.863
25653W        W98721  33.995  38.999   1.888
25654W        W98722  16.866  32.367   4.730
25655W        W98723   7.606  42.847  14.855
25656W        W98724  26.151  30.585   2.898
25657W        W98725  19.182  12.917   2.870
25658W        W98726  41.020  37.962  11.227
25659W        W98727  42.830  16.095   3.776
25660W        W98728  26.327  25.723  11.530
25661W        W98729   0.509  35.113   4.695
25662W        W98730  33.727  12.753  13.021
25663W        W98731  38.253  20.021  14.811
25664W        W98732  18.813  11.311  11.439
25665W        W98733  39.355  19.679  10.387
25666W        W98734  13.833  21.717  12.543
25667W        W98735  44.851  25.252  11.589
25668W        W98736   7.665  43.301   0.277
25669W        W98737  30.673  33.994   2.271
25670W        W98738   2.296   9.854  13.980
25671W        W98739   5.928  34.519   0.380
25672W        W98740  34.526   5.132   3.114
25673W        W98741  15.420  30.520  12.197
25674W        W98742  18.227  25.937   0.819
25675W        W98743  38.440  23.407   3.247
25676W        W98744  43.548   3.906  11.884
25677W        W98745  44.487  27.685   3.888
25678W        W98746  14.652  39.723   4.221
25679W        W98747  13.157   3.343   4.652
25680W        W98748  14.672  32.558  10.964
25681W        W98749  33.005  17.125   0.971
25682W        W98750   8.053  27.378  12.474
25683W        W98751  13.147  43.699   3.583
25684W        W98752  41.057   9.433  14.455
25685W        W98753  36.618  22.662   2.626
25686W        W98754  17.733  41.997   1.471
25687W        W98755  26.817  38.049   1.195
25688W        W98756   8.939  11.652   1.480
25689W        W98757   3.243  22.108   9.864
25690W        W98758  14.776  16.028   3.168
25691W        W98759  23.035  14.133   0.006
25692W        W98760  22.498  21.186  10.831
25693W        W98761  29.663   3.621   4.233
25694W        W98762  12.282  18.750  14.865
25695W        W98763   1.214  26.007   3.880
25696W        W98764  10.765  15.235   4.575
25697W        W98765  34.272   1.765  14.012
25698W        W98766  41.490  30.172   3.202
25699W        W98767  42.322  41.826  14.536
25700W        W98768  38.280   8.078  10.738
25701W        W98769  34.851  41.315   0.740
25702W        W98770   3.696  33.076   2.740
25703W        W98771  18.592  39.942  12.459
25704W        W98772   0.832   9.497  10.914
25705W        W98773   0.567  23.555   0.938
25706W        W98774   6.411  27.539  13.512
25707W        W98775   8.974  30.466   0.336
25708W        W98776  13.388  14.706  10.614
25709W        W98777  37.296  34.482   3.785
25710W        W98778  34.669  33.466  13.474
25711W        W98779  36.383   4.972   3.490
25712W        W98780   2.278  19.688   4.987
25713W        W98781  40.573  35.147   1.187
25714W        W98782  38.363  39.936  10.429
25715W        W98783  12.590  23.862  14.978
25716W        W98784  40.080  37.483   2.765
25717W        W98785  34.393  22.925   2.797
25718W        W98786  25.744   7.675   3.325
25719W        W98787  38.135  21.164  13.398
25720W        W98788   3.757  27.926  14.857
25721W        W98789  25.022  40.284   2.029
25722W        W98790  18.391  23.484  13.787
25723W        W98791  42.294  40.825   2.284
25724W        W98792  38.929   7.316   2.205
25725W        W98793  17.576  28.569   2.367
25726W        W98794  37.120  27.999   0.453
25727W        W98795  42.832  24.992  11.524
25728W        W98796  42.340  18.884   1.926
25729W        W98797  10.692   2.810  13.718
25730W        W98798   8.595  34.848   4.997
25731W        W98799  26.684   2.218  12.607
25732W        W98800   8.787  23.562   1.971
25733W        W98801  33.853   3.478   1.237
25734W        W98802   1.826  36.975   2.945
25735W        W98803  33.126  41.756  11.584
25736W        W98804  38.627  18.044  14.428
25737W        W98805   4.438  10.099  12.166
25738W        W98806  34.519  26.576   4.364
25739W        W98807  27.228   1.355   1.883
25740W        W98808  15.859   6.241  12.920
25741W        W98809  24.922  11.275  11.030
25742W        W98810   2.918  23.230   2.390
25743W        W98811   3.266  30.578   1.227
25744W        W98812  38.462   5.243  11.421
25745W        W98813   6.385   8.088  14.841
25746W        W98814  18.690  12.028   4.573
25747W        W98815  32.087  30.092  13.068
25748W        W98816   9.949  24.550   2.284
25749W        W98817  41.451  35.647   3.723
25750W        W98818  15.340  14.363   3.678
25751W        W98819  33.598  12.258   0.713
25752W        W98820  20.324   5.705  14.316
25753W        W98821  41.342  11.512  13.057
25754W        W98822  43.937  25.498   2.561
25755W        W98823   4.364  31.718  10.643
25756W        W98824   7.784  28.429   4.271
25757W        W98825  31.270   7.932  12.800
25758W        W98826  13.666  20.026   2.178
25759W        W98827  28.090  20.215  12.594
25760W        W98828  12.157  25.961  11.941
25761W        W98829  31.157  41.840  13.645
25762W        W98830  25.593   3.490  12.950
25763W        W98831  36.342  41.379   4.623
25764W        W98832   4.923  26.673   4.596
25765W        W98833  35.828  13.566   2.019
25766W        W98834   2.471  33.018  11.586
25767W        W98835  14.321  14.085   0.945
25768W        W98836  26.004  44.173  11.784
25769W        W98837  40.420  43.751   0.939
25770W        W98838  33.048  42.477   4.720
25771W        W98839  40.949  41.167  13.534
25772W        W98840  30.144  35.056  12.982
25773W        W98841  11.069   6.755   1.261
25774W        W98842  33.276  37.257  14.919
25775W        W98843   3.330  42.600  14.791
25776W        W98844  28.553   4.916   3.691
25777W        W98845  33.277  10.150  10.487
25778W        W98846   3.190  36.869  11.578
25779W        W98847  24.134  26.399   4.683
25780W        W98848  29.811   3.450  13.944
25781W        W98849  25.519   2.818   4.127
25782W        W98850   5.705   3.300  11.561
25783W        W98851  43.216  24.570  14.343
25784W        W98852   3.746  33.055  13.944
25785W        W98853  23.028   4.443   2.297
25786W        W98854  27.340  19.315  12.824
25787W        W98855  29.406   7.639   2.071
25788W        W98856   4.831  35.586   4.511
25789W        W98857  38.871  37.881  11.751
25790W        W98858  20.803  30.522  14.956
25791W        W98859  39.457  38.123  12.461
25792W        W98860   5.239  20.029  11.552
25793W        W98861  15.087  13.095   4.942
25794W        W98862  33.203   0.878  14.981
25795W        W98863  44.853  44.506  13.666
25796W        W98864  17.308   4.370  14.269
25797W        W98865   7.804   2.044   5.018
25798W        W98866  12.961   0.585  13.194
25799W        W98867  15.913   4.747   1.743
25800W        W98868  21.692  10.372   0.753
25801W        W98869  21.665  28.441   3.110
25802W        W98870   6.264   5.430   2.548
25803W        W98871  28.145   6.687   1.441
25804W        W98872  33.377  14.268   1.915
25805W        W98873   3.733   1.447   4.518
25806W        W98874   9.927  42.450   2.200
25807W        W98875   8.286  21.610  12.852
25808W        W98876  23.932   6.160   2.334
25809W        W98877  22.938  42.249   4.768
25810W        W98878  37.439  18.751   0.841
25811W        W98879  28.236   6.817  11.185
25812W        W98880  29.500  20.656   3.801
25813W        W98881  19.958  17.562   1.907
25814W        W98882  13.273   8.667   3.662
25815W        W98883  20.787  40.882   1.914
25816W        W98884  16.144  36.817   2.638
25817W        W98885  41.175   7.281   5.618
25818W        W98886  17.059  15.783  11.529
25819W        W98887  27.729  27.654   4.153
25820W        W98888  41.770  41.301  13.936
25821W        W98889   9.843  44.786   2.261
25822W        W98890  38.506  37.545  10.511
25823W        W98891  27.079  18.681  14.295
25824W        W98892  21.263  11.110   2.341
25825W        W98893  25.652  33.925  13.542
25826W        W98894  20.116  26.559  11.699
25827W        W98895  34.449   9.142   2.328
25828W        W98896  14.785  33.905  13.034
25829W        W98897  10.748  26.091  10.701
25830W        W98898   8.299   6.767  10.582
25831W        W98899  41.899  34.506   1.254
25832W        W98900  32.480  30.632   1.165
25833W        W98901  21.588  14.851   4.716
25834W        W98902  37.005  12.217   0.005
25835W        W98903   9.340  40.809   4.775
25836W        W98904  23.482   5.275  13.071
25837W        W98905  28.046  21.698  10.640
25838W        W98906  21.342  43.385   1.100
25839W        W98907  21.722  20.409  10.546
25840W        W98908  26.284  27.932   0.545
25841W        W98909   4.000  16.596   3.759
25842W        W98910   8.345   4.523  13.021
25843W        W98911  44.692  37.182   2.063
25844W        W98912   6.910   0.331  14.562
25845W        W98913  21.376  41.112  12.396
25846W        W98914  17.089  36.479  11.221
25847W        W98915  24.439   2.962   2.846
25848W        W98916  13.288  17.443  10.526
25849W        W98917   9.331  34.332   0.712
25850W        W98918  15.064  35.366   1.902
25851W        W98919  44.572  33.345  14.812
25852W        W98920  10.600  10.076   1.044
25853W        W98921  33.872  36.100  14.862
25854W        W98922  40.769  35.426  11.013
25855W        W98923  31.123  39.582  12.396
25856W        W98924  26.161  25.576  11.996
25857W        W98925   7.236   5.314   2.182
25858W        W98926  31.456  27.076  11.445
25859W        W98927  35.887  31.529   3.829
25860W        W98928  18.116   5.425  14.851
25861W        W98929  44.449   0.380   2.654
25862W        W98930   3.776  10.908   2.742
25863W        W98931  11.600  35.072   2.401
25864W        W98932  22.172  17.137   1.905
25865W        W98933  33.551  30.702   4.166
25866W        W98934  42.296  43.933   3.953
25867W        W98935  24.961  36.755   4.183
25868W        W98936  16.878  10.447   2.378
25869W        W98937  24.980  36.525   1.617
25870W        W98938  11.346  28.164  11.338
25871W        W98939  32.566  12.656   1.311
25872W        W98940  14.713  41.984  11.140
25873W        W98941   9.762  31.633  12.970
25874W        W98942  21.699  32.621  12.118
25875W        W98943  15.887  35.411  10.565
25876W        W98944  37.393   7.231   0.894
25877W        W98945  18.724  29.530  12.531
25878W        W98946  32.011  38.607  14.111
25879W        W98947   9.346  44.367   0.377
25880W        W98948  21.042  40.245   2.843
25881W        W98949  10.843  35.096  13.504
25882W        W98950  15.867  11.610  14.677
25883W        W98951  38.941   4.906  10.617
25884W        W98952  23.395  27.057   4.489
25885W        W98953  27.135  35.911  12.908
25886W        W98954  36.285  42.484   2.329
25887W        W98955   4.977  12.838   0.919
25888W        W98956  13.683  22.953   2.703
25889W        W98957  36.545  31.321   1.154
25890W        W98958  23.751  37.093  12.545
25891W        W98959   8.847  14.146   4.330
25892W        W98960  14.591  38.786  11.621
25893W        W98961  41.791  15.775   4.626
25894W        W98962  44.470  36.067  13.384
25895W        W98963   3.259   5.899   2.335
25896W        W98964  23.946  37.479  14.608
25897W        W98965  13.217  11.923  13.950
25898W        W98966  42.735  22.158  12.516
25899W        W98967  15.145  21.241  14.377
25900W        W98968  31.993  24.643   4.137
25901W        W98969  32.037  41.472   0.702
25902W        W98970  28.213  30.692   4.583
25903W        W98971   6.769   3.302   4.112
25904W        W98972   1.854  14.359   4.909
25905W        W98973  11.498   4.268   2.198
25906W        W98974   9.144  40.527   4.178
25907W        W98975  44.470   3.831  12.111
25908W        W98976   0.974   3.693  14.149
25909W        W98977  16.643  44.746   0.318
25910W        W98978  43.775  35.665  12.017
25911W        W98979  22.100  25.219   1.851
25912W        W98980   9.321  40.983   1.426
25913W        W98981   3.034  34.387  11.779
25914W        W98982  39.457   2.438   4.731
25915W        W98983  43.537   8.305  14.048
25916W        W98984  15.613  11.866   2.971
25917W        W98985   5.474  18.501   0.811
25918W        W98986  44.939  25.126  13.090
25919W        W98987  40.870   9.730   3.886
25920W        W98988  33.606   2.408  14.405
25921W        W98989  37.036  37.473  13.037
25922W        W98990  15.746   1.179   0.813
25923W        W98991   0.490   5.679   0.481
25924W        W98992  42.692  40.454  10.939
25925W        W98993  35.311   2.652   0.310
25926W        W98994  37.847   5.285  11.972
25927W        W98995  38.631   9.180  11.568
25928W        W98996  24.151  42.900   4.151
25929W        W98997  44.174  34.177   2.231
25930W        W98998  16.775  18.144  13.420
25931W        W98999  24.912   4.482   2.242
25932W        W99000  34.046   9.212   1.044
25933W        W99001   9.966  32.280   1.831
25934W        W99002   5.720  19.713   0.319
25935W        W99003  39.868   3.515   3.688
25936W        W99004  15.767  14.268   2.740
25937W        W99005  13.072   9.191  11.732
25938W        W99006  12.315   6.259   4.536
25939W        W99007  16.143  12.523  12.390
25940W        W99008  23.973   5.547  11.150
25941W        W99009  41.275  18.163  13.337
25942W        W99010  12.080   3.643  11.141
25943W        W99011  20.661   1.606  13.028
25944W        W99012  37.393  24.554   0.449
25945W        W99013  35.086   1.177  11.735
25946W        W99014  17.365  10.150  12.043
25947W        W99015  25.162  27.778   0.999
25948W        W99016  33.059  33.928   1.801
25949W        W99017  28.539  12.364   2.624
25950W        W99018  11.501  14.414   2.689
25951W        W99019  17.962   3.351  12.980
25952W        W99020   2.454  37.013  11.031
25953W        W99021   8.713  35.656  14.429
25954W        W99022  38.795   7.239  12.471
25955W        W99023   4.372  29.954  12.586
25956W        W99024   1.839  35.408   1.378
25957W        W99025  18.577   2.926  13.025
25958W        W99026   9.619  31.957   1.193
25959W        W99027  26.294  35.869  11.141
25960W        W99028  10.672  36.128   0.787
25961W        W99029  28.564  23.203  13.150
25962W        W99030  21.481  13.050  11.145
25963W        W99031  40.477  33.149   0.360
25964W        W99032  10.867  14.040  14.938
25965W        W99033  39.848  37.879   1.230
25966W        W99034  34.601  27.172  11.205
25967W        W99035  32.459  44.050   4.239
25968W        W99036  29.661  15.153   1.705
25969W        W99037  19.463  30.491   0.261
25970W        W99038   0.097  14.216   1.875
25971W        W99039  34.542  29.974  14.007
25972W        W99040   5.401  37.494  10.242
25973W        W99041  10.936  24.787   2.469
25974W        W99042  26.100  42.010  12.609
25975W        W99043   2.566  13.227  11.514
25976W        W99044  23.051  10.605   0.248
25977W        W99045   4.689   6.989  12.106
25978W        W99046  30.851   9.587  12.381
25979W        W99047  35.603   4.579  14.355
25980W        W99048  34.892  28.253  11.595
25981W        W99049   4.975   1.989   9.896
25982W        W99050   8.472   7.605  11.351
25983W        W99051  31.422   2.245  12.939
25984W        W99052   4.296  33.088  14.825
25985W        W99053  16.333  20.512  13.323
25986W        W99054  44.456  12.310  10.280
25987W        W99055   4.793  39.481   3.333
25988W        W99056  40.513  11.884  13.225
25989W        W99057  13.346  36.883  13.395
25990W        W99058  28.686  24.781   0.242
25991W        W99059   3.831  23.103  14.061
25992W        W99060  14.788  10.377  11.186
25993W        W99061  30.610  24.202  14.069
25994W        W99062  35.075  26.851   0.811
25995W        W99063  41.206   4.846  14.418
25996W        W99064  44.842  19.844   5.063
25997W        W99065  29.700  14.178  10.817
25998W        W99066   9.898   3.109  14.085
25999W        W99067  34.425   7.927  12.419
26000W        W99068   3.805   3.177   4.120
26001W        W99069  13.175  19.262  14.835
26002W        W99070  32.020  31.340  11.215
26003W        W99071  11.835   3.116   2.692
26004W        W99072   9.728  16.226   2.461
26005W        W99073  36.967   3.854  11.323
26006W        W99074   4.982  24.218   5.054
26007W        W99075  18.264  24.931   0.800
26008W        W99076   6.608   0.247   0.297
26009W        W99077  33.736  37.449  13.784
26010W        W99078  22.414  23.027   3.154
26011W        W99079   8.918  28.631   3.787
26012W        W99080  23.255  25.136   1.224
26013W        W99081  33.621  29.173  14.253
26014W        W99082  11.395  19.024  13.051
26015W        W99083   9.391  21.706  14.351
26016W        W99084   8.957  34.869  13.987
26017W        W99085  21.054  35.478   1.852
26018W        W99086  12.810  10.351  14.276
26019W        W99087  23.317  27.737   1.635
26020W        W99088   5.646  33.493  14.862
26021W        W99089   0.838  17.849   4.035
26022W        W99090   8.200  31.165   1.189
26023W        W99091  42.752  20.605   0.264
26024W        W99092   4.385  30.987  12.579
26025W        W99093  19.074   5.234  14.971
26026W        W99094  43.001   7.255   4.210
26027W        W99095  16.777  19.185   3.280
26028W        W99096  42.248  17.509   1.903
26029W        W99097   2.897  20.564  11.423
26030W        W99098  42.788  12.816  12.140
26031W        W99099  32.367   2.336  13.999
26032W        W99100  27.731  33.283   0.159
26033W        W99101   1.807  24.497   0.733
26034W        W99102  21.098   1.836  10.701
26035W        W99103  44.024  18.031   4.149
26036W        W99104  42.159  14.799   1.322
26037W        W99105   3.695   0.554   0.426
26038W        W99106   3.784   3.338   0.768
26039W        W99107  11.142   1.781  13.497
26040W        W99108   7.272  21.260   2.366
26041W        W99109   1.608   3.812  11.086
26042W        W99110  25.656  33.978   2.919
26043W        W99111  37.438  35.294  13.867
26044W        W99112  39.069   2.156  13.474
26045W        W99113  29.192  37.585  11.581
26046W        W99114  37.993  17.737   4.634
26047W        W99115  38.888  16.811  14.694
26048W        W99116   9.858  34.005  12.635
26049W        W99117  29.514   7.594  14.700
26050W        W99118   5.837  34.344  14.340
26051W        W99119  14.645   1.785  12.573
26052W        W99120   3.803  28.636   4.598
26053W        W99121  32.041  31.026   1.859
26054W        W99122  37.790  21.767   0.493
26055W        W99123  23.218  20.996   2.165
26056W        W99124  27.041  41.453   0.821
26057W        W99125  21.235  40.023  14.434
26058W        W99126  28.278  30.723   0.871
26059W        W99127  15.790  11.790   5.028
26060W        W99128  16.749  36.389  12.667
26061W        W99129  22.171   4.385   3.093
26062W        W99130   7.961  42.858   0.229
26063W        W99131  35.961  17.241  14.821
26064W        W99132  42.875  24.621   2.174
26065W        W99133   0.689   7.133  13.443
26066W        W99134  40.314  11.418   1.421
26067W        W99135  25.793  41.080  13.450
26068W        W99136  28.501  12.340   0.691
26069W        W99137  36.153  44.654  11.677
26070W        W99138   6.299  32.181   1.168
26071W        W99139   4.316  31.578   1.309
26072W        W99140  18.272  36.576   2.642
26073W        W99141  31.588  27.080  12.935
26074W        W99142  26.232  26.703   0.010
26075W        W99143  38.361   1.838   0.988
26076W        W99144  14.494  35.918  12.089
26077W        W99145   2.788  12.470   1.894
26078W        W99146  14.322   6.228   2.304
26079W        W99147  17.075  24.966   1.746
26080W        W99148  19.538   9.606   5.082
26081W        W99149  17.734   4.864  13.498
26082W        W99150  38.828  20.692  13.145
26083W        W99151  33.319  26.267   2.329
26084W        W99152  22.110  28.568   3.324
26085W        W99153  26.692   0.377   1.893
26086W        W99154   4.740  34.845   2.378
26087W        W99155   1.979  38.458  10.961
26088W        W99156  15.505  26.931  11.034
26089W        W99157   9.278  12.354  13.309
26090W        W99158  31.525  24.789   1.947
26091W        W99159   9.781  28.153  12.961
26092W        W99160  41.097  29.862   3.092
26093W        W99161   7.725  34.337   0.808
26094W        W99162  16.683   3.901   2.153
26095W        W99163  28.002  41.070   0.448
26096W        W99164   5.805   4.957   3.874
26097W        W99165  25.511  18.484  13.416
26098W        W99166   8.082  16.690   2.618
26099W        W99167  17.093  30.115   1.474
26100W        W99168  17.545  17.672   4.424
26101W        W99169   8.431  42.581   3.711
26102W        W99170  39.802  35.442   1.329
26103W        W99171  25.107   0.916  13.316
26104W        W99172  44.355  18.596   0.718
26105W        W99173  37.394  43.882   1.742
26106W        W99174  10.872   6.921   2.274
26107W        W99175   9.837  39.403  12.440
26108W        W99176   7.486  11.670  13.556
26109W        W99177  38.001  13.211   4.427
26110W        W99178  10.845  12.202  13.354
26111W        W99179  34.438  26.230   2.731
26112W        W99180  42.436   5.777   2.384
26113W        W99181  37.508  21.763   3.807
26114W        W99182  34.056   9.904   3.213
26115W        W99183  18.058   4.072   2.922
26116W        W99184  27.216  38.796  12.021
26117W        W99185   9.942  21.794  14.274
26118W        W99186  42.262  33.392  12.398
26119W        W99187   6.399  40.477   2.280
26120W        W99188  39.276  22.628   1.694
26121W        W99189  20.299  26.695  14.464
26122W        W99190  27.149   6.563  14.702
26123W        W99191  32.949  43.565  13.348
26124W        W99192   2.494  25.700   3.246
26125W        W99193  14.642  24.587   4.566
26126W        W99194  42.689  31.089  14.418
26127W        W99195  10.356  20.695   0.912
26128W        W99196  28.162  37.553  11.560
26129W        W99197   8.809  12.441  13.508
26130W        W99198  43.219   1.966  10.982
26131W        W99199  38.550  36.482   0.434
26132W        W99200  44.984  34.686  11.181
26133W        W99201  17.219  17.188  14.527
26134W        W99202  32.934   3.756   0.477
26135W        W99203  11.252  25.693  13.269
26136W        W99204  13.357  14.271  13.848
26137W        W99205   7.656  34.463   1.772
26138W        W99206  36.574  24.639   3.713
26139W        W99207  35.043   9.897   2.306
26140W        W99208  31.002  27.708   2.118
26141W        W99209  15.734  28.424  13.931
26142W        W99210  11.487  43.952  13.068
26143W        W99211  27.438  33.382  11.230
26144W        W99212  31.111  28.721   1.990
26145W        W99213  31.622  11.029   1.255
26146W        W99214  17.291  40.013   4.042
26147W        W99215   1.755  16.599  12.553
26148W        W99216  16.106   2.782   2.626
26149W        W99217  13.730  21.321   0.525
26150W        W99218  40.367  27.856   1.899
26151W        W99219  26.746  21.730  12.932
26152W        W99220   3.095  22.484   0.534
26153W        W99221  16.650  15.263   2.161
26154W        W99222  12.395   8.855   4.990
26155W        W99223  24.816  37.013   4.596
26156W        W99224  40.145  38.300   0.335
26157W        W99225   9.769  30.836  13.372
26158W        W99226  26.758  20.990  14.596
26159W        W99227  23.298  17.525  11.999
26160W        W99228  13.062  42.071   4.828
26161W        W99229   3.650  10.782   1.745
26162W        W99230  27.588  21.618  12.334
26163W        W99231  43.796  17.187  14.064
26164W        W99232  11.303   6.596  11.064
26165W        W99233  16.198  27.510   1.816
26166W        W99234  38.546  10.851  13.551
26167W        W99235   1.496  41.746  12.433
26168W        W99236  25.210   3.315  11.449
26169W        W99237  22.947   2.162  13.426
26170W        W99238  25.927  29.242  11.611
26171W        W99239  39.810  34.594   3.147
26172W        W99240  40.593  40.954   3.102
26173W        W99241  32.000  21.998   1.822
26174W        W99242   5.432  15.566   0.934
26175W        W99243  20.656  26.451  10.898
26176W        W99244  39.985  26.830   3.169
26177W        W99245  31.477  39.186  12.373
26178W        W99246  43.765  24.280   0.788
26179W        W99247   2.936  31.150  14.367
26180W        W99248  18.627  44.937   4.215
26181W        W99249  21.028  20.607   4.926
26182W        W99250  26.578  44.006  12.417
26183W        W99251  30.209  25.219   2.547
26184W        W99252  27.525  23.492   1.884
26185W        W99253   1.036  40.526   1.996
26186W        W99254  39.812   5.157  11.939
26187W        W99255  33.732   4.488   3.276
26188W        W99256   2.370   1.275   3.909
26189W        W99257  10.328  24.451  11.434
26190W        W99258  37.063  19.621   0.996
26191W        W99259  21.230  24.728   0.447
26192W        W99260  14.634   4.936   1.257
26193W        W99261  31.154  25.089   4.134
26194W        W99262  31.735  18.595  14.813
26195W        W99263  29.581  29.128  14.964
26196W        W99264  39.033  27.799   1.357
26197W        W99265  25.117   1.911  14.220
26198W        W99266   5.020  26.676   0.312
26199W        W99267  26.544  31.495  13.559
26200W        W99268  36.468  24.632   4.242
26201W        W99269   5.759  10.197   3.877
26202W        W99270  19.165  35.879   4.202
26203W        W99271   9.380  40.478   3.204
26204W        W99272  13.268  23.806  12.599
26205W        W99273  12.779  37.390  13.988
26206W        W99274   1.344  22.854  14.964
26207W        W99275  18.286  41.752   2.788
26208W        W99276  22.547  24.935   1.913
26209W        W99277  11.153  35.145   3.170
26210W        W99278   8.699  41.265  12.008
26211W        W99279  28.108  18.150  12.393
26212W        W99280   0.268  26.895  14.843
26213W        W99281  37.661  31.387  13.831
26214W        W99282   5.405  16.847   4.664
26215W        W99283  43.256  22.961   0.857
26216W        W99284  34.537  25.265   4.890
26217W        W99285  37.439  22.675   4.762
26218W        W99286   9.105  15.642  10.164
26219W        W99287   9.695  23.690  11.496
26220W        W99288  37.415  19.041  11.576
26221W        W99289  31.270  43.657  11.068
26222W        W99290  16.259   3.824   3.126
26223W        W99291  25.306  16.713   1.843
26224W        W99292  16.319  32.895  13.166
26225W        W99293  23.201  14.340   1.303
26226W        W99294  12.170  37.235  12.899
26227W        W99295   5.021  15.266   0.817
26228W        W99296  17.172  27.958   1.893
26229W        W99297  17.716  35.092   1.723
26230W        W99298  18.367  30.414  12.779
26231W        W99299   4.739  22.681  13.252
26232W        W99300  26.714  19.093   0.930
26233W        W99301  20.304  25.805   2.105
26234W        W99302  41.953  42.258   1.958
26235W        W99303   9.631  39.617  14.158
26236W        W99304  28.314  23.581   0.418
26237W        W99305  25.296   4.158   1.971
26238W        W99306  15.850  20.136  14.771
26239W        W99307  29.119  42.120  10.644
26240W        W99308  23.811  41.098   1.426
26241W        W99309  10.212  36.548   3.093
26242W        W99310  32.003  15.855   1.703
26243W        W99311   5.735  22.540   2.682
26244W        W99312  38.533  21.263  14.321
26245W        W99313   2.338  34.810  14.231
26246W        W99314  25.491  36.517   1.678
26247W        W99315  36.167  40.829  11.211
26248W        W99316  44.081  12.814   2.240
26249W        W99317   7.711  39.151   1.295
26250W        W99318  43.399  41.368  12.573
26251W        W99319  12.916  28.714   3.252
26252W        W99320  26.711  32.575   1.197
26253W        W99321   4.832  39.763  12.894
26254W        W99322  10.165  10.345   3.158
26255W        W99323  30.062  30.430   2.780
26256W        W99324  36.455  32.869  10.563
26257W        W99325  10.472  17.301  11.709
26258W        W99326  32.230  18.708  14.656
26259W        W99327  25.445  19.683  13.189
26260W        W99328  28.637  39.790  12.126
26261W        W99329  44.998  34.009   2.663
26262W        W99330  28.586  21.701   2.410
26263W        W99331  22.365  40.332  12.068
26264W        W99332  23.990  24.275   4.681
26265W        W99333  33.846  21.156   2.804
26266W        W99334  20.026  13.072  13.476
26267W        W99335   3.440  40.505  10.384
26268W        W99336   9.640  17.333  12.227
26269W        W99337   6.942  21.149   1.992
26270W        W99338  38.957   7.854  11.408
26271W        W99339  23.715  44.316   0.449
26272W        W99340  11.122  17.273  13.846
26273W        W99341  14.185  11.603   0.410
26274W        W99342   7.329  18.532  11.592
26275W        W99343  31.603  38.498  13.121
26276W        W99344  22.221  31.220   1.239
26277W        W99345  13.726  31.937  13.462
26278W        W99346  12.822  26.641   1.242
26279W        W99347   7.359   5.836   4.002
26280W        W99348  19.018  24.844  13.462
26281W        W99349  21.797  27.473   1.914
26282W        W99350   7.877   1.222   1.912
26283W        W99351  16.765  29.520   1.712
26284W        W99352  39.149  33.515  12.866
26285W        W99353   3.008  26.466  11.039
26286W        W99354  19.986  31.509  10.623
26287W        W99355  39.907   4.887   4.639
26288W        W99356  26.339  19.992   3.434
26289W        W99357  16.051   0.405  13.896
26290W        W99358   4.707   3.208  10.528
26291W        W99359  43.911  11.341  14.575
26292W        W99360  26.057  36.448   2.230
26293W        W99361  41.415  27.954   4.345
26294W        W99362  16.061  41.424  11.120
26295W        W99363  22.545  44.389  12.113
26296W        W99364   0.421  33.789   4.802
26297W        W99365  30.714  34.532   3.643
26298W        W99366   2.981  43.948   2.429
26299W        W99367  25.092  43.211   1.847
26300W        W99368  39.757   0.520  10.311
26301W        W99369  21.691  17.014  13.234
26302W        W99370  21.559   2.827  10.503
26303W        W99371  36.145  14.839   4.927
26304W        W99372  19.836  41.782   1.438
26305W        W99373  25.501   0.349   2.775
26306W        W99374  17.370   8.304  12.771
26307W        W99375  33.512   3.224   2.124
26308W        W99376  31.764  26.489   3.550
26309W        W99377  43.373  30.695   4.440
26310W        W99378  16.048  27.524  14.982
26311W        W99379  42.978   7.368   2.441
26312W        W99380  34.977  26.182   2.602
26313W        W99381  21.889  35.792  12.653
26314W        W99382  31.043  43.278   3.190
26315W        W99383  35.297  30.866   1.302
26316W        W99384  23.993  13.110   0.893
26317W        W99385  32.076  29.505   3.640
26318W        W99386  36.362  37.955   3.958
26319W        W99387  39.294  36.612  11.023
26320W        W99388  11.210   6.775  14.813
26321W        W99389  23.469  27.940  11.258
26322W        W99390   8.186  22.489   3.408
26323W        W99391  39.319  28.842   4.554
26324W        W99392  26.747  13.541  11.467
26325W        W99393  28.374  11.698   4.318
26326W        W99394  10.814  15.090   4.084
26327W        W99395  19.624   2.739   4.033
26328W        W99396  23.739   1.534   2.237
26329W        W99397  10.057  39.418   2.295
26330W        W99398  29.689  38.939  11.978
26331W        W99399  30.205  36.673  14.421
26332W        W99400  30.898   8.782  13.294
26333W        W99401  14.373  17.564   2.075
26334W        W99402  21.061   3.155   0.431
26335W        W99403   6.785  41.588  10.990
26336W        W99404  13.859   7.125   1.264
26337W        W99405  23.508  15.300  13.925
26338W        W99406   8.691  38.877   1.284
26339W        W99407  24.680   6.125  11.285
26340W        W99408  44.683  13.027  14.399
26341W        W99409  34.677  31.941   4.152
26342W        W99410  40.003  29.109  14.927
26343W        W99411  21.755   2.362   1.124
26344W        W99412  27.469  29.950  11.125
26345W        W99413  26.603  25.034  10.839
26346W        W99414  27.035  17.590   1.195
26347W        W99415   6.129  10.931   0.501
26348W        W99416  27.592  26.633  13.252
26349W        W99417  17.393  18.031  11.036
26350W        W99418   0.807  14.626   4.685
26351W        W99419  16.203  12.175  11.957
26352W        W99420  39.347  37.545   0.891
26353W        W99421  24.572  16.834  12.106
26354W        W99422  29.319  42.855   0.547
26355W        W99423  33.895   8.666  11.167
26356W        W99424  41.715  38.441  12.373
26357W        W99425  38.379  23.990  13.612
26358W        W99426  33.195  13.315   2.281
26359W        W99427   5.053  22.312   0.381
26360W        W99428  30.757   7.150  11.734
26361W        W99429   9.301  20.897  13.059
26362W        W99430  36.510  31.464  10.685
26363W        W99431  35.275  42.147   0.740
26364W        W99432  20.661   8.728  10.673
26365W        W99433  10.743  21.126  13.405
26366W        W99434  32.695   7.389  14.316
26367W        W99435  27.411  32.007   2.360
26368W        W99436  35.505   6.268   0.191
26369W        W99437  32.909  40.559  14.539
26370W        W99438   6.702  39.733   2.680
26371W        W99439  34.072   3.000   0.038
26372W        W99440  44.890  26.091   3.982
26373W        W99441  22.263  43.571  13.584
26374W        W99442  15.645  42.030  11.128
26375W        W99443  39.500  25.482   4.051
26376W        W99444  36.308  17.830  13.359
26377W        W99445  10.120  23.025  12.821
26378W        W99446  24.481  26.645  11.068
26379W        W99447  30.619  14.291   2.644
26380W        W99448  14.349  31.184  14.827
26381W        W99449  42.801  44.316  12.444
26382W        W99450  11.094   9.190   4.869
26383W        W99451  24.778  40.936  11.478
26384W        W99452   1.870  10.728   3.152
26385W        W99453  17.224  37.844   2.183
26386W        W99454  26.625  29.170   4.249
26387W        W99455  20.752  43.338   4.995
26388W        W99456  30.803  33.487  12.128
26389W        W99457  43.732  43.358  12.563
26390W        W99458   4.330  25.724   4.196
26391W        W99459  41.056   7.339  13.305
26392W        W99460   1.854  29.006   2.325
26393W        W99461  35.104  23.979  13.326
26394W        W99462  13.956  10.649  14.872
26395W        W99463  20.795  44.230  12.396
26396W        W99464  16.188  33.631   3.909
26397W        W99465  21.221  32.511  12.008
26398W        W99466   4.350   4.645   1.276
26399W        W99467  44.836  23.961   3.309
26400W        W99468  21.370  23.946  13.418
26401W        W99469  19.226   2.745  12.615
26402W        W99470  34.905  38.103  12.888
26403W        W99471   8.580  36.099   3.380
26404W        W99472  21.102  30.958  13.146
26405W        W99473  43.916  29.431  12.122
26406W        W99474   7.660  35.859   1.763
26407W        W99475  15.826  12.707   4.699
26408W        W99476  35.968  30.674   2.834
26409W        W99477  21.257  42.760   4.756
26410W        W99478   1.325  39.934  12.072
26411W        W99479  16.248   8.811   3.090
26412W        W99480  20.705  24.442  14.279
26413W        W99481  36.033  41.792   2.616
26414W        W99482  13.933   8.344  13.409
26415W        W99483  38.882  43.814  12.669
26416W        W99484  10.396  34.948   1.165
26417W        W99485  18.630  24.965   2.818
26418W        W99486  42.629  18.017   0.906
26419W        W99487  17.598  25.265  10.711
26420W        W99488  26.041  15.248   2.437
26421W        W99489   9.542  40.546  10.537
26422W        W99490  11.775  32.979   0.068
26423W        W99491   0.345   9.337  11.657
26424W        W99492  34.471  35.335   3.652
26425W        W99493   4.325  40.375  11.622
26426W        W99494  11.611  11.275  14.567
26427W        W99495  44.266  28.450   0.318
26428W        W99496  15.346   0.428  12.103
26429W        W99497  19.689   5.826  14.580
26430W        W99498  11.209  29.083  11.975
26431W        W99499  17.765  40.817  12.600
26432W        W99500  18.174  30.987   2.121
26433W        W99501  19.086  34.875   1.460
26434W        W99502  33.370  44.143   4.418
26435W        W99503  26.070  19.945   2.449
26436W        W99504  42.147   3.773  13.937
26437W        W99505  15.298  38.372  14.840
26438W        W99506  44.415   1.131  10.830
26439W        W99507  25.547  33.483  13.287
26440W        W99508  29.578  15.634  12.428
26441W        W99509  43.734   3.840   2.411
26442W        W99510  28.488  44.817  11.894
26443W        W99511  21.722  30.505   0.288
26444W        W99512  25.560  36.662  12.432
26445W        W99513  34.388  44.438  12.728
26446W        W99514   3.383  21.442   1.369
26447W        W99515   1.824  23.182   2.905
26448W        W99516   3.839  27.096   0.892
26449W        W99517  37.041  35.965  10.632
26450W        W99518  35.089  30.872  14.282
26451W        W99519  25.932   5.288   0.464
26452W        W99520  40.778  39.069  13.060
26453W        W99521  22.146  22.508   2.777
26454W        W99522  24.194  27.754  10.678
26455W        W99523  22.747  16.980  14.379
26456W        W99524   7.225  17.495   3.919
26457W        W99525  15.856  41.813  12.515
26458W        W99526  12.078  43.544  12.223
26459W        W99527  13.816  37.568  11.098
26460W        W99528  30.457  18.947   2.240
26461W        W99529  37.056  20.304   4.545
26462W        W99530   9.115  10.360  10.693
26463W        W99531  18.375   8.194  14.833
26464W        W99532  17.204   8.127   2.128
26465W        W99533  43.305  26.046  10.719
26466W        W99534  28.069  36.094   3.270
26467W        W99535  15.196  32.950  13.866
26468W        W99536   3.902  18.183  12.557
26469W        W99537  36.139  20.262  14.763
26470W        W99538   2.075  25.183   0.808
26471W        W99539  28.794  19.785  14.885
26472W        W99540  16.112  21.117  12.593
26473W        W99541   0.921  11.499  10.629
26474W        W99542  12.217  22.283  10.864
26475W        W99543  23.228   7.844  12.166
26476W        W99544  38.146  33.100   2.782
26477W        W99545  39.829  10.341  10.734
26478W        W99546  13.512  13.219   0.245
26479W        W99547  19.083   9.796  11.485
26480W        W99548  37.951  20.778   1.838
26481W        W99549  39.433  43.323   2.894
26482W        W99550  32.602   0.333   0.676
26483W        W99551   6.924  27.678   4.508
26484W        W99552  28.155   5.630  12.987
26485W        W99553  24.981  32.194   2.842
26486W        W99554  24.172   2.965   1.194
26487W        W99555   6.346   5.910   2.807
26488W        W99556  39.869  27.427   0.456
26489W        W99557   4.976  19.829  13.995
26490W        W99558   5.244  17.825  12.152
26491W        W99559  17.758  33.548  11.634
26492W        W99560   5.398  30.412  14.964
26493W        W99561  24.215  19.122  13.088
26494W        W99562  16.565  29.460  10.649
26495W        W99563  18.060  18.636   1.976
26496W        W99564  35.565  25.649   2.904
26497W        W99565  13.184  14.282   4.064
26498W        W99566   9.649  21.108  13.478
26499W        W99567  11.282  14.803  12.873
26500W        W99568  23.209  35.922  10.549
26501W        W99569  32.499   7.440   2.888
26502W        W99570  32.688  40.537  13.019
26503W        W99571  17.034  21.288  13.364
26504W        W99572   6.625  38.343   1.804
26505W        W99573  36.570  20.458   1.935
26506W        W99574  32.890  41.945   1.664
26507W        W99575  35.026  39.468  10.685
26508W        W99576   4.895  39.475  12.062
26509W        W99577  36.669  16.035   3.005
26510W        W99578   6.313  14.118  10.292
26511W        W99579  16.121  30.441  14.925
26512W        W99580  17.647  30.189   4.709
26513W        W99581  12.141  22.984   0.819
26514W        W99582  35.970  28.406  11.136
26515W        W99583  24.516  26.496  11.927
26516W        W99584  24.121  17.201   3.715
26517W        W99585  15.673  17.768  11.949
26518W        W99586  37.487  14.674  13.005
26519W        W99587  22.799  28.676   4.053
26520W        W99588  12.398  40.986   4.122
26521W        W99589  13.791  24.573   1.657
26522W        W99590   8.727  13.720  13.573
26523W        W99591  34.733  12.244   1.253
26524W        W99592  28.357  31.638  12.983
26525W        W99593  20.781  16.810   2.232
26526W        W99594   7.223  24.788   4.679
26527W        W99595  25.090   0.984   4.885
26528W        W99596  24.949  38.394  12.075
26529W        W99597  28.214  17.038   2.444
26530W        W99598  22.620  24.528   4.658
26531W        W99599  33.088  32.609   0.398
26532W        W99600  20.309  10.325  13.359
26533W        W99601  38.529  26.887  12.517
26534W        W99602   7.764   0.964  14.054
26535W        W99603  36.559  13.691  14.204
26536W        W99604  12.577  19.544   3.484
26537W        W99605  41.932  42.657   4.281
26538W        W99606  16.818  20.315  13.438
26539W        W99607  19.086  16.136   3.634
26540W        W99608  21.768  42.905   4.796
26541W        W99609  34.535  28.732  14.820
26542W        W99610  22.503  14.153   2.406
26543W        W99611   4.627   8.541  10.304
26544W        W99612  35.067  28.843  13.891
26545W        W99613  33.697  18.051  11.436
26546W        W99614  15.543  15.107   3.762
26547W        W99615  36.993  14.858  12.021
26548W        W99616   9.639   9.167  10.546
26549W        W99617  40.688   4.884  14.320
26550W        W99618  27.945  34.129   3.025
26551W        W99619   4.965  42.942  11.387
26552W        W99620  21.649  34.348   1.668
26553W        W99621  39.504  20.213  14.476
26554W        W99622  24.052  10.964   1.780
26555W        W99623  23.226   9.879  14.829
26556W        W99624  37.699  11.733  13.326
26557W        W99625  14.645   6.347   3.672
26558W        W99626  35.041  42.054  13.475
26559W        W99627  13.310   5.975  11.411
26560W        W99628   0.478   2.545  12.089
26561W        W99629  12.196  14.787  13.383
26562W        W99630  43.208  27.609  12.909
26563W        W99631  36.987  20.897  11.564
26564W        W99632  33.398  33.125  14.829
26565W        W99633  43.363  24.937  11.588
26566W        W99634  20.725  29.164  14.446
26567W        W99635  44.231  24.659   2.229
26568W        W99636  14.844  38.507  14.333
26569W        W99637  38.340  30.670  13.580
26570W        W99638  39.504  37.386  11.900
26571W        W99639  29.196   7.331  14.390
26572W        W99640   2.151  13.628  13.124
26573W        W99641  16.577  11.212   0.813
26574W        W99642   6.977  25.037  14.979
26575W        W99643   3.724   6.311   2.645
26576W        W99644   2.784   9.309   0.986
26577W        W99645   1.442  19.185  14.352
26578W        W99646  42.949  28.173  10.689
26579W        W99647  36.774  37.782  11.541
26580W        W99648  16.031  21.733   0.342
26581W        W99649  41.720  32.923  11.146
26582W        W99650  14.720  40.317  13.785
26583W        W99651  22.240  42.306  12.958
26584W        W99652  12.050  21.933   1.649
26585W        W99653   3.432  34.375   3.976
26586W        W99654   6.934  23.213   2.326
26587W        W99655  34.053  43.191   4.602
26588W        W99656  33.403  41.030   2.906
26589W        W99657  14.061  22.197  13.304
26590W        W99658  12.711  14.671  13.380
26591W        W99659  10.368  15.407  10.657
26592W        W99660  29.525  41.493   2.973
26593W        W99661   2.526  13.726  14.409
26594W        W99662  14.571  44.766   0.448
26595W        W99663  27.800  25.764   4.081
26596W        W99664  28.516  13.811  12.041
26597W        W99665  27.435  14.769  14.916
26598W        W99666  31.961  27.580  14.946
26599W        W99667   0.976   1.014  11.054
26600W        W99668  14.723   7.268  13.535
26601W        W99669   7.208  44.833  14.565
26602W        W99670   9.383  16.851  10.619
26603W        W99671   2.916  18.453  12.694
26604W        W99672   7.815   0.505  14.421
26605W        W99673  22.806  12.674   2.198
26606W        W99674  17.282   5.686   2.643
26607W        W99675   5.391  21.480   3.275
26608W        W99676  35.624   9.883  13.652
26609W        W99677   4.760  33.640   1.265
26610W        W99678  44.526  12.147  11.980
26611W        W99679  25.641  11.725   1.700
26612W        W99680   9.195   0.452  12.981
26613W        W99681   8.449  41.797  14.431
26614W        W99682  26.405  10.398   4.544
26615W        W99683   2.983  20.658  13.529
26616W        W99684  41.122   1.515   3.311
26617W        W99685  28.197  23.288   4.631
26618W        W99686  40.119  44.493   0.429
26619W        W99687  39.251   9.278   2.583
26620W        W99688  43.908   1.369  13.060
26621W        W99689  33.908   2.003   4.632
26622W        W99690  43.410  37.775   1.698
26623W        W99691  37.481  11.348  12.991
26624W        W99692  27.229  15.714   2.784
26625W        W99693   5.900   0.741  13.056
26626W        W99694  42.063  20.694  11.566
26627W        W99695   3.031  33.428  10.760
26628W        W99696  23.748  40.301  10.234
26629W        W99697   3.977  28.940  10.675
26630W        W99698   1.244   4.333   2.782
26631W        W99699  16.585   9.328  14.046
26632W        W99700  36.335  25.175   0.978
26633W        W99701  18.760   2.716  11.570
26634W        W99702  31.473  20.383   4.590
26635W        W99703  30.080  39.489  13.125
26636W        W99704  27.118   5.262   1.448
26637W        W99705  28.575  16.040  13.853
26638W        W99706  37.475  11.467   0.564
26639W        W99707  37.518  22.242  13.259
26640W        W99708  30.956  36.279   5.269
26641W        W99709  39.129  11.838   0.830
26642W        W99710  30.145  36.888  13.524
26643W        W99711  23.272  25.166  12.137
26644W        W99712  30.647   5.869  13.620
26645W        W99713  15.559  34.062   3.145
26646W        W99714  12.841   2.349  13.478
26647W        W99715  27.421   5.192   0.470
26648W        W99716  27.365  25.140   4.097
26649W        W99717  44.848  36.611   1.293
26650W        W99718  33.598  31.995  11.020
26651W        W99719  13.425   9.765   3.661
26652W        W99720  35.270  12.188  11.122
26653W        W99721  36.578  44.535  12.101
26654W        W99722   4.217   6.622   3.542
26655W        W99723   6.452  44.858  11.076
26656W        W99724  34.673  18.309  11.102
26657W        W99725  34.906  42.789   2.400
26658W        W99726  22.305  43.779  12.014
26659W        W99727  24.422  42.428   4.252
26660W        W99728  15.734   2.926   4.370
26661W        W99729   3.786  39.117  14.292
26662W        W99730  19.996  33.437   4.598
26663W        W99731  15.811  38.267  13.616
26664W        W99732  17.089   8.502   2.666
26665W        W99733  42.791  40.744  12.099
26666W        W99734   7.116  40.734  13.429
26667W        W99735  21.783  11.789   0.777
26668W        W99736   1.226  26.455  12.128
26669W        W99737  18.510  10.424   0.259
26670W        W99738  19.241  18.554   4.150
26671W        W99739  16.208  42.516  13.885
26672W        W99740  18.496  11.310   0.566
26673W        W99741  14.121  23.205   2.822
26674W        W99742  29.992  23.643  11.984
26675W        W99743   4.963  30.579  14.772
26676W        W99744  30.977  13.802  12.827
26677W        W99745  17.572  35.301   3.110
26678W        W99746  40.755  43.108   4.711
26679W        W99747   0.346  32.661   4.117
26680W        W99748   8.270  44.467  13.011
26681W        W99749  26.992  42.382   0.958
26682W        W99750   0.411  12.074  12.402
26683W        W99751   9.330   5.368  14.908
26684W        W99752  14.942  35.905   0.217
26685W        W99753  11.277  28.889  13.411
26686W        W99754  31.961  33.004   3.781
26687W        W99755  41.041  22.588  14.226
26688W        W99756   3.387  43.709  13.818
26689W        W99757  43.521  43.237   0.332
26690W        W99758   6.477  39.974   2.278
26691W        W99759  38.043  38.952  12.552
26692W        W99760  34.667  25.509  14.797
26693W        W99761   9.114  24.434   0.326
26694W        W99762  43.389   6.256  12.901
26695W        W99763   5.167  34.848  13.489
26696W        W99764  19.203  30.357   3.708
26697W        W99765   2.788  32.895  13.473
26698W        W99766  15.984  36.925  10.328
26699W        W99767  37.129  19.084   4.523
26700W        W99768  16.205  24.737   1.251
26701W        W99769   3.346  20.684  11.185
26702W        W99770  30.885  20.200  14.000
26703W        W99771  30.086  22.710  11.648
26704W        W99772  12.722   7.469  14.569
26705W        W99773   0.197   0.502   1.304
26706W        W99774  24.176  28.260  10.496
26707W        W99775   9.407  37.805   2.858
26708W        W99776  18.579  43.988   3.781
26709W        W99777  12.756  42.041  14.966
26710W        W99778  11.604   1.401   0.870
26711W        W99779  26.077  13.938  12.986
26712W        W99780  28.140  15.997   0.400
26713W        W99781   5.244  16.705  14.105
26714W        W99782  40.718  11.065   1.213
26715W        W99783  27.550  35.008  12.382
26716W        W99784   5.242  27.916  11.707
26717W        W99785  27.156  20.631  14.679
26718W        W99786  38.530  36.425   4.043
26719W        W99787  13.553   9.799   4.496
26720W        W99788  13.781   4.246  12.493
26721W        W99789  25.071  42.053   3.692
26722W        W99790  13.559  20.120  13.258
26723W        W99791  18.688  43.771  12.068
26724W        W99792  20.858  37.609   3.179
26725W        W99793  20.190  11.180   3.903
26726W        W99794  10.334   9.851  12.122
26727W        W99795   9.756   9.616   2.337
26728W        W99796  36.977   4.081  10.852
26729W        W99797   2.322  25.251   1.254
26730W        W99798   7.485   9.119  14.005
26731W        W99799   3.898   7.165  11.218
26732W        W99800  39.260  18.794   4.623
26733W        W99801   7.639  29.642  14.946
26734W        W99802  33.314   4.903   9.920
26735W        W99803  42.852   5.220   3.668
26736W        W99804  39.335  44.402  14.740
26737W        W99805  26.536  10.875  13.957
26738W        W99806   7.617   8.191   2.425
26739W        W99807   8.059  26.513  12.398
26740W        W99808  25.500  35.937  10.465
26741W        W99809  23.207   9.167   0.469
26742W        W99810  25.818  22.198   2.973
26743W        W99811   8.732  27.168  11.207
26744W        W99812  10.149  25.491   4.077
26745W        W99813   2.683  39.752  13.380
26746W        W99814   6.977  43.413  10.621
26747W        W99815  16.302  18.307   3.664
26748W        W99816   7.449   1.699  13.386
26749W        W99817  11.512  13.822   1.723
26750W        W99818   7.967  38.229   4.593
26751W        W99819  39.150  26.852   2.846
26752W        W99820  34.906  28.858  13.385
26753W        W99821  22.565  31.220  12.486
26754W        W99822  28.044  36.901   1.250
26755W        W99823  37.570  40.460   3.764
26756W        W99824   2.969  22.981   1.953
26757W        W99825  20.065  44.884  12.885
26758W        W99826  23.128  27.144  12.006
26759W        W99827  21.441   3.870   3.694
26760W        W99828  19.358  26.094  12.438
26761W        W99829  11.049   9.343  10.666
26762W        W99830   2.480  23.118   1.024
26763W        W99831  32.409   5.700  11.166
26764W        W99832  10.637  41.806  13.948
26765W        W99833   0.286  17.236   1.834
26766W        W99834  15.821   6.233   0.429
26767W        W99835  14.688  13.600  10.755
26768W        W99836   4.212  26.461  12.586
26769W        W99837  20.477  34.277   3.182
26770W        W99838  31.177  23.653   0.798
26771W        W99839  22.116  10.245  14.561
26772W        W99840   9.728  20.297   2.759
26773W        W99841  24.383  40.011   9.994
26774W        W99842  29.447  13.318  12.790
26775W        W99843  40.440   6.774  14.504
26776W        W99844   4.307  16.684  14.416
26777W        W99845  21.292  13.486  13.114
26778W        W99846  43.938   1.349  11.718
26779W        W99847  42.335  37.434   2.218
26780W        W99848   1.462  15.788   1.735
26781W        W99849  11.809  32.160  14.687
26782W        W99850  33.562  29.426   1.769
26783W        W99851   3.545  40.142   0.262
26784W        W99852  40.345   5.493   0.674
26785W        W99853  34.033  33.996   3.712
26786W        W99854  13.709  14.490   4.727
26787W        W99855   5.330  31.436   2.851
26788W        W99856   3.861  12.787  11.537
26789W        W99857  20.652   1.668  11.664
26790W        W99858  13.110  23.560  12.173
26791W        W99859  37.981  27.394  11.043
26792W        W99860   5.362  11.921  11.470
26793W        W99861  20.447  44.335  14.439
26794W        W99862  39.230   6.814   3.503
26795W        W99863  43.293  38.425  13.404
26796W        W99864  38.964  27.070  13.696
26797W        W99865  44.388  20.595   4.039
26798W        W99866  19.352  22.836  13.055
26799W        W99867   0.925  29.433   0.522
26800W        W99868  18.097  15.308  13.428
26801W        W99869   2.215  43.287   1.881
26802W        W99870  10.108  34.040  14.987
26803W        W99871  35.492  14.356   1.434
26804W        W99872  44.058  14.114   2.735
26805W        W99873   1.392   5.707   2.630
26806W        W99874  37.785  27.451   0.047
26807W        W99875  34.056  34.884  10.072
26808W        W99876  17.589  33.094  13.524
26809W        W99877   2.950  20.035   1.640
26810W        W99878  12.775  39.835   4.637
26811W        W99879  15.301   8.163   0.278
26812W        W99880  12.738  42.524   4.849
26813W        W99881  13.681  13.595  13.963
26814W        W99882  13.153  31.114  11.118
26815W        W99883  32.137  35.713   5.461
26816W        W99884   4.481  23.641  13.458
26817W        W99885   3.638  10.305   3.302
26818W        W99886   7.119  13.812   0.432
26819W        W99887   2.775   3.839   1.353
26820W        W99888  32.515  12.415  11.182
26821W        W99889   4.727  27.031  13.084
26822W        W99890  14.013  23.647   0.024
26823W        W99891  32.810   9.199  14.515
26824W        W99892  40.539   7.425   4.215
26825W        W99893  15.704  17.127  13.951
26826W        W99894   1.482  24.938  11.651
26827W        W99895  19.954  17.955   4.922
26828W        W99896  14.358   0.712   4.009
26829W        W99897   8.266  15.668  10.599
26830W        W99898  17.748  25.041  11.674
26831W        W99899  28.619   4.234  13.407
26832W        W99900  39.605  21.205  12.268
26833W        W99901  13.325  22.098  13.898
26834W        W99902  30.058   0.785   1.767
26835W        W99903  18.460  22.322  13.310
26836W        W99904   0.710  40.907  10.594
26837W        W99905  16.807   2.346  12.811
26838W        W99906   7.868  15.885   0.743
26839W        W99907  11.064  35.985   0.029
26840W        W99908  43.089  40.418   4.206
26841W        W99909  40.182   8.225  13.307
26842W        W99910  12.159  37.969  14.507
26843W        W99911  25.045  25.452   1.340
26844W        W99912  37.048  14.270   0.748
26845W        W99913  14.904  30.432  12.118
26846W        W99914   2.146  19.553  11.055
26847W        W99915   9.790  30.021   2.450
26848W        W99916  36.399  40.584   5.074
26849W        W99917   3.250  32.895   1.392
26850W        W99918  32.237  32.548   3.698
26851W        W99919   2.233  22.087  14.145
26852W        W99920  20.399  24.702   3.338
26853W        W99921  19.742  31.984   2.802
26854W        W99922  34.395  29.679  13.289
26855W        W99923  12.995   4.773  11.601
26856W        W99924  39.722  11.835  10.668
26857W        W99925  31.445  39.101  14.964
26858W        W99926  11.671   2.294  13.873
26859W        W99927  25.245   6.910  13.042
26860W        W99928  32.141  28.048   3.629
26861W        W99929  30.623  11.173  11.130
26862W        W99930  37.923  12.707  14.489
26863W        W99931  41.079  36.542  11.833
26864W        W99932   7.872  20.452   2.657
26865W        W99933  31.653  19.130  10.665
26866W        W99934  41.906  31.181  13.373
26867W        W99935  44.445  21.006   0.987
26868W        W99936  13.712  26.136   4.059
26869W        W99937  29.756  37.963  11.956
26870W        W99938  10.114  25.265  14.764
26871W        W99939  24.188   4.327  13.479
26872W        W99940  17.037  29.985   2.876
26873W        W99941   1.456  36.910  14.929
26874W        W99942  40.355  19.767   3.372
26875W        W99943  32.927  31.697  13.431
26876W        W99944  31.950  10.235  13.501
26877W        W99945  18.826   1.907  11.963
26878W        W99946  18.768  14.148  14.224
26879W        W99947   7.661   0.268  10.776
26880W        W99948  26.478  29.997   1.149
26881W        W99949  30.362   9.387  13.907
26882W        W99950  29.454   1.471   2.378
26883W        W99951  20.788  23.968   3.812
26884W        W99952  38.520  10.458  12.582
26885W        W99953  43.812  38.273   4.804
26886W        W99954   2.791  21.014   4.170
26887W        W99955   5.728  37.715  12.741
26888W        W99956  36.123  19.318   3.203
26889W        W99957  30.686  39.105   2.201
26890W        W99958   2.266  27.383   0.921
26891W        W99959  39.962  43.210   2.878
26892W        W99960   9.584  43.736  13.315
26893W        W99961  39.531  44.016  12.921
26894W        W99962  35.416  37.355   4.407
26895W        W99963   6.094  27.858   3.717
26896W        W99964  18.589  31.634  10.828
26897W        W99965  14.741  15.261  12.982
26898W        W99966  16.790  16.759  14.311
26899W        W99967  24.280   6.284   4.606
26900W        W99968  13.606   7.222  11.676
26901W        W99969  25.240   4.253  11.392
26902W        W99970  44.306  22.825  12.313
26903W        W99971  15.162  17.654   3.236
26904W        W99972  20.693   0.981   0.242
26905W        W99973  11.404  34.547  12.535
26906W        W99974  41.400  21.364  10.246
26907W        W99975  35.231  17.255   3.203
26908W        W99976  15.735  28.273   5.050
26909W        W99977  11.324  37.182   1.311
26910W        W99978  43.742  14.099   3.650
26911W        W99979   1.352  22.559  14.156
26912W        W99980  38.318  14.775  11.712
26913W        W99981  18.441  21.791  14.091
26914W        W99982  14.442  29.477  14.261
26915W        W99983   4.301  18.699   4.318
26916W        W99984  31.115  35.940   4.309
26917W        W99985  17.038   0.934  14.524
26918W        W99986  36.068   5.669  14.007
26919W        W99987  20.811  27.481  10.897
26920W        W99988  11.828  27.527  14.908
26921W        W99989  14.777   8.976   2.714
26922W        W99990   1.069   1.660   5.030
26923W        W99991  30.646  20.334  14.437
26924W        W99992   2.709  22.675   0.254
26925W        W99993  29.922  41.116   3.692
26926W        W99994  32.441   1.658   0.745
26927W        W99995   3.473  17.306  13.386
26928W        W99996   1.449  39.777  14.467
26929W        W99997  42.309  16.643  10.437
26930W        W99998  16.620  41.151  13.098
26931W        W99999   0.832  20.280  12.089
26932W        W    0  24.319  32.599  12.925
26933W        W    1  23.544  14.247  13.834
26934W        W    2  25.436   5.330   3.657
26935W        W    3  17.020  11.768   4.575
26936W        W    4  40.593  44.280   3.582
26937W        W    5  13.853  38.542   0.268
26938W        W    6  43.028  43.847   0.251
26939W        W    7  23.568  25.386  10.969
26940W        W    8  38.033  39.335  14.274
26941W        W    9  29.493  19.093  14.912
26942W        W   10  41.197  42.820  14.558
26943W        W   11  23.961   1.512   1.310
26944W        W   12  17.627  18.069   4.745
26945W        W   13   3.973  18.219   0.443
26946W        W   14  10.239   6.180   1.265
26947W        W   15   2.879  22.176   1.500
26948W        W   16  21.708   2.447   2.794
26949W        W   17   4.438  25.605  10.702
26950W        W   18  43.396  37.115  13.098
26951W        W   19  18.315  11.402  14.194
26952W        W   20  11.155   0.226  10.691
26953W        W   21   1.120  35.961   1.775
26954W        W   22  28.207   4.312  14.387
26955W        W   23  21.711  23.659   0.027
26956W        W   24  13.346  42.249   3.642
26957W        W   25   0.320  42.011  13.825
26958W        W   26  16.096   0.559   1.859
26959W        W   27  19.169  19.293  14.454
26960W        W   28  12.303  13.240   3.255
26961W        W   29  28.576  34.512   1.361
26962W        W   30  18.792  40.425  12.742
26963W        W   31  41.355   0.323  12.983
26964W        W   32  19.758  20.080  12.473
26965W        W   33   8.209  24.594  10.924
26966W        W   34  35.938  30.143  13.434
26967W        W   35  25.655  21.111   1.313
26968W        W   36  29.459  23.318   4.864
26969W        W   37  25.204  16.320  11.538
26970W        W   38  16.097   1.940  12.351
26971W        W   39  29.012  36.116  13.873
26972W        W   40  11.092  34.639   0.847
26973W        W   41   5.255  10.597  13.884
26974W        W   42  31.369  36.513   3.089
26975W        W   43  38.784  23.660   1.741
26976W        W   44  18.656  21.123  10.604
26977W        W   45   4.459  17.963   4.655
26978W        W   46  38.740  42.743   2.352
26979W        W   47  36.101  38.268   4.282
26980W        W   48  40.160  35.352  12.422
26981W        W   49  30.952  43.291  12.987
26982W        W   50  30.634   1.323  13.393
26983W        W   51   6.329  37.997   4.178
26984W        W   52  12.029  14.809   0.535
26985W        W   53  41.964  40.876   3.583
26986W        W   54   5.916  29.994   1.884
26987W        W   55  43.372  15.082  13.321
26988W        W   56  37.997   2.426   0.302
26989W        W   57  26.656  19.233  13.908
26990W        W   58  17.035   0.869  12.471
26991W        W   59  33.543  19.194  13.531
26992W        W   60   4.606  26.757   1.707
26993W        W   61  15.283  35.846  11.641
26994W        W   62  16.851  39.559   1.924
26995W        W   63  26.020  36.851   3.652
26996W        W   64   1.186  12.732  12.269
26997W        W   65  40.422  15.351   0.426
26998W        W   66  26.514  41.221  11.629
26999W        W   67  16.226   5.651   1.432
27000W        W   68  18.540  26.785   3.555
27001W        W   69  28.476  33.481   0.187
27002W        W   70  34.017  35.004   3.438
27003W        W   71  33.171  28.534   3.723
27004W        W   72  41.363  18.044   2.447
27005W        W   73  38.160  35.402   1.582
27006W        W   74  41.594  37.326   3.751
27007W        W   75  36.050  12.269  12.130
27008W        W   76  43.993   0.001  11.572
27009W        W   77  43.498   4.166  10.619
27010W        W   78   3.983  43.021  11.989
27011W        W   79   6.480  35.523  11.921
27012W        W   80  12.692   6.202   3.460
27013W        W   81  11.262  40.324   2.227
27014W        W   82   9.684  18.187  10.040
27015W        W   83  18.014   2.878   1.896
27016W        W   84  38.028  41.964  11.197
27017W        W   85  38.548  12.371  10.703
27018W        W   86  12.099  28.025   0.792
27019W        W   87  11.811   8.633   2.918
27020W        W   88  19.908  16.058  14.921
27021W        W   89  40.989  22.004   3.212
27022W        W   90   7.783  23.824  13.427
27023W        W   91  36.820  23.257  14.801
27024W        W   92  11.842  22.446  11.265
27025W        W   93  32.638  12.343  12.551
27026W        W   94  16.566  15.798   1.228
27027W        W   95  33.029   3.996  11.555
27028W        W   96  36.990  42.484  14.796
27029W        W   97  32.332  28.470   3.347
27030W        W   98   2.723  31.397  13.062
27031W        W   99   0.206  25.580   4.274
27032W        W  100  25.612   3.462   4.518
27033W        W  101  30.004  42.262  14.201
27034W        W  102  20.254  43.930  12.040
27035W        W  103  35.392  28.672   3.596
27036W        W  104  10.797   2.993   4.674
27037W        W  105  15.774  23.352  11.947
27038W        W  106  37.608  21.238   3.520
27039W        W  107  40.294  11.956   3.225
27040W        W  108  23.995  16.631   4.516
27041W        W  109  42.876  20.689   1.844
27042W        W  110   2.275  38.545  11.566
27043W        W  111  12.654   1.766  10.741
27044W        W  112  27.246  38.797  13.332
27045W        W  113  42.845   2.953  13.431
27046W        W  114   6.175  40.798  12.618
27047W        W  115  18.298  29.024   2.471
27048W        W  116   1.233   9.362  11.183
27049W        W  117  12.066  17.868   4.232
27050W        W  118  13.904   7.353  13.089
27051W        W  119  24.520  21.601  10.470
27052W        W  120  24.128  14.959  12.961
27053W        W  121   9.775   1.570   1.517
27054W        W  122  28.476   3.683   4.619
27055W        W  123   8.273   1.841   3.120
27056W        W  124  40.719  43.528   1.339
27057W        W  125  22.755   0.905  11.012
27058W        W  126   0.772  32.341  12.535
27059W        W  127  19.212   3.013  11.667
27060W        W  128  36.058  21.751  12.949
27061W        W  129  14.688  29.685  10.659
27062W        W  130  30.236  36.387  11.005
27063W        W  131  28.125  14.130  13.289
27064W        W  132  25.489  44.705  10.707
27065W        W  133  32.829  16.825   3.234
27066W        W  134  19.182  40.043   2.710
27067W        W  135  39.945   9.420  12.425
27068W        W  136   2.965   1.066   2.691
27069W        W  137  24.808   2.247  13.180
27070W        W  138  14.639  10.969   3.006
27071W        W  139   1.880  21.560   4.533
27072W        W  140  35.954   4.416   4.107
27073W        W  141  27.486  39.736   3.705
27074W        W  142  36.624   6.984  11.141
27075W        W  143  41.968  20.241  10.757
27076W        W  144   0.905  13.089   2.341
27077W        W  145  28.465  23.850  12.452
27078W        W  146   5.515  14.205   2.576
27079W        W  147   5.486  33.124  10.598
27080W        W  148   2.414  41.503  11.759
27081W        W  149  10.550  30.569   4.772
27082W        W  150  18.080  37.679   2.484
27083W        W  151   1.497  17.072   1.226
27084W        W  152  38.094  33.525   1.851
27085W        W  153  26.536  18.960   1.972
27086W        W  154  24.193  21.764   1.019
27087W        W  155  15.315  12.173   3.998
27088W        W  156  35.173  40.905  12.153
27089W        W  157  31.119  15.368   1.841
27090W        W  158  13.646   9.738  14.522
27091W        W  159  25.577  35.642   0.054
27092W        W  160  29.830  34.158  12.877
27093W        W  161   5.755  32.237  12.520
27094W        W  162   6.007   2.787  12.386
27095W        W  163  37.855  41.785   0.662
27096W        W  164   9.405   8.867   2.753
27097W        W  165  41.272   7.835  11.580
27098W        W  166  33.649  43.366  11.728
27099W        W  167  18.165  11.290  10.654
27100W        W  168   7.866  24.199  10.960
27101W        W  169  15.614   5.139  10.573
27102W        W  170  25.226   6.641   1.308
27103W        W  171   5.985   6.695  12.529
27104W        W  172  31.452  40.793   3.263
27105W        W  173   5.895  40.319  10.643
27106W        W  174  41.278  13.253  12.909
27107W        W  175   7.084  17.590  14.631
27108W        W  176  38.156   8.872  11.149
27109W        W  177  31.587  39.365   0.861
27110W        W  178  28.187  11.210  12.517
27111W        W  179  19.664  40.277   2.811
27112W        W  180  32.577   9.973   2.732
27113W        W  181  14.589  10.816   2.539
27114W        W  182  41.661  42.100  14.999
27115W        W  183  31.574   2.157   4.806
27116W        W  184  36.024  13.227  12.589
27117W        W  185  16.705  33.950   3.064
27118W        W  186  24.083  22.964  12.796
27119W        W  187  35.905  31.221  11.547
27120W        W  188  15.931  25.384   4.712
27121W        W  189   6.353  12.225  11.755
27122W        W  190  19.191  22.127   3.982
27123W        W  191  11.667  40.115  11.846
27124W        W  192  14.798   8.894  12.429
27125W        W  193  22.657   3.288   1.307
27126W        W  194  22.169  17.626   1.173
27127W        W  195   3.699  37.080  11.488
27128W        W  196  10.637  30.856  13.805
27129W        W  197  44.819   7.192  10.640
27130W        W  198   8.292  40.460   2.386
27131W        W  199  16.316   7.451   3.724
27132W        W  200   9.170  35.591   3.124
27133W        W  201  23.552   3.394   3.554
27134W        W  202  26.468  10.203   2.694
27135W        W  203  29.467  25.631  12.192
27136W        W  204  27.411  33.783  10.435
27137W        W  205  22.445  30.165   1.854
27138W        W  206   2.885  18.965  13.811
27139W        W  207  30.959  29.335  11.865
27140W        W  208   0.812   3.712  10.210
27141W        W  209  14.121  13.269   0.882
27142W        W  210  22.051  27.226   0.696
27143W        W  211  42.927  41.433  11.652
27144W        W  212  42.712  18.085  11.542
27145W        W  213   3.433  28.364  12.366
27146W        W  214  33.150   1.411  14.397
27147W        W  215  36.048  31.036  14.472
27148W        W  216  40.299  12.806   1.132
27149W        W  217  44.552   7.256  14.782
27150W        W  218  23.600  42.909  14.580
27151W        W  219   9.710   1.218   1.122
27152W        W  220  39.733  32.977  11.127
27153W        W  221  24.814  35.004   3.624
27154W        W  222  30.712   4.354   1.358
27155W        W  223  44.240  39.863   4.655
27156W        W  224  25.438  43.959  12.804
27157W        W  225  38.213  21.167   2.730
27158W        W  226  22.318   2.892   1.204
27159W        W  227  39.259   7.182   0.404
27160W        W  228  15.084  29.456   4.278
27161W        W  229   8.944  12.914  13.324
27162W        W  230  33.790  14.583   4.659
27163W        W  231  36.882   3.356   1.961
27164W        W  232   9.299  35.986   2.291
27165W        W  233  36.096  25.914   4.532
27166W        W  234  32.621   0.907   3.327
27167W        W  235   0.800  25.248   4.958
27168W        W  236  16.534  15.273   4.653
27169W        W  237  21.074  32.578   1.325
27170W        W  238  43.365  30.805   3.737
27171W        W  239   0.130  15.421  12.117
27172W        W  240  22.450  36.025   3.157
27173W        W  241  18.226   3.802   4.312
27174W        W  242  28.636  12.311  14.327
27175W        W  243  41.375  33.809   0.308
27176W        W  244  39.110  30.139   0.423
27177W        W  245  41.791   2.271  14.995
27178W        W  246  31.190   8.792   4.998
27179W        W  247  24.670  36.704   4.998
27180W        W  248  34.120   9.879   1.857
27181W        W  249  31.639   2.211  12.439
27182W        W  250  35.859   2.318   1.464
27183W        W  251   2.531  42.970   1.171
27184W        W  252  31.119  23.575  13.487
27185W        W  253   8.350  24.173   2.987
27186W        W  254  23.159  20.862  13.400
27187W        W  255  14.594  32.154   4.044
27188W        W  256  30.257  18.178  14.859
27189W        W  257  29.060  34.152   4.830
27190W        W  258  33.591  24.711  12.423
27191W        W  259  12.094  39.851  13.485
27192W        W  260  33.008  28.607  14.765
27193W        W  261  23.343  16.609   5.125
27194W        W  262  13.604   2.743   0.934
27195W        W  263  43.032  15.202   1.439
27196W        W  264  33.817  17.431  13.931
27197W        W  265  36.509  23.639  14.251
27198W        W  266  34.087  10.984   3.224
27199W        W  267  19.581  29.048   4.722
27200W        W  268  31.660  18.039  11.453
27201W        W  269   1.160  41.773   2.347
27202W        W  270  18.736  23.661  14.165
27203W        W  271  35.373  43.114  12.195
27204W        W  272  13.227  11.907   4.914
27205W        W  273   4.962  29.873  14.364
27206W        W  274  25.458  21.179  13.947
27207W        W  275  11.192   2.481  13.042
27208W        W  276  30.598  17.181  11.142
27209W        W  277  19.073  31.218   1.282
27210W        W  278  33.927  23.469  11.520
27211W        W  279  26.856   2.695   2.871
27212W        W  280  14.056   8.043   0.292
27213W        W  281  39.265   1.233   1.240
27214W        W  282  35.401  40.028   1.456
27215W        W  283   0.273  15.175   3.576
27216W        W  284   2.014  16.703   0.682
27217W        W  285  10.936  40.691  10.237
27218W        W  286  22.275  29.124  14.738
27219W        W  287  36.133  37.056   2.424
27220W        W  288  22.208  27.784   1.960
27221W        W  289   9.155  40.991  12.052
27222W        W  290  44.098   3.937  12.996
27223W        W  291  15.612  30.984  12.896
27224W        W  292  26.620  43.256   0.733
27225W        W  293  26.068  30.869   3.329
27226W        W  294  31.410  21.937   4.617
27227W        W  295  13.070  32.108  10.635
27228W        W  296  19.241   5.681  10.582
27229W        W  297  43.724  43.916  11.595
27230W        W  298  33.926  44.808  13.847
27231W        W  299  40.793   1.919   0.477
27232W        W  300   9.246  26.205   2.686
27233W        W  301  43.484  41.965   2.732
27234W        W  302  36.968   4.008   2.210
27235W        W  303  29.025   9.680  13.021
27236W        W  304  41.966  42.074  12.346
27237W        W  305  40.996  15.878  14.887
27238W        W  306  26.349   9.107  11.171
27239W        W  307  35.184  35.436  13.540
27240W        W  308  37.594  38.919   3.965
27241W        W  309  30.425  23.243  10.715
27242W        W  310  29.695  24.029   1.569
27243W        W  311  27.673   3.470  13.961
27244W        W  312  30.589  41.534   1.251
27245W        W  313  40.534   4.673   4.625
27246W        W  314  25.425  19.343   2.760
27247W        W  315  16.681  24.591  12.885
27248W        W  316  32.409  18.580  11.532
27249W        W  317  17.523   0.901  12.342
27250W        W  318   4.884  10.822   1.901
27251W        W  319  23.887   6.060  11.052
27252W        W  320   0.748  38.268   2.099
27253W        W  321  21.574  34.032  14.046
27254W        W  322  24.099  32.626   4.352
27255W        W  323  39.458   1.285  12.106
27256W        W  324  25.079  11.029   3.690
27257W        W  325  42.815   4.614  11.435
27258W        W  326  32.884  42.787  11.571
27259W        W  327   0.436   8.926   3.427
27260W        W  328  18.526  21.484   2.695
27261W        W  329  26.372  42.272   2.391
27262W        W  330  26.928  23.664   2.797
27263W        W  331  42.562  10.208  11.921
27264W        W  332   0.817  28.157  12.555
27265W        W  333  22.155  37.103  11.667
27266W        W  334  15.883  25.525   0.743
27267W        W  335  30.186  10.285   4.250
27268W        W  336  44.304  26.432  11.116
27269W        W  337  40.677  15.146   4.694
27270W        W  338  29.606   1.146   1.094
27271W        W  339  22.194  18.269  12.014
27272W        W  340  22.825  21.702   0.077
27273W        W  341  28.376  44.789   2.932
27274W        W  342   6.225  12.002  12.614
27275W        W  343  27.025   2.265   2.094
27276W        W  344  35.194  12.261   1.460
27277W        W  345   3.543  16.296   4.205
27278W        W  346  22.251   1.925   3.705
27279W        W  347  20.084   8.507   0.693
27280W        W  348  36.580   2.349   1.844
27281W        W  349  26.708  44.451   3.826
27282W        W  350  44.793  29.004   4.717
27283W        W  351  27.280   7.124   0.398
27284W        W  352  31.144  30.806   3.715
27285W        W  353  34.571  42.428   3.317
27286W        W  354  36.175  39.677   1.473
27287W        W  355  27.515  26.255   2.372
27288W        W  356  27.555  26.113  13.867
27289W        W  357  34.849  40.509  12.323
27290W        W  358  27.531  17.851  13.882
27291W        W  359  27.453  42.773   3.515
27292W        W  360  20.641  33.437   1.371
27293W        W  361  39.371  26.672   0.289
27294W        W  362  39.886  16.390   1.650
27295W        W  363   9.807   4.868   4.041
27296W        W  364  38.548  40.950  14.256
27297W        W  365  22.169  11.200  12.917
27298W        W  366  37.507  26.390   2.404
27299W        W  367  35.144  43.855  10.986
27300W        W  368  21.959  26.291  13.076
27301W        W  369   8.417  10.061  12.901
27302W        W  370   6.754  37.006   0.962
27303W        W  371  28.079   0.002  13.874
27304W        W  372  43.743   7.094  13.260
27305W        W  373  18.066  44.466   0.196
27306W        W  374  31.283  26.065  10.588
27307W        W  375  16.167  28.160  14.120
27308W        W  376  33.391  32.387  10.764
27309W        W  377  35.576  44.251  14.316
27310W        W  378  22.657  20.715  10.957
27311W        W  379  37.111  34.605  13.539
27312W        W  380  31.814   1.751  14.936
27313W        W  381  21.627  17.329   2.651
27314W        W  382  34.823  42.514  13.483
27315W        W  383  11.156  44.466  10.083
27316W        W  384  33.600  37.495   0.277
27317W        W  385  40.361  38.266   3.344
27318W        W  386  16.417  17.518  12.664
27319W        W  387  12.164  25.059   0.726
27320W        W  388  15.829  41.338   3.156
27321W        W  389  13.842   0.807   3.247
27322W        W  390  40.294  44.368   2.276
27323W        W  391   3.306   8.397  12.652
27324W        W  392   6.825  39.967   4.350
27325W        W  393  33.136  28.036   1.726
27326W        W  394   4.684  44.250   3.335
27327W        W  395   3.223  16.491   1.277
27328W        W  396  23.486  15.446  12.546
27329W        W  397   5.371  31.695  12.158
27330W        W  398  14.788   3.287   1.344
27331W        W  399  13.731  25.263  13.343
27332W        W  400  44.272  15.611  11.805
27333W        W  401  41.685  18.832  14.359
27334W        W  402  30.118  36.039   3.906
27335W        W  403   6.798  34.398   3.067
27336W        W  404   7.675   9.223   0.950
27337W        W  405  18.312   1.929  11.992
27338W        W  406  18.627  43.885  14.797
27339W        W  407  31.859  38.783   3.259
27340W        W  408   7.183  42.202  14.961
27341W        W  409  41.738   9.436  10.758
27342W        W  410  40.737  23.491   1.926
27343W        W  411  44.959   0.319   2.645
27344W        W  412  40.019  28.018   0.552
27345W        W  413  32.575  17.703  12.381
27346W        W  414  28.531  41.925  12.999
27347W        W  415  18.345  43.942   1.821
27348W        W  416   2.636  22.659   0.775
27349W        W  417  19.598  35.580  10.662
27350W        W  418  18.277  37.393   4.455
27351W        W  419  39.087  29.956  10.751
27352W        W  420  30.085  19.485   2.915
27353W        W  421   0.515  13.649  12.028
27354W        W  422   9.152   7.854   0.001
27355W        W  423   4.296  34.782  12.242
27356W        W  424   6.452  26.914  14.973
27357W        W  425  27.606  17.654  12.376
27358W        W  426   8.954   2.806  13.200
27359W        W  427  18.045  44.115  10.727
27360W        W  428   9.805  25.287  13.833
27361W        W  429  29.952  20.606   2.846
27362W        W  430  33.887  23.746   2.128
27363W        W  431  27.732  39.159  12.867
27364W        W  432  15.724  10.154  11.657
27365W        W  433  42.357  40.325   2.167
27366W        W  434  10.657  44.102  13.769
27367W        W  435  36.334  34.655   3.739
27368W        W  436  39.130  30.128   3.252
27369W        W  437  40.752   1.788  14.059
27370W        W  438  37.430  28.183  13.505
27371W        W  439  30.667  25.579  14.027
27372W        W  440  37.860  11.599   3.300
27373W        W  441   3.412  10.897   4.161
27374W        W  442  40.139  40.798   3.298
27375W        W  443   3.908   5.944  12.465
27376W        W  444  44.788  22.161  14.525
27377W        W  445  35.372  21.426   3.602
27378W        W  446  44.912  29.666  13.854
27379W        W  447   0.981  41.365  11.548
27380W        W  448  36.327  23.577   2.257
27381W        W  449  38.364  41.857   1.986
27382W        W  450  41.113  31.475   1.290
27383W        W  451  15.739  36.559  10.641
27384W        W  452  25.460  17.320   0.869
27385W        W  453  15.199  32.118  13.326
27386W        W  454  32.116  38.650   3.700
27387W        W  455  32.309  42.779   0.455
27388W        W  456  41.259  28.892  12.070
27389W        W  457   8.062  10.835  13.373
27390W        W  458  12.287  10.369   1.480
27391W        W  459  17.729  29.991   3.242
27392W        W  460   8.428   2.852   3.328
27393W        W  461  28.547  21.657   4.933
27394W        W  462  26.394  16.071  11.138
27395W        W  463  23.601   3.467  13.301
27396W        W  464   6.078  31.421   1.773
27397W        W  465  25.179  12.727   4.370
27398W        W  466  12.433  26.883   3.715
27399W        W  467  36.052  20.139  11.089
27400W        W  468  40.514  17.953  12.516
27401W        W  469   9.890   0.400   0.409
27402W        W  470  44.886  22.035   4.441
27403W        W  471   5.053  10.920   4.121
27404W        W  472  35.912  27.176  10.491
27405W        W  473   9.392  35.842   4.602
27406W        W  474  36.355  23.148  11.643
27407W        W  475  18.465   0.424   4.159
27408W        W  476  27.905  38.069   0.221
27409W        W  477  38.606   4.989  10.228
27410W        W  478  41.478  11.457  11.231
27411W        W  479  31.932  35.931  14.837
27412W        W  480  35.478  16.011   2.806
27413W        W  481   0.521  18.522  10.388
27414W        W  482  15.057  36.464  13.485
27415W        W  483  23.750  28.358  11.219
27416W        W  484  27.616  21.714  13.339
27417W        W  485  35.656  17.174  13.354
27418W        W  486  27.001  36.899  12.003
27419W        W  487  11.082  16.681   4.601
27420W        W  488  13.436   1.552  11.579
27421W        W  489   0.101   2.906  11.981
27422W        W  490  20.236  14.903  12.981
27423W        W  491  30.659  40.041  11.956
27424W        W  492  38.972  20.093   4.372
27425W        W  493  25.179  28.000  10.656
27426W        W  494   2.273  43.671  14.892
27427W        W  495  14.243  15.543   0.887
27428W        W  496  40.038  42.527   0.796
27429W        W  497  38.539  24.580   1.354
27430W        W  498  39.424  24.722  14.837
27431W        W  499   5.332  29.472   1.194
27432W        W  500   3.274  23.248   4.667
27433W        W  501   0.468  24.695   0.279
27434W        W  502   2.351  17.851  10.894
27435W        W  503  40.724  39.455   0.663
27436W        W  504  41.072   4.190   3.544
27437W        W  505  23.030  28.297   3.738
27438W        W  506  31.136  24.886  14.289
27439W        W  507  14.276  38.346   0.770
27440W        W  508   7.063  28.448   2.139
27441W        W  509  42.389   8.901  14.577
27442W        W  510   7.375  32.142   4.919
27443W        W  511   0.796  29.950   4.743
27444W        W  512  40.384  26.161  13.458
27445W        W  513  32.316   7.564  14.901
27446W        W  514  30.710   0.002  11.893
27447W        W  515  11.293   0.548  14.914
27448W        W  516  30.190  11.377   0.903
27449W        W  517  24.692  35.882   0.607
27450W        W  518  27.747  19.738   1.803
27451W        W  519  40.514  29.157  14.985
27452W        W  520   5.456  10.821   1.212
27453W        W  521  43.069  38.110   3.030
27454W        W  522  30.405  27.980   4.173
27455W        W  523  43.366   5.923   4.139
27456W        W  524  34.346  22.260   0.559
27457W        W  525  24.223  22.032  12.094
27458W        W  526   2.487  39.499  14.910
27459W        W  527  20.288  14.077   1.876
27460W        W  528  19.164   4.294   3.813
27461W        W  529   2.402  10.804  12.388
27462W        W  530  39.799  28.096   3.275
27463W        W  531  36.753   0.260  12.813
27464W        W  532   4.442   8.845   2.379
27465W        W  533   9.953  21.202  14.853
27466W        W  534  34.030  18.386  12.284
27467W        W  535  14.629  23.206  10.914
27468W        W  536  22.970  43.267   0.538
27469W        W  537  21.202  25.243  14.335
27470W        W  538  25.702  25.935   0.832
27471W        W  539  28.920  41.548  14.772
27472W        W  540  16.130  10.660   1.369
27473W        W  541  14.057  28.676  13.621
27474W        W  542  38.879   5.784   0.486
27475W        W  543  11.848  31.117  14.035
27476W        W  544  17.057  25.478  11.539
27477W        W  545  38.871   5.880  12.683
27478W        W  546  41.291  10.252  10.765
27479W        W  547  24.144   9.664   1.383
27480W        W  548  39.059  13.407   4.999
27481W        W  549  13.197   0.189   2.670
27482W        W  550  18.661  15.362   4.109
27483W        W  551  18.669  28.210   0.708
27484W        W  552  41.326  31.854  13.478
27485W        W  553  22.665  25.743  11.584
27486W        W  554  39.011  41.742  10.739
27487W        W  555  30.359  39.561   4.237
27488W        W  556  34.590   5.804  10.348
27489W        W  557  15.558  16.112  12.449
27490W        W  558  19.438  17.330  12.931
27491W        W  559  24.995  35.231  13.468
27492W        W  560  27.727  34.475  12.156
27493W        W  561  26.445  11.536   2.432
27494W        W  562  42.959  11.435  14.327
27495W        W  563  19.124  16.764   3.908
27496W        W  564   5.903  34.854  11.092
27497W        W  565   6.227  18.097   2.681
27498W        W  566  17.712  33.971   3.359
27499W        W  567  30.861  29.537   0.478
27500W        W  568  44.760  29.153  13.916
27501W        W  569  30.153  40.819  12.361
27502W        W  570  39.421  24.543   1.296
27503W        W  571  21.188  30.979  10.618
27504W        W  572  17.381   7.168   2.181
27505W        W  573   3.969  42.345  13.401
27506W        W  574  10.213  35.835   1.070
27507W        W  575  16.024  32.642   0.398
27508W        W  576  12.315   5.703   4.621
27509W        W  577  31.066   1.592  13.408
27510W        W  578  17.085  21.710   0.788
27511W        W  579  43.218  41.299  10.649
27512W        W  580  12.149  28.192  11.652
27513W        W  581  31.138  14.150   4.754
27514W        W  582  37.178  29.485  12.400
27515W        W  583   7.486   0.726   5.269
27516W        W  584  23.659  21.332   3.381
27517W        W  585   8.410   8.652  13.908
27518W        W  586  37.656  20.641   2.278
27519W        W  587   9.717   6.723  13.853
27520W        W  588  24.392  14.637  14.918
27521W        W  589  20.559  20.005  11.998
27522W        W  590  37.271  43.105   0.742
27523W        W  591  16.070  34.676   0.917
27524W        W  592  42.485   3.884  14.348
27525W        W  593  31.548  44.887  13.827
27526W        W  594  36.425   9.463  12.093
27527W        W  595   7.749  15.134  13.925
27528W        W  596  39.031  41.961   4.262
27529W        W  597  21.955  15.676  10.590
27530W        W  598  39.098  27.124  10.447
27531W        W  599  26.070  23.535  14.551
27532W        W  600   5.341   9.302  12.568
27533W        W  601   1.845  28.514   2.206
27534W        W  602   2.866  24.589   1.138
27535W        W  603  35.913   6.668   3.650
27536W        W  604  21.205  12.472   3.361
27537W        W  605  38.320  32.061   3.280
27538W        W  606   7.226  20.185   4.516
27539W        W  607  18.084  37.310   2.117
27540W        W  608  21.787  25.645  11.565
27541W        W  609  40.529  42.379  12.000
27542W        W  610   4.425  42.020  14.393
27543W        W  611  32.630  21.159   3.821
27544W        W  612  31.560  21.083  12.081
27545W        W  613  26.637   7.754  14.231
27546W        W  614  18.358  39.921  11.403
27547W        W  615  27.535  12.605   5.137
27548W        W  616  28.492   1.979   1.119
27549W        W  617  14.756  33.033   2.209
27550W        W  618  36.210  29.624  13.906
27551W        W  619  34.463  38.773  11.129
27552W        W  620  26.978  37.530  12.958
27553W        W  621  32.060  41.970  14.957
27554W        W  622  42.372  13.614  12.861
27555W        W  623   0.572  20.149   1.349
27556W        W  624   5.769  39.238   3.713
27557W        W  625  23.198  10.223  12.868
27558W        W  626   8.319  31.715  14.355
27559W        W  627  34.856  35.029  14.221
27560W        W  628   0.903  39.084   0.244
27561W        W  629  35.140  14.013   0.859
27562W        W  630  24.011  41.391   5.310
27563W        W  631  28.589   1.137   1.023
27564W        W  632  28.062   4.432  13.898
27565W        W  633  41.577  11.212   4.732
27566W        W  634  28.734  21.611  13.548
27567W        W  635  21.178  21.803   2.647
27568W        W  636   4.989  21.307  10.391
27569W        W  637  42.734  41.871   3.241
27570W        W  638  38.156   6.383  10.707
27571W        W  639  12.128  43.470  14.129
27572W        W  640   8.941  36.405   0.584
27573W        W  641  22.551  13.530   3.132
27574W        W  642  30.454   0.339   2.856
27575W        W  643  25.960   2.341  10.700
27576W        W  644   0.870  18.511  13.521
27577W        W  645  12.840  13.813  13.232
27578W        W  646  28.619  11.453   0.305
27579W        W  647  30.337  41.927   0.419
27580W        W  648  35.233  11.140  11.078
27581W        W  649  42.452  42.261  12.229
27582W        W  650   9.627  16.113   1.464
27583W        W  651  13.408  13.908   2.776
27584W        W  652  24.675  31.606  11.144
27585W        W  653   1.435  10.696   3.809
27586W        W  654  18.609  21.675   2.199
27587W        W  655  32.163  11.609   3.765
27588W        W  656  25.104  19.161   1.223
27589W        W  657  24.031  12.822  13.861
27590W        W  658   8.144  28.650  13.330
27591W        W  659  28.604  13.784  14.587
27592W        W  660  10.429  17.798  12.941
27593W        W  661  20.155   7.177   4.532
27594W        W  662   3.939  16.838  11.935
27595W        W  663  21.214  43.820   1.984
27596W        W  664  22.750  31.983   3.825
27597W        W  665  23.567  38.881   9.901
27598W        W  666   0.632  42.685  10.025
27599W        W  667  25.082  19.400   4.094
27600W        W  668  18.148  40.883  12.279
27601W        W  669  17.129  31.116  13.991
27602W        W  670   5.895  10.652  12.007
27603W        W  671   0.936  24.659   4.592
27604W        W  672   1.944  35.985  14.890
27605W        W  673   0.863  39.344  11.617
27606W        W  674   1.819   6.026  12.497
27607W        W  675   3.170  31.623  11.355
27608W        W  676  34.876  31.226  11.329
27609W        W  677   7.418   6.415   0.443
27610W        W  678   9.584  23.060  13.436
27611W        W  679  41.996  33.506   2.306
27612W        W  680   4.742   0.968   4.071
27613W        W  681  33.557  26.088   4.381
27614W        W  682  22.397  44.555  11.131
27615W        W  683  39.794  16.317  11.174
27616W        W  684  23.017  22.165   1.263
27617W        W  685  13.321  42.937  10.656
27618W        W  686   7.382   0.210  11.300
27619W        W  687  26.976  10.189  11.547
27620W        W  688  12.251  24.055  14.105
27621W        W  689  25.573  29.167   3.330
27622W        W  690   4.996  12.758   0.013
27623W        W  691   8.661  11.568   3.986
27624W        W  692  43.920  26.603  13.549
27625W        W  693   2.219   0.104   3.316
27626W        W  694  20.070   6.862   0.898
27627W        W  695  22.712  18.817   1.272
27628W        W  696   4.499  34.906  13.355
27629W        W  697   0.984  19.600  12.341
27630W        W  698  39.801  16.665   4.811
27631W        W  699  29.508  14.713   3.839
27632W        W  700  40.039  35.068   4.445
27633W        W  701  11.255   7.891   1.933
27634W        W  702   2.506  14.211  14.200
27635W        W  703   0.338  27.514   0.766
27636W        W  704   2.457  11.130   0.874
27637W        W  705  18.879  28.973  11.541
27638W        W  706  29.729  44.531  12.952
27639W        W  707  38.064  27.432  11.968
27640W        W  708  26.734  21.691   1.747
27641W        W  709   3.680  11.236   2.319
27642W        W  710  41.644  30.194   0.499
27643W        W  711  10.165  37.054   2.888
27644W        W  712   3.372   0.322   4.534
27645W        W  713  12.114  37.719  12.081
27646W        W  714   4.174  37.550  11.026
27647W        W  715  30.659  43.587   2.635
27648W        W  716  17.119  13.799  13.080
27649W        W  717   1.432  43.484  12.850
27650W        W  718  10.364  27.478   4.601
27651W        W  719  10.461  32.329  11.790
27652W        W  720   0.982   0.997   4.248
27653W        W  721  18.905  38.574  13.865
27654W        W  722   0.073  24.918  10.670
27655W        W  723  43.486  15.963   0.207
27656W        W  724  29.428  23.704   3.629
27657W        W  725  39.504  28.938  12.340
27658W        W  726  37.865   6.620   1.279
27659W        W  727  28.295  18.458  14.886
27660W        W  728   7.625   3.549   4.710
27661W        W  729   7.147  43.498  14.472
27662W        W  730   4.741   8.246  11.944
27663W        W  731   9.199  32.487   2.257
27664W        W  732  43.767  21.280  11.136
27665W        W  733  34.657   0.995  13.532
27666W        W  734  15.554   2.298  13.204
27667W        W  735  16.397  17.290  13.546
27668W        W  736  21.985  25.261   4.576
27669W        W  737  11.476   6.682  13.453
27670W        W  738  34.613  17.711   4.591
27671W        W  739  14.869  22.095  10.745
27672W        W  740  17.038  18.154  13.876
27673W        W  741   6.451  38.591   2.370
27674W        W  742  26.979  30.193  12.415
27675W        W  743  22.625  22.837   4.955
27676W        W  744  27.410   6.256  13.013
27677W        W  745  39.357  11.100  12.284
27678W        W  746  33.533  14.434  12.217
27679W        W  747   5.851   4.032   4.276
27680W        W  748   1.360  41.198   2.705
27681W        W  749   1.433  34.581   4.885
27682W        W  750  11.767   5.629   1.414
27683W        W  751  35.357   6.773  13.353
27684W        W  752  19.635  27.574   1.806
27685W        W  753  15.835  21.181  13.036
27686W        W  754  17.344  10.162  13.619
27687W        W  755  26.189   8.424  13.620
27688W        W  756  10.750  19.978  14.074
27689W        W  757   3.830  38.997  11.632
27690W        W  758  15.902  29.379   4.545
27691W        W  759  33.951  35.099   1.973
27692W        W  760   6.475  22.758  12.316
27693W        W  761  10.506   7.193   3.699
27694W        W  762  35.904   0.333   2.402
27695W        W  763  32.965   5.488   3.660
27696W        W  764   2.154  18.826   4.709
27697W        W  765  13.870  36.116   4.928
27698W        W  766  35.824  24.143  12.858
27699W        W  767   2.456  44.205  13.919
27700W        W  768  29.388  21.129   3.612
27701W        W  769  28.478   5.684  12.502
27702W        W  770  30.949  22.735  14.966
27703W        W  771   8.126  18.569   2.214
27704W        W  772   5.237  25.602   2.032
27705W        W  773   9.717  42.523  10.615
27706W        W  774  35.336   0.381  11.866
27707W        W  775   3.236  25.126  14.039
27708W        W  776  41.464  11.983   2.690
27709W        W  777   5.996  37.110   4.859
27710W        W  778  14.525  19.955   3.218
27711W        W  779  29.442  34.137   2.267
27712W        W  780   0.028  43.328   4.706
27713W        W  781  19.566   9.776   0.949
27714W        W  782   0.313  22.137   4.714
27715W        W  783  23.077   5.245  11.046
27716W        W  784   5.642  33.261  11.536
27717W        W  785   6.706   7.156  11.091
27718W        W  786  22.649  26.443   0.855
27719W        W  787  21.481  30.167  12.542
27720W        W  788  37.032  12.141  11.599
27721W        W  789   7.742   0.282  11.638
27722W        W  790   8.866  18.508  13.528
27723W        W  791  32.592  32.596   3.178
27724W        W  792   4.910  11.131  13.116
27725W        W  793  42.007   1.929   0.837
27726W        W  794   0.420  14.139  14.819
27727W        W  795  18.585  42.986  12.519
27728W        W  796  43.902  30.957  12.850
27729W        W  797  44.910   9.512   2.485
27730W        W  798  12.749  43.429  14.500
27731W        W  799  20.285   4.233  10.398
27732W        W  800  38.843  10.215   0.183
27733W        W  801  36.483  20.213  13.599
27734W        W  802  19.949  39.171   4.110
27735W        W  803  10.424   8.361   0.960
27736W        W  804   3.180  36.981   2.611
27737W        W  805  31.212  27.553  14.369
27738W        W  806  11.030  32.359   4.744
27739W        W  807   4.739   4.420   2.289
27740W        W  808  31.537  17.847   0.430
27741W        W  809  34.263  11.993  11.936
27742W        W  810  15.162   3.792   0.923
27743W        W  811  34.658  22.903   4.678
27744W        W  812  26.718  43.349  12.994
27745W        W  813  32.544  16.357   2.849
27746W        W  814  23.119  42.969  13.349
27747W        W  815  33.629  24.706   1.998
27748W        W  816  42.506  28.375   3.603
27749W        W  817   8.920  10.348   0.127
27750W        W  818  31.518  26.173  11.983
27751W        W  819  15.246  37.050   4.239
27752W        W  820  40.461  15.210   3.430
27753W        W  821   8.699  16.174  10.697
27754W        W  822   1.416   7.411   3.845
27755W        W  823  24.161   0.275   3.306
27756W        W  824  39.548  37.323  14.509
27757W        W  825  22.477   5.437  11.108
27758W        W  826  18.318  44.306  14.761
27759W        W  827   4.913  37.015   4.384
27760W        W  828  26.010  19.697   5.092
27761W        W  829  11.557  37.345  10.115
27762W        W  830  37.325   6.018  13.520
27763W        W  831   2.713  44.042   2.860
27764W        W  832  33.383  26.102  14.888
27765W        W  833  12.667  18.285   1.821
27766W        W  834  24.142  21.985  13.100
27767W        W  835  33.094  43.968  11.274
27768W        W  836  25.408   9.658   1.715
27769W        W  837   7.892  11.835   0.471
27770W        W  838  44.172  18.567  13.684
27771W        W  839  24.532  37.090  14.035
27772W        W  840  13.733  26.343  13.347
27773W        W  841  29.844   0.702   1.227
27774W        W  842  27.428  15.650   3.502
27775W        W  843  23.699  11.342   1.649
27776W        W  844  26.388  24.108   0.221
27777W        W  845  29.552  35.949  10.180
27778W        W  846   2.889   1.670   0.420
27779W        W  847  27.684  31.426   1.738
27780W        W  848   3.827  21.566  11.031
27781W        W  849   1.003  41.804  12.584
27782W        W  850  11.088  25.208   1.740
27783W        W  851  15.561  19.219  10.670
27784W        W  852  13.772  14.149   5.140
27785W        W  853  28.300  16.083  14.332
27786W        W  854  20.239   2.421  10.648
27787W        W  855  23.911   5.707  10.669
27788W        W  856  41.348   1.503  12.089
27789W        W  857   7.369  23.228  14.997
27790W        W  858  31.131  21.092  13.568
27791W        W  859  32.535  34.575  10.352
27792W        W  860  12.267  16.071  13.719
27793W        W  861  40.483  43.420   3.043
27794W        W  862  13.889  40.240   3.787
27795W        W  863  33.923  13.702   3.761
27796W        W  864  43.740  18.262   2.376
27797W        W  865  34.625  37.626  10.975
27798W        W  866  39.731  16.231   3.161
27799W        W  867  18.239  13.429   4.677
27800W        W  868  13.077  21.854  11.984
27801W        W  869   8.608  33.878  14.802
27802W        W  870  41.717  22.532   2.809
27803W        W  871  10.172  11.179  14.090
27804W        W  872  10.434  27.202   3.928
27805W        W  873  31.048  40.898   2.950
27806W        W  874   2.476  13.771  12.572
27807W        W  875  30.106  28.370  12.975
27808W        W  876  25.642  44.736   3.623
27809W        W  877   0.087  43.567   1.044
27810W        W  878  22.683   4.933  11.134
27811W        W  879  38.772  44.289   3.774
27812W        W  880  35.834  41.428   3.623
27813W        W  881  28.352  12.714  14.525
27814W        W  882  15.349  10.151   1.397
27815W        W  883  18.069  23.179  13.494
27816W        W  884  42.021  26.114  14.784
27817W        W  885   4.951  31.906  14.355
27818W        W  886   7.274  29.993   4.608
27819W        W  887  12.411  14.284  13.529
27820W        W  888  41.565  24.651   4.175
27821W        W  889  42.437  33.954   4.329
27822W        W  890  13.152   5.981   0.875
27823W        W  891   2.010  41.776  11.579
27824W        W  892  18.204  39.934   4.451
27825W        W  893  28.008  11.924  11.172
27826W        W  894  43.143  28.695  14.339
27827W        W  895   8.485  24.006   3.942
27828W        W  896  23.441  40.595   0.862
27829W        W  897  28.411   2.046   2.130
27830W        W  898  23.033  12.726  12.017
27831W        W  899   6.458  28.741  12.026
27832W        W  900   2.556  23.608  12.492
27833W        W  901  29.408   1.870  13.570
27834W        W  902  19.113  36.163   3.766
27835W        W  903  35.437  22.755   3.314
27836W        W  904  42.818   5.762  14.885
27837W        W  905  24.440   4.903  11.603
27838W        W  906  15.395  32.881   3.178
27839W        W  907   9.961   9.908  13.462
27840W        W  908   9.574   1.998   0.716
27841W        W  909   9.213   3.494  11.969
27842W        W  910  44.043  16.245  12.432
27843W        W  911  41.639   4.838   0.463
27844W        W  912  21.799  42.476  13.166
27845W        W  913  37.074  27.793  10.892
27846W        W  914  28.138  32.548  12.426
27847W        W  915  11.869  14.126  11.019
27848W        W  916  19.806  43.014   4.418
27849W        W  917  27.518  21.429  10.364
27850W        W  918  32.878  12.467   2.127
27851W        W  919  23.477   4.269  14.902
27852W        W  920  16.527   1.526  13.418
27853W        W  921  11.611  17.403   3.405
27854W        W  922  43.535   3.389   3.287
27855W        W  923  15.401  30.498   3.265
27856W        W  924  27.520  17.255   0.743
27857W        W  925  18.656   9.305   0.854
27858W        W  926  22.467   6.357   0.708
27859W        W  927   3.480  20.926   1.244
27860W        W  928  20.270  44.978  13.814
27861W        W  929  21.135  29.881   1.165
27862W        W  930   9.163  14.576  12.086
27863W        W  931  35.940  16.054   2.113
27864W        W  932   6.167  39.035  12.809
27865W        W  933  19.189   5.938  14.742
27866W        W  934  43.091   9.704  13.334
27867W        W  935  36.467   3.149  13.902
27868W        W  936   4.114  38.504  11.471
27869W        W  937   4.397  43.830  13.956
27870W        W  938  15.276  26.696  13.952
27871W        W  939  23.259  14.560  13.523
27872W        W  940   8.317  37.129  10.987
27873W        W  941  38.794   4.409  12.101
27874W        W  942  39.932  25.263  14.246
27875W        W  943  15.927  22.695  12.599
27876W        W  944  44.072  27.127   4.250
27877W        W  945  12.774  37.352   0.316
27878W        W  946  42.260  33.646  11.960
27879W        W  947  42.238  28.958   1.929
27880W        W  948  24.658  14.830  14.304
27881W        W  949  21.143  23.720   2.349
27882W        W  950  43.861  32.618  14.968
27883W        W  951  24.466   6.374  12.130
27884W        W  952  20.428  28.301  13.614
27885W        W  953  22.744  36.395   4.187
27886W        W  954  20.150   5.501   3.133
27887W        W  955   1.346  11.960  13.753
27888W        W  956  33.276  41.819  10.265
27889W        W  957  16.574   8.366   1.826
27890W        W  958  26.968  13.344   3.598
27891W        W  959   8.751  43.766  12.264
27892W        W  960  10.622   8.699  12.694
27893W        W  961  29.920   7.831   0.420
27894W        W  962  26.656  32.672  11.548
27895W        W  963  38.554  10.683  13.063
27896W        W  964   1.061  41.060   0.669
27897W        W  965  11.148  31.521  14.988
27898W        W  966  36.921  24.305   0.806
27899W        W  967  29.165  28.393   1.764
27900W        W  968   8.909  43.353  12.633
27901W        W  969   3.919   2.303  10.372
27902W        W  970   6.834  38.604   3.934
27903W        W  971  36.423  41.338   0.905
27904W        W  972  30.405  11.596  12.908
27905W        W  973  20.997  35.447   3.754
27906W        W  974  40.475   1.522   0.364
27907W        W  975   2.532  17.500  11.272
27908W        W  976  18.750  22.890  13.010
27909W        W  977  37.629  14.717  14.850
27910W        W  978   6.727  42.423   0.164
27911W        W  979  16.044  19.415  11.399
27912W        W  980  23.713   4.720  14.778
27913W        W  981   6.802   0.401  13.118
27914W        W  982   9.718  18.384   2.168
27915W        W  983  38.107   2.933   3.879
27916W        W  984  38.905  33.975  12.999
27917W        W  985  36.568  15.285   0.384
27918W        W  986  13.524   7.844   1.365
27919W        W  987  16.009   7.932  12.085
27920W        W  988  30.645  29.458  13.408
27921W        W  989  44.925   3.476   4.687
27922W        W  990  24.519   0.776   2.430
27923W        W  991   7.848   7.659   0.793
27924W        W  992   8.412   7.688  12.043
27925W        W  993  30.950  10.594  13.405
27926W        W  994   5.086  27.746  12.169
27927W        W  995  22.872  44.913   0.469
27928W        W  996  24.657  34.076   2.135
27929W        W  997  24.675  16.583   2.539
27930W        W  998   4.020  32.908  12.982
27931W        W  999  34.269  34.346   1.342
27932W        W 1000  33.024  18.032   0.956
27933W        W 1001  14.800  32.536  13.139
27934W        W 1002   5.200  42.293  12.879
27935W        W 1003  23.178  37.952   2.804
27936W        W 1004  13.217  40.738  12.038
27937W        W 1005  28.003   4.406   3.245
27938W        W 1006   3.418  44.926  10.685
27939W        W 1007  30.123  42.323  13.441
27940W        W 1008   6.793  14.203   1.407
27941W        W 1009   0.568   7.255  11.138
27942W        W 1010  13.846  27.211  11.131
27943W        W 1011  12.295  17.793   2.395
27944W        W 1012  42.831  13.622   1.275
27945W        W 1013  28.060  16.978  12.221
27946W        W 1014  20.041  17.461   5.081
27947W        W 1015   0.052  35.947  11.624
27948W        W 1016  34.581  15.678  14.004
27949W        W 1017  12.668   6.445   4.889
27950W        W 1018  13.197  20.307  13.873
27951W        W 1019  37.823  22.636   1.239
27952W        W 1020  37.593  13.865   1.979
27953W        W 1021   6.827  36.674   4.588
27954W        W 1022  30.474  42.057  10.633
27955W        W 1023   9.746  39.346  13.509
27956W        W 1024  23.602  34.023  10.788
27957W        W 1025  39.926  13.157   4.083
27958W        W 1026  41.817  27.446   1.412
27959W        W 1027   3.001  36.496   4.789
27960W        W 1028   9.636  30.707  11.629
27961W        W 1029  15.402  22.592   0.410
27962W        W 1030  29.267  22.070  11.606
27963W        W 1031   0.661   3.401  14.459
27964W        W 1032  13.147   6.780  10.919
27965W        W 1033   3.790  27.204  14.451
27966W        W 1034  16.216  27.129  13.943
27967W        W 1035  19.235   4.936   1.218
27968W        W 1036   1.069  39.898  11.596
27969W        W 1037  11.275  27.495  14.393
27970W        W 1038  34.586  22.722  13.774
27971W        W 1039   9.636  26.602   1.263
27972W        W 1040  15.639  41.390  14.207
27973W        W 1041  43.507   7.844   1.201
27974W        W 1042  28.222  11.402   4.713
27975W        W 1043   7.717  23.723  11.534
27976W        W 1044  36.338  17.616  13.826
27977W        W 1045  38.758  24.366   3.377
27978W        W 1046  35.233  35.546   4.754
27979W        W 1047  17.506  37.816  12.253
27980W        W 1048  17.850   3.783  12.656
27981W        W 1049  25.036   5.986  13.389
27982W        W 1050  38.515  38.908  10.979
27983W        W 1051   8.664  27.175  13.460
27984W        W 1052  15.673  27.603  14.321
27985W        W 1053  44.980   3.905  12.177
27986W        W 1054  34.623   4.239  12.987
27987W        W 1055  26.517  16.743   4.499
27988W        W 1056  22.299  36.098   0.829
27989W        W 1057  16.151  14.530   4.212
27990W        W 1058  20.997  22.140  10.849
27991W        W 1059  43.281  27.154  11.077
27992W        W 1060   7.090   6.118  12.390
27993W        W 1061  30.570  38.281   1.002
27994W        W 1062  19.747  26.667   3.227
27995W        W 1063  18.589   4.912  10.699
27996W        W 1064  31.545   9.470  13.089
27997W        W 1065  12.684  33.298   0.418
27998W        W 1066  38.340   6.492   3.333
27999W        W 1067  31.606  27.222   3.573
28000W        W 1068  38.771  33.848  12.019
28001W        W 1069  19.627   2.321  11.371
28002W        W 1070  33.875  28.792  13.522
28003W        W 1071  34.600  14.201   3.716
28004W        W 1072  17.075  26.023   1.792
28005W        W 1073  14.167   5.308  14.158
28006W        W 1074  31.952  17.739   3.145
28007W        W 1075  30.625  23.845  11.380
28008W        W 1076   0.703   4.565  13.798
28009W        W 1077  24.769  13.377  12.569
28010W        W 1078  18.659   0.248  11.909
28011W        W 1079  41.029  27.673   1.775
28012W        W 1080  39.531  23.472   2.267
28013W        W 1081   5.767  23.251  13.329
28014W        W 1082  32.946  38.501  14.443
28015W        W 1083  20.391  21.489  10.906
28016W        W 1084  23.126  29.715  13.978
28017W        W 1085  14.841  20.706  11.581
28018W        W 1086  25.492   7.861  13.013
28019W        W 1087  16.025  43.877  12.131
28020W        W 1088   9.426  11.175  12.433
28021W        W 1089  31.162   1.873  11.649
28022W        W 1090   1.372   3.921  13.882
28023W        W 1091  35.441  15.116  14.258
28024W        W 1092  40.695  29.050   2.249
28025W        W 1093   1.530  21.531  10.653
28026W        W 1094  11.700  14.983   2.690
28027W        W 1095  24.539   8.918  10.658
28028W        W 1096  37.538   5.418  13.496
28029W        W 1097  41.899   3.112  14.665
28030W        W 1098  39.332  11.744  12.939
28031W        W 1099  15.810  40.364  12.053
28032W        W 1100  37.473  44.243  10.657
28033W        W 1101   9.817  42.813  11.012
28034W        W 1102  44.039  28.991   2.868
28035W        W 1103  23.528  29.651  10.762
28036W        W 1104  41.951  21.758  14.878
28037W        W 1105   9.961   0.730  13.944
28038W        W 1106  37.342   5.280  12.029
28039W        W 1107   8.291  20.696  13.426
28040W        W 1108  43.827  15.360   0.952
28041W        W 1109  42.950   0.541   1.340
28042W        W 1110  30.439  30.922   0.347
28043W        W 1111   3.165   8.738   5.378
28044W        W 1112  41.085  15.136  11.576
28045W        W 1113  29.102  35.437   1.808
28046W        W 1114  33.069  41.280   3.898
28047W        W 1115   9.042   7.172  13.258
28048W        W 1116   4.710   3.903   2.321
28049W        W 1117  19.743   1.462  11.845
28050W        W 1118  30.234   2.765  11.957
28051W        W 1119  15.993  44.954   3.859
28052W        W 1120   2.678   3.290  11.449
28053W        W 1121  29.399  22.659   2.302
28054W        W 1122   2.718   3.513   0.826
28055W        W 1123   7.202  41.695  13.507
28056W        W 1124   4.803  14.595   2.260
28057W        W 1125  29.501   6.649   1.692
28058W        W 1126  40.718  25.096   0.522
28059W        W 1127  44.281  31.722  11.973
28060W        W 1128  36.395  15.795   0.422
28061W        W 1129  25.644   1.589  10.729
28062W        W 1130   0.388  42.762   2.988
28063W        W 1131  18.821  13.201   3.757
28064W        W 1132  35.815  24.066  14.007
28065W        W 1133  17.830  26.435  12.612
28066W        W 1134   8.674  41.979  12.532
28067W        W 1135  13.181  19.517   2.806
28068W        W 1136  23.966  32.631   1.349
28069W        W 1137   2.943   9.711   0.704
28070W        W 1138  27.994   1.511   3.106
28071W        W 1139  35.979  35.055   3.839
28072W        W 1140   3.769  27.103   3.346
28073W        W 1141   5.164  30.620   0.914
28074W        W 1142  39.352  37.876  10.481
28075W        W 1143  39.143  39.520   4.552
28076W        W 1144  12.253  28.430   2.116
28077W        W 1145   4.167  40.074  11.248
28078W        W 1146  13.156   4.907  12.872
28079W        W 1147  40.944  33.854   0.975
28080W        W 1148  19.893  35.158  10.750
28081W        W 1149  27.789  28.216   4.175
28082W        W 1150  15.267  34.168  14.390
28083W        W 1151  21.539  11.336  14.092
28084W        W 1152   7.894   0.776  11.669
28085W        W 1153   8.880   6.129   1.773
28086W        W 1154  31.951  13.054  10.677
28087W        W 1155  25.099  16.216   3.619
28088W        W 1156  36.310  37.546  14.589
28089W        W 1157   9.321  22.771   1.931
28090W        W 1158  32.457  11.357   1.720
28091W        W 1159  18.215  36.639  14.524
28092W        W 1160  22.781   3.456   4.637
28093W        W 1161  15.088  29.963   1.327
28094W        W 1162  40.024  14.269  14.653
28095W        W 1163  37.953   9.294  13.061
28096W        W 1164  44.820  12.328   1.337
28097W        W 1165   6.410  34.222  13.409
28098W        W 1166  22.503   2.221   2.362
28099W        W 1167  22.787  13.346  12.367
28100W        W 1168   4.886  43.037   4.977
28101W        W 1169  22.710   2.530   1.657
28102W        W 1170   7.409   3.275   0.429
28103W        W 1171  25.289  43.984  14.026
28104W        W 1172  28.585  13.669  11.155
28105W        W 1173  44.525  36.487   3.758
28106W        W 1174  24.153   3.698   0.183
28107W        W 1175  18.162   0.141   3.747
28108W        W 1176   5.926  23.223   2.209
28109W        W 1177  27.085  34.126   4.340
28110W        W 1178  33.597  26.789   0.803
28111W        W 1179  22.125  34.401   1.895
28112W        W 1180  34.637  24.072  11.540
28113W        W 1181  33.471  34.913  13.418
28114W        W 1182  40.425  20.280   0.816
28115W        W 1183  29.084  13.188   0.413
28116W        W 1184  17.272  15.560   4.142
28117W        W 1185  37.173  25.707   2.666
28118W        W 1186  35.564  31.775  11.504
28119W        W 1187  18.618   0.808  14.369
28120W        W 1188  43.393  20.778  14.705
28121W        W 1189   7.961  32.118   3.254
28122W        W 1190  26.194  22.471   2.700
28123W        W 1191  44.877  13.833  13.897
28124W        W 1192  26.635  28.613  14.072
28125W        W 1193  12.782  10.303   2.239
28126W        W 1194  26.680  37.512  12.539
28127W        W 1195  28.660  24.808   1.385
28128W        W 1196   1.823  13.656  14.040
28129W        W 1197  30.431  13.615  12.564
28130W        W 1198  33.551   3.843  13.364
28131W        W 1199   7.782  29.337  10.030
28132W        W 1200  42.456  41.862   1.364
28133W        W 1201  33.585  18.323   0.845
28134W        W 1202  22.735  28.924  14.427
28135W        W 1203  30.907   8.958   2.674
28136W        W 1204  42.956  39.772  13.915
28137W        W 1205  32.924  14.001   1.803
28138W        W 1206  32.668  17.897   1.352
28139W        W 1207  15.118  37.827   0.418
28140W        W 1208  12.433  37.351   4.598
28141W        W 1209  41.754  37.838  14.042
28142W        W 1210  13.723  39.881   1.400
28143W        W 1211  25.110  30.668  14.808
28144W        W 1212   5.165  24.192   3.784
28145W        W 1213  33.334  24.385   5.203
28146W        W 1214  21.158  23.736  14.396
28147W        W 1215  29.674   4.203   2.906
28148W        W 1216  42.044   7.025  11.129
28149W        W 1217  35.370  26.211   4.478
28150W        W 1218  27.331   4.336   1.669
28151W        W 1219  19.549  11.689   1.798
28152W        W 1220  33.955  33.737  11.793
28153W        W 1221  11.189  13.057   2.348
28154W        W 1222  43.261  43.792   4.898
28155W        W 1223  39.265  37.330   2.297
28156W        W 1224  20.782  34.058  11.470
28157W        W 1225  34.610  17.752  12.898
28158W        W 1226   7.300  39.475   0.147
28159W        W 1227   3.931  31.551  11.146
28160W        W 1228   1.675  34.991   5.048
28161W        W 1229  41.872  43.910  13.810
28162W        W 1230   5.134  36.893  11.528
28163W        W 1231   8.138  13.737   3.442
28164W        W 1232   6.825   6.896  11.530
28165W        W 1233  42.355   0.881   1.876
28166W        W 1234  13.371  13.843  11.512
28167W        W 1235   7.335  19.495  10.527
28168W        W 1236  39.578  27.543   2.202
28169W        W 1237  11.679  37.780  12.510
28170W        W 1238   3.414  11.801  10.889
28171W        W 1239  42.939  29.437   1.580
28172W        W 1240  26.942  38.401  13.460
28173W        W 1241  39.583  22.324   3.151
28174W        W 1242  28.215  17.736   0.770
28175W        W 1243  21.695   1.495  10.448
28176W        W 1244  29.491  28.845  14.521
28177W        W 1245   6.426  31.454   1.276
28178W        W 1246   0.347  15.610  13.065
28179W        W 1247  38.957   3.986   3.658
28180W        W 1248  11.060  39.856  11.173
28181W        W 1249   1.864  32.846   2.456
28182W        W 1250  14.197  25.284   4.815
28183W        W 1251  15.424  42.037   4.070
28184W        W 1252  21.001  40.958   4.356
28185W        W 1253  44.249  17.004   3.648
28186W        W 1254  44.088  20.226   1.374
28187W        W 1255  10.667  20.576  11.665
28188W        W 1256  29.599  30.576  13.208
28189W        W 1257  25.459   7.264  14.939
28190W        W 1258  23.093   3.511  12.520
28191W        W 1259  41.394   7.868   4.101
28192W        W 1260  38.893   4.168  13.148
28193W        W 1261  39.147  40.811  12.990
28194W        W 1262  44.744  26.139   1.378
28195W        W 1263  42.014  43.930   1.204
28196W        W 1264   7.604  37.747   0.280
28197W        W 1265   6.061  37.610   0.347
28198W        W 1266  32.454   0.336   2.166
28199W        W 1267  30.080  11.164   4.119
28200W        W 1268  32.160  31.449   3.234
28201W        W 1269  23.843  24.120  12.368
28202W        W 1270  38.132   5.452  12.395
28203W        W 1271  19.500   5.335   2.296
28204W        W 1272  33.127   3.903  12.129
28205W        W 1273  44.837  37.962   0.974
28206W        W 1274  32.995  34.143   0.329
28207W        W 1275  14.064   2.948  11.090
28208W        W 1276  28.699  36.400   4.812
28209W        W 1277  29.498  24.697  12.305
28210W        W 1278   5.793  35.615  12.473
28211W        W 1279  16.636  41.833  14.125
28212W        W 1280  21.717  21.002   0.802
28213W        W 1281  29.812  19.832  12.741
28214W        W 1282   2.430   9.705  14.995
28215W        W 1283  11.859   0.931  12.348
28216W        W 1284  30.455  21.739  11.990
28217W        W 1285  29.483  35.405  10.856
28218W        W 1286  38.840   3.120  14.565
28219W        W 1287  11.907  31.086  11.625
28220W        W 1288  12.101  16.430   5.028
28221W        W 1289  34.929  21.879  14.335
28222W        W 1290  27.940  43.996  14.317
28223W        W 1291   1.674   3.372   2.768
28224W        W 1292  36.372  14.259   2.374
28225W        W 1293   5.683  22.100   3.862
28226W        W 1294  15.942  24.693  11.083
28227W        W 1295  32.134  33.402  12.919
28228W        W 1296  22.749  13.717  13.319
28229W        W 1297  33.360   8.962  11.591
28230W        W 1298  39.338  27.036  14.069
28231W        W 1299   6.924  44.339   0.432
28232W        W 1300  23.028  41.572   4.051
28233W        W 1301  41.925  44.543   0.086
28234W        W 1302   2.085  17.235  13.064
28235W        W 1303  11.634  13.547  12.131
28236W        W 1304   4.651   8.332  11.106
28237W        W 1305  40.309  17.286   4.549
28238W        W 1306   1.128  12.833   1.593
28239W        W 1307  20.808   9.631   2.279
28240W        W 1308   1.728  35.043  13.438
28241W        W 1309  27.408   1.917  14.105
28242W        W 1310  20.723   3.792   2.150
28243W        W 1311   0.682  36.254  10.171
28244W        W 1312  14.617  18.572  14.824
28245W        W 1313  17.291  23.688  12.035
28246W        W 1314   2.952  44.970   4.559
28247W        W 1315   8.971  39.044  14.597
28248W        W 1316   4.349  41.525  13.403
28249W        W 1317  22.431   1.733  12.130
28250W        W 1318  17.927  28.380   2.816
28251W        W 1319   4.709   9.407  13.908
28252W        W 1320  17.635   4.423  10.413
28253W        W 1321   4.070  37.166   5.067
28254W        W 1322  44.292  34.313  10.709
28255W        W 1323  32.149   7.619   4.598
28256W        W 1324  23.469  38.575   4.114
28257W        W 1325   6.751  15.499   2.245
28258W        W 1326  22.644  24.400  13.336
28259W        W 1327  43.318   4.161   2.824
28260W        W 1328  17.167  14.840   3.649
28261W        W 1329  30.124   6.167  11.072
28262W        W 1330   2.503   0.258  10.924
28263W        W 1331  23.098   8.867   1.357
28264W        W 1332  37.555   8.274   2.349
28265W        W 1333   9.696  38.922   3.745
28266W        W 1334  15.267  31.121   2.197
28267W        W 1335  10.813  18.004  13.203
28268W        W 1336  31.035   5.718  12.852
28269W        W 1337  17.282  16.192  14.137
28270W        W 1338   5.253   2.503  14.438
28271W        W 1339  35.671  41.557  14.084
28272W        W 1340  17.756  29.432   2.279
28273W        W 1341  31.542  41.985   0.142
28274W        W 1342   9.833  40.528  11.525
28275W        W 1343  26.887  21.691  14.970
28276W        W 1344  18.945  42.690   4.523
28277W        W 1345   1.240  34.515   0.817
28278W        W 1346   1.453  14.301   2.618
28279W        W 1347   7.941  42.557   2.338
28280W        W 1348  12.722   0.258   3.366
28281W        W 1349  17.323  21.879  10.320
28282W        W 1350  12.876  32.414  13.288
28283W        W 1351  10.250   9.665  13.096
28284W        W 1352  40.472  29.643  12.432
28285W        W 1353  22.242  26.070   4.729
28286W        W 1354  36.431  32.348  13.298
28287W        W 1355  13.516  12.577   1.894
28288W        W 1356  15.134  17.786  13.501
28289W        W 1357   4.178   1.948  12.042
28290W        W 1358  20.971  17.609   1.790
28291W        W 1359  34.547  40.777  11.416
28292W        W 1360  34.387  24.181   1.509
28293W        W 1361  40.327  21.656  14.316
28294W        W 1362   6.961  23.737  11.109
28295W        W 1363  11.117  30.157  14.942
28296W        W 1364  14.982  32.145  12.846
28297W        W 1365  28.464   8.161   0.828
28298W        W 1366  12.364  23.894   0.450
28299W        W 1367  38.387   3.182  10.827
28300W        W 1368  32.490  35.086   2.278
28301W        W 1369  23.051  16.717   1.006
28302W        W 1370  41.576  14.646   2.168
28303W        W 1371  10.152  31.670   0.571
28304W        W 1372   6.942   9.200  11.634
28305W        W 1373  34.974   9.414   3.224
28306W        W 1374  29.017  32.578  14.268
28307W        W 1375  38.363   6.125   3.677
28308W        W 1376  28.549   6.121   2.108
28309W        W 1377  23.909  29.073   0.778
28310W        W 1378  17.185  20.869   1.878
28311W        W 1379  26.206  13.832   1.470
28312W        W 1380  42.117  41.299  12.083
28313W        W 1381  31.963  38.475  10.775
28314W        W 1382  15.166  33.401  10.981
28315W        W 1383  30.488  38.870  11.498
28316W        W 1384   3.776  20.240  13.664
28317W        W 1385  27.182  28.543   2.765
28318W        W 1386   9.740  24.050   1.581
28319W        W 1387  38.929  43.734   2.316
28320W        W 1388  33.098  29.588   0.789
28321W        W 1389   1.755   9.283   1.330
28322W        W 1390  25.033  12.229   2.143
28323W        W 1391  32.496  29.664   5.080
28324W        W 1392  29.083   9.842   3.067
28325W        W 1393   9.207   2.131  11.775
28326W        W 1394  43.085  24.579   3.169
28327W        W 1395  20.336  33.449   0.250
28328W        W 1396  10.791  10.195   3.274
28329W        W 1397  25.471  34.439   1.449
28330W        W 1398  13.429  17.273   2.791
28331W        W 1399  44.710  27.581  12.563
28332W        W 1400  23.742  21.803  12.838
28333W        W 1401  37.413  24.132   1.871
28334W        W 1402  44.020   8.543   2.736
28335W        W 1403  25.966  25.690   2.691
28336W        W 1404  24.542  44.926  13.066
28337W        W 1405  26.712  12.216  12.462
28338W        W 1406  16.181  23.712   1.306
28339W        W 1407  11.387  32.163  11.544
28340W        W 1408  19.396  12.689  11.219
28341W        W 1409  19.023   3.815   2.754
28342W        W 1410  20.770  38.055  11.913
28343W        W 1411  31.391  28.045   4.164
28344W        W 1412  27.274   9.617   4.113
28345W        W 1413  35.196  29.080  14.783
28346W        W 1414  12.654  40.458   0.724
28347W        W 1415  21.565  25.649  14.267
28348W        W 1416  36.386  40.733   2.482
28349W        W 1417  21.191  22.998  10.995
28350W        W 1418  38.697  29.450   1.300
28351W        W 1419  14.882  28.533  12.479
28352W        W 1420   1.118  13.202  13.630
28353W        W 1421  40.846  40.323  10.670
28354W        W 1422  35.596  19.802  10.995
28355W        W 1423  40.880   0.917  11.528
28356W        W 1424   9.232  44.492   1.704
28357W        W 1425  13.031  41.434   0.940
28358W        W 1426   4.161  24.033   4.678
28359W        W 1427  24.438  22.699  11.541
28360W        W 1428   5.756   7.332   2.630
28361W        W 1429  36.564  39.565  13.930
28362W        W 1430  23.916  16.851  14.206
28363W        W 1431  28.889   0.651  11.541
28364W        W 1432  16.754  33.238  11.707
28365W        W 1433  28.843  31.058   4.174
28366W        W 1434  28.961  24.542  11.956
28367W        W 1435  36.862  21.586   0.829
28368W        W 1436  29.016   6.422   4.144
28369W        W 1437  38.284  28.591  13.030
28370W        W 1438  18.238  10.354   3.271
28371W        W 1439  43.303  18.607  11.457
28372W        W 1440  41.377  23.478  11.020
28373W        W 1441  32.589   0.328   4.596
28374W        W 1442  26.990  37.398  10.746
28375W        W 1443  27.266  41.942   0.826
28376W        W 1444  37.731  36.270   4.576
28377W        W 1445  26.649  18.607   0.719
28378W        W 1446  18.987  29.470  12.091
28379W        W 1447  27.926   8.373  12.568
28380W        W 1448  19.773  10.887   3.461
28381W        W 1449  39.104  25.264   3.756
28382W        W 1450  32.665   5.806   1.197
28383W        W 1451  39.855  23.537  13.619
28384W        W 1452  17.596  44.773   4.628
28385W        W 1453  33.968  40.297   3.625
28386W        W 1454  43.370  14.548  14.749
28387W        W 1455  32.543  43.533   3.159
28388W        W 1456   3.012  25.997  11.298
28389W        W 1457  11.895  20.503   4.044
28390W        W 1458   8.717  24.490   4.609
28391W        W 1459  33.454   1.865   4.855
28392W        W 1460   9.191  31.711  12.508
28393W        W 1461  17.735  24.221   0.761
28394W        W 1462  30.199   7.744  11.051
28395W        W 1463  25.674  12.268  10.063
28396W        W 1464  33.618   5.838  10.704
28397W        W 1465  24.887  28.055  13.003
28398W        W 1466  27.601  21.490  10.858
28399W        W 1467   8.682  38.086  13.989
28400W        W 1468  23.256  40.901  14.016
28401W        W 1469  18.864  34.417   0.722
28402W        W 1470   1.257  43.241  11.533
28403W        W 1471  12.269   6.424  13.916
28404W        W 1472  37.100  33.489   3.672
28405W        W 1473  12.215   6.772  14.891
28406W        W 1474  15.098   6.538   2.612
28407W        W 1475  31.849  11.310   0.216
28408W        W 1476   5.627  25.595   3.569
28409W        W 1477   4.092   4.232  11.988
28410W        W 1478  42.736   8.329   2.328
28411W        W 1479  12.399  10.968   4.792
28412W        W 1480  38.474   7.035   2.114
28413W        W 1481  31.174  36.969   3.148
28414W        W 1482  14.797   6.317   4.853
28415W        W 1483  43.389  32.866  10.618
28416W        W 1484  42.708   6.409   0.920
28417W        W 1485  31.048  20.526  12.885
28418W        W 1486  20.209  34.498  11.822
28419W        W 1487  44.546  37.027  13.861
28420W        W 1488  40.201  41.480   3.746
28421W        W 1489  23.818  18.825  12.370
28422W        W 1490  22.736  29.944  12.976
28423W        W 1491  35.754  31.848   0.983
28424W        W 1492  26.391   3.932  14.049
28425W        W 1493   7.277  19.638   1.411
28426W        W 1494  31.896   7.825  11.530
28427W        W 1495  40.921   7.913   9.746
28428W        W 1496  23.321  12.727   2.212
28429W        W 1497  38.667  34.076  10.513
28430W        W 1498  25.461  41.819  12.336
28431W        W 1499  31.964  22.523  13.037
28432W        W 1500   4.258  18.512   2.819
28433W        W 1501  25.461   5.773  11.606
28434W        W 1502  27.956   1.337   4.031
28435W        W 1503  20.890  10.306  10.380
28436W        W 1504  16.007  18.057   2.260
28437W        W 1505  17.607  36.602  14.966
28438W        W 1506  12.970  35.102   2.907
28439W        W 1507   9.140  20.245  13.815
28440W        W 1508  16.377  13.697   2.965
28441W        W 1509  19.131  32.871  10.586
28442W        W 1510  41.954  18.387  14.382
28443W        W 1511   9.868   2.916   0.912
28444W        W 1512  13.227  14.123  13.070
28445W        W 1513  38.515  28.072   1.378
28446W        W 1514  10.295  25.522   2.748
28447W        W 1515  19.733  19.021   2.112
28448W        W 1516  11.035  11.268   0.977
28449W        W 1517  17.232  43.349  12.977
28450W        W 1518   9.260  39.085   0.027
28451W        W 1519   1.843  16.283   3.327
28452W        W 1520  35.515  30.777   1.782
28453W        W 1521  22.663  19.038   3.221
28454W        W 1522  41.391  10.741   4.623
28455W        W 1523   0.570  41.348  14.893
28456W        W 1524  26.217  10.928   0.403
28457W        W 1525  14.709  42.289   2.216
28458W        W 1526  38.091  31.249   5.700
28459W        W 1527  34.006  41.336   2.319
28460W        W 1528  39.327  28.162  11.071
28461W        W 1529  37.809  36.331   3.681
28462W        W 1530  22.036  31.020   4.153
28463W        W 1531  21.338   5.028   3.233
28464W        W 1532  39.822   1.824   2.190
28465W        W 1533  29.461  16.985  13.759
28466W        W 1534  30.890  23.293   1.286
28467W        W 1535  40.131  17.044  13.390
28468W        W 1536  15.132  12.171  12.156
28469W        W 1537  13.133   5.924  13.931
28470W        W 1538  13.760  11.856  14.162
28471W        W 1539   9.740  29.791  11.454
28472W        W 1540  18.730   6.291   3.050
28473W        W 1541  13.856   3.636  11.642
28474W        W 1542  43.775  30.391   4.618
28475W        W 1543  34.453  17.288  11.954
28476W        W 1544  29.065   4.751  14.982
28477W        W 1545  42.360  30.399  10.751
28478W        W 1546  27.619  43.146  13.086
28479W        W 1547  40.584   1.980  11.620
28480W        W 1548  32.603  41.623  12.261
28481W        W 1549  13.611  39.037  11.845
28482W        W 1550  27.009  18.556  11.562
28483W        W 1551  41.514   2.526  12.172
28484W        W 1552  13.114  36.168  12.952
28485W        W 1553  37.011   1.384  11.543
28486W        W 1554  40.599  14.188  13.071
28487W        W 1555  41.460  40.093   2.347
28488W        W 1556   8.738   0.505   4.995
28489W        W 1557  35.812  27.912   2.336
28490W        W 1558  32.427  44.769  14.897
28491W        W 1559  17.089  19.492  12.363
28492W        W 1560  21.681  16.955  12.721
28493W        W 1561  28.809  20.030  10.966
28494W        W 1562  22.983  11.766   0.697
28495W        W 1563  30.911  17.148  11.569
28496W        W 1564  12.145   1.865  12.783
28497W        W 1565   1.430  15.058   0.969
28498W        W 1566  31.210  40.518   0.438
28499W        W 1567  16.099  32.662   3.515
28500W        W 1568  14.048  33.078   0.390
28501W        W 1569  41.723  11.375   1.311
28502W        W 1570  31.462  14.900  11.594
28503W        W 1571   6.867  17.035  13.945
28504W        W 1572   7.170  41.924   5.056
28505W        W 1573  12.295  19.121  11.875
28506W        W 1574  10.141  30.109  11.410
28507W        W 1575  14.154  27.452   2.156
28508W        W 1576   4.508  33.033   1.808
28509W        W 1577   7.794  15.131  12.553
28510W        W 1578  16.202  28.466  12.846
28511W        W 1579  11.885  24.316   2.667
28512W        W 1580  13.601  36.336   3.230
28513W        W 1581  33.571  12.702   1.002
28514W        W 1582  41.247   8.251   2.320
28515W        W 1583   7.730  12.863   2.102
28516W        W 1584  17.081  44.928   1.882
28517W        W 1585  27.498   3.910  11.414
28518W        W 1586   3.973  15.081  12.513
28519W        W 1587  15.625  21.611  10.444
28520W        W 1588  38.772  18.905  11.452
28521W        W 1589  28.293  22.117   3.665
28522W        W 1590   1.735   8.670  10.621
28523W        W 1591  15.380   9.893   2.697
28524W        W 1592  34.387   1.852   1.482
28525W        W 1593   3.324  15.983  13.799
28526W        W 1594   0.383  32.421   4.568
28527W        W 1595  38.633  17.726  11.493
28528W        W 1596  44.371  37.511  13.036
28529W        W 1597   8.340  18.262  13.471
28530W        W 1598  20.528   9.905   4.062
28531W        W 1599  18.299  14.902   2.215
28532W        W 1600  36.463   7.986   2.811
28533W        W 1601  40.109  26.595  10.990
28534W        W 1602  18.723  19.942  12.017
28535W        W 1603  38.541  19.975  13.451
28536W        W 1604  41.484  26.878   1.234
28537W        W 1605  24.498  26.010  12.033
28538W        W 1606  12.185  15.347  14.412
28539W        W 1607  32.135  34.956   2.665
28540W        W 1608   4.719  33.511  12.096
28541W        W 1609  39.928  17.717  10.299
28542W        W 1610   0.482   7.380  13.838
28543W        W 1611  25.696  36.498  13.773
28544W        W 1612  37.793   6.591   4.071
28545W        W 1613  23.551  35.059  13.316
28546W        W 1614  10.724  44.475   1.878
28547W        W 1615   6.495  37.262  12.478
28548W        W 1616   8.854  19.273   1.335
28549W        W 1617   1.010   1.380   4.589
28550W        W 1618   2.386  39.127   4.193
28551W        W 1619  22.543  18.495   2.841
28552W        W 1620  37.513  22.004   0.882
28553W        W 1621  13.052   2.393   4.253
28554W        W 1622  22.114  34.681   0.561
28555W        W 1623   5.233  18.523   4.370
28556W        W 1624  38.975  30.398   2.796
28557W        W 1625  31.151  40.875  13.499
28558W        W 1626  28.842  43.816   4.694
28559W        W 1627  38.264  40.632  12.904
28560W        W 1628   7.942  27.450   2.600
28561W        W 1629   7.216   3.844  12.602
28562W        W 1630  13.629  38.282   3.721
28563W        W 1631  39.421   0.568   3.238
28564W        W 1632  24.028  24.428  14.538
28565W        W 1633   4.382  18.211  10.771
28566W        W 1634  44.788  15.897  12.830
28567W        W 1635   4.292   6.327   0.815
28568W        W 1636  41.543  28.795   3.760
28569W        W 1637  36.629  40.007   3.839
28570W        W 1638  30.018  35.149   3.756
28571W        W 1639  12.601  39.324   1.848
28572W        W 1640  15.657   4.159  10.513
28573W        W 1641  16.273  27.700   3.087
28574W        W 1642  44.277  40.438  13.618
28575W        W 1643  11.292  43.464  14.575
28576W        W 1644  17.077  16.088   1.732
28577W        W 1645  28.561  39.798  12.644
28578W        W 1646  41.448   8.817   4.215
28579W        W 1647  34.625   4.323   2.262
28580W        W 1648  37.667  31.523   3.664
28581W        W 1649  12.652   8.313   2.884
28582W        W 1650  12.449   5.592  10.978
28583W        W 1651  12.892  16.849  11.172
28584W        W 1652  30.383  35.514   0.009
28585W        W 1653  42.360  19.007   0.874
28586W        W 1654  43.173  35.964   3.305
28587W        W 1655  44.081  25.946  14.981
28588W        W 1656  13.301  14.936   2.461
28589W        W 1657  33.620  17.555   0.282
28590W        W 1658  27.140  25.248  10.492
28591W        W 1659  17.509  30.696   4.789
28592W        W 1660   9.441  41.752  14.326
28593W        W 1661  13.074  10.359   0.824
28594W        W 1662  41.249  25.248   1.867
28595W        W 1663  27.582   3.407  14.885
28596W        W 1664  31.922  38.960  10.624
28597W        W 1665  19.058  26.540  11.613
28598W        W 1666  16.326  36.574  12.354
28599W        W 1667   7.152  23.481   1.306
28600W        W 1668  10.848  28.328  12.200
28601W        W 1669  12.155  44.314   1.748
28602W        W 1670  25.259  16.144   2.679
28603W        W 1671  25.375   1.291   4.583
28604W        W 1672  30.787  29.541   3.591
28605W        W 1673   3.463  33.425  10.418
28606W        W 1674   1.039  38.883  12.508
28607W        W 1675  29.489   5.417  12.513
28608W        W 1676  43.462   2.462  14.557
28609W        W 1677   2.754  37.037   0.474
28610W        W 1678   3.132   7.646  13.725
28611W        W 1679   6.696   9.899  14.725
28612W        W 1680  15.531  20.026   4.460
28613W        W 1681  27.435  34.038   1.736
28614W        W 1682  10.154  16.888  11.528
28615W        W 1683  27.423  41.346   2.077
28616W        W 1684  39.862  42.070  13.839
28617W        W 1685   4.411  18.668   0.010
28618W        W 1686  36.389  12.706   4.741
28619W        W 1687  28.621   2.311  10.764
28620W        W 1688  15.161   1.999  13.397
28621W        W 1689   5.275   0.468   4.682
28622W        W 1690  43.859  31.956   0.423
28623W        W 1691  15.828   6.054  12.040
28624W        W 1692   7.654  38.826  12.477
28625W        W 1693  35.671  25.105   2.772
28626W        W 1694   9.107  33.475   3.767
28627W        W 1695  23.999  28.630   4.353
28628W        W 1696   8.231  34.256  12.324
28629W        W 1697  25.772  32.666  11.657
28630W        W 1698  37.034  32.044  13.400
28631W        W 1699  42.473   9.436  13.878
28632W        W 1700  42.270  11.639   0.451
28633W        W 1701  11.952   0.927  14.149
28634W        W 1702   5.150  44.494   4.505
28635W        W 1703  41.038   1.059  12.984
28636W        W 1704  25.575  37.443   2.102
28637W        W 1705  41.458  23.967  11.938
28638W        W 1706  44.798  43.922   0.796
28639W        W 1707   8.653  36.673  12.573
28640W        W 1708  13.142  32.873   1.740
28641W        W 1709   9.665  25.953   0.036
28642W        W 1710  27.910  17.473  11.111
28643W        W 1711   9.774  21.021   3.655
28644W        W 1712  40.538   6.107  12.945
28645W        W 1713  36.967  28.383  13.604
28646W        W 1714  42.270   2.226   2.775
28647W        W 1715  26.411  29.399   3.615
28648W        W 1716  12.464  41.863  10.501
28649W        W 1717  12.117  19.230  13.600
28650W        W 1718  29.577  34.424   2.814
28651W        W 1719  37.331   7.115   1.824
28652W        W 1720  21.151  19.196  14.480
28653W        W 1721  24.543  30.223  12.556
28654W        W 1722  22.278  39.676   4.567
28655W        W 1723  40.494  25.817  14.874
28656W        W 1724  26.607  39.735   0.775
28657W        W 1725  16.348  14.796   3.161
28658W        W 1726   4.183  29.197  13.038
28659W        W 1727   8.514  13.257  11.219
28660W        W 1728   8.940   0.828  14.821
28661W        W 1729   0.847  10.123  13.603
28662W        W 1730  25.568   6.674  12.722
28663W        W 1731  28.588  42.875  14.324
28664W        W 1732  20.563  21.224   3.362
28665W        W 1733  32.943   6.600  13.966
28666W        W 1734  40.766  10.817   0.566
28667W        W 1735  36.103  14.610  14.803
28668W        W 1736   7.297  34.057   4.718
28669W        W 1737  13.848  34.027  12.141
28670W        W 1738  29.702   1.632  11.187
28671W        W 1739  42.099  29.611   1.376
28672W        W 1740  42.995  32.428   0.364
28673W        W 1741  12.582  11.226   0.982
28674W        W 1742  40.461  12.050   0.898
28675W        W 1743  40.943  26.829   2.217
28676W        W 1744  18.049   7.281  13.824
28677W        W 1745  25.828  17.550   1.194
28678W        W 1746  34.116  20.610   1.758
28679W        W 1747  38.491  25.175   3.787
28680W        W 1748  38.834   9.803   0.499
28681W        W 1749  28.187   9.730   4.118
28682W        W 1750   0.744  13.819   3.606
28683W        W 1751   4.890  13.727  11.522
28684W        W 1752  41.336  20.639  14.343
28685W        W 1753  21.235  14.337   1.779
28686W        W 1754   9.645  13.765   2.707
28687W        W 1755  29.134   9.812   0.063
28688W        W 1756  38.369  39.358  11.173
28689W        W 1757  43.022  14.629   0.433
28690W        W 1758  26.109  14.426   0.788
28691W        W 1759  16.661   0.884   1.373
28692W        W 1760  14.746  35.471   4.742
28693W        W 1761  31.575  43.200   3.900
28694W        W 1762  17.793  35.822   2.668
28695W        W 1763   7.479   3.976   4.982
28696W        W 1764  26.114  25.153   4.717
28697W        W 1765  36.916  24.968  10.373
28698W        W 1766  12.318   9.890   1.277
28699W        W 1767  28.536  16.417  11.538
28700W        W 1768  22.562  41.458  10.967
28701W        W 1769   5.282   4.620   4.776
28702W        W 1770  14.211  35.839  10.802
28703W        W 1771  32.618  26.667  11.727
28704W        W 1772  39.120  40.849   3.421
28705W        W 1773  19.105  29.123   4.937
28706W        W 1774  36.024  43.657  13.296
28707W        W 1775  42.401  12.700  14.757
28708W        W 1776  11.905  44.385  10.615
28709W        W 1777  31.717  38.805  14.542
28710W        W 1778  43.768  34.986  12.045
28711W        W 1779  31.536  44.474   2.280
28712W        W 1780  23.734  14.102   2.907
28713W        W 1781  17.080  28.018  13.282
28714W        W 1782  14.645  16.855   2.349
28715W        W 1783  22.810  28.934   3.613
28716W        W 1784  33.024  42.731   2.019
28717W        W 1785  19.555  30.972  11.230
28718W        W 1786  39.007  44.464   1.731
28719W        W 1787  31.648   5.364   2.138
28720W        W 1788  36.877  35.436  12.128
28721W        W 1789  43.729  41.983  13.344
28722W        W 1790  34.189  23.133   4.567
28723W        W 1791  34.493  28.525  12.530
28724W        W 1792   0.501  31.007  13.771
28725W        W 1793   3.643  10.253   2.358
28726W        W 1794  10.267   3.259   0.837
28727W        W 1795  34.014  10.724   1.362
28728W        W 1796  40.777  29.121  11.887
28729W        W 1797   6.302  22.114  10.739
28730W        W 1798  25.060  19.745   5.008
28731W        W 1799  35.383  18.305   4.715
28732W        W 1800   7.178  35.228  13.559
28733W        W 1801  24.297  16.180  14.805
28734W        W 1802   4.655  27.529  14.818
28735W        W 1803  44.474  29.669   1.363
28736W        W 1804  41.886  28.033   3.008
28737W        W 1805   8.335  38.990  13.975
28738W        W 1806  29.105  42.829   1.017
28739W        W 1807   4.886  19.240   0.922
28740W        W 1808  38.854  35.622  11.994
28741W        W 1809  44.868   7.672  12.659
28742W        W 1810  21.691  38.898   3.902
28743W        W 1811   7.705  40.628   4.083
28744W        W 1812  36.485  23.095   4.926
28745W        W 1813  32.866   4.252   1.741
28746W        W 1814  33.936  35.797  11.278
28747W        W 1815  17.485  27.434  14.464
28748W        W 1816  29.790  30.192   1.660
28749W        W 1817   4.002  43.891  12.354
28750W        W 1818  41.493  17.500  12.137
28751W        W 1819  42.077   4.421   3.289
28752W        W 1820   5.352   8.444   0.814
28753W        W 1821  28.099  26.235  11.169
28754W        W 1822  16.681  34.823   0.392
28755W        W 1823   2.907  39.189  12.038
28756W        W 1824  18.085  36.821   2.216
28757W        W 1825   6.493  26.433  12.949
28758W        W 1826   8.747  23.082  14.447
28759W        W 1827   8.243  38.692   4.991
28760W        W 1828  38.340  26.680   2.827
28761W        W 1829  29.158  12.735   1.327
28762W        W 1830   3.491  31.265   4.140
28763W        W 1831   6.454  23.363   2.858
28764W        W 1832  19.525  32.544   4.493
28765W        W 1833   8.655   4.917  13.299
28766W        W 1834   7.809  21.169   1.411
28767W        W 1835   3.704  12.547  13.028
28768W        W 1836  38.424  18.643   4.801
28769W        W 1837  28.146   8.815   3.072
28770W        W 1838  18.308   6.699   1.345
28771W        W 1839  40.097  32.863   4.150
28772W        W 1840  18.215  23.913   2.285
28773W        W 1841  32.159  15.080   3.550
28774W        W 1842  31.547  44.377  13.984
28775W        W 1843  35.701  40.507   3.915
28776W        W 1844  15.243  22.036   1.448
28777W        W 1845  18.971  37.113  14.051
28778W        W 1846  25.176  37.478   2.418
28779W        W 1847   5.060  34.959  10.781
28780W        W 1848  43.830  32.593  10.752
28781W        W 1849   1.452   0.758   1.174
28782W        W 1850  35.852   5.451  11.191
28783W        W 1851  18.247  43.522  12.974
28784W        W 1852  40.368   1.056  11.599
28785W        W 1853  39.286  24.505  14.302
28786W        W 1854   1.330   0.024   4.531
28787W        W 1855  14.314  27.961  11.035
28788W        W 1856  21.155  39.583   1.977
28789W        W 1857  37.807   7.136  12.416
28790W        W 1858  41.788  13.705   2.893
28791W        W 1859  42.494  32.183  11.933
28792W        W 1860  35.431  38.804   4.225
28793W        W 1861  41.628   0.038  10.270
28794W        W 1862   3.955  34.576  11.925
28795W        W 1863  11.545  25.288  14.943
28796W        W 1864   0.735  39.802   0.887
28797W        W 1865  39.663  16.181  12.639
28798W        W 1866  30.631  31.190   1.748
28799W        W 1867  35.013  44.716   0.300
28800W        W 1868  34.933  12.626   0.970
28801W        W 1869  22.488  34.048   2.016
28802W        W 1870  17.661  31.391  11.078
28803W        W 1871  41.160  28.127   5.244
28804W        W 1872   3.643  14.739   1.488
28805W        W 1873  44.288  41.281  12.659
28806W        W 1874   8.962  24.215  12.287
28807W        W 1875  35.030  16.068  13.359
28808W        W 1876   6.391  34.006  10.934
28809W        W 1877  27.123  32.061  13.095
28810W        W 1878  18.042  32.611   3.201
28811W        W 1879  21.613  34.988  13.181
28812W        W 1880  20.100  29.411   3.646
28813W        W 1881   9.827   9.874   1.388
28814W        W 1882  35.569  34.863   0.351
28815W        W 1883  20.985  17.648  13.729
28816W        W 1884  14.647  36.894  13.488
28817W        W 1885   3.776  16.231  11.312
28818W        W 1886  16.530  27.028   0.334
28819W        W 1887  37.546  10.073   1.826
28820W        W 1888   9.660  42.844   4.619
28821W        W 1889  33.340  39.787   4.957
28822W        W 1890  37.291  16.274  10.344
28823W        W 1891  37.571   6.194   2.260
28824W        W 1892   8.322  19.134  10.696
28825W        W 1893  11.704   1.692  12.986
28826W        W 1894   9.191   9.141   1.885
28827W        W 1895  12.713  21.510   3.059
28828W        W 1896  42.826   7.472   4.669
28829W        W 1897  22.449  36.280  10.807
28830W        W 1898  14.113   5.095  10.813
28831W        W 1899   7.789  37.849  11.505
28832W        W 1900   2.846   7.450   1.275
28833W        W 1901  38.253  13.589  13.312
28834W        W 1902   3.400  27.876   2.653
28835W        W 1903   7.274   4.419  14.807
28836W        W 1904  17.550  23.276  14.893
28837W        W 1905  29.849  22.387   2.327
28838W        W 1906  36.483  12.079  12.332
28839W        W 1907  41.680   2.196  11.349
28840W        W 1908  22.994  43.845  13.331
28841W        W 1909  11.379  32.763  13.417
28842W        W 1910  38.355  29.658  13.563
28843W        W 1911  31.271  29.922  12.417
28844W        W 1912  19.058  38.938   3.824
28845W        W 1913  22.112  13.772   3.091
28846W        W 1914  12.957  17.108   3.689
28847W        W 1915  42.979  28.259  12.450
28848W        W 1916  13.259   0.619   1.782
28849W        W 1917  39.551   0.266  14.334
28850W        W 1918  35.809  40.046   4.107
28851W        W 1919   2.767   4.371   1.865
28852W        W 1920  36.721   4.782   3.813
28853W        W 1921  44.546   8.583  13.673
28854W        W 1922   1.644  21.735  13.358
28855W        W 1923   6.325  37.704  11.147
28856W        W 1924  44.457  32.382   3.685
28857W        W 1925  43.520  39.798   0.096
28858W        W 1926  41.936  21.673   1.463
28859W        W 1927  36.052  40.779   2.870
28860W        W 1928   6.110  25.778  12.351
28861W        W 1929  11.455  18.112   3.653
28862W        W 1930  21.086   3.048   4.180
28863W        W 1931  23.628  25.471  13.876
28864W        W 1932  39.350   7.793  14.445
28865W        W 1933  39.636  12.075  13.161
28866W        W 1934  13.274  31.188  12.539
28867W        W 1935  35.003  34.756  12.053
28868W        W 1936   0.514  21.269   5.037
28869W        W 1937  37.142  37.355  12.544
28870W        W 1938   8.150  44.715  14.478
28871W        W 1939  41.091   7.324   3.401
28872W        W 1940  36.322   1.291   4.662
28873W        W 1941  35.559  18.564  14.958
28874W        W 1942  28.695  35.174   4.054
28875W        W 1943  21.091   2.959   2.329
28876W        W 1944  17.957  18.509  12.893
28877W        W 1945  15.238  13.331   0.929
28878W        W 1946  23.666   0.685  13.464
28879W        W 1947   6.740  24.155   2.566
28880W        W 1948  12.597   8.568   0.665
28881W        W 1949  28.148  23.902  13.014
28882W        W 1950  35.009   3.476   1.987
28883W        W 1951  10.394  26.465   4.231
28884W        W 1952  13.759  29.599  11.655
28885W        W 1953  12.681  15.306  14.184
28886W        W 1954  30.009  39.278  12.605
28887W        W 1955  21.746   1.671   0.321
28888W        W 1956  33.508  15.734  10.665
28889W        W 1957   7.293  38.943  11.148
28890W        W 1958   7.233  32.012   1.681
28891W        W 1959  26.936  18.217  11.970
28892W        W 1960  20.159  42.316   4.125
28893W        W 1961  29.627  44.564   1.128
28894W        W 1962  29.112  31.580   2.888
28895W        W 1963   7.833  30.984  11.613
28896W        W 1964  41.559  22.721  10.543
28897W        W 1965   9.428  40.960   4.270
28898W        W 1966  33.337   1.952  11.797
28899W        W 1967   0.178  19.535  12.379
28900W        W 1968  22.487  22.708  14.207
28901W        W 1969  40.148  22.932  10.589
28902W        W 1970  16.984  25.014   3.084
28903W        W 1971   5.239   4.297   4.362
28904W        W 1972  23.783   5.274  13.537
28905W        W 1973  37.066   9.751   0.447
28906W        W 1974  25.473  19.409   5.082
28907W        W 1975  25.189  40.122  11.121
28908W        W 1976  15.126  12.194  10.496
28909W        W 1977  30.298  18.582  11.910
28910W        W 1978  14.210  17.063  12.031
28911W        W 1979  17.087  28.493   0.508
28912W        W 1980   9.805  15.163   2.550
28913W        W 1981  14.549  26.075   2.788
28914W        W 1982  14.228  17.137   3.340
28915W        W 1983   1.072  29.588  14.416
28916W        W 1984   9.276  38.486   4.580
28917W        W 1985  22.768  12.211  13.116
28918W        W 1986  30.496  35.167  11.488
28919W        W 1987  18.610  41.441   1.733
28920W        W 1988  15.561  18.430  12.638
28921W        W 1989  22.691  29.782  10.945
28922W        W 1990  38.906  43.191   1.440
28923W        W 1991  42.225  11.486   1.333
28924W        W 1992  14.758  35.999   5.126
28925W        W 1993   7.844  10.426  14.952
28926W        W 1994   3.499  13.080   3.801
28927W        W 1995  14.372  30.248   0.757
28928W        W 1996  12.134  34.037   0.012
28929W        W 1997  37.285  22.633  13.571
28930W        W 1998  34.103  40.316   0.432
28931W        W 1999  22.457   9.704   0.875
28932W        W 2000  12.625  23.092  11.167
28933W        W 2001   1.757   4.799   3.354
28934W        W 2002  22.567   3.038   1.751
28935W        W 2003  32.261  39.890   5.084
28936W        W 2004   0.443  15.874  11.090
28937W        W 2005  40.359  40.534   3.719
28938W        W 2006  44.656  18.416   4.980
28939W        W 2007  13.900   7.120   0.345
28940W        W 2008  11.822   2.970  12.605
28941W        W 2009  22.959  38.936  13.995
28942W        W 2010  31.399  23.013   4.627
28943W        W 2011  26.262  30.906  12.813
28944W        W 2012  43.686  34.724   3.570
28945W        W 2013  30.220  26.801   3.666
28946W        W 2014   6.210  41.880  13.478
28947W        W 2015   9.444  24.233   3.007
28948W        W 2016   2.141  28.056  12.712
28949W        W 2017  21.287  17.044   2.413
28950W        W 2018  20.082   0.825  14.984
28951W        W 2019  12.724   7.093  10.605
28952W        W 2020  21.498   4.732   1.689
28953W        W 2021  23.651   7.605   1.174
28954W        W 2022  10.152  40.347  10.434
28955W        W 2023  17.274   0.413  10.447
28956W        W 2024   5.727   6.610  12.002
28957W        W 2025  15.412  31.543   4.151
28958W        W 2026   5.463   2.746   4.061
28959W        W 2027   4.963  26.486   3.239
28960W        W 2028  39.604   2.498   3.765
28961W        W 2029   1.924  24.917   0.395
28962W        W 2030  24.645  16.646   1.163
28963W        W 2031  23.400  41.210  14.845
28964W        W 2032  28.662  39.998   0.567
28965W        W 2033  14.621  35.024   3.721
28966W        W 2034   5.245   2.651  13.426
28967W        W 2035   3.635  13.959  13.772
28968W        W 2036  43.467  27.189  14.872
28969W        W 2037  41.457  35.133  11.637
28970W        W 2038  17.579  33.611   1.843
28971W        W 2039   7.212   1.752   2.035
28972W        W 2040   6.455  44.529  12.156
28973W        W 2041   1.531  12.437   2.441
28974W        W 2042   8.937  22.458   3.708
28975W        W 2043  11.860  21.629   3.375
28976W        W 2044   5.043  43.474   1.289
28977W        W 2045  17.580  31.783  10.721
28978W        W 2046  21.662  28.647   3.584
28979W        W 2047  15.285  20.149   1.364
28980W        W 2048  30.474   9.278   4.754
28981W        W 2049  17.329  29.436  10.309
28982W        W 2050  11.923  44.343   1.223
28983W        W 2051  22.500   4.596  13.339
28984W        W 2052   5.621  27.010   1.771
28985W        W 2053   6.146  21.024  12.832
28986W        W 2054  19.025  42.776   0.105
28987W        W 2055  14.686  13.419  12.584
28988W        W 2056  29.930  29.093  14.534
28989W        W 2057  40.514  15.566   3.805
28990W        W 2058  37.301   3.463  12.112
28991W        W 2059  13.607  17.159  14.891
28992W        W 2060  40.286  12.102  12.344
28993W        W 2061  14.204  14.071  11.969
28994W        W 2062  25.453  10.266   2.871
28995W        W 2063   4.467  28.542   3.249
28996W        W 2064  16.067   4.244   2.408
28997W        W 2065  31.631  28.595  11.927
28998W        W 2066  34.662  37.328   2.146
28999W        W 2067  27.386   8.242  14.351
29000W        W 2068  31.582  32.384  13.671
29001W        W 2069   1.466  10.182  14.289
29002W        W 2070  24.422  41.893  13.815
29003W        W 2071  38.217  15.172   2.984
29004W        W 2072  32.908  33.636  12.177
29005W        W 2073  31.163  19.492  11.459
29006W        W 2074  38.055  29.813   3.318
29007W        W 2075  11.698  23.139  10.773
29008W        W 2076   2.269  18.625  12.064
29009W        W 2077   2.341  36.951  11.929
29010W        W 2078  18.199  35.115   3.210
29011W        W 2079   8.968  29.150   3.801
29012W        W 2080  38.961  30.666   0.669
29013W        W 2081  15.258  25.705   2.551
29014W        W 2082  40.951  27.549  14.915
29015W        W 2083   4.360  15.200  13.481
29016W        W 2084   0.511   3.335  13.959
29017W        W 2085   3.308  38.892  14.416
29018W        W 2086  27.561  13.383   0.830
29019W        W 2087  25.312  13.075  14.283
29020W        W 2088  34.001  19.027  13.251
29021W        W 2089  22.649  44.542  10.666
29022W        W 2090  39.450  10.448   0.892
29023W        W 2091  30.392   9.968   1.877
29024W        W 2092  18.040  38.468   4.243
29025W        W 2093  10.460  25.078  10.652
29026W        W 2094  34.264  41.792   4.582
29027W        W 2095   9.116  29.380  10.815
29028W        W 2096  13.677   1.212   4.381
29029W        W 2097   3.909  20.248  11.213
29030W        W 2098  34.802  31.400   5.091
29031W        W 2099   4.640   0.881  11.533
29032W        W 2100  10.876  22.120   2.251
29033W        W 2101   2.376  30.039  14.836
29034W        W 2102  10.875   0.474   0.215
29035W        W 2103  41.430  43.842   3.899
29036W        W 2104   8.164  29.457   0.782
29037W        W 2105  10.395  36.433  14.828
29038W        W 2106  27.033  40.047  14.519
29039W        W 2107  43.569  35.349  12.429
29040W        W 2108  11.556   4.905  14.783
29041W        W 2109  28.698   5.986  12.102
29042W        W 2110  13.181  23.638  13.956
29043W        W 2111  14.191  21.671  14.940
29044W        W 2112  33.996  19.505  10.548
29045W        W 2113  32.594  35.417   0.838
29046W        W 2114  19.718  37.088  13.494
29047W        W 2115  42.055  17.178  13.433
29048W        W 2116  41.444  31.864  11.269
29049W        W 2117   8.599  14.054   2.225
29050W        W 2118  29.472  26.353  12.280
29051W        W 2119  10.249  39.956   0.336
29052W        W 2120  17.089  44.157   3.454
29053W        W 2121  35.996  33.741   2.961
29054W        W 2122  22.667  14.639   2.350
29055W        W 2123  41.628  21.258   9.757
29056W        W 2124  29.203   1.410   0.923
29057W        W 2125  32.683  15.393  12.636
29058W        W 2126   6.243  11.218  10.748
29059W        W 2127  33.851  21.634  13.866
29060W        W 2128  37.253  33.404  13.830
29061W        W 2129  40.373  32.145  12.224
29062W        W 2130  25.780  42.340  10.653
29063W        W 2131  38.091  13.136  13.077
29064W        W 2132  18.960  15.652  14.211
29065W        W 2133  12.418  23.920   1.211
29066W        W 2134  21.818  40.512   1.290
29067W        W 2135  33.948  19.295   1.515
29068W        W 2136  19.707  25.445   3.088
29069W        W 2137   7.759   5.957   4.367
29070W        W 2138  15.680  22.445  11.667
29071W        W 2139   9.267  38.395  13.042
29072W        W 2140   5.709  32.057   3.782
29073W        W 2141   3.193  11.033   2.260
29074W        W 2142  44.386   1.884   1.232
29075W        W 2143   1.465   3.867   2.765
29076W        W 2144  23.820  34.409  13.084
29077W        W 2145  24.225  44.249   0.044
29078W        W 2146  21.669  34.426  12.324
29079W        W 2147  20.774  38.112   1.870
29080W        W 2148  12.850   1.440  12.848
29081W        W 2149  16.318  15.079  12.594
29082W        W 2150  32.560  11.932   0.453
29083W        W 2151   7.827  17.240  12.564
29084W        W 2152  24.537  44.601  11.469
29085W        W 2153  14.693  16.292  12.859
29086W        W 2154  39.002  21.018  11.509
29087W        W 2155  20.958  22.413   5.084
29088W        W 2156   4.216  13.579  14.928
29089W        W 2157  27.547  41.978  14.280
29090W        W 2158  15.660  19.105  13.412
29091W        W 2159   7.066  10.479  12.920
29092W        W 2160   7.388  14.110   2.673
29093W        W 2161  15.074  28.975   4.510
29094W        W 2162  27.091   6.797  12.065
29095W        W 2163  44.101  18.179   0.913
29096W        W 2164   7.552  33.605   1.867
29097W        W 2165  17.145  43.321  10.566
29098W        W 2166  34.117  39.239  14.028
29099W        W 2167  29.452  26.351  10.203
29100W        W 2168   8.244   7.244   4.036
29101W        W 2169   2.791   4.872   3.208
29102W        W 2170   1.094  19.280  13.159
29103W        W 2171  30.662  22.591   0.441
29104W        W 2172  14.461   5.236   4.070
29105W        W 2173  31.688  44.970   1.310
29106W        W 2174  35.843  12.705  11.986
29107W        W 2175  14.624  39.477  10.573
29108W        W 2176  29.438  24.970   1.832
29109W        W 2177  26.603  37.058  10.748
29110W        W 2178  10.378  28.957  14.243
29111W        W 2179  29.844  14.275  14.964
29112W        W 2180  30.518   1.812   1.816
29113W        W 2181  39.357  18.827  14.231
29114W        W 2182  19.532  37.149   4.191
29115W        W 2183  31.426  12.852   3.632
29116W        W 2184   2.231   6.627  11.866
29117W        W 2185  43.507  11.848  13.827
29118W        W 2186  38.543  24.177  12.538
29119W        W 2187  25.629  10.744   2.808
29120W        W 2188  39.353  12.866  14.988
29121W        W 2189  41.771  24.351  11.174
29122W        W 2190  16.083  41.866   0.605
29123W        W 2191   6.601   5.488  13.252
29124W        W 2192  15.258   1.305  13.915
29125W        W 2193  10.258  25.257   1.800
29126W        W 2194   7.958  32.398   3.694
29127W        W 2195  40.446  33.652   0.350
29128W        W 2196  27.970  28.972   4.336
29129W        W 2197  12.180  29.981  13.067
29130W        W 2198  16.314   4.515   0.384
29131W        W 2199  34.667  11.091   3.538
29132W        W 2200   4.870  43.479  13.586
29133W        W 2201   9.729   6.830  12.650
29134W        W 2202   4.019   0.410   2.136
29135W        W 2203  23.419  10.707  14.848
29136W        W 2204   6.702  27.106   1.424
29137W        W 2205  43.841  29.386   4.826
29138W        W 2206  40.021  32.340   2.662
29139W        W 2207  27.478  40.661  11.969
29140W        W 2208  43.972  41.917   0.287
29141W        W 2209  25.832  15.719   4.515
29142W        W 2210  16.707  42.865  10.034
29143W        W 2211  32.498  30.619  12.517
29144W        W 2212  39.263  16.009   2.330
29145W        W 2213   2.420  18.370  12.549
29146W        W 2214  27.377   1.005  13.046
29147W        W 2215   0.474  44.049  11.182
29148W        W 2216  37.803   4.380  11.052
29149W        W 2217  25.199   3.916  14.989
29150W        W 2218  41.860   1.205   2.349
29151W        W 2219  24.733  18.613  11.146
29152W        W 2220   1.235  28.727  13.088
29153W        W 2221  44.986  29.896  11.794
29154W        W 2222  29.508  24.720  14.697
29155W        W 2223   9.609  23.866   4.658
29156W        W 2224   8.183  11.435  12.204
29157W        W 2225  16.350  40.422  12.098
29158W        W 2226  15.755  38.283  11.904
29159W        W 2227  41.921  26.498  11.550
29160W        W 2228  24.195  44.444   2.684
29161W        W 2229  14.997  28.650  14.385
29162W        W 2230  16.256  22.961   0.788
29163W        W 2231  35.714  38.060   0.800
29164W        W 2232  32.956  42.787  14.288
29165W        W 2233  10.726   4.450   4.212
29166W        W 2234   7.110   4.766  13.526
29167W        W 2235  23.774  31.279   3.315
29168W        W 2236  19.705   9.331   0.305
29169W        W 2237  33.113   8.287  10.356
29170W        W 2238  25.440  15.446   3.193
29171W        W 2239  19.160  44.893  10.428
29172W        W 2240   9.143  17.053   2.744
29173W        W 2241  32.124  35.613   0.683
29174W        W 2242  34.392  42.519   4.311
29175W        W 2243  20.752   2.547  13.901
29176W        W 2244  29.236  25.694  13.707
29177W        W 2245   0.331  13.719  12.991
29178W        W 2246  18.180   8.602  11.554
29179W        W 2247  26.596   7.255   4.062
29180W        W 2248  30.974  39.974   3.439
29181W        W 2249  22.681  44.431   0.530
29182W        W 2250  19.021   0.884   1.759
29183W        W 2251  21.720  42.127  11.669
29184W        W 2252  32.340  35.877  13.963
29185W        W 2253  39.529  32.511   1.916
29186W        W 2254  43.741  35.676  11.256
29187W        W 2255  20.288  25.280  12.951
29188W        W 2256   7.735  26.186   2.257
29189W        W 2257  19.273  33.441  13.837
29190W        W 2258  11.598  10.270  10.797
29191W        W 2259  38.294  21.710  13.572
29192W        W 2260  33.044  33.931   4.731
29193W        W 2261  34.473  37.951  13.170
29194W        W 2262  28.675  33.899   3.739
29195W        W 2263  13.137  27.693   4.604
29196W        W 2264   6.784  14.104  12.291
29197W        W 2265  18.128  37.078  13.527
29198W        W 2266  13.089   5.473   4.119
29199W        W 2267  32.978  35.887  11.315
29200W        W 2268  33.876  23.912  14.970
29201W        W 2269  40.897  36.970   1.204
29202W        W 2270   0.746  41.541  10.275
29203W        W 2271  22.128  39.767  14.322
29204W        W 2272  32.061  25.288  14.388
29205W        W 2273   4.027  35.487  13.475
29206W        W 2274   8.480   2.902  13.371
29207W        W 2275  19.628  34.006  13.364
29208W        W 2276  22.588  15.334  14.204
29209W        W 2277  13.005  31.986  13.980
29210W        W 2278   8.876   3.841   5.062
29211W        W 2279  21.008   4.185  13.568
29212W        W 2280   7.431   9.707  10.529
29213W        W 2281  15.156  24.408   4.143
29214W        W 2282  32.444  17.043   2.254
29215W        W 2283   8.819  17.645   4.530
29216W        W 2284  25.850   6.352  11.971
29217W        W 2285  35.493  33.379   0.361
29218W        W 2286  16.622   1.284   1.815
29219W        W 2287  28.977  25.664  11.583
29220W        W 2288  15.583  20.497   4.232
29221W        W 2289  22.703  23.972   1.404
29222W        W 2290  11.742  20.339  12.600
29223W        W 2291  12.201  16.804   3.158
29224W        W 2292   2.041  10.385  14.051
29225W        W 2293  18.139  26.120   1.836
29226W        W 2294  32.640  19.179   4.072
29227W        W 2295  35.206  44.073  11.440
29228W        W 2296  27.329  26.457  10.196
29229W        W 2297  23.524  15.295   4.004
29230W        W 2298   3.131  40.854  14.355
29231W        W 2299  18.478   4.665   4.262
29232W        W 2300  19.052  44.348  12.137
29233W        W 2301  12.935  27.254  14.421
29234W        W 2302  42.546  20.179   4.906
29235W        W 2303   4.657  42.273   1.791
29236W        W 2304  16.064  28.678  14.350
29237W        W 2305  22.579   0.691   3.582
29238W        W 2306   4.428  19.528   0.824
29239W        W 2307  36.515   1.700  12.827
29240W        W 2308  14.151  27.472  12.993
29241W        W 2309  42.581  12.921  10.391
29242W        W 2310  17.631  21.721  10.705
29243W        W 2311  44.414  35.030  13.790
29244W        W 2312  28.732  36.072   4.066
29245W        W 2313  18.169  35.425   1.692
29246W        W 2314  38.755   0.965  12.996
29247W        W 2315  40.976  23.663  12.381
29248W        W 2316  20.106  29.090   4.843
29249W        W 2317   4.695  44.645  14.899
29250W        W 2318  26.877   3.775   0.079
29251W        W 2319  27.382  37.989  11.499
29252W        W 2320  10.632  22.441  12.100
29253W        W 2321  25.177  26.684  11.927
29254W        W 2322  17.773  30.431  11.588
29255W        W 2323   8.401  36.962   3.057
29256W        W 2324   0.498  16.200   4.569
29257W        W 2325  25.011  40.438  12.862
29258W        W 2326   0.999  23.609  14.955
29259W        W 2327   5.945  26.703  11.911
29260W        W 2328  12.901   1.209  11.931
29261W        W 2329  25.355  37.347  10.470
29262W        W 2330  18.984  37.752   2.200
29263W        W 2331  38.379  31.642  12.065
29264W        W 2332  38.286  32.586   2.747
29265W        W 2333  31.146  39.297  12.864
29266W        W 2334  15.676   0.832   1.695
29267W        W 2335  37.370  40.553  10.929
29268W        W 2336  10.153  16.573   3.642
29269W        W 2337  31.013   7.065   0.853
29270W        W 2338  38.392   0.949   3.318
29271W        W 2339   4.923   1.337  12.893
29272W        W 2340  12.071  13.733  13.601
29273W        W 2341  36.425  15.164  13.826
29274W        W 2342  12.423  22.174  12.462
29275W        W 2343  22.627  16.032   4.271
29276W        W 2344  26.542  44.760  13.826
29277W        W 2345   6.901  18.830  12.919
29278W        W 2346  28.057  34.103   0.697
29279W        W 2347  41.779  24.038   3.118
29280W        W 2348  18.117  42.013   3.216
29281W        W 2349  39.773  24.586  12.089
29282W        W 2350  28.451   3.066  11.031
29283W        W 2351  41.185  40.290   0.824
29284W        W 2352  37.330  43.222   3.088
29285W        W 2353   7.335  35.432   4.296
29286W        W 2354  38.291   9.789   1.541
29287W        W 2355   3.298  43.245   1.308
29288W        W 2356  39.847  39.879  12.426
29289W        W 2357   7.242   9.760   1.845
29290W        W 2358  41.520  17.275   2.011
29291W        W 2359  24.743  13.835  13.520
29292W        W 2360  40.392   8.746   3.135
29293W        W 2361  12.665   6.923  12.175
29294W        W 2362  26.201   6.197   4.673
29295W        W 2363  37.069  31.008  11.173
29296W        W 2364  13.205   2.437  12.097
29297W        W 2365   0.011  40.257  14.268
29298W        W 2366   7.798  29.882   0.988
29299W        W 2367  40.026  40.923   3.789
29300W        W 2368  22.443  35.526   3.697
29301W        W 2369  33.915  12.037   2.454
29302W        W 2370  10.832  15.903   0.461
29303W        W 2371  42.316  37.363   4.168
29304W        W 2372  27.390  19.655   4.721
29305W        W 2373   8.750  27.924   0.340
29306W        W 2374  22.658  19.637   0.949
29307W        W 2375   4.298   3.919   0.054
29308W        W 2376  44.759  19.000  14.874
29309W        W 2377  39.578   9.635  11.190
29310W        W 2378  31.369  14.715  11.121
29311W        W 2379   1.152  40.317  12.342
29312W        W 2380   0.252   7.420   3.410
29313W        W 2381  20.067  44.476   0.239
29314W        W 2382  38.463  24.050  10.574
29315W        W 2383  22.697  39.059  13.556
29316W        W 2384   5.942   8.895   4.322
29317W        W 2385  31.688  43.778   5.084
29318W        W 2386  20.572  14.825   3.552
29319W        W 2387   0.824  29.525   2.640
29320W        W 2388  12.940   1.945  14.861
29321W        W 2389  20.793   7.617   3.531
29322W        W 2390   5.974  41.972   2.275
29323W        W 2391   3.420   5.906  13.612
29324W        W 2392  44.824  33.950   1.655
29325W        W 2393  13.016  16.596   5.251
29326W        W 2394  28.562  11.574   1.521
29327W        W 2395  10.637  37.708   0.908
29328W        W 2396  15.850  42.733   0.368
29329W        W 2397  37.421  32.955   2.042
29330W        W 2398  36.033   9.619   1.372
29331W        W 2399  27.164  22.500  12.430
29332W        W 2400  19.598   1.699  10.699
29333W        W 2401  41.949  11.768   2.698
29334W        W 2402  32.963   4.813  12.730
29335W        W 2403  37.532  25.522  11.652
29336W        W 2404  30.547   1.710   0.712
29337W        W 2405  40.591   1.588   5.710
29338W        W 2406  29.188  19.683   2.888
29339W        W 2407   0.878  44.839  11.647
29340W        W 2408  31.228   2.659  14.116
29341W        W 2409  17.065  42.508   0.992
29342W        W 2410  38.616  30.813   2.138
29343W        W 2411  21.000  25.202  11.584
29344W        W 2412  32.610   1.210   2.407
29345W        W 2413  10.739  21.031   2.327
29346W        W 2414  33.155  16.579  14.123
29347W        W 2415  26.398  33.886  11.112
29348W        W 2416  10.251  26.738   3.810
29349W        W 2417  20.816   7.176  14.926
29350W        W 2418   3.985  12.924  10.658
29351W        W 2419  41.905  35.889  11.932
29352W        W 2420  17.390  39.781   0.239
29353W        W 2421   0.875  36.049   0.300
29354W        W 2422  32.524  38.058  12.840
29355W        W 2423  18.030  36.012  14.426
29356W        W 2424  24.518  30.402  11.075
29357W        W 2425  20.142   2.308   0.497
29358W        W 2426  39.313   2.824   0.489
29359W        W 2427  16.758  25.293  11.137
29360W        W 2428  38.866  32.848   1.918
29361W        W 2429  16.281  10.907  14.496
29362W        W 2430  15.221  35.840  10.346
29363W        W 2431  42.405   5.671  11.873
29364W        W 2432  33.436  22.149   0.013
29365W        W 2433   7.323  42.464  11.785
29366W        W 2434  17.740  38.433  11.481
29367W        W 2435  20.063  18.483   4.719
29368W        W 2436  37.448  40.821   0.205
29369W        W 2437  37.855  43.500   4.037
29370W        W 2438  28.780   7.269   3.674
29371W        W 2439  35.578   3.718  12.543
29372W        W 2440  33.646   7.715  11.967
29373W        W 2441   1.782  21.840  13.876
29374W        W 2442  16.341  29.177   0.965
29375W        W 2443  21.217  30.768  11.454
29376W        W 2444  19.033  25.565   2.754
29377W        W 2445  42.862  34.435   3.232
29378W        W 2446   6.328  31.084   3.841
29379W        W 2447   2.233  18.222  14.004
29380W        W 2448   5.198  15.447   2.074
29381W        W 2449   8.669  17.109  11.900
29382W        W 2450  41.264  18.658  14.093
29383W        W 2451  20.936  16.240  14.837
29384W        W 2452   8.637  15.461  12.289
29385W        W 2453   3.010  23.730  13.519
29386W        W 2454  16.699  22.335   0.387
29387W        W 2455  36.688  21.134  13.098
29388W        W 2456   7.264   8.396   4.355
29389W        W 2457  43.400   0.825   1.940
29390W        W 2458   7.185  38.978   2.911
29391W        W 2459  22.133  24.144  11.574
29392W        W 2460   0.091  30.869   2.244
29393W        W 2461  22.325  33.009   1.782
29394W        W 2462   4.813  31.019   0.966
29395W        W 2463  23.697  13.646   1.704
29396W        W 2464  21.897  23.911  13.508
29397W        W 2465  38.301  17.481  12.327
29398W        W 2466  25.021  20.213   3.729
29399W        W 2467   0.359  16.809  14.088
29400W        W 2468  26.144  41.237  10.826
29401W        W 2469   9.892  16.800   3.242
29402W        W 2470   1.017  21.186   4.475
29403W        W 2471  11.405  37.460  10.646
29404W        W 2472  43.572  18.544  13.460
29405W        W 2473  26.947   7.781   1.017
29406W        W 2474   6.150  14.305  12.643
29407W        W 2475  32.825  25.839  11.591
29408W        W 2476  16.473  37.642  13.458
29409W        W 2477   9.340  33.039   2.969
29410W        W 2478  12.260  42.727   4.867
29411W        W 2479   0.206  18.988  11.115
29412W        W 2480  21.995  33.023  11.950
29413W        W 2481  34.416  10.770   4.310
29414W        W 2482   9.024  29.729   0.825
29415W        W 2483  25.747  20.737  10.706
29416W        W 2484   1.952  40.614  11.940
29417W        W 2485   0.068   9.813  13.405
29418W        W 2486  17.713  16.909   0.702
29419W        W 2487  15.122   7.728  13.811
29420W        W 2488  14.562  15.725  12.124
29421W        W 2489  30.922   1.349   3.701
29422W        W 2490  25.036  44.708   0.020
29423W        W 2491  18.529  40.542  10.838
29424W        W 2492  24.178  34.044  13.301
29425W        W 2493  19.302  30.839  14.840
29426W        W 2494  18.673  28.703   0.887
29427W        W 2495   8.066  31.189   4.093
29428W        W 2496  18.733  35.866   2.785
29429W        W 2497  35.585   0.324   1.909
29430W        W 2498  37.541  34.021  10.866
29431W        W 2499  27.091  29.917   0.528
29432W        W 2500  30.358   2.400  12.983
29433W        W 2501  13.633  16.151   1.714
29434W        W 2502  26.216  20.593   0.138
29435W        W 2503   6.070  25.951  13.368
29436W        W 2504  34.296   5.939   2.325
29437W        W 2505   9.642  22.523   4.620
29438W        W 2506  38.999  44.268  11.558
29439W        W 2507  34.944  13.183   0.007
29440W        W 2508  22.250  41.299   0.908
29441W        W 2509  20.218  41.022  14.769
29442W        W 2510  43.837   2.521   0.888
29443W        W 2511  16.507  36.143  12.095
29444W        W 2512  26.603  33.399   0.326
29445W        W 2513   6.188   0.528   4.846
29446W        W 2514  24.690  39.964   1.499
29447W        W 2515  29.372  37.143   2.752
29448W        W 2516  44.062  44.330   3.868
29449W        W 2517  17.142   2.335  10.999
29450W        W 2518  16.051   1.941   4.092
29451W        W 2519   4.446  33.943  10.764
29452W        W 2520  37.892  10.338   2.854
29453W        W 2521  16.047   0.204  14.735
29454W        W 2522  40.886  33.549  10.524
29455W        W 2523   8.704   8.972   2.866
29456W        W 2524  34.035  25.557   1.417
29457W        W 2525   5.239  19.588  12.867
29458W        W 2526  23.247   3.927  10.673
29459W        W 2527  23.662   7.601  12.005
29460W        W 2528  19.162  43.873  11.915
29461W        W 2529  30.859  16.771   3.628
29462W        W 2530  13.908  27.459   3.624
29463W        W 2531  31.592  25.597   0.791
29464W        W 2532  17.928  17.947   4.202
29465W        W 2533  24.683  14.090   2.989
29466W        W 2534   9.102  25.178  13.295
29467W        W 2535  11.770  14.160  12.839
29468W        W 2536  22.687   2.204  13.908
29469W        W 2537  40.248  26.625   0.502
29470W        W 2538  24.312  22.105   4.270
29471W        W 2539  27.752   9.401  12.810
29472W        W 2540  29.190  19.006   1.008
29473W        W 2541  34.038   5.279  11.368
29474W        W 2542   9.784  28.489   4.181
29475W        W 2543  15.817   0.202  12.097
29476W        W 2544  28.985  31.868   2.067
29477W        W 2545  25.887  20.845   1.692
29478W        W 2546   8.302   1.716  14.095
29479W        W 2547   5.755  23.285  12.449
29480W        W 2548  17.760   8.154   3.898
29481W        W 2549  41.184  34.703  11.617
29482W        W 2550  15.531  33.192  13.539
29483W        W 2551  27.425  43.747   0.868
29484W        W 2552  13.510   5.132  12.434
29485W        W 2553  18.181  26.490  12.970
29486W        W 2554   6.673  43.864  10.641
29487W        W 2555  28.230   7.487   9.926
29488W        W 2556  36.485  24.459   0.486
29489W        W 2557  28.210   9.778  11.502
29490W        W 2558  34.961   3.846   0.222
29491W        W 2559   6.833  42.777  12.051
29492W        W 2560  43.478  11.700  11.979
29493W        W 2561  13.089  41.309  13.541
29494W        W 2562   1.837   7.345   0.498
29495W        W 2563  40.214  24.183  14.873
29496W        W 2564  37.001  10.763  14.116
29497W        W 2565  27.979  19.646   5.161
29498W        W 2566  38.194  24.720   2.625
29499W        W 2567  28.575  33.553  10.362
29500W        W 2568  17.499  16.264   0.431
29501W        W 2569  23.819  28.945   0.086
29502W        W 2570  28.076   7.351  10.457
29503W        W 2571  25.228  22.978   1.088
29504W        W 2572  12.767  20.433  13.576
29505W        W 2573  11.951  44.376  13.899
29506W        W 2574   7.910  32.762  11.296
29507W        W 2575  32.523   2.685   3.681
29508W        W 2576  39.154  22.654   3.128
29509W        W 2577  10.621  29.608   2.743
29510W        W 2578  43.035  36.583  13.916
29511W        W 2579  15.204  22.512  10.787
29512W        W 2580  39.435  39.880   4.231
29513W        W 2581  21.354  25.598   0.756
29514W        W 2582  15.236  27.941   4.256
29515W        W 2583  17.957  14.692   0.847
29516W        W 2584  44.797  16.500   0.908
29517W        W 2585  24.130  35.991   0.408
29518W        W 2586  17.207   4.575  13.755
29519W        W 2587  41.948  24.694   4.554
29520W        W 2588  21.119   9.283  14.191
29521W        W 2589  17.683  38.571  13.308
29522W        W 2590  39.182  21.960  12.045
29523W        W 2591   3.874  41.413  14.322
29524W        W 2592  10.698  25.244  11.594
29525W        W 2593  44.451  11.671   1.708
29526W        W 2594  11.693   0.983  10.663
29527W        W 2595  12.839  34.705  13.433
29528W        W 2596   7.828  24.037  11.932
29529W        W 2597   5.365  43.473  14.770
29530W        W 2598  20.452   2.403   1.839
29531W        W 2599   9.706   0.414  12.773
29532W        W 2600  23.601  20.619   3.774
29533W        W 2601  21.521  18.237  10.876
29534W        W 2602  36.067   3.674  14.879
29535W        W 2603  14.459   2.654   2.760
29536W        W 2604   7.757  25.353  11.629
29537W        W 2605  38.579  38.416   1.413
29538W        W 2606   5.477  26.605   3.175
29539W        W 2607  33.110  37.726   1.474
29540W        W 2608  14.093  30.003   0.394
29541W        W 2609  42.215  27.288  11.122
29542W        W 2610   0.946   7.776  12.640
29543W        W 2611  36.378  26.239   1.758
29544W        W 2612  40.626  41.342  13.980
29545W        W 2613  28.040  32.562   4.553
29546W        W 2614  11.441   5.230   1.011
29547W        W 2615  12.814   6.328  13.958
29548W        W 2616   4.692  44.810   2.399
29549W        W 2617  14.941  29.372  14.160
29550W        W 2618  22.959  39.006   0.888
29551W        W 2619  27.148  20.031  12.398
29552W        W 2620  17.859   3.452  13.492
29553W        W 2621  40.005  11.956   3.640
29554W        W 2622  30.435  20.725   1.927
29555W        W 2623  25.554  25.420   4.083
29556W        W 2624  14.655   6.425  13.594
29557W        W 2625   4.297   5.033   2.614
29558W        W 2626  23.579   1.855   3.917
29559W        W 2627  34.383  25.855  10.653
29560W        W 2628  36.603  40.452   3.579
29561W        W 2629  17.199   0.002  14.416
29562W        W 2630   6.459  40.383  14.440
29563W        W 2631  30.175  40.128   1.875
29564W        W 2632  36.851  27.029  11.972
29565W        W 2633   3.511   5.483   2.145
29566W        W 2634   0.336  10.362  10.620
29567W        W 2635   5.948  33.027   1.571
29568W        W 2636  31.032  16.036   2.440
29569W        W 2637  20.824  42.324   2.937
29570W        W 2638   7.788  11.248  13.493
29571W        W 2639  20.547  17.365   4.898
29572W        W 2640   0.552   8.190   2.788
29573W        W 2641  43.274  34.456   4.519
29574W        W 2642  19.721  28.080  12.013
29575W        W 2643  35.635  33.502  13.350
29576W        W 2644  25.350  34.784  13.534
29577W        W 2645   1.826  14.771   4.151
29578W        W 2646  19.818  42.587   4.747
29579W        W 2647  32.928  25.493  13.051
29580W        W 2648  24.271  28.165  10.992
29581W        W 2649   9.584   8.128  10.465
29582W        W 2650  23.014   0.907   4.790
29583W        W 2651  16.562  28.947  10.623
29584W        W 2652  15.305  15.042   2.262
29585W        W 2653  21.301   9.328  14.687
29586W        W 2654  15.584  19.215   4.711
29587W        W 2655  18.487  33.579   2.938
29588W        W 2656  11.132  10.623  10.123
29589W        W 2657  41.968  31.140   0.122
29590W        W 2658  41.565  37.642   2.912
29591W        W 2659  31.375  43.330   4.357
29592W        W 2660  42.560  35.398   4.687
29593W        W 2661  28.007   2.378  12.093
29594W        W 2662  11.760   4.826  12.993
29595W        W 2663  14.368  20.227   0.709
29596W        W 2664   4.407  30.928  13.644
29597W        W 2665  11.751  14.777   3.740
29598W        W 2666  37.540   8.588  14.970
29599W        W 2667  18.539  36.306   4.860
29600W        W 2668  12.890   2.454  14.990
29601W        W 2669  10.637   3.160  11.028
29602W        W 2670  38.401  24.932  10.483
29603W        W 2671  33.891  11.160   1.602
29604W        W 2672   2.891  16.070  11.617
29605W        W 2673  32.947  43.516   2.819
29606W        W 2674  19.754  44.075  12.072
29607W        W 2675  15.728  32.309   5.005
29608W        W 2676  10.257  28.099  11.390
29609W        W 2677  28.522  44.849  12.416
29610W        W 2678  10.863   1.077   3.352
29611W        W 2679   7.673  24.286  13.101
29612W        W 2680  29.565   8.741   9.911
29613W        W 2681  30.541  21.302   1.985
29614W        W 2682   6.186  35.386   3.667
29615W        W 2683  30.483  27.259   0.188
29616W        W 2684  32.366  20.673   0.874
29617W        W 2685  39.751  36.649  12.396
29618W        W 2686  22.653  24.199  10.777
29619W        W 2687  18.193  44.212   2.627
29620W        W 2688  15.663  13.976   0.564
29621W        W 2689  37.353  42.226  11.655
29622W        W 2690  32.453  22.542  12.404
29623W        W 2691  11.927  37.376  13.360
29624W        W 2692  26.706   8.392  11.583
29625W        W 2693  43.254  14.888   1.073
29626W        W 2694  24.556  25.682   1.294
29627W        W 2695  18.542  13.882  10.334
29628W        W 2696  31.871  12.174  13.013
29629W        W 2697  26.511   6.335   1.421
29630W        W 2698  16.591  44.426   3.297
29631W        W 2699  21.708  43.027  14.829
29632W        W 2700  22.434  24.782   2.748
29633W        W 2701  15.303  19.529   1.783
29634W        W 2702  25.242  11.826   3.407
29635W        W 2703  18.828   6.571   5.056
29636W        W 2704  20.729   0.498  13.036
29637W        W 2705   3.414  36.340  10.823
29638W        W 2706  17.882  25.513   2.634
29639W        W 2707  10.828   0.006   0.418
29640W        W 2708  34.599  43.802   2.902
29641W        W 2709  30.182  18.976  14.039
29642W        W 2710  12.842   7.331  13.550
29643W        W 2711   2.283   5.287  11.439
29644W        W 2712  23.538   0.807   1.670
29645W        W 2713  16.615  19.942   0.357
29646W        W 2714   3.342  26.417   0.060
29647W        W 2715  42.522  37.933  13.434
29648W        W 2716  33.653  31.712  13.888
29649W        W 2717  18.520  27.994  10.704
29650W        W 2718  32.580  16.781   3.736
29651W        W 2719  22.058  43.366  13.038
29652W        W 2720  28.325   4.424   1.817
29653W        W 2721  18.791  25.591   0.784
29654W        W 2722  29.409  31.638  12.958
29655W        W 2723   8.030  13.819   4.804
29656W        W 2724   9.312  44.946  12.088
29657W        W 2725  26.622  16.268  13.867
29658W        W 2726  15.630   6.736  11.574
29659W        W 2727   4.431  40.588  12.887
29660W        W 2728  17.284  22.669   0.835
29661W        W 2729  15.338  13.783   1.841
29662W        W 2730   8.756  19.545  12.015
29663W        W 2731   7.469  37.779  11.079
29664W        W 2732  37.543  40.851   0.718
29665W        W 2733   0.946   3.413   4.104
29666W        W 2734  24.453   0.310   4.560
29667W        W 2735  10.860  22.451  12.943
29668W        W 2736  14.077  39.238   5.075
29669W        W 2737   7.379   5.815  14.415
29670W        W 2738  17.566  28.940  12.391
29671W        W 2739  22.257   9.335   3.120
29672W        W 2740  24.215  31.486   4.232
29673W        W 2741  22.616   9.423  11.465
29674W        W 2742   2.865  28.864  14.398
29675W        W 2743  10.222  22.137   0.285
29676W        W 2744  11.788  22.746   2.811
29677W        W 2745  41.375   3.737   3.274
29678W        W 2746  14.610  28.526   4.935
29679W        W 2747  18.092   9.120   4.041
29680W        W 2748  35.587  23.677   4.540
29681W        W 2749  43.800  20.315  11.151
29682W        W 2750   8.397   3.188   2.671
29683W        W 2751  22.695  37.456  11.822
29684W        W 2752  27.861  23.699   1.209
29685W        W 2753  44.318   8.349   1.858
29686W        W 2754  33.072   8.778  14.278
29687W        W 2755  34.664  36.991   0.842
29688W        W 2756  14.321  15.294  14.047
29689W        W 2757  33.100  30.166   0.489
29690W        W 2758  13.656  35.067   2.391
29691W        W 2759   5.044  35.810   4.937
29692W        W 2760  13.748  44.329  10.304
29693W        W 2761   6.375  41.005  13.049
29694W        W 2762  34.582   6.230  12.006
29695W        W 2763  25.101  44.352  12.461
29696W        W 2764  38.741  22.992  12.586
29697W        W 2765  29.632  40.554   3.457
29698W        W 2766   9.458  35.435  11.400
29699W        W 2767  22.431  11.830   3.687
29700W        W 2768  38.574  18.186  10.631
29701W        W 2769   6.068   5.303   4.987
29702W        W 2770  16.709  40.785   2.215
29703W        W 2771   3.353  28.159  11.875
29704W        W 2772  31.547  23.088  14.603
29705W        W 2773   1.749  37.607  12.088
29706W        W 2774  15.114  29.854   4.620
29707W        W 2775   3.700  34.912   2.316
29708W        W 2776   7.777  29.931  14.515
29709W        W 2777  10.909  27.044  12.403
29710W        W 2778  36.407   4.385   4.484
29711W        W 2779  21.663  23.011  10.757
29712W        W 2780  14.584  14.214   4.210
29713W        W 2781  13.254  30.119  11.012
29714W        W 2782   8.873   6.243  11.923
29715W        W 2783  37.924  43.670   1.897
29716W        W 2784  19.336  31.014  13.937
29717W        W 2785   5.262  21.811   3.658
29718W        W 2786  32.930  27.539   1.805
29719W        W 2787  23.741  38.374   4.902
29720W        W 2788  11.819  29.964   2.146
29721W        W 2789   5.643  22.979   4.070
29722W        W 2790   9.186  19.686   4.191
29723W        W 2791   9.742   0.281   0.928
29724W        W 2792  26.515  32.382  13.386
29725W        W 2793  17.064   7.599   2.212
29726W        W 2794  28.028  39.746  14.829
29727W        W 2795  19.039  38.234   1.227
29728W        W 2796  22.772   5.263  11.513
29729W        W 2797  39.936   5.216   4.212
29730W        W 2798   9.422   7.792  11.963
29731W        W 2799  35.028  14.288   0.420
29732W        W 2800  33.914  24.481  13.433
29733W        W 2801  40.098  22.483   1.161
29734W        W 2802  32.905   2.291   3.423
29735W        W 2803   1.988  20.769  11.405
29736W        W 2804   2.513  30.926  12.492
29737W        W 2805  21.711  10.792   3.755
29738W        W 2806  17.230  20.628  13.535
29739W        W 2807  29.471  15.101  10.818
29740W        W 2808  22.252  39.280   2.204
29741W        W 2809  33.418  42.094   3.850
29742W        W 2810  31.097  22.000   1.760
29743W        W 2811  34.423  32.613   3.712
29744W        W 2812  11.418   0.849  12.632
29745W        W 2813  38.910  13.606   4.036
29746W        W 2814  31.824  34.418  10.586
29747W        W 2815  44.562  44.933  12.260
29748W        W 2816   1.516   4.814  14.049
29749W        W 2817  11.715   4.443  12.418
29750W        W 2818  39.425  38.892  13.375
29751W        W 2819  42.577  34.987  14.421
29752W        W 2820  23.546  34.007  12.937
29753W        W 2821  28.433   5.406  11.181
29754W        W 2822  16.297   3.866  14.172
29755W        W 2823   4.984  22.198  10.288
29756W        W 2824  17.767  41.045  13.075
29757W        W 2825  43.590  25.396  11.616
29758W        W 2826  19.690  44.909  14.695
29759W        W 2827  40.225   4.682  14.405
29760W        W 2828   9.727   8.964  12.556
29761W        W 2829  42.410  20.040  14.825
29762W        W 2830   1.547  37.729   4.328
29763W        W 2831   4.703  20.705  14.095
29764W        W 2832  26.180  27.026   0.461
29765W        W 2833  33.098   8.679   4.565
29766W        W 2834   8.911  23.678   3.416
29767W        W 2835  16.997   4.153  13.517
29768W        W 2836  30.092  33.067   0.830
29769W        W 2837  36.001  34.151  12.964
29770W        W 2838  34.455  32.106   5.044
29771W        W 2839  21.324  12.168  13.598
29772W        W 2840   9.340   4.298   0.260
29773W        W 2841  16.782   2.296   0.608
29774W        W 2842  37.124  31.464  13.806
29775W        W 2843  13.121  15.205   4.283
29776W        W 2844  20.193  21.959   0.012
29777W        W 2845  28.240  22.689  11.091
29778W        W 2846  12.606  32.400   0.772
29779W        W 2847  15.524  42.397   3.032
29780W        W 2848  13.955  16.579  12.074
29781W        W 2849  28.955  11.595   1.207
29782W        W 2850  18.235   8.465  14.408
29783W        W 2851  28.501  43.790   2.740
29784W        W 2852   3.655  32.937  11.089
29785W        W 2853   6.333  12.828  13.768
29786W        W 2854  24.158  42.191  14.174
29787W        W 2855  24.619  17.538   5.052
29788W        W 2856  33.945  37.600  11.065
29789W        W 2857   9.855  18.233   3.975
29790W        W 2858  37.898  33.053  13.315
29791W        W 2859   6.617  23.712   3.229
29792W        W 2860  41.972  15.660   3.163
29793W        W 2861  33.393  28.164   2.163
29794W        W 2862  44.242   0.682   2.294
29795W        W 2863  28.132  23.519   2.318
29796W        W 2864  24.586  19.251   2.334
29797W        W 2865  27.731  28.522  12.158
29798W        W 2866   1.008  43.980  10.576
29799W        W 2867  23.683  27.965   3.848
29800W        W 2868  27.113  28.941  11.084
29801W        W 2869  32.586  19.563   0.313
29802W        W 2870   4.435  42.638  12.012
29803W        W 2871  41.319  22.487   4.240
29804W        W 2872  29.069  12.513  13.508
29805W        W 2873   5.291   2.975   0.364
29806W        W 2874  30.478  34.058   3.616
29807W        W 2875  38.501  23.588   2.719
29808W        W 2876  18.191  32.966  12.133
29809W        W 2877  11.290  23.018   2.359
29810W        W 2878  12.828  44.208  12.112
29811W        W 2879  33.305  33.924  14.331
29812W        W 2880  14.177  36.144  11.235
29813W        W 2881  10.385  11.575  12.240
29814W        W 2882  41.438  10.050   3.200
29815W        W 2883  41.392  31.351  13.407
29816W        W 2884  17.564  14.284  11.932
29817W        W 2885  21.010  35.343  14.010
29818W        W 2886  41.857  20.469  13.430
29819W        W 2887   9.669  31.402  12.539
29820W        W 2888   3.504  17.845  13.331
29821W        W 2889  30.037  19.758   1.947
29822W        W 2890   6.761  39.094   3.751
29823W        W 2891   6.334  10.187  14.430
29824W        W 2892  25.514  35.261   4.106
29825W        W 2893  29.172   6.318   2.790
29826W        W 2894  11.442  29.948  14.344
29827W        W 2895   7.274  43.701  13.856
29828W        W 2896  17.694  43.756   4.605
29829W        W 2897  21.477   2.056   4.565
29830W        W 2898  40.561  26.628  11.911
29831W        W 2899  26.614  11.701  13.674
29832W        W 2900   6.493  26.755  11.947
29833W        W 2901  11.740  15.010  12.166
29834W        W 2902  23.660  44.390  10.984
29835W        W 2903   2.482  32.403  10.854
29836W        W 2904  10.891  16.334   3.183
29837W        W 2905  32.972  25.941   0.757
29838W        W 2906   1.707   3.433  14.532
29839W        W 2907  12.838  41.753   4.252
29840W        W 2908  42.301  11.249   0.843
29841W        W 2909  42.911   2.359  12.112
29842W        W 2910  32.635  11.874  13.819
29843W        W 2911  21.773  44.366   2.829
29844W        W 2912  34.989  23.511  10.253
29845W        W 2913  44.937  21.249  14.060
29846W        W 2914  43.236   7.189  11.491
29847W        W 2915  28.533   9.144   3.805
29848W        W 2916   7.892  38.733   4.577
29849W        W 2917  39.035  17.779  13.453
29850W        W 2918   4.257  29.867  11.693
29851W        W 2919  28.564  41.566  14.084
29852W        W 2920  16.570  33.362   1.729
29853W        W 2921  10.551  30.121  14.761
29854W        W 2922   1.366  13.130   4.522
29855W        W 2923  24.733  33.502  13.930
29856W        W 2924  17.208  29.722   4.117
29857W        W 2925  13.768  20.721   1.475
29858W        W 2926  37.054  16.768   1.688
29859W        W 2927  30.208  34.543  12.885
29860W        W 2928  40.056   0.840   1.596
29861W        W 2929  33.419  40.695  11.968
29862W        W 2930  24.754  37.034   1.331
29863W        W 2931  38.351  38.573  12.931
29864W        W 2932  29.476  41.446   5.035
29865W        W 2933   1.764  26.342  14.323
29866W        W 2934   6.711   0.872  11.893
29867W        W 2935  37.840  18.306  13.260
29868W        W 2936  41.288  36.290  13.496
29869W        W 2937   5.879  20.827  11.159
29870W        W 2938  36.817  39.432   4.637
29871W        W 2939  11.382  27.206   4.528
29872W        W 2940  21.660  17.708   0.347
29873W        W 2941  15.268  40.574  14.459
29874W        W 2942  27.983  41.818  13.505
29875W        W 2943   2.761  29.671   3.895
29876W        W 2944  39.596  39.698  14.442
29877W        W 2945  42.064   0.357   2.755
29878W        W 2946  40.677  38.223   0.506
29879W        W 2947   7.178  36.304  12.031
29880W        W 2948  27.547   2.438  12.287
29881W        W 2949  13.174  11.666  13.485
29882W        W 2950  36.099  43.588  10.775
29883W        W 2951  14.599  30.103  11.362
29884W        W 2952   6.019  37.649  11.645
29885W        W 2953  25.682  34.988   3.672
29886W        W 2954  10.869  44.574   3.297
29887W        W 2955  21.765  15.268   1.824
29888W        W 2956  14.137  13.946   4.148
29889W        W 2957  44.326  23.172   1.278
29890W        W 2958  19.389  24.906   3.750
29891W        W 2959  35.551  32.415  10.888
29892W        W 2960  15.317  24.409   2.491
29893W        W 2961  25.258  35.268   0.315
29894W        W 2962   3.439  15.726   9.859
29895W        W 2963   4.869  41.450   2.201
29896W        W 2964   9.048  27.501  13.333
29897W        W 2965  24.263  13.671  11.524
29898W        W 2966  14.209  18.596   1.299
29899W        W 2967  23.518  14.258   2.408
29900W        W 2968  43.432  32.280   2.218
29901W        W 2969  16.791  34.470   1.715
29902W        W 2970  10.117   6.964   3.411
29903W        W 2971  30.041  32.917   1.726
29904W        W 2972  41.900  32.534  14.477
29905W        W 2973  30.555  39.962   2.160
29906W        W 2974  43.386  14.767   1.576
29907W        W 2975  26.004   4.935  14.404
29908W        W 2976  24.085   6.750   2.187
29909W        W 2977   0.478  21.154   4.540
29910W        W 2978  34.396  31.414   0.545
29911W        W 2979  12.713   9.106  13.814
29912W        W 2980  42.979   3.828   4.425
29913W        W 2981  18.715   3.772  12.105
29914W        W 2982  12.712  15.627  13.059
29915W        W 2983  23.170  13.298   3.683
29916W        W 2984  20.463  10.380   2.591
29917W        W 2985  16.711   0.353   0.252
29918W        W 2986  32.197  10.544  13.081
29919W        W 2987  27.078  34.426  14.058
29920W        W 2988  24.137  36.477   3.713
29921W        W 2989   1.750  33.902  11.868
29922W        W 2990   6.406  44.277   3.820
29923W        W 2991  24.516  10.630   0.743
29924W        W 2992  35.351  43.883  13.591
29925W        W 2993  12.174  32.490  11.033
29926W        W 2994  43.845  30.574  13.609
29927W        W 2995  20.733  18.553   4.423
29928W        W 2996   7.257  41.736  12.557
29929W        W 2997  24.144  32.560   1.844
29930W        W 2998  19.940  33.380   2.016
29931W        W 2999  18.747  31.469   0.953
29932W        W 3000   2.069  17.665  10.496
29933W        W 3001  40.463   7.836  13.995
29934W        W 3002  37.924  25.305   4.612
29935W        W 3003   3.815  28.383  13.965
29936W        W 3004  32.528  22.757   1.880
29937W        W 3005  35.776   1.763  14.853
29938W        W 3006  15.298  28.647   0.258
29939W        W 3007   2.449  35.907  12.928
29940W        W 3008   0.081  18.719  12.407
29941W        W 3009  37.920  17.266   2.512
29942W        W 3010   6.131  14.646   2.753
29943W        W 3011  43.320  42.467  12.842
29944W        W 3012  18.549  30.673  11.132
29945W        W 3013  12.777  25.447  14.888
29946W        W 3014  25.208  38.933  13.349
29947W        W 3015  34.573  26.278   1.301
29948W        W 3016  35.828   8.870  14.340
29949W        W 3017  29.347  15.034   2.310
29950W        W 3018  11.845  13.726  13.119
29951W        W 3019  37.245  11.231  14.043
29952W        W 3020  17.726  35.938   2.159
29953W        W 3021  36.986   1.210   1.345
29954W        W 3022   6.879  41.960   4.282
29955W        W 3023   0.796   6.111   4.745
29956W        W 3024  10.398  10.596   2.353
29957W        W 3025  10.249  15.008  14.418
29958W        W 3026  18.117  21.505   1.856
29959W        W 3027  16.712   2.485  13.293
29960W        W 3028  31.184  18.459   4.003
29961W        W 3029  12.658  30.654  14.486
29962W        W 3030  31.925  39.727   2.900
29963W        W 3031  32.418  41.730   3.588
29964W        W 3032  32.599  11.595   2.175
29965W        W 3033   1.818  43.424   1.394
29966W        W 3034  39.163  34.495  11.526
29967W        W 3035  11.931  17.779  11.653
29968W        W 3036  25.580  30.121   0.800
29969W        W 3037  14.739   8.125   0.992
29970W        W 3038  38.998  36.245  10.224
29971W        W 3039  28.456  12.654   4.704
29972W        W 3040  17.559  29.169   3.601
29973W        W 3041  13.165  25.102  10.724
29974W        W 3042  28.431   7.596  12.994
29975W        W 3043   1.893   3.249  14.971
29976W        W 3044  35.637  25.654  13.820
29977W        W 3045  12.491  44.560   4.587
29978W        W 3046   5.193  42.891  10.915
29979W        W 3047  16.380  19.703  13.397
29980W        W 3048   6.654   9.873   3.680
29981W        W 3049  38.358  27.740  13.516
29982W        W 3050   9.697  19.562   1.474
29983W        W 3051  42.384  24.710   4.868
29984W        W 3052  13.704  42.171   0.071
29985W        W 3053  37.263  13.425   0.264
29986W        W 3054  12.730   3.438  11.321
29987W        W 3055  28.562  25.506   2.111
29988W        W 3056  33.695  28.165   0.862
29989W        W 3057  34.092  28.072  11.919
29990W        W 3058  28.081  21.738   1.688
29991W        W 3059   7.367  22.291   2.388
29992W        W 3060  36.029  19.482   1.271
29993W        W 3061   8.914   2.344   3.006
29994W        W 3062  22.155   3.952   4.534
29995W        W 3063  35.924  23.949   2.769
29996W        W 3064  41.018  26.687   0.928
29997W        W 3065  12.270  43.964   0.954
29998W        W 3066  16.743  42.480  14.953
29999W        W 3067  33.677  34.111  10.276
30000W        W 3068  16.745  24.726   4.017
30001W        W 3069  30.631   6.932   2.651
30002W        W 3070  41.819  27.760  14.722
30003W        W 3071  21.126  40.075   3.747
30004W        W 3072  41.527  26.387   4.921
30005W        W 3073  30.407  19.241   3.617
30006W        W 3074  10.146   5.339  13.915
30007W        W 3075  10.151  34.003   1.828
30008W        W 3076  23.933  33.173  10.401
30009W        W 3077  38.292  44.534  13.855
30010W        W 3078  12.689   9.604  11.009
30011W        W 3079  33.419  43.814  11.640
30012W        W 3080  36.834   4.507  11.179
30013W        W 3081  40.538  42.926   0.166
30014W        W 3082  23.591   6.809   4.836
30015W        W 3083  10.739  25.758  11.653
30016W        W 3084   6.433  32.820  11.611
30017W        W 3085   2.403  14.641   0.920
30018W        W 3086  24.587  22.592  10.727
30019W        W 3087  29.525  30.968  11.524
30020W        W 3088  22.981   6.572   2.889
30021W        W 3089  35.110   0.454  14.827
30022W        W 3090  31.259  11.622  11.250
30023W        W 3091  31.958  17.618   0.228
30024W        W 3092   8.647   0.444   4.239
30025W        W 3093   1.212  30.444  13.505
30026W        W 3094  14.165  12.114   3.385
30027W        W 3095  24.289   2.040   4.352
30028W        W 3096  16.156  28.935  13.069
30029W        W 3097   0.316  32.876   3.657
30030W        W 3098  22.118  33.682   4.538
30031W        W 3099  26.945  43.336  11.952
30032W        W 3100  42.504   5.169  12.495
30033W        W 3101   1.867  41.467  12.034
30034W        W 3102  26.890   3.069  12.347
30035W        W 3103   9.923  36.780   0.350
30036W        W 3104  31.055  36.620   2.695
30037W        W 3105  11.085  41.461  14.511
30038W        W 3106  24.416  38.806   3.783
30039W        W 3107  33.136  28.104   3.101
30040W        W 3108  39.727  29.360   2.613
30041W        W 3109   0.856  25.235  11.121
30042W        W 3110  44.034  43.949  14.261
30043W        W 3111  26.186  19.080   0.164
30044W        W 3112   8.430  16.776  14.956
30045W        W 3113  31.077  26.890  12.091
30046W        W 3114  19.202  14.191  11.550
30047W        W 3115  18.262  41.893   4.064
30048W        W 3116  17.807  23.069   3.169
30049W        W 3117  38.898  34.454   2.178
30050W        W 3118   8.576  27.137   0.837
30051W        W 3119  13.632   4.322   4.620
30052W        W 3120  20.238   3.342  10.754
30053W        W 3121  37.902   5.343   1.630
30054W        W 3122   8.307  14.320   0.799
30055W        W 3123  11.135  36.594  14.304
30056W        W 3124  36.622  23.684   3.679
30057W        W 3125  14.616  22.137  14.389
30058W        W 3126  18.714  13.513   0.541
30059W        W 3127  24.605  38.767  12.056
30060W        W 3128  25.382  30.028  12.025
30061W        W 3129   1.244   7.714  12.035
30062W        W 3130   3.342  23.998   4.646
30063W        W 3131  42.311  11.818   3.061
30064W        W 3132  36.668  19.073   1.513
30065W        W 3133  39.009  42.513  11.201
30066W        W 3134  39.088  28.060  13.039
30067W        W 3135  28.635  32.256   2.061
30068W        W 3136  19.826  24.001   3.855
30069W        W 3137  41.323  28.157   1.222
30070W        W 3138  14.850  44.368   2.759
30071W        W 3139  32.895   6.060   2.158
30072W        W 3140  25.822  36.906   1.464
30073W        W 3141  33.536  34.028   0.219
30074W        W 3142  21.552  14.588  14.835
30075W        W 3143  28.049  33.121   4.562
30076W        W 3144   2.309  40.373  14.430
30077W        W 3145   7.165   7.614   3.260
30078W        W 3146  24.091  34.693   2.335
30079W        W 3147  29.562  13.647   0.767
30080W        W 3148  21.943  15.264   1.325
30081W        W 3149  19.659  27.588   4.632
30082W        W 3150  41.037  37.556  12.119
30083W        W 3151  19.023  25.544  14.387
30084W        W 3152  33.464  37.879  11.686
30085W        W 3153  42.981  20.972   0.524
30086W        W 3154  39.091  31.327  12.511
30087W        W 3155  25.226   9.804   4.168
30088W        W 3156   3.275  10.779  11.873
30089W        W 3157  24.917  42.079  13.883
30090W        W 3158  15.759  37.273   1.832
30091W        W 3159   8.372   1.422   1.894
30092W        W 3160   2.977  13.484  14.446
30093W        W 3161   2.835  24.124  11.172
30094W        W 3162  36.447  15.838   3.470
30095W        W 3163  34.887  31.023   1.630
30096W        W 3164   3.495   2.362  14.784
30097W        W 3165  13.211   4.536   0.995
30098W        W 3166  39.255  28.927  14.432
30099W        W 3167  25.945   0.667  13.141
30100W        W 3168   5.795  29.544   1.417
30101W        W 3169  22.776  29.643   0.341
30102W        W 3170   9.260  21.182   2.869
30103W        W 3171  33.440  19.529   2.364
30104W        W 3172  24.937   5.377   4.658
30105W        W 3173  29.202  25.131  12.359
30106W        W 3174  28.932   0.717   2.185
30107W        W 3175  22.318  29.221   4.814
30108W        W 3176  11.300  14.241   4.549
30109W        W 3177  10.196  13.051   4.339
30110W        W 3178   9.895  28.323  11.055
30111W        W 3179   8.165   8.201   0.192
30112W        W 3180   0.898  44.025   0.878
30113W        W 3181   3.932  35.173   2.747
30114W        W 3182  12.340  25.018  12.051
30115W        W 3183  16.909  11.740   2.607
30116W        W 3184  11.205  42.424   1.329
30117W        W 3185  13.236  40.041   2.656
30118W        W 3186  11.964  14.284  12.365
30119W        W 3187  28.466   5.178  14.751
30120W        W 3188  24.894  35.889   2.230
30121W        W 3189   2.305  19.631   2.176
30122W        W 3190  44.794  41.223   1.797
30123W        W 3191  39.539   6.157  10.278
30124W        W 3192  24.153   7.713   2.344
30125W        W 3193  33.486  34.428  14.294
30126W        W 3194  24.732  27.915  12.010
30127W        W 3195   6.137  39.032   3.116
30128W        W 3196  29.463  42.813  11.086
30129W        W 3197   5.626  32.019  11.115
30130W        W 3198  34.615   2.317  13.373
30131W        W 3199  12.736  10.401  11.492
30132W        W 3200  43.468  39.487   4.048
30133W        W 3201  13.847  16.540   0.908
30134W        W 3202  36.450   4.131   2.298
30135W        W 3203  12.569  33.644   2.279
30136W        W 3204  32.130  42.836  12.047
30137W        W 3205  11.874  33.170  12.716
30138W        W 3206   8.326  31.879   2.400
30139W        W 3207  32.442  13.213  10.756
30140W        W 3208  20.471  13.347  14.461
30141W        W 3209  18.675  33.824  13.346
30142W        W 3210   0.429  34.556   2.473
30143W        W 3211   3.828  20.205   4.102
30144W        W 3212  30.213  24.257   2.447
30145W        W 3213   9.362  16.812   3.254
30146W        W 3214  24.018  12.451   1.953
30147W        W 3215   3.507  41.455   2.151
30148W        W 3216   9.731  37.224   5.217
30149W        W 3217   6.664  25.191   4.212
30150W        W 3218   0.333   8.762   4.129
30151W        W 3219  20.690  20.213   2.285
30152W        W 3220  20.582  40.008   4.903
30153W        W 3221  13.878  20.083  14.285
30154W        W 3222   6.261   0.735   0.433
30155W        W 3223  34.810  24.264   0.063
30156W        W 3224  35.021  11.127   0.322
30157W        W 3225  38.086  22.219   4.862
30158W        W 3226  24.000  38.565   3.610
30159W        W 3227  31.104  35.635  10.577
30160W        W 3228   0.773  27.376  14.513
30161W        W 3229   8.144  37.192  11.841
30162W        W 3230   2.249   3.264   0.888
30163W        W 3231  24.517   6.897  12.527
30164W        W 3232  42.585  27.199   0.678
30165W        W 3233  40.945  17.299   4.261
30166W        W 3234  40.294   4.694  10.427
30167W        W 3235  36.003  25.712  11.245
30168W        W 3236  11.297  23.582  14.424
30169W        W 3237  38.743  27.981   0.856
30170W        W 3238   5.020  15.613  14.742
30171W        W 3239  20.759  21.535  11.763
30172W        W 3240  12.270  12.761  14.010
30173W        W 3241  19.393   4.808   0.755
30174W        W 3242   1.948  21.021   4.053
30175W        W 3243  10.627   8.771  13.288
30176W        W 3244  37.889  40.913   3.144
30177W        W 3245  41.969  30.305   5.037
30178W        W 3246  32.321  18.141  12.454
30179W        W 3247  27.504   0.248   1.304
30180W        W 3248  24.532  13.100  12.973
30181W        W 3249  35.219   4.330   4.558
30182W        W 3250  21.667   3.294   1.298
30183W        W 3251  14.651  34.503  14.220
30184W        W 3252  37.847  35.042  12.476
30185W        W 3253  22.384   8.171  12.301
30186W        W 3254  36.871  20.520   2.777
30187W        W 3255  40.515  15.164  10.248
30188W        W 3256   4.263  26.510  14.773
30189W        W 3257  30.794  42.363   3.395
30190W        W 3258  12.651  36.484  11.950
30191W        W 3259  33.956  37.422  14.357
30192W        W 3260  34.622  22.641  10.683
30193W        W 3261  42.460  13.296  14.048
30194W        W 3262   1.922   6.608  14.566
30195W        W 3263  20.799  25.251  12.971
30196W        W 3264  24.339  42.710  13.429
30197W        W 3265  33.360  11.717   4.085
30198W        W 3266  38.975  17.078  11.946
30199W        W 3267   7.266  24.624  13.398
30200W        W 3268  34.310  38.922  11.616
30201W        W 3269  28.416   2.692  12.355
30202W        W 3270  31.392  41.918  12.524
30203W        W 3271   7.674   1.954   1.661
30204W        W 3272  39.928  23.700   4.853
30205W        W 3273   4.175  33.067   4.237
30206W        W 3274   8.316  40.272   5.081
30207W        W 3275  23.026  16.601  11.541
30208W        W 3276  22.299  13.555   2.148
30209W        W 3277  13.653  22.260   1.299
30210W        W 3278   4.263   9.839   2.358
30211W        W 3279  22.387  25.723   3.415
30212W        W 3280  25.483  22.712  11.499
30213W        W 3281  11.167  33.130  11.499
30214W        W 3282  11.103  16.377   0.287
30215W        W 3283  29.249  43.496   2.756
30216W        W 3284  17.334  37.265  14.144
30217W        W 3285  17.750  17.214   4.627
30218W        W 3286  19.895  33.360  11.613
30219W        W 3287  30.808  10.688  12.308
30220W        W 3288   7.213  20.074  14.587
30221W        W 3289  13.682  28.386  11.657
30222W        W 3290   6.177   9.255  14.213
30223W        W 3291  25.997   7.003   2.920
30224W        W 3292  31.978  11.736   0.477
30225W        W 3293   6.133  31.087  14.766
30226W        W 3294  32.599  39.008   1.320
30227W        W 3295   9.528  19.818   1.893
30228W        W 3296  35.705  25.170  12.395
30229W        W 3297  27.079  25.636  14.252
30230W        W 3298  25.683  33.405   1.768
30231W        W 3299  42.160   1.468  13.757
30232W        W 3300   0.422  21.097  13.260
30233W        W 3301  20.190  20.590  13.399
30234W        W 3302  27.482   1.973   2.286
30235W        W 3303  31.722  36.027  11.809
30236W        W 3304  27.207  37.427   3.289
30237W        W 3305  18.099  22.326  11.791
30238W        W 3306  32.847  41.598  14.486
30239W        W 3307  30.206  31.431  13.393
30240W        W 3308  10.443  39.930  10.557
30241W        W 3309  42.392  16.766   1.154
30242W        W 3310   1.631   6.763  13.485
30243W        W 3311   1.749  22.486   0.551
30244W        W 3312   4.333  31.179   4.234
30245W        W 3313  25.408  37.123  11.193
30246W        W 3314  27.491  34.698   2.171
30247W        W 3315  43.256   3.293  13.485
30248W        W 3316  11.094  21.321  11.285
30249W        W 3317   2.486  27.495  10.567
30250W        W 3318  38.246  27.639  14.905
30251W        W 3319  35.080   4.225   1.304
30252W        W 3320  26.195   3.749   1.850
30253W        W 3321  36.327   1.765   3.744
30254W        W 3322  23.073  13.117   1.995
30255W        W 3323  41.906  34.105  12.567
30256W        W 3324  18.074  15.126   2.818
30257W        W 3325  37.845   5.543   0.434
30258W        W 3326  27.462  20.010   4.211
30259W        W 3327  21.293  11.476   0.044
30260W        W 3328  42.996   1.440  10.725
30261W        W 3329   8.834  38.492  10.817
30262W        W 3330   9.701   2.487   0.656
30263W        W 3331  17.201  12.969  14.194
30264W        W 3332  27.009  44.795  14.911
30265W        W 3333  36.171  23.770   0.185
30266W        W 3334   1.772  43.262  11.584
30267W        W 3335  25.125  25.938  14.471
30268W        W 3336  31.543   4.933   4.302
30269W        W 3337  30.979   6.693  11.503
30270W        W 3338  15.108  34.802   0.160
30271W        W 3339  34.864   4.835   1.156
30272W        W 3340  44.274  39.093   3.680
30273W        W 3341  16.774  35.349   0.441
30274W        W 3342  30.608  25.674  12.060
30275W        W 3343   9.269   5.810   3.567
30276W        W 3344  28.566   8.987   3.326
30277W        W 3345  18.009   6.594   2.789
30278W        W 3346   0.137  36.821  11.499
30279W        W 3347  43.506   9.748  14.496
30280W        W 3348   3.324  26.572   4.151
30281W        W 3349  39.125   2.433   2.339
30282W        W 3350  32.802  21.754   4.565
30283W        W 3351  20.234  42.438   0.895
30284W        W 3352   8.309  19.736   2.593
30285W        W 3353  17.859  19.088   3.894
30286W        W 3354  11.209  44.412   3.714
30287W        W 3355  11.386   2.396   0.653
30288W        W 3356  14.996  35.298   0.343
30289W        W 3357   8.650  36.172  14.298
30290W        W 3358  10.598  18.749  12.104
30291W        W 3359  38.850  42.844  12.972
30292W        W 3360  23.127  12.317   1.927
30293W        W 3361  28.950  26.472  13.401
30294W        W 3362  11.640  12.272  12.337
30295W        W 3363   9.330  31.097  12.325
30296W        W 3364  29.010  36.797  11.950
30297W        W 3365  40.508   7.190   1.215
30298W        W 3366  12.298   6.699  12.985
30299W        W 3367  26.580  10.676  10.152
30300W        W 3368  28.040  34.079   2.485
30301W        W 3369  11.346  26.384   3.142
30302W        W 3370  22.272  29.913  11.583
30303W        W 3371  44.003  28.661   2.162
30304W        W 3372   8.241  12.884   3.320
30305W        W 3373  10.090  30.397   4.576
30306W        W 3374  27.689   8.410   1.846
30307W        W 3375  40.125  37.386   0.430
30308W        W 3376  19.854  38.015   3.228
30309W        W 3377  30.026   7.794  12.582
30310W        W 3378  36.787  36.308  13.447
30311W        W 3379  26.199  32.111   2.909
30312W        W 3380   5.838  20.775   0.784
30313W        W 3381  18.151  32.625  11.404
30314W        W 3382  20.216   5.019  14.827
30315W        W 3383   7.410  38.867  14.388
30316W        W 3384   8.313  27.224   1.803
30317W        W 3385  34.381   2.761   1.819
30318W        W 3386  41.996   9.193  14.411
30319W        W 3387  22.920  26.549  11.181
30320W        W 3388  23.640  41.986   0.589
30321W        W 3389  32.621   6.927  11.502
30322W        W 3390  25.025  44.381   5.058
30323W        W 3391  16.692  41.011  12.112
30324W        W 3392  37.379  26.243  14.230
30325W        W 3393  37.028   7.766  12.054
30326W        W 3394  17.316  36.415  12.291
30327W        W 3395  13.414  30.417   2.053
30328W        W 3396   4.804  31.174  11.513
30329W        W 3397   6.131  20.772   2.721
30330W        W 3398  13.699  24.548   2.186
30331W        W 3399  26.706  25.577   1.523
30332W        W 3400  22.217  24.645  12.379
30333W        W 3401   5.929  24.593   4.120
30334W        W 3402   7.226  33.579  12.052
30335W        W 3403  40.324  14.348  12.676
30336W        W 3404   8.341  10.703  13.792
30337W        W 3405   8.886   6.009   3.259
30338W        W 3406  21.192   0.863  13.855
30339W        W 3407  40.293  28.420  11.249
30340W        W 3408  31.326  20.244   0.213
30341W        W 3409  14.892   7.789  14.771
30342W        W 3410  31.742  11.358  11.207
30343W        W 3411  32.944   5.602  13.334
30344W        W 3412  33.859  43.828   3.716
30345W        W 3413  12.247  13.124   1.757
30346W        W 3414  17.649  20.580  12.898
30347W        W 3415  22.902  11.667   4.580
30348W        W 3416  15.663  24.363  11.443
30349W        W 3417  24.722  11.542   0.442
30350W        W 3418  14.776  38.860   4.205
30351W        W 3419   9.911  36.872   1.250
30352W        W 3420  31.083   6.837   3.523
30353W        W 3421  25.593  27.909  14.841
30354W        W 3422  43.068  16.601  11.615
30355W        W 3423  42.316  14.721   3.645
30356W        W 3424  32.714   9.286   3.224
30357W        W 3425  41.648  36.619  12.591
30358W        W 3426  15.666  17.272  13.018
30359W        W 3427  44.260  39.085   1.787
30360W        W 3428  20.959  35.159  13.507
30361W        W 3429  13.814   6.180   2.176
30362W        W 3430  34.717   7.890   2.841
30363W        W 3431  34.484  17.774   0.711
30364W        W 3432  22.710  39.849  14.877
30365W        W 3433  38.372  16.803  13.095
30366W        W 3434   0.485  33.540  11.636
30367W        W 3435  22.731  11.863  12.494
30368W        W 3436  40.475  28.018  11.533
30369W        W 3437  37.399  36.767  10.992
30370W        W 3438   0.348  31.977  13.387
30371W        W 3439  30.573  35.975   0.187
30372W        W 3440  22.131   6.717  12.992
30373W        W 3441  17.504   2.571  13.542
30374W        W 3442  16.740  30.867  11.920
30375W        W 3443  18.331  39.838   0.594
30376W        W 3444  43.545  18.003  13.953
30377W        W 3445  27.622   6.395  14.843
30378W        W 3446  12.331   5.199  14.940
30379W        W 3447   4.980  43.362   3.538
30380W        W 3448  35.810   9.228  13.977
30381W        W 3449  25.663  22.691   2.805
30382W        W 3450  33.829  40.273   2.723
30383W        W 3451  16.779   4.918   0.454
30384W        W 3452  10.299  44.060   2.860
30385W        W 3453  13.792  20.320   3.712
30386W        W 3454  10.711  44.857  11.450
30387W        W 3455  12.930   3.163  11.678
30388W        W 3456  25.528   2.145   1.721
30389W        W 3457  28.323   9.809  14.366
30390W        W 3458  41.836  21.938   2.000
30391W        W 3459   2.289   8.242  11.325
30392W        W 3460  27.077  43.340   4.260
30393W        W 3461   0.472  44.267  10.013
30394W        W 3462  32.987  43.312   1.360
30395W        W 3463  42.719  23.641   3.864
30396W        W 3464  10.661  28.160   1.295
30397W        W 3465   1.490  19.308  11.046
30398W        W 3466  35.169  23.600  10.738
30399W        W 3467  42.412   4.490   3.686
30400W        W 3468  18.906  35.380   2.784
30401W        W 3469  32.439  44.898   0.900
30402W        W 3470   5.406   5.344  12.068
30403W        W 3471  20.148  13.167  10.308
30404W        W 3472  34.991   6.433   1.810
30405W        W 3473  41.401  33.500   4.556
30406W        W 3474  40.702   2.130  10.337
30407W        W 3475  34.792   2.354  11.884
30408W        W 3476  23.043   0.681   1.874
30409W        W 3477  14.158  43.832  12.346
30410W        W 3478   4.692  35.094   1.291
30411W        W 3479  15.086   6.973  12.523
30412W        W 3480  41.362  23.087   2.589
30413W        W 3481   6.925  15.150   1.875
30414W        W 3482  41.939  27.692  12.356
30415W        W 3483   6.860  22.296  14.974
30416W        W 3484  31.950  33.838  14.662
30417W        W 3485   4.857  17.917  10.882
30418W        W 3486  28.869  38.892   3.580
30419W        W 3487  23.739  15.331  11.436
30420W        W 3488  41.245  16.840   1.955
30421W        W 3489  39.351  39.337  14.867
30422W        W 3490  43.326  28.296   2.632
30423W        W 3491   9.677  28.459   1.916
30424W        W 3492   8.399  14.712  11.549
30425W        W 3493  42.501   9.771  14.723
30426W        W 3494  33.520  18.759   2.855
30427W        W 3495  32.201   5.411   2.139
30428W        W 3496  19.525   7.932   4.066
30429W        W 3497  17.038  41.883   2.729
30430W        W 3498  38.607  13.187  11.070
30431W        W 3499  14.084  37.246   3.306
30432W        W 3500  17.163  17.677   2.813
30433W        W 3501   7.703  37.222   2.795
30434W        W 3502  17.591   9.320   1.828
30435W        W 3503  36.977   8.806  12.356
30436W        W 3504  41.569   8.825  12.171
30437W        W 3505  24.633  10.855   4.349
30438W        W 3506  38.829   4.979   5.271
30439W        W 3507  35.416  42.940  14.100
30440W        W 3508  30.721  32.056  12.886
30441W        W 3509  11.945  10.323  12.564
30442W        W 3510   4.027  31.944   0.742
30443W        W 3511  25.477  11.127  13.397
30444W        W 3512  35.430  18.830   4.754
30445W        W 3513  13.260  10.100   4.843
30446W        W 3514  42.288  35.982   4.724
30447W        W 3515  33.766  28.329  12.685
30448W        W 3516  40.883  20.758   2.276
30449W        W 3517   1.263  10.369  12.978
30450W        W 3518  13.116   7.770   1.056
30451W        W 3519  24.145   6.028  12.527
30452W        W 3520  13.202  43.764  13.376
30453W        W 3521  16.027   3.356   1.868
30454W        W 3522   6.293  32.272   0.267
30455W        W 3523  11.807   5.351   4.280
30456W        W 3524  10.746  20.364   0.574
30457W        W 3525   3.141  27.069   4.117
30458W        W 3526   9.746  12.334   2.824
30459W        W 3527   5.708  36.512  12.068
30460W        W 3528  10.270  32.178  13.465
30461W        W 3529   9.113  35.617   1.389
30462W        W 3530  40.325  10.694   3.792
30463W        W 3531   2.874  15.248   2.442
30464W        W 3532  26.137  13.287   3.169
30465W        W 3533   4.481  37.415  14.408
30466W        W 3534   3.195   2.777  14.899
30467W        W 3535  31.572  25.173   5.042
30468W        W 3536  44.837   1.985  14.423
30469W        W 3537  34.922   3.248  10.270
30470W        W 3538  35.293  30.421  11.131
30471W        W 3539  40.433   3.228   1.304
30472W        W 3540  22.556  10.211  13.099
30473W        W 3541  28.573   5.643  10.746
30474W        W 3542  41.260  33.602   3.549
30475W        W 3543  32.607  36.034  12.493
30476W        W 3544  22.745  13.066   4.395
30477W        W 3545   4.892  37.909  11.700
30478W        W 3546  22.556  19.244   5.051
30479W        W 3547  22.477  29.637  13.339
30480W        W 3548  22.462   9.877  14.079
30481W        W 3549  18.660  20.027  14.205
30482W        W 3550  13.709  13.167   4.146
30483W        W 3551   0.867  17.369   4.180
30484W        W 3552  27.860  35.098   2.304
30485W        W 3553   3.340  29.030  14.368
30486W        W 3554  22.999  22.226  10.679
30487W        W 3555  10.401   7.782  10.862
30488W        W 3556  20.639  12.085  14.080
30489W        W 3557  11.384  44.284  10.538
30490W        W 3558  10.220  20.292   4.651
30491W        W 3559  39.402   5.193   1.417
30492W        W 3560  40.300  38.938  12.948
30493W        W 3561  19.137  28.962   3.872
30494W        W 3562  13.132  38.377   3.714
30495W        W 3563  23.719  36.635  12.298
30496W        W 3564   2.707  28.626   4.940
30497W        W 3565   6.009  12.328  10.730
30498W        W 3566  17.580  32.380   2.482
30499W        W 3567  35.307  32.315  12.770
30500W        W 3568  32.646  18.029  13.317
30501W        W 3569  15.743   4.836   0.191
30502W        W 3570  13.310  32.977  10.480
30503W        W 3571  31.256  30.690  12.120
30504W        W 3572  16.564  42.556   3.830
30505W        W 3573  22.742   9.274  11.927
30506W        W 3574  43.994  39.368   4.017
30507W        W 3575  31.114  36.030  11.047
30508W        W 3576  42.823  13.150   1.015
30509W        W 3577   6.695   3.635   3.280
30510W        W 3578   8.582  36.931  11.739
30511W        W 3579  18.305   3.203  14.847
30512W        W 3580  29.382   6.479   3.766
30513W        W 3581   2.021  34.864   1.398
30514W        W 3582  15.716  17.118   4.352
30515W        W 3583   8.101  21.818  11.610
30516W        W 3584  35.579   5.267   3.702
30517W        W 3585   5.187  11.085   1.582
30518W        W 3586  25.922   9.210   3.102
30519W        W 3587  19.772   1.754   1.687
30520W        W 3588  13.845  40.332   2.341
30521W        W 3589  37.701  33.332  14.068
30522W        W 3590  17.354  22.488  11.606
30523W        W 3591  27.707  31.086  14.303
30524W        W 3592   3.467   1.054   2.863
30525W        W 3593  12.364  18.845  13.393
30526W        W 3594  29.571  27.583   2.176
30527W        W 3595  42.285  37.117  11.075
30528W        W 3596  30.432  40.911   3.675
30529W        W 3597  33.142  37.895   2.690
30530W        W 3598  29.044  13.800   2.397
30531W        W 3599  16.477   9.941   0.913
30532W        W 3600  26.513   5.824   1.655
30533W        W 3601  19.765  14.748   1.346
30534W        W 3602   2.951  26.288  10.358
30535W        W 3603  26.703  14.657  14.360
30536W        W 3604  26.752  10.363  11.118
30537W        W 3605  12.086  16.312   9.820
30538W        W 3606  34.577  30.499   4.114
30539W        W 3607  12.856   0.950  13.606
30540W        W 3608  43.635  32.641   0.819
30541W        W 3609  34.613  44.994  10.718
30542W        W 3610  23.678  11.822  10.762
30543W        W 3611  33.921  18.521  10.572
30544W        W 3612   3.385   5.085   5.166
30545W        W 3613  21.295   3.088  14.951
30546W        W 3614  31.544  32.963  14.353
30547W        W 3615  37.178   5.559  14.362
30548W        W 3616  38.210  40.901   4.579
30549W        W 3617   0.969  44.792   3.316
30550W        W 3618  28.612   1.912   1.663
30551W        W 3619  33.513  34.571   1.465
30552W        W 3620  21.586  21.744  11.456
30553W        W 3621  31.652   0.029  14.327
30554W        W 3622  11.857  32.375  14.221
30555W        W 3623   9.731  11.019   2.804
30556W        W 3624  33.353  34.607  11.081
30557W        W 3625  31.507  42.393   4.754
30558W        W 3626  44.287   3.308  11.998
30559W        W 3627  33.558  21.300   1.415
30560W        W 3628  27.394   9.837   4.948
30561W        W 3629   2.019  34.350  11.907
30562W        W 3630   5.840   0.253   2.232
30563W        W 3631  26.394  16.726  12.577
30564W        W 3632   1.749  39.832  14.938
30565W        W 3633  38.084  23.064  14.980
30566W        W 3634  13.925  12.259   1.254
30567W        W 3635  12.188   2.941  10.567
30568W        W 3636  13.531  34.084   2.175
30569W        W 3637  26.484  31.455  12.685
30570W        W 3638  27.728  41.493  12.957
30571W        W 3639   4.000   6.384   3.114
30572W        W 3640  36.517  12.657   3.700
30573W        W 3641  26.563  32.138   0.931
30574W        W 3642  42.928  40.643  12.604
30575W        W 3643  26.606  18.230  14.821
30576W        W 3644   1.785   2.357  10.985
30577W        W 3645  40.304  42.254   2.498
30578W        W 3646  23.740  23.180   1.471
30579W        W 3647  31.400  11.100   0.103
30580W        W 3648  13.015  12.272  10.350
30581W        W 3649  32.043  35.138   0.515
30582W        W 3650  36.437  24.963   0.522
30583W        W 3651  34.555  18.052  12.473
30584W        W 3652  11.355   2.703   1.437
30585W        W 3653  39.548  31.154  12.345
30586W        W 3654  31.390  35.463   4.257
30587W        W 3655  30.989   8.927  13.838
30588W        W 3656   3.067  37.973  12.033
30589W        W 3657  29.120  23.650   1.916
30590W        W 3658  19.022  10.418   0.222
30591W        W 3659  11.814   3.693  11.916
30592W        W 3660  25.991  43.973  10.613
30593W        W 3661  28.580  19.215   0.261
30594W        W 3662  24.138  15.558   0.889
30595W        W 3663  32.518  38.282   4.572
30596W        W 3664  43.808   4.502   1.642
30597W        W 3665  24.905   2.711   2.831
30598W        W 3666  39.320  21.973  12.956
30599W        W 3667  32.895   7.115  13.929
30600W        W 3668  21.031  41.247  13.793
30601W        W 3669  19.080   3.899  13.809
30602W        W 3670  44.452   3.792  11.135
30603W        W 3671   5.343  10.083  14.844
30604W        W 3672  11.184  40.314  11.650
30605W        W 3673   7.881   2.914   2.156
30606W        W 3674  13.330  25.823  11.148
30607W        W 3675  39.416  13.678   4.152
30608W        W 3676   5.150   8.209   4.846
30609W        W 3677  13.519  28.165  12.553
30610W        W 3678  33.624  43.580  13.889
30611W        W 3679  13.025  15.710  11.560
30612W        W 3680  44.973  34.383   2.223
30613W        W 3681   4.733  25.677   3.714
30614W        W 3682  22.768  21.009   1.409
30615W        W 3683  37.610   0.721   0.494
30616W        W 3684  40.961  32.968   0.365
30617W        W 3685  28.540  40.275  12.502
30618W        W 3686  38.616   9.812  12.130
30619W        W 3687  19.067  10.166   4.911
30620W        W 3688  36.583  12.528  13.116
30621W        W 3689  39.667   0.996   1.919
30622W        W 3690  33.149  18.647  12.060
30623W        W 3691  11.447   3.791   2.413
30624W        W 3692  17.769  22.306  13.126
30625W        W 3693   8.830   1.322  14.714
30626W        W 3694   9.353   1.458   2.745
30627W        W 3695   8.291  35.262   2.373
30628W        W 3696  29.034  17.258  13.827
30629W        W 3697  28.118  12.799   2.198
30630W        W 3698  19.080  41.264   1.469
30631W        W 3699  13.885  42.812  12.890
30632W        W 3700  30.489  38.008   0.288
30633W        W 3701  24.411   0.444   0.268
30634W        W 3702  42.026  42.269  10.918
30635W        W 3703  33.078  39.284  11.129
30636W        W 3704  15.717   8.686  12.671
30637W        W 3705  44.010   0.230   0.460
30638W        W 3706  27.189  40.776  13.439
30639W        W 3707  34.165   8.980   4.129
30640W        W 3708  35.122  23.211   0.388
30641W        W 3709   2.511  26.391   3.694
30642W        W 3710  10.280  30.079  12.434
30643W        W 3711   2.601  36.895  13.469
30644W        W 3712   6.284   5.345   3.211
30645W        W 3713  14.100  29.155  12.501
30646W        W 3714  17.561  23.379  11.149
30647W        W 3715   2.788  38.645  11.430
30648W        W 3716  27.231  43.451  13.980
30649W        W 3717   8.613  37.447   3.097
30650W        W 3718  15.346  20.042   2.734
30651W        W 3719  38.483  25.322  14.194
30652W        W 3720  20.068  28.897   3.851
30653W        W 3721   8.268   2.408  14.302
30654W        W 3722  10.669  42.853   1.130
30655W        W 3723  10.641  17.894  10.661
30656W        W 3724  36.037  32.882   1.892
30657W        W 3725   4.469  11.777   0.705
30658W        W 3726  22.307  24.531  10.549
30659W        W 3727  18.134   5.118   2.923
30660W        W 3728  41.408  35.674   2.217
30661W        W 3729  11.818  44.286   4.332
30662W        W 3730   4.309  40.937  14.664
30663W        W 3731  14.130   5.737  11.930
30664W        W 3732  28.577  23.079   0.840
30665W        W 3733  33.399  21.702   3.284
30666W        W 3734   1.701  21.674   4.051
30667W        W 3735   2.475  25.225  14.524
30668W        W 3736  31.496  31.640   1.634
30669W        W 3737  29.647  16.107   0.856
30670W        W 3738   4.507  19.331  11.132
30671W        W 3739  17.087  12.714   1.655
30672W        W 3740  42.910  37.747   2.718
30673W        W 3741  12.356  35.948   3.112
30674W        W 3742  14.996  43.059  14.376
30675W        W 3743  32.486  19.669  10.805
30676W        W 3744  33.109  20.295  13.442
30677W        W 3745  25.018  15.288   4.110
30678W        W 3746   0.339  10.751   3.826
30679W        W 3747   8.218  38.544   0.487
30680W        W 3748  38.763  15.137  14.492
30681W        W 3749  36.837  10.219   2.884
30682W        W 3750  22.346  36.286   1.854
30683W        W 3751  38.324  29.159  13.426
30684W        W 3752  22.256  29.409  11.547
30685W        W 3753  44.905  43.487  11.234
30686W        W 3754  29.635  14.037   1.626
30687W        W 3755   6.277  24.929   4.495
30688W        W 3756  28.527  40.868  14.839
30689W        W 3757  15.767   4.534   5.369
30690W        W 3758  22.717  32.507  12.183
30691W        W 3759  12.725  17.533  12.566
30692W        W 3760  24.232  21.158  11.233
30693W        W 3761  38.992  28.379   3.037
30694W        W 3762  15.969  16.161  14.470
30695W        W 3763  31.622   5.171  14.020
30696W        W 3764  43.126   1.396   0.249
30697W        W 3765  14.231  44.394  11.199
30698W        W 3766   1.254   2.908   0.347
30699W        W 3767   9.861  10.730  10.622
30700W        W 3768  38.998  41.381   4.575
30701W        W 3769  19.077  34.864   4.141
30702W        W 3770  36.071  25.362   3.651
30703W        W 3771  34.953  30.512   5.086
30704W        W 3772   4.717  27.210   3.524
30705W        W 3773  32.370  44.676  12.234
30706W        W 3774   3.728   2.496   0.265
30707W        W 3775   4.121  40.349   2.801
30708W        W 3776  43.460  38.477   4.470
30709W        W 3777  22.779   6.734  13.919
30710W        W 3778  38.456  21.271  14.833
30711W        W 3779  42.020  17.502  11.970
30712W        W 3780  32.443   3.322  14.007
30713W        W 3781  39.750   1.362   0.937
30714W        W 3782  13.798  41.393   4.245
30715W        W 3783   1.713  23.461  11.544
30716W        W 3784  16.764  32.357   3.861
30717W        W 3785  21.617  11.296  13.560
30718W        W 3786  10.245  37.991   1.959
30719W        W 3787  11.202  25.694   1.844
30720W        W 3788  44.317   9.336  10.499
30721W        W 3789  32.144  33.841  12.158
30722W        W 3790  10.783  24.761   4.788
30723W        W 3791  19.763  33.045  13.376
30724W        W 3792  42.360  40.721   0.872
30725W        W 3793   6.405  26.117   1.858
30726W        W 3794   7.272  26.986   0.264
30727W        W 3795   7.817   8.805  11.956
30728W        W 3796  40.015  39.060   3.217
30729W        W 3797  15.085  40.771  10.740
30730W        W 3798  19.061   1.702  14.103
30731W        W 3799  27.147  14.746   4.558
30732W        W 3800  39.871   9.979   3.198
30733W        W 3801  22.318  34.915  13.812
30734W        W 3802  39.696  44.928   1.582
30735W        W 3803  38.995  23.435  14.507
30736W        W 3804  26.673  12.602   2.136
30737W        W 3805  33.932  10.644   4.510
30738W        W 3806  14.404  10.208  13.474
30739W        W 3807  18.210  42.391   1.361
30740W        W 3808  20.665  24.221   4.265
30741W        W 3809   5.699  33.598  10.668
30742W        W 3810  25.256  35.780   4.156
30743W        W 3811  33.102  35.476  12.644
30744W        W 3812  26.589  15.619  11.982
30745W        W 3813  17.040  15.635  10.717
30746W        W 3814  27.663  10.994  13.039
30747W        W 3815   3.867  28.189  11.130
30748W        W 3816  16.557  41.538   4.243
30749W        W 3817  11.096  27.139  11.686
30750W        W 3818  24.443  23.602   1.050
30751W        W 3819  24.321  36.558   3.232
30752W        W 3820  23.927   4.029   4.030
30753W        W 3821  30.648  30.334  14.309
30754W        W 3822  43.145   8.069   0.446
30755W        W 3823   7.833   8.443   2.829
30756W        W 3824   6.203  23.516  13.335
30757W        W 3825  10.244  36.108   3.356
30758W        W 3826  32.663  19.713   2.024
30759W        W 3827  30.931  34.629  12.489
30760W        W 3828  15.355  27.371  10.796
30761W        W 3829  36.497   0.359   3.105
30762W        W 3830  37.508  38.028  13.320
30763W        W 3831   9.348  21.750  12.003
30764W        W 3832  28.941  12.708   3.826
30765W        W 3833   7.169  34.923   3.652
30766W        W 3834  17.458  21.653  11.187
30767W        W 3835   2.285  29.552   0.310
30768W        W 3836  18.594  15.204   2.818
30769W        W 3837  19.930  35.796  14.927
30770W        W 3838  10.592  42.318   0.359
30771W        W 3839   0.021  17.013   4.109
30772W        W 3840  39.467   5.940   3.083
30773W        W 3841  11.473  10.947  11.507
30774W        W 3842  28.544  44.556   2.492
30775W        W 3843  40.848   9.741   2.466
30776W        W 3844  23.182  41.311  13.057
30777W        W 3845  26.339   0.630  13.838
30778W        W 3846  14.605   5.732  13.066
30779W        W 3847  23.429   0.195  12.173
30780W        W 3848  18.795  24.116   1.824
30781W        W 3849  10.702  23.411   1.194
30782W        W 3850   2.327  39.866   3.181
30783W        W 3851  40.431  41.772   4.544
30784W        W 3852  25.276  25.146  12.806
30785W        W 3853  39.338   7.014   2.333
30786W        W 3854  21.077  25.457   4.504
30787W        W 3855  35.908   3.999  12.901
30788W        W 3856  30.083  31.944   3.824
30789W        W 3857  30.314  21.494  10.951
30790W        W 3858  15.818  24.696   4.539
30791W        W 3859   6.345   6.882   0.338
30792W        W 3860   2.776  31.323  11.601
30793W        W 3861  20.132   5.212   1.723
30794W        W 3862   3.397  43.402  14.242
30795W        W 3863   8.689  42.638   4.933
30796W        W 3864  13.758  13.068  11.191
30797W        W 3865  10.882  36.914   0.491
30798W        W 3866  20.781  24.931  14.475
30799W        W 3867  28.668   2.071   0.648
30800W        W 3868  19.282  28.572  14.448
30801W        W 3869  20.690  44.894  10.682
30802W        W 3870   0.901  39.646  12.037
30803W        W 3871  18.307   9.935   3.800
30804W        W 3872   0.337   0.502   3.293
30805W        W 3873  34.161  37.397   5.121
30806W        W 3874  39.481  20.643  12.333
30807W        W 3875  20.082  30.453   2.085
30808W        W 3876  27.549  34.436  13.545
30809W        W 3877  25.152  11.348   0.248
30810W        W 3878  29.358  39.118   3.688
30811W        W 3879  17.355  42.579   4.198
30812W        W 3880  25.483  11.916   0.736
30813W        W 3881  41.584   8.176   3.157
30814W        W 3882  33.054   5.866   2.669
30815W        W 3883  39.581   8.297  13.967
30816W        W 3884  18.395  39.506  12.207
30817W        W 3885  12.082  23.813   3.454
30818W        W 3886   2.692  17.088   3.675
30819W        W 3887   0.518  33.585   0.473
30820W        W 3888  10.385  19.278   4.654
30821W        W 3889  27.896  15.070   3.421
30822W        W 3890  26.585  15.419   4.101
30823W        W 3891   9.993  38.735  11.369
30824W        W 3892  36.551   9.885   1.057
30825W        W 3893  12.864  14.080  12.616
30826W        W 3894  34.272  38.809   2.865
30827W        W 3895  44.892   6.954   0.322
30828W        W 3896  30.535  17.673  12.281
30829W        W 3897  13.758  33.143  12.122
30830W        W 3898   9.738  30.106   0.777
30831W        W 3899  31.640  32.384   2.890
30832W        W 3900   2.590   5.764  13.307
30833W        W 3901  34.799  20.792   0.672
30834W        W 3902  27.468   3.285   3.722
30835W        W 3903  24.549  12.592  10.460
30836W        W 3904  26.092  12.490   9.799
30837W        W 3905   8.113   1.029   0.603
30838W        W 3906   5.653   3.859  14.319
30839W        W 3907  34.853  37.415  12.366
30840W        W 3908  25.435  16.073  12.435
30841W        W 3909  43.011  29.321   0.335
30842W        W 3910   4.986  27.196   0.869
30843W        W 3911  33.400  16.236  13.757
30844W        W 3912  44.768  30.951  14.549
30845W        W 3913  28.721  24.089  11.993
30846W        W 3914   3.709  35.601   1.824
30847W        W 3915   8.306   4.666   1.860
30848W        W 3916  44.628  39.014  13.973
30849W        W 3917   7.873   8.680  11.429
30850W        W 3918  13.974  35.315  13.487
30851W        W 3919  29.511  28.409  13.418
30852W        W 3920  17.077   0.922   3.550
30853W        W 3921  33.929  30.942   4.438
30854W        W 3922  18.236  10.457  13.996
30855W        W 3923  32.619  15.127   2.340
30856W        W 3924   9.169  39.452   3.746
30857W        W 3925  34.733  38.460   3.166
30858W        W 3926  34.828  43.264  11.033
30859W        W 3927  43.338  11.717  14.622
30860W        W 3928   2.630   9.341   4.180
30861W        W 3929   1.334  10.124  13.423
30862W        W 3930  16.135  35.114   1.164
30863W        W 3931  26.072  23.060  14.794
30864W        W 3932  36.318  33.795  13.901
30865W        W 3933  25.547  33.205   0.891
30866W        W 3934   0.751  34.039   3.156
30867W        W 3935  33.697  29.653  14.483
30868W        W 3936  25.151  39.997   1.229
30869W        W 3937  40.399  41.688  10.624
30870W        W 3938  36.711  14.148   1.918
30871W        W 3939  27.476  19.312   3.749
30872W        W 3940  11.712  44.173   0.221
30873W        W 3941  28.931  20.303  13.795
30874W        W 3942  10.193  43.177  13.117
30875W        W 3943   1.857   3.061  14.183
30876W        W 3944  40.934   3.143   4.685
30877W        W 3945  35.542  26.953  11.702
30878W        W 3946   6.297   8.506   4.090
30879W        W 3947  12.212  28.416  14.376
30880W        W 3948  37.561  27.705   1.334
30881W        W 3949   4.731   7.876  11.606
30882W        W 3950  35.150   7.639   2.673
30883W        W 3951   6.245   7.072  14.874
30884W        W 3952  31.131  41.499  12.624
30885W        W 3953   2.469  20.727  14.522
30886W        W 3954  33.077  24.458  13.112
30887W        W 3955  12.224  20.480   3.654
30888W        W 3956   9.174   0.487   1.831
30889W        W 3957  32.613  18.774   1.911
30890W        W 3958  15.951  34.563  10.243
30891W        W 3959  30.382  11.744   3.320
30892W        W 3960  20.775  29.517  14.081
30893W        W 3961  29.116   7.274   0.957
30894W        W 3962   4.119  26.338  14.268
30895W        W 3963  13.075  35.759  12.027
30896W        W 3964  40.740   8.471   2.288
30897W        W 3965  36.312   9.421   3.576
30898W        W 3966  24.088  18.510  13.747
30899W        W 3967  43.078  14.759   3.227
30900W        W 3968  19.586  37.893  13.979
30901W        W 3969   5.692  16.079   0.968
30902W        W 3970   0.033  11.756   0.388
30903W        W 3971  25.448  41.014  13.013
30904W        W 3972  14.673  42.006  11.647
30905W        W 3973  25.971  11.256  13.455
30906W        W 3974  35.118  10.835  12.239
30907W        W 3975  13.721  31.970   0.456
30908W        W 3976   7.643  33.824  13.890
30909W        W 3977   9.753   1.771   3.468
30910W        W 3978  27.878  25.645   3.328
30911W        W 3979   7.170  40.573   1.878
30912W        W 3980  16.740  42.379  10.548
30913W        W 3981  23.986   4.296   1.917
30914W        W 3982  34.774  27.475   4.823
30915W        W 3983  12.187  34.149   1.816
30916W        W 3984  17.235  19.943  12.165
30917W        W 3985   6.727  10.092  10.145
30918W        W 3986  28.512  44.334   1.015
30919W        W 3987  12.835  13.552   0.937
30920W        W 3988  37.878   6.369  11.178
30921W        W 3989   6.667  12.233   4.224
30922W        W 3990  37.183  29.633   4.241
30923W        W 3991   4.449  30.148   1.001
30924W        W 3992  35.512  44.249   0.811
30925W        W 3993  21.073  15.769   2.678
30926W        W 3994  37.423  43.804  13.533
30927W        W 3995  18.327  39.490   2.642
30928W        W 3996  14.863  43.717  14.307
30929W        W 3997   9.300  12.581   4.128
30930W        W 3998  37.527  12.220  13.162
30931W        W 3999  10.291  41.494   1.245
30932W        W 4000  30.342  11.398  13.558
30933W        W 4001  28.588  11.135   2.283
30934W        W 4002   8.261  23.724   2.739
30935W        W 4003  11.905  17.300  11.492
30936W        W 4004  34.839  38.913  12.888
30937W        W 4005  30.981  27.720  13.937
30938W        W 4006  37.157  31.840  12.501
30939W        W 4007   5.696  36.764   1.693
30940W        W 4008  13.777  34.851   0.435
30941W        W 4009  19.186   7.190   4.526
30942W        W 4010   1.721  41.820   0.896
30943W        W 4011  37.719  36.830  12.982
30944W        W 4012  41.618  15.357   4.885
30945W        W 4013  25.636  37.940  13.042
30946W        W 4014   5.402  14.442  11.307
30947W        W 4015  43.840  28.607  14.684
30948W        W 4016  18.174   8.726   4.417
30949W        W 4017  23.686  33.056   3.688
30950W        W 4018  21.715   9.187   0.382
30951W        W 4019   5.573  24.814  14.474
30952W        W 4020  40.518  25.235   4.592
30953W        W 4021  26.659   0.929   2.694
30954W        W 4022  12.394  15.024   2.277
30955W        W 4023   0.306   7.534  12.930
30956W        W 4024  35.779  44.498   3.343
30957W        W 4025  17.480  24.176  11.999
30958W        W 4026   6.346  33.890   3.802
30959W        W 4027  17.131  25.740  14.025
30960W        W 4028   5.083  14.400  14.311
30961W        W 4029  37.977  11.471  14.829
30962W        W 4030  42.735  18.664   2.721
30963W        W 4031  43.465   1.191  10.848
30964W        W 4032  35.521  35.268   2.199
30965W        W 4033   5.355  11.551   1.718
30966W        W 4034  39.098   9.944   3.635
30967W        W 4035  36.856  35.504   3.742
30968W        W 4036  12.855  38.618  12.025
30969W        W 4037  35.026  36.954   2.211
30970W        W 4038  21.316  42.473  12.451
30971W        W 4039  33.506  32.637   4.681
30972W        W 4040  28.519   6.710  12.573
30973W        W 4041  42.019  25.247   3.848
30974W        W 4042  24.701  26.718  14.773
30975W        W 4043   7.189  31.627  11.526
30976W        W 4044  23.689  34.085  13.463
30977W        W 4045  28.698  27.877   2.269
30978W        W 4046   5.042  43.539   0.556
30979W        W 4047  27.870  10.751  11.523
30980W        W 4048   5.950  34.122   1.443
30981W        W 4049  33.837  26.931   2.684
30982W        W 4050  30.663  26.673  14.798
30983W        W 4051  14.733  39.112  13.516
30984W        W 4052  33.474  29.418   0.295
30985W        W 4053  18.513   4.222  12.776
30986W        W 4054  44.346  30.497  12.434
30987W        W 4055  29.449  20.755  11.158
30988W        W 4056  25.665  34.752   4.143
30989W        W 4057  40.392  20.749   3.034
30990W        W 4058  41.868  37.564  13.610
30991W        W 4059   3.951  14.262   2.625
30992W        W 4060   0.058  43.733   3.238
30993W        W 4061  31.662   5.275   2.633
30994W        W 4062  38.250  44.412   2.327
30995W        W 4063  34.635  35.469  14.390
30996W        W 4064  37.282  37.817  11.605
30997W        W 4065  42.775  13.410  10.778
30998W        W 4066  31.209  14.239   5.572
30999W        W 4067  25.942   4.784   0.726
31000W        W 4068  33.628  34.952   2.799
31001W        W 4069  15.228  36.495  12.118
31002W        W 4070  13.641  35.585   0.679
31003W        W 4071   7.218  28.982   4.755
31004W        W 4072  11.170  34.069   3.309
31005W        W 4073   5.590  34.972  10.711
31006W        W 4074   5.083  18.990   4.266
31007W        W 4075  33.641   1.344  13.253
31008W        W 4076  31.549  38.611   2.454
31009W        W 4077  30.762  28.741  11.187
31010W        W 4078   9.438  20.604   1.499
31011W        W 4079  37.608  20.932  11.087
31012W        W 4080  44.816  40.128   3.304
31013W        W 4081  27.980  32.856   4.126
31014W        W 4082  35.099   3.313  14.047
31015W        W 4083  19.098  24.490   3.659
31016W        W 4084   8.395  19.081   1.470
31017W        W 4085   2.559   2.215  11.091
31018W        W 4086  33.237   4.143   1.395
31019W        W 4087  17.679   1.889  11.669
31020W        W 4088  40.544  27.456   3.389
31021W        W 4089  39.337  30.132   3.731
31022W        W 4090  39.453  12.306   2.276
31023W        W 4091  15.208   2.278  11.498
31024W        W 4092  43.643  16.761   3.824
31025W        W 4093  20.469  30.000   0.015
31026W        W 4094  33.686   4.381  11.047
31027W        W 4095  25.590  44.355  13.119
31028W        W 4096   9.840  12.918   0.772
31029W        W 4097  27.081  25.498   0.758
31030W        W 4098  40.501   3.011  13.763
31031W        W 4099   2.385  31.138   0.925
31032W        W 4100  38.581   8.178  11.570
31033W        W 4101  37.293   8.761  14.548
31034W        W 4102  36.779  11.386  14.435
31035W        W 4103  28.176  35.205   4.113
31036W        W 4104  31.620  41.237   1.768
31037W        W 4105  22.029  12.812  12.944
31038W        W 4106   6.689  12.633  12.591
31039W        W 4107  41.475  19.103  13.954
31040W        W 4108  15.290  39.764  12.848
31041W        W 4109   0.498  26.191  11.213
31042W        W 4110  37.610  22.878  14.900
31043W        W 4111  30.079  44.480   1.952
31044W        W 4112   2.508  31.441  12.547
31045W        W 4113  33.838  23.426  12.579
31046W        W 4114   6.277   6.119   0.962
31047W        W 4115  30.266  42.297  12.525
31048W        W 4116   3.025  30.126   1.337
31049W        W 4117   9.573  26.536   3.249
31050W        W 4118   6.930  23.196   4.168
31051W        W 4119   7.839  43.811   1.485
31052W        W 4120  35.556  29.842   0.342
31053W        W 4121  20.090  17.021   0.849
31054W        W 4122   2.404  19.778   4.164
31055W        W 4123  27.442   6.566   4.737
31056W        W 4124  19.775   5.936   1.448
31057W        W 4125  39.500  15.753  13.827
31058W        W 4126  10.581  31.354  13.838
31059W        W 4127   7.287  35.130   3.128
31060W        W 4128  34.461  15.219  11.029
31061W        W 4129  16.404  40.870   3.715
31062W        W 4130   7.383  15.257  14.796
31063W        W 4131  40.469  17.012  14.423
31064W        W 4132  14.320  28.946  13.980
31065W        W 4133   4.315   4.743   3.560
31066W        W 4134  23.502  16.233  14.970
31067W        W 4135  26.702  24.546   0.241
31068W        W 4136  30.443   1.620   2.744
31069W        W 4137  15.845  27.600   1.324
31070W        W 4138  13.882   3.807   1.727
31071W        W 4139  15.799  12.604   2.849
31072W        W 4140   2.973  17.391  14.456
31073W        W 4141   1.073   7.438   2.801
31074W        W 4142  10.073  39.904  14.267
31075W        W 4143  34.838  44.856   1.823
31076W        W 4144  28.930  42.249  12.827
31077W        W 4145  43.302   0.799   0.968
31078W        W 4146  35.289  44.781  13.628
31079W        W 4147  44.508  33.579   0.266
31080W        W 4148  29.214  38.836  11.075
31081W        W 4149  38.627  17.058  11.099
31082W        W 4150  10.287  17.188  10.289
31083W        W 4151   7.785  15.380  10.649
31084W        W 4152   2.670   4.286  11.117
31085W        W 4153   9.953  40.317   4.579
31086W        W 4154  41.308  30.448   4.582
31087W        W 4155  36.945  10.646   4.770
31088W        W 4156  26.707  28.494   4.554
31089W        W 4157   0.967  12.693  13.057
31090W        W 4158  12.818  30.420   1.407
31091W        W 4159  15.691  16.570  11.599
31092W        W 4160  40.926   3.894  14.554
31093W        W 4161  40.936  18.718   2.428
31094W        W 4162  36.355  31.770  10.275
31095W        W 4163  14.027  20.042  13.461
31096W        W 4164  12.651  27.687   3.143
31097W        W 4165  30.256   6.133  12.429
31098W        W 4166  30.699  38.422   3.283
31099W        W 4167  22.503  14.170  12.649
31100W        W 4168   3.871  14.775   2.395
31101W        W 4169  14.315  43.025  13.066
31102W        W 4170  15.440  42.321   4.818
31103W        W 4171  38.224   7.807   0.887
31104W        W 4172  30.928  32.995  12.136
31105W        W 4173  23.562   7.807   3.136
31106W        W 4174  16.621  14.105  12.505
31107W        W 4175  41.840  42.972  11.458
31108W        W 4176  25.301   6.239   0.173
31109W        W 4177  34.211  17.093  13.563
31110W        W 4178  15.649  17.456   3.185
31111W        W 4179   5.185  26.407  11.557
31112W        W 4180   2.908  27.137   1.303
31113W        W 4181  26.792   9.164   0.226
31114W        W 4182   9.822  29.340  13.525
31115W        W 4183  41.367  28.966  12.559
31116W        W 4184  37.578  28.129   1.783
31117W        W 4185   5.916  13.696  10.419
31118W        W 4186  24.587  28.200   2.361
31119W        W 4187   4.465  18.423   0.463
31120W        W 4188  17.309   6.395   1.343
31121W        W 4189  20.163  19.878  10.244
31122W        W 4190  41.937  28.461  14.430
31123W        W 4191  38.385  19.789  11.637
31124W        W 4192  37.163   4.380  13.803
31125W        W 4193  39.794  19.680   4.616
31126W        W 4194  28.971  42.010  11.114
31127W        W 4195  22.596  35.955  13.749
31128W        W 4196  14.289  36.909  10.722
31129W        W 4197  40.337   3.966  14.943
31130W        W 4198  14.350  24.960  11.360
31131W        W 4199  24.964  23.466  12.001
31132W        W 4200  19.584  40.522  12.642
31133W        W 4201  42.527  39.532  13.795
31134W        W 4202  10.493  16.071   3.941
31135W        W 4203  27.156  40.039  12.953
31136W        W 4204  24.000  39.105   3.630
31137W        W 4205  18.924  34.625  13.863
31138W        W 4206   6.242  38.378   3.835
31139W        W 4207   4.826  30.935  11.979
31140W        W 4208  41.540  19.170   1.261
31141W        W 4209  35.945   8.519  14.836
31142W        W 4210  39.015   3.212  10.310
31143W        W 4211  16.796  17.080   1.509
31144W        W 4212  34.029   5.759  11.547
31145W        W 4213  33.548  17.275   3.101
31146W        W 4214   1.064  34.404  13.405
31147W        W 4215  26.223   9.648   1.320
31148W        W 4216  30.100  28.590   0.270
31149W        W 4217  32.750   6.142   2.978
31150W        W 4218   8.191   2.843   0.331
31151W        W 4219  24.972  34.018  11.988
31152W        W 4220  33.958  17.017   4.867
31153W        W 4221  31.718   8.282   2.776
31154W        W 4222   3.476  18.671  14.522
31155W        W 4223  25.416  21.017   1.796
31156W        W 4224   0.748  27.176  14.980
31157W        W 4225  26.356  26.563  13.518
31158W        W 4226  36.648  43.358  14.402
31159W        W 4227  33.801  22.822   1.937
31160W        W 4228  13.348  22.743  11.164
31161W        W 4229   4.608  17.205  13.835
31162W        W 4230  33.463  42.799   4.641
31163W        W 4231  15.249  35.849   1.753
31164W        W 4232  16.141  28.205  11.601
31165W        W 4233  44.271  32.662   3.241
31166W        W 4234   8.121  17.697  12.416
31167W        W 4235  44.794   6.794  14.004
31168W        W 4236  12.083  27.924   3.875
31169W        W 4237  16.784  29.071   4.290
31170W        W 4238  24.684   4.661  11.116
31171W        W 4239   6.842  22.906  10.834
31172W        W 4240  38.545  37.970   1.733
31173W        W 4241  32.622  35.863   4.579
31174W        W 4242   6.740  22.536  14.549
31175W        W 4243  36.635   7.781   4.079
31176W        W 4244   4.486  10.649   1.171
31177W        W 4245   2.186  21.838   3.178
31178W        W 4246   0.594  17.808  11.649
31179W        W 4247  21.248  39.421  10.969
31180W        W 4248  11.857  16.330   0.831
31181W        W 4249  37.171   1.414  14.823
31182W        W 4250  39.213  44.022   3.665
31183W        W 4251  19.312  27.958  12.730
31184W        W 4252  22.450  28.058  12.991
31185W        W 4253  33.969  43.213   2.316
31186W        W 4254  33.480   7.675   9.997
31187W        W 4255  19.341   1.963   3.653
31188W        W 4256  18.766  32.662  14.665
31189W        W 4257   4.482  26.071  13.976
31190W        W 4258  24.388   6.385  11.622
31191W        W 4259  24.871  18.844  14.820
31192W        W 4260  12.618  32.507   3.702
31193W        W 4261  13.224  32.464   4.503
31194W        W 4262  33.333  36.805   3.676
31195W        W 4263  30.796   6.216  11.600
31196W        W 4264  21.005  11.997  12.507
31197W        W 4265  15.945   7.783   3.197
31198W        W 4266  44.048  43.098  14.576
31199W        W 4267  18.717  35.775  13.640
31200W        W 4268  37.409  23.663   0.168
31201W        W 4269  34.771  28.497  14.362
31202W        W 4270  36.334  19.260  13.429
31203W        W 4271  25.215  27.387  12.570
31204W        W 4272  18.015  22.152  13.548
31205W        W 4273  39.889  19.003   0.073
31206W        W 4274   8.761  28.931  11.532
31207W        W 4275  33.591   0.981   1.296
31208W        W 4276  22.293   8.534   4.705
31209W        W 4277  43.908  21.354   0.392
31210W        W 4278   6.673  40.553   5.065
31211W        W 4279   4.029  23.780   0.427
31212W        W 4280  33.444  33.312  13.393
31213W        W 4281  23.201  17.240   0.789
31214W        W 4282   3.218   4.405  14.218
31215W        W 4283  25.848  18.503   2.670
31216W        W 4284   7.868   0.757   3.443
31217W        W 4285  11.458  19.540   2.243
31218W        W 4286  27.708   6.925   3.817
31219W        W 4287  26.173  11.870   4.835
31220W        W 4288  25.700  24.546  11.611
31221W        W 4289  15.662  22.737  10.971
31222W        W 4290  24.239  44.911   3.739
31223W        W 4291  22.058   5.136  11.094
31224W        W 4292  28.155  11.217   0.422
31225W        W 4293   9.816  32.439   2.313
31226W        W 4294  13.142  26.418   2.190
31227W        W 4295   6.452  26.212   4.201
31228W        W 4296  19.107  43.713  12.421
31229W        W 4297  12.604  18.030  10.574
31230W        W 4298  42.471   2.550  14.260
31231W        W 4299   7.190  24.006   1.335
31232W        W 4300  27.187   9.246  11.592
31233W        W 4301  42.336  23.509   0.791
31234W        W 4302  14.705  24.712  10.726
31235W        W 4303  22.497  34.850  14.374
31236W        W 4304   7.049  39.512  13.835
31237W        W 4305  39.948  43.859  12.071
31238W        W 4306  21.626  26.390   3.618
31239W        W 4307   5.032   1.863  12.954
31240W        W 4308   6.986  24.957   2.344
31241W        W 4309  38.033  20.621  12.437
31242W        W 4310  36.157  25.433  12.202
31243W        W 4311  15.835  23.145   3.329
31244W        W 4312   0.404  17.973   4.271
31245W        W 4313  13.966  27.252  14.545
31246W        W 4314  14.357  21.283  13.957
31247W        W 4315  21.525   3.229   2.291
31248W        W 4316  21.696   4.868   3.671
31249W        W 4317  13.515  34.492   1.857
31250W        W 4318  36.969   3.488  11.697
31251W        W 4319   3.388  13.669  14.135
31252W        W 4320   6.913  31.043  11.547
31253W        W 4321   6.755   0.278  10.736
31254W        W 4322  28.931  20.669   1.501
31255W        W 4323  19.949  18.559   3.266
31256W        W 4324   6.637   2.979  13.024
31257W        W 4325   9.893  20.654  12.472
31258W        W 4326  38.457  11.789  14.764
31259W        W 4327  42.255  26.032   3.146
31260W        W 4328  36.468   1.783   0.621
31261W        W 4329  20.022  13.617  14.612
31262W        W 4330  35.809  19.236  13.545
31263W        W 4331  30.305   1.506  13.055
31264W        W 4332   0.652  21.536  13.469
31265W        W 4333  43.473  43.415   4.562
31266W        W 4334  36.522   8.257  10.399
31267W        W 4335  15.303  42.844   3.105
31268W        W 4336  27.784  19.253  11.720
31269W        W 4337  17.090  33.698   2.747
31270W        W 4338   0.221  32.347   2.786
31271W        W 4339  18.690  30.172   3.705
31272W        W 4340  39.370   1.925  14.820
31273W        W 4341  41.524   9.143   2.428
31274W        W 4342   5.776  15.123  13.069
31275W        W 4343   2.754  30.565   2.633
31276W        W 4344  39.451  13.361   4.580
31277W        W 4345   5.659  24.962   1.701
31278W        W 4346  40.885  13.206   3.094
31279W        W 4347  35.920  32.102  10.256
31280W        W 4348  43.876   7.617  13.053
31281W        W 4349   8.271  23.205   2.662
31282W        W 4350   2.491  38.405  11.089
31283W        W 4351  36.501  27.042  12.582
31284W        W 4352  10.286  18.020  13.368
31285W        W 4353  23.687   2.973  12.264
31286W        W 4354   6.695  26.098  11.518
31287W        W 4355   4.694  33.072  12.395
31288W        W 4356   4.110   8.338  13.361
31289W        W 4357  33.601  23.965  14.292
31290W        W 4358  34.494  34.591  11.218
31291W        W 4359  19.177  20.384   1.825
31292W        W 4360  17.799   9.843   3.724
31293W        W 4361  42.311   3.688   3.246
31294W        W 4362  42.410   8.673   2.126
31295W        W 4363  14.257  27.660  14.434
31296W        W 4364   7.680   3.834   1.162
31297W        W 4365   1.408  32.079   3.445
31298W        W 4366   9.819  18.654  10.166
31299W        W 4367  26.609  19.180   2.867
31300W        W 4368  12.608  44.537  11.154
31301W        W 4369   0.627  23.867   5.006
31302W        W 4370  43.965  15.737  14.132
31303W        W 4371  34.415  14.387  11.205
31304W        W 4372  14.745  10.491  12.678
31305W        W 4373   9.252  37.901  10.560
31306W        W 4374  15.620   0.784   2.877
31307W        W 4375  18.081  31.861   1.395
31308W        W 4376  14.484  26.258  14.882
31309W        W 4377   9.649  25.754  13.100
31310W        W 4378   9.797  35.961   4.265
31311W        W 4379  30.543  16.522   1.791
31312W        W 4380   1.334  11.157   4.637
31313W        W 4381  29.578   9.313  10.715
31314W        W 4382   1.479  15.473   1.322
31315W        W 4383  26.445   5.261  11.185
31316W        W 4384  25.737  40.975  12.555
31317W        W 4385   5.860   8.804   2.889
31318W        W 4386  26.404   7.860  10.650
31319W        W 4387   3.282  21.255   1.874
31320W        W 4388   3.529   0.266  13.159
31321W        W 4389  30.235  10.331  13.814
31322W        W 4390  44.252  31.730   4.431
31323W        W 4391  23.439  33.631  13.501
31324W        W 4392  42.698   2.708  10.999
31325W        W 4393  11.267  22.076   1.231
31326W        W 4394  21.050  38.953   2.760
31327W        W 4395   6.214  14.530  14.813
31328W        W 4396  14.046  28.056  11.464
31329W        W 4397  22.539  35.409   9.882
31330W        W 4398  18.163  39.385  14.704
31331W        W 4399  34.442  11.605  14.260
31332W        W 4400   3.643  43.547  11.021
31333W        W 4401  11.665  35.454  10.631
31334W        W 4402  13.194  37.133  12.959
31335W        W 4403  43.483  21.301   2.359
31336W        W 4404  37.094  21.114  14.462
31337W        W 4405   3.363  10.134   2.854
31338W        W 4406  35.883  37.316   4.100
31339W        W 4407  20.960   3.459  14.063
31340W        W 4408  44.928  43.099   1.168
31341W        W 4409   6.958  42.526  11.025
31342W        W 4410  35.248  10.832  11.721
31343W        W 4411  16.180   9.887   4.313
31344W        W 4412  34.303  15.879  13.017
31345W        W 4413  31.040  28.490  12.981
31346W        W 4414  27.549   2.857  11.199
31347W        W 4415  27.489  22.975   1.937
31348W        W 4416  44.866   3.505  11.265
31349W        W 4417  12.671  34.866   1.703
31350W        W 4418   1.680  35.385  10.863
31351W        W 4419   7.198   7.910  10.734
31352W        W 4420  27.006  28.064  10.992
31353W        W 4421  21.584   9.405   1.762
31354W        W 4422   4.848   9.053   0.338
31355W        W 4423  25.554  31.386  11.184
31356W        W 4424  14.235  35.806  12.515
31357W        W 4425  19.561  38.095  14.453
31358W        W 4426  33.978   7.240   4.247
31359W        W 4427   9.235  21.116  10.546
31360W        W 4428   5.356   5.492  14.983
31361W        W 4429   2.683  18.169  13.085
31362W        W 4430   7.092   9.564   3.675
31363W        W 4431  40.889  17.790  11.401
31364W        W 4432  29.138  43.852  13.080
31365W        W 4433  15.699  29.956   0.957
31366W        W 4434  44.568  19.167  10.748
31367W        W 4435   1.492  37.050   1.835
31368W        W 4436  42.360  24.510   0.932
31369W        W 4437  22.637  21.606  14.614
31370W        W 4438  38.765  23.164   4.475
31371W        W 4439  23.107  18.160   2.210
31372W        W 4440  19.010  17.663  14.708
31373W        W 4441  38.408  22.238  14.833
31374W        W 4442  44.467  10.246   2.239
31375W        W 4443  33.068   4.848   2.792
31376W        W 4444  13.552  20.567  14.393
31377W        W 4445   6.723  17.347  14.331
31378W        W 4446  39.991  34.353  10.468
31379W        W 4447   8.582   2.435  12.180
31380W        W 4448  35.493  25.653   4.255
31381W        W 4449  14.332  24.259  13.462
31382W        W 4450  22.175  38.176  13.470
31383W        W 4451  31.010  36.108  14.918
31384W        W 4452  31.217  28.436  10.725
31385W        W 4453  29.374  13.661  13.537
31386W        W 4454  28.544  20.616  14.691
31387W        W 4455   7.757  15.878  10.799
31388W        W 4456  25.775  18.163   3.070
31389W        W 4457  18.520  13.247   4.222
31390W        W 4458   4.300  19.617  10.738
31391W        W 4459  13.655   2.502  14.379
31392W        W 4460  37.377  18.532  11.617
31393W        W 4461  37.062  10.133   4.847
31394W        W 4462  41.996  37.201   4.680
31395W        W 4463  10.670  34.901   3.272
31396W        W 4464  19.767  11.390  14.361
31397W        W 4465  42.787  18.004  12.473
31398W        W 4466  29.520  23.734   0.383
31399W        W 4467  32.936  32.394   2.375
31400W        W 4468  35.361   2.934  12.925
31401W        W 4469   8.120  29.628   2.434
31402W        W 4470  14.614  28.993   1.741
31403W        W 4471  15.132   5.370  13.799
31404W        W 4472   3.358  44.666   1.146
31405W        W 4473  38.532  20.385  14.282
31406W        W 4474  29.052  20.115  11.875
31407W        W 4475  15.247   0.808  12.442
31408W        W 4476  39.044  20.001   1.257
31409W        W 4477  38.471  22.020   0.765
31410W        W 4478  42.264   9.735   0.211
31411W        W 4479  20.037   0.862  13.965
31412W        W 4480  20.553  19.654   1.774
31413W        W 4481  14.291  19.904  10.665
31414W        W 4482   2.103  36.097   0.814
31415W        W 4483  43.796   8.070   2.729
31416W        W 4484  30.107   4.775   3.977
31417W        W 4485  26.548  31.766   5.213
31418W        W 4486  11.186   5.856   3.220
31419W        W 4487  34.807  26.038  10.865
31420W        W 4488  25.182  23.319  12.459
31421W        W 4489  32.646  18.934  10.270
31422W        W 4490  15.077   7.953   2.640
31423W        W 4491   3.574  12.348  11.426
31424W        W 4492  35.467   1.487  14.517
31425W        W 4493  25.040   0.938  12.423
31426W        W 4494  40.113  38.096  11.030
31427W        W 4495  32.824  41.366  14.018
31428W        W 4496   2.835  32.473   2.125
31429W        W 4497  19.222   1.815  13.607
31430W        W 4498  24.221  30.121  14.665
31431W        W 4499  33.411  18.998   0.074
31432W        W 4500   9.758  41.579   0.474
31433W        W 4501  38.206  32.695   5.489
31434W        W 4502  30.597  36.805  11.801
31435W        W 4503  42.864  27.988   1.796
31436W        W 4504  19.795  40.834   0.011
31437W        W 4505  22.632  23.985   4.157
31438W        W 4506   6.306   3.766   1.918
31439W        W 4507   3.039  17.339  11.924
31440W        W 4508  14.107  15.794   1.954
31441W        W 4509  43.355  14.816  11.490
31442W        W 4510  23.258  32.568   0.793
31443W        W 4511  30.430  22.282   1.770
31444W        W 4512  35.116  40.226   0.339
31445W        W 4513  33.111  33.223  11.962
31446W        W 4514  30.035  27.998  11.216
31447W        W 4515  31.872   9.696  10.652
31448W        W 4516  10.667  34.379   3.332
31449W        W 4517  12.834  24.313   4.035
31450W        W 4518  18.156   7.757   0.544
31451W        W 4519   8.944  33.042   0.680
31452W        W 4520  21.481  42.645  13.534
31453W        W 4521   0.393  23.464  10.745
31454W        W 4522  27.937  43.097  13.537
31455W        W 4523  30.639  22.042  11.297
31456W        W 4524   9.772   5.991  14.469
31457W        W 4525  39.594  33.132   1.238
31458W        W 4526  13.539  36.569  12.079
31459W        W 4527   4.200  36.089  11.883
31460W        W 4528  14.380  34.983  10.066
31461W        W 4529   0.143   6.367   4.038
31462W        W 4530   7.760  30.972  14.457
31463W        W 4531  30.228   9.270  12.939
31464W        W 4532  19.056  44.866   2.814
31465W        W 4533   5.142   2.273   1.233
31466W        W 4534  42.916  11.228  11.407
31467W        W 4535   7.394  39.908   0.445
31468W        W 4536  38.298   2.049   0.520
31469W        W 4537   2.674   1.345  11.004
31470W        W 4538   8.153   4.593  10.893
31471W        W 4539  39.988  38.541   3.146
31472W        W 4540  37.864  23.088  11.622
31473W        W 4541  43.326  41.774   4.772
31474W        W 4542  44.972  27.138   2.272
31475W        W 4543  44.980  23.355   2.696
31476W        W 4544  13.972  42.677   4.828
31477W        W 4545  29.274  32.078  12.086
31478W        W 4546   5.548   8.922  11.232
31479W        W 4547  17.871   8.057  12.109
31480W        W 4548  44.524  13.791  12.502
31481W        W 4549  21.712  27.171  12.117
31482W        W 4550  28.052  32.675   0.916
31483W        W 4551   4.227  12.424  13.926
31484W        W 4552  24.432  38.344  11.855
31485W        W 4553   8.711   5.940   1.259
31486W        W 4554  27.703   7.145   1.282
31487W        W 4555  38.877  32.864   0.210
31488W        W 4556  38.413  11.734   4.503
31489W        W 4557  39.458  44.348  11.134
31490W        W 4558   0.748  15.880   2.483
31491W        W 4559   3.189   7.313  10.720
31492W        W 4560  44.876  22.242  12.912
31493W        W 4561  38.640  34.291   4.735
31494W        W 4562  10.124   8.296  10.725
31495W        W 4563  37.364  12.375   4.645
31496W        W 4564   9.290   4.316   2.927
31497W        W 4565  20.151  33.981   2.799
31498W        W 4566  11.607  19.734   0.420
31499W        W 4567  29.670  20.004  14.880
31500W        W 4568  30.483  25.040  13.587
31501W        W 4569  25.756   9.269   0.395
31502W        W 4570   4.181   4.786  13.762
31503W        W 4571  21.708  25.765  10.748
31504W        W 4572  38.422  39.300   2.659
31505W        W 4573  16.395  28.945   0.357
31506W        W 4574  13.817  25.630   4.968
31507W        W 4575  25.438  16.606  14.422
31508W        W 4576  14.063  41.262  12.090
31509W        W 4577  33.948  12.651  14.260
31510W        W 4578  29.889  27.138   2.693
31511W        W 4579  12.094  14.686  11.952
31512W        W 4580  33.655  20.222  10.868
31513W        W 4581  38.057   6.847  11.331
31514W        W 4582  11.062  36.319   2.572
31515W        W 4583  20.584  10.710   4.383
31516W        W 4584  11.591  33.136   1.172
31517W        W 4585  16.191   7.274   3.253
31518W        W 4586  38.495   0.662  10.537
31519W        W 4587  14.475   1.081  12.001
31520W        W 4588   3.651   2.031   3.723
31521W        W 4589  12.528  35.954   4.381
31522W        W 4590  34.830  39.130  11.010
31523W        W 4591  11.109  30.463   0.909
31524W        W 4592  11.175  13.076  13.980
31525W        W 4593  43.644  33.098  14.970
31526W        W 4594  37.674  43.024  14.803
31527W        W 4595   1.492  19.340  13.503
31528W        W 4596  27.467  13.626   4.136
31529W        W 4597   6.751   1.219   0.725
31530W        W 4598  23.534  10.860   1.652
31531W        W 4599  42.756  25.982   3.218
31532W        W 4600  32.059  36.484   4.534
31533W        W 4601  11.584   4.170  11.885
31534W        W 4602  32.699  35.820  12.032
31535W        W 4603  42.779  29.616  14.959
31536W        W 4604  35.915  14.740   0.665
31537W        W 4605   7.093  23.683   0.791
31538W        W 4606  44.799  37.930   1.481
31539W        W 4607  10.366  39.780  13.049
31540W        W 4608  34.834   9.102  11.100
31541W        W 4609  32.591   1.479   4.157
31542W        W 4610  35.775  13.626  11.877
31543W        W 4611  17.168   6.176   2.800
31544W        W 4612  22.684  24.962   3.142
31545W        W 4613  38.643  24.709   3.001
31546W        W 4614  40.294  23.041  14.453
31547W        W 4615  15.703  23.464   1.219
31548W        W 4616  40.121   7.897   2.865
31549W        W 4617   8.386   6.309   0.408
31550W        W 4618  14.715  23.395   1.220
31551W        W 4619   9.329  41.594   0.776
31552W        W 4620  28.537  44.958  10.861
31553W        W 4621   6.865  21.095   0.561
31554W        W 4622   3.248  17.847  12.386
31555W        W 4623   8.785  20.046   0.050
31556W        W 4624  36.025  35.966  13.391
31557W        W 4625  18.278  18.225   3.939
31558W        W 4626  17.209   3.751  10.496
31559W        W 4627   1.372  28.482  10.743
31560W        W 4628   2.982  13.377   2.752
31561W        W 4629  16.655  33.083   4.654
31562W        W 4630   1.329  21.495  11.885
31563W        W 4631  13.832  22.007  11.293
31564W        W 4632  40.588  43.501  13.449
31565W        W 4633  25.238  42.721   3.309
31566W        W 4634  21.130  35.438  11.672
31567W        W 4635  37.536  30.032  10.716
31568W        W 4636  35.536  12.666  11.580
31569W        W 4637  13.848   4.769   3.651
31570W        W 4638  37.919   4.149  12.039
31571W        W 4639  23.249  19.675  14.882
31572W        W 4640  22.476  38.296  14.327
31573W        W 4641  29.469   9.256  12.602
31574W        W 4642  31.334  22.480   2.399
31575W        W 4643  34.952   5.962   4.644
31576W        W 4644  30.475  32.499   2.893
31577W        W 4645  10.598  26.140  14.369
31578W        W 4646   9.788  37.878   0.694
31579W        W 4647   9.794  10.416  12.808
31580W        W 4648  42.776  13.848   4.658
31581W        W 4649  22.997   8.242   2.765
31582W        W 4650  34.497   7.125  12.901
31583W        W 4651  13.379   9.844  12.941
31584W        W 4652   7.289  33.115  14.517
31585W        W 4653  11.831  37.805  11.599
31586W        W 4654  33.603   5.364   2.293
31587W        W 4655  33.432   2.041  13.979
31588W        W 4656   6.741  26.574   1.330
31589W        W 4657   4.838  18.268  13.826
31590W        W 4658  42.027  31.922  13.031
31591W        W 4659   2.218  14.861  11.563
31592W        W 4660   7.742  32.104  12.058
31593W        W 4661  13.935  12.293   4.519
31594W        W 4662  14.533  30.288  12.444
31595W        W 4663  20.474  29.139   0.990
31596W        W 4664  40.987  21.248  12.002
31597W        W 4665  16.161  36.565   0.205
31598W        W 4666   1.195  12.059   3.413
31599W        W 4667  10.158   6.843   3.929
31600W        W 4668   6.805  31.844   1.404
31601W        W 4669   5.700  25.613  14.858
31602W        W 4670   4.132  35.213  11.965
31603W        W 4671   2.776  36.150  12.614
31604W        W 4672  36.985   0.001   4.204
31605W        W 4673  17.768  23.415   0.355
31606W        W 4674  14.573   2.901  11.158
31607W        W 4675  10.599   5.798   1.451
31608W        W 4676  30.005  10.586  14.856
31609W        W 4677  36.976  25.951   0.047
31610W        W 4678  37.282   7.214   4.550
31611W        W 4679  16.757  28.266   1.837
31612W        W 4680  31.803  28.421  12.362
31613W        W 4681  39.889   8.458   3.170
31614W        W 4682  33.603  27.507   2.795
31615W        W 4683  24.658  17.461   3.665
31616W        W 4684  29.117  32.374  10.603
31617W        W 4685  26.814   6.767   3.267
31618W        W 4686  16.282  20.708   3.657
31619W        W 4687  23.534  11.593  13.862
31620W        W 4688  12.111  34.575   3.326
31621W        W 4689   3.369   5.914   4.064
31622W        W 4690   5.487  33.065  14.153
31623W        W 4691  38.898  17.263   1.903
31624W        W 4692  38.902  24.226  10.762
31625W        W 4693   2.683   7.929  13.716
31626W        W 4694  12.997  41.945   3.383
31627W        W 4695  44.332   3.066   3.891
31628W        W 4696  20.510  26.282   4.178
31629W        W 4697  34.841   9.354  14.822
31630W        W 4698  33.324   8.256   1.376
31631W        W 4699   1.642  42.729  12.833
31632W        W 4700  31.888  11.370   4.266
31633W        W 4701  42.897  23.536   0.990
31634W        W 4702  17.698  22.110  11.539
31635W        W 4703   1.452  24.677   0.369
31636W        W 4704   9.231  38.037  12.369
31637W        W 4705  29.233  39.486   1.258
31638W        W 4706  15.175   9.228  10.578
31639W        W 4707   0.346  22.039  12.883
31640W        W 4708  20.281  16.834   0.351
31641W        W 4709  37.321  39.723   3.260
31642W        W 4710  39.340  21.451  12.897
31643W        W 4711  32.921  32.928  14.832
31644W        W 4712  44.743  19.774  11.465
31645W        W 4713  32.536  40.867  10.860
31646W        W 4714  23.044  44.599  13.964
31647W        W 4715  33.998  39.053   3.234
31648W        W 4716   6.135  27.995  12.244
31649W        W 4717  17.825   6.504   0.264
31650W        W 4718   1.443  32.953  11.916
31651W        W 4719  33.199  40.068  12.253
31652W        W 4720  25.178  23.928  13.047
31653W        W 4721  18.571  16.268  12.315
31654W        W 4722  43.674  13.215   3.669
31655W        W 4723  42.946   6.482  11.155
31656W        W 4724  24.771   4.844  14.003
31657W        W 4725  13.314  23.488  10.123
31658W        W 4726  11.951  34.883  11.441
31659W        W 4727   5.263  32.049   5.040
31660W        W 4728  39.459  18.693   2.758
31661W        W 4729  19.350  42.478   3.255
31662W        W 4730  11.748  40.612  11.050
31663W        W 4731   4.521   2.820  13.743
31664W        W 4732  33.507   2.423   4.137
31665W        W 4733  12.730  32.372   0.265
31666W        W 4734  22.220  23.691  12.844
31667W        W 4735  15.388  22.513   2.823
31668W        W 4736  39.038  30.514   2.271
31669W        W 4737   9.058  29.512   2.679
31670W        W 4738  19.151   0.257  11.865
31671W        W 4739  33.703  27.701   1.294
31672W        W 4740  40.888   6.746  14.194
31673W        W 4741   4.690  36.616   4.653
31674W        W 4742   1.888  37.018   3.481
31675W        W 4743  36.854  16.110  13.853
31676W        W 4744  44.725   4.900   1.259
31677W        W 4745   0.543   3.045   4.178
31678W        W 4746  10.936  13.606  13.081
31679W        W 4747  29.085  19.638  11.576
31680W        W 4748  36.999  12.593   2.870
31681W        W 4749  37.655  32.813  14.022
31682W        W 4750  36.938  29.362  13.346
31683W        W 4751  23.546  18.144  13.880
31684W        W 4752  42.237  35.937  11.541
31685W        W 4753  41.914   3.270  13.636
31686W        W 4754  33.697  18.648  11.958
31687W        W 4755  31.248   4.022  14.524
31688W        W 4756  27.136   3.597   2.920
31689W        W 4757  32.435  37.808  13.854
31690W        W 4758  41.009  13.197   0.907
31691W        W 4759  16.586  44.647   4.571
31692W        W 4760  25.554  11.110   2.442
31693W        W 4761   9.900  38.308  11.098
31694W        W 4762  41.970  15.713  14.073
31695W        W 4763  12.654  31.288  11.091
31696W        W 4764  41.984  27.805  11.238
31697W        W 4765   3.562  15.616   1.246
31698W        W 4766  37.661  22.498   0.755
31699W        W 4767  25.667  17.617  13.335
31700W        W 4768  24.641   7.892  12.434
31701W        W 4769  25.409  29.722   1.754
31702W        W 4770  43.429  27.121  12.907
31703W        W 4771  21.050  24.428   1.359
31704W        W 4772  12.821  16.612  10.730
31705W        W 4773  36.983  10.147   3.870
31706W        W 4774  15.607  36.378  12.999
31707W        W 4775  34.906  35.384  10.932
31708W        W 4776  41.082  26.932  11.558
31709W        W 4777  36.782  44.034   0.725
31710W        W 4778  28.101  26.973   1.392
31711W        W 4779  15.247  15.423   4.953
31712W        W 4780  41.836  32.453  12.909
31713W        W 4781  19.731  12.182   2.534
31714W        W 4782  24.135  38.847  11.880
31715W        W 4783   8.433  40.936  14.226
31716W        W 4784   8.723  42.554  10.478
31717W        W 4785  22.621  16.488  14.284
31718W        W 4786   6.413  34.781  11.082
31719W        W 4787  15.559  11.191  14.614
31720W        W 4788  24.084  16.799   0.450
31721W        W 4789  39.007  17.056   4.253
31722W        W 4790  18.657  25.623   3.906
31723W        W 4791   7.861  15.455   1.643
31724W        W 4792  13.770  28.533  10.740
31725W        W 4793  25.598  41.827  11.827
31726W        W 4794  32.127  23.082  12.921
31727W        W 4795  29.422  40.444  14.951
31728W        W 4796  10.740  41.875  11.375
31729W        W 4797  23.166   8.720   4.698
31730W        W 4798  41.512  42.454   4.514
31731W        W 4799  21.235  42.304   0.709
31732W        W 4800  41.305  35.102  14.924
31733W        W 4801  13.395  20.276   1.430
31734W        W 4802  10.068   8.152   2.677
31735W        W 4803  39.807  12.620   0.992
31736W        W 4804  11.262  24.453  10.593
31737W        W 4805  17.111  23.193   4.893
31738W        W 4806  30.960  42.750   3.107
31739W        W 4807  30.155  30.707   2.357
31740W        W 4808  36.426  17.704   0.692
31741W        W 4809  39.503  23.043   1.470
31742W        W 4810  31.954  44.159  10.636
31743W        W 4811  44.515   0.193  13.996
31744W        W 4812  30.620  16.292   2.631
31745W        W 4813  23.675  23.976  14.052
31746W        W 4814  11.163  14.519  13.759
31747W        W 4815  32.056  38.107   3.644
31748W        W 4816  37.598  20.677  10.644
31749W        W 4817  13.899  21.501  14.130
31750W        W 4818  23.908  20.774  12.421
31751W        W 4819  15.621  32.667  13.534
31752W        W 4820  42.836  31.329   2.080
31753W        W 4821  22.417  32.598  12.655
31754W        W 4822  35.760  19.553  14.874
31755W        W 4823  14.105   3.304  12.926
31756W        W 4824  39.361   9.734   2.361
31757W        W 4825  38.577  37.404   1.480
31758W        W 4826  38.682  15.586   0.018
31759W        W 4827  24.659   2.879  13.882
31760W        W 4828  18.850   9.630  12.922
31761W        W 4829   8.971  32.525   2.776
31762W        W 4830  23.453  39.068   0.962
31763W        W 4831  14.309  23.248  11.511
31764W        W 4832  32.119  32.117   0.432
31765W        W 4833  31.191  10.173  13.099
31766W        W 4834  34.515  41.909   3.356
31767W        W 4835  25.617   4.350  10.623
31768W        W 4836  42.006   5.780  13.735
31769W        W 4837  33.027  14.821   2.263
31770W        W 4838  34.960   5.889  14.004
31771W        W 4839  26.442   4.926  10.798
31772W        W 4840  36.519  27.959   2.816
31773W        W 4841  19.299  44.769  10.907
31774W        W 4842  20.304  15.581  10.286
31775W        W 4843  31.053  22.524  11.635
31776W        W 4844  24.219  13.794   1.724
31777W        W 4845  42.955  21.590   4.625
31778W        W 4846   1.451  39.920   2.214
31779W        W 4847  36.190  14.825   2.644
31780W        W 4848  44.246   7.689   2.442
31781W        W 4849   2.233  23.011   0.312
31782W        W 4850  14.685  29.482  11.586
31783W        W 4851  15.505   5.845   3.172
31784W        W 4852  31.220   7.232   3.812
31785W        W 4853  29.949  28.432   4.789
31786W        W 4854  40.825  17.779  13.354
31787W        W 4855  12.250  27.871   1.256
31788W        W 4856  20.218  12.610   2.734
31789W        W 4857  43.040  24.654  13.442
31790W        W 4858  30.519  24.866   0.361
31791W        W 4859  39.461  20.194  10.624
31792W        W 4860  44.931  12.863  12.376
31793W        W 4861   2.011   8.213  14.261
31794W        W 4862  19.746   4.784  10.883
31795W        W 4863  34.161  11.234   3.666
31796W        W 4864  25.550   4.766   0.375
31797W        W 4865  27.919  19.491  14.988
31798W        W 4866  35.150  32.646  11.177
31799W        W 4867  30.640  40.788   2.635
31800W        W 4868  22.934   4.350  14.017
31801W        W 4869  29.755   6.000   0.999
31802W        W 4870   3.362  19.647  13.401
31803W        W 4871  17.684  43.354   4.257
31804W        W 4872  38.409  36.362  10.545
31805W        W 4873   3.401   0.852  12.028
31806W        W 4874   7.267  17.812  11.208
31807W        W 4875   7.359  19.081  13.056
31808W        W 4876  36.079  39.601   0.969
31809W        W 4877  23.517  25.728  11.351
31810W        W 4878   9.197  23.964  13.884
31811W        W 4879   3.952   3.680   1.923
31812W        W 4880  33.088   6.374  13.519
31813W        W 4881  12.781  29.026  13.854
31814W        W 4882  44.630  44.806  12.765
31815W        W 4883  20.232  23.564   1.211
31816W        W 4884  32.504   8.961   2.856
31817W        W 4885  41.683  38.197   0.242
31818W        W 4886   5.694   9.203  11.753
31819W        W 4887  21.039  19.545   3.449
31820W        W 4888  33.600  11.038   3.699
31821W        W 4889  27.022  35.539  10.537
31822W        W 4890  12.528   9.169   1.838
31823W        W 4891  31.099   8.658  10.680
31824W        W 4892   0.975  13.630   0.918
31825W        W 4893   9.410  22.270   3.574
31826W        W 4894  41.326  11.716   1.330
31827W        W 4895   3.049  43.060  13.964
31828W        W 4896  21.676  39.099  13.601
31829W        W 4897  20.682   1.442   0.023
31830W        W 4898  34.089  17.880  12.366
31831W        W 4899  19.076   2.138   4.063
31832W        W 4900   2.876  26.945   0.820
31833W        W 4901  39.513  41.917  12.452
31834W        W 4902  15.204   8.315   3.379
31835W        W 4903  18.637  32.500   1.188
31836W        W 4904  17.531  32.097   4.567
31837W        W 4905  33.150   1.692   4.027
31838W        W 4906  25.697  35.792   4.949
31839W        W 4907  24.578   6.492  10.713
31840W        W 4908  12.434  41.812   2.376
31841W        W 4909  37.630  28.135   3.609
31842W        W 4910  40.964  29.635  12.607
31843W        W 4911  26.172  23.633  12.602
31844W        W 4912  34.890   1.302   4.206
31845W        W 4913  32.080   5.677   0.956
31846W        W 4914  26.227  20.731  12.085
31847W        W 4915  24.266  31.073   1.635
31848W        W 4916  42.809  26.847   4.485
31849W        W 4917   6.227  24.689  13.370
31850W        W 4918  30.808  16.337   4.774
31851W        W 4919  35.057   1.796  14.375
31852W        W 4920  21.135  18.656   3.118
31853W        W 4921   5.260  39.700   1.747
31854W        W 4922  34.374  42.283   4.790
31855W        W 4923  37.608  20.286  13.348
31856W        W 4924   2.829   0.965  13.884
31857W        W 4925  41.699   0.375  11.635
31858W        W 4926  38.046  20.687  10.921
31859W        W 4927  10.682  41.553   3.804
31860W        W 4928  38.363  22.829  12.264
31861W        W 4929  15.028  21.116   4.138
31862W        W 4930  31.494  16.582   0.864
31863W        W 4931   1.504  26.938  13.944
31864W        W 4932  34.371  18.181   2.926
31865W        W 4933   7.117  16.161  11.858
31866W        W 4934  20.269  21.654  11.877
31867W        W 4935  13.523   0.292  13.849
31868W        W 4936   7.273  28.043   0.411
31869W        W 4937  18.343  14.037   0.278
31870W        W 4938  40.843  24.544  10.870
31871W        W 4939  30.469  10.210  11.145
31872W        W 4940  40.885  25.027  11.581
31873W        W 4941  20.040  21.676   0.690
31874W        W 4942   8.443   7.427   0.749
31875W        W 4943   2.148   7.936   1.331
31876W        W 4944  42.000  24.802  11.288
31877W        W 4945  30.410  24.492   0.990
31878W        W 4946  14.687  14.271   1.265
31879W        W 4947   8.307  29.654   0.286
31880W        W 4948  36.897  29.343   2.337
31881W        W 4949  27.424  23.915   2.916
31882W        W 4950  21.453  21.302  14.443
31883W        W 4951  33.771  11.354  10.601
31884W        W 4952  21.233  32.092  11.629
31885W        W 4953  38.517  42.840   1.423
31886W        W 4954  44.418  19.571  11.063
31887W        W 4955  21.370   1.170   1.391
31888W        W 4956  25.050  39.788  11.515
31889W        W 4957  41.428  43.847   3.368
31890W        W 4958  32.051  25.499  13.917
31891W        W 4959  41.144  10.344  11.917
31892W        W 4960  22.199  25.705   1.916
31893W        W 4961  14.334  23.418   2.193
31894W        W 4962  35.498  16.046   5.013
31895W        W 4963  22.670   1.167   1.251
31896W        W 4964  44.308   7.214   1.245
31897W        W 4965  25.582  40.473  12.347
31898W        W 4966   9.252  29.972   2.524
31899W        W 4967  25.545  16.060   1.375
31900W        W 4968  27.133  23.016  13.829
31901W        W 4969  38.613  21.146  12.463
31902W        W 4970  16.510   1.770  13.955
31903W        W 4971  37.287  36.824   3.867
31904W        W 4972   8.239  43.189   1.809
31905W        W 4973  35.491  24.743   4.426
31906W        W 4974  26.977  39.886   3.147
31907W        W 4975  41.367  41.949   1.879
31908W        W 4976   2.172   3.350  11.407
31909W        W 4977  18.205  26.720   3.159
31910W        W 4978  41.340   0.236  10.690
31911W        W 4979  36.978  36.007   0.483
31912W        W 4980  43.016   5.195   4.609
31913W        W 4981  15.720  18.001  14.002
31914W        W 4982  13.589  42.930   2.142
31915W        W 4983   0.083   8.426   1.346
31916W        W 4984  24.213  13.418  11.068
31917W        W 4985  37.342   5.233   1.663
31918W        W 4986  35.899  24.020   1.871
31919W        W 4987   3.690  39.604   1.631
31920W        W 4988  28.067  12.687   4.113
31921W        W 4989  37.373  15.829  10.624
31922W        W 4990  42.447  15.924   1.384
31923W        W 4991   0.592  23.012   1.876
31924W        W 4992  21.243  42.042   2.375
31925W        W 4993   3.955   0.339  12.874
31926W        W 4994  11.129  30.692  13.859
31927W        W 4995  17.184   8.825   9.642
31928W        W 4996  35.174   3.780  14.743
31929W        W 4997   8.218  41.008  11.948
31930W        W 4998   9.840  12.445   3.386
31931W        W 4999   3.850  13.771  14.412
31932W        W 5000   5.131  26.081  12.514
31933W        W 5001  32.948  37.076   4.962
31934W        W 5002  23.747  37.764   4.144
31935W        W 5003   4.362  11.623  14.743
31936W        W 5004  32.382  17.679  14.297
31937W        W 5005  38.137  30.420   0.265
31938W        W 5006   0.965   7.225   3.566
31939W        W 5007   3.289  35.088   0.729
31940W        W 5008  37.000   3.437  12.568
31941W        W 5009  37.976  36.488  13.955
31942W        W 5010   3.010  30.748   3.543
31943W        W 5011   5.371  19.021   3.131
31944W        W 5012   1.877  11.130  13.013
31945W        W 5013   5.780  32.201  13.955
31946W        W 5014   4.160   8.384   0.637
31947W        W 5015  24.687  11.064   2.423
31948W        W 5016  25.449  14.038  14.414
31949W        W 5017  10.955  13.503   2.332
31950W        W 5018  38.534  38.390   4.615
31951W        W 5019  19.568   7.771   3.248
31952W        W 5020   3.256   4.634  10.627
31953W        W 5021  40.550   2.078   1.856
31954W        W 5022  11.870  31.055   0.797
31955W        W 5023   3.720  25.941  10.925
31956W        W 5024  33.956  21.857   4.387
31957W        W 5025  11.709   1.849  13.496
31958W        W 5026  44.325   2.370  14.867
31959W        W 5027  10.222  28.466   1.288
31960W        W 5028  38.008  27.161   4.104
31961W        W 5029  22.428  40.078  13.546
31962W        W 5030  32.961  18.315   0.439
31963W        W 5031   3.780  37.602   0.763
31964W        W 5032  12.841  37.644   4.731
31965W        W 5033  31.634   7.267  13.437
31966W        W 5034  17.797  13.392   0.692
31967W        W 5035   1.737   7.201   3.259
31968W        W 5036  41.596   8.321   1.367
31969W        W 5037  11.258  33.354   4.682
31970W        W 5038   7.428  31.622  14.300
31971W        W 5039  16.644  31.701  14.377
31972W        W 5040  20.131  27.235   4.589
31973W        W 5041  15.816  35.931   3.853
31974W        W 5042   1.402   9.095  14.263
31975W        W 5043  20.744   3.330  10.515
31976W        W 5044  15.679  43.059  11.187
31977W        W 5045  39.985  32.882  13.757
31978W        W 5046  33.479  26.154   3.337
31979W        W 5047   2.323  21.978  11.309
31980W        W 5048  44.731  42.874   4.666
31981W        W 5049  35.039  39.110   1.335
31982W        W 5050  24.932  35.041  11.380
31983W        W 5051  20.711  18.115   3.677
31984W        W 5052   4.786  35.113  13.734
31985W        W 5053   7.197  11.558   1.943
31986W        W 5054  38.231  15.312   1.585
31987W        W 5055  28.040  24.062   0.434
31988W        W 5056  15.867   9.409  14.831
31989W        W 5057  32.967  42.559  13.406
31990W        W 5058  36.431  37.483  10.814
31991W        W 5059  34.336  15.113   2.632
31992W        W 5060  11.328  20.830  14.837
31993W        W 5061  16.600  11.072  11.487
31994W        W 5062  41.072  23.445  14.415
31995W        W 5063  23.764  16.846   4.923
31996W        W 5064   9.293  14.211   4.593
31997W        W 5065   1.219  40.904  10.639
31998W        W 5066  26.044  28.687  13.411
31999W        W 5067  39.986  35.287  11.528
32000W        W 5068  19.986  12.141  12.503
32001W        W 5069   6.123  33.459  11.614
32002W        W 5070   4.180  33.164   3.740
32003W        W 5071  27.110  30.324   2.875
32004W        W 5072  44.265  30.440   3.743
32005W        W 5073  17.555  29.609   2.734
32006W        W 5074   6.661  27.594   2.347
32007W        W 5075  27.910   3.012  12.655
32008W        W 5076   2.053  27.197   2.746
32009W        W 5077  11.800  40.241   3.600
32010W        W 5078  31.042   4.817   4.110
32011W        W 5079  12.370  24.688  11.662
32012W        W 5080   0.701   1.566  14.463
32013W        W 5081  23.129   2.189  11.975
32014W        W 5082  13.773  30.033  13.800
32015W        W 5083  38.385  44.815   2.668
32016W        W 5084  42.896  40.278  12.258
32017W        W 5085  13.510  34.311  12.390
32018W        W 5086  22.983  38.044   0.213
32019W        W 5087  30.058   9.109  13.424
32020W        W 5088  31.437  37.991  13.048
32021W        W 5089  25.015  22.052  11.739
32022W        W 5090  18.327  35.843   0.879
32023W        W 5091  43.254   6.564  12.500
32024W        W 5092  27.123  21.658  10.733
32025W        W 5093  29.896  43.455  12.075
32026W        W 5094  13.224  33.350   3.790
32027W        W 5095  33.873  10.332  12.209
32028W        W 5096  35.975  31.568   4.574
32029W        W 5097  22.881  22.892  11.250
32030W        W 5098  29.074  40.549  14.047
32031W        W 5099  10.734  26.417   2.023
32032W        W 5100  10.577  36.355   1.825
32033W        W 5101   3.331  18.304  14.869
32034W        W 5102  16.348  26.319  12.384
32035W        W 5103  29.505  10.785   0.912
32036W        W 5104  10.330  10.306  14.679
32037W        W 5105  41.781   0.544  13.453
32038W        W 5106   9.280   4.696   1.493
32039W        W 5107   3.303  23.639  11.467
32040W        W 5108  44.737   6.919  13.476
32041W        W 5109  22.263  21.139   1.241
32042W        W 5110  40.894  39.824  14.826
32043W        W 5111   5.666  21.537   4.831
32044W        W 5112  35.058   3.292  14.562
32045W        W 5113  43.898  11.827  14.781
32046W        W 5114  32.148  17.177   0.452
32047W        W 5115   8.662  35.728   3.038
32048W        W 5116  43.159  12.393  13.292
32049W        W 5117   5.154  17.206   1.861
32050W        W 5118  19.889  38.048   1.471
32051W        W 5119  35.362  13.058   0.306
32052W        W 5120   0.867  36.894  12.499
32053W        W 5121  32.204  29.378   3.144
32054W        W 5122  18.752  33.715   0.255
32055W        W 5123  13.394   7.144   0.277
32056W        W 5124  42.718  32.944  12.912
32057W        W 5125  30.679  18.494  13.290
32058W        W 5126  13.595  15.663  12.068
32059W        W 5127  39.317  32.574   3.871
32060W        W 5128  32.645   5.177   2.290
32061W        W 5129   3.902   9.567   1.249
32062W        W 5130  20.773  23.035   2.896
32063W        W 5131  16.729  29.501  11.501
32064W        W 5132  42.239  32.107   4.338
32065W        W 5133   3.468  21.759  12.611
32066W        W 5134  23.459  29.395   1.678
32067W        W 5135  42.878  24.268  12.926
32068W        W 5136  36.985  33.058   3.412
32069W        W 5137  13.416  24.724   2.793
32070W        W 5138  14.729  23.981  14.780
32071W        W 5139  37.302   9.247   2.672
32072W        W 5140  44.421  22.358  13.108
32073W        W 5141  43.386  23.653  10.737
32074W        W 5142  31.154  11.507  13.306
32075W        W 5143  43.428  42.442  14.218
32076W        W 5144  26.970  10.316  10.172
32077W        W 5145  11.119   3.730  13.424
32078W        W 5146  43.719  28.000   2.870
32079W        W 5147   8.859   1.849  14.726
32080W        W 5148   0.455  25.051  13.151
32081W        W 5149  29.702  32.364  13.473
32082W        W 5150  15.511  13.690  13.956
32083W        W 5151  19.759  43.765  14.702
32084W        W 5152  24.268  13.112  14.362
32085W        W 5153   9.877  13.850   3.205
32086W        W 5154  27.607   9.214   4.169
32087W        W 5155  28.072  12.424  11.109
32088W        W 5156  20.113  33.942   3.341
32089W        W 5157   6.378  13.226   1.161
32090W        W 5158   2.497  34.603   4.111
32091W        W 5159  30.963  42.294  10.744
32092W        W 5160  32.045   6.829   1.179
32093W        W 5161  14.117   8.295   4.664
32094W        W 5162  21.049  21.989   4.766
32095W        W 5163   7.242  15.444   2.345
32096W        W 5164  20.632  32.158  13.016
32097W        W 5165  23.434  13.634   0.707
32098W        W 5166  23.705  17.289  14.419
32099W        W 5167  34.357  32.117  12.103
32100W        W 5168   0.936  16.230  13.536
32101W        W 5169  12.226  28.850  11.125
32102W        W 5170  38.866  32.121   4.589
32103W        W 5171  39.304  35.864   2.746
32104W        W 5172   8.253   7.245  10.985
32105W        W 5173  40.484  33.216  11.793
32106W        W 5174  41.733   2.117  10.163
32107W        W 5175   8.777  37.995  12.088
32108W        W 5176  42.276  40.464   3.562
32109W        W 5177  34.251  13.444  11.074
32110W        W 5178  39.829  43.242   0.389
32111W        W 5179  16.334  17.971  14.336
32112W        W 5180  18.391   6.227  11.651
32113W        W 5181  33.830   5.163  12.976
32114W        W 5182  21.709  11.887  12.319
32115W        W 5183  28.408  41.312   1.288
32116W        W 5184  33.617  31.049  11.255
32117W        W 5185  10.628  31.644  14.260
32118W        W 5186  13.345  25.490   0.860
32119W        W 5187  10.320  37.042  10.991
32120W        W 5188   0.826  37.073  10.236
32121W        W 5189   1.004  36.286   3.678
32122W        W 5190  38.006  32.630   9.800
32123W        W 5191  31.647  12.104   0.283
32124W        W 5192   1.365  41.304   3.904
32125W        W 5193  28.151  14.322   2.350
32126W        W 5194   7.975  21.778  10.692
32127W        W 5195  24.725  26.179   1.187
32128W        W 5196  35.925  27.408   2.434
32129W        W 5197  39.765  30.135  12.811
32130W        W 5198   2.841  25.062  11.980
32131W        W 5199  17.661  36.085  14.918
32132W        W 5200  16.944  39.047   0.203
32133W        W 5201  18.376  17.146  14.985
32134W        W 5202  39.992  24.171  10.563
32135W        W 5203  33.909  36.393  10.612
32136W        W 5204   8.743  18.786  10.677
32137W        W 5205   9.460   9.311   3.807
32138W        W 5206  43.303  44.487  12.494
32139W        W 5207  20.339   9.900   2.268
32140W        W 5208  19.169  22.428   4.724
32141W        W 5209  10.929  30.021   2.626
32142W        W 5210   1.022  33.639  11.656
32143W        W 5211  44.640   9.688  10.244
32144W        W 5212  39.806   8.746   3.651
32145W        W 5213  30.939  43.716  13.733
32146W        W 5214  18.593  35.179   0.273
32147W        W 5215  21.516   2.720  11.458
32148W        W 5216  35.372  39.250   3.330
32149W        W 5217  41.889  42.106  14.535
32150W        W 5218  17.406   1.374   1.366
32151W        W 5219  22.534  15.291   3.748
32152W        W 5220  29.947   5.806   2.895
32153W        W 5221  38.380  22.081   2.175
32154W        W 5222  39.525  21.798   3.201
32155W        W 5223   3.399  11.169   4.635
32156W        W 5224  33.698  19.839  12.256
32157W        W 5225  11.295  17.108  10.664
32158W        W 5226   7.692  20.734   3.427
32159W        W 5227   1.996  29.066  12.017
32160W        W 5228  19.610  36.270   3.835
32161W        W 5229  31.016  20.316  14.802
32162W        W 5230  27.170  28.194  12.417
32163W        W 5231  28.182  41.459  14.427
32164W        W 5232  12.336  31.593  11.985
32165W        W 5233  37.257   0.333  10.935
32166W        W 5234  13.255   8.399  13.912
32167W        W 5235  35.851  35.085  14.316
32168W        W 5236  14.713  31.652  11.458
32169W        W 5237   9.825  10.836  13.511
32170W        W 5238  29.804  15.510   4.544
32171W        W 5239  19.994  15.630  11.974
32172W        W 5240  29.743  39.892   1.800
32173W        W 5241  34.818  10.693   2.773
32174W        W 5242  19.020   6.940  14.976
32175W        W 5243  37.764  28.652   3.675
32176W        W 5244  38.096  40.385  11.625
32177W        W 5245   0.332   3.270  14.844
32178W        W 5246  31.037   8.322  13.047
32179W        W 5247  13.804  32.833  14.891
32180W        W 5248   1.025  24.558   3.394
32181W        W 5249   0.251  26.071   1.333
32182W        W 5250  37.318  26.781  11.040
32183W        W 5251  24.221  11.086  11.998
32184W        W 5252  14.164  21.556   1.750
32185W        W 5253  24.930  13.883   0.477
32186W        W 5254  30.031  17.795   4.192
32187W        W 5255  34.081  34.649   3.057
32188W        W 5256  14.097  36.835   2.011
32189W        W 5257  19.731  39.498  11.077
32190W        W 5258  31.018  24.777   4.976
32191W        W 5259  35.108  19.154  11.052
32192W        W 5260  40.924  19.301  11.687
32193W        W 5261  24.897  39.979   9.865
32194W        W 5262  43.444  26.644  14.789
32195W        W 5263  42.106   9.699  14.378
32196W        W 5264  10.189  19.554   5.066
32197W        W 5265  35.069   3.233   4.633
32198W        W 5266   8.471  10.718  11.050
32199W        W 5267  25.018  25.002  11.434
32200W        W 5268  33.014  15.130   1.855
32201W        W 5269  17.316  32.638  12.901
32202W        W 5270  33.562   9.161  10.467
32203W        W 5271  11.241  10.195  13.500
32204W        W 5272  30.113  13.344  11.043
32205W        W 5273  37.862   0.838  12.353
32206W        W 5274  35.571  15.661   4.672
32207W        W 5275  36.428  40.853  10.744
32208W        W 5276  18.275  33.415   1.250
32209W        W 5277   6.680  20.686   1.874
32210W        W 5278  38.894   5.873   5.182
32211W        W 5279  13.320   6.160  12.431
32212W        W 5280  44.472  39.413  14.760
32213W        W 5281  12.383  10.461   4.669
32214W        W 5282   9.627  41.306  11.162
32215W        W 5283  35.392  30.923  10.475
32216W        W 5284  33.280  19.274  12.597
32217W        W 5285  11.890  37.332   2.311
32218W        W 5286   4.598  43.739   3.502
32219W        W 5287  29.367  15.599  11.961
32220W        W 5288   3.881   1.360   0.688
32221W        W 5289  39.677  39.637   4.627
32222W        W 5290  24.527  40.372   1.801
32223W        W 5291  39.343  32.013   0.304
32224W        W 5292  42.019   4.611  13.033
32225W        W 5293  15.390  40.362  11.655
32226W        W 5294  10.685  19.276   1.553
32227W        W 5295  17.116  20.199   0.998
32228W        W 5296  32.629  24.031  10.758
32229W        W 5297   6.759  25.050   4.726
32230W        W 5298  15.513  23.049   2.914
32231W        W 5299  17.171  42.284   2.444
32232W        W 5300  35.597   7.888   4.037
32233W        W 5301  24.986  12.318  11.116
32234W        W 5302   8.704  21.975  12.969
32235W        W 5303  44.421  33.733   5.030
32236W        W 5304  18.645   6.430   3.586
32237W        W 5305  36.359  12.509  12.621
32238W        W 5306   0.241  24.130   4.620
32239W        W 5307  38.579   2.873  14.940
32240W        W 5308  20.351   3.213   1.583
32241W        W 5309  39.989  33.768   4.430
32242W        W 5310  10.870  14.105   2.910
32243W        W 5311   0.695   9.787   1.772
32244W        W 5312  12.585   1.314   2.134
32245W        W 5313  32.540  37.817  13.323
32246W        W 5314  23.699   0.140   0.868
32247W        W 5315  27.554  27.547  11.497
32248W        W 5316  38.904   6.770   2.190
32249W        W 5317  21.881  33.601  13.346
32250W        W 5318  16.142  36.344   2.893
32251W        W 5319  40.781  27.827   0.331
32252W        W 5320   6.069   0.355   3.810
32253W        W 5321   6.117   7.240   1.193
32254W        W 5322  13.778  15.685   4.544
32255W        W 5323  11.377  31.862   2.675
32256W        W 5324   9.487  30.389  10.079
32257W        W 5325   0.515  15.865  14.169
32258W        W 5326  17.186  29.977   4.588
32259W        W 5327  12.232   7.736   3.731
32260W        W 5328  17.618  24.160  11.509
32261W        W 5329   4.331  29.536   2.159
32262W        W 5330  31.234  15.725   1.454
32263W        W 5331  36.867  39.834  10.464
32264W        W 5332  16.714  11.302   1.412
32265W        W 5333   9.267  37.263   2.730
32266W        W 5334  27.704  22.543   1.721
32267W        W 5335  21.096  18.642   5.090
32268W        W 5336  10.764  40.554  14.341
32269W        W 5337  34.388  26.086   4.217
32270W        W 5338  17.830   0.734  14.814
32271W        W 5339   8.323  25.760  13.027
32272W        W 5340  24.520  44.777  12.551
32273W        W 5341   1.733  14.809   3.148
32274W        W 5342  19.044  38.265   2.274
32275W        W 5343  32.467   3.378  10.185
32276W        W 5344  44.725  13.673  13.424
32277W        W 5345  10.776  40.404  11.072
32278W        W 5346  24.702   7.824   0.801
32279W        W 5347  21.746  19.631  14.367
32280W        W 5348  39.935  18.148   4.421
32281W        W 5349  17.679  34.371  13.246
32282W        W 5350  44.849  20.980   1.785
32283W        W 5351  30.179  15.328   3.630
32284W        W 5352  38.661  20.386   2.138
32285W        W 5353  29.196   5.200  12.060
32286W        W 5354  44.832  16.492  12.085
32287W        W 5355  13.709   7.366  14.115
32288W        W 5356   1.799  20.696  12.467
32289W        W 5357  13.108  33.533   0.583
32290W        W 5358   7.353  19.781   3.802
32291W        W 5359  17.087   5.670  10.690
32292W        W 5360  29.098  11.601   2.850
32293W        W 5361  34.117  38.784   1.435
32294W        W 5362  34.424  39.800   1.646
32295W        W 5363   4.982  12.065   0.491
32296W        W 5364  14.108  22.580  14.040
32297W        W 5365  15.625   9.919  14.991
32298W        W 5366   6.509  42.070   2.376
32299W        W 5367  12.670  24.533   4.606
32300W        W 5368  36.909  22.540  12.483
32301W        W 5369  20.956  14.778   1.931
32302W        W 5370  24.681  40.883   0.889
32303W        W 5371  27.564  33.413   0.633
32304W        W 5372  24.528  36.584  12.176
32305W        W 5373  13.133  41.006  13.073
32306W        W 5374  41.060  10.773  11.008
32307W        W 5375  38.748  33.552  11.625
32308W        W 5376  38.101  27.569   3.184
32309W        W 5377   8.446  36.547  13.860
32310W        W 5378   3.273  42.994   2.306
32311W        W 5379  40.942  44.009   4.634
32312W        W 5380  20.624   1.635   3.242
32313W        W 5381   7.453  21.578   1.461
32314W        W 5382  17.629  28.917  14.455
32315W        W 5383  22.547   2.853   4.454
32316W        W 5384   5.691  28.144   4.618
32317W        W 5385  18.745   4.795  13.336
32318W        W 5386  37.089  13.842  14.026
32319W        W 5387   5.839  43.263   3.169
32320W        W 5388  32.004   9.625  13.381
32321W        W 5389   0.253  16.774  13.574
32322W        W 5390  17.732  27.598  14.904
32323W        W 5391  37.756   9.447  13.995
32324W        W 5392  34.031  37.537   0.917
32325W        W 5393  41.493  36.758  12.100
32326W        W 5394  42.992  14.582  11.774
32327W        W 5395  18.163  37.933   4.329
32328W        W 5396  18.295  31.081  13.944
32329W        W 5397  41.772  29.927  11.177
32330W        W 5398  19.567  22.808   3.224
32331W        W 5399   3.121  41.911  11.655
32332W        W 5400  21.127  20.986  11.534
32333W        W 5401  22.314   0.296   1.390
32334W        W 5402  37.471  12.860   3.384
32335W        W 5403  26.469  35.179  11.659
32336W        W 5404  37.686  40.919   1.676
32337W        W 5405  13.807  37.080   4.777
32338W        W 5406  15.047  20.619  11.098
32339W        W 5407  28.554  22.207  14.281
32340W        W 5408  33.374  17.966  11.025
32341W        W 5409  24.398  11.743  11.398
32342W        W 5410  17.052  18.780   4.923
32343W        W 5411  38.465  43.441   0.225
32344W        W 5412  34.859   1.634   4.614
32345W        W 5413  31.740  25.984   1.482
32346W        W 5414  18.922  41.019   2.900
32347W        W 5415  40.800  41.984  11.145
32348W        W 5416  39.485  19.002  11.996
32349W        W 5417  12.895  34.485  13.881
32350W        W 5418   1.331  34.144   2.342
32351W        W 5419  24.172  44.506   1.369
32352W        W 5420  14.772  20.650  12.140
32353W        W 5421  41.118   1.190   4.581
32354W        W 5422  29.973   3.798   2.139
32355W        W 5423  14.237  25.695   2.957
32356W        W 5424  19.212   5.168  12.448
32357W        W 5425  31.846  12.359  12.072
32358W        W 5426  38.943  41.777   3.185
32359W        W 5427   7.128  29.643   2.131
32360W        W 5428  28.448  39.229  11.968
32361W        W 5429  42.302   3.218  12.001
32362W        W 5430  22.063  33.086   1.342
32363W        W 5431  11.823  34.652  10.990
32364W        W 5432  17.512   3.870  11.154
32365W        W 5433  25.512   3.310   0.543
32366W        W 5434  28.915  43.752   2.436
32367W        W 5435  13.234  22.624  14.570
32368W        W 5436   1.333   8.209   0.948
32369W        W 5437  34.506   6.288   4.214
32370W        W 5438   4.247  17.377   4.595
32371W        W 5439   7.596  39.056  14.966
32372W        W 5440  21.945  21.030  13.287
32373W        W 5441  35.335   4.205   1.756
32374W        W 5442  19.280  15.344   3.423
32375W        W 5443  24.519  21.461   1.329
32376W        W 5444  42.025  13.199  10.299
32377W        W 5445  39.358   8.147   4.002
32378W        W 5446   6.836  44.841   0.529
32379W        W 5447  25.518  40.658   3.688
32380W        W 5448  10.530  30.494  10.663
32381W        W 5449   3.242  18.410   0.591
32382W        W 5450   2.813  30.311  14.926
32383W        W 5451   9.946   2.961   1.755
32384W        W 5452  16.455  22.035   4.544
32385W        W 5453   5.398  15.837   1.371
32386W        W 5454  33.467  39.502   2.259
32387W        W 5455  21.522   9.272   3.826
32388W        W 5456  20.303  22.258   1.872
32389W        W 5457  18.242   0.516   4.630
32390W        W 5458  38.544  33.200   1.046
32391W        W 5459   3.670   8.198   0.364
32392W        W 5460  16.306   1.370  10.669
32393W        W 5461  29.410   4.324  11.738
32394W        W 5462  29.971  34.061  14.734
32395W        W 5463  23.192  37.043  14.302
32396W        W 5464  37.490  21.038   0.463
32397W        W 5465  35.105  15.545  13.362
32398W        W 5466  36.583  32.390   2.194
32399W        W 5467   5.316  21.637  11.496
32400W        W 5468  20.404  42.303  13.591
32401W        W 5469  36.718  18.609   1.771
32402W        W 5470   8.801   4.615   1.706
32403W        W 5471   6.872  29.516   3.423
32404W        W 5472  27.229  35.005   4.720
32405W        W 5473  14.173   2.271  11.656
32406W        W 5474  27.294   2.574   1.409
32407W        W 5475  24.102  28.189   2.175
32408W        W 5476   3.746  30.697   2.676
32409W        W 5477   2.828  16.603  13.419
32410W        W 5478  18.985   4.714   4.161
32411W        W 5479  21.456   8.950   2.985
32412W        W 5480  11.417  38.463  13.503
32413W        W 5481  29.562  43.585   1.390
32414W        W 5482  11.253  25.163   3.682
32415W        W 5483  26.563   5.526  14.790
32416W        W 5484   5.247  31.424  13.955
32417W        W 5485  22.823  15.123  12.874
32418W        W 5486   0.730  34.439  11.993
32419W        W 5487  39.920   3.103  11.584
32420W        W 5488  15.467  10.731  14.794
32421W        W 5489  44.151  24.906   1.469
32422W        W 5490  37.034  11.588   4.927
32423W        W 5491  24.098  33.868   2.845
32424W        W 5492  37.107  20.767   4.793
32425W        W 5493  11.830  26.234   3.257
32426W        W 5494  13.862  29.399   3.680
32427W        W 5495  34.906  11.886   3.294
32428W        W 5496  38.080   8.506  13.878
32429W        W 5497  34.441  37.561   0.169
32430W        W 5498  37.509  34.829  11.125
32431W        W 5499  18.792  42.816  10.998
32432W        W 5500  31.872   5.717  11.117
32433W        W 5501  17.344  13.843  11.383
32434W        W 5502  19.220   2.694  12.095
32435W        W 5503  41.783  34.430   2.184
32436W        W 5504  24.263   3.831  12.030
32437W        W 5505   9.816  18.643   3.065
32438W        W 5506  36.101  12.256   0.306
32439W        W 5507  27.145   2.775  11.509
32440W        W 5508  30.198  38.905  11.926
32441W        W 5509  28.917  20.648   2.042
32442W        W 5510  27.527  32.412   0.464
32443W        W 5511  35.473  41.559  11.031
32444W        W 5512   5.404  28.375  11.561
32445W        W 5513  41.724   9.306  13.063
32446W        W 5514  35.071   2.446  14.668
32447W        W 5515  12.214  24.022   3.947
32448W        W 5516  22.524  33.961  14.549
32449W        W 5517  21.343  36.937  14.321
32450W        W 5518   2.524  38.989  11.736
32451W        W 5519  41.297  34.628  10.447
32452W        W 5520   9.062   5.694   4.043
32453W        W 5521  22.297  41.951  12.013
32454W        W 5522  21.488  17.305   1.278
32455W        W 5523  13.552  24.342   3.779
32456W        W 5524  20.135  43.850   0.833
32457W        W 5525   3.408   2.977   3.175
32458W        W 5526  44.399   6.215   0.495
32459W        W 5527  14.516  15.752   0.333
32460W        W 5528  43.000  17.570  14.266
32461W        W 5529  16.241   3.742  13.053
32462W        W 5530  20.871  17.319   2.320
32463W        W 5531  22.221  21.393  11.979
32464W        W 5532   1.059  44.311  12.912
32465W        W 5533  40.508  32.859  14.444
32466W        W 5534  32.175   2.428   2.140
32467W        W 5535  39.039  12.386   4.644
32468W        W 5536   8.706  18.510  11.141
32469W        W 5537  35.976  22.830  11.516
32470W        W 5538   3.717   7.548   0.823
32471W        W 5539  15.060  42.374  11.130
32472W        W 5540  40.009  18.110  14.570
32473W        W 5541  22.227  19.734  13.410
32474W        W 5542  25.218  36.757   0.268
32475W        W 5543  13.289  35.335   0.975
32476W        W 5544  31.357  39.458  13.463
32477W        W 5545  13.305  37.371  11.232
32478W        W 5546  12.470  35.433   3.470
32479W        W 5547  31.913  17.749  13.315
32480W        W 5548  24.676  26.058  12.515
32481W        W 5549   7.815  35.996  12.260
32482W        W 5550   4.404  41.086   2.458
32483W        W 5551  36.105   8.700  13.965
32484W        W 5552  33.188  16.222  13.169
32485W        W 5553  38.293   8.487   5.058
32486W        W 5554   8.288  40.651   3.784
32487W        W 5555  38.983   2.411   0.455
32488W        W 5556  10.878  12.227   3.275
32489W        W 5557  44.304  41.918   2.141
32490W        W 5558  25.997  27.972   2.341
32491W        W 5559   5.771   0.785  11.606
32492W        W 5560  28.182  40.673   9.871
32493W        W 5561   2.807  32.859  11.981
32494W        W 5562  36.148  38.538   3.282
32495W        W 5563   1.366  33.973   4.547
32496W        W 5564  17.779  21.113  13.843
32497W        W 5565  36.905  29.857   2.262
32498W        W 5566  44.434  34.771  12.857
32499W        W 5567  44.845  23.522   4.521
32500W        W 5568  44.719  42.181  13.062
32501W        W 5569  12.322  23.190   4.584
32502W        W 5570  16.579   0.442  11.660
32503W        W 5571  13.801  41.229  10.673
32504W        W 5572   7.266  14.593   2.379
32505W        W 5573  39.166  37.834   4.432
32506W        W 5574  32.860  41.920   3.162
32507W        W 5575  26.472  44.385  14.170
32508W        W 5576  13.855  32.447  11.122
32509W        W 5577  30.079  26.320   3.884
32510W        W 5578  44.803  18.718   4.545
32511W        W 5579  15.691  42.291  12.396
32512W        W 5580  33.465  10.773   2.216
32513W        W 5581   1.824  11.092   3.884
32514W        W 5582   1.830   3.817   3.294
32515W        W 5583   1.248  22.535  10.817
32516W        W 5584  37.909  17.261   0.468
32517W        W 5585   5.453   0.380  13.842
32518W        W 5586  33.913  34.910  14.360
32519W        W 5587  30.375  37.236  11.997
32520W        W 5588   9.763  28.666  12.996
32521W        W 5589  29.331  11.837  14.513
32522W        W 5590  35.512  25.412   1.268
32523W        W 5591  36.951  34.263   1.221
32524W        W 5592  29.983  10.570  13.424
32525W        W 5593  33.971  39.352   4.587
32526W        W 5594  19.354  29.456  14.515
32527W        W 5595  14.654  44.010  12.363
32528W        W 5596  29.228  16.274  12.896
32529W        W 5597  22.858  15.864   0.426
32530W        W 5598  38.602  37.137  14.744
32531W        W 5599  14.166  13.434   4.171
32532W        W 5600   0.188  12.763  13.380
32533W        W 5601  25.345  39.589   4.391
32534W        W 5602  39.823  11.586  13.958
32535W        W 5603  33.699   7.259   1.814
32536W        W 5604  36.595  18.212  10.607
32537W        W 5605  12.642  12.672  13.158
32538W        W 5606  20.203  38.307   3.488
32539W        W 5607  24.148  18.194  11.040
32540W        W 5608   8.586  27.684  11.218
32541W        W 5609  40.768  21.033  10.710
32542W        W 5610   7.854   9.875   4.314
32543W        W 5611   1.994  21.210  11.147
32544W        W 5612  42.516   1.744   0.806
32545W        W 5613  40.420   4.788   3.777
32546W        W 5614  34.926  25.021   2.006
32547W        W 5615  29.829  40.741  10.661
32548W        W 5616   3.243   1.453  14.491
32549W        W 5617  11.695  13.174  11.358
32550W        W 5618  20.997   0.957   4.305
32551W        W 5619  28.890  38.089  14.888
32552W        W 5620   7.946  11.070   2.894
32553W        W 5621  39.855  10.485   3.212
32554W        W 5622   6.780  34.066   0.492
32555W        W 5623  15.334  30.031   2.194
32556W        W 5624  38.379   1.280  11.943
32557W        W 5625  35.409  18.775  14.244
32558W        W 5626  40.118  13.471   9.542
32559W        W 5627  39.312  21.491   2.730
32560W        W 5628   3.942  12.133   1.244
32561W        W 5629   7.643   5.552   0.253
32562W        W 5630  28.109  42.503   0.353
32563W        W 5631  38.504  16.092   0.697
32564W        W 5632  18.544  16.390  13.376
32565W        W 5633  20.604   6.378  14.697
32566W        W 5634  21.207  13.290   2.736
32567W        W 5635  10.397   7.845   0.153
32568W        W 5636  21.008  15.655  14.031
32569W        W 5637  19.674  26.710  11.080
32570W        W 5638  44.520  34.586  11.629
32571W        W 5639  25.135   0.171  14.807
32572W        W 5640  13.591  28.323  14.449
32573W        W 5641  19.208   2.365   4.693
32574W        W 5642   0.681  32.084  14.833
32575W        W 5643  18.509  21.151   2.293
32576W        W 5644   2.645   5.365  14.062
32577W        W 5645  11.140  11.355  13.022
32578W        W 5646   7.897  41.993   0.274
32579W        W 5647   4.385  31.160  11.207
32580W        W 5648  37.622  44.002   2.685
32581W        W 5649   5.134  11.535  11.256
32582W        W 5650  22.159   7.452  14.948
32583W        W 5651  26.734   8.625   3.731
32584W        W 5652   9.144   7.346   2.153
32585W        W 5653  30.547  21.707  12.562
32586W        W 5654  15.150   4.971  12.392
32587W        W 5655   8.662  20.222  14.601
32588W        W 5656  39.964   6.742   1.623
32589W        W 5657  23.747  14.368   1.217
32590W        W 5658  33.200  35.541   2.925
32591W        W 5659   3.960   9.197  14.324
32592W        W 5660  23.649  20.172  11.190
32593W        W 5661  44.249  33.654  14.347
32594W        W 5662  31.003  39.075  13.333
32595W        W 5663  16.436  20.109  13.701
32596W        W 5664  31.689  21.480  11.151
32597W        W 5665  43.341  26.369  12.422
32598W        W 5666  30.104  29.909  10.955
32599W        W 5667  40.549  11.083   2.742
32600W        W 5668  41.392  41.472  10.761
32601W        W 5669  36.459  13.910   9.841
32602W        W 5670  15.902  43.357  13.567
32603W        W 5671  31.259  39.732   4.200
32604W        W 5672  44.247  15.848   1.721
32605W        W 5673  12.124  20.569   2.767
32606W        W 5674  34.295   9.635  13.146
32607W        W 5675  24.012  24.159   0.029
32608W        W 5676  17.077  16.958   1.976
32609W        W 5677  44.953  29.048  14.373
32610W        W 5678  38.459  39.512   2.186
32611W        W 5679  38.562  10.294   1.702
32612W        W 5680  43.510  31.187   0.743
32613W        W 5681  19.194   6.211  10.537
32614W        W 5682  44.263  29.432  11.667
32615W        W 5683  17.298   7.356   1.300
32616W        W 5684  14.071  12.443   3.936
32617W        W 5685  42.365  44.997   4.422
32618W        W 5686   6.257  19.081  11.495
32619W        W 5687  25.063  14.693  13.474
32620W        W 5688  42.955   4.121  11.518
32621W        W 5689  28.134  13.776   1.429
32622W        W 5690  17.026  26.936  11.093
32623W        W 5691   8.128  18.195   0.294
32624W        W 5692   3.316   0.959   4.038
32625W        W 5693   5.800  38.838   2.770
32626W        W 5694  25.053  21.964  14.453
32627W        W 5695  31.357  17.650  14.380
32628W        W 5696  10.383  26.425  13.080
32629W        W 5697   7.626  34.539   4.183
32630W        W 5698  30.375   9.295   0.353
32631W        W 5699   8.346  38.761  13.526
32632W        W 5700  37.012  20.792   0.349
32633W        W 5701  13.368   9.044   3.251
32634W        W 5702  17.557  17.310   1.933
32635W        W 5703   0.851  30.319   0.808
32636W        W 5704  27.054  44.224  12.544
32637W        W 5705  32.340  36.627   1.327
32638W        W 5706  32.171  36.131   1.360
32639W        W 5707  37.955  16.623   2.250
32640W        W 5708   6.065   9.915   1.328
32641W        W 5709  43.314  35.530   2.646
32642W        W 5710   6.343  30.956   1.812
32643W        W 5711   3.813  12.557   3.089
32644W        W 5712  18.490  22.208   2.226
32645W        W 5713  24.458  11.235  13.984
32646W        W 5714  15.608  38.812   0.427
32647W        W 5715  12.191   4.919  13.928
32648W        W 5716   2.425  34.042  10.673
32649W        W 5717   1.531  40.094   4.349
32650W        W 5718  39.589   5.369  10.697
32651W        W 5719  42.251  14.791  10.769
32652W        W 5720  20.279  43.002  12.131
32653W        W 5721  41.253   6.415   2.699
32654W        W 5722   0.491  14.711   3.824
32655W        W 5723  13.310  28.580  10.950
32656W        W 5724  42.786   3.005   2.837
32657W        W 5725   9.501  15.567   2.617
32658W        W 5726  22.038   8.181   3.422
32659W        W 5727   4.084  43.361  11.239
32660W        W 5728  26.234  39.171   3.106
32661W        W 5729  44.461  14.317   3.304
32662W        W 5730  14.208  31.977   1.192
32663W        W 5731  22.770  14.130   0.478
32664W        W 5732   8.986   7.683  11.462
32665W        W 5733   4.632  33.153   4.470
32666W        W 5734  36.124  26.693   1.776
32667W        W 5735  12.292  32.121   1.875
32668W        W 5736  27.507  18.153  14.313
32669W        W 5737  22.592  14.257   1.394
32670W        W 5738  43.821  23.659  10.435
32671W        W 5739  37.539  14.543  11.665
32672W        W 5740  22.958  31.369  14.763
32673W        W 5741  24.704  12.317   2.793
32674W        W 5742  35.488  34.929  11.387
32675W        W 5743  11.380  30.979  14.250
32676W        W 5744   6.356   3.315  10.611
32677W        W 5745  14.220   9.128  11.064
32678W        W 5746  22.381  35.463   0.006
32679W        W 5747  22.564  32.985   3.165
32680W        W 5748  14.816   2.807  14.502
32681W        W 5749  17.724   5.820  13.258
32682W        W 5750  20.530  38.611   1.226
32683W        W 5751  32.705  44.506   2.609
32684W        W 5752   3.379  31.518  13.587
32685W        W 5753  16.091  34.982   2.667
32686W        W 5754  13.940   6.383  13.018
32687W        W 5755  27.067  41.539  10.713
32688W        W 5756  15.049  38.999   4.617
32689W        W 5757  33.841  34.458  12.567
32690W        W 5758  40.898  18.253  11.643
32691W        W 5759   0.908  42.171   1.448
32692W        W 5760  27.177   3.384  13.849
32693W        W 5761  37.061  21.477  12.820
32694W        W 5762  32.531  30.138  12.741
32695W        W 5763  38.370  10.069   0.348
32696W        W 5764  41.267  13.064   3.714
32697W        W 5765   0.358   9.715   2.739
32698W        W 5766  40.426  29.799   5.261
32699W        W 5767  21.005  19.946  13.375
32700W        W 5768  24.524  24.289   4.079
32701W        W 5769  25.260  13.630   3.999
32702W        W 5770  42.278  44.565   3.124
32703W        W 5771  33.546  17.686  14.792
32704W        W 5772  35.130  14.325   4.572
32705W        W 5773  10.702  28.715   0.607
32706W        W 5774  21.513  14.703  10.582
32707W        W 5775  38.165  18.655   3.173
32708W        W 5776   0.979  44.370  11.888
32709W        W 5777   3.393  20.592   3.172
32710W        W 5778   0.404  44.176  13.924
32711W        W 5779  25.769  35.643  11.216
32712W        W 5780  14.306   7.863  14.281
32713W        W 5781  14.769  23.107  12.852
32714W        W 5782   0.817  40.141  11.980
32715W        W 5783  36.121  18.768  13.513
32716W        W 5784  40.917  35.758   2.316
32717W        W 5785  10.122  37.633   1.189
32718W        W 5786  38.109  17.786  11.444
32719W        W 5787  42.185  34.547   2.487
32720W        W 5788  32.184  17.281   4.946
32721W        W 5789   7.123   1.495   3.225
32722W        W 5790  38.450  42.544  10.544
32723W        W 5791  34.678  20.974  13.037
32724W        W 5792  34.003  27.541   0.303
32725W        W 5793   7.873   0.303   1.659
32726W        W 5794  29.170   5.871  11.176
32727W        W 5795  18.872  15.594   1.071
32728W        W 5796  42.236   5.754   0.514
32729W        W 5797  34.526   7.198  11.996
32730W        W 5798  42.678  29.190   1.180
32731W        W 5799   1.378  38.865   4.755
32732W        W 5800  28.576   9.958   0.284
32733W        W 5801  25.524  15.749   3.592
32734W        W 5802  12.331   4.751   2.279
32735W        W 5803  19.830  14.902   0.397
32736W        W 5804  34.320  36.858  10.629
32737W        W 5805  17.607  18.285  12.530
32738W        W 5806   1.459   7.205   2.323
32739W        W 5807   5.726  26.699   2.315
32740W        W 5808  14.866  12.348   1.782
32741W        W 5809  44.956  36.397  12.485
32742W        W 5810  27.423  18.181  11.103
32743W        W 5811  22.442   6.352   3.579
32744W        W 5812  44.412  29.169  14.307
32745W        W 5813  38.844  10.170  13.012
32746W        W 5814  18.282   9.668  12.078
32747W        W 5815  31.864   8.176  14.524
32748W        W 5816  39.610  32.599   2.429
32749W        W 5817  26.110   7.986   0.894
32750W        W 5818   2.488  44.235  11.085
32751W        W 5819   6.986   5.597   1.287
32752W        W 5820  38.109  27.427   4.807
32753W        W 5821  35.066  23.597   0.732
32754W        W 5822  37.004  17.832   1.894
32755W        W 5823   9.605  33.497   3.894
32756W        W 5824  19.726   7.830   0.352
32757W        W 5825  29.922  16.315  14.954
32758W        W 5826  40.549  21.003   0.287
32759W        W 5827  39.439  38.524   2.871
32760W        W 5828  21.579   1.732  11.516
32761W        W 5829   1.230  16.123  13.062
32762W        W 5830  27.816  32.828   1.393
32763W        W 5831  26.831   9.671  11.419
32764W        W 5832  13.772   1.162  13.466
32765W        W 5833   7.894  32.073  11.213
32766W        W 5834  19.247   4.270   2.773
32767W        W 5835   8.711  25.969  12.692
32768W        W 5836  34.142  44.491   2.743
32769W        W 5837   6.329  29.631  13.864
32770W        W 5838  10.925  34.214  13.274
32771W        W 5839   5.290  25.941   1.223
32772W        W 5840  12.173  42.592  12.183
32773W        W 5841  43.922  24.469   1.728
32774W        W 5842  38.268  23.153   2.834
32775W        W 5843  11.273  13.778   0.244
32776W        W 5844   3.028  43.267   0.307
32777W        W 5845  17.174  42.082   0.698
32778W        W 5846  17.619  15.324  14.224
32779W        W 5847   3.334   1.459  13.583
32780W        W 5848  30.096   2.244   1.909
32781W        W 5849  37.086  38.847  14.734
32782W        W 5850  23.037  32.446  11.691
32783W        W 5851  17.721   4.514  13.888
32784W        W 5852  23.705  22.179   4.677
32785W        W 5853   4.308  15.585   3.920
32786W        W 5854  17.313  14.761   1.906
32787W        W 5855  26.520  10.702  12.336
32788W        W 5856   2.401  44.764   1.692
32789W        W 5857  22.839  44.880   3.194
32790W        W 5858  32.630  38.330   1.952
32791W        W 5859  13.254  22.834  12.230
32792W        W 5860   5.928   0.896   3.331
32793W        W 5861  19.156  21.960   4.491
32794W        W 5862  30.479   6.721  11.616
32795W        W 5863  41.781  30.102   2.773
32796W        W 5864  27.792  43.968  11.571
32797W        W 5865  31.464   0.515   2.823
32798W        W 5866  30.579  26.454   0.699
32799W        W 5867  26.543   4.495  13.630
32800W        W 5868  21.127  18.092   2.391
32801W        W 5869  17.115  26.198  13.763
32802W        W 5870   3.004   0.558  12.520
32803W        W 5871   6.362  21.452   3.525
32804W        W 5872   1.871  16.722   1.186
32805W        W 5873  37.685  27.411  13.495
32806W        W 5874  35.529  34.373   4.147
32807W        W 5875  36.093  36.620   3.196
32808W        W 5876   8.137  31.954   1.928
32809W        W 5877   8.757  27.614  13.748
32810W        W 5878   4.314   3.940   3.295
32811W        W 5879  41.809  33.657   1.624
32812W        W 5880  36.584   9.134  13.429
32813W        W 5881  13.554   4.065   2.888
32814W        W 5882  30.719  16.139  14.818
32815W        W 5883  37.429  21.861  14.811
32816W        W 5884  35.865  30.996   0.422
32817W        W 5885  16.559  26.527   0.482
32818W        W 5886   7.301  21.979   3.303
32819W        W 5887  29.116   3.223   2.409
32820W        W 5888  38.754  25.571   1.698
32821W        W 5889  32.890  24.773   0.323
32822W        W 5890  27.034  17.101  12.156
32823W        W 5891  20.200  32.641  12.156
32824W        W 5892  14.354  26.374  13.833
32825W        W 5893  29.526   3.712  14.303
32826W        W 5894  15.449  22.344   4.548
32827W        W 5895  29.469   7.777  13.267
32828W        W 5896  40.165  12.318   1.245
32829W        W 5897  41.460  37.675   1.134
32830W        W 5898  31.193   4.427  11.131
32831W        W 5899  13.233  42.471  12.955
32832W        W 5900  28.562  22.713  14.417
32833W        W 5901  40.868  33.943   3.638
32834W        W 5902  10.267  40.728   4.824
32835W        W 5903   4.443  23.141   3.053
32836W        W 5904  16.672  44.083   3.732
32837W        W 5905  33.836  13.853   2.773
32838W        W 5906   4.372  36.580  10.930
32839W        W 5907  28.057  11.363   3.314
32840W        W 5908   0.847  42.983  10.826
32841W        W 5909  32.439  35.692  12.857
32842W        W 5910  40.625  24.694   1.374
32843W        W 5911   2.338  44.434   0.271
32844W        W 5912  29.854  42.472  12.246
32845W        W 5913  32.795  15.138  13.912
32846W        W 5914  28.653  10.409  10.716
32847W        W 5915  42.445   4.257  13.990
32848W        W 5916  10.907  18.384  11.881
32849W        W 5917  38.311   4.160   4.124
32850W        W 5918  24.693  34.518   0.984
32851W        W 5919  17.156  43.731   1.158
32852W        W 5920   4.217  30.221  13.002
32853W        W 5921   4.354  36.330   2.426
32854W        W 5922  30.938  15.574  12.070
32855W        W 5923   8.327   7.266   2.056
32856W        W 5924  16.120  37.092  14.334
32857W        W 5925  17.138  43.807  13.191
32858W        W 5926  24.714  28.419  11.172
32859W        W 5927  13.990   4.962   2.716
32860W        W 5928   0.392   0.346  11.406
32861W        W 5929  32.589  39.538   1.331
32862W        W 5930  43.787   3.542   1.676
32863W        W 5931   7.764  25.791   3.189
32864W        W 5932  22.024  26.777   0.388
32865W        W 5933   5.625  14.662   4.688
32866W        W 5934  12.024  13.820   1.472
32867W        W 5935  24.742  29.132   1.040
32868W        W 5936  32.064   2.766  14.153
32869W        W 5937  11.201  14.507   3.092
32870W        W 5938  22.025  26.098  10.518
32871W        W 5939   4.221  13.404  13.022
32872W        W 5940  44.474  36.062  11.609
32873W        W 5941  14.095  30.116   1.164
32874W        W 5942  39.916  44.995   0.708
32875W        W 5943  13.170  30.712   4.714
32876W        W 5944  38.976  29.178   3.707
32877W        W 5945  32.324  41.879   0.456
32878W        W 5946  29.665  25.477   0.474
32879W        W 5947  26.554  17.703  10.581
32880W        W 5948  27.842  15.725   1.745
32881W        W 5949  22.210  44.243  10.603
32882W        W 5950  41.510  43.447  11.639
32883W        W 5951   8.480  18.011  13.925
32884W        W 5952   6.733  14.659  12.389
32885W        W 5953  39.122  11.812   4.176
32886W        W 5954  14.075  26.609   3.274
32887W        W 5955  10.129  11.173   1.104
32888W        W 5956  32.625  31.998  11.109
32889W        W 5957  21.468   4.324  13.771
32890W        W 5958   8.859  39.517  10.533
32891W        W 5959   2.412  43.781   1.835
32892W        W 5960   0.465  29.399   0.769
32893W        W 5961  35.589  25.287   3.286
32894W        W 5962   8.983   9.233   1.373
32895W        W 5963  16.163  44.559   1.705
32896W        W 5964   6.559  38.476   4.894
32897W        W 5965  16.737  36.544   0.933
32898W        W 5966  38.521  11.161   4.355
32899W        W 5967   7.315  34.568   4.594
32900W        W 5968   7.902  37.837  12.398
32901W        W 5969  34.832  38.390   0.009
32902W        W 5970  43.306  29.065   2.237
32903W        W 5971  10.244  17.175   3.264
32904W        W 5972  16.650  30.826  14.118
32905W        W 5973  44.894   1.793   1.382
32906W        W 5974  37.902  27.605  12.526
32907W        W 5975  12.716  11.289   4.540
32908W        W 5976   0.236  17.348   0.883
32909W        W 5977  30.434   2.876  12.419
32910W        W 5978  19.159  40.109   0.900
32911W        W 5979  25.785  12.791  13.039
32912W        W 5980  14.769  27.172  13.918
32913W        W 5981  15.045  43.367   0.728
32914W        W 5982   6.241  31.964   2.665
32915W        W 5983   2.004  26.381  11.009
32916W        W 5984   1.197   7.886   3.729
32917W        W 5985   0.259   8.439  11.484
32918W        W 5986   3.999  23.519  12.446
32919W        W 5987  29.158  40.799   0.792
32920W        W 5988  20.034  20.632  13.900
32921W        W 5989  30.326  30.168  13.268
32922W        W 5990  38.791   5.486  13.869
32923W        W 5991   1.878  36.915  12.196
32924W        W 5992   6.460  22.690  13.807
32925W        W 5993   3.920  31.924   1.338
32926W        W 5994  25.608  14.987   2.354
32927W        W 5995  21.500   1.661   2.198
32928W        W 5996  17.386  17.827   0.758
32929W        W 5997  10.371  41.261   4.883
32930W        W 5998   1.917  38.429   0.835
32931W        W 5999   4.373  18.842  13.549
32932W        W 6000  44.427   8.236  14.042
32933W        W 6001   1.294   0.308   0.346
32934W        W 6002  38.497  21.300   4.756
32935W        W 6003  19.651  29.137   0.865
32936W        W 6004  24.434  42.863   2.239
32937W        W 6005  41.362  13.247   4.198
32938W        W 6006  40.864  18.170   2.641
32939W        W 6007  22.210  27.273  11.966
32940W        W 6008   8.657  33.552   4.029
32941W        W 6009  32.825   8.665   1.352
32942W        W 6010  12.085  23.192  10.433
32943W        W 6011  17.949   3.295  12.477
32944W        W 6012  44.213  42.951   4.649
32945W        W 6013  11.244  33.316   3.824
32946W        W 6014  18.193  24.704   2.738
32947W        W 6015  43.691   9.082  11.676
32948W        W 6016  13.604  25.535   3.236
32949W        W 6017  21.487  12.257  10.770
32950W        W 6018  44.888  30.921  12.944
32951W        W 6019  32.995   9.859   0.958
32952W        W 6020  31.432  43.617  14.286
32953W        W 6021  22.515  15.386   2.141
32954W        W 6022  36.391  25.089   3.996
32955W        W 6023  39.050  23.276   1.454
32956W        W 6024  27.226  10.459  10.985
32957W        W 6025  41.464  33.528   2.589
32958W        W 6026  26.406  25.494   2.925
32959W        W 6027  22.590  31.396   0.888
32960W        W 6028  14.766  18.773   9.762
32961W        W 6029  13.169   7.936   4.119
32962W        W 6030  13.115   4.787  14.736
32963W        W 6031   8.354  28.609   0.270
32964W        W 6032  43.684   2.248   3.167
32965W        W 6033  42.188  43.127   2.492
32966W        W 6034  39.488  35.511  13.956
32967W        W 6035   8.262  40.014  11.021
32968W        W 6036  27.013  12.642  12.540
32969W        W 6037  43.957  23.800   1.679
32970W        W 6038  11.161  32.182   1.299
32971W        W 6039  39.715  11.878   3.198
32972W        W 6040  29.417  30.733  11.956
32973W        W 6041  38.591  41.426  10.629
32974W        W 6042  27.112  30.658   3.752
32975W        W 6043  36.366  39.464  14.777
32976W        W 6044  39.804   2.795  10.798
32977W        W 6045  39.998   3.075   4.479
32978W        W 6046  25.552   4.883  10.576
32979W        W 6047  27.608  18.950   3.401
32980W        W 6048  14.986   9.346  13.475
32981W        W 6049   1.325  38.458  14.586
32982W        W 6050  29.273   5.325  10.713
32983W        W 6051   6.623  37.421  10.808
32984W        W 6052  29.074  12.128   2.185
32985W        W 6053  22.388  12.757  12.536
32986W        W 6054  17.597  28.943   0.005
32987W        W 6055  34.285  19.383   4.617
32988W        W 6056  16.043  15.369   4.502
32989W        W 6057  18.004  15.651   4.576
32990W        W 6058   9.764  31.144   1.752
32991W        W 6059  40.396  14.190  12.174
32992W        W 6060  34.116   3.386  14.294
32993W        W 6061  36.419  37.347   1.222
32994W        W 6062  26.702  23.012  11.734
32995W        W 6063  21.209   1.330  14.956
32996W        W 6064  12.056  36.136  13.776
32997W        W 6065  43.426  13.682  13.094
32998W        W 6066  44.717   6.306   1.857
32999W        W 6067   6.766  15.012  11.949
33000W        W 6068  13.290  27.206   4.688
33001W        W 6069  20.312  36.369   2.692
33002W        W 6070  11.288  34.139   1.870
33003W        W 6071  43.219   8.190  11.531
33004W        W 6072  17.574  19.576   1.336
33005W        W 6073   7.248  13.533   0.872
33006W        W 6074   8.922   3.380   4.826
33007W        W 6075  13.802  34.877  12.862
33008W        W 6076  42.537  38.861  13.329
33009W        W 6077  19.987  36.864   4.161
33010W        W 6078  10.317  43.074   1.445
33011W        W 6079  30.870  44.933   2.918
33012W        W 6080   8.877  22.544   1.776
33013W        W 6081  35.934  10.332  11.992
33014W        W 6082  27.631  20.172  13.079
33015W        W 6083  29.130  25.936   4.277
33016W        W 6084  24.218  36.345  10.985
33017W        W 6085  33.999  12.738   1.334
33018W        W 6086  24.792  17.831  12.942
33019W        W 6087   3.294  37.406   3.531
33020W        W 6088  23.174  28.993   1.865
33021W        W 6089  32.059   2.702  11.567
33022W        W 6090  22.078  17.335  10.756
33023W        W 6091   0.278  32.887  13.068
33024W        W 6092  39.596  32.496  13.519
33025W        W 6093   9.255  21.455   2.413
33026W        W 6094  40.898  18.789  11.661
33027W        W 6095  22.177  32.395  11.293
33028W        W 6096  42.445  41.014   0.087
33029W        W 6097  19.746  27.267   0.590
33030W        W 6098   3.464  44.863  12.017
33031W        W 6099   2.751  22.786  10.981
33032W        W 6100  11.412   3.423   0.954
33033W        W 6101  40.885  38.075   1.828
33034W        W 6102  33.374  17.755  14.314
33035W        W 6103   2.228  22.442   2.542
33036W        W 6104  12.253   4.939  12.068
33037W        W 6105  14.867  16.679  13.999
33038W        W 6106  26.703  20.580   2.221
33039W        W 6107   9.189  38.929  12.862
33040W        W 6108   9.633   2.280   2.200
33041W        W 6109  33.369  29.560  10.706
33042W        W 6110  44.098  11.036   0.559
33043W        W 6111   7.007  17.113   0.969
33044W        W 6112  23.398  32.039   2.439
33045W        W 6113  35.468   7.233   1.857
33046W        W 6114   5.462  14.089   4.189
33047W        W 6115  21.920  40.336   2.660
33048W        W 6116  44.875  27.156   2.776
33049W        W 6117  22.557  27.211  12.395
33050W        W 6118   2.262   6.786   2.259
33051W        W 6119  22.645  20.582   0.633
33052W        W 6120   8.360   1.964   3.614
33053W        W 6121  39.412   5.401   9.817
33054W        W 6122   2.845  33.980   0.032
33055W        W 6123  16.709  43.817   4.171
33056W        W 6124  44.319  37.506  11.130
33057W        W 6125  36.527   6.227  13.821
33058W        W 6126  35.179  40.965  11.066
33059W        W 6127  16.230  42.377   0.484
33060W        W 6128   4.838   1.549   2.890
33061W        W 6129   4.601  40.248   4.083
33062W        W 6130  22.456   2.845   3.943
33063W        W 6131   3.028   4.461  13.107
33064W        W 6132  27.125  19.060   2.668
33065W        W 6133  20.993  17.137   4.754
33066W        W 6134  27.649  37.505  11.558
33067W        W 6135  19.768  15.131   0.994
33068W        W 6136  40.997   0.950  13.502
33069W        W 6137  40.790   4.216  11.924
33070W        W 6138  39.104   1.723   1.814
33071W        W 6139   4.704  43.857   1.998
33072W        W 6140  28.676  11.338   4.504
33073W        W 6141  18.133  32.815   2.722
33074W        W 6142   7.972   2.100   4.521
33075W        W 6143  21.019   5.167   1.660
33076W        W 6144   3.521  27.679  10.326
33077W        W 6145  30.159  37.345   2.237
33078W        W 6146  44.888  30.890   4.515
33079W        W 6147  17.779  44.790  11.978
33080W        W 6148  26.738  36.855   0.826
33081W        W 6149  33.896  22.955  11.495
33082W        W 6150  37.754  32.544   5.165
33083W        W 6151  40.009  24.065   3.996
33084W        W 6152  44.520   8.137  11.980
33085W        W 6153  40.841  22.237  14.905
33086W        W 6154  23.648   9.466   4.465
33087W        W 6155   0.266   4.921  14.426
33088W        W 6156   9.884   6.514  14.537
33089W        W 6157  17.109  10.849  12.822
33090W        W 6158  35.620  27.805  14.247
33091W        W 6159  15.619   4.740  12.289
33092W        W 6160  27.117   4.662  12.477
33093W        W 6161  33.513   3.582   0.399
33094W        W 6162  37.629  20.740   3.330
33095W        W 6163  39.303  32.226  10.575
33096W        W 6164  29.599   7.334  13.510
33097W        W 6165  18.731  23.517  14.663
33098W        W 6166  14.266  28.417  14.019
33099W        W 6167  39.040   5.410  12.604
33100W        W 6168  11.319  34.182  12.159
33101W        W 6169  35.495  39.548   3.774
33102W        W 6170  11.070   2.521   3.978
33103W        W 6171  30.008  23.829   1.221
33104W        W 6172  17.827  17.113  12.454
33105W        W 6173  14.122   1.969  13.502
33106W        W 6174   9.726  34.425   4.169
33107W        W 6175  25.955   6.768  10.742
33108W        W 6176  15.673   2.730  14.284
33109W        W 6177  28.903  23.703   2.840
33110W        W 6178  41.870  39.906  14.985
33111W        W 6179  24.644  18.816  12.979
33112W        W 6180  22.406  10.859  14.408
33113W        W 6181  21.602   9.912   1.748
33114W        W 6182  44.243  11.389   4.079
33115W        W 6183  13.484   9.519  12.515
33116W        W 6184  36.134  27.007   2.191
33117W        W 6185  39.237   7.324   3.669
33118W        W 6186  41.561   7.302  14.421
33119W        W 6187  36.325  22.480   1.809
33120W        W 6188  42.933  33.466   1.246
33121W        W 6189  27.777  35.975   0.935
33122W        W 6190  29.648  23.515   1.791
33123W        W 6191  21.665  25.180  14.069
33124W        W 6192  25.914  14.905  12.859
33125W        W 6193  35.860  18.150  14.280
33126W        W 6194  34.504  23.111   3.269
33127W        W 6195  10.849  33.662  10.110
33128W        W 6196   8.708  15.699   0.170
33129W        W 6197   6.718   5.394  14.330
33130W        W 6198  18.949  26.935   0.938
33131W        W 6199  18.537  41.487  11.168
33132W        W 6200  42.600   6.884   1.789
33133W        W 6201  17.570  38.577  13.807
33134W        W 6202   7.386  14.248   3.155
33135W        W 6203   4.865  18.711  14.682
33136W        W 6204  37.398   3.770  12.525
33137W        W 6205  22.016   4.484   0.033
33138W        W 6206   0.540  16.697   3.625
33139W        W 6207   6.492  20.733  14.254
33140W        W 6208  13.994   6.389  12.041
33141W        W 6209   2.729   7.737  11.247
33142W        W 6210  44.373  23.654   0.345
33143W        W 6211  15.007  38.389  13.862
33144W        W 6212  16.317  25.952  13.570
33145W        W 6213  42.990  43.566  14.079
33146W        W 6214   7.976  44.267   1.270
33147W        W 6215  31.223  20.430  14.343
33148W        W 6216  16.165  24.003   4.900
33149W        W 6217  30.053  14.408  13.933
33150W        W 6218  41.955  40.775   1.912
33151W        W 6219   0.234  25.534  13.277
33152W        W 6220  12.499  41.105   2.763
33153W        W 6221   4.977  16.149   1.336
33154W        W 6222  11.547  39.083  12.082
33155W        W 6223   3.502  13.878  13.253
33156W        W 6224  33.618   1.834   3.849
33157W        W 6225  30.710  26.044  10.614
33158W        W 6226  40.469   0.819  13.432
33159W        W 6227  29.901   1.843  12.193
33160W        W 6228  21.391   2.334  11.151
33161W        W 6229  41.330  29.351  11.209
33162W        W 6230   7.600   5.895   2.665
33163W        W 6231   6.730  21.604   3.833
33164W        W 6232   9.266  37.284   1.675
33165W        W 6233   1.789  34.359   2.189
33166W        W 6234  20.252  18.603   4.248
33167W        W 6235  44.253  24.607  11.503
33168W        W 6236  42.136  26.732  13.946
33169W        W 6237  43.577  21.042   2.808
33170W        W 6238  34.117  43.752  10.513
33171W        W 6239   6.905  30.378  12.951
33172W        W 6240  28.931  22.263   0.781
33173W        W 6241  44.246  27.419  12.115
33174W        W 6242  18.726  19.966  13.695
33175W        W 6243   5.803  44.019   1.308
33176W        W 6244  17.630  39.149   0.834
33177W        W 6245   9.781  36.129  13.981
33178W        W 6246  37.443  36.722   0.672
33179W        W 6247  19.441  16.581   0.879
33180W        W 6248  34.325  24.423  13.010
33181W        W 6249  14.228  40.197   2.662
33182W        W 6250  15.186  41.726   1.828
33183W        W 6251  12.803  43.703   4.219
33184W        W 6252  15.578  17.236   0.865
33185W        W 6253   7.428  37.552   0.750
33186W        W 6254  39.428  32.495  11.829
33187W        W 6255  37.400  12.558   3.839
33188W        W 6256  25.588   3.207  14.536
33189W        W 6257   7.618  11.513   0.788
33190W        W 6258  15.106  19.673   1.320
33191W        W 6259  38.172  33.240   5.492
33192W        W 6260  34.067  23.999   1.144
33193W        W 6261  19.197   0.756   0.278
33194W        W 6262   2.222  42.455   3.885
33195W        W 6263   9.680  24.534  10.809
33196W        W 6264  14.204  43.032  13.749
33197W        W 6265   4.453  19.589   4.042
33198W        W 6266   1.489   9.399   1.908
33199W        W 6267  13.257  40.561   4.129
33200W        W 6268  15.278  23.121   0.030
33201W        W 6269   0.651  14.848  12.380
33202W        W 6270  40.464  37.798  14.488
33203W        W 6271  20.776  11.381  11.587
33204W        W 6272  30.758  15.555   1.438
33205W        W 6273  23.174   6.408  14.077
33206W        W 6274  41.113  37.304   0.257
33207W        W 6275   2.292  10.660   3.439
33208W        W 6276   2.353  27.179  11.858
33209W        W 6277   7.196   4.252   4.125
33210W        W 6278  21.669  36.099   2.177
33211W        W 6279  14.146  22.922   2.360
33212W        W 6280  17.328  16.099   2.186
33213W        W 6281  14.496  24.921   1.469
33214W        W 6282   7.269  25.151  11.543
33215W        W 6283  15.622  14.906   1.859
33216W        W 6284   8.455  32.225   0.286
33217W        W 6285  14.088   4.569  10.803
33218W        W 6286  31.966  12.619  10.332
33219W        W 6287  25.581  35.481  11.664
33220W        W 6288  31.194  12.609  11.793
33221W        W 6289  12.259   2.974   3.891
33222W        W 6290   7.678  21.312  10.632
33223W        W 6291  31.001  40.971  11.418
33224W        W 6292   6.256   3.388   3.112
33225W        W 6293  35.406  33.365  13.787
33226W        W 6294  33.850  22.978   0.058
33227W        W 6295  25.448  34.459  14.320
33228W        W 6296  13.513  30.092   3.343
33229W        W 6297   6.775  12.282  14.939
33230W        W 6298   3.000   6.828  11.063
33231W        W 6299  32.878  13.159   3.308
33232W        W 6300  27.205  11.029  14.474
33233W        W 6301  39.052  17.730  14.452
33234W        W 6302  36.974  32.867  11.252
33235W        W 6303  12.274  26.208   2.795
33236W        W 6304  25.440  13.921  12.312
33237W        W 6305  34.577  11.675  13.756
33238W        W 6306  42.585  37.495   1.761
33239W        W 6307   7.765  20.244  12.502
33240W        W 6308  15.572  26.975   2.661
33241W        W 6309  18.328  25.425  12.020
33242W        W 6310   1.804  25.164   1.268
33243W        W 6311   8.965  41.862  14.427
33244W        W 6312  24.233  29.121   0.342
33245W        W 6313  11.183  14.283  12.005
33246W        W 6314  29.401  17.234   4.463
33247W        W 6315  31.764  11.418  12.036
33248W        W 6316  23.649  14.643  10.687
33249W        W 6317  38.093  36.206   2.292
33250W        W 6318  40.429  16.712  13.874
33251W        W 6319  20.844  34.570   0.373
33252W        W 6320  37.145  40.966  11.226
33253W        W 6321  36.940  35.968  12.365
33254W        W 6322  13.360  19.128   2.298
33255W        W 6323  39.558   6.401   3.352
33256W        W 6324   1.549   9.617   3.195
33257W        W 6325  32.623  42.034   4.131
33258W        W 6326  39.409  24.137   1.628
33259W        W 6327   7.134  12.759   4.820
33260W        W 6328  22.156  35.827   2.317
33261W        W 6329   2.171  31.859   0.326
33262W        W 6330  36.104  36.832   0.798
33263W        W 6331  22.097  29.162   0.697
33264W        W 6332  17.841  14.035   3.640
33265W        W 6333   7.707  12.398  13.055
33266W        W 6334  23.022  42.076   2.850
33267W        W 6335  20.489  28.921   3.348
33268W        W 6336   4.019   0.846  13.042
33269W        W 6337  42.999  14.804   4.464
33270W        W 6338   1.746  26.155   2.412
33271W        W 6339  20.678  41.849   3.704
33272W        W 6340  40.429   8.664  12.403
33273W        W 6341  19.154  32.872   2.744
33274W        W 6342  13.035  16.404   2.112
33275W        W 6343  30.165   9.594  13.490
33276W        W 6344  26.926  13.799  13.115
33277W        W 6345  24.084  38.755   0.046
33278W        W 6346  12.238   8.345  12.899
33279W        W 6347  36.903  18.805   3.275
33280W        W 6348  23.186  38.425  14.838
33281W        W 6349   5.970  29.720   0.426
33282W        W 6350  30.560  21.715   0.301
33283W        W 6351   2.244   9.380   3.846
33284W        W 6352  34.006  43.922  14.729
33285W        W 6353  40.900  11.844   4.367
33286W        W 6354  22.131   3.278   1.555
33287W        W 6355  44.735   8.450  11.566
33288W        W 6356  22.996  28.104   1.456
33289W        W 6357  42.784  23.172   2.758
33290W        W 6358   6.121  11.647  13.907
33291W        W 6359  19.135  43.427   2.187
33292W        W 6360  28.727  37.029  11.609
33293W        W 6361  20.464  28.452  14.849
33294W        W 6362  36.997  30.624  10.469
33295W        W 6363   4.391  40.080  12.958
33296W        W 6364  10.904  14.764   2.251
33297W        W 6365  34.028   0.411   4.703
33298W        W 6366   0.447   5.517  14.184
33299W        W 6367  30.682   1.454   0.271
33300W        W 6368  19.735  36.067   3.208
33301W        W 6369  35.879  41.714  13.009
33302W        W 6370  38.107   9.828   3.734
33303W        W 6371  32.904  24.241   0.378
33304W        W 6372  41.816  39.292   1.757
33305W        W 6373  29.946  19.705  10.539
33306W        W 6374  26.059  25.653  11.105
33307W        W 6375   9.897  15.486  12.006
33308W        W 6376  31.550  34.851   3.657
33309W        W 6377   2.422  15.823  11.643
33310W        W 6378  23.030  10.737   4.273
33311W        W 6379  18.106  22.096   2.570
33312W        W 6380   6.887  35.498   0.470
33313W        W 6381  37.197  23.760  12.051
33314W        W 6382  42.501  23.760   0.341
33315W        W 6383  28.125  40.777  13.935
33316W        W 6384  18.978  22.430  13.137
33317W        W 6385   6.374   4.299   3.300
33318W        W 6386   9.596  29.347   0.296
33319W        W 6387  36.047   4.157   2.714
33320W        W 6388   6.982  10.800   1.247
33321W        W 6389  40.361   5.734   0.189
33322W        W 6390  38.078  22.708   2.291
33323W        W 6391  18.960  28.873  14.895
33324W        W 6392  26.565  13.352  13.118
33325W        W 6393  23.311  36.031   4.745
33326W        W 6394   3.325  37.944  13.989
33327W        W 6395  14.933  41.073  13.460
33328W        W 6396   9.906  39.632   3.140
33329W        W 6397  38.002  17.346  12.985
33330W        W 6398  39.246   7.440  13.083
33331W        W 6399   6.977   8.625   0.304
33332W        W 6400  44.193  20.191   3.776
33333W        W 6401  40.822  36.059   1.872
33334W        W 6402  13.051  25.605  10.744
33335W        W 6403  19.893  32.455  12.533
33336W        W 6404  31.864   4.746   4.698
33337W        W 6405  13.608   6.311  13.414
33338W        W 6406  17.045  42.515  10.957
33339W        W 6407  40.515   6.912  10.200
33340W        W 6408  41.001  39.106  11.964
33341W        W 6409  19.540  19.125   0.683
33342W        W 6410  38.090  41.270  10.696
33343W        W 6411  22.980  32.956  12.949
33344W        W 6412  44.981   8.021  11.743
33345W        W 6413  42.488  19.295   2.824
33346W        W 6414  27.496  29.123  13.835
33347W        W 6415  31.107  21.158  13.051
33348W        W 6416  44.212   5.287   0.339
33349W        W 6417  29.858  17.849  12.945
33350W        W 6418  36.192  10.815  13.446
33351W        W 6419   0.440  28.090  11.154
33352W        W 6420  26.219  37.423   3.217
33353W        W 6421   9.635  13.725   0.307
33354W        W 6422   0.853  28.260  10.871
33355W        W 6423  25.888   3.272   0.888
33356W        W 6424  11.263   7.931  13.904
33357W        W 6425  35.994   5.315   1.976
33358W        W 6426  38.590  27.515   0.675
33359W        W 6427  12.900  16.576   3.635
33360W        W 6428  12.963  29.231   4.570
33361W        W 6429  36.104   3.874   1.183
33362W        W 6430  21.634  22.623  13.540
33363W        W 6431   2.497  29.417  12.542
33364W        W 6432  34.748  21.970   1.900
33365W        W 6433  31.061  33.583  10.782
33366W        W 6434  17.581   5.420   3.377
33367W        W 6435  24.226  37.569  13.105
33368W        W 6436  25.452  32.565   2.821
33369W        W 6437   0.920  27.858  14.328
33370W        W 6438  22.928   3.353  12.983
33371W        W 6439  24.189   3.221   0.544
33372W        W 6440  15.568  12.879   4.244
33373W        W 6441   0.934  21.635   3.328
33374W        W 6442  42.854   3.300  13.824
33375W        W 6443  11.324   3.718  11.990
33376W        W 6444  44.695  12.868   2.689
33377W        W 6445  13.230  14.316  10.906
33378W        W 6446   8.733  39.013   4.176
33379W        W 6447   1.104   6.524  14.770
33380W        W 6448  26.514  26.078   1.882
33381W        W 6449  25.133  42.019  11.956
33382W        W 6450  10.653  12.148   3.714
33383W        W 6451  15.525  15.031  14.402
33384W        W 6452  39.512  23.540   1.294
33385W        W 6453  28.156  13.531  13.398
33386W        W 6454  26.071   7.590  11.551
33387W        W 6455   2.746  43.399   1.727
33388W        W 6456  40.976  19.980   0.366
33389W        W 6457  32.107   6.820   5.120
33390W        W 6458  19.817  44.184  11.543
33391W        W 6459  31.925   2.436  12.000
33392W        W 6460   4.408   4.425   3.151
33393W        W 6461  44.350  43.310   1.912
33394W        W 6462  39.672  12.203   1.329
33395W        W 6463  16.774  34.020  14.910
33396W        W 6464  40.029  11.591   1.905
33397W        W 6465  17.110  36.781  14.949
33398W        W 6466   5.840  15.206  14.551
33399W        W 6467  31.401  20.827  11.606
33400W        W 6468  27.017  19.119   3.630
33401W        W 6469  36.306  20.654  14.308
33402W        W 6470  41.899  20.049  13.805
33403W        W 6471  13.212   2.111   0.272
33404W        W 6472  24.017  30.039   1.830
33405W        W 6473  33.484   7.957  13.846
33406W        W 6474  32.627   3.155   0.906
33407W        W 6475   4.401  25.640  12.871
33408W        W 6476  15.521  40.545   2.886
33409W        W 6477  15.785  10.440  11.137
33410W        W 6478  24.196   5.264   0.837
33411W        W 6479  34.710   4.709   9.916
33412W        W 6480  21.716  11.794  14.308
33413W        W 6481  11.318  30.051  10.388
33414W        W 6482  32.037  15.333  12.100
33415W        W 6483  26.767   1.392  14.039
33416W        W 6484  38.024  35.585   2.954
33417W        W 6485  31.487  10.354   3.663
33418W        W 6486  37.938  17.429   3.865
33419W        W 6487  35.882  42.529  11.598
33420W        W 6488  33.417  34.532   0.800
33421W        W 6489  43.275  12.834  13.576
33422W        W 6490  16.880  19.228   4.204
33423W        W 6491  19.159   9.167   2.589
33424W        W 6492  41.466  34.819  12.083
33425W        W 6493  35.032   0.963   0.434
33426W        W 6494  13.474  42.698   2.848
33427W        W 6495  29.600  27.940   0.270
33428W        W 6496  18.441   4.375   3.135
33429W        W 6497  33.148  30.483   0.944
33430W        W 6498  34.071  40.066   3.159
33431W        W 6499  36.427  33.620  10.003
33432W        W 6500  36.995   0.833   4.160
33433W        W 6501   8.713  35.696  11.096
33434W        W 6502  40.308  16.167  11.684
33435W        W 6503   9.012  23.144   2.242
33436W        W 6504  39.974   9.658  13.421
33437W        W 6505  31.213   3.852  11.692
33438W        W 6506  41.209  16.272  13.964
33439W        W 6507  36.099  44.146  11.522
33440W        W 6508   8.667  24.640  12.419
33441W        W 6509   2.939  39.281  13.499
33442W        W 6510  26.827   4.440   0.822
33443W        W 6511  16.815  22.403   4.588
33444W        W 6512  16.866  41.927   4.491
33445W        W 6513  11.125  25.079   0.791
33446W        W 6514  16.338  19.686   2.245
33447W        W 6515  27.014   2.199   3.336
33448W        W 6516  35.632  39.770  14.309
33449W        W 6517   9.360  10.878   4.568
33450W        W 6518  24.233  36.619   2.158
33451W        W 6519   0.828  43.290  11.225
33452W        W 6520   8.687  14.572  12.967
33453W        W 6521   9.727   0.791  13.460
33454W        W 6522  25.700  34.160  14.828
33455W        W 6523  22.186  44.203  12.451
33456W        W 6524  16.597  12.161   4.269
33457W        W 6525  18.747  14.840   4.142
33458W        W 6526  24.897  17.679  11.660
33459W        W 6527  11.792  36.020   3.441
33460W        W 6528  23.048   1.731  12.934
33461W        W 6529  36.118  22.275  11.520
33462W        W 6530  31.993  38.405  11.997
33463W        W 6531  12.458  27.407  14.199
33464W        W 6532  17.326  10.168   1.493
33465W        W 6533  42.857   7.925   0.010
33466W        W 6534   5.881  27.687   1.510
33467W        W 6535   5.412   5.403   2.668
33468W        W 6536   4.461  40.037   2.339
33469W        W 6537   7.385  13.759  11.853
33470W        W 6538  20.994  20.283  12.931
33471W        W 6539  37.059  29.953  14.924
33472W        W 6540   0.912   8.393  13.101
33473W        W 6541  24.130  14.076  14.434
33474W        W 6542  28.026  18.303   1.290
33475W        W 6543  43.522  16.710  13.032
33476W        W 6544  13.003   3.486  10.395
33477W        W 6545  15.323  35.770   1.248
33478W        W 6546   4.026  27.976   1.995
33479W        W 6547   7.645  19.692   2.311
33480W        W 6548   5.720  10.362   1.333
33481W        W 6549  34.428  31.166  11.616
33482W        W 6550  44.335  13.176  12.850
33483W        W 6551  14.849  19.976   2.823
33484W        W 6552  21.486   3.732   4.602
33485W        W 6553  44.951   5.890   2.707
33486W        W 6554  26.200  28.203  13.373
33487W        W 6555  16.079  11.709   2.769
33488W        W 6556  35.913  33.394   1.966
33489W        W 6557  19.530  33.034   0.338
33490W        W 6558  30.627  12.248  12.334
33491W        W 6559  41.619  41.350  12.185
33492W        W 6560   7.493  43.966   1.854
33493W        W 6561  29.892   6.300   1.846
33494W        W 6562   9.738  27.576  10.607
33495W        W 6563  33.973  37.078  11.826
33496W        W 6564  13.000  34.976  10.558
33497W        W 6565  44.265   0.417  13.466
33498W        W 6566  13.616  39.939  13.482
33499W        W 6567  29.381  23.957  10.211
33500W        W 6568  18.273  44.875   0.480
33501W        W 6569  19.716  24.271   0.674
33502W        W 6570  23.537  40.133   2.948
33503W        W 6571  20.975  28.379  14.881
33504W        W 6572   6.656  21.879  13.309
33505W        W 6573  28.074  40.542   2.644
33506W        W 6574  16.185  42.858  11.204
33507W        W 6575  19.809  25.212  13.531
33508W        W 6576   9.893   4.556   2.610
33509W        W 6577   5.917  10.119   4.822
33510W        W 6578  36.877  29.040   0.573
33511W        W 6579   8.780  44.739   2.230
33512W        W 6580  30.072  13.835  14.802
33513W        W 6581  28.679  20.248  11.527
33514W        W 6582  31.421  33.201   0.721
33515W        W 6583   4.800  13.121  10.704
33516W        W 6584  17.807  28.386  11.685
33517W        W 6585  33.199  26.691  13.507
33518W        W 6586  37.597  32.997   4.065
33519W        W 6587   3.820   9.390   1.752
33520W        W 6588  39.300  13.816  14.819
33521W        W 6589  44.304   6.331  12.472
33522W        W 6590  17.489  29.879  11.605
33523W        W 6591  42.756   2.402   3.095
33524W        W 6592  15.582  25.661  11.060
33525W        W 6593  28.060  27.184  10.997
33526W        W 6594  23.691  23.817   2.136
33527W        W 6595  30.895   4.932  12.547
33528W        W 6596   6.646  44.944   3.645
33529W        W 6597  32.915  30.042   2.972
33530W        W 6598  14.773  32.026   3.098
33531W        W 6599  41.608  31.646  14.733
33532W        W 6600  10.245  22.633  14.844
33533W        W 6601  29.610  38.526  11.645
33534W        W 6602  29.716  19.373   4.245
33535W        W 6603  15.599  15.122   4.676
33536W        W 6604  26.438  18.114  11.902
33537W        W 6605  35.094   0.298   1.643
33538W        W 6606  20.039   6.948   1.904
33539W        W 6607  36.996   5.793   2.722
33540W        W 6608  26.578   7.370  11.610
33541W        W 6609  41.051   7.501   4.293
33542W        W 6610   0.971  40.676  11.074
33543W        W 6611   4.003  32.912   0.404
33544W        W 6612  28.267  39.507  12.353
33545W        W 6613  25.006  34.808  14.479
33546W        W 6614  29.911  20.633   0.512
33547W        W 6615  26.997   2.284  14.286
33548W        W 6616  23.451   6.149   2.165
33549W        W 6617  28.911  10.739   2.139
33550W        W 6618  34.035  36.185  11.651
33551W        W 6619   7.456  18.517   2.829
33552W        W 6620  13.167  28.629  13.411
33553W        W 6621   0.909  16.555   4.564
33554W        W 6622  36.515   1.287  11.503
33555W        W 6623   8.721  24.925   2.738
33556W        W 6624   6.830  37.204  14.738
33557W        W 6625  44.011  19.791  10.310
33558W        W 6626  24.261  10.724   3.158
33559W        W 6627  26.523   8.807  13.427
33560W        W 6628  22.052   3.767   2.922
33561W        W 6629   6.824  24.636  12.704
33562W        W 6630   7.305  27.946   2.178
33563W        W 6631  35.528   5.114   1.828
33564W        W 6632  17.062  26.107   2.700
33565W        W 6633  26.888  12.105  13.821
33566W        W 6634   4.162  40.483   4.213
33567W        W 6635  30.930  26.712   2.283
33568W        W 6636  26.872  25.552   3.151
33569W        W 6637  11.609  13.321  13.820
33570W        W 6638  36.481  41.853   0.972
33571W        W 6639   3.747  23.988   2.707
33572W        W 6640   4.283  10.380   4.134
33573W        W 6641   5.003   3.394   0.297
33574W        W 6642  35.577   7.949   2.580
33575W        W 6643  37.860  43.919  11.435
33576W        W 6644  41.101  10.115   3.595
33577W        W 6645   7.841  23.454  11.955
33578W        W 6646  37.967  40.515  13.380
33579W        W 6647  20.013  21.738  10.651
33580W        W 6648   0.358  28.396  10.736
33581W        W 6649  37.049  34.986   3.225
33582W        W 6650   9.619  16.058   0.467
33583W        W 6651   1.525  31.600  14.018
33584W        W 6652   0.874  18.016   4.524
33585W        W 6653  16.282  35.868  11.707
33586W        W 6654  16.673  37.277  11.682
33587W        W 6655   7.840  21.481   1.841
33588W        W 6656  23.767  14.572  13.432
33589W        W 6657  22.690  32.491  10.812
33590W        W 6658  33.625   1.695  11.407
33591W        W 6659  34.430  44.940   4.119
33592W        W 6660   9.224   1.271  14.000
33593W        W 6661   2.354  14.335  10.314
33594W        W 6662   2.999  30.223   3.682
33595W        W 6663   8.588  19.071   0.899
33596W        W 6664  41.808  21.474  12.546
33597W        W 6665   4.409  23.932  12.124
33598W        W 6666   0.080  13.733   0.896
33599W        W 6667  27.937  28.726   1.300
33600W        W 6668   9.627  31.116  13.787
33601W        W 6669   0.302  40.941   1.188
33602W        W 6670  38.066   2.864   1.670
33603W        W 6671  26.705  44.423   4.820
33604W        W 6672  21.622  39.549   2.680
33605W        W 6673  37.665  16.190   2.808
33606W        W 6674  13.889  14.854   0.451
33607W        W 6675  37.248  13.357   2.801
33608W        W 6676   7.842  28.634  12.687
33609W        W 6677  38.510  16.380   4.105
33610W        W 6678  14.609  33.047  11.105
33611W        W 6679   2.566  24.123   4.041
33612W        W 6680  35.632  18.824  11.166
33613W        W 6681  36.700  41.324   0.392
33614W        W 6682  43.002  20.167   0.456
33615W        W 6683  32.188  44.945   1.365
33616W        W 6684   5.294  36.718  13.752
33617W        W 6685  22.122   0.193   0.892
33618W        W 6686  21.463  27.198  10.668
33619W        W 6687  39.367  12.276   4.248
33620W        W 6688  20.234  44.884   3.249
33621W        W 6689   4.267  36.088  11.039
33622W        W 6690   3.671  10.849  13.351
33623W        W 6691  10.395  28.469  14.813
33624W        W 6692   0.498   3.886  14.416
33625W        W 6693  41.337  44.970   1.280
33626W        W 6694  33.060  23.978   4.469
33627W        W 6695  13.201  42.253  12.036
33628W        W 6696  10.181  34.839  11.606
33629W        W 6697  21.254   4.528   3.215
33630W        W 6698  31.025  17.074   2.394
33631W        W 6699  15.730  39.104  15.000
33632W        W 6700  27.550  21.244   0.268
33633W        W 6701  42.001  28.187  12.533
33634W        W 6702  29.075  30.355  12.929
33635W        W 6703  20.005   7.327  11.421
33636W        W 6704  19.452  37.872   0.357
33637W        W 6705  39.239  17.721   3.878
33638W        W 6706  26.377  37.659  12.136
33639W        W 6707  24.878  31.548   0.846
33640W        W 6708  23.669  36.553  13.329
33641W        W 6709   3.736  21.058   0.696
33642W        W 6710  30.182  12.247   3.307
33643W        W 6711  20.822  19.422   4.262
33644W        W 6712   9.362  17.973  13.360
33645W        W 6713  19.504  16.311   2.832
33646W        W 6714  31.558  10.408  10.831
33647W        W 6715   8.758  24.016   0.227
33648W        W 6716  32.392  22.647   4.158
33649W        W 6717  10.528  27.728  11.107
33650W        W 6718  42.593  20.204  13.910
33651W        W 6719  44.783  18.149   3.639
33652W        W 6720  29.103  44.536   0.295
33653W        W 6721  29.419   1.752   1.929
33654W        W 6722  13.087   8.682   0.787
33655W        W 6723  14.799   3.976   3.141
33656W        W 6724  18.033   8.331  13.932
33657W        W 6725  38.628  26.111   0.175
33658W        W 6726  13.670  36.796   2.292
33659W        W 6727  12.981  41.463  10.188
33660W        W 6728   2.190  22.973  14.414
33661W        W 6729  41.249  11.720  12.580
33662W        W 6730   3.971  30.415  10.847
33663W        W 6731  23.654  18.043  11.158
33664W        W 6732   5.500  20.294  13.542
33665W        W 6733  13.759  27.655   0.397
33666W        W 6734  33.563  32.967  11.949
33667W        W 6735  43.038  24.641   0.298
33668W        W 6736   6.744  41.910   0.950
33669W        W 6737   7.788  42.264  11.903
33670W        W 6738  33.015  19.672   3.292
33671W        W 6739   4.753   7.426  11.852
33672W        W 6740   3.955  43.704   2.237
33673W        W 6741  29.858  32.836   1.240
33674W        W 6742  30.398  22.769   3.210
33675W        W 6743  28.556  35.173  10.710
33676W        W 6744  38.695  29.524  12.114
33677W        W 6745  30.594  33.374   4.155
33678W        W 6746  13.604  18.182   4.286
33679W        W 6747  25.013   7.010  11.113
33680W        W 6748  34.632  37.483  13.346
33681W        W 6749  23.976  26.694   1.417
33682W        W 6750  22.496  20.746   3.709
33683W        W 6751  20.997   6.693  14.866
33684W        W 6752  11.052  41.540   1.943
33685W        W 6753  31.484  17.395  10.747
33686W        W 6754  42.214  28.917   4.285
33687W        W 6755  11.774  19.431   9.669
33688W        W 6756  25.849   9.367  14.336
33689W        W 6757  41.282  18.600  14.596
33690W        W 6758  35.892  13.802  10.581
33691W        W 6759  10.843  15.095   1.164
33692W        W 6760  33.142  33.056   1.728
33693W        W 6761  38.297   2.862   0.443
33694W        W 6762   9.876  17.772  14.984
33695W        W 6763  34.584   2.448  10.745
33696W        W 6764   8.495   1.602  12.034
33697W        W 6765  14.107  38.360  13.489
33698W        W 6766  13.252   2.864   4.401
33699W        W 6767   8.257  24.002  11.656
33700W        W 6768  34.118   3.819  14.803
33701W        W 6769  25.020  37.967   9.717
33702W        W 6770   0.856  34.564  14.961
33703W        W 6771  43.851   7.232  12.291
33704W        W 6772  36.322   2.605   3.181
33705W        W 6773   9.026  41.461   3.169
33706W        W 6774  26.379  14.863   2.399
33707W        W 6775   9.568  44.337   0.869
33708W        W 6776   7.200  25.222   2.857
33709W        W 6777  42.484  12.490   1.326
33710W        W 6778  36.298  43.341  13.702
33711W        W 6779  24.307  33.681  11.248
33712W        W 6780  32.975  11.699  11.699
33713W        W 6781   0.492  10.748  11.622
33714W        W 6782  13.155  27.474   2.233
33715W        W 6783   1.924  21.236  14.901
33716W        W 6784  24.643  21.031   0.317
33717W        W 6785  25.815  32.192   2.509
33718W        W 6786  26.970  35.548  12.430
33719W        W 6787  33.446   9.407   2.719
33720W        W 6788   3.531  16.692   1.794
33721W        W 6789   1.756  25.198  12.882
33722W        W 6790  39.681  28.153  14.704
33723W        W 6791  40.916  36.298   0.160
33724W        W 6792  31.373  39.427  11.503
33725W        W 6793  18.331   1.439   1.139
33726W        W 6794  25.143   6.159   2.200
33727W        W 6795  15.172  22.014   1.955
33728W        W 6796   7.146  11.404   3.182
33729W        W 6797   1.768   2.882   0.364
33730W        W 6798  29.907  29.697   1.773
33731W        W 6799  35.945  29.557   4.511
33732W        W 6800  13.319  30.661   2.499
33733W        W 6801  17.734  41.560   1.778
33734W        W 6802  30.911  11.824  14.850
33735W        W 6803  42.932  29.637  11.945
33736W        W 6804  40.081   2.279  13.044
33737W        W 6805  20.626  32.665  12.903
33738W        W 6806  24.904   0.810   1.783
33739W        W 6807  27.836  22.488   4.299
33740W        W 6808  43.462   2.712   3.074
33741W        W 6809  20.790  39.086   0.275
33742W        W 6810  27.973  13.675   4.161
33743W        W 6811   2.877  42.891  14.888
33744W        W 6812  13.325  35.873   2.207
33745W        W 6813  38.757   3.393  14.980
33746W        W 6814  10.439  33.898   0.371
33747W        W 6815   2.311   3.017   4.598
33748W        W 6816  27.421  27.909   0.526
33749W        W 6817  34.385  28.434  11.660
33750W        W 6818  43.962  43.269   2.806
33751W        W 6819   3.174   4.175   0.152
33752W        W 6820  38.459  11.782   2.144
33753W        W 6821   3.903  31.377  10.652
33754W        W 6822  13.719  17.104   1.439
33755W        W 6823  44.826   5.504  13.474
33756W        W 6824  21.634   3.515  14.337
33757W        W 6825  35.958  32.007   1.420
33758W        W 6826   5.273   5.524  10.800
33759W        W 6827  40.738  34.949  12.586
33760W        W 6828  38.945  36.873   3.671
33761W        W 6829  36.535  14.692   4.582
33762W        W 6830  18.145  17.768  11.978
33763W        W 6831  40.119  13.235  10.598
33764W        W 6832  35.955  43.126   0.443
33765W        W 6833  34.639  16.778   1.887
33766W        W 6834   4.937   4.244  10.713
33767W        W 6835   4.780  39.361   3.843
33768W        W 6836  26.516  21.734  11.601
33769W        W 6837  16.508  17.244   0.824
33770W        W 6838   7.879  40.969  10.963
33771W        W 6839  29.174  34.337   4.018
33772W        W 6840  25.965  38.522  13.056
33773W        W 6841  33.161  35.119  11.421
33774W        W 6842  13.492  24.993   2.364
33775W        W 6843  12.403  14.050   5.223
33776W        W 6844  38.927  22.695   4.596
33777W        W 6845  17.303   3.315   3.820
33778W        W 6846  44.316  27.775  14.403
33779W        W 6847   0.729  19.854   2.495
33780W        W 6848  28.552  33.105  12.046
33781W        W 6849  31.126   7.660   2.408
33782W        W 6850  43.747  13.961   0.342
33783W        W 6851   4.614  33.449   3.628
33784W        W 6852   9.779  33.561  11.398
33785W        W 6853   9.514  16.518   4.640
33786W        W 6854   9.032   5.095  11.928
33787W        W 6855  40.527   9.841  14.279
33788W        W 6856  44.025  19.961  11.737
33789W        W 6857  26.148  17.016  12.940
33790W        W 6858  25.451   6.079   2.611
33791W        W 6859  22.599  19.294   2.739
33792W        W 6860   2.229   5.687  12.406
33793W        W 6861  42.286   6.776   2.244
33794W        W 6862  17.551   2.903  13.060
33795W        W 6863  27.547  12.630  12.362
33796W        W 6864   3.638  13.065  12.958
33797W        W 6865  16.270  32.691   1.854
33798W        W 6866  18.648  34.346   3.449
33799W        W 6867  43.244  36.002   2.343
33800W        W 6868   8.178  34.987   0.368
33801W        W 6869   5.768  20.113   1.335
33802W        W 6870   7.401  30.092   0.717
33803W        W 6871  11.629  44.932  11.724
33804W        W 6872  14.319  15.608  11.077
33805W        W 6873   5.731  23.508   4.233
33806W        W 6874   2.079  23.261   4.195
33807W        W 6875  26.965  39.408   1.376
33808W        W 6876  26.640  24.126   3.272
33809W        W 6877  23.092   7.192  12.169
33810W        W 6878  18.226  13.563   1.226
33811W        W 6879  32.297  26.138  13.059
33812W        W 6880  21.629   6.431   4.331
33813W        W 6881  24.997  10.640   0.556
33814W        W 6882  30.363  28.318   2.838
33815W        W 6883  10.839  39.534  14.321
33816W        W 6884   9.028  13.731   2.295
33817W        W 6885  23.035  34.238   1.238
33818W        W 6886  21.814  22.692  11.136
33819W        W 6887  41.989  39.426  12.004
33820W        W 6888  25.620  27.587   2.230
33821W        W 6889   8.787  31.547  14.459
33822W        W 6890   0.746  17.175  10.636
33823W        W 6891  36.138  10.102   3.649
33824W        W 6892   1.892  12.597   0.961
33825W        W 6893  12.989  19.034  14.311
33826W        W 6894  36.070  37.364   0.004
33827W        W 6895  33.713   6.871   0.351
33828W        W 6896  44.830  16.301  11.215
33829W        W 6897   5.796  39.038  11.127
33830W        W 6898   1.480   6.787   0.007
33831W        W 6899  42.284  16.430  14.765
33832W        W 6900  17.483  40.340   1.873
33833W        W 6901  10.033  19.473  12.584
33834W        W 6902  27.092  43.748  14.874
33835W        W 6903   7.750  36.889   4.372
33836W        W 6904  31.633  38.733  11.089
33837W        W 6905  25.454  36.883  12.999
33838W        W 6906  17.557  34.470  14.390
33839W        W 6907  36.890  24.995  13.912
33840W        W 6908  34.114  32.255  12.722
33841W        W 6909  10.342   9.619   1.925
33842W        W 6910   4.039  40.602  11.193
33843W        W 6911   2.003  34.476  11.052
33844W        W 6912  26.464  36.915   3.359
33845W        W 6913   0.434  42.981   1.023
33846W        W 6914  27.224  19.287   0.871
33847W        W 6915  30.737  43.464   3.619
33848W        W 6916  37.130  27.132   3.930
33849W        W 6917  13.749  10.789  12.051
33850W        W 6918  36.271  19.590   3.636
33851W        W 6919  32.936   4.370  12.962
33852W        W 6920  26.694  30.549   4.628
33853W        W 6921   9.818  31.952  13.369
33854W        W 6922  35.153  38.119   2.305
33855W        W 6923   9.901   7.613   1.320
33856W        W 6924  18.123  11.822   4.606
33857W        W 6925  10.782  26.298  11.654
33858W        W 6926   3.899  28.264   5.008
33859W        W 6927  10.384  33.953   1.338
33860W        W 6928  23.160   4.412  12.501
33861W        W 6929   8.253   2.651  13.785
33862W        W 6930   3.087  15.055   3.879
33863W        W 6931  13.959  11.020  11.199
33864W        W 6932  24.496  40.329  10.663
33865W        W 6933  19.801  26.606  14.521
33866W        W 6934  22.756  39.454   0.216
33867W        W 6935   4.965  23.591  13.625
33868W        W 6936  39.792  19.022  12.434
33869W        W 6937  19.130   7.357  12.432
33870W        W 6938   6.856  21.051  11.003
33871W        W 6939  36.099  32.522   2.320
33872W        W 6940   4.983   7.878  11.140
33873W        W 6941  23.675  29.205   1.251
33874W        W 6942  17.221  17.582   1.301
33875W        W 6943  29.564  36.113   5.173
33876W        W 6944  30.514  41.034  10.525
33877W        W 6945  37.841   8.176   1.341
33878W        W 6946  24.302  32.032   5.033
33879W        W 6947  37.051  23.664  11.565
33880W        W 6948  32.509   1.409   1.911
33881W        W 6949  35.611   8.763  13.833
33882W        W 6950  21.239  25.076  11.150
33883W        W 6951  21.495  40.580  12.371
33884W        W 6952  27.121  37.501  11.596
33885W        W 6953  39.888  22.545  13.999
33886W        W 6954  12.890   4.374  13.511
33887W        W 6955   0.056  40.297   1.833
33888W        W 6956  26.153  41.034  13.816
33889W        W 6957  19.856  13.279   5.024
33890W        W 6958   1.492  37.581  10.471
33891W        W 6959   9.241  20.092   2.781
33892W        W 6960  37.848  28.017   3.136
33893W        W 6961  12.727   1.796   0.318
33894W        W 6962  16.154  29.488   4.100
33895W        W 6963   4.159  27.314   4.224
33896W        W 6964   6.785   2.269   1.467
33897W        W 6965   6.696  37.908  12.567
33898W        W 6966  26.807  35.247  12.048
33899W        W 6967  39.994  37.768   4.627
33900W        W 6968  39.658  39.260  11.684
33901W        W 6969  20.520  10.345  11.603
33902W        W 6970  25.554  27.969   0.750
33903W        W 6971  13.193  20.228   2.340
33904W        W 6972  25.344   0.145  12.092
33905W        W 6973  35.036  28.109   1.656
33906W        W 6974  20.264  30.723  13.197
33907W        W 6975   9.158  41.099  12.589
33908W        W 6976  41.909  40.114  14.349
33909W        W 6977  33.006  23.108  13.408
33910W        W 6978  31.725  19.306   0.232
33911W        W 6979   2.260   5.407   3.914
33912W        W 6980  27.066   2.341  12.937
33913W        W 6981   9.116  37.807   4.550
33914W        W 6982  35.239  13.518   0.810
33915W        W 6983  18.526  36.996  14.913
33916W        W 6984  28.741  43.281   3.572
33917W        W 6985  35.496  22.249  12.005
33918W        W 6986  16.796  22.459  13.755
33919W        W 6987  34.975  30.613   0.717
33920W        W 6988  39.176  13.911   3.715
33921W        W 6989   5.709  11.244   2.458
33922W        W 6990  24.678  36.181  14.693
33923W        W 6991  24.219  27.661   1.272
33924W        W 6992  16.635  43.034   3.632
33925W        W 6993  16.339   7.194  11.194
33926W        W 6994  20.688  29.878   1.425
33927W        W 6995  29.509  35.352   4.718
33928W        W 6996   8.655  39.428   2.879
33929W        W 6997  29.530   0.011  12.886
33930W        W 6998  20.118  37.311   1.795
33931W        W 6999  33.542   3.170   5.150
33932W        W 7000  34.679  25.176  12.576
33933W        W 7001  40.796  42.269  12.446
33934W        W 7002   7.536  10.038   2.171
33935W        W 7003  13.798  41.859  13.359
33936W        W 7004  42.516  42.552   3.665
33937W        W 7005  43.721  10.850   3.694
33938W        W 7006   4.074   6.477  12.486
33939W        W 7007  41.599  36.604  14.051
33940W        W 7008   9.865   7.816   4.311
33941W        W 7009  18.733   6.953   1.490
33942W        W 7010  24.083  13.274  14.855
33943W        W 7011  44.985   0.168  14.243
33944W        W 7012  19.156  28.911   0.788
33945W        W 7013   8.194   6.634  12.981
33946W        W 7014  21.964  22.961   0.771
33947W        W 7015  17.248  39.221  14.416
33948W        W 7016  14.585  43.776  13.377
33949W        W 7017  23.927  15.214   0.134
33950W        W 7018  31.398   9.220  11.175
33951W        W 7019  11.753   3.853  12.918
33952W        W 7020  25.001  28.482  10.759
33953W        W 7021  12.181  43.984  12.473
33954W        W 7022  13.816  24.468   1.133
33955W        W 7023  32.463  33.406  12.143
33956W        W 7024  43.807   8.412  13.265
33957W        W 7025  38.280   7.274  12.599
33958W        W 7026   2.443  42.058   3.624
33959W        W 7027   8.855  20.016   3.579
33960W        W 7028  10.145  25.481  10.624
33961W        W 7029   7.298   4.322  12.401
33962W        W 7030  10.383   1.386   2.695
33963W        W 7031  43.256  20.593   3.695
33964W        W 7032  18.589  40.763   2.278
33965W        W 7033  28.130  43.352  13.095
33966W        W 7034  40.209  28.221  10.684
33967W        W 7035   8.753   0.143   3.853
33968W        W 7036   4.438  40.946  11.067
33969W        W 7037  16.801  17.548  12.304
33970W        W 7038  12.212  33.446  10.486
33971W        W 7039  40.897  39.322   2.250
33972W        W 7040  40.053  11.888   4.373
33973W        W 7041  27.345  24.042  13.249
33974W        W 7042  32.005  22.341  12.196
33975W        W 7043  33.471  12.626   2.773
33976W        W 7044  21.320  11.417  12.570
33977W        W 7045  26.344  33.628  12.949
33978W        W 7046  23.805  32.142   4.940
33979W        W 7047  16.762   2.246   1.391
33980W        W 7048  16.706  36.064  11.440
33981W        W 7049  14.759  36.160  12.471
33982W        W 7050  36.385  28.175   1.466
33983W        W 7051  42.926   5.795   0.900
33984W        W 7052  20.016   0.388  10.664
33985W        W 7053  27.145  23.132  11.514
33986W        W 7054   2.742  36.886  10.618
33987W        W 7055  44.488   0.930  12.573
33988W        W 7056  23.694  19.808   2.402
33989W        W 7057  10.174  37.184   9.678
33990W        W 7058  13.527   9.689   2.946
33991W        W 7059   9.904  35.689   4.682
33992W        W 7060  11.959  16.447   1.827
33993W        W 7061   0.405   6.628   1.360
33994W        W 7062  12.273  32.210   0.426
33995W        W 7063  42.282   1.217  13.263
33996W        W 7064  40.891  29.090   3.754
33997W        W 7065  42.550  24.764   1.351
33998W        W 7066  16.726  40.991  12.629
33999W        W 7067  30.897  27.989  10.636
34000W        W 7068  24.001   2.611   4.144
34001W        W 7069  32.645   3.441   4.728
34002W        W 7070  36.559  30.250   4.583
34003W        W 7071  30.574   9.598  11.925
34004W        W 7072  43.764   3.962   0.435
34005W        W 7073  40.914  10.201   4.084
34006W        W 7074  40.288  10.727  10.750
34007W        W 7075   6.157  21.925   4.816
34008W        W 7076  11.948  10.797   4.587
34009W        W 7077  36.970   8.599  14.911
34010W        W 7078  28.384  32.092  12.458
34011W        W 7079  22.312  32.556  13.469
34012W        W 7080  15.606  21.816   1.744
34013W        W 7081  16.060  32.083  11.361
34014W        W 7082  41.375  31.967   1.160
34015W        W 7083  36.931  23.253   3.762
34016W        W 7084  27.899  42.020   3.675
34017W        W 7085  16.974  25.505   1.767
34018W        W 7086  18.453  35.569  11.880
34019W        W 7087   4.863  23.741  12.558
34020W        W 7088   3.719  19.120   1.136
34021W        W 7089  31.462  18.654   4.375
34022W        W 7090  24.555  31.222  11.979
34023W        W 7091  32.110   1.962  12.873
34024W        W 7092  17.131  33.798  13.880
34025W        W 7093  39.583  22.153   2.376
34026W        W 7094   0.055  26.880   1.840
34027W        W 7095  26.674  16.570   1.731
34028W        W 7096  33.571  19.390  10.206
34029W        W 7097   1.320  22.566   4.041
34030W        W 7098  34.838  10.802  14.335
34031W        W 7099  21.360  30.595   2.123
34032W        W 7100   1.042   1.251  11.580
34033W        W 7101  13.348  26.042  13.459
34034W        W 7102  40.152  10.384   0.335
34035W        W 7103  42.931   5.715  13.614
34036W        W 7104  18.660  42.891   2.865
34037W        W 7105  25.387  26.224  14.085
34038W        W 7106  30.019  19.803  11.437
34039W        W 7107  43.220  16.418   3.709
34040W        W 7108  36.878   9.811   4.462
34041W        W 7109  13.265   8.630   1.288
34042W        W 7110   9.384  44.714  12.524
34043W        W 7111   3.198   7.495  13.021
34044W        W 7112  33.013  28.986  11.942
34045W        W 7113  44.245  17.258  14.959
34046W        W 7114  31.387  10.732   0.878
34047W        W 7115  12.095   0.005   2.274
34048W        W 7116  38.045   9.889   1.988
34049W        W 7117  40.440  30.454  12.985
34050W        W 7118  30.213   3.141  14.097
34051W        W 7119  20.526  21.090  14.496
34052W        W 7120  24.972   8.422  14.412
34053W        W 7121  34.763   6.358   3.214
34054W        W 7122  16.228  32.971  10.777
34055W        W 7123  10.524   1.252  11.095
34056W        W 7124  30.159  11.464   3.722
34057W        W 7125  41.339  19.009  11.916
34058W        W 7126   4.431  23.155   2.326
34059W        W 7127  17.964   8.639   2.636
34060W        W 7128  11.041   3.687  14.840
34061W        W 7129   4.620  38.411   2.559
34062W        W 7130  16.421  34.091  11.289
34063W        W 7131   3.646  38.947  10.692
34064W        W 7132  26.472  39.822   1.867
34065W        W 7133  14.178  30.094  12.088
34066W        W 7134  36.110   1.712   0.245
34067W        W 7135   4.274  14.474   2.249
34068W        W 7136  43.723   7.863   2.242
34069W        W 7137  17.765  39.464  11.540
34070W        W 7138   5.869  42.584  11.604
34071W        W 7139  40.861   1.961  10.789
34072W        W 7140  18.522  19.318   2.706
34073W        W 7141  31.628  30.787  14.558
34074W        W 7142  35.018  13.457   2.268
34075W        W 7143  16.961  20.043  11.748
34076W        W 7144  22.734   2.718   3.524
34077W        W 7145  21.548  19.278  12.415
34078W        W 7146  43.925   4.415   0.232
34079W        W 7147  42.888  31.440   4.605
34080W        W 7148  43.807  39.898  14.025
34081W        W 7149  19.088  24.056   1.292
34082W        W 7150  28.252  24.971  15.000
34083W        W 7151   9.173  41.536  11.994
34084W        W 7152   9.385  23.425   1.268
34085W        W 7153  11.315  12.177  14.810
34086W        W 7154  29.143  11.313   0.408
34087W        W 7155  35.712  30.710   4.147
34088W        W 7156  34.976  24.641   3.105
34089W        W 7157  17.095  10.917   3.654
34090W        W 7158   3.316  20.685  10.682
34091W        W 7159  21.676   7.817   0.433
34092W        W 7160  19.531  26.185  14.588
34093W        W 7161  32.062  10.909  11.271
34094W        W 7162   8.689  35.016   4.517
34095W        W 7163  16.100  40.386   3.675
34096W        W 7164  24.453   7.285   1.209
34097W        W 7165  11.046  31.073  14.702
34098W        W 7166   0.702  23.457   4.189
34099W        W 7167  40.835  41.573   0.353
34100W        W 7168   0.260   1.925  14.939
34101W        W 7169  21.532  23.701   0.845
34102W        W 7170  29.760  26.088   2.335
34103W        W 7171  22.594   0.279   5.007
34104W        W 7172  19.279   9.829   2.330
34105W        W 7173   6.802   4.621   0.210
34106W        W 7174   7.238  42.265  12.644
34107W        W 7175   2.307  19.944  13.438
34108W        W 7176  32.187  15.482  12.573
34109W        W 7177  21.344  42.918   2.883
34110W        W 7178  31.062  33.600   4.117
34111W        W 7179  33.983  13.918  14.893
34112W        W 7180  16.546  16.072   1.693
34113W        W 7181  36.697  10.861  13.239
34114W        W 7182  40.692  44.876   3.676
34115W        W 7183  35.790  37.957  12.455
34116W        W 7184  17.185  14.572   1.428
34117W        W 7185  21.091   3.710   2.834
34118W        W 7186  11.766  24.496  10.468
34119W        W 7187  35.311  30.009   0.754
34120W        W 7188  21.644  12.225  14.033
34121W        W 7189  31.670  17.388   1.365
34122W        W 7190   9.226  16.150  12.791
34123W        W 7191  41.454  35.709  11.213
34124W        W 7192  42.965  21.000   5.008
34125W        W 7193  28.213  14.184   3.267
34126W        W 7194  19.244  34.488  12.425
34127W        W 7195  32.587  41.913  14.995
34128W        W 7196  39.378  17.859  13.064
34129W        W 7197   4.349  30.017  10.774
34130W        W 7198   8.865  36.443   3.615
34131W        W 7199  30.015  21.709   3.658
34132W        W 7200  27.841  10.195   0.203
34133W        W 7201  31.215  23.489  10.800
34134W        W 7202  11.828  29.153   2.470
34135W        W 7203  41.943  32.205  13.472
34136W        W 7204  44.446  38.009  12.878
34137W        W 7205  11.635  31.692  14.867
34138W        W 7206  44.702  29.036  10.989
34139W        W 7207  25.917  41.511  12.489
34140W        W 7208  43.988   0.400  12.920
34141W        W 7209   9.288  44.670   1.204
34142W        W 7210   8.403  42.164   0.940
34143W        W 7211   4.748  40.980  10.639
34144W        W 7212  37.013  30.144  10.671
34145W        W 7213  29.920  22.687   4.210
34146W        W 7214  13.093  12.282   0.961
34147W        W 7215  29.739  32.910   2.750
34148W        W 7216  13.756  34.838  13.379
34149W        W 7217  29.567   6.544   0.352
34150W        W 7218  25.266  19.283  14.215
34151W        W 7219  33.404   5.188  14.492
34152W        W 7220   7.644  41.806  14.867
34153W        W 7221  17.103   7.359  11.647
34154W        W 7222  12.105   4.400   0.265
34155W        W 7223  37.474  16.343   3.264
34156W        W 7224  10.212  21.261  10.872
34157W        W 7225  23.452  17.758  14.308
34158W        W 7226  41.069   9.893  14.228
34159W        W 7227  22.133  22.287  12.506
34160W        W 7228  31.605  21.988   3.743
34161W        W 7229   9.333  42.071   4.616
34162W        W 7230  41.948  14.172  14.373
34163W        W 7231  18.507  23.512   3.744
34164W        W 7232  21.287  44.884  12.993
34165W        W 7233   5.722  39.040  14.506
34166W        W 7234   1.339  13.694  13.514
34167W        W 7235   0.067  28.535   1.452
34168W        W 7236   1.284  40.271   1.652
34169W        W 7237  22.153  41.469   0.312
34170W        W 7238  34.101   0.982  12.413
34171W        W 7239   6.828   7.283  12.935
34172W        W 7240  14.815   5.842   4.666
34173W        W 7241  39.996   1.757   4.322
34174W        W 7242  38.498  42.333   2.175
34175W        W 7243   5.370  42.901   4.085
34176W        W 7244  40.360  20.762  12.410
34177W        W 7245  23.138  33.177  11.215
34178W        W 7246  30.582  13.057  10.967
34179W        W 7247  29.492  23.744  14.460
34180W        W 7248  43.338  24.743   4.914
34181W        W 7249   2.806  43.410   1.187
34182W        W 7250  12.603  10.121   2.857
34183W        W 7251  29.502  41.360  13.904
34184W        W 7252  39.952   2.581   4.628
34185W        W 7253  11.594  22.576   3.289
34186W        W 7254  19.012  38.055  13.993
34187W        W 7255  28.230  17.276  10.772
34188W        W 7256  24.091   9.220   4.641
34189W        W 7257  36.507  36.638   4.275
34190W        W 7258  38.836  30.226   4.621
34191W        W 7259  43.057  17.603  12.700
34192W        W 7260  15.892  30.583   3.371
34193W        W 7261  21.125   9.745  12.063
34194W        W 7262   8.126   3.355   2.253
34195W        W 7263   0.301  22.692   2.181
34196W        W 7264   9.691  35.059   0.837
34197W        W 7265   0.513  28.701  14.505
34198W        W 7266  25.508  25.632  14.253
34199W        W 7267   0.247   2.663   4.345
34200W        W 7268  30.399  32.358   0.622
34201W        W 7269  12.765  11.456   1.460
34202W        W 7270  36.548  30.608  14.781
34203W        W 7271  12.219  13.673   2.459
34204W        W 7272  17.616  29.768   1.847
34205W        W 7273  37.460   9.744   0.820
34206W        W 7274  16.828   6.209  12.942
34207W        W 7275  39.983  11.681  11.729
34208W        W 7276  24.087  30.577   2.348
34209W        W 7277  30.351  27.462  12.991
34210W        W 7278  24.651  14.039  10.665
34211W        W 7279   1.884  32.840  13.640
34212W        W 7280  22.066  36.835   3.245
34213W        W 7281   0.508  25.184  10.714
34214W        W 7282  16.638  12.451  14.637
34215W        W 7283  25.942  17.691  11.637
34216W        W 7284   1.299   0.425  12.656
34217W        W 7285  13.266  41.267   5.137
34218W        W 7286  22.137  19.484  13.978
34219W        W 7287   4.786   5.444   1.521
34220W        W 7288  42.365   0.428   4.113
34221W        W 7289  11.697  34.053   0.922
34222W        W 7290  17.708  28.045  12.502
34223W        W 7291  11.082  21.604   1.373
34224W        W 7292   5.399  25.448   0.341
34225W        W 7293  39.745   5.448  13.662
34226W        W 7294  31.533  19.718   3.541
34227W        W 7295   4.899  15.955  13.089
34228W        W 7296  25.162  11.112   0.697
34229W        W 7297  42.023  23.509   0.336
34230W        W 7298  13.361  13.312  11.870
34231W        W 7299  40.810  29.601  13.996
34232W        W 7300  35.550  35.602  12.302
34233W        W 7301  30.477   9.103  11.757
34234W        W 7302   2.274  26.912   1.838
34235W        W 7303   7.744   5.207  11.700
34236W        W 7304  31.712  30.387  14.259
34237W        W 7305  25.879  39.087   0.959
34238W        W 7306  32.146  31.239  12.034
34239W        W 7307  20.005  18.064   4.405
34240W        W 7308  11.334  31.912   0.827
34241W        W 7309   1.353   5.749  13.933
34242W        W 7310  12.117  32.385   2.330
34243W        W 7311  26.015  29.100   1.312
34244W        W 7312   3.894  38.326   0.288
34245W        W 7313  23.990  27.209   1.383
34246W        W 7314   7.037  28.190  13.288
34247W        W 7315   1.278  12.145   1.504
34248W        W 7316  12.522   6.306   2.210
34249W        W 7317  25.521   8.965  12.117
34250W        W 7318   5.146  13.992  11.152
34251W        W 7319  38.567   8.857  12.411
34252W        W 7320  20.853  27.110  13.167
34253W        W 7321  22.454  32.334  14.425
34254W        W 7322  32.695  32.518  11.146
34255W        W 7323  24.635   1.381  12.859
34256W        W 7324  39.489  31.527  13.434
34257W        W 7325   6.501  26.517   0.348
34258W        W 7326   2.801   2.196   2.199
34259W        W 7327   8.280  43.244   0.939
34260W        W 7328  36.863  35.053  13.249
34261W        W 7329  39.345  36.378   1.950
34262W        W 7330  44.200  17.169   4.879
34263W        W 7331  10.607  40.035  13.433
34264W        W 7332  23.171  39.284  12.868
34265W        W 7333  11.654  32.827   2.081
34266W        W 7334  37.797  42.297  13.869
34267W        W 7335  41.987   2.427  10.491
34268W        W 7336   5.766  16.605  13.368
34269W        W 7337  32.942  34.937   1.740
34270W        W 7338   7.301  26.710   0.721
34271W        W 7339  43.528  38.106  11.277
34272W        W 7340  37.616  36.847  13.878
34273W        W 7341  30.615   6.733   2.175
34274W        W 7342  24.958  38.884   1.880
34275W        W 7343   0.028  22.907   4.130
34276W        W 7344   4.020  29.672   2.750
34277W        W 7345  16.920  13.826  14.331
34278W        W 7346   4.805  30.599   3.763
34279W        W 7347  40.280  36.478  13.400
34280W        W 7348  27.459  26.125   3.881
34281W        W 7349   8.912  37.638  14.233
34282W        W 7350  19.216  27.074   2.747
34283W        W 7351  23.752  28.479  14.420
34284W        W 7352  24.491  25.004   0.541
34285W        W 7353  23.603  10.174   1.014
34286W        W 7354  12.774  13.758  14.249
34287W        W 7355  16.613  41.028   4.174
34288W        W 7356  36.976  31.935  11.148
34289W        W 7357  23.054  42.780   0.399
34290W        W 7358   7.851   4.667  12.955
34291W        W 7359  33.902  38.310   1.398
34292W        W 7360  32.415  38.232  10.696
34293W        W 7361  44.267  42.027   0.739
34294W        W 7362  39.443   5.957   3.631
34295W        W 7363  40.303  35.851   1.880
34296W        W 7364  25.526  32.540   3.393
34297W        W 7365  30.974  42.442  13.740
34298W        W 7366   8.239  10.219   4.157
34299W        W 7367  20.163  22.514   2.335
34300W        W 7368  38.414   9.095  10.718
34301W        W 7369  37.659  23.790  10.017
34302W        W 7370   6.714  29.005   4.586
34303W        W 7371   2.740  25.542   2.820
34304W        W 7372   1.325  40.527   0.669
34305W        W 7373  23.637  36.846   4.088
34306W        W 7374  13.737  26.997   3.877
34307W        W 7375  22.658  40.029   3.741
34308W        W 7376   3.567   7.920   5.183
34309W        W 7377  12.376  18.111  11.020
34310W        W 7378  11.413   1.836  13.951
34311W        W 7379  40.381   6.635  10.621
34312W        W 7380   8.193  36.283   2.610
34313W        W 7381  44.738  11.207  12.524
34314W        W 7382  10.965   6.409   0.853
34315W        W 7383  13.635  16.783   4.466
34316W        W 7384   1.747   7.625  10.706
34317W        W 7385  37.496  44.241  11.612
34318W        W 7386  18.861  19.299   3.113
34319W        W 7387  24.489  28.127   0.329
34320W        W 7388  23.030  31.171   0.672
34321W        W 7389  12.996   8.190   3.703
34322W        W 7390   5.868  27.125  12.209
34323W        W 7391  25.231   7.763   4.592
34324W        W 7392  38.688  15.868   3.655
34325W        W 7393  40.393  16.571  11.975
34326W        W 7394  23.470  26.702  12.466
34327W        W 7395   7.130  21.043   2.804
34328W        W 7396   4.756  44.275  10.649
34329W        W 7397  39.563  21.532  14.730
34330W        W 7398  27.626  16.450   2.440
34331W        W 7399  27.202  34.072   0.380
34332W        W 7400  35.076  22.684   0.923
34333W        W 7401  13.196  24.621   4.649
34334W        W 7402  26.733  21.114   4.491
34335W        W 7403  19.532  19.803   4.611
34336W        W 7404  41.827  36.589   0.495
34337W        W 7405   9.718  23.101   3.442
34338W        W 7406  38.920  30.940  10.981
34339W        W 7407   9.718  22.130   4.956
34340W        W 7408  23.389  39.092   4.061
34341W        W 7409   9.912   9.909   1.913
34342W        W 7410  26.645   5.745   4.137
34343W        W 7411  13.183  16.563   5.748
34344W        W 7412   0.736  13.770  12.673
34345W        W 7413  31.206   8.843  11.858
34346W        W 7414  29.887  34.025  11.529
34347W        W 7415  18.698  39.522  11.348
34348W        W 7416   0.422  25.462  13.758
34349W        W 7417  33.127   4.393  11.963
34350W        W 7418  11.827  14.762   0.068
34351W        W 7419   9.188   4.869  14.931
34352W        W 7420  33.096  18.288   3.309
34353W        W 7421  14.215  29.473   3.293
34354W        W 7422  26.942  13.215   4.748
34355W        W 7423  20.671  39.970   0.865
34356W        W 7424   8.672   4.708   4.535
34357W        W 7425  43.372  43.348   1.847
34358W        W 7426   2.255  39.243   2.817
34359W        W 7427   3.233  33.053  14.024
34360W        W 7428  22.116   3.787  14.310
34361W        W 7429  25.933   0.883  13.591
34362W        W 7430  40.290  19.753  11.002
34363W        W 7431  36.900  19.535   1.537
34364W        W 7432  14.062  42.321   1.390
34365W        W 7433  30.136  20.273   2.478
34366W        W 7434  18.655  16.065   3.389
34367W        W 7435  29.557   5.913   3.821
34368W        W 7436  38.919  23.286   3.717
34369W        W 7437  21.626  29.902   1.405
34370W        W 7438  15.787  15.670   0.773
34371W        W 7439  38.995  14.814  14.834
34372W        W 7440  14.145  33.169   2.971
34373W        W 7441   3.668  19.730   2.223
34374W        W 7442  35.413  39.626  14.774
34375W        W 7443  35.679  31.465  13.028
34376W        W 7444   6.958  14.678   1.156
34377W        W 7445   9.382  42.753  12.476
34378W        W 7446  38.458  24.765   0.423
34379W        W 7447  16.286  21.755  13.997
34380W        W 7448   3.000  14.919  11.043
34381W        W 7449  44.244  28.175  13.461
34382W        W 7450   5.609  43.058  12.979
34383W        W 7451   8.900  20.776   2.867
34384W        W 7452  20.011  31.157   4.178
34385W        W 7453  11.096  42.334   4.533
34386W        W 7454  26.621  20.015  10.775
34387W        W 7455  29.917  39.064   0.931
34388W        W 7456  20.652  31.427  11.203
34389W        W 7457  25.409  12.116  12.146
34390W        W 7458  20.814   0.800  13.462
34391W        W 7459  11.827  20.205   0.483
34392W        W 7460  17.041  17.701  11.876
34393W        W 7461   6.886  15.174  14.954
34394W        W 7462  21.507  27.629  11.949
34395W        W 7463  14.728  44.050  14.677
34396W        W 7464   6.708  28.158   1.194
34397W        W 7465  33.788   4.939  11.709
34398W        W 7466  27.610  14.563   1.416
34399W        W 7467  32.078   2.489   0.910
34400W        W 7468  22.072  31.554  14.484
34401W        W 7469  19.565  13.752   3.627
34402W        W 7470  31.499   5.808  10.770
34403W        W 7471  23.556   7.687  10.978
34404W        W 7472   1.986  16.783  14.761
34405W        W 7473  40.483  13.830   2.372
34406W        W 7474  41.398  29.850   0.860
34407W        W 7475  26.178   1.902  10.466
34408W        W 7476  18.219   6.152   1.335
34409W        W 7477   9.683  13.611  13.404
34410W        W 7478  23.649  14.856   0.449
34411W        W 7479  23.721  12.667   0.931
34412W        W 7480   0.375  21.964   4.199
34413W        W 7481  32.435  34.121   4.147
34414W        W 7482  24.459  28.467   4.640
34415W        W 7483   4.768  26.539  14.865
34416W        W 7484  20.076  22.297  12.018
34417W        W 7485  40.059  20.120  13.470
34418W        W 7486  11.217   5.230  13.051
34419W        W 7487  22.866  20.512  14.360
34420W        W 7488   8.261  28.734   3.071
34421W        W 7489  36.664  25.381  13.032
34422W        W 7490  15.674  18.586  14.600
34423W        W 7491   5.159  26.728  10.621
34424W        W 7492  33.929  12.896   4.062
34425W        W 7493  23.293  11.852   1.668
34426W        W 7494  15.312  38.344  13.445
34427W        W 7495  29.096  19.530   3.910
34428W        W 7496  40.439   8.304  14.251
34429W        W 7497  19.096   4.345  14.054
34430W        W 7498  17.066   5.902  11.161
34431W        W 7499  33.881  25.046   4.116
34432W        W 7500  29.524  28.152   4.604
34433W        W 7501   2.658  16.342  11.240
34434W        W 7502  11.349  33.953  14.557
34435W        W 7503   3.917  31.009   3.982
34436W        W 7504  20.637  38.729  14.354
34437W        W 7505   7.909  14.769  14.249
34438W        W 7506   6.935   7.285   1.785
34439W        W 7507   8.372   7.734  10.838
34440W        W 7508  16.357   9.578  11.082
34441W        W 7509  37.578  38.778   0.863
34442W        W 7510  37.625  23.528   4.362
34443W        W 7511  28.711  27.140   3.673
34444W        W 7512  25.446  18.918   1.989
34445W        W 7513   7.218  28.753  14.959
34446W        W 7514  39.562  42.815  12.469
34447W        W 7515  21.069   5.984   1.185
34448W        W 7516  27.951   1.351   4.548
34449W        W 7517  26.722  16.563   0.772
34450W        W 7518  22.565   1.430   3.040
34451W        W 7519  38.075  30.948  11.256
34452W        W 7520  36.836   3.902   0.465
34453W        W 7521  25.281   4.881  14.934
34454W        W 7522  15.309  43.046  12.037
34455W        W 7523  36.307   5.697  12.617
34456W        W 7524  10.716  11.829  12.549
34457W        W 7525   4.165  37.816   0.468
34458W        W 7526  39.342  16.212   3.934
34459W        W 7527  35.007   2.258   3.744
34460W        W 7528  33.076  38.395   0.828
34461W        W 7529  12.765  44.260  13.976
34462W        W 7530   3.779   5.269   4.494
34463W        W 7531   2.477  39.937  10.410
34464W        W 7532  26.096  24.712  13.487
34465W        W 7533  12.393  43.527   1.223
34466W        W 7534  35.480   5.324  10.877
34467W        W 7535  20.224  29.729   1.169
34468W        W 7536  44.224   8.737   3.612
34469W        W 7537  24.496  12.793   2.808
34470W        W 7538   5.906  21.597   3.352
34471W        W 7539  15.548  21.732  12.311
34472W        W 7540  34.817  20.250   2.339
34473W        W 7541  18.187  24.273   3.560
34474W        W 7542   0.783   7.622   1.140
34475W        W 7543  34.896   8.423  13.569
34476W        W 7544   1.781  24.774   4.005
34477W        W 7545   1.826  13.384   4.572
34478W        W 7546  28.434   7.183   4.602
34479W        W 7547  38.569  38.802   1.768
34480W        W 7548  44.304  28.435  14.805
34481W        W 7549  10.920   8.847   0.408
34482W        W 7550   6.753  28.924  14.215
34483W        W 7551  24.361  30.538   4.163
34484W        W 7552  35.103  42.273  12.109
34485W        W 7553  19.629  42.686   1.351
34486W        W 7554  42.604  42.375   0.681
34487W        W 7555  25.919   4.937  10.202
34488W        W 7556   3.236  11.189  12.650
34489W        W 7557   9.578  34.004  13.091
34490W        W 7558  38.006  34.932  11.993
34491W        W 7559  14.759  25.441  14.841
34492W        W 7560  25.063  21.035  12.815
34493W        W 7561  13.466  40.938  13.491
34494W        W 7562  16.252   5.645   4.036
34495W        W 7563  29.666   0.921   0.036
34496W        W 7564   7.209  10.131  14.547
34497W        W 7565  41.036  27.869   4.729
34498W        W 7566  21.468   5.494   4.502
34499W        W 7567  29.725  17.221  14.722
34500W        W 7568   8.658  33.650  12.919
34501W        W 7569  18.036  22.654  12.830
34502W        W 7570  33.864  22.776   4.341
34503W        W 7571  25.440  41.193   5.426
34504W        W 7572  18.818   3.469   0.557
34505W        W 7573  37.525  31.122   0.364
34506W        W 7574  34.643  16.111  11.356
34507W        W 7575  37.889   8.902  12.003
34508W        W 7576  21.711   4.819  12.038
34509W        W 7577  13.630  31.038  12.044
34510W        W 7578  28.835   0.759   1.311
34511W        W 7579  11.866  24.085   0.383
34512W        W 7580  29.169  11.274   3.822
34513W        W 7581  30.400  19.200  12.619
34514W        W 7582   8.338  19.834  11.223
34515W        W 7583  21.050  12.629   0.823
34516W        W 7584   1.426  27.024   1.585
34517W        W 7585  26.661   9.131   3.662
34518W        W 7586  24.151  35.782  12.525
34519W        W 7587  15.704   8.706   2.893
34520W        W 7588   3.394  23.865   3.638
34521W        W 7589  28.069  15.272  13.003
34522W        W 7590  22.007   3.384  11.144
34523W        W 7591  28.878  43.462  10.982
34524W        W 7592  37.568  22.577   2.166
34525W        W 7593  19.197  14.753  14.032
34526W        W 7594  17.047  32.628  14.264
34527W        W 7595  24.744  39.377   1.870
34528W        W 7596  14.260  12.687   4.601
34529W        W 7597  40.297  11.380  11.395
34530W        W 7598  23.926  10.636  14.775
34531W        W 7599  10.839  33.095  14.157
34532W        W 7600  25.684   8.410  10.665
34533W        W 7601   8.373   3.899   3.810
34534W        W 7602  12.332  11.889   4.926
34535W        W 7603  39.838  20.199   1.757
34536W        W 7604  14.612   0.531   1.604
34537W        W 7605  17.788  43.371  12.088
34538W        W 7606  16.462   9.690   0.454
34539W        W 7607   8.624  17.861   2.474
34540W        W 7608   2.297   3.792   0.578
34541W        W 7609  31.000  34.134  10.834
34542W        W 7610  14.161  19.931  11.509
34543W        W 7611  38.375  26.554   0.305
34544W        W 7612  17.275  14.302  13.747
34545W        W 7613   3.710   3.165  11.516
34546W        W 7614  25.987   1.550  14.700
34547W        W 7615   4.466   3.965   2.798
34548W        W 7616  14.485  43.906  12.865
34549W        W 7617  12.758  16.514  14.820
34550W        W 7618  42.354  35.533   3.617
34551W        W 7619  11.689  35.139   3.029
34552W        W 7620  32.641  27.379   3.665
34553W        W 7621  17.971  39.393  13.371
34554W        W 7622  30.786  35.864  11.894
34555W        W 7623  41.381  19.204  12.385
34556W        W 7624  35.908  10.761   0.732
34557W        W 7625   9.315  38.431  10.624
34558W        W 7626  37.825   6.968  14.294
34559W        W 7627  13.619  33.496   0.548
34560W        W 7628  42.761   0.989  12.001
34561W        W 7629  13.233  22.140  12.993
34562W        W 7630  21.617  11.379  12.142
34563W        W 7631  11.621  11.799   2.389
34564W        W 7632   2.287  11.328   2.504
34565W        W 7633  36.430   8.284   4.113
34566W        W 7634  25.253   5.250  14.275
34567W        W 7635  10.702  14.825   1.755
34568W        W 7636   3.943  14.698  12.833
34569W        W 7637  11.955   5.234   0.899
34570W        W 7638  41.827  42.278   3.068
34571W        W 7639   8.339  30.924  11.513
34572W        W 7640   5.246  28.661   2.089
34573W        W 7641  24.616  28.213  14.792
34574W        W 7642  42.537  20.952   0.826
34575W        W 7643  36.007  32.977   4.592
34576W        W 7644  40.284  36.110   2.756
34577W        W 7645  29.565  27.644   4.544
34578W        W 7646  29.204  37.423   2.291
34579W        W 7647  29.201  37.329  14.262
34580W        W 7648  18.205  32.938  10.524
34581W        W 7649  34.423   6.729   4.847
34582W        W 7650  10.881  17.250  14.314
34583W        W 7651  21.993  15.613  12.525
34584W        W 7652  39.974  40.942  12.600
34585W        W 7653  21.152   8.653   1.711
34586W        W 7654   4.988  15.175   2.928
34587W        W 7655  26.258  30.410  12.992
34588W        W 7656  11.284  15.634   0.752
34589W        W 7657  22.145  32.522   1.675
34590W        W 7658  42.383  38.616   2.778
34591W        W 7659  41.807  15.351  11.137
34592W        W 7660  31.044  21.946  10.990
34593W        W 7661  32.150   8.791   0.396
34594W        W 7662  33.548  11.179   2.571
34595W        W 7663   4.194  22.900   1.418
34596W        W 7664  27.959  20.404   2.720
34597W        W 7665  29.476  15.632   1.705
34598W        W 7666   1.372  37.391  13.745
34599W        W 7667   9.191  41.445  10.893
34600W        W 7668  11.560  35.949  14.997
34601W        W 7669  12.632  29.018   0.005
34602W        W 7670   8.957   4.396   2.154
34603W        W 7671  40.027  34.450  12.722
34604W        W 7672   0.374  33.374   2.752
34605W        W 7673  12.191  37.558   4.186
34606W        W 7674  14.595  39.819  13.736
34607W        W 7675  10.784   2.150  12.992
34608W        W 7676  16.216  33.828  14.928
34609W        W 7677  32.621   7.250  13.472
34610W        W 7678  23.502  22.782   1.262
34611W        W 7679  42.038  13.627   1.001
34612W        W 7680   6.285  25.869   4.550
34613W        W 7681  39.529  27.798   0.606
34614W        W 7682  27.621   0.246  13.806
34615W        W 7683  27.934   2.712   2.511
34616W        W 7684  39.962  22.805  13.087
34617W        W 7685  39.356  19.257  14.706
34618W        W 7686  12.173  33.852  11.333
34619W        W 7687  23.266   9.991  12.407
34620W        W 7688  26.143  18.004  10.728
34621W        W 7689  19.751  26.522   4.605
34622W        W 7690  10.185  26.464   1.094
34623W        W 7691  41.435  39.515   2.430
34624W        W 7692  42.568  33.558   0.230
34625W        W 7693  40.735  16.561   4.841
34626W        W 7694  40.964   4.306   4.071
34627W        W 7695  24.685  14.638  10.682
34628W        W 7696  35.836  37.843  12.983
34629W        W 7697  39.304   1.991   4.502
34630W        W 7698   4.309   7.935  10.716
34631W        W 7699  37.300  17.993   2.880
34632W        W 7700  27.933  14.335   2.833
34633W        W 7701  16.857  25.083  12.863
34634W        W 7702  21.647  42.600   0.850
34635W        W 7703  15.264   1.664   1.934
34636W        W 7704   4.751   4.779  11.947
34637W        W 7705  17.312  25.989   0.911
34638W        W 7706   9.358  15.591  10.626
34639W        W 7707  26.793  39.949   2.289
34640W        W 7708   1.395  10.497   3.230
34641W        W 7709  30.224   6.156  14.851
34642W        W 7710  12.832  32.650   4.158
34643W        W 7711   5.098  43.040  14.674
34644W        W 7712  33.511  35.597  12.152
34645W        W 7713  42.841  26.410  11.771
34646W        W 7714  32.430   5.330   0.829
34647W        W 7715  15.038  21.022   0.291
34648W        W 7716  39.804   0.754  12.413
34649W        W 7717  10.862  25.561   1.414
34650W        W 7718  40.587  30.677   2.676
34651W        W 7719  44.422  41.398  14.146
34652W        W 7720  42.033  35.056  13.463
34653W        W 7721   2.022  21.591  14.256
34654W        W 7722  31.205  34.395   1.937
34655W        W 7723  33.660  22.504   0.837
34656W        W 7724  30.165  19.956   4.670
34657W        W 7725   2.468  28.423   4.027
34658W        W 7726   4.753  30.803  11.101
34659W        W 7727  31.134  18.094  14.522
34660W        W 7728   2.799  12.816  14.984
34661W        W 7729  24.080  25.139   2.927
34662W        W 7730  33.943   5.235   2.837
34663W        W 7731  36.757  38.387  14.779
34664W        W 7732   5.481  27.414  13.044
34665W        W 7733  33.185  24.555   0.669
34666W        W 7734  40.099  19.706  14.765
34667W        W 7735  18.632  28.711  12.151
34668W        W 7736  39.009  11.612   1.289
34669W        W 7737  29.184  39.102  13.001
34670W        W 7738   5.853   9.401   1.362
34671W        W 7739  18.790  19.204  12.616
34672W        W 7740  16.109  35.014  11.805
34673W        W 7741   4.922  32.975  12.862
34674W        W 7742   1.884   1.715   1.299
34675W        W 7743   8.612  26.546  10.712
34676W        W 7744  35.598  39.405   0.839
34677W        W 7745   0.551  35.514  11.623
34678W        W 7746  11.779  39.578   0.309
34679W        W 7747   6.656  43.410  12.837
34680W        W 7748  24.702  11.181  11.509
34681W        W 7749  12.888   8.806   0.300
34682W        W 7750  24.441   0.909   0.500
34683W        W 7751  10.951  15.811   3.081
34684W        W 7752  28.407  28.474   1.307
34685W        W 7753  18.239  36.032   0.402
34686W        W 7754   5.827   6.354   2.445
34687W        W 7755   6.584  30.881   1.349
34688W        W 7756   8.895  25.669  14.445
34689W        W 7757  32.507  26.150  12.581
34690W        W 7758  26.000  27.522   1.447
34691W        W 7759   6.157  21.122  14.337
34692W        W 7760   8.658  39.584  13.441
34693W        W 7761  43.301  24.413   2.708
34694W        W 7762  38.168  39.343  12.046
34695W        W 7763  22.123  16.498  11.047
34696W        W 7764  33.660  11.633   2.882
34697W        W 7765  12.835  23.053   4.616
34698W        W 7766  15.116  37.046   1.933
34699W        W 7767  28.580  35.687  11.648
34700W        W 7768   3.713  19.503   4.569
34701W        W 7769  13.409  19.600  13.519
34702W        W 7770  19.294   8.252  11.516
34703W        W 7771   5.963  25.240  14.011
34704W        W 7772   7.425   8.435   0.439
34705W        W 7773  35.650  39.476  11.491
34706W        W 7774  17.238  25.152   5.100
34707W        W 7775  36.966  31.888  10.193
34708W        W 7776  33.756  17.869  10.089
34709W        W 7777  27.033   0.561   2.826
34710W        W 7778  43.829   5.960  13.922
34711W        W 7779  33.973  43.793  12.492
34712W        W 7780  15.861  41.773   1.470
34713W        W 7781  39.079   5.653  11.095
34714W        W 7782   6.799  20.890  13.393
34715W        W 7783  17.600  28.493  13.669
34716W        W 7784  16.702  21.321   0.763
34717W        W 7785  10.095  31.878   4.121
34718W        W 7786  22.539  36.921   1.425
34719W        W 7787   1.318  20.488   2.048
34720W        W 7788  44.036  38.182  11.116
34721W        W 7789  13.187   1.590   0.189
34722W        W 7790  23.181  19.748   0.963
34723W        W 7791  41.942  18.316  11.094
34724W        W 7792  16.885  22.697   3.671
34725W        W 7793  26.427  23.435   4.281
34726W        W 7794  33.720  25.376   3.433
34727W        W 7795  41.923  18.239  14.889
34728W        W 7796  40.637  37.279   0.461
34729W        W 7797  37.926   1.065   1.985
34730W        W 7798  23.038  14.646  10.759
34731W        W 7799  16.042   5.281   4.316
34732W        W 7800  29.417  19.816   1.115
34733W        W 7801  35.441  15.989  12.475
34734W        W 7802   5.722   1.893  13.456
34735W        W 7803   6.214  40.835  14.396
34736W        W 7804  12.425  44.363   1.297
34737W        W 7805   5.792  34.644  13.936
34738W        W 7806  18.266  12.687   0.740
34739W        W 7807  38.011  26.495  11.745
34740W        W 7808   3.720  40.764   1.391
34741W        W 7809  32.150   6.392   1.785
34742W        W 7810  20.729  41.803  12.970
34743W        W 7811  30.376  13.476   2.311
34744W        W 7812  17.649   9.399   4.009
34745W        W 7813  31.385   2.198   3.809
34746W        W 7814   2.480   9.820  13.031
34747W        W 7815   0.373  24.646   1.256
34748W        W 7816   6.968  24.131  14.928
34749W        W 7817  20.783  30.439  12.170
34750W        W 7818  20.723   2.365  14.801
34751W        W 7819   2.689  33.056   4.915
34752W        W 7820  10.844   8.149   0.156
34753W        W 7821  43.281  39.423   3.570
34754W        W 7822  44.756  20.648  13.398
34755W        W 7823  23.729  15.091  10.957
34756W        W 7824   3.341  25.534   1.933
34757W        W 7825  10.127   3.300  11.001
34758W        W 7826  26.658  12.660  11.386
34759W        W 7827  32.570  33.826   3.730
34760W        W 7828  38.365  15.334   4.112
34761W        W 7829   5.132  31.231   1.729
34762W        W 7830  31.949   2.989   0.989
34763W        W 7831  24.564  26.063  11.530
34764W        W 7832  29.893   2.740  11.052
34765W        W 7833  36.376  14.171  14.062
34766W        W 7834  24.459  13.770  12.537
34767W        W 7835   2.866   2.313  12.911
34768W        W 7836  36.336  32.020   3.349
34769W        W 7837  27.978  12.446   4.559
34770W        W 7838  24.667  16.183  11.494
34771W        W 7839   7.998  24.019  14.936
34772W        W 7840  42.816  40.836  13.410
34773W        W 7841  37.226  14.682  10.765
34774W        W 7842  19.126  31.969   4.866
34775W        W 7843  20.534  16.191   1.648
34776W        W 7844  38.857  23.639   0.509
34777W        W 7845  11.489  22.268   0.754
34778W        W 7846  23.953  18.217   0.009
34779W        W 7847   4.172   9.462  13.912
34780W        W 7848  13.790  43.959   1.665
34781W        W 7849  27.521  19.766  12.600
34782W        W 7850  28.566  35.289   0.987
34783W        W 7851  33.295  36.158   9.991
34784W        W 7852  31.682   5.369   0.270
34785W        W 7853  17.794   8.633   3.143
34786W        W 7854   2.459  16.196  13.298
34787W        W 7855  42.034  22.518  11.615
34788W        W 7856   1.532  25.024  14.471
34789W        W 7857  13.227  39.196   4.030
34790W        W 7858  42.499  10.516   3.704
34791W        W 7859   4.960  32.100   1.973
34792W        W 7860  21.916   2.505   3.296
34793W        W 7861  21.243  40.115   2.108
34794W        W 7862  10.428  37.041  14.458
34795W        W 7863  22.107  10.218   1.874
34796W        W 7864  18.147  39.799   4.989
34797W        W 7865   1.713  23.295  12.554
34798W        W 7866   9.406  43.257  12.623
34799W        W 7867   0.925  35.902   3.285
34800W        W 7868   4.649  38.470   3.093
34801W        W 7869  44.380  35.600   0.619
34802W        W 7870  30.561   1.995   3.716
34803W        W 7871  11.812  16.626   3.753
34804W        W 7872  15.190  37.305   2.910
34805W        W 7873  28.770  30.884   0.791
34806W        W 7874  26.140   9.315  10.494
34807W        W 7875  40.838  42.849  14.196
34808W        W 7876  41.543  23.039   1.597
34809W        W 7877  20.326  15.609   0.722
34810W        W 7878  22.521  20.488   3.207
34811W        W 7879   7.218   7.948   4.110
34812W        W 7880  15.585  13.873   3.308
34813W        W 7881  37.446   6.523  13.427
34814W        W 7882   6.859  38.542  14.996
34815W        W 7883  35.320  23.657   2.331
34816W        W 7884  29.399   9.370  14.986
34817W        W 7885  42.035  13.035  11.658
34818W        W 7886  31.953  14.577  10.785
34819W        W 7887  13.644  11.590   0.333
34820W        W 7888  32.763  19.237   3.210
34821W        W 7889  44.019   9.540   0.671
34822W        W 7890  33.969  38.555   4.178
34823W        W 7891  14.509  35.384   0.129
34824W        W 7892  22.980   2.967   4.150
34825W        W 7893  40.517  19.793   2.891
34826W        W 7894  12.021  27.970  12.472
34827W        W 7895  38.396  44.042  12.713
34828W        W 7896  44.461  21.343   1.806
34829W        W 7897   9.383  25.496  14.470
34830W        W 7898  26.152  36.121  14.442
34831W        W 7899  21.038   1.312   0.477
34832W        W 7900   8.271  41.903   3.247
34833W        W 7901  30.439   0.423   2.325
34834W        W 7902  25.998   1.898  10.963
34835W        W 7903  43.533   4.297   4.382
34836W        W 7904  35.582  25.074   0.286
34837W        W 7905   4.435   6.549  11.398
34838W        W 7906  15.358  19.162  12.849
34839W        W 7907  16.269  11.611  10.193
34840W        W 7908   2.698   7.531   2.891
34841W        W 7909  23.499   0.712   4.770
34842W        W 7910  19.150  39.522   4.109
34843W        W 7911  35.760  11.038  11.017
34844W        W 7912  34.784  43.389   0.709
34845W        W 7913  44.471  42.386  12.570
34846W        W 7914  17.711  11.901  11.076
34847W        W 7915  21.259  13.328  10.765
34848W        W 7916  28.657   5.254   1.439
34849W        W 7917  12.747  20.565  14.969
34850W        W 7918  31.158  32.586  13.452
34851W        W 7919   3.936  37.068  13.729
34852W        W 7920  10.716  18.682  14.427
34853W        W 7921  20.636   9.402   2.757
34854W        W 7922  22.853  44.006   0.268
34855W        W 7923  29.642  21.104   2.112
34856W        W 7924  27.251  20.703  10.421
34857W        W 7925  16.725   3.344  10.242
34858W        W 7926   1.303   5.854   4.211
34859W        W 7927  13.563  36.100  13.817
34860W        W 7928  25.453  20.487   1.821
34861W        W 7929  27.823  11.156  10.766
34862W        W 7930  44.176  38.959   2.769
34863W        W 7931   7.143  23.605  14.240
34864W        W 7932  19.735  33.369   1.122
34865W        W 7933  42.864  26.199  12.950
34866W        W 7934  25.680  38.110  12.559
34867W        W 7935  28.276  27.185   0.800
34868W        W 7936   1.465  25.187   0.322
34869W        W 7937   3.289  25.779   2.397
34870W        W 7938  10.498   6.184   0.778
34871W        W 7939  18.069   4.218  14.955
34872W        W 7940   6.216   9.276   4.684
34873W        W 7941  29.031  24.450  11.047
34874W        W 7942  42.362  18.300   2.816
34875W        W 7943  29.168  28.437  14.579
34876W        W 7944  22.566  31.163   1.916
34877W        W 7945  18.759  42.697  12.004
34878W        W 7946  34.785  36.116   5.088
34879W        W 7947   5.965  18.658  11.648
34880W        W 7948   4.002  32.117   2.754
34881W        W 7949   3.959  43.782   0.783
34882W        W 7950  28.782  38.421  12.346
34883W        W 7951   1.714  44.413  11.526
34884W        W 7952   1.325  38.319  13.561
34885W        W 7953   7.951   9.503   3.473
34886W        W 7954  27.043  38.041   3.295
34887W        W 7955   7.832  23.499   0.247
34888W        W 7956  13.526  18.453  10.599
34889W        W 7957   8.834  37.372   1.388
34890W        W 7958  42.947  38.967  11.612
34891W        W 7959   0.987   4.803  11.526
34892W        W 7960   0.172  33.392  12.951
34893W        W 7961  44.756  38.975  14.889
34894W        W 7962   2.466  43.008  11.071
34895W        W 7963  22.667  10.683   3.419
34896W        W 7964  27.547  21.028   3.247
34897W        W 7965  15.822   0.710  12.015
34898W        W 7966  13.253   1.798   3.866
34899W        W 7967  25.273   8.343   1.834
34900W        W 7968  29.612  26.949   3.355
34901W        W 7969  33.856   7.199   0.737
34902W        W 7970  23.975   9.327  12.442
34903W        W 7971  30.144  17.080   2.790
34904W        W 7972  15.303  11.452  11.703
34905W        W 7973   9.563  22.513  13.569
34906W        W 7974  26.683  21.168   3.712
34907W        W 7975   6.036   5.805   3.223
34908W        W 7976   6.371  16.679  11.567
34909W        W 7977   2.771  19.087   1.211
34910W        W 7978   5.299  34.503  10.697
34911W        W 7979  42.288  39.317  13.389
34912W        W 7980  17.869  41.688  14.879
34913W        W 7981  32.494   4.211   3.725
34914W        W 7982   2.249  20.637  12.225
34915W        W 7983  17.057  20.079   1.878
34916W        W 7984  20.676  23.973   2.925
34917W        W 7985  40.672   4.897   3.284
34918W        W 7986   2.488   6.211  11.700
34919W        W 7987  21.055   0.422   0.070
34920W        W 7988  27.730  27.246  13.068
34921W        W 7989   3.580  28.485   0.763
34922W        W 7990  21.263   9.922   2.332
34923W        W 7991  33.582   4.980   3.144
34924W        W 7992  34.446   4.663   0.783
34925W        W 7993  38.983  12.913   4.865
34926W        W 7994   8.044  40.404   0.248
34927W        W 7995  13.300  16.976   4.089
34928W        W 7996  20.728  31.002  13.956
34929W        W 7997   2.723   2.720  14.696
34930W        W 7998  29.981   1.492  10.607
34931W        W 7999   1.539  32.616  10.716
34932W        W 8000  33.022  41.359  12.351
34933W        W 8001  10.958  15.025  12.478
34934W        W 8002  18.666   5.114   4.069
34935W        W 8003  17.241  22.976   2.334
34936W        W 8004   7.262  20.984   3.289
34937W        W 8005  17.715  15.189  11.510
34938W        W 8006  10.331  35.898   2.471
34939W        W 8007  34.522  17.742   0.188
34940W        W 8008  13.738  13.314   2.351
34941W        W 8009   3.350   1.395   1.872
34942W        W 8010  32.380  40.298  13.348
34943W        W 8011  13.050  14.670  13.774
34944W        W 8012  24.529  24.729  12.652
34945W        W 8013  13.237  19.274  11.538
34946W        W 8014   9.261  29.485  13.017
34947W        W 8015  32.384  22.717   3.243
34948W        W 8016  17.258  34.777  14.074
34949W        W 8017   7.908  12.378   1.905
34950W        W 8018  28.143  11.733   0.422
34951W        W 8019  31.366  34.341  12.502
34952W        W 8020  40.799  10.018  13.783
34953W        W 8021   5.635  35.799  11.003
34954W        W 8022   4.370   6.077  12.295
34955W        W 8023  31.105   5.475  10.619
34956W        W 8024  20.280  37.809  10.737
34957W        W 8025  44.767  43.831  12.873
34958W        W 8026   3.875  32.070   4.124
34959W        W 8027  31.955  10.924  14.867
34960W        W 8028  12.926  21.664   0.280
34961W        W 8029  28.471  27.595  10.539
34962W        W 8030   1.989  30.608   1.795
34963W        W 8031  15.674  31.410   1.850
34964W        W 8032  33.079  10.637   4.265
34965W        W 8033   8.722  17.535  13.818
34966W        W 8034  22.077  38.114  11.612
34967W        W 8035  30.949  29.491  12.384
34968W        W 8036  35.859   9.207  12.967
34969W        W 8037  26.909  10.836   4.577
34970W        W 8038  13.049  14.558   2.195
34971W        W 8039  27.122  12.620   4.307
34972W        W 8040  31.012  42.987   4.610
34973W        W 8041   6.413  34.773   4.253
34974W        W 8042  10.585  33.022   1.471
34975W        W 8043  42.971  31.697   4.156
34976W        W 8044  40.281  11.264  11.894
34977W        W 8045  20.447  35.896  14.993
34978W        W 8046  41.316  15.887   4.800
34979W        W 8047  20.041  38.096   1.973
34980W        W 8048   7.233  13.654  13.779
34981W        W 8049  28.243  29.872  14.386
34982W        W 8050  23.227  23.631   2.217
34983W        W 8051  31.618  44.280   0.419
34984W        W 8052   2.784  38.805  10.931
34985W        W 8053  40.479  41.565  14.472
34986W        W 8054  28.633  32.054  14.916
34987W        W 8055  22.023   6.158   0.459
34988W        W 8056   5.997   2.568  11.919
34989W        W 8057  24.293  25.954  13.992
34990W        W 8058  26.137   2.631   3.633
34991W        W 8059  27.871  42.315   4.181
34992W        W 8060  30.932  13.171   0.399
34993W        W 8061   9.853  36.295  11.435
34994W        W 8062  44.171   4.266  14.772
34995W        W 8063  35.772   8.100  13.903
34996W        W 8064  39.960  14.144   4.092
34997W        W 8065  16.309  24.579   2.669
34998W        W 8066   6.345   8.152   0.881
34999W        W 8067  24.438  20.744  12.410
35000W        W 8068  20.798   1.330  13.465
35001W        W 8069  11.955  24.636   1.577
35002W        W 8070   6.557   5.775   3.312
35003W        W 8071  35.575  29.752   2.132
35004W        W 8072  43.465  40.269  11.603
35005W        W 8073  20.966  32.078  12.093
35006W        W 8074   7.340   4.104   2.811
35007W        W 8075  20.403   9.231  12.338
35008W        W 8076  23.456  12.076   0.034
35009W        W 8077  31.005  29.993   3.411
35010W        W 8078  20.587  34.571  11.482
35011W        W 8079   6.629   5.859   0.011
35012W        W 8080  40.349  37.941   2.675
35013W        W 8081   7.275  20.218  13.596
35014W        W 8082  17.167  12.779  12.990
35015W        W 8083  21.533  39.223   3.548
35016W        W 8084  37.643  25.067  13.333
35017W        W 8085  40.004  27.431  13.140
35018W        W 8086  40.758  42.493   0.327
35019W        W 8087   9.617  30.159  10.566
35020W        W 8088  18.178   8.173   4.282
35021W        W 8089   3.389  24.716   3.205
35022W        W 8090  17.542  42.979   3.679
35023W        W 8091  42.075  19.732  10.656
35024W        W 8092  40.367  28.686  14.849
35025W        W 8093  20.502   8.691  12.175
35026W        W 8094  43.273  27.307  13.557
35027W        W 8095   1.711  30.368  11.681
35028W        W 8096   3.368  24.557  13.350
35029W        W 8097  42.581  35.565  12.428
35030W        W 8098  11.899   9.102  13.368
35031W        W 8099   9.633  34.429  13.375
35032W        W 8100  19.233  42.830   0.568
35033W        W 8101  12.846   3.170  13.843
35034W        W 8102  18.994  34.935  11.537
35035W        W 8103  35.300  38.420  12.132
35036W        W 8104  17.809  14.734   2.019
35037W        W 8105  42.009  11.894  13.859
35038W        W 8106  35.654   4.308  13.906
35039W        W 8107  35.847  44.467   2.034
35040W        W 8108  10.100  26.569   4.650
35041W        W 8109  29.256  33.467  10.484
35042W        W 8110  44.030   7.760  11.596
35043W        W 8111  25.028  28.933   3.188
35044W        W 8112  26.158  29.075  14.322
35045W        W 8113   9.363  19.257  14.753
35046W        W 8114  39.819  44.775  11.598
35047W        W 8115  34.713  16.805   4.499
35048W        W 8116   1.672  28.715  13.783
35049W        W 8117  17.284  35.933   4.666
35050W        W 8118  32.373   2.987   2.729
35051W        W 8119  22.480  32.854  14.432
35052W        W 8120  36.300  11.333  13.646
35053W        W 8121  39.906  20.188  10.932
35054W        W 8122   3.301   0.413   1.689
35055W        W 8123   4.209   2.854   3.806
35056W        W 8124  19.095  15.278  10.764
35057W        W 8125  29.967  26.568   2.341
35058W        W 8126  28.039   3.752  10.792
35059W        W 8127  12.780  34.469  14.391
35060W        W 8128   5.177  21.957   0.759
35061W        W 8129  32.475  14.145   2.192
35062W        W 8130  24.070  26.943  14.260
35063W        W 8131  25.736  34.634  10.487
35064W        W 8132  29.468  28.041  10.766
35065W        W 8133  36.034  39.185   1.297
35066W        W 8134  35.780  26.081   4.140
35067W        W 8135   2.159  12.141  11.604
35068W        W 8136  27.139  16.483  13.943
35069W        W 8137   9.579  32.628  13.938
35070W        W 8138  18.970  11.899  11.657
35071W        W 8139  42.450  32.081   0.467
35072W        W 8140   4.892  13.536  13.389
35073W        W 8141  15.299  43.558  11.893
35074W        W 8142  39.333  11.497   2.810
35075W        W 8143  13.542  37.633   1.712
35076W        W 8144  21.719  42.536   2.867
35077W        W 8145  23.034  39.848   0.326
35078W        W 8146   5.724  25.170   1.224
35079W        W 8147  16.744  36.109   3.610
35080W        W 8148  37.542  37.507   3.162
35081W        W 8149   3.357   1.967  13.524
35082W        W 8150  42.881   3.508   0.674
35083W        W 8151  16.254  10.360  10.664
35084W        W 8152   1.220   5.267   0.930
35085W        W 8153  30.096  34.908  11.681
35086W        W 8154  15.144   0.728  10.917
35087W        W 8155  31.683   5.342  10.620
35088W        W 8156  21.547  31.147   1.653
35089W        W 8157  35.063  22.597   4.525
35090W        W 8158  23.009  35.429  10.581
35091W        W 8159  41.317   3.355   2.738
35092W        W 8160   9.789  42.021  10.638
35093W        W 8161  44.499  11.660  13.846
35094W        W 8162  26.659  19.192  14.916
35095W        W 8163  36.301  10.234  14.864
35096W        W 8164  21.492  42.839  12.796
35097W        W 8165   7.149  17.208   1.911
35098W        W 8166   6.928   3.944   4.924
35099W        W 8167  20.564  12.381   1.937
35100W        W 8168  12.249  28.685   1.658
35101W        W 8169  33.350  20.098   2.027
35102W        W 8170  23.362   7.789   1.800
35103W        W 8171  27.530  36.241  12.027
35104W        W 8172  18.705   4.234  12.302
35105W        W 8173  22.059  40.154  13.944
35106W        W 8174  32.148  14.130  14.788
35107W        W 8175  18.220  19.834  12.011
35108W        W 8176  33.232  20.754  11.497
35109W        W 8177  42.021  31.374  12.048
35110W        W 8178  44.900  36.928  12.610
35111W        W 8179  44.115   5.558   3.720
35112W        W 8180  31.364  13.189   1.883
35113W        W 8181  41.871  21.782  14.367
35114W        W 8182   4.238   7.860  12.481
35115W        W 8183   8.309   8.811  10.679
35116W        W 8184  19.303  21.175  11.947
35117W        W 8185  32.026  43.464  12.634
35118W        W 8186  38.559  25.910  14.707
35119W        W 8187  36.133  43.386  14.374
35120W        W 8188  29.131  22.276  12.377
35121W        W 8189  38.156  42.542   0.469
35122W        W 8190  39.004  33.025  14.742
35123W        W 8191  26.043  16.611  11.206
35124W        W 8192  15.235   8.342  10.571
35125W        W 8193  19.783   6.823   0.400
35126W        W 8194   7.148  27.365   1.289
35127W        W 8195  22.581  36.579   2.323
35128W        W 8196  34.524  43.255  14.405
35129W        W 8197  37.766   2.489   3.329
35130W        W 8198  34.836  31.592   0.751
35131W        W 8199   5.454  15.225   0.536
35132W        W 8200  44.989   5.450   0.395
35133W        W 8201  19.423  36.033   1.794
35134W        W 8202  26.519  20.488   0.965
35135W        W 8203   2.864  17.760  10.965
35136W        W 8204  37.494  22.193   4.094
35137W        W 8205   4.239  29.737   3.995
35138W        W 8206  44.920  17.908  12.115
35139W        W 8207  16.132   6.732  14.550
35140W        W 8208  17.818   7.760  10.724
35141W        W 8209  27.630  28.797   2.631
35142W        W 8210  33.495  18.555   2.185
35143W        W 8211  35.429  23.502   1.359
35144W        W 8212  27.015  19.061   0.454
35145W        W 8213   2.762  44.999   0.845
35146W        W 8214  12.625  19.716   5.065
35147W        W 8215  23.617  20.663  13.531
35148W        W 8216  17.511  44.279   0.717
35149W        W 8217  17.611  11.560  12.434
35150W        W 8218  29.516  19.699  11.276
35151W        W 8219  22.640   7.420  12.065
35152W        W 8220   4.924  11.866   4.689
35153W        W 8221  27.666   9.113   4.670
35154W        W 8222  10.973  20.735   1.956
35155W        W 8223  21.028  43.509   3.325
35156W        W 8224  18.458  31.861  11.640
35157W        W 8225  18.369  37.503   1.738
35158W        W 8226  16.787  21.570   2.054
35159W        W 8227  22.594  34.533   1.211
35160W        W 8228  21.017  29.442   0.334
35161W        W 8229   1.750  21.015  12.895
35162W        W 8230  25.680  42.959   2.412
35163W        W 8231  30.396  16.538  14.932
35164W        W 8232   9.303  29.580  11.655
35165W        W 8233  32.169  24.667   4.628
35166W        W 8234  39.054  33.112   1.221
35167W        W 8235  29.113   0.868   4.108
35168W        W 8236  11.645   4.721  10.610
35169W        W 8237  32.125  43.001  13.027
35170W        W 8238   9.350  33.954  12.007
35171W        W 8239  33.938  23.429  14.810
35172W        W 8240   9.316   1.462   0.429
35173W        W 8241  31.189   7.140   1.398
35174W        W 8242  32.379   4.746   4.619
35175W        W 8243  37.827  18.998  13.934
35176W        W 8244   8.156  31.681  13.851
35177W        W 8245  15.694   9.229   3.660
35178W        W 8246   3.518   5.541  12.113
35179W        W 8247   1.642  10.396  12.634
35180W        W 8248  42.462  20.078   2.284
35181W        W 8249  36.640  14.359  11.482
35182W        W 8250  41.228   9.151  10.696
35183W        W 8251  39.762  21.124   4.151
35184W        W 8252   4.246   8.140   2.607
35185W        W 8253  20.802  15.286   2.782
35186W        W 8254  26.463  21.804   1.305
35187W        W 8255  35.219  30.017  10.523
35188W        W 8256  20.277   3.727  13.580
35189W        W 8257   4.539  14.668  13.498
35190W        W 8258  34.059  17.528   0.818
35191W        W 8259   1.811  26.021   0.524
35192W        W 8260  15.880  13.100  13.058
35193W        W 8261  28.694  33.479  12.345
35194W        W 8262  44.908   4.018  11.298
35195W        W 8263  23.127  25.946  11.643
35196W        W 8264   5.180  29.124  11.625
35197W        W 8265  18.260  33.823   0.435
35198W        W 8266   6.272   7.791  12.145
35199W        W 8267  26.644  40.936   2.218
35200W        W 8268   9.783  34.992  12.595
35201W        W 8269  11.785   2.735   0.496
35202W        W 8270  22.751  11.656   2.282
35203W        W 8271   5.891  39.552   1.376
35204W        W 8272   0.006  29.177   3.893
35205W        W 8273  28.253  24.417  12.954
35206W        W 8274   8.612  28.613  10.735
35207W        W 8275   1.942  30.926   2.227
35208W        W 8276  23.686   7.175   3.735
35209W        W 8277  34.585  24.318   4.230
35210W        W 8278   9.572  27.366  13.410
35211W        W 8279  35.616  17.177   1.024
35212W        W 8280  33.629  26.539   4.619
35213W        W 8281  28.675  28.712   0.911
35214W        W 8282  32.380  27.964  13.977
35215W        W 8283  29.973  11.193  12.140
35216W        W 8284  35.611  14.126   4.633
35217W        W 8285  23.181   7.692  14.575
35218W        W 8286  29.648  37.466   0.829
35219W        W 8287  33.084  30.302   1.427
35220W        W 8288   7.852   3.580  10.632
35221W        W 8289  41.841  32.583  11.518
35222W        W 8290  32.646   2.052  12.374
35223W        W 8291  11.744  12.707  10.663
35224W        W 8292  35.829  30.945   1.386
35225W        W 8293   3.888   9.714   4.628
35226W        W 8294  38.913  34.036  11.537
35227W        W 8295  21.207  43.363  10.035
35228W        W 8296  37.924  12.671   0.977
35229W        W 8297   0.431  11.507  13.914
35230W        W 8298  38.274  16.093  12.411
35231W        W 8299  40.408  27.432  11.861
35232W        W 8300  18.324  33.539   0.008
35233W        W 8301  29.839  39.721   0.054
35234W        W 8302  13.842  43.045   2.639
35235W        W 8303   8.792  26.635  13.363
35236W        W 8304   7.724  39.730  13.452
35237W        W 8305  35.944  35.511  14.785
35238W        W 8306  11.355  31.917   0.287
35239W        W 8307   9.674  18.672   0.385
35240W        W 8308   2.389  37.936   2.655
35241W        W 8309  15.849  19.135  14.754
35242W        W 8310   5.904   1.615  13.867
35243W        W 8311  18.342  15.659   2.738
35244W        W 8312  37.989  43.273  11.908
35245W        W 8313  32.913  14.253  11.535
35246W        W 8314  29.934  21.428   4.637
35247W        W 8315  19.124  12.287  11.369
35248W        W 8316  42.776  17.292  13.846
35249W        W 8317  20.770   3.474  12.073
35250W        W 8318  38.303  37.941   4.101
35251W        W 8319  38.817   6.224  12.284
35252W        W 8320   0.434  17.033   3.189
35253W        W 8321  26.395  38.817  10.760
35254W        W 8322  24.262  37.643   2.005
35255W        W 8323  26.978  14.619  13.940
35256W        W 8324  15.739   4.302  12.536
35257W        W 8325   5.430   9.793   4.486
35258W        W 8326  14.420  40.218   0.455
35259W        W 8327  43.741  21.566  13.325
35260W        W 8328  27.591  44.204   2.708
35261W        W 8329   2.605  38.062  13.558
35262W        W 8330  25.508  31.120  10.746
35263W        W 8331  40.506  36.648  11.635
35264W        W 8332  11.635   0.806   2.843
35265W        W 8333  22.417   2.407   3.243
35266W        W 8334  20.838   8.361  13.541
35267W        W 8335  17.882  17.783  11.495
35268W        W 8336  10.156  29.932  11.893
35269W        W 8337  13.924  20.672   2.009
35270W        W 8338  39.830   1.299   9.813
35271W        W 8339  19.672   0.916  14.439
35272W        W 8340  38.800  19.613   4.234
35273W        W 8341   5.488  26.506   1.865
35274W        W 8342   7.328  29.173  10.684
35275W        W 8343  25.531  29.498  12.693
35276W        W 8344  15.927  22.036  10.337
35277W        W 8345  33.568  27.580  11.863
35278W        W 8346  15.630  40.601  14.803
35279W        W 8347  34.058  11.497   3.235
35280W        W 8348  40.799  31.483   1.713
35281W        W 8349  16.611  27.432   3.356
35282W        W 8350  40.010  42.545   4.697
35283W        W 8351  21.250  14.878   0.122
35284W        W 8352   1.206  29.010   0.741
35285W        W 8353  23.536  33.346  12.396
35286W        W 8354  19.544  14.169  11.912
35287W        W 8355   1.914  23.013   4.649
35288W        W 8356   2.770  43.934  11.421
35289W        W 8357   8.400   3.283   1.267
35290W        W 8358   6.055  16.261  10.498
35291W        W 8359  26.217  18.746  12.548
35292W        W 8360   4.770  20.155  10.157
35293W        W 8361  17.130  31.386   3.968
35294W        W 8362   5.815  30.496   1.177
35295W        W 8363  21.726   9.131  11.149
35296W        W 8364  34.473  28.639  10.795
35297W        W 8365  23.695  26.466   0.414
35298W        W 8366  12.431  33.885   1.396
35299W        W 8367   2.083   1.963  11.094
35300W        W 8368  22.736   8.175   2.323
35301W        W 8369  28.959  25.470   2.431
35302W        W 8370   3.278   8.282  14.966
35303W        W 8371  36.311  15.805   2.731
35304W        W 8372  36.133  16.080   3.124
35305W        W 8373   4.831  33.205   2.189
35306W        W 8374  22.116  13.109  14.459
35307W        W 8375   4.446  40.862   0.750
35308W        W 8376  34.943   4.873  12.668
35309W        W 8377  14.620  40.653  13.412
35310W        W 8378   1.880  35.867  13.964
35311W        W 8379   8.346  18.700   4.557
35312W        W 8380  38.350   6.916   0.298
35313W        W 8381  44.749   6.697  10.413
35314W        W 8382   5.474  15.127   1.765
35315W        W 8383   0.678  15.854   5.180
35316W        W 8384  34.834  23.581  11.602
35317W        W 8385  15.211  13.715  12.582
35318W        W 8386  24.466   7.877  13.487
35319W        W 8387   9.860  19.977   0.375
35320W        W 8388   5.065   6.833   2.886
35321W        W 8389  20.141  28.530   3.202
35322W        W 8390  28.039  36.937  13.303
35323W        W 8391  36.998   1.376  14.328
35324W        W 8392  19.808  18.056   3.227
35325W        W 8393  22.327  22.749  11.144
35326W        W 8394  24.567   6.103   3.029
35327W        W 8395  16.003   3.774   2.664
35328W        W 8396  21.447  37.396   1.820
35329W        W 8397  14.062  40.283   1.409
35330W        W 8398  42.707   7.155  14.458
35331W        W 8399  43.366   4.271   1.722
35332W        W 8400  28.940  12.495   4.511
35333W        W 8401  31.187   7.622   0.639
35334W        W 8402  39.242  15.628  10.535
35335W        W 8403   2.644   5.195  11.010
35336W        W 8404  40.410  29.927   4.547
35337W        W 8405  30.461  33.540  13.010
35338W        W 8406  29.562  27.740  12.030
35339W        W 8407  21.160   6.808   3.158
35340W        W 8408   8.746  14.098   3.830
35341W        W 8409  42.873  26.203   2.149
35342W        W 8410  22.597  25.452  14.244
35343W        W 8411  16.904  11.822   5.109
35344W        W 8412   6.368   5.128   4.581
35345W        W 8413   9.341  24.935   0.288
35346W        W 8414   5.830  22.241  11.437
35347W        W 8415  42.444   5.951   0.926
35348W        W 8416  30.491   4.723   0.798
35349W        W 8417   6.621  25.741  11.147
35350W        W 8418  24.519   6.949  13.494
35351W        W 8419  36.335  37.605   5.333
35352W        W 8420   8.457  34.042   4.722
35353W        W 8421  19.760  25.746  12.475
35354W        W 8422   1.485   4.773   1.805
35355W        W 8423   7.346  20.282  11.185
35356W        W 8424   5.977  11.715   2.189
35357W        W 8425  37.505  32.500   0.482
35358W        W 8426   5.344   0.742  12.538
35359W        W 8427   9.593  30.900   4.012
35360W        W 8428   2.696  28.867  14.891
35361W        W 8429  19.458  10.858  13.596
35362W        W 8430  21.017   5.727   3.232
35363W        W 8431  16.779  37.378   3.074
35364W        W 8432  27.922  32.177   0.717
35365W        W 8433  24.218  22.520  11.963
35366W        W 8434  20.295  32.846   3.355
35367W        W 8435  28.483   6.624   2.223
35368W        W 8436   6.855  42.030   1.975
35369W        W 8437   9.830   5.152   3.629
35370W        W 8438  16.560  41.276   1.975
35371W        W 8439  27.868  40.268   0.963
35372W        W 8440  25.969  30.086  14.826
35373W        W 8441   0.173  19.492  11.576
35374W        W 8442  16.186  35.630  12.681
35375W        W 8443  32.606  18.265   2.600
35376W        W 8444  18.323  30.039   2.188
35377W        W 8445  31.217  40.864   0.045
35378W        W 8446   2.246  22.560  12.081
35379W        W 8447  20.775  10.819  13.793
35380W        W 8448  12.205   5.968   3.262
35381W        W 8449   1.027  17.317   2.210
35382W        W 8450  30.597  33.471   1.337
35383W        W 8451  32.580  13.886  14.992
35384W        W 8452  17.788   8.692  10.690
35385W        W 8453  19.074  14.303  13.773
35386W        W 8454  22.214   8.732  11.139
35387W        W 8455   7.326   4.315   4.624
35388W        W 8456  41.749  24.483   2.628
35389W        W 8457  37.721   9.460  14.881
35390W        W 8458  40.059  42.665   2.692
35391W        W 8459  14.654  13.747   3.304
35392W        W 8460   9.787   9.144   4.235
35393W        W 8461  14.210  28.670  12.252
35394W        W 8462  32.459  40.374  14.360
35395W        W 8463  12.312  12.998  13.375
35396W        W 8464  15.994  24.591  13.913
35397W        W 8465  14.919  32.843  11.922
35398W        W 8466  10.655  13.159   3.573
35399W        W 8467  24.946   4.774   0.937
35400W        W 8468   8.251  19.585  12.153
35401W        W 8469  12.347  27.501  13.314
35402W        W 8470  44.565  11.456   3.681
35403W        W 8471   0.319  14.721   3.305
35404W        W 8472  11.166  44.875  12.580
35405W        W 8473  30.044  16.327  11.222
35406W        W 8474  20.504  31.577  14.814
35407W        W 8475  18.390  17.584   0.739
35408W        W 8476  40.719  28.279  14.804
35409W        W 8477  15.833   5.373   2.202
35410W        W 8478  31.187  36.382  12.475
35411W        W 8479  44.168  25.567  13.463
35412W        W 8480  36.534  18.127  13.871
35413W        W 8481   9.246  39.273  13.590
35414W        W 8482  10.173  22.853  11.495
35415W        W 8483  22.171   3.981   1.776
35416W        W 8484  15.276  16.652   1.812
35417W        W 8485   6.433  14.461  13.475
35418W        W 8486  41.474   5.266  11.027
35419W        W 8487   4.397   3.371  12.868
35420W        W 8488  22.273   4.458  12.621
35421W        W 8489  22.308  11.314   1.327
35422W        W 8490   9.146  36.784   0.901
35423W        W 8491   9.745   8.634  10.511
35424W        W 8492  33.481   0.340  11.864
35425W        W 8493   4.806   6.901   4.271
35426W        W 8494  43.501  14.352  13.826
35427W        W 8495  18.459  43.770   2.340
35428W        W 8496  10.167  44.255  13.981
35429W        W 8497   8.657  27.440  10.775
35430W        W 8498  40.777  37.998   3.446
35431W        W 8499  12.192  25.590   4.111
35432W        W 8500  23.776  31.405  14.025
35433W        W 8501  39.332  34.654  11.021
35434W        W 8502  32.581  31.545  13.788
35435W        W 8503  40.308  22.474  11.964
35436W        W 8504  19.171  11.268   1.173
35437W        W 8505  25.113  36.725   2.083
35438W        W 8506  43.700   0.949  11.458
35439W        W 8507  21.764  30.046  11.584
35440W        W 8508  24.174   8.257   2.079
35441W        W 8509   6.204   5.080   2.093
35442W        W 8510   5.800  21.933   4.376
35443W        W 8511   2.350  19.302   3.460
35444W        W 8512  10.304  21.650  13.910
35445W        W 8513  14.840   1.142  14.904
35446W        W 8514  25.191  27.679   2.983
35447W        W 8515  22.674  42.791  14.115
35448W        W 8516   4.471  37.041  11.141
35449W        W 8517  12.063  11.247   0.936
35450W        W 8518  33.952  36.327   4.056
35451W        W 8519  36.860  29.567   2.819
35452W        W 8520  19.222   0.433  12.441
35453W        W 8521  44.960  21.554  10.663
35454W        W 8522  15.830  10.699  12.150
35455W        W 8523  38.504  12.296   2.147
35456W        W 8524  20.075  36.384  14.219
35457W        W 8525  16.977   7.434  13.869
35458W        W 8526  19.633  12.800   1.640
35459W        W 8527  34.483  21.215   4.828
35460W        W 8528  34.071  10.750  10.611
35461W        W 8529   5.942   7.877   2.841
35462W        W 8530  14.527  41.355   2.201
35463W        W 8531  20.841  42.324  13.019
35464W        W 8532  22.436  23.959   3.284
35465W        W 8533   2.464  43.544   4.545
35466W        W 8534  15.755   5.170   2.678
35467W        W 8535  33.486   6.915   3.719
35468W        W 8536  12.970  42.227  11.584
35469W        W 8537   2.023  39.723  11.641
35470W        W 8538  33.862  30.477   2.749
35471W        W 8539   8.296  11.471   3.230
35472W        W 8540  11.334  25.225  11.902
35473W        W 8541  39.139  19.821  11.920
35474W        W 8542  20.479  40.898   4.293
35475W        W 8543   0.721  28.541  13.496
35476W        W 8544  14.370  14.918   1.605
35477W        W 8545  18.237   9.245  12.414
35478W        W 8546  24.490  22.063   0.301
35479W        W 8547  41.460  29.125  11.655
35480W        W 8548   7.293  39.912   4.521
35481W        W 8549   8.384  31.501   2.031
35482W        W 8550   5.813  21.121   1.164
35483W        W 8551  34.435  16.707   3.181
35484W        W 8552  34.309  36.376   2.157
35485W        W 8553  21.784  21.000  13.803
35486W        W 8554  34.907  25.064   0.959
35487W        W 8555  24.243  40.937  13.849
35488W        W 8556  15.059  37.533  11.634
35489W        W 8557  44.510  37.404   3.320
35490W        W 8558  43.372  18.245   0.474
35491W        W 8559  39.863  33.044   4.587
35492W        W 8560  26.077  26.192   3.199
35493W        W 8561  29.628  18.522   1.814
35494W        W 8562  34.121  33.131   3.170
35495W        W 8563  13.070  26.449   3.316
35496W        W 8564  33.694  25.001   1.238
35497W        W 8565  38.959  25.766  11.114
35498W        W 8566  30.416   2.405  14.360
35499W        W 8567  44.263  39.813  14.481
35500W        W 8568   7.384  43.684   0.049
35501W        W 8569  39.503  40.813  13.360
35502W        W 8570  25.450  10.443   4.686
35503W        W 8571  36.634  27.438  13.320
35504W        W 8572   4.743  24.094  12.915
35505W        W 8573  18.808  14.137   3.706
35506W        W 8574  36.750  26.082  13.538
35507W        W 8575  19.034  43.431   3.158
35508W        W 8576  30.637  27.005  13.723
35509W        W 8577   1.862  26.895  11.678
35510W        W 8578   8.791  38.496  12.824
35511W        W 8579  22.728  37.259   0.289
35512W        W 8580  36.366  26.965  13.629
35513W        W 8581  11.769   5.685  13.850
35514W        W 8582   1.017  39.894   3.657
35515W        W 8583   7.722  23.303   4.715
35516W        W 8584  19.734  11.888   3.716
35517W        W 8585  13.843  41.452  12.545
35518W        W 8586  29.953  33.588  12.919
35519W        W 8587  11.318  33.357   2.969
35520W        W 8588  37.319   6.445   4.257
35521W        W 8589  40.626  17.510  14.289
35522W        W 8590   2.692  16.072   1.500
35523W        W 8591  21.604   6.561   3.448
35524W        W 8592  36.646   6.220   2.220
35525W        W 8593  10.212  19.505   1.379
35526W        W 8594  10.816  41.768   3.286
35527W        W 8595  27.037  21.828  11.209
35528W        W 8596  27.215  10.176   0.867
35529W        W 8597   7.994   2.862  11.213
35530W        W 8598  35.635  26.458  14.971
35531W        W 8599  42.576  24.519  13.256
35532W        W 8600  42.852  29.235   2.453
35533W        W 8601   6.936  15.604   0.212
35534W        W 8602   9.851  19.290   5.717
35535W        W 8603  11.755   8.718   3.837
35536W        W 8604   4.383   9.188  12.170
35537W        W 8605  44.283   0.157  11.120
35538W        W 8606  36.988  36.153   4.993
35539W        W 8607   7.554  34.154  11.387
35540W        W 8608  12.050  25.167   1.646
35541W        W 8609   0.303  29.455   2.655
35542W        W 8610  35.457  21.733  11.966
35543W        W 8611  41.582  24.958   2.749
35544W        W 8612  31.869  41.190   3.143
35545W        W 8613  12.511  14.963   3.350
35546W        W 8614   2.486   6.832   0.823
35547W        W 8615   1.404   7.304   4.366
35548W        W 8616  27.179  21.504  13.499
35549W        W 8617  12.911  17.932  14.764
35550W        W 8618   6.378  22.240   0.238
35551W        W 8619  39.508  41.915   4.478
35552W        W 8620  18.440  28.709  14.898
35553W        W 8621   6.797  25.959   2.207
35554W        W 8622  15.170   2.444   0.309
35555W        W 8623  15.810  42.190  13.817
35556W        W 8624  38.107  22.143   4.349
35557W        W 8625  39.486  40.366   4.426
35558W        W 8626  14.809  43.919  11.008
35559W        W 8627  38.649  25.493   3.049
35560W        W 8628  28.675  23.918   1.675
35561W        W 8629  15.055  25.115   4.663
35562W        W 8630   2.400  39.470   2.269
35563W        W 8631   5.413   3.398  13.037
35564W        W 8632  15.517  19.081   4.227
35565W        W 8633  37.853  38.155  10.808
35566W        W 8634  36.421  28.521   3.187
35567W        W 8635   4.226  38.049  14.997
35568W        W 8636   6.126  31.965  11.117
35569W        W 8637  20.466  43.455   2.670
35570W        W 8638  27.500  34.382   3.098
35571W        W 8639  38.014  42.224  13.031
35572W        W 8640  27.888  31.666  11.340
35573W        W 8641  35.563  19.544  10.545
35574W        W 8642  10.765   5.454   2.371
35575W        W 8643  23.465  33.937   0.629
35576W        W 8644  44.333  40.941  10.944
35577W        W 8645  28.951  39.549   2.396
35578W        W 8646   6.924  29.970   4.220
35579W        W 8647  43.307  27.775  13.383
35580W        W 8648  38.299   4.245  12.514
35581W        W 8649   5.272  39.318   0.216
35582W        W 8650  16.950  40.926   1.225
35583W        W 8651  35.410  21.656  14.338
35584W        W 8652  11.246   5.835   0.230
35585W        W 8653  30.634  13.731   0.276
35586W        W 8654   7.891  16.254  13.549
35587W        W 8655  34.148  43.229  11.635
35588W        W 8656   0.716  42.786  11.327
35589W        W 8657  11.207  25.610   2.706
35590W        W 8658  17.557   6.960  12.978
35591W        W 8659  26.118  33.114   1.803
35592W        W 8660  33.644  22.565  11.048
35593W        W 8661  23.224  24.169  11.211
35594W        W 8662  10.365  37.180   1.283
35595W        W 8663  39.005   3.909  10.979
35596W        W 8664  41.283  39.494  11.479
35597W        W 8665  26.823  11.256   2.798
35598W        W 8666  31.319   4.547  14.698
35599W        W 8667  11.706  21.858  14.780
35600W        W 8668  31.842  30.139   2.755
35601W        W 8669  37.328   6.210  10.560
35602W        W 8670  29.964  35.069   1.703
35603W        W 8671  36.522  42.998  12.905
35604W        W 8672  43.306  18.623  10.933
35605W        W 8673   3.349  21.578  14.068
35606W        W 8674   2.039  27.741  12.146
35607W        W 8675   4.367   4.341  13.441
35608W        W 8676  32.851  23.183   2.594
35609W        W 8677  19.488  12.011  12.523
35610W        W 8678  40.072  27.957  13.032
35611W        W 8679   2.936  41.394   3.543
35612W        W 8680  11.788  42.533  14.798
35613W        W 8681  27.188  39.446  10.739
35614W        W 8682  33.488   3.034  10.994
35615W        W 8683  43.996  19.539  10.770
35616W        W 8684   7.322  36.481  10.641
35617W        W 8685  39.797  22.465   0.734
35618W        W 8686   5.335  15.823   2.847
35619W        W 8687   7.283  22.627  14.367
35620W        W 8688  28.885  30.117   1.261
35621W        W 8689  41.307  38.488   0.724
35622W        W 8690  16.029   3.246  13.969
35623W        W 8691  18.248  21.543   1.355
35624W        W 8692  38.242  42.394  12.568
35625W        W 8693  40.799   6.016   4.685
35626W        W 8694  40.956  31.439   3.760
35627W        W 8695  39.453  14.045   1.645
35628W        W 8696  11.336  24.186  11.971
35629W        W 8697  20.308   0.907  12.075
35630W        W 8698  36.805  19.510   2.062
35631W        W 8699  13.784  32.134   1.441
35632W        W 8700  21.012  37.842  11.507
35633W        W 8701  27.480  22.283   0.314
35634W        W 8702  17.306  26.148   3.140
35635W        W 8703  29.123  19.748   1.820
35636W        W 8704  21.601   3.701   3.185
35637W        W 8705  40.427  30.025  14.706
35638W        W 8706  29.011  27.669  12.442
35639W        W 8707  31.624  19.729  11.218
35640W        W 8708  24.991  15.832  12.432
35641W        W 8709   8.680  35.251   3.167
35642W        W 8710  34.405  24.815   4.690
35643W        W 8711  25.085  22.418  14.012
35644W        W 8712  11.827  13.419   1.710
35645W        W 8713  43.017   6.245  10.697
35646W        W 8714  25.143  22.947  12.133
35647W        W 8715   0.406  29.953   1.409
35648W        W 8716  20.669  20.492   2.712
35649W        W 8717  14.606  14.476   4.662
35650W        W 8718  29.047  38.811   0.292
35651W        W 8719   3.932  41.514   1.819
35652W        W 8720  29.366   7.281  13.041
35653W        W 8721  27.093   1.839  12.771
35654W        W 8722  23.945  41.389  11.684
35655W        W 8723  32.900   3.716  14.590
35656W        W 8724  16.201  24.821   0.317
35657W        W 8725  18.813   2.854  14.744
35658W        W 8726  32.133  12.144  14.311
35659W        W 8727  23.723   9.282   0.515
35660W        W 8728  14.753  18.774  14.374
35661W        W 8729  29.950  28.461   2.525
35662W        W 8730  27.542   9.122  13.194
35663W        W 8731  32.413  30.307   3.143
35664W        W 8732  19.514  28.526  11.159
35665W        W 8733   3.014   6.358   3.289
35666W        W 8734  40.457  27.543   0.799
35667W        W 8735  27.970  29.344  13.846
35668W        W 8736   3.253  13.045  14.860
35669W        W 8737  22.922  36.542  10.777
35670W        W 8738  17.570  25.475  11.484
35671W        W 8739  32.587  30.143   1.338
35672W        W 8740  27.423  41.948   0.336
35673W        W 8741  17.165  32.522   2.201
35674W        W 8742  18.156  23.447   4.132
35675W        W 8743  44.836   0.991  14.050
35676W        W 8744  13.884  27.968  11.952
35677W        W 8745   8.817  34.196  11.128
35678W        W 8746  20.260  38.573   2.678
35679W        W 8747  20.129   1.661   1.287
35680W        W 8748  29.572  15.216   4.154
35681W        W 8749  10.730  25.188   2.770
35682W        W 8750   7.486  23.668   3.070
35683W        W 8751  27.401  43.315  12.174
35684W        W 8752  36.891  33.434  14.950
35685W        W 8753  37.430  20.755   2.845
35686W        W 8754  31.419  30.543   2.932
35687W        W 8755  18.235  15.183   4.350
35688W        W 8756  32.582  36.460   0.832
35689W        W 8757   5.430  33.837   0.274
35690W        W 8758   1.807   1.720  14.855
35691W        W 8759   6.410  40.189  10.662
35692W        W 8760  25.186  37.292   0.336
35693W        W 8761  36.157  13.697  13.866
35694W        W 8762  11.817   8.890  14.339
35695W        W 8763  20.531   7.211   3.739
35696W        W 8764  33.450   1.203   0.811
35697W        W 8765  24.239  40.476  10.210
35698W        W 8766  25.605  36.389   1.195
35699W        W 8767   4.810  18.829  13.809
35700W        W 8768   2.460  23.501   0.262
35701W        W 8769  27.617  30.816  12.436
35702W        W 8770   3.933  15.767  11.010
35703W        W 8771  22.159  19.070  10.165
35704W        W 8772   3.214   6.784   2.148
35705W        W 8773  23.768   2.979   0.862
35706W        W 8774   2.342   7.384   2.046
35707W        W 8775  18.065  29.457  13.044
35708W        W 8776  11.221  29.941   0.889
35709W        W 8777  11.391  41.911  14.421
35710W        W 8778  23.046  26.132  13.559
35711W        W 8779  36.316  29.863   4.219
35712W        W 8780  21.735   3.413   3.772
35713W        W 8781  15.524  40.286   5.061
35714W        W 8782   1.000  43.027  14.278
35715W        W 8783   2.257  30.486   3.708
35716W        W 8784   3.775  44.312  14.608
35717W        W 8785  30.407  33.127  13.858
35718W        W 8786  28.983  36.913  13.428
35719W        W 8787  14.129  23.511  14.514
35720W        W 8788   9.258   5.267   4.761
35721W        W 8789   4.339  24.511  14.975
35722W        W 8790  27.741  30.172  11.580
35723W        W 8791  34.928  27.026  14.016
35724W        W 8792   0.182   5.887  11.219
35725W        W 8793   5.172   4.131   1.191
35726W        W 8794   0.418   3.455  12.871
35727W        W 8795  38.689  14.171  12.037
35728W        W 8796  43.976  38.619  13.496
35729W        W 8797  16.391  41.996  13.705
35730W        W 8798  21.205  18.480  13.693
35731W        W 8799   0.380   8.485  13.003
35732W        W 8800  26.298  40.065   2.315
35733W        W 8801  40.628  22.964  10.390
35734W        W 8802  14.277  33.643  14.733
35735W        W 8803  19.878  34.374  14.906
35736W        W 8804  39.633  14.730  10.693
35737W        W 8805   3.188  44.839   2.367
35738W        W 8806   8.847  33.769  13.405
35739W        W 8807   0.724  12.629   2.868
35740W        W 8808  33.976   1.386   3.136
35741W        W 8809  39.030   5.960  11.888
35742W        W 8810  34.478  28.645   2.692
35743W        W 8811  33.566  35.656  14.857
35744W        W 8812  32.622  43.523   1.074
35745W        W 8813  31.791  42.899  11.657
35746W        W 8814  42.722  37.097  11.383
35747W        W 8815   0.862  40.993   2.706
35748W        W 8816  40.106  30.489  13.398
35749W        W 8817  34.866   0.735   1.882
35750W        W 8818  22.321   7.268   4.610
35751W        W 8819  22.982  32.060   2.122
35752W        W 8820   6.274  17.581  14.383
35753W        W 8821   8.143   8.712  12.982
35754W        W 8822  19.634  13.027   0.762
35755W        W 8823  17.568   0.257   1.891
35756W        W 8824  40.591  31.565   1.229
35757W        W 8825  11.459  40.139   2.748
35758W        W 8826  20.186  32.079   3.826
35759W        W 8827  16.381  25.624   3.243
35760W        W 8828   1.720  31.508   2.551
35761W        W 8829  25.830  24.221   3.766
35762W        W 8830  37.889  28.114  12.417
35763W        W 8831  33.177  21.260   2.233
35764W        W 8832  36.676  22.656   2.125
35765W        W 8833  14.097   0.408  12.490
35766W        W 8834  24.566   9.465   3.375
35767W        W 8835  31.986  11.653  14.397
35768W        W 8836  38.493  43.975   2.111
35769W        W 8837  39.518  21.174  14.273
35770W        W 8838  25.088  11.818  11.885
35771W        W 8839  12.248  14.959  12.371
35772W        W 8840  31.706  32.655  11.947
35773W        W 8841  13.298   3.265   3.288
35774W        W 8842  29.465  38.294  14.089
35775W        W 8843  38.687   1.361   1.727
35776W        W 8844  11.362   8.192   4.073
35777W        W 8845   3.638  25.278  12.898
35778W        W 8846  44.764  17.423  12.221
35779W        W 8847  18.911  43.730  13.895
35780W        W 8848  15.256  40.755   1.892
35781W        W 8849   9.213  19.539   2.169
35782W        W 8850  17.748  10.265  10.267
35783W        W 8851   5.669  28.599   4.363
35784W        W 8852  29.323  21.614   1.276
35785W        W 8853   8.812  26.387  12.048
35786W        W 8854  11.901  16.606  10.212
35787W        W 8855  40.331  31.834   4.260
35788W        W 8856   3.163  27.232  13.032
35789W        W 8857   7.388   2.219   2.182
35790W        W 8858   5.210   0.431   0.209
35791W        W 8859  25.662  26.715   1.319
35792W        W 8860   8.072  23.319   5.093
35793W        W 8861  28.087  15.288  11.986
35794W        W 8862  41.319  31.153   4.033
35795W        W 8863  40.907  25.765   2.125
35796W        W 8864  28.179   7.878  13.817
35797W        W 8865  32.119  24.250  10.720
35798W        W 8866   8.256  29.595  12.767
35799W        W 8867   4.345  29.653  12.176
35800W        W 8868  21.746  14.344  12.238
35801W        W 8869   1.419  32.615  13.797
35802W        W 8870  16.656  33.569  10.496
35803W        W 8871  34.993   5.482  11.014
35804W        W 8872  35.345   8.863  12.466
35805W        W 8873  10.863  26.697  10.570
35806W        W 8874  30.605  17.298   2.620
35807W        W 8875  25.040   4.868   0.434
35808W        W 8876   3.205  18.293  12.000
35809W        W 8877  12.424  23.466   0.924
35810W        W 8878   5.488  33.400  13.740
35811W        W 8879  28.235  32.514  10.480
35812W        W 8880   9.798   4.333  12.961
35813W        W 8881  33.610  29.561   0.762
35814W        W 8882  38.937   6.754   0.433
35815W        W 8883  12.860  41.907  12.350
35816W        W 8884   0.724  21.691  14.788
35817W        W 8885  24.784  27.447  11.389
35818W        W 8886  22.489   7.242  13.984
35819W        W 8887  25.747   8.705  14.931
35820W        W 8888  23.952  21.104  10.766
35821W        W 8889   4.921  30.378   5.153
35822W        W 8890  32.453  16.353  10.653
35823W        W 8891  15.532  27.580  12.400
35824W        W 8892   3.329  34.549   2.397
35825W        W 8893  23.975  10.207   2.202
35826W        W 8894   1.789  31.568  14.513
35827W        W 8895  25.039  26.687   3.200
35828W        W 8896  12.136   9.338   4.567
35829W        W 8897   1.272  16.735  13.447
35830W        W 8898   9.119  37.074  12.553
35831W        W 8899  10.627  38.798   4.378
35832W        W 8900  39.253  19.746  12.748
35833W        W 8901   2.226  44.478  14.319
35834W        W 8902  18.443  10.646  13.549
35835W        W 8903   3.278  20.676  12.214
35836W        W 8904   4.752  11.129   2.331
35837W        W 8905   9.266  37.405   5.027
35838W        W 8906  43.431  35.519  14.721
35839W        W 8907  31.211  28.385  11.757
35840W        W 8908  34.360  10.710   4.830
35841W        W 8909  32.268  23.546   3.630
35842W        W 8910   1.519  34.554   3.959
35843W        W 8911   1.920  38.127   0.254
35844W        W 8912  32.712   1.399   3.390
35845W        W 8913  11.381  15.601   4.646
35846W        W 8914  11.215  44.729  13.093
35847W        W 8915  20.578  23.693   4.208
35848W        W 8916  44.538  24.162  11.580
35849W        W 8917  31.677  21.088  10.721
35850W        W 8918  26.018  41.354   1.230
35851W        W 8919  25.483  19.598  14.579
35852W        W 8920   8.195  43.836   4.243
35853W        W 8921  29.143  20.542   2.506
35854W        W 8922  41.865  44.953   4.645
35855W        W 8923  25.700   8.402   0.338
35856W        W 8924  11.158   9.889   2.157
35857W        W 8925   6.430  35.687  14.298
35858W        W 8926   1.401  26.054  13.882
35859W        W 8927  16.721   0.122  13.501
35860W        W 8928  26.512  28.232  10.883
35861W        W 8929  11.728  26.104   1.306
35862W        W 8930  31.555  44.810   0.323
35863W        W 8931   1.711  44.548  14.371
35864W        W 8932  14.594  40.477   4.567
35865W        W 8933   7.947  14.558   0.448
35866W        W 8934  37.752  40.330   2.310
35867W        W 8935   4.988  10.833  10.865
35868W        W 8936  17.261   3.712  13.450
35869W        W 8937  32.721  35.230   4.112
35870W        W 8938  39.313   5.738  13.516
35871W        W 8939  37.093  23.235   0.254
35872W        W 8940  17.806  31.029  14.971
35873W        W 8941  37.846  38.217   2.424
35874W        W 8942  33.355  40.522   2.741
35875W        W 8943  30.716  19.635   4.230
35876W        W 8944  40.321  22.557  11.125
35877W        W 8945  11.223   9.856  13.894
35878W        W 8946  35.972  32.816   0.853
35879W        W 8947  20.734  44.892   2.233
35880W        W 8948  16.038  32.874   2.837
35881W        W 8949  29.979   1.370  12.015
35882W        W 8950  15.913   5.320   0.503
35883W        W 8951   1.559   9.684   0.480
35884W        W 8952   0.857  26.762   4.458
35885W        W 8953  13.600   8.654  13.644
35886W        W 8954   2.736  34.135  11.412
35887W        W 8955  24.200  31.050  12.629
35888W        W 8956  22.972  22.291  12.529
35889W        W 8957  13.182  18.280   1.995
35890W        W 8958  14.872  15.071  11.599
35891W        W 8959  28.302  38.723   5.127
35892W        W 8960  35.998  22.667   1.253
35893W        W 8961  40.886  19.131  12.179
35894W        W 8962  18.659  44.193   4.908
35895W        W 8963  33.074  30.241  13.510
35896W        W 8964   5.638  18.938  10.800
35897W        W 8965  31.603  44.534  11.982
35898W        W 8966   1.362  11.820   1.919
35899W        W 8967  39.706  42.299   3.511
35900W        W 8968  13.832  12.214  10.979
35901W        W 8969  30.631  38.436   1.497
35902W        W 8970  24.950  25.622  12.503
35903W        W 8971  43.498  27.786   1.752
35904W        W 8972  13.879  24.098   2.358
35905W        W 8973   8.745  36.399  13.070
35906W        W 8974  23.976  13.622   0.749
35907W        W 8975   1.735  24.126   1.427
35908W        W 8976  43.830   4.945   0.310
35909W        W 8977  27.260  28.756   3.234
35910W        W 8978  38.974   2.475  10.659
35911W        W 8979  44.362  27.155   3.813
35912W        W 8980  44.533  38.307   1.232
35913W        W 8981  39.834  37.829  10.658
35914W        W 8982  20.689  30.017  13.687
35915W        W 8983  35.400   1.220  10.753
35916W        W 8984   5.864  36.122   2.233
35917W        W 8985  28.568  33.390  13.313
35918W        W 8986  44.320  23.428   4.375
35919W        W 8987  11.420  30.628   4.261
35920W        W 8988  19.183  23.716  14.525
35921W        W 8989   4.984  30.123   3.858
35922W        W 8990  42.980   4.060   2.007
35923W        W 8991   8.879  41.884   2.019
35924W        W 8992  32.099   2.337  14.426
35925W        W 8993   7.400   4.871   1.889
35926W        W 8994  26.336  13.768  12.345
35927W        W 8995  29.302  19.654  14.806
35928W        W 8996  26.649  12.291   4.270
35929W        W 8997  38.886  24.514   4.257
35930W        W 8998  10.124  42.510   0.417
35931W        W 8999  24.015  20.741   1.852
35932W        W 9000  43.362  31.016  10.869
35933W        W 9001   0.433  17.603  10.790
35934W        W 9002  22.995  26.145  12.105
35935W        W 9003   8.109  39.968  12.013
35936W        W 9004  12.824  17.420   4.584
35937W        W 9005  36.677  30.410  11.462
35938W        W 9006  43.369  23.680   0.304
35939W        W 9007  18.259  11.631   1.001
35940W        W 9008  29.533   7.557  10.210
35941W        W 9009  44.059  16.228  14.230
35942W        W 9010  15.184  37.464  14.549
35943W        W 9011  25.660  41.852  12.800
35944W        W 9012  19.001   2.927   4.596
35945W        W 9013  31.046  12.133  11.117
35946W        W 9014  22.352   7.816  14.491
35947W        W 9015   9.472  40.443  14.793
35948W        W 9016  42.872   0.244   4.110
35949W        W 9017  18.174  35.264  14.879
35950W        W 9018  14.629   0.261  14.298
35951W        W 9019   7.098   1.018  14.832
35952W        W 9020  21.348   0.432   3.345
35953W        W 9021  35.648  40.784  11.206
35954W        W 9022  30.189  18.313   0.627
35955W        W 9023  12.882  34.364  11.194
35956W        W 9024  11.323  28.424   3.209
35957W        W 9025  37.858  40.224  13.784
35958W        W 9026  44.356   2.812   3.175
35959W        W 9027  18.349  41.540   0.962
35960W        W 9028  15.536  41.335  13.694
35961W        W 9029   0.217  31.084   0.740
35962W        W 9030  37.862  32.884  12.058
35963W        W 9031  17.578  28.554   1.269
35964W        W 9032  25.368  44.560  13.965
35965W        W 9033  11.615  37.405   1.782
35966W        W 9034  31.697  10.829   0.438
35967W        W 9035  11.295  32.806   4.661
35968W        W 9036   2.226  14.577  12.938
35969W        W 9037   0.320   7.519   1.347
35970W        W 9038  35.376  39.889  11.665
35971W        W 9039   6.669  30.611   0.778
35972W        W 9040  13.087  13.313   2.826
35973W        W 9041  22.229   1.021   1.977
35974W        W 9042  42.982  39.853  13.406
35975W        W 9043  42.393   8.639   1.281
35976W        W 9044  16.225  18.329   4.629
35977W        W 9045  11.712  35.438  13.455
35978W        W 9046   7.408   3.868  10.658
35979W        W 9047   0.248  28.438  14.907
35980W        W 9048  33.524   8.087   2.176
35981W        W 9049   8.290   0.744   4.837
35982W        W 9050  40.296   9.614  13.845
35983W        W 9051  10.756  39.513   0.455
35984W        W 9052   3.762  23.086   1.590
35985W        W 9053   5.170   6.731   3.899
35986W        W 9054  33.398  25.072   1.675
35987W        W 9055  27.936  41.383   0.842
35988W        W 9056  39.588  22.452  10.642
35989W        W 9057  30.267  43.058  14.062
35990W        W 9058  44.698   2.935   3.546
35991W        W 9059  37.860   4.958  14.148
35992W        W 9060  32.980  32.505   0.897
35993W        W 9061  35.466  34.015  12.467
35994W        W 9062  23.675  27.035  12.076
35995W        W 9063  19.137  35.255  11.152
35996W        W 9064  39.440  39.318   2.402
35997W        W 9065  32.420  17.364   2.698
35998W        W 9066   4.513  36.052  11.489
35999W        W 9067  44.281  10.598   2.879
36000W        W 9068  41.025  30.190  11.587
36001W        W 9069  23.057  35.362   0.518
36002W        W 9070  29.933  10.225  11.212
36003W        W 9071  29.666  13.138   4.254
36004W        W 9072   4.742  13.367   4.591
36005W        W 9073   1.880  44.244  12.411
36006W        W 9074  25.995  33.795   1.261
36007W        W 9075  43.868  29.150  12.603
36008W        W 9076  36.495   8.633  13.519
36009W        W 9077  11.056  14.505  11.059
36010W        W 9078   9.246  18.401   0.370
36011W        W 9079   6.236  16.163  12.086
36012W        W 9080  19.214   7.668   0.326
36013W        W 9081  29.659  35.155   4.160
36014W        W 9082   8.287  18.777  11.070
36015W        W 9083  31.283  33.332  12.012
36016W        W 9084  27.977  39.060   3.786
36017W        W 9085  20.977  23.451   3.123
36018W        W 9086  43.928  27.603   1.934
36019W        W 9087  39.338  36.391   4.572
36020W        W 9088  14.244  19.134  12.534
36021W        W 9089   2.895  43.447  12.558
36022W        W 9090  22.247   9.375  12.950
36023W        W 9091  39.491  29.077  14.867
36024W        W 9092   9.321  15.561  14.388
36025W        W 9093  18.770  43.269  12.981
36026W        W 9094  19.628   6.760  11.949
36027W        W 9095  31.763  39.816   4.159
36028W        W 9096   0.498  36.434   4.572
36029W        W 9097  36.650   0.016  13.287
36030W        W 9098   1.521  39.807   4.770
36031W        W 9099  43.014  41.600   2.339
36032W        W 9100  18.584   8.731  11.833
36033W        W 9101  16.010  36.124  12.059
36034W        W 9102  28.906  16.048   3.701
36035W        W 9103  43.721  23.588  13.882
36036W        W 9104  26.001   8.934  13.473
36037W        W 9105  35.029  35.890   1.760
36038W        W 9106   3.838  11.643   3.265
36039W        W 9107   6.362  19.963  12.519
36040W        W 9108   0.245  42.974  14.729
36041W        W 9109  18.050  17.031   2.753
36042W        W 9110  28.345  18.397   0.615
36043W        W 9111  20.234   2.417  12.956
36044W        W 9112   3.739  21.142   2.184
36045W        W 9113  26.211  12.593  11.628
36046W        W 9114  22.184  41.287  12.979
36047W        W 9115   5.346  26.315   0.887
36048W        W 9116  25.042   8.271   3.694
36049W        W 9117  29.559  14.494  14.069
36050W        W 9118  19.696   5.407  13.746
36051W        W 9119  24.943   7.907  11.160
36052W        W 9120  31.138  31.511   2.536
36053W        W 9121  15.513  33.658  14.435
36054W        W 9122   3.705  11.163   1.390
36055W        W 9123  42.810  25.409  14.954
36056W        W 9124  10.158  34.118   2.389
36057W        W 9125   3.780  19.071  12.796
36058W        W 9126   9.199  35.072   0.028
36059W        W 9127   0.414   1.832   3.811
36060W        W 9128   3.486  20.028   3.732
36061W        W 9129  41.257  21.152   2.862
36062W        W 9130  21.330  32.839  13.953
36063W        W 9131  41.795  14.656   3.712
36064W        W 9132  41.294  27.661  11.391
36065W        W 9133  42.829   1.059   2.700
36066W        W 9134  42.428   0.389   1.563
36067W        W 9135  24.146  34.361   2.727
36068W        W 9136  23.669  40.467   2.208
36069W        W 9137  36.175  14.699  10.432
36070W        W 9138  21.833  17.793   4.265
36071W        W 9139  35.374  20.713   2.453
36072W        W 9140  39.950  33.364   3.607
36073W        W 9141  13.838   3.306   2.305
36074W        W 9142  18.032  11.791  10.688
36075W        W 9143  29.193  31.610   4.791
36076W        W 9144   2.781  41.307   1.663
36077W        W 9145  33.035  32.512   4.860
36078W        W 9146  24.163  14.882  10.715
36079W        W 9147  40.954  14.870  13.855
36080W        W 9148  13.277  30.155  13.630
36081W        W 9149  29.162  28.179   0.050
36082W        W 9150   8.749  29.244   2.357
36083W        W 9151  15.636  32.094   2.085
36084W        W 9152  23.725   0.928  10.582
36085W        W 9153  28.961  12.275  12.963
36086W        W 9154  36.320  44.676   4.868
36087W        W 9155  29.507  44.005  10.659
36088W        W 9156  40.975  34.305   2.416
36089W        W 9157  43.322  39.878  14.269
36090W        W 9158  25.555  38.630   2.775
36091W        W 9159  36.353  36.203  13.704
36092W        W 9160  13.424   5.318  10.961
36093W        W 9161  17.124  32.454   1.685
36094W        W 9162  40.619  19.201   1.709
36095W        W 9163  31.015  20.727  13.929
36096W        W 9164  18.322  27.690   1.210
36097W        W 9165  39.632  13.016  14.408
36098W        W 9166  17.224  13.144   1.365
36099W        W 9167  30.548  31.673  14.992
36100W        W 9168   0.054  15.129   1.408
36101W        W 9169   5.879  40.099   4.017
36102W        W 9170   7.923  28.897   0.420
36103W        W 9171  31.394  18.833   1.346
36104W        W 9172  40.962  37.461   0.986
36105W        W 9173  43.467  37.932   1.218
36106W        W 9174  26.052  28.109   2.857
36107W        W 9175  10.780  17.104   4.269
36108W        W 9176   6.324  36.328  12.515
36109W        W 9177   5.256  42.968   9.774
36110W        W 9178  30.047   1.657  14.046
36111W        W 9179  18.459  39.120  12.527
36112W        W 9180  20.009  39.707  13.040
36113W        W 9181   1.468  20.251  13.457
36114W        W 9182   5.362  32.823  11.491
36115W        W 9183  11.413  28.165  14.065
36116W        W 9184   6.366  12.188  13.096
36117W        W 9185  18.068  23.958  13.804
36118W        W 9186   9.053   5.128   0.342
36119W        W 9187  38.130  44.889   4.592
36120W        W 9188  42.470  19.726   0.514
36121W        W 9189   8.392  43.366   4.342
36122W        W 9190   5.336  20.486   2.136
36123W        W 9191  27.960  23.084  12.426
36124W        W 9192  11.874  21.504   2.392
36125W        W 9193   5.699  38.002   0.386
36126W        W 9194   8.467  27.376  14.528
36127W        W 9195  25.713  19.796  11.559
36128W        W 9196  31.200   2.623   3.172
36129W        W 9197   8.339  29.111  13.058
36130W        W 9198  28.652  32.636  12.276
36131W        W 9199  34.035  13.712  12.334
36132W        W 9200  15.826  10.624   2.199
36133W        W 9201  11.324  42.999  10.316
36134W        W 9202  39.454  19.538   0.461
36135W        W 9203  19.726  26.611  13.627
36136W        W 9204  12.049  33.515  13.912
36137W        W 9205  28.046  36.752  11.098
36138W        W 9206  33.900  37.468  12.161
36139W        W 9207  36.216  16.708   0.747
36140W        W 9208  41.424  22.017   2.285
36141W        W 9209  36.414  37.088   3.402
36142W        W 9210  33.170  38.770  12.463
36143W        W 9211  24.519  30.913   4.851
36144W        W 9212   6.855  23.034   1.433
36145W        W 9213  12.868  30.114   0.905
36146W        W 9214  13.788  34.409   4.224
36147W        W 9215  18.627   3.726   3.213
36148W        W 9216  10.646  17.176   1.217
36149W        W 9217  29.552  38.629   3.801
36150W        W 9218   5.396  17.778  14.421
36151W        W 9219   4.784  33.897  12.439
36152W        W 9220  10.096  19.305   4.175
36153W        W 9221  44.883  13.390   4.226
36154W        W 9222  32.885  35.536   3.348
36155W        W 9223   2.835  37.120   3.381
36156W        W 9224  15.650  15.242  12.066
36157W        W 9225   9.909  24.092  14.098
36158W        W 9226  23.091  20.618  13.890
36159W        W 9227  37.949  34.120  11.634
36160W        W 9228  18.923  29.231  11.104
36161W        W 9229  15.846  33.187  14.417
36162W        W 9230  41.051  20.511  12.429
36163W        W 9231  43.022   9.719   1.394
36164W        W 9232  32.080  28.014   3.115
36165W        W 9233  39.515   4.715  11.943
36166W        W 9234  38.861  14.758  11.602
36167W        W 9235  38.078  43.779  13.043
36168W        W 9236   3.956  32.515   0.882
36169W        W 9237  20.398  16.110  14.783
36170W        W 9238  10.695   6.447   2.213
36171W        W 9239  25.281   6.656   3.196
36172W        W 9240  32.780  32.215  12.859
36173W        W 9241  31.603  34.161   0.895
36174W        W 9242  17.102  28.012   3.654
36175W        W 9243   8.293   5.159   2.264
36176W        W 9244   9.912  27.995   4.245
36177W        W 9245  40.723   4.476  13.453
36178W        W 9246  27.148  21.331   1.891
36179W        W 9247   0.993   3.515  10.736
36180W        W 9248  34.072   5.908   4.686
36181W        W 9249  14.364  33.568   4.542
36182W        W 9250  12.540  14.627  13.924
36183W        W 9251  13.399  17.663  13.917
36184W        W 9252  10.492  43.893  11.504
36185W        W 9253  18.785   5.051   0.820
36186W        W 9254  39.625  32.379  13.019
36187W        W 9255  24.125  39.128   2.297
36188W        W 9256  27.429   8.362  12.374
36189W        W 9257   0.982  33.010  12.122
36190W        W 9258  30.274   8.109   1.752
36191W        W 9259  22.154   5.382  13.329
36192W        W 9260   8.599  40.042  14.883
36193W        W 9261  20.753  38.010  14.774
36194W        W 9262   6.216  39.904  14.331
36195W        W 9263   8.740  23.909   2.718
36196W        W 9264  26.163   4.437   2.912
36197W        W 9265  32.742  17.417  11.514
36198W        W 9266   0.494  11.397   0.338
36199W        W 9267  36.401  29.891  13.476
36200W        W 9268   6.399   0.288   2.865
36201W        W 9269  40.568   7.914  10.509
36202W        W 9270  43.561  34.811  11.134
36203W        W 9271  11.310  32.961   1.717
36204W        W 9272  38.087  38.603  10.531
36205W        W 9273  34.316   6.847  13.291
36206W        W 9274  13.404  15.742   3.617
36207W        W 9275  13.532  25.664   4.172
36208W        W 9276  24.019   1.564   3.188
36209W        W 9277  41.911   5.716   3.938
36210W        W 9278  25.727  38.446   0.037
36211W        W 9279  16.544  38.470  13.998
36212W        W 9280   1.176  34.085   0.485
36213W        W 9281  14.706  28.057  11.920
36214W        W 9282  10.368  42.417   0.856
36215W        W 9283  19.058  21.048   3.198
36216W        W 9284   2.180   4.264  10.503
36217W        W 9285  23.010  37.021   3.234
36218W        W 9286  14.704   3.439   5.414
36219W        W 9287  21.158  29.955  13.490
36220W        W 9288  36.805   4.458   1.648
36221W        W 9289   7.262  13.292   0.381
36222W        W 9290  14.783  34.231   4.173
36223W        W 9291  29.831  33.821   0.698
36224W        W 9292  17.330  19.039  12.077
36225W        W 9293  12.647  27.622   2.207
36226W        W 9294   4.242   3.164  12.422
36227W        W 9295   2.340   5.175  10.592
36228W        W 9296  16.559  22.806  11.480
36229W        W 9297  24.686   6.381   1.302
36230W        W 9298  20.785   3.735  13.627
36231W        W 9299  41.729  12.834   2.780
36232W        W 9300  30.610   8.406   0.397
36233W        W 9301  34.605   9.248  13.301
36234W        W 9302  44.411  26.560   0.768
36235W        W 9303  18.668  26.599  12.801
36236W        W 9304  42.285   7.681   4.987
36237W        W 9305  40.756   4.777   4.176
36238W        W 9306  18.512  22.473  12.814
36239W        W 9307  37.564  10.540  11.091
36240W        W 9308  32.394  24.194  13.597
36241W        W 9309  24.472   1.965  11.969
36242W        W 9310  22.982  17.538  13.400
36243W        W 9311  11.306  10.888  10.545
36244W        W 9312  33.542  30.885   2.632
36245W        W 9313  35.953  31.690   5.073
36246W        W 9314  24.052  15.618   5.025
36247W        W 9315  20.360  44.486   4.097
36248W        W 9316  20.030  38.780  14.869
36249W        W 9317  28.553  37.493  10.591
36250W        W 9318  24.495  25.617  12.761
36251W        W 9319  11.741  25.519  14.516
36252W        W 9320  26.146  25.419  13.883
36253W        W 9321  40.319  42.674  10.718
36254W        W 9322   8.784   3.771   4.109
36255W        W 9323  30.079  41.510  14.107
36256W        W 9324  32.159  15.844   4.621
36257W        W 9325  19.851  26.290  12.378
36258W        W 9326  12.700  22.149   1.203
36259W        W 9327   4.434  12.626  13.381
36260W        W 9328  28.073  33.832   1.478
36261W        W 9329   2.834  18.734  10.828
36262W        W 9330  15.224  34.931   0.650
36263W        W 9331  38.331  26.252   4.647
36264W        W 9332  12.705  13.253   4.139
36265W        W 9333  27.124   9.758   2.780
36266W        W 9334  23.815   9.426   2.548
36267W        W 9335  29.956   7.402  13.902
36268W        W 9336  35.507  20.716   1.177
36269W        W 9337  25.264  32.352   2.382
36270W        W 9338  29.379   1.739   4.152
36271W        W 9339  22.280  29.400  12.466
36272W        W 9340  22.495  13.272  13.249
36273W        W 9341  24.463  23.958   3.214
36274W        W 9342  37.006  39.335  11.174
36275W        W 9343   7.346  34.605  11.564
36276W        W 9344  35.406  22.964   1.853
36277W        W 9345   7.692  24.182   1.365
36278W        W 9346  35.893  35.132  12.748
36279W        W 9347   5.397  40.337   0.372
36280W        W 9348  31.008  44.884   3.926
36281W        W 9349  44.730   7.688  10.967
36282W        W 9350   5.184  38.764  11.627
36283W        W 9351  40.025   4.706  12.089
36284W        W 9352  11.869   2.396  14.774
36285W        W 9353   1.310  22.991  12.832
36286W        W 9354  26.943   1.777  14.326
36287W        W 9355  11.399  42.824   2.245
36288W        W 9356  28.119  24.279   4.612
36289W        W 9357  44.788  32.614   2.961
36290W        W 9358  21.993  16.717  14.051
36291W        W 9359  30.424  29.544   1.794
36292W        W 9360  31.389  11.265   1.726
36293W        W 9361  16.976  37.814  13.423
36294W        W 9362  26.855  38.447  12.006
36295W        W 9363  39.585   5.697  11.088
36296W        W 9364  16.578  27.029   2.869
36297W        W 9365   2.216  15.200   1.743
36298W        W 9366  37.006  25.433  10.665
36299W        W 9367  12.630  38.021  14.756
36300W        W 9368  29.885  24.120   0.339
36301W        W 9369  30.980  39.972   2.464
36302W        W 9370  32.834  33.465   4.617
36303W        W 9371  26.551  34.210  12.942
36304W        W 9372  41.530  13.881   5.036
36305W        W 9373   0.913  20.628   4.353
36306W        W 9374  27.894  21.217  14.252
36307W        W 9375   7.145  17.721  12.149
36308W        W 9376  27.540  21.604  11.828
36309W        W 9377  15.648  24.521   4.090
36310W        W 9378  27.022  18.070   2.910
36311W        W 9379   5.202  19.701  11.984
36312W        W 9380  41.335  41.463   0.475
36313W        W 9381   4.644  33.052   3.945
36314W        W 9382  36.446  31.020   5.516
36315W        W 9383  26.877  23.680  14.041
36316W        W 9384  28.535  24.539   0.765
36317W        W 9385  17.206  26.059  12.749
36318W        W 9386  34.866  28.325  13.350
36319W        W 9387  28.949  19.793   1.313
36320W        W 9388  21.252   0.949   3.360
36321W        W 9389  12.757  27.423   4.403
36322W        W 9390  35.224  22.615   3.780
36323W        W 9391  33.155  44.431  12.497
36324W        W 9392   9.810  42.253   3.902
36325W        W 9393  12.640  32.836   0.032
36326W        W 9394  26.220  19.486   3.633
36327W        W 9395  30.225  27.355   4.547
36328W        W 9396  34.405  35.407   4.598
36329W        W 9397  35.786   3.240   0.827
36330W        W 9398  36.122  26.658   0.896
36331W        W 9399   1.431   2.673  14.889
36332W        W 9400  13.810  15.520  11.064
36333W        W 9401   4.733  37.364  13.110
36334W        W 9402  12.304   9.675   2.140
36335W        W 9403  18.575  35.248   1.964
36336W        W 9404  40.551  28.957   4.126
36337W        W 9405  11.316  21.293   2.952
36338W        W 9406  24.449  26.239   5.082
36339W        W 9407   0.495  33.126  12.397
36340W        W 9408  28.429  37.524   0.276
36341W        W 9409  22.758  16.798   2.253
36342W        W 9410  42.290  40.345  10.650
36343W        W 9411  39.193   3.237  11.991
36344W        W 9412  22.819  20.080   1.757
36345W        W 9413  27.482  43.374  13.536
36346W        W 9414  13.122  12.430   4.096
36347W        W 9415  39.185  42.318   3.655
36348W        W 9416  39.530  12.622  11.372
36349W        W 9417  10.941  42.891   0.329
36350W        W 9418  22.759  12.171   2.293
36351W        W 9419   3.441  18.513   3.760
36352W        W 9420   3.951  37.308   2.978
36353W        W 9421  13.203   9.750   2.192
36354W        W 9422   6.363  14.038  14.767
36355W        W 9423  27.500  41.376   1.585
36356W        W 9424  27.929  20.492   1.354
36357W        W 9425  36.860  36.656   3.641
36358W        W 9426  26.012  16.017   2.818
36359W        W 9427  37.564  21.331  12.722
36360W        W 9428  22.580  42.242  11.549
36361W        W 9429  24.616  20.077   1.663
36362W        W 9430  25.537   9.088   5.069
36363W        W 9431  13.770  34.532  13.918
36364W        W 9432   9.878  37.867   3.202
36365W        W 9433  35.066  31.594   4.095
36366W        W 9434  37.549  21.640  13.948
36367W        W 9435  32.026   6.191  11.906
36368W        W 9436  14.167  28.439   0.302
36369W        W 9437  13.658  26.032  12.897
36370W        W 9438  10.800  13.647   4.275
36371W        W 9439  13.320   3.526   0.760
36372W        W 9440  22.624   7.822  10.581
36373W        W 9441  15.647  42.405   2.234
36374W        W 9442   1.492  28.476   3.279
36375W        W 9443  23.282  15.263  13.053
36376W        W 9444  33.114  14.392  10.556
36377W        W 9445  14.891  23.513   4.656
36378W        W 9446   0.906  24.079   3.264
36379W        W 9447  14.218  13.075  11.000
36380W        W 9448  25.720   7.417   3.759
36381W        W 9449  36.412  21.374  12.101
36382W        W 9450  14.584  13.051  14.833
36383W        W 9451  28.639  14.053   1.378
36384W        W 9452   2.643  10.643   1.666
36385W        W 9453  14.650   5.887   0.250
36386W        W 9454  12.385   9.282  14.952
36387W        W 9455  40.747  19.673   4.217
36388W        W 9456  27.057  21.233   3.253
36389W        W 9457  23.577  35.993   1.189
36390W        W 9458  36.557  26.258   0.035
36391W        W 9459  16.106  40.625  11.709
36392W        W 9460  30.467  27.214   2.809
36393W        W 9461  11.284  30.682   2.364
36394W        W 9462   2.937  16.330  12.089
36395W        W 9463   7.269  25.397   2.356
36396W        W 9464  27.221  30.151  10.718
36397W        W 9465   9.736  13.803   4.199
36398W        W 9466  27.030  34.071  10.617
36399W        W 9467  31.963  41.463  11.488
36400W        W 9468   6.705  22.286  11.637
36401W        W 9469  22.775  41.119   1.925
36402W        W 9470   6.326  39.964   3.238
36403W        W 9471  26.278  20.742  10.673
36404W        W 9472  44.862  19.656   2.558
36405W        W 9473   4.251   6.531   0.346
36406W        W 9474  23.965  22.095   3.246
36407W        W 9475  41.313  24.709   1.733
36408W        W 9476  21.678  16.257   1.217
36409W        W 9477  14.905  26.516  14.815
36410W        W 9478  32.695  39.040  10.780
36411W        W 9479  38.968   7.411  10.184
36412W        W 9480  41.892  17.767  12.391
36413W        W 9481  28.010   2.590   0.170
36414W        W 9482  41.960  29.425   0.381
36415W        W 9483  15.592  44.231   4.433
36416W        W 9484  11.702  37.002  10.695
36417W        W 9485  43.416  36.654  12.871
36418W        W 9486  10.262  42.399  14.907
36419W        W 9487  23.741  34.686   0.316
36420W        W 9488  38.307  36.450  14.817
36421W        W 9489   3.981  21.209   0.212
36422W        W 9490  16.772  28.971   0.765
36423W        W 9491  44.256  36.484  14.938
36424W        W 9492   1.441  25.524  14.379
36425W        W 9493  35.092  19.119   2.859
36426W        W 9494  32.368  40.447  13.852
36427W        W 9495  35.677  39.959  13.370
36428W        W 9496  18.768  39.983  14.880
36429W        W 9497  28.181  28.414   0.343
36430W        W 9498  28.013  26.461   1.398
36431W        W 9499  36.802  40.537  14.855
36432W        W 9500  24.431  21.198  14.042
36433W        W 9501   9.286  21.260  11.056
36434W        W 9502  34.118  31.201  13.029
36435W        W 9503   7.711  10.257  14.482
36436W        W 9504  26.467  19.782   0.392
36437W        W 9505  25.201  14.811  10.627
36438W        W 9506  30.818  16.466  13.577
36439W        W 9507   1.427  36.699   2.233
36440W        W 9508  22.616  39.475  11.227
36441W        W 9509  21.509   1.481   9.825
36442W        W 9510  20.043  27.131  11.123
36443W        W 9511   0.245  33.328   1.926
36444W        W 9512   1.163  37.415   4.487
36445W        W 9513   0.723  20.699   2.851
36446W        W 9514  18.112   1.591  13.103
36447W        W 9515   8.032   1.838   1.248
36448W        W 9516   2.412   3.877   0.095
36449W        W 9517  33.825  31.763   2.324
36450W        W 9518  25.075  14.716   4.985
36451W        W 9519  15.825  13.882   1.963
36452W        W 9520  25.943  40.871  13.015
36453W        W 9521   9.324  22.296  11.099
36454W        W 9522  10.887  22.349   0.015
36455W        W 9523  44.399  38.029   0.738
36456W        W 9524   8.501  26.757   4.585
36457W        W 9525  14.594   3.694  12.429
36458W        W 9526   3.259  36.863   3.553
36459W        W 9527  10.786  35.549   2.303
36460W        W 9528   3.169  35.587   1.787
36461W        W 9529  20.245   1.909  12.889
36462W        W 9530  25.670  41.418  10.580
36463W        W 9531   2.464  35.234   3.633
36464W        W 9532  34.623  40.256   4.741
36465W        W 9533  36.641  29.505   0.966
36466W        W 9534  29.447  17.233   1.396
36467W        W 9535  24.089   2.679  13.306
36468W        W 9536  11.335   2.989   1.867
36469W        W 9537   6.495   5.870   1.375
36470W        W 9538  24.083  22.591   0.388
36471W        W 9539  11.671  28.154  10.543
36472W        W 9540  25.790  40.429   4.099
36473W        W 9541  19.605  35.597   2.048
36474W        W 9542  38.271   8.329  11.204
36475W        W 9543  30.368  35.653  11.435
36476W        W 9544  13.644  35.832  14.827
36477W        W 9545  36.100  28.647  10.699
36478W        W 9546  24.598  44.180   2.884
36479W        W 9547   3.965   7.292   0.262
36480W        W 9548  12.736  44.857  11.562
36481W        W 9549  22.028   8.265  11.014
36482W        W 9550   2.736   6.545  11.402
36483W        W 9551  33.811  10.794   2.832
36484W        W 9552  33.812  42.422   0.795
36485W        W 9553  30.591   3.556  14.918
36486W        W 9554  15.218  26.527  11.229
36487W        W 9555  36.575  10.377  14.420
36488W        W 9556  33.110   5.798   3.208
36489W        W 9557  26.040  31.857   5.079
36490W        W 9558  40.791   3.860   2.429
36491W        W 9559   8.092   6.849   1.849
36492W        W 9560  37.441  33.859  13.058
36493W        W 9561  40.322  37.957  11.852
36494W        W 9562  25.152   7.391   2.712
36495W        W 9563  13.366  12.533   2.384
36496W        W 9564  18.131  35.843  14.928
36497W        W 9565   1.263  35.268  13.099
36498W        W 9566  41.419   0.270   5.080
36499W        W 9567   7.851  44.217  12.073
36500W        W 9568  24.251  32.099  10.436
36501W        W 9569  36.041  33.321   0.895
36502W        W 9570  33.003   2.552  12.110
36503W        W 9571  26.694  16.758   2.263
36504W        W 9572  14.535  41.553  11.927
36505W        W 9573  40.074  36.999   0.801
36506W        W 9574  37.710  30.443   2.283
36507W        W 9575  34.545   8.846   0.066
36508W        W 9576   2.159  25.980   4.211
36509W        W 9577  36.419  38.386   1.179
36510W        W 9578  36.110  23.161   1.423
36511W        W 9579   9.679  12.942  14.868
36512W        W 9580  21.742   0.770   0.348
36513W        W 9581  41.936   0.246  13.861
36514W        W 9582   4.964   7.633  14.204
36515W        W 9583  11.188  17.834   4.117
36516W        W 9584   8.205  30.409  12.207
36517W        W 9585  25.107  41.017   4.554
36518W        W 9586  27.215  40.246  12.193
36519W        W 9587  36.862  27.211   0.882
36520W        W 9588  42.521  36.367  11.521
36521W        W 9589  39.981  21.146  11.133
36522W        W 9590  38.926  26.039   1.863
36523W        W 9591  15.671  38.274  10.312
36524W        W 9592  27.389  13.540  10.764
36525W        W 9593  37.049  24.560  10.659
36526W        W 9594  18.087  38.265  12.343
36527W        W 9595  14.226  15.379  11.538
36528W        W 9596  16.352   5.471   0.007
36529W        W 9597  21.694  11.374  13.048
36530W        W 9598  40.521  36.051   1.433
36531W        W 9599   7.911  36.970   3.210
36532W        W 9600  10.151  15.285   4.777
36533W        W 9601  40.780  37.911   2.942
36534W        W 9602   2.476  40.716   3.371
36535W        W 9603  30.433  33.132   4.602
36536W        W 9604  19.524   0.071   2.737
36537W        W 9605  34.861  14.794   0.444
36538W        W 9606  43.239  35.560   1.647
36539W        W 9607  33.218   6.732   2.652
36540W        W 9608  20.172  36.024   2.305
36541W        W 9609  40.312  34.398   4.152
36542W        W 9610   4.397  44.239  12.348
36543W        W 9611  32.614   1.607  12.062
36544W        W 9612   9.348  33.364  11.136
36545W        W 9613  36.163  13.581   2.399
36546W        W 9614   4.282   8.761   1.549
36547W        W 9615  40.677  33.706  14.870
36548W        W 9616  22.445  35.626   1.925
36549W        W 9617  14.086  41.529   0.796
36550W        W 9618   5.390  24.789  12.929
36551W        W 9619  39.322   6.313   9.833
36552W        W 9620  15.975  19.197   4.036
36553W        W 9621   7.719  22.454   0.417
36554W        W 9622  15.836  25.818  13.423
36555W        W 9623  18.329   6.741   0.465
36556W        W 9624   9.251  35.088   0.543
36557W        W 9625   4.916   5.721   4.197
36558W        W 9626  17.296   0.045   3.276
36559W        W 9627  12.204  16.331   2.869
36560W        W 9628  34.127  11.155  14.318
36561W        W 9629  20.586   6.724   4.341
36562W        W 9630  23.141   8.581  11.549
36563W        W 9631  17.067  25.660   2.449
36564W        W 9632   2.551  43.939  13.124
36565W        W 9633  22.775  31.782   5.522
36566W        W 9634  31.504  31.313  12.597
36567W        W 9635  14.627  40.331   1.688
36568W        W 9636  16.740  42.219   0.412
36569W        W 9637  22.082  24.092  14.515
36570W        W 9638  36.182  37.887   0.907
36571W        W 9639  21.581  10.129  13.097
36572W        W 9640  33.089  43.043   2.972
36573W        W 9641  22.998  44.418   2.231
36574W        W 9642  28.632   3.832   0.179
36575W        W 9643  23.926  35.889   1.976
36576W        W 9644  27.849   0.181  12.861
36577W        W 9645  21.612  20.054   2.959
36578W        W 9646  20.341  43.064  14.756
36579W        W 9647  38.102  13.867   0.283
36580W        W 9648  18.124   6.692   2.305
36581W        W 9649   0.029   5.898  14.411
36582W        W 9650  11.339  25.353   1.254
36583W        W 9651  34.419   9.810  11.722
36584W        W 9652  25.419  16.752   3.723
36585W        W 9653   0.368   4.026   4.293
36586W        W 9654  16.017  32.015  12.876
36587W        W 9655  37.116  31.851  11.631
36588W        W 9656   0.295  31.355  12.043
36589W        W 9657  40.918   4.247   0.645
36590W        W 9658  43.565  25.552   3.314
36591W        W 9659  26.341  11.594  12.478
36592W        W 9660  42.716  18.815  13.029
36593W        W 9661  16.354  15.578   1.659
36594W        W 9662  33.061  32.626  13.605
36595W        W 9663  37.621  34.089   0.182
36596W        W 9664  24.058   7.191  10.475
36597W        W 9665  44.691  26.676  11.957
36598W        W 9666  18.824  31.652   1.451
36599W        W 9667  21.563  15.868  11.421
36600W        W 9668  35.302  11.814  10.764
36601W        W 9669  16.851   0.336  12.082
36602W        W 9670   9.432  17.639   1.403
36603W        W 9671  29.435  40.028  12.965
36604W        W 9672  35.597  18.044  10.648
36605W        W 9673  19.031   0.900  11.503
36606W        W 9674   7.512  12.590  13.509
36607W        W 9675  33.576  44.838   0.520
36608W        W 9676  33.112  42.255   4.254
36609W        W 9677   3.382  17.414   1.221
36610W        W 9678  19.596  25.618   4.570
36611W        W 9679  21.132  25.759   1.204
36612W        W 9680  32.159  16.226  11.895
36613W        W 9681   8.266  15.720   2.828
36614W        W 9682  37.884  29.108  14.312
36615W        W 9683  15.568  15.458   1.223
36616W        W 9684  34.796  22.618   1.345
36617W        W 9685  25.417  17.029   3.257
36618W        W 9686  21.541  27.097   4.498
36619W        W 9687   4.905  19.077  13.365
36620W        W 9688  19.335  15.567  11.173
36621W        W 9689  44.615  12.827   3.580
36622W        W 9690  43.401   0.917   0.447
36623W        W 9691  19.130  18.102   3.862
36624W        W 9692  18.584  11.590  12.520
36625W        W 9693   2.004  44.212   5.147
36626W        W 9694   8.305  44.104  11.222
36627W        W 9695  23.613  37.997  12.049
36628W        W 9696   1.953   9.714   3.593
36629W        W 9697  42.468  34.836  11.635
36630W        W 9698  18.818  28.265  11.041
36631W        W 9699   3.947  31.439   0.945
36632W        W 9700   3.210  11.134   1.279
36633W        W 9701  21.240   7.783   3.298
36634W        W 9702  27.313  32.495   2.525
36635W        W 9703  10.398  36.497  13.552
36636W        W 9704  35.548  14.280   0.354
36637W        W 9705  22.555  40.942  14.812
36638W        W 9706  15.202  41.230   1.693
36639W        W 9707  13.402   1.632  10.241
36640W        W 9708  42.596  22.960   3.246
36641W        W 9709  29.149  27.344  11.171
36642W        W 9710  29.178  21.538  11.614
36643W        W 9711   0.471   5.272   0.189
36644W        W 9712  10.264  16.675   4.134
36645W        W 9713   4.531  29.536  13.762
36646W        W 9714  31.244   8.472  11.485
36647W        W 9715  27.142   8.345   3.868
36648W        W 9716  32.800  12.587   3.450
36649W        W 9717  15.518  23.614   1.685
36650W        W 9718   2.490  31.700   4.853
36651W        W 9719  31.341   1.408  11.397
36652W        W 9720  29.051   6.829   2.918
36653W        W 9721   3.873   7.623  10.699
36654W        W 9722  43.781  26.022   0.407
36655W        W 9723   1.267  42.441  14.278
36656W        W 9724   0.799  41.984   2.664
36657W        W 9725  32.211   5.797  14.485
36658W        W 9726  44.458   0.215  13.014
36659W        W 9727  17.682  35.563  14.903
36660W        W 9728  19.122  34.259  11.006
36661W        W 9729  18.733   9.936   4.633
36662W        W 9730  25.201   7.938   5.195
36663W        W 9731   6.899  26.222  12.042
36664W        W 9732  31.644  33.753   2.309
36665W        W 9733  35.306   2.610   3.377
36666W        W 9734  13.610  11.373   3.693
36667W        W 9735   8.687   9.244  14.381
36668W        W 9736  20.692  41.921  14.934
36669W        W 9737   1.675   5.662  11.034
36670W        W 9738  18.721  35.928  11.522
36671W        W 9739  37.581  34.406   2.881
36672W        W 9740  29.109  39.784  12.356
36673W        W 9741  13.265  10.635   1.825
36674W        W 9742  16.561  14.663   0.771
36675W        W 9743  32.435  34.186   2.223
36676W        W 9744  28.640  29.004   1.635
36677W        W 9745  26.270  21.718  14.074
36678W        W 9746  12.399  44.611   2.128
36679W        W 9747  44.348  12.812  11.615
36680W        W 9748  28.761   5.784   1.308
36681W        W 9749   0.864  26.002  10.642
36682W        W 9750  41.053   5.517   0.414
36683W        W 9751  16.340  13.827   1.895
36684W        W 9752  33.523  37.797   0.682
36685W        W 9753  20.939  18.093  12.887
36686W        W 9754  11.243   1.910  13.010
36687W        W 9755   5.302  36.974   2.824
36688W        W 9756  28.733  43.850  14.825
36689W        W 9757   6.399  16.406   4.100
36690W        W 9758  28.267  29.626  12.060
36691W        W 9759  28.786   3.251  14.647
36692W        W 9760  34.539  43.456   4.033
36693W        W 9761  44.828  25.007   3.441
36694W        W 9762  40.902   2.871  13.394
36695W        W 9763  36.765  12.031  13.650
36696W        W 9764  17.104   5.730  14.482
36697W        W 9765  16.556  11.084  12.396
36698W        W 9766  25.343  43.058  14.908
36699W        W 9767  10.309  15.097   4.297
36700W        W 9768  37.746  17.721   2.236
36701W        W 9769  17.019  19.364   3.684
36702W        W 9770   2.729   3.306  12.414
36703W        W 9771  40.837  20.982  12.437
36704W        W 9772  30.729  43.731   1.468
36705W        W 9773   1.292  39.142   4.318
36706W        W 9774  20.607  34.375   4.175
36707W        W 9775  42.685  19.310  12.943
36708W        W 9776  44.442  24.550   1.755
36709W        W 9777   0.420   5.138  11.187
36710W        W 9778  23.322   2.729   0.244
36711W        W 9779  32.139  33.678   4.229
36712W        W 9780  39.900  25.405   3.178
36713W        W 9781  15.766  13.878  13.549
36714W        W 9782  40.438  40.659  11.530
36715W        W 9783   8.438  15.501   1.458
36716W        W 9784  18.812  24.538  12.119
36717W        W 9785  24.645  19.229   3.215
36718W        W 9786  38.872  35.954  14.405
36719W        W 9787  28.640  40.449   1.337
36720W        W 9788  44.407  40.527   0.194
36721W        W 9789  12.011  32.907  11.736
36722W        W 9790  26.441  22.142  12.935
36723W        W 9791  33.843  15.347   4.221
36724W        W 9792  34.306  44.299  11.079
36725W        W 9793  19.793  17.636   4.163
36726W        W 9794  26.117  11.845   3.919
36727W        W 9795   9.152  15.696  13.029
36728W        W 9796   2.347  41.158  14.681
36729W        W 9797  41.715  34.001  10.690
36730W        W 9798  40.913  32.544   2.666
36731W        W 9799  12.815   1.460   2.701
36732W        W 9800  19.630  19.262  12.863
36733W        W 9801  29.690  14.201   4.046
36734W        W 9802  21.453  15.806  12.354
36735W        W 9803  13.111  10.076  11.689
36736W        W 9804   6.246   9.659  14.569
36737W        W 9805  30.078  15.141   4.335
36738W        W 9806  44.762   4.955  10.753
36739W        W 9807  10.761  37.060  13.039
36740W        W 9808  10.450   9.433  14.824
36741W        W 9809  25.634  42.472   0.721
36742W        W 9810  24.532  25.192  14.600
36743W        W 9811  24.295  19.053   0.939
36744W        W 9812  36.470  21.557  10.706
36745W        W 9813  35.233  37.805  11.575
36746W        W 9814  31.162  36.338  13.439
36747W        W 9815  34.716  10.413   4.107
36748W        W 9816  23.643  42.917  11.139
36749W        W 9817  22.149   6.623  12.071
36750W        W 9818  28.617  12.047   1.107
36751W        W 9819  26.516  40.045  10.033
36752W        W 9820   7.170  35.874   4.551
36753W        W 9821  14.238  44.854  13.813
36754W        W 9822  19.198  43.967  14.947
36755W        W 9823  39.528  34.497   1.462
36756W        W 9824   2.167  11.201  11.074
36757W        W 9825  34.922  38.639  10.865
36758W        W 9826  25.152  36.892  10.338
36759W        W 9827  43.429   1.789   2.209
36760W        W 9828   5.694  41.478  13.824
36761W        W 9829  24.206  25.517   2.607
36762W        W 9830  28.486   0.635  13.454
36763W        W 9831  22.500  28.133  11.383
36764W        W 9832  39.338  16.171   1.302
36765W        W 9833   8.092  28.215   1.991
36766W        W 9834  21.550  35.440   0.950
36767W        W 9835  14.589  18.210   4.113
36768W        W 9836  43.511   0.232  12.949
36769W        W 9837   2.489  33.966   4.501
36770W        W 9838  26.208  35.377  11.098
36771W        W 9839  44.222  22.040  14.548
36772W        W 9840   6.997  32.006   0.675
36773W        W 9841   7.284  38.326   1.222
36774W        W 9842  41.772   1.694   2.169
36775W        W 9843   2.999  18.454  13.882
36776W        W 9844  18.672  34.605  11.777
36777W        W 9845  42.813  28.770  10.638
36778W        W 9846  44.562  38.812  12.452
36779W        W 9847  38.726   9.306   4.285
36780W        W 9848  24.712   5.780   3.870
36781W        W 9849  21.064  19.709   5.362
36782W        W 9850   7.756  18.318  14.924
36783W        W 9851  22.218  37.384   5.049
36784W        W 9852  42.721  22.638  12.129
36785W        W 9853  20.705  26.725  12.399
36786W        W 9854  31.573   7.251  12.626
36787W        W 9855  13.741  34.582   3.727
36788W        W 9856  20.741   2.856  12.428
36789W        W 9857  22.153  27.747   0.517
36790W        W 9858  36.897  23.742   2.873
36791W        W 9859  37.900   8.944   3.808
36792W        W 9860  17.700  30.342  10.589
36793W        W 9861   9.843   7.805  12.291
36794W        W 9862  43.357  32.459  11.450
36795W        W 9863  14.626  21.207  13.452
36796W        W 9864  18.136  14.767   3.211
36797W        W 9865   8.673  20.567  14.971
36798W        W 9866  39.086  29.271  12.331
36799W        W 9867   4.359  31.705   3.557
36800W        W 9868  11.438   6.113  12.386
36801W        W 9869  30.473  40.953  11.386
36802W        W 9870  43.677  42.934   4.525
36803W        W 9871  21.136  19.813   3.009
36804W        W 9872  22.046  36.263  12.430
36805W        W 9873  39.513   0.737  13.447
36806W        W 9874   4.888   4.656  12.425
36807W        W 9875  32.088   9.815   0.646
36808W        W 9876  41.523  42.496  13.620
36809W        W 9877  25.759  34.562   2.745
36810W        W 9878  37.834   9.530   3.139
36811W        W 9879  26.134  10.425   5.053
36812W        W 9880  41.131  41.437  11.195
36813W        W 9881  30.185  23.964   0.766
36814W        W 9882  35.356  37.295   3.322
36815W        W 9883  29.422  17.598   2.719
36816W        W 9884  30.534  32.311  12.483
36817W        W 9885  18.805   1.171  13.420
36818W        W 9886  44.736  36.052  12.033
36819W        W 9887   4.318  16.342   1.216
36820W        W 9888  11.564  36.397   3.163
36821W        W 9889  19.065   3.483   3.198
36822W        W 9890  17.326  18.075  13.462
36823W        W 9891  25.846  11.746  13.291
36824W        W 9892  44.826  13.403  12.940
36825W        W 9893  34.617  23.116   0.467
36826W        W 9894  23.284  19.481  11.893
36827W        W 9895  38.219  39.407  13.235
36828W        W 9896   2.880  36.658  13.831
36829W        W 9897   4.507   2.763  11.631
36830W        W 9898   4.612  36.029   0.454
36831W        W 9899  37.502  28.362   0.462
36832W        W 9900  16.210  29.113  14.005
36833W        W 9901  12.627  33.756  12.524
36834W        W 9902  28.945  14.489   0.778
36835W        W 9903  32.341  27.217  14.997
36836W        W 9904  21.514   5.261   1.507
36837W        W 9905  16.109  24.652  14.804
36838W        W 9906  42.762  14.745  10.651
36839W        W 9907  36.603  28.029   0.467
36840W        W 9908  16.209  20.269  12.855
36841W        W 9909  29.960   2.847   4.809
36842W        W 9910   3.341  29.535   2.338
36843W        W 9911  27.544  40.036   0.262
36844W        W 9912   9.245   6.684  10.611
36845W        W 9913   2.248  39.879   0.171
36846W        W 9914   9.416  43.648   1.448
36847W        W 9915  22.563  35.610  11.543
36848W        W 9916  14.071   7.282   4.913
36849W        W 9917  27.591  32.298  12.233
36850W        W 9918  35.454   8.773   4.935
36851W        W 9919  44.437  41.751  12.950
36852W        W 9920  21.968  25.133   5.075
36853W        W 9921  25.934   9.719   1.738
36854W        W 9922   3.733  12.472  10.568
36855W        W 9923  43.633  39.063  13.792
36856W        W 9924  31.574   6.250  13.486
36857W        W 9925  16.405  15.403   0.884
36858W        W 9926  19.699  18.284  10.613
36859W        W 9927  20.067  13.647   3.675
36860W        W 9928  29.750   6.651   4.100
36861W        W 9929   2.800  32.975  10.648
36862W        W 9930   3.839  20.155   1.935
36863W        W 9931   4.262  15.683   2.909
36864W        W 9932  28.399   3.627  14.707
36865W        W 9933  30.606  29.724   4.161
36866W        W 9934  34.671  17.143  11.519
36867W        W 9935  26.359  19.996   0.853
36868W        W 9936  11.260  36.343  12.493
36869W        W 9937  34.375  32.236   4.561
36870W        W 9938  40.485  32.595   2.926
36871W        W 9939   8.908  11.821   4.360
36872W        W 9940  24.224  12.274  12.597
36873W        W 9941   8.182  25.706   0.029
36874W        W 9942  24.765  35.680  14.537
36875W        W 9943  25.554  14.153  13.327
36876W        W 9944  19.220   8.562  12.058
36877W        W 9945  36.112  37.062  10.672
36878W        W 9946  24.577  29.585  14.760
36879W        W 9947   7.670  36.407  11.045
36880W        W 9948  26.564  41.448  10.631
36881W        W 9949  13.317   8.048  14.269
36882W        W 9950  25.377   1.549  14.998
36883W        W 9951  40.411   5.432  14.764
36884W        W 9952  27.952  29.722   2.754
36885W        W 9953  40.574  22.037  11.974
36886W        W 9954   7.697  18.501   0.416
36887W        W 9955  34.863   6.421   0.030
36888W        W 9956  14.935  14.792   2.497
36889W        W 9957  17.061  42.711  11.784
36890W        W 9958  18.490  41.296  13.155
36891W        W 9959  23.651   8.824  10.710
36892W        W 9960  38.768  13.620  13.341
36893W        W 9961  39.398   4.324   3.304
36894W        W 9962  14.530  23.499   2.865
36895W        W 9963  28.143   6.225   3.625
36896W        W 9964  41.277  13.588   3.755
36897W        W 9965  10.629  18.376  12.907
36898W        W 9966  12.112   5.330   2.525
36899W        W 9967   1.853   9.810   0.924
36900W        W 9968  35.170  25.978   0.540
36901W        W 9969  12.881  33.378   1.900
36902W        W 9970  15.998  40.943  10.455
36903W        W 9971  42.326  21.007   1.854
36904W        W 9972  24.691  24.934   4.928
36905W        W 9973  44.233  13.763  13.589
36906W        W 9974   0.320  21.992  14.402
36907W        W 9975  41.176  32.514   4.726
36908W        W 9976   2.405  22.924  12.983
36909W        W 9977  33.354  35.127  13.879
36910W        W 9978  38.463  35.740   3.232
36911W        W 9979  43.245  12.446  12.780
36912W        W 9980  16.394  33.988   2.191
36913W        W 9981  41.368   6.468   3.779
36914W        W 9982  44.903   2.757  14.993
36915W        W 9983   7.337   7.696   2.293
36916W        W 9984   2.129  25.912  10.825
36917W        W 9985   7.818  21.973  12.014
36918W        W 9986   0.438   9.692  12.440
36919W        W 9987  32.069  29.682   2.088
36920W        W 9988  24.593  29.411  12.095
36921W        W 9989  28.063  38.069  14.238
36922W        W 9990   4.584   3.474   0.575
36923W        W 9991  23.766  11.873  12.478
36924W        W 9992  39.189  29.197   0.288
36925W        W 9993  41.981   6.031   2.453
36926W        W 9994  13.288  31.191  13.450
36927W        W 9995  13.201  44.532  13.874
36928W        W 9996   5.223  40.977   4.794
36929W        W 9997  11.747  16.203   1.339
36930W        W 9998  23.079   1.745   4.092
36931W        W 9999   1.954  39.917   3.570
36932W        W10000  37.800  34.391  11.174
36933W        W10001  26.240  12.823  11.134
36934W        W10002  28.243  36.003  10.642
36935W        W10003   3.926   9.906   1.654
36936W        W10004   2.801  39.808   1.436
36937W        W10005  37.422  35.402  14.854
36938W        W10006   3.555  17.548   0.214
36939W        W10007  10.196  29.460   3.306
36940W        W10008  19.276  42.587  13.816
36941W        W10009  34.576  42.745  14.408
36942W        W10010  29.249  11.241  11.551
36943W        W10011  27.973  11.895   3.704
36944W        W10012  44.924   1.971   3.578
36945W        W10013  23.825  30.310   1.391
36946W        W10014   6.906  30.358   4.640
36947W        W10015   2.428  25.380   0.478
36948W        W10016  13.979   2.484  13.468
36949W        W10017  11.916  40.151  13.881
36950W        W10018  42.365  35.547   0.710
36951W        W10019  24.638   2.914  12.465
36952W        W10020  29.248  32.943   2.579
36953W        W10021  23.520  25.235   4.168
36954W        W10022   9.629  19.746  12.388
36955W        W10023  24.437  13.720   2.746
36956W        W10024  38.975  39.174   0.490
36957W        W10025  24.388   3.961   4.231
36958W        W10026  29.226  16.750   1.360
36959W        W10027   0.452  27.410   4.171
36960W        W10028   1.445  35.980   3.305
36961W        W10029   6.866  41.953   0.418
36962W        W10030   5.933  17.220   1.121
36963W        W10031  18.122  44.800  11.594
36964W        W10032  42.776  26.159  14.488
36965W        W10033  17.622  13.975  13.049
36966W        W10034  26.563  25.616  14.442
36967W        W10035  26.619  27.983  14.938
36968W        W10036  18.606  20.476  13.883
36969W        W10037  23.939   3.443  13.716
36970W        W10038  18.903  29.666   1.033
36971W        W10039  27.609  16.814  13.964
36972W        W10040  20.443  38.216  14.347
36973W        W10041   3.486  32.981   0.320
36974W        W10042  26.573  35.154  12.972
36975W        W10043  15.058  33.920   3.263
36976W        W10044  15.391  33.500   4.520
36977W        W10045  30.458  43.683   3.991
36978W        W10046  22.180  31.507   4.304
36979W        W10047  33.578  28.700  12.970
36980W        W10048  13.849   1.930  12.980
36981W        W10049  28.864  27.914   2.785
36982W        W10050  37.126  18.223  13.069
36983W        W10051  40.849   8.775   3.432
36984W        W10052  22.152  18.296   0.804
36985W        W10053  16.060  15.641   1.224
36986W        W10054  10.253  41.418   0.702
36987W        W10055  32.690  10.231   4.289
36988W        W10056  34.998   3.337   1.489
36989W        W10057  32.066  23.425   0.921
36990W        W10058  11.396  42.279   2.226
36991W        W10059  37.422  14.942   0.294
36992W        W10060  11.183  13.329  13.469
36993W        W10061  43.828   1.194   3.814
36994W        W10062  29.994  37.472   1.351
36995W        W10063  24.764  37.827  14.400
36996W        W10064  29.047  44.536   3.678
36997W        W10065  23.317   3.350   4.543
36998W        W10066  10.150  14.927  14.937
36999W        W10067  34.024  15.511  11.885
37000W        W10068   1.446  14.561   3.607
37001W        W10069  41.575   1.846  14.777
37002W        W10070  29.183  21.048   2.345
37003W        W10071  21.194  36.362  11.206
37004W        W10072  15.065  12.994  11.933
37005W        W10073   2.369  34.030  14.118
37006W        W10074  20.627   9.109   3.804
37007W        W10075  20.386   0.212  10.340
37008W        W10076  36.938   6.725   2.846
37009W        W10077   4.729  14.388  10.248
37010W        W10078  18.205  20.163   2.752
37011W        W10079  14.134  37.009  12.359
37012W        W10080  31.659  36.225  12.311
37013W        W10081  24.031  28.347  12.219
37014W        W10082   8.951  31.455  13.570
37015W        W10083  42.784  35.474   1.427
37016W        W10084  26.090  44.421   3.166
37017W        W10085   9.162  30.953  12.784
37018W        W10086   2.580  25.944   1.899
37019W        W10087  31.909  43.297  12.158
37020W        W10088   1.936  22.530  14.391
37021W        W10089  23.683  12.911   0.454
37022W        W10090  12.206  17.655  11.213
37023W        W10091  21.874  42.423  13.806
37024W        W10092  19.793  43.868   3.363
37025W        W10093   1.007  33.897  13.906
37026W        W10094   2.853  13.231   4.608
37027W        W10095  38.956   3.339  13.840
37028W        W10096  43.184  43.859  13.053
37029W        W10097   3.428  41.105  11.139
37030W        W10098  24.122  27.903  12.484
37031W        W10099   0.358  37.734   3.617
37032W        W10100  32.880  42.382  11.905
37033W        W10101   9.216  18.836  10.912
37034W        W10102  16.158   2.764   4.151
37035W        W10103  42.724  17.631   0.255
37036W        W10104  23.207  22.501  11.197
37037W        W10105  40.996  29.571  13.111
37038W        W10106   0.494   6.889   4.767
37039W        W10107  30.240  44.333  12.105
37040W        W10108  38.416  43.354  13.430
37041W        W10109  36.910  27.789  14.998
37042W        W10110  43.674   5.727  14.817
37043W        W10111  33.941  42.697   4.491
37044W        W10112  22.135  23.469  13.315
37045W        W10113  25.793  42.041   3.408
37046W        W10114  10.793   1.435   3.774
37047W        W10115  32.460  23.241  11.135
37048W        W10116  14.152  37.902   4.252
37049W        W10117  37.126  43.264  13.434
37050W        W10118  44.272  26.177   0.438
37051W        W10119   5.310  25.114   3.582
37052W        W10120  15.278  34.055  13.110
37053W        W10121   2.664  22.748   2.306
37054W        W10122   6.734  14.491  11.907
37055W        W10123  33.370  37.547   1.889
37056W        W10124  15.067  33.781  11.647
37057W        W10125  12.177  15.996   2.444
37058W        W10126   5.502  24.701   3.300
37059W        W10127  31.198  41.773   2.338
37060W        W10128  36.063  35.404   1.702
37061W        W10129  30.267  12.860  12.885
37062W        W10130  22.959   3.205   0.878
37063W        W10131   0.307  20.269  12.102
37064W        W10132   4.197  32.809  14.089
37065W        W10133  21.808  15.041   2.837
37066W        W10134  32.423  42.739  13.401
37067W        W10135  38.407   5.025  12.844
37068W        W10136   7.873  30.114  14.038
37069W        W10137  15.877  21.641   2.628
37070W        W10138  15.280  34.828  12.447
37071W        W10139  43.790  18.274   3.767
37072W        W10140  17.727  35.280   0.394
37073W        W10141  11.148  34.709   4.150
37074W        W10142  44.748  14.512   0.332
37075W        W10143  17.203  25.661   2.953
37076W        W10144  10.248  21.994   1.437
37077W        W10145  40.974  40.902  14.844
37078W        W10146  27.143  17.598   3.260
37079W        W10147  38.326  20.783  14.564
37080W        W10148  40.524  34.936   5.068
37081W        W10149  17.745  10.435   1.351
37082W        W10150  44.973  19.638   4.594
37083W        W10151  15.156  28.145   0.167
37084W        W10152  15.818   5.638   1.759
37085W        W10153  41.246  30.051  12.964
37086W        W10154  29.721   3.934  11.581
37087W        W10155  27.346  23.537   4.702
37088W        W10156  26.875   6.682  12.490
37089W        W10157  27.889   3.936  13.827
37090W        W10158   2.975  38.412   0.662
37091W        W10159  17.874  34.131   3.816
37092W        W10160   9.941  43.093   1.814
37093W        W10161   1.960   4.392  12.845
37094W        W10162  11.452  12.963   0.855
37095W        W10163  16.938  34.090  13.016
37096W        W10164   7.237  35.610  14.825
37097W        W10165  36.338   2.261  11.100
37098W        W10166  38.351  21.763   4.950
37099W        W10167  36.615  27.094  11.077
37100W        W10168  17.374  23.563   2.734
37101W        W10169  41.930  41.621  11.538
37102W        W10170  17.635  31.876   3.645
37103W        W10171  44.352  42.046   4.280
37104W        W10172  35.984  32.696   2.804
37105W        W10173  41.107  41.784  11.593
37106W        W10174  13.124  12.536  10.791
37107W        W10175  12.380   9.321  12.515
37108W        W10176  24.245  21.209   4.202
37109W        W10177   3.277  34.872  12.847
37110W        W10178   1.950  32.418  11.634
37111W        W10179  32.452  10.349   1.792
37112W        W10180   6.784  37.338   2.761
37113W        W10181  32.122   5.590   4.634
37114W        W10182  40.306  15.616  14.353
37115W        W10183  38.305  42.174   0.809
37116W        W10184  16.837  22.254  13.272
37117W        W10185  32.630  23.126  13.056
37118W        W10186   9.262  23.392  13.773
37119W        W10187  37.871   3.339   2.410
37120W        W10188   6.436  22.304  12.060
37121W        W10189   8.629  28.108  13.764
37122W        W10190   5.308  42.326  13.918
37123W        W10191  15.320  21.290  12.996
37124W        W10192   0.080  23.131   1.847
37125W        W10193  17.209   5.192   2.824
37126W        W10194  37.964  26.032   4.333
37127W        W10195  43.536  30.398  14.842
37128W        W10196  18.168  32.456   0.260
37129W        W10197  38.241  38.463   4.204
37130W        W10198  30.646  16.147   2.120
37131W        W10199   8.708  37.413   5.107
37132W        W10200  15.715  36.005  14.944
37133W        W10201  14.149  32.610   1.970
37134W        W10202  30.849  14.387  14.889
37135W        W10203  10.429   4.342  10.179
37136W        W10204  20.080  24.498  13.113
37137W        W10205  28.539   8.459  11.099
37138W        W10206  19.806   6.113   0.868
37139W        W10207  36.149  35.460  13.480
37140W        W10208  41.153   3.945  10.636
37141W        W10209  26.025   4.316  11.948
37142W        W10210  15.638   1.973  11.144
37143W        W10211  32.021  22.831  14.370
37144W        W10212   0.493   5.884  11.666
37145W        W10213  30.142  11.242  14.039
37146W        W10214  42.987  10.036  12.176
37147W        W10215   7.565  31.983   2.875
37148W        W10216   3.377  42.480   2.352
37149W        W10217  16.077  37.568   0.470
37150W        W10218  17.205   9.833  11.629
37151W        W10219  10.774  34.873   1.866
37152W        W10220  41.638  34.545  14.979
37153W        W10221  10.639   0.443  10.742
37154W        W10222  26.957  15.294   0.315
37155W        W10223  34.910  37.373   0.272
37156W        W10224   4.294  44.827  14.013
37157W        W10225  31.247  32.697   3.744
37158W        W10226  24.413  10.180  14.995
37159W        W10227  11.853  11.072   4.134
37160W        W10228   4.887   9.608  14.367
37161W        W10229  21.656   0.898   2.625
37162W        W10230  20.747  17.365  12.418
37163W        W10231  39.516  22.945  12.855
37164W        W10232  21.121  34.373  14.036
37165W        W10233  16.341  37.325  14.719
37166W        W10234  41.703  28.669  11.789
37167W        W10235   9.919  30.659   3.054
37168W        W10236  22.162  34.234   1.321
37169W        W10237  25.037  23.682   0.432
37170W        W10238  36.902  22.107   2.150
37171W        W10239   1.751  11.906  13.426
37172W        W10240  38.358  12.445  14.389
37173W        W10241   2.707  42.569  13.926
37174W        W10242  33.832   1.022   1.813
37175W        W10243  23.835  39.581  11.110
37176W        W10244  13.704   9.458   3.366
37177W        W10245   0.873  36.380  12.367
37178W        W10246  44.465   4.879  10.323
37179W        W10247  12.405  37.877   4.617
37180W        W10248   9.258  11.389  11.543
37181W        W10249   3.206  21.034   4.512
37182W        W10250   0.493  26.439  12.966
37183W        W10251  19.127  20.143   4.591
37184W        W10252  37.888  30.755   1.898
37185W        W10253  18.239  36.587  13.602
37186W        W10254   4.795  39.761   2.879
37187W        W10255  38.079  19.627  11.255
37188W        W10256   2.896  27.661  13.346
37189W        W10257  28.654  29.799   1.713
37190W        W10258  25.216  10.187   2.388
37191W        W10259  24.144  11.110  14.397
37192W        W10260  17.161  39.002   3.702
37193W        W10261  19.645   5.893  11.657
37194W        W10262  21.737  18.666  11.541
37195W        W10263   0.303  26.790  12.411
37196W        W10264   7.323  41.196  13.520
37197W        W10265  39.268  16.665   3.690
37198W        W10266   8.042   0.054  11.984
37199W        W10267  30.977  34.561  14.540
37200W        W10268  18.625  16.488  11.868
37201W        W10269  31.451   0.658   0.784
37202W        W10270  35.572  11.387   3.815
37203W        W10271  35.954  11.756   0.876
37204W        W10272   3.441  23.688  11.970
37205W        W10273  22.019  22.234   2.283
37206W        W10274  15.632  37.952   0.806
37207W        W10275  39.513   7.126   2.820
37208W        W10276  30.966   9.823   3.076
37209W        W10277   1.788  35.272  12.907
37210W        W10278  41.250   9.248  12.839
37211W        W10279  39.843   8.705  14.450
37212W        W10280  40.905   5.456  14.909
37213W        W10281  28.528  34.968  13.433
37214W        W10282  44.938  27.859   3.729
37215W        W10283  34.035  29.582   0.470
37216W        W10284  19.461   5.251   0.428
37217W        W10285  33.404  22.196  11.509
37218W        W10286  43.054  39.537   1.398
37219W        W10287  23.785  40.507   2.710
37220W        W10288  29.327  42.428   3.553
37221W        W10289   4.221   0.387   2.646
37222W        W10290   2.988  24.319   3.820
37223W        W10291   9.053  39.529  12.001
37224W        W10292  13.055  12.932  12.073
37225W        W10293  27.629  40.929   4.171
37226W        W10294  31.626  27.617   4.334
37227W        W10295  30.990  37.586   2.783
37228W        W10296  40.265  14.559  13.238
37229W        W10297  34.327  44.532  14.025
37230W        W10298  15.088  32.398  14.513
37231W        W10299  36.466  44.854   2.976
37232W        W10300  37.980  19.192   3.799
37233W        W10301  35.803  30.187  14.430
37234W        W10302  18.596  34.416   5.202
37235W        W10303  39.053  33.436   2.372
37236W        W10304   6.327  42.446  14.816
37237W        W10305  31.331  23.290   0.435
37238W        W10306  13.799   2.791   1.775
37239W        W10307   8.225  41.309   3.161
37240W        W10308  24.663  16.132  13.798
37241W        W10309   0.208  29.488  10.486
37242W        W10310  31.085  29.550   4.016
37243W        W10311  30.225   8.689  12.456
37244W        W10312  36.679  44.009   1.453
37245W        W10313   1.149  31.707  12.070
37246W        W10314  13.863   2.120  14.759
37247W        W10315  20.242  27.477   4.144
37248W        W10316   9.214  21.718   1.936
37249W        W10317  38.506  41.945   3.402
37250W        W10318   9.856  42.804   1.388
37251W        W10319  34.326  25.967   2.266
37252W        W10320  38.057  40.461   4.181
37253W        W10321  21.712  14.206   3.335
37254W        W10322  27.639   1.785   0.497
37255W        W10323  13.303   4.365  14.460
37256W        W10324   6.187  39.888   2.732
37257W        W10325  14.609  22.663  14.941
37258W        W10326  14.431  33.145   5.058
37259W        W10327   4.682   1.957   3.706
37260W        W10328   2.027  42.908   3.659
37261W        W10329  12.825   9.856  14.435
37262W        W10330   0.763   4.751   4.095
37263W        W10331  42.991  19.974  10.724
37264W        W10332   7.271  22.835  11.886
37265W        W10333  34.076   4.405   1.181
37266W        W10334  25.258   3.565   4.872
37267W        W10335   7.807  40.303  12.546
37268W        W10336  23.179   3.013  12.371
37269W        W10337   5.385  10.143   2.892
37270W        W10338   3.862  44.904   3.617
37271W        W10339   5.041   8.832  12.445
37272W        W10340  20.790  25.401  14.926
37273W        W10341  13.097   0.253   3.719
37274W        W10342   7.918   4.826   1.400
37275W        W10343  23.924  21.633  12.404
37276W        W10344   5.488  29.462   0.462
37277W        W10345  17.187   6.597  12.860
37278W        W10346  39.979  33.390   0.370
37279W        W10347  11.731  33.918  12.042
37280W        W10348  13.831  24.116   0.173
37281W        W10349  10.216  20.173  12.361
37282W        W10350   5.933   1.737   1.272
37283W        W10351  31.887  25.752  11.445
37284W        W10352  24.793  16.293  14.862
37285W        W10353  33.884   8.183  11.274
37286W        W10354  36.834  38.023  13.924
37287W        W10355  27.346  26.443   0.865
37288W        W10356  28.590  21.949   1.702
37289W        W10357  41.005   2.457  10.717
37290W        W10358  26.953  30.877   4.254
37291W        W10359   4.249  39.855   2.794
37292W        W10360   5.645  33.559  11.987
37293W        W10361   0.054   9.814   4.557
37294W        W10362  20.136  33.023   3.807
37295W        W10363  40.858  35.064  13.082
37296W        W10364   1.052  29.463   3.181
37297W        W10365   5.748  18.800   2.812
37298W        W10366  30.228  22.760  10.655
37299W        W10367  12.772  42.016  13.269
37300W        W10368  36.513   2.100   2.304
37301W        W10369  22.507  12.697   1.387
37302W        W10370  39.272  10.589  12.376
37303W        W10371  12.242  23.546  13.665
37304W        W10372  16.924  14.281   3.747
37305W        W10373  38.614  20.432  14.839
37306W        W10374   8.669  22.231   3.306
37307W        W10375  40.872  32.059  10.601
37308W        W10376  23.502   6.731  11.494
37309W        W10377  13.791  30.633  10.349
37310W        W10378  27.665  22.969   1.437
37311W        W10379  39.248  38.297   2.195
37312W        W10380  10.635   3.920  13.537
37313W        W10381  25.728  36.080   1.928
37314W        W10382  37.710   0.203  11.811
37315W        W10383  11.736  12.586   1.428
37316W        W10384  39.093  26.523  14.869
37317W        W10385  38.036  10.231   1.613
37318W        W10386   7.925   2.056  12.428
37319W        W10387  42.197  38.898   4.568
37320W        W10388  44.785  26.949  13.341
37321W        W10389  35.166  12.979   2.146
37322W        W10390   8.787  26.649   0.843
37323W        W10391  23.415   9.751   2.756
37324W        W10392  34.848   2.898  10.655
37325W        W10393  25.297   0.445  13.938
37326W        W10394  11.819  44.483  12.334
37327W        W10395  11.574   9.118  12.967
37328W        W10396  41.001  44.473   4.399
37329W        W10397   8.904  22.606  14.276
37330W        W10398  13.196  11.421  13.981
37331W        W10399  25.400  31.508   0.885
37332W        W10400  10.407   1.941  12.023
37333W        W10401  17.636  31.976   2.814
37334W        W10402  12.162   6.442  13.401
37335W        W10403  37.581  10.759   4.460
37336W        W10404  36.368   9.791   4.759
37337W        W10405  39.020  41.559   1.689
37338W        W10406  26.692  32.720  13.749
37339W        W10407   0.961  20.239   2.756
37340W        W10408  39.629  21.635  11.970
37341W        W10409   0.888  16.102   2.914
37342W        W10410  30.754  11.682  11.099
37343W        W10411  30.513  21.086   1.533
37344W        W10412   3.865  25.560  14.247
37345W        W10413  30.484  25.180  14.947
37346W        W10414  30.687  12.943   4.198
37347W        W10415  17.807  14.355   3.216
37348W        W10416  27.033  13.411   0.847
37349W        W10417  35.850   9.736   3.394
37350W        W10418   5.790  40.043  12.413
37351W        W10419  13.338   2.917  14.300
37352W        W10420  36.431  23.851   2.686
37353W        W10421  19.730  18.304  11.985
37354W        W10422  11.713  41.219  12.626
37355W        W10423  30.717  20.740  12.556
37356W        W10424  34.489  19.537  14.463
37357W        W10425   2.954  23.785  10.799
37358W        W10426  17.146   5.682   4.070
37359W        W10427  38.099  21.879   3.172
37360W        W10428   6.287   1.922  11.696
37361W        W10429   5.695   4.862   2.323
37362W        W10430  40.520  22.040  12.907
37363W        W10431  12.889  28.583  14.858
37364W        W10432  40.277  34.821  12.389
37365W        W10433  30.258  33.625   3.829
37366W        W10434  15.845   8.875   4.438
37367W        W10435  29.650  35.922   3.745
37368W        W10436  34.467  33.965   1.671
37369W        W10437  14.720  38.469  12.002
37370W        W10438   7.508  17.988   0.879
37371W        W10439  19.599   3.643   4.102
37372W        W10440  32.100  23.549   1.775
37373W        W10441  22.111  24.160  13.098
37374W        W10442  12.226  21.962  12.878
37375W        W10443  11.684  23.814  11.545
37376W        W10444  19.237  26.488  10.728
37377W        W10445  40.856  13.347   4.564
37378W        W10446  34.564   9.682  14.509
37379W        W10447  15.659   0.497  12.505
37380W        W10448  25.197  29.118  12.019
37381W        W10449  35.172  43.434  13.001
37382W        W10450   8.891  43.389  14.072
37383W        W10451  26.707   7.034   5.002
37384W        W10452  16.289  33.434   2.264
37385W        W10453  30.213  10.604  10.946
37386W        W10454  28.958  41.742   1.758
37387W        W10455  20.770  33.169  13.337
37388W        W10456  25.765  40.962  11.650
37389W        W10457  24.173   9.631   4.333
37390W        W10458   5.366  24.902   2.633
37391W        W10459  15.380  33.691   3.611
37392W        W10460  30.922  39.884   4.556
37393W        W10461   6.377  41.936   4.390
37394W        W10462  24.997   0.910  14.025
37395W        W10463  34.841   1.129   4.698
37396W        W10464  38.149   7.658   2.672
37397W        W10465  35.314  32.817  12.945
37398W        W10466  26.988  32.914  10.708
37399W        W10467   8.747  22.845  10.454
37400W        W10468  17.204  12.004  11.136
37401W        W10469  24.429  25.407   0.201
37402W        W10470  37.594   3.870   1.663
37403W        W10471  35.101  44.858   4.878
37404W        W10472  35.637  32.832   1.261
37405W        W10473  34.514   7.255   3.593
37406W        W10474  23.483   5.614   0.161
37407W        W10475  20.818   8.693  11.162
37408W        W10476  31.112   2.330  14.867
37409W        W10477  23.032  15.732  11.414
37410W        W10478  18.337   7.758  10.716
37411W        W10479   5.951  14.664  13.391
37412W        W10480   5.247  41.851  13.121
37413W        W10481  34.202   7.923   0.349
37414W        W10482  14.237   8.887  14.448
37415W        W10483   9.876  13.547  12.637
37416W        W10484  10.164  12.048   2.852
37417W        W10485  10.025  21.678   2.452
37418W        W10486   0.909  11.778   4.131
37419W        W10487  17.471  15.694   4.614
37420W        W10488  29.076  11.351   3.298
37421W        W10489   1.957  18.461  14.381
37422W        W10490   5.948  26.986  14.980
37423W        W10491   5.422   0.707  14.802
37424W        W10492  17.567  32.514   3.466
37425W        W10493  40.784   6.555   4.598
37426W        W10494  30.007   0.500   0.770
37427W        W10495   9.113  27.002  13.613
37428W        W10496  36.325   9.785   3.231
37429W        W10497  40.539  12.229   0.416
37430W        W10498  13.593   0.392   0.909
37431W        W10499  17.798   4.132   4.322
37432W        W10500  26.246   0.695   2.880
37433W        W10501  35.524  16.807   1.397
37434W        W10502  31.263  39.160  10.213
37435W        W10503  42.971  18.251   1.915
37436W        W10504   7.398  25.584   3.697
37437W        W10505  37.493  39.326   2.227
37438W        W10506  15.576  16.422   0.440
37439W        W10507  10.902  32.125   2.736
37440W        W10508  37.162  26.215   2.776
37441W        W10509  20.092  26.131   0.832
37442W        W10510  30.031  29.924   2.653
37443W        W10511  28.563   4.645  14.860
37444W        W10512  19.527  43.498  13.367
37445W        W10513  42.285  18.073  12.595
37446W        W10514  30.128  17.068   4.688
37447W        W10515  16.322  24.986  12.909
37448W        W10516  17.358  19.787   2.188
37449W        W10517  11.229  33.595  10.500
37450W        W10518  41.036   9.116  14.874
37451W        W10519   9.313  23.481   0.731
37452W        W10520  31.424  16.086  14.395
37453W        W10521   0.417  26.463   4.571
37454W        W10522  41.471   7.189  11.977
37455W        W10523  41.497  11.102   3.194
37456W        W10524  28.950  28.857  12.801
37457W        W10525  43.082  20.174   5.024
37458W        W10526  43.613  41.350   4.106
37459W        W10527  30.488  32.313   3.982
37460W        W10528   0.867  12.185  12.924
37461W        W10529  23.248   2.324   2.829
37462W        W10530   4.326  14.774  14.472
37463W        W10531  15.004  35.551   0.864
37464W        W10532  11.127  29.761   2.247
37465W        W10533   3.056  23.070   4.196
37466W        W10534   6.503  42.305  13.362
37467W        W10535  30.667  32.552   0.233
37468W        W10536  13.377  37.421   1.174
37469W        W10537  18.286   7.425  11.146
37470W        W10538   2.597  31.067   1.429
37471W        W10539  32.419  13.733   2.510
37472W        W10540  29.566  12.363  10.959
37473W        W10541   7.037   8.418  10.686
37474W        W10542   1.890  22.643  13.521
37475W        W10543   8.359   3.324  14.766
37476W        W10544  35.307   1.312  11.293
37477W        W10545  40.913  32.643   3.402
37478W        W10546  18.075  23.042  11.493
37479W        W10547  21.193   7.852   3.807
37480W        W10548   2.785  20.577   3.857
37481W        W10549  10.218   6.934  11.016
37482W        W10550  17.555  34.384   2.939
37483W        W10551  12.295  10.398  12.929
37484W        W10552   1.410  31.526   1.311
37485W        W10553  14.648  16.834  13.360
37486W        W10554  31.626  35.327  13.806
37487W        W10555   0.869  44.854  14.080
37488W        W10556  31.943   4.409  13.376
37489W        W10557  22.061   5.463  14.820
37490W        W10558   2.922  22.612   1.203
37491W        W10559  26.716  39.079  12.941
37492W        W10560  40.272  25.342   4.159
37493W        W10561  41.878  26.541  10.492
37494W        W10562  30.400  28.535  13.878
37495W        W10563  11.308  18.303   5.010
37496W        W10564  24.075  17.139   1.904
37497W        W10565  14.800  15.532  14.923
37498W        W10566  17.913  14.828  12.628
37499W        W10567  25.073   7.150   0.431
37500W        W10568  16.371  23.915   1.762
37501W        W10569  40.461   6.872  11.933
37502W        W10570  29.614  12.112  10.502
37503W        W10571   3.867  36.335   2.179
37504W        W10572   1.591   6.293  14.872
37505W        W10573  23.197  25.276  13.071
37506W        W10574   5.299  35.062   3.831
37507W        W10575  19.051   8.306   2.129
37508W        W10576   5.596  14.382  14.359
37509W        W10577  13.241  24.005  14.317
37510W        W10578   7.217  15.777  13.035
37511W        W10579   3.302  36.911   2.124
37512W        W10580  25.455   1.641   3.262
37513W        W10581  36.145  31.036  13.953
37514W        W10582  34.639  30.150  12.075
37515W        W10583  43.900   6.113   3.324
37516W        W10584  28.204  23.509  11.524
37517W        W10585  10.070  38.332  13.825
37518W        W10586  27.242  21.673   2.266
37519W        W10587  12.250  15.121  13.914
37520W        W10588  14.273   6.949   2.207
37521W        W10589  22.310  16.672   5.095
37522W        W10590  24.417  39.843  13.500
37523W        W10591  42.549  27.676  11.186
37524W        W10592  28.236   0.816   5.179
37525W        W10593  19.113  19.601  11.983
37526W        W10594  17.105  17.944   2.016
37527W        W10595  25.673  44.029  14.760
37528W        W10596  37.775  44.829  11.457
37529W        W10597   1.977  35.915   1.382
37530W        W10598   3.324  12.231  12.854
37531W        W10599  38.944  13.291   1.772
37532W        W10600  10.925  33.028  12.449
37533W        W10601   2.382  19.289  11.646
37534W        W10602  41.749  13.778  10.288
37535W        W10603   9.903   3.407   4.466
37536W        W10604  14.043   3.293   2.785
37537W        W10605  31.105  13.327   0.902
37538W        W10606  13.896   3.404  13.417
37539W        W10607  29.329  28.637   3.700
37540W        W10608   4.904  16.057   2.666
37541W        W10609  42.914  44.345  10.606
37542W        W10610  10.593  23.097   1.641
37543W        W10611  24.035  12.626  14.338
37544W        W10612  41.845   3.445   4.397
37545W        W10613   0.374  21.075   2.220
37546W        W10614   9.429  34.572   2.076
37547W        W10615   0.336   0.064  13.349
37548W        W10616  20.817  40.212   2.399
37549W        W10617  36.864   4.979   0.708
37550W        W10618  26.247  21.630  12.054
37551W        W10619   9.847  42.472  14.408
37552W        W10620   5.112  23.725   3.045
37553W        W10621  37.157  29.387  13.794
37554W        W10622  37.751  16.056   3.666
37555W        W10623  10.276  31.402  11.168
37556W        W10624  27.614  36.815  14.476
37557W        W10625   0.798  17.561  14.854
37558W        W10626  39.313   2.930   3.987
37559W        W10627  43.598  23.035   2.743
37560W        W10628   6.482  32.703  14.476
37561W        W10629   4.275  24.160   3.239
37562W        W10630  33.931  15.671  11.418
37563W        W10631  12.447  36.517  13.542
37564W        W10632  17.582  44.798   0.733
37565W        W10633  22.878   2.695  13.366
37566W        W10634   2.233   8.048  13.492
37567W        W10635   1.797  42.983   1.784
37568W        W10636  32.669  22.231  13.489
37569W        W10637  22.235  30.178   4.786
37570W        W10638  33.611  13.791   4.200
37571W        W10639  31.480  42.361  10.987
37572W        W10640   2.833  15.867  14.560
37573W        W10641  42.412  23.325  10.650
37574W        W10642   0.436  35.137  12.387
37575W        W10643  37.826  28.649  12.566
37576W        W10644  39.997  23.134  14.040
37577W        W10645  10.726  19.698  11.863
37578W        W10646  42.398  14.514  12.525
37579W        W10647   0.826  31.561  14.243
37580W        W10648  36.878   3.643   4.649
37581W        W10649   8.824   9.919  13.793
37582W        W10650  15.343  21.107  13.923
37583W        W10651  23.074   4.321   1.789
37584W        W10652  24.598  15.559   3.122
37585W        W10653  41.472  16.114   4.195
37586W        W10654   1.311  16.119   0.360
37587W        W10655   4.264  32.007   3.172
37588W        W10656  23.026  39.247   3.712
37589W        W10657   1.307  18.412  13.750
37590W        W10658  11.103  22.488  11.469
37591W        W10659  35.874  26.940  13.075
37592W        W10660  26.485  35.917   3.675
37593W        W10661  28.904  20.081   2.719
37594W        W10662  31.045   6.225   4.193
37595W        W10663  33.012   3.475   2.285
37596W        W10664  10.606  25.086   0.665
37597W        W10665   4.236  42.012   2.712
37598W        W10666  13.342  29.568  14.930
37599W        W10667  14.142  17.363   0.767
37600W        W10668   4.375  43.388   3.176
37601W        W10669  31.133  22.517  13.505
37602W        W10670  14.745  39.585   2.407
37603W        W10671   7.066  12.373  12.346
37604W        W10672  25.952   4.049  12.411
37605W        W10673   7.573  16.310   0.756
37606W        W10674  25.592  31.126  11.627
37607W        W10675  16.564   2.960  13.391
37608W        W10676  22.185   1.053  14.112
37609W        W10677  28.358  42.042   0.483
37610W        W10678  30.573  36.607   2.882
37611W        W10679   2.094  42.644   4.678
37612W        W10680   1.667  12.733  14.406
37613W        W10681  12.742  30.360   0.473
37614W        W10682  30.957   6.682  12.433
37615W        W10683  10.647  42.079   4.634
37616W        W10684  22.051  18.752  11.931
37617W        W10685  24.940  17.071   1.717
37618W        W10686   7.914  28.722  11.733
37619W        W10687  23.215   4.752  11.069
37620W        W10688  27.402   7.164   4.720
37621W        W10689  43.999   8.945  12.080
37622W        W10690  25.175  38.857   0.207
37623W        W10691   2.496   3.914   4.486
37624W        W10692  21.428  24.944  12.431
37625W        W10693  29.061   8.264   3.401
37626W        W10694  20.287  37.408  13.087
37627W        W10695  12.164  35.524  10.753
37628W        W10696  38.876  43.724   1.387
37629W        W10697  29.638  31.656   4.144
37630W        W10698  13.204  24.023   0.798
37631W        W10699  42.394   4.990   3.594
37632W        W10700  20.325  28.857  14.293
37633W        W10701  36.271  37.931  10.639
37634W        W10702  24.103   7.327  11.999
37635W        W10703  30.516  28.981  10.658
37636W        W10704  31.304  42.411  14.912
37637W        W10705  19.840  44.641   4.128
37638W        W10706  21.097  42.015  12.653
37639W        W10707  25.380  15.154  12.045
37640W        W10708   5.937  42.064   4.102
37641W        W10709   2.927   1.806   3.156
37642W        W10710  21.588   7.704  13.358
37643W        W10711  22.469  31.981  12.031
37644W        W10712  19.624  17.606   0.488
37645W        W10713  10.246   0.983   1.911
37646W        W10714  20.336   8.576  11.165
37647W        W10715  38.611  37.061  13.753
37648W        W10716  27.058   0.589  13.958
37649W        W10717  10.876  30.597   0.254
37650W        W10718  17.356  15.731   2.780
37651W        W10719  40.750  28.130  10.561
37652W        W10720  36.261  33.985  13.399
37653W        W10721  40.526  19.675   0.389
37654W        W10722  16.240  28.257   0.937
37655W        W10723  31.121   8.169   2.543
37656W        W10724   8.017  21.247   2.295
37657W        W10725  30.761  30.713   4.139
37658W        W10726   8.145  30.661  14.393
37659W        W10727   8.951  38.852  12.054
37660W        W10728   1.980  16.808   3.784
37661W        W10729   2.941  11.606   3.316
37662W        W10730   8.412  23.305   0.769
37663W        W10731  35.852  35.307   0.304
37664W        W10732  12.989  41.554  14.004
37665W        W10733   9.271  21.212   3.730
37666W        W10734  14.706   9.253   1.376
37667W        W10735  33.601  20.683   0.485
37668W        W10736  32.652  33.036  14.390
37669W        W10737  41.649  15.930   5.545
37670W        W10738  11.086   9.703   0.779
37671W        W10739  21.300  37.103   2.721
37672W        W10740  37.772  19.501   1.096
37673W        W10741  42.421  10.942   2.848
37674W        W10742  44.232   8.370  11.537
37675W        W10743  34.825  27.673  11.261
37676W        W10744   7.002   3.412   0.720
37677W        W10745  17.295  22.150  13.024
37678W        W10746  34.901  17.668   3.255
37679W        W10747  26.682  17.870   3.236
37680W        W10748  17.685   2.217   1.543
37681W        W10749  16.489  16.245  11.075
37682W        W10750   1.059  43.531  11.901
37683W        W10751  27.204  21.861   4.151
37684W        W10752   2.819  35.647  11.839
37685W        W10753  42.818  30.895   0.240
37686W        W10754  35.537   0.010   1.454
37687W        W10755  40.837  13.881  14.788
37688W        W10756  14.354  43.980  13.820
37689W        W10757  11.684   2.586   3.604
37690W        W10758   4.947  34.351  12.613
37691W        W10759  42.806  13.571   3.665
37692W        W10760  21.900   8.416   0.741
37693W        W10761  24.380  16.403   5.480
37694W        W10762  41.509  29.524   3.098
37695W        W10763  20.395  19.514  13.935
37696W        W10764  20.176  26.197   4.564
37697W        W10765  44.001  22.644  12.714
37698W        W10766  37.770  35.647   4.210
37699W        W10767  12.802  33.779   0.223
37700W        W10768   0.299   6.820  13.639
37701W        W10769   2.784   8.796   2.212
37702W        W10770  30.431  30.639  13.955
37703W        W10771   9.231   8.830  13.592
37704W        W10772  35.312  43.768   2.675
37705W        W10773  33.341  27.129  12.026
37706W        W10774  44.695  37.065   1.480
37707W        W10775  26.972  29.971  11.961
37708W        W10776  24.899   5.303   2.196
37709W        W10777  22.140  33.541   4.027
37710W        W10778  13.717   9.261   4.612
37711W        W10779  14.120  31.485   4.299
37712W        W10780  18.794   3.287   0.064
37713W        W10781  16.886  32.146  14.253
37714W        W10782  13.835  26.001   3.168
37715W        W10783   4.715   2.196   1.650
37716W        W10784  27.977  29.179  11.587
37717W        W10785  32.070  17.685  13.803
37718W        W10786  28.653   3.911   4.161
37719W        W10787  40.265  20.007  13.006
37720W        W10788  41.417   4.123  11.939
37721W        W10789  11.671  15.177   2.215
37722W        W10790  14.125  44.175   9.956
37723W        W10791   7.927  16.774  12.391
37724W        W10792  25.752  25.005   5.050
37725W        W10793   1.050  34.158   2.770
37726W        W10794  24.528  44.425   2.280
37727W        W10795  23.112  23.527  12.815
37728W        W10796  40.260  30.778   1.725
37729W        W10797   4.016   8.167  14.543
37730W        W10798  38.607  34.044   1.262
37731W        W10799  27.473   7.141   1.765
37732W        W10800  26.074  41.323   3.488
37733W        W10801  35.476  18.286  11.987
37734W        W10802  18.463  38.991   2.462
37735W        W10803  43.516  25.493  14.250
37736W        W10804  35.700  14.827   3.564
37737W        W10805   3.896  24.469  13.444
37738W        W10806  31.617  18.968   1.790
37739W        W10807  40.096  22.426  10.668
37740W        W10808  32.135  21.183  14.022
37741W        W10809  24.494  40.009   2.503
37742W        W10810  34.312   2.231   1.134
37743W        W10811  35.772   1.477   0.792
37744W        W10812   7.820   5.850   1.771
37745W        W10813  32.930   0.463  12.518
37746W        W10814   4.209  21.931  12.361
37747W        W10815  25.078  35.013   3.015
37748W        W10816  43.985  35.957  11.615
37749W        W10817  32.014  27.033  12.665
37750W        W10818  16.051  43.660  14.966
37751W        W10819  29.014   7.630  14.816
37752W        W10820  33.545   4.920   0.231
37753W        W10821   7.197  37.790  13.298
37754W        W10822  22.176  39.072   3.844
37755W        W10823  26.130  25.127   3.287
37756W        W10824  38.948  27.057   0.787
37757W        W10825  13.423  17.457   0.717
37758W        W10826  30.097   8.389  13.970
37759W        W10827   4.722  11.243  11.338
37760W        W10828   4.686   5.279   4.281
37761W        W10829  29.361   4.995   0.344
37762W        W10830  24.538  34.906  13.071
37763W        W10831  40.564  37.019  14.817
37764W        W10832   7.028   7.257  14.562
37765W        W10833   5.162   8.500  13.276
37766W        W10834  43.739  43.061   3.626
37767W        W10835  17.074   7.229   1.774
37768W        W10836  41.546   5.354   0.395
37769W        W10837  18.157  33.547   2.208
37770W        W10838  39.935  32.024   0.862
37771W        W10839   0.726  41.390  14.406
37772W        W10840  22.233  40.275  12.804
37773W        W10841  21.275  36.830   3.710
37774W        W10842  11.262   2.755   4.848
37775W        W10843  20.487  28.414  12.080
37776W        W10844   2.441  27.866  13.548
37777W        W10845  41.829  43.288   2.821
37778W        W10846  40.248  34.400  14.605
37779W        W10847  25.554  27.609  13.941
37780W        W10848  18.154  17.539   0.259
37781W        W10849  30.914  30.008   2.379
37782W        W10850  16.161  18.823  13.865
37783W        W10851  30.153   7.730   4.702
37784W        W10852  21.625  43.846   4.994
37785W        W10853  22.553   5.708  10.662
37786W        W10854  43.564   3.921   3.210
37787W        W10855  35.626   9.011   0.213
37788W        W10856  43.562  38.883  13.318
37789W        W10857   8.593   8.332  14.756
37790W        W10858   3.769  36.439   4.239
37791W        W10859  17.978  37.297  12.760
37792W        W10860   2.993  40.601  11.070
37793W        W10861  44.568   6.137  11.901
37794W        W10862   2.366  23.348   1.483
37795W        W10863  11.064  18.139  11.457
37796W        W10864  21.817  41.752  12.069
37797W        W10865  13.408  37.387   4.034
37798W        W10866  34.205  24.957   1.358
37799W        W10867   8.232  35.909  14.456
37800W        W10868   3.711  35.182   3.701
37801W        W10869  11.433  37.950  11.269
37802W        W10870   5.830  16.605   3.206
37803W        W10871  10.764   7.727   4.590
37804W        W10872  38.882  42.747  10.763
37805W        W10873  42.229  15.748   4.328
37806W        W10874  11.860  23.626   1.864
37807W        W10875   7.680   3.419   4.217
37808W        W10876  13.594  27.462   4.038
37809W        W10877  31.286  13.614  13.616
37810W        W10878   9.805  12.240  12.767
37811W        W10879  20.183  41.938  12.800
37812W        W10880  19.711   7.766  14.085
37813W        W10881  25.683  29.063  13.433
37814W        W10882  43.253   1.334   2.636
37815W        W10883  31.960  31.092  14.201
37816W        W10884  18.419  12.250   0.164
37817W        W10885   6.942  12.098  10.652
37818W        W10886  23.534  16.063  13.499
37819W        W10887  37.396  25.756   3.135
37820W        W10888  32.957   1.604  12.448
37821W        W10889  41.394  42.823  11.001
37822W        W10890   8.429  38.355  14.442
37823W        W10891  34.226   9.709   0.943
37824W        W10892  19.027  34.411  14.325
37825W        W10893  11.895  10.661  11.626
37826W        W10894   6.606  13.862   0.620
37827W        W10895  17.557  30.995   1.879
37828W        W10896  43.418   7.453   1.623
37829W        W10897  37.354  19.013   0.349
37830W        W10898  21.662  12.016   2.831
37831W        W10899   8.788  43.008  13.678
37832W        W10900  23.282  36.920  12.468
37833W        W10901  34.336  20.264   1.449
37834W        W10902  14.657  14.845  11.171
37835W        W10903   4.889  17.035   0.194
37836W        W10904  14.804   6.790  14.356
37837W        W10905  11.346  25.397   3.162
37838W        W10906  29.675  39.361  10.909
37839W        W10907  21.416  24.871  13.333
37840W        W10908  34.397  18.197   0.429
37841W        W10909   8.303  42.650  11.126
37842W        W10910  26.590  18.526  14.369
37843W        W10911  20.509  21.853   0.858
37844W        W10912  44.661   9.281  12.488
37845W        W10913  19.138  25.114   0.840
37846W        W10914  15.577  13.398   4.202
37847W        W10915  31.629   3.686  14.939
37848W        W10916  38.354  38.310   3.724
37849W        W10917  19.789  10.279  13.379
37850W        W10918  22.238  29.538  14.395
37851W        W10919  20.340  17.232   3.132
37852W        W10920  17.088  31.449  14.384
37853W        W10921   5.849   9.900  12.480
37854W        W10922   9.506  17.043  11.429
37855W        W10923  13.491  17.535  12.169
37856W        W10924  15.693   6.733   2.172
37857W        W10925  29.095  29.669   1.486
37858W        W10926  16.773  17.006  13.337
37859W        W10927   2.897  19.952   4.312
37860W        W10928  15.722  24.258  14.789
37861W        W10929  42.337  30.532   4.664
37862W        W10930  21.490  31.887   0.223
37863W        W10931  15.395  41.667   3.404
37864W        W10932  21.809  20.180   3.421
37865W        W10933  19.623  35.460  12.548
37866W        W10934  23.042  10.798  11.471
37867W        W10935  24.962  13.738   0.989
37868W        W10936  17.850  26.687   1.784
37869W        W10937  12.364   1.330  10.680
37870W        W10938  18.628   0.993   4.537
37871W        W10939  22.917  23.019   3.949
37872W        W10940   5.252  35.859   4.380
37873W        W10941   3.834   3.978  13.921
37874W        W10942  18.079  20.748  14.584
37875W        W10943  43.767  39.278   1.807
37876W        W10944  39.494  27.648   2.724
37877W        W10945  30.074  15.108   4.867
37878W        W10946   7.604  10.221   4.603
37879W        W10947   6.640   5.483   3.735
37880W        W10948  34.976  42.544  11.719
37881W        W10949   9.214  10.126   3.155
37882W        W10950  19.578  39.478  14.315
37883W        W10951  42.945  40.435  14.545
37884W        W10952  22.041  11.742  12.902
37885W        W10953   8.199   4.830   3.683
37886W        W10954  39.637  32.211  14.921
37887W        W10955  37.360  14.959   4.996
37888W        W10956  15.286  13.817  10.604
37889W        W10957   0.864   9.270   4.859
37890W        W10958  31.466  25.922  11.065
37891W        W10959   1.778  39.443   3.740
37892W        W10960  22.007  14.302  11.301
37893W        W10961  44.892  23.154   1.362
37894W        W10962  19.750   0.634   4.453
37895W        W10963  37.856   6.542  11.713
37896W        W10964   1.282  34.094   3.217
37897W        W10965   1.513  13.237  11.515
37898W        W10966  12.229  20.853   1.229
37899W        W10967  27.884  37.809   2.709
37900W        W10968  32.318  43.378  14.208
37901W        W10969  43.232  41.966   3.238
37902W        W10970   3.139  14.545   5.219
37903W        W10971  41.166   5.366  12.368
37904W        W10972  33.001  14.539   2.703
37905W        W10973  42.990   1.727  14.272
37906W        W10974  13.081  10.104   1.813
37907W        W10975  32.382  26.636  12.986
37908W        W10976  36.410  12.715  14.426
37909W        W10977  20.161   3.991  11.024
37910W        W10978  11.695  10.348  14.489
37911W        W10979  31.006  37.528   3.764
37912W        W10980   3.284   3.811   1.370
37913W        W10981  13.892  35.136   4.614
37914W        W10982  17.366   3.613   0.362
37915W        W10983  37.878  35.456  12.052
37916W        W10984   5.213  41.276   0.470
37917W        W10985  35.109   8.133   3.708
37918W        W10986  33.191  34.625  11.568
37919W        W10987  13.703  18.952  10.649
37920W        W10988  14.746  43.734   0.374
37921W        W10989  36.650  44.001  12.063
37922W        W10990   9.353  23.905   3.387
37923W        W10991  26.225   9.067  13.030
37924W        W10992   3.516  19.485   0.409
37925W        W10993   6.522  44.024   0.449
37926W        W10994  21.645  40.194  11.538
37927W        W10995  17.373   3.024  13.950
37928W        W10996  38.144   6.000   4.666
37929W        W10997  18.727  36.038   4.452
37930W        W10998  14.434   6.231  13.173
37931W        W10999  28.146   3.899   4.032
37932W        W11000  36.128  44.455   2.964
37933W        W11001  38.307  34.906   4.301
37934W        W11002   3.453   4.312   2.824
37935W        W11003  20.898   7.715  14.409
37936W        W11004  23.200  12.977   4.066
37937W        W11005  24.176   0.611   4.238
37938W        W11006  15.146  20.388  11.861
37939W        W11007  43.735  14.752   1.143
37940W        W11008  23.471  14.565  12.532
37941W        W11009   0.514  31.667  13.002
37942W        W11010   8.391  17.691  12.853
37943W        W11011  27.451  42.357   1.579
37944W        W11012  23.744  16.291  11.787
37945W        W11013  21.319  29.753  11.654
37946W        W11014  15.739  20.877  12.328
37947W        W11015  16.524   7.240   0.221
37948W        W11016  18.834  35.587  12.880
37949W        W11017  14.547  13.618   1.448
37950W        W11018  13.291  34.600  14.176
37951W        W11019  27.271  40.558  10.273
37952W        W11020  22.036  29.642   0.863
37953W        W11021  11.901   9.295  14.789
37954W        W11022  11.868  18.732  12.485
37955W        W11023  13.285  40.055   1.149
37956W        W11024  18.269   4.852   1.539
37957W        W11025   3.453   4.259   1.121
37958W        W11026  25.532  21.007  12.996
37959W        W11027  13.222  13.257  14.831
37960W        W11028  36.009  25.286  10.924
37961W        W11029  40.515   1.016   0.274
37962W        W11030  26.439  39.042   4.269
37963W        W11031   6.697  25.176   0.414
37964W        W11032  16.661  35.612   3.664
37965W        W11033  23.901  39.040  12.994
37966W        W11034   8.772  39.389  11.010
37967W        W11035  22.065  18.792   4.275
37968W        W11036  21.829  12.733   0.273
37969W        W11037   1.852   6.703   1.762
37970W        W11038  30.541  43.379  13.716
37971W        W11039  11.740   6.633  13.927
37972W        W11040  19.089  34.684  12.880
37973W        W11041  19.349   6.382   4.346
37974W        W11042  26.278  22.332   3.245
37975W        W11043  28.171  26.623   2.817
37976W        W11044  14.570   7.882   2.551
37977W        W11045  16.697  33.699   4.056
37978W        W11046  27.602   3.455  11.175
37979W        W11047   6.149  40.797  13.528
37980W        W11048  25.045  10.089  12.778
37981W        W11049  18.538  27.840   0.297
37982W        W11050  18.176  41.103   4.790
37983W        W11051  24.095  23.651  12.081
37984W        W11052   4.651  30.302  10.466
37985W        W11053  25.738   1.926   1.280
37986W        W11054  15.968  18.685   3.414
37987W        W11055  41.929  34.428  12.170
37988W        W11056  39.607  20.264   3.166
37989W        W11057  38.904  17.090  14.224
37990W        W11058  23.544  42.895   1.777
37991W        W11059  17.223   0.287  13.469
37992W        W11060  41.928  27.499   0.913
37993W        W11061  15.036  19.266   4.334
37994W        W11062   9.477  32.894   0.628
37995W        W11063  25.063   7.888   4.093
37996W        W11064  10.182   1.438  12.094
37997W        W11065  39.324  18.226  10.945
37998W        W11066  15.250  32.444  11.579
37999W        W11067  32.066  22.178   3.122
38000W        W11068  40.205  40.381  11.160
38001W        W11069  28.127  42.736  14.861
38002W        W11070   8.390  22.610  12.056
38003W        W11071  12.170   4.403   2.619
38004W        W11072  33.208   7.845   1.094
38005W        W11073  26.050  21.725  14.547
38006W        W11074  37.106  13.307  12.050
38007W        W11075   6.785  12.582  13.901
38008W        W11076  41.495   3.661  12.185
38009W        W11077  19.713  28.006  10.498
38010W        W11078  14.422  17.564   2.598
38011W        W11079   9.048  44.046  11.266
38012W        W11080  11.308  27.658   3.629
38013W        W11081  42.363  32.390  11.440
38014W        W11082   9.991  30.353   0.403
38015W        W11083  37.013  40.124  12.264
38016W        W11084   5.250  39.540  13.859
38017W        W11085  44.028  35.392  13.964
38018W        W11086   5.869   0.336  10.684
38019W        W11087   5.329  13.360   1.252
38020W        W11088   2.883  40.467  13.924
38021W        W11089   0.263   2.421   3.054
38022W        W11090  25.990  21.622  10.652
38023W        W11091  18.461  40.473  10.341
38024W        W11092  33.049  19.371   1.494
38025W        W11093  36.897   7.442   0.705
38026W        W11094   8.739  29.042  14.836
38027W        W11095  27.611   1.807   4.640
38028W        W11096  25.871  17.108  11.145
38029W        W11097  27.900  28.410  11.218
38030W        W11098   8.596  40.921   0.820
38031W        W11099  11.721  38.281   1.985
38032W        W11100  16.002  30.394  13.543
38033W        W11101  23.626  27.963   4.379
38034W        W11102  25.219  34.911   3.904
38035W        W11103  41.858   8.100   0.499
38036W        W11104  28.937  10.672   3.718
38037W        W11105   5.660  10.727   0.381
38038W        W11106  37.854   4.045   3.264
38039W        W11107  17.535   5.334  13.378
38040W        W11108   6.062  14.778   4.361
38041W        W11109  17.667  30.584   0.202
38042W        W11110  39.111  39.269  13.622
38043W        W11111  22.566  31.397  10.682
38044W        W11112   4.831  36.438   0.665
38045W        W11113   3.782  31.411   0.047
38046W        W11114  42.310   5.051  10.810
38047W        W11115  15.019  22.435   1.212
38048W        W11116  23.713  16.300  10.492
38049W        W11117  33.104  29.097   0.041
38050W        W11118  39.032  31.819   2.796
38051W        W11119   3.382  43.305  10.629
38052W        W11120  37.023  20.031   2.835
38053W        W11121  33.251  18.310  10.667
38054W        W11122  39.157  37.832  13.410
38055W        W11123   0.762  35.320   0.543
38056W        W11124  19.048  26.927   2.269
38057W        W11125  33.416  16.236  10.575
38058W        W11126  28.196  27.722   2.209
38059W        W11127  30.908  33.061  13.998
38060W        W11128  17.989  17.685   4.665
38061W        W11129  36.819  11.333  13.447
38062W        W11130  11.168   0.047   1.816
38063W        W11131  36.328   6.831  14.498
38064W        W11132  32.487  25.047  11.604
38065W        W11133  27.709   6.254   1.746
38066W        W11134   6.782  20.648   0.264
38067W        W11135  38.980   1.316   4.764
38068W        W11136  13.581  21.147  14.386
38069W        W11137  40.852  42.518   0.957
38070W        W11138  42.918  33.175  14.356
38071W        W11139  37.442  12.367  11.356
38072W        W11140  24.574   1.178  12.383
38073W        W11141  31.480  28.618  13.721
38074W        W11142   1.903  11.713   0.470
38075W        W11143   0.215  26.550  11.956
38076W        W11144  36.685  35.331   0.886
38077W        W11145  18.112  13.581  10.379
38078W        W11146  43.515  41.585  10.345
38079W        W11147  33.591  29.925   2.709
38080W        W11148  35.330   6.661  13.871
38081W        W11149   1.045  38.132   0.304
38082W        W11150  17.999  40.312   1.799
38083W        W11151   4.244  15.093  13.986
38084W        W11152  10.429  31.649   1.392
38085W        W11153   3.339  11.424  11.685
38086W        W11154  30.237   8.679  11.591
38087W        W11155  26.631  19.179   4.882
38088W        W11156  17.582   7.288  12.530
38089W        W11157  23.723  41.357   2.670
38090W        W11158  38.653  17.640  10.562
38091W        W11159  41.890  16.519  12.969
38092W        W11160  18.620  34.158   1.182
38093W        W11161   4.666  20.585  13.608
38094W        W11162   4.568  42.468   3.094
38095W        W11163  34.435  28.382  13.015
38096W        W11164  31.416  30.338  14.706
38097W        W11165  29.647  14.271   2.547
38098W        W11166  24.819   6.698  11.555
38099W        W11167  27.982   5.867   4.353
38100W        W11168  29.425  42.377  11.906
38101W        W11169  43.074  23.994  11.518
38102W        W11170  21.723   2.545   1.904
38103W        W11171  33.418  43.683   3.481
38104W        W11172  21.110  28.773  10.721
38105W        W11173  14.765   5.773  12.067
38106W        W11174  11.269   0.710  10.677
38107W        W11175  38.682  20.032   2.586
38108W        W11176  21.050  32.573   3.785
38109W        W11177   7.784  40.294   2.303
38110W        W11178  43.541   1.911  12.294
38111W        W11179  27.427   7.201  13.837
38112W        W11180  21.968  13.939   0.239
38113W        W11181  17.991  15.620  12.942
38114W        W11182  27.089  29.672   0.033
38115W        W11183  26.445  28.360  11.462
38116W        W11184  36.912  21.211   4.622
38117W        W11185  29.164  35.749   3.584
38118W        W11186  33.333  30.398  12.974
38119W        W11187  40.055  28.762  10.911
38120W        W11188  18.325  42.508   3.133
38121W        W11189  16.284  41.741   3.847
38122W        W11190  17.776   8.170   1.243
38123W        W11191  17.248  23.161   1.474
38124W        W11192  16.484  13.048   4.156
38125W        W11193  33.227  44.834  11.312
38126W        W11194  22.160  20.926   0.005
38127W        W11195  12.896  41.047  13.949
38128W        W11196  41.456  40.877   1.784
38129W        W11197   2.486  37.081   0.941
38130W        W11198  14.538  34.114   2.338
38131W        W11199  30.571  11.729   4.648
38132W        W11200  24.789  28.516  13.803
38133W        W11201  25.915  38.813  10.960
38134W        W11202   6.944   2.825  11.117
38135W        W11203  20.797  32.649  13.401
38136W        W11204  31.629   3.822  14.039
38137W        W11205  33.310  22.223   3.954
38138W        W11206   4.388  43.232  10.723
38139W        W11207  12.986  21.103  13.776
38140W        W11208  38.365  22.641  13.546
38141W        W11209  36.381  43.543   3.663
38142W        W11210   0.245  21.707   0.003
38143W        W11211  18.186  14.729   4.103
38144W        W11212  32.455   2.408   3.226
38145W        W11213   9.743   0.284  14.734
38146W        W11214  25.558  28.097   2.102
38147W        W11215  40.535  43.752   4.821
38148W        W11216  21.718  27.470  12.966
38149W        W11217  42.285   7.656   2.219
38150W        W11218  19.626  28.624   0.809
38151W        W11219  22.493  44.974   2.718
38152W        W11220   8.271  25.461   2.368
38153W        W11221  29.461  34.492   1.187
38154W        W11222  25.589  21.030  11.105
38155W        W11223  41.898  28.621  12.283
38156W        W11224  38.007  44.385  11.601
38157W        W11225   7.165  10.580   3.626
38158W        W11226  43.950  35.942   4.261
38159W        W11227  28.915  17.467   3.797
38160W        W11228  14.056  12.321  14.248
38161W        W11229   9.819  23.933  12.465
38162W        W11230  33.034  21.627  10.678
38163W        W11231  25.529   1.484   4.124
38164W        W11232  12.144  17.373   4.188
38165W        W11233  41.524  42.436   1.728
38166W        W11234  39.472   3.975   3.695
38167W        W11235   0.812   1.239   3.087
38168W        W11236  25.085  21.205  10.805
38169W        W11237   8.240  41.535   5.392
38170W        W11238  27.195  41.806  12.538
38171W        W11239   2.892  12.042  11.885
38172W        W11240  27.841  38.033  10.733
38173W        W11241  10.935  32.044  12.852
38174W        W11242   3.132  25.042   1.975
38175W        W11243  16.263   8.428  14.494
38176W        W11244   5.878   6.686   0.443
38177W        W11245  12.199  22.483  12.099
38178W        W11246  38.551  23.649  14.372
38179W        W11247   1.489  36.778   4.524
38180W        W11248  20.651  30.109   0.928
38181W        W11249  19.157  18.589   3.643
38182W        W11250  32.964  22.266   4.591
38183W        W11251  25.944   2.488   2.070
38184W        W11252   9.118  31.267   1.467
38185W        W11253   4.744  41.611  14.270
38186W        W11254   0.452  28.591  12.571
38187W        W11255  36.235  39.927  11.153
38188W        W11256  15.810  27.419   2.755
38189W        W11257  26.352  28.343   1.178
38190W        W11258  18.263  15.279   3.278
38191W        W11259   2.615  12.735  12.284
38192W        W11260   5.965  12.785  13.315
38193W        W11261  35.425  21.612   2.379
38194W        W11262   4.282  30.130   3.000
38195W        W11263  25.504  14.677  11.921
38196W        W11264   4.604  14.212  12.015
38197W        W11265  11.328  11.581   2.762
38198W        W11266  15.149  18.402  10.789
38199W        W11267   4.917  39.273   4.790
38200W        W11268  42.510  19.743   4.087
38201W        W11269  17.284   8.800   5.033
38202W        W11270   4.267  16.663  13.125
38203W        W11271  32.676  36.296  13.994
38204W        W11272   7.967  22.285   3.849
38205W        W11273  40.790  28.985   4.893
38206W        W11274   5.964  30.586  11.572
38207W        W11275  30.964  13.238  13.777
38208W        W11276  36.839  33.947  14.981
38209W        W11277  22.999   7.279   1.311
38210W        W11278  34.439  33.949  12.405
38211W        W11279  18.375  29.465  13.469
38212W        W11280  25.075  33.159   1.107
38213W        W11281  39.258  17.177  12.643
38214W        W11282  18.531  11.144   2.494
38215W        W11283  27.204  12.887  13.551
38216W        W11284  43.314   0.331  14.319
38217W        W11285  36.097  37.474  11.715
38218W        W11286  41.130  30.910  12.052
38219W        W11287  44.233  28.215  12.082
38220W        W11288  35.723  36.489   4.918
38221W        W11289  25.241  44.005  11.236
38222W        W11290   7.361  40.980  13.036
38223W        W11291  44.838  38.160   3.311
38224W        W11292  32.361  19.648  14.638
38225W        W11293  23.626  38.592  13.490
38226W        W11294   1.324  20.034  13.929
38227W        W11295  29.912   1.924  13.625
38228W        W11296   5.094  18.827   1.185
38229W        W11297  30.029  41.317   4.242
38230W        W11298   5.849   9.825   0.437
38231W        W11299  33.510  41.984   2.420
38232W        W11300  15.554   0.851  14.506
38233W        W11301  15.141  37.931   3.830
38234W        W11302  11.188  43.485   2.774
38235W        W11303   5.931  21.869  12.966
38236W        W11304   0.084  19.307   2.878
38237W        W11305  14.257  20.880  13.602
38238W        W11306  36.856  20.537   1.368
38239W        W11307  12.902  37.568  12.504
38240W        W11308  35.350  21.549  10.657
38241W        W11309  38.068   1.089  13.550
38242W        W11310  41.695   9.933  10.620
38243W        W11311  26.251   0.348  12.376
38244W        W11312  38.525   6.094  11.878
38245W        W11313  40.837   4.007  11.471
38246W        W11314  10.389  28.659   4.994
38247W        W11315  28.863  23.674  10.892
38248W        W11316  19.820  23.698   1.480
38249W        W11317  12.077  38.894  13.533
38250W        W11318  22.142  38.663  12.547
38251W        W11319  34.276  33.502   4.981
38252W        W11320   3.405  26.973   3.706
38253W        W11321  31.027  16.569  11.816
38254W        W11322  43.327  13.850   4.661
38255W        W11323  21.122  40.218  12.395
38256W        W11324  40.511   4.421   3.400
38257W        W11325  44.909  22.259   0.875
38258W        W11326  41.772  35.382  13.802
38259W        W11327  39.571  20.809   2.197
38260W        W11328  42.075  23.878   5.132
38261W        W11329   3.431  31.596   3.125
38262W        W11330   2.984   0.920  14.854
38263W        W11331  43.276  12.377  10.612
38264W        W11332   9.773  29.583   4.503
38265W        W11333  31.976   6.297   2.539
38266W        W11334   5.687  16.341   1.839
38267W        W11335  20.388  43.043  10.395
38268W        W11336  29.439   9.112   0.444
38269W        W11337  13.658  21.514   4.696
38270W        W11338   4.533  11.646   2.195
38271W        W11339   2.324  15.209  14.042
38272W        W11340  41.805  41.796  11.060
38273W        W11341  32.417   4.988   1.868
38274W        W11342  30.859  17.874  11.946
38275W        W11343   6.903   7.144   4.064
38276W        W11344   9.352  36.210   4.248
38277W        W11345  27.395  42.485   4.010
38278W        W11346  22.264  19.631   0.210
38279W        W11347  22.817  10.254  13.979
38280W        W11348  38.136   1.296  12.435
38281W        W11349   4.896  36.808  11.016
38282W        W11350  42.276  39.087  14.937
38283W        W11351   3.678  37.576  11.377
38284W        W11352  25.885  38.129   1.387
38285W        W11353  30.344  12.091   5.019
38286W        W11354  36.290  11.798  10.692
38287W        W11355  29.065  31.228  12.614
38288W        W11356  32.729  11.093   2.312
38289W        W11357   1.832  33.902   0.990
38290W        W11358  41.042  35.865   4.525
38291W        W11359  28.214  24.127  12.074
38292W        W11360  35.523  26.597  10.927
38293W        W11361  16.050  15.624  12.986
38294W        W11362  38.811  40.521   3.177
38295W        W11363   7.879  39.484  13.928
38296W        W11364  20.220  35.970  14.527
38297W        W11365   9.140  36.530  12.736
38298W        W11366  13.580  11.885   3.584
38299W        W11367  21.499   0.874  14.908
38300W        W11368  19.135  28.475   3.651
38301W        W11369  21.092   6.687  10.935
38302W        W11370  24.167  15.309   2.644
38303W        W11371  37.829  12.185  14.518
38304W        W11372   5.403  19.560  14.897
38305W        W11373  27.891  37.090   3.326
38306W        W11374  20.447  39.087   4.194
38307W        W11375   1.883  28.629   2.723
38308W        W11376  20.380  21.341  13.116
38309W        W11377  23.692   9.897  11.542
38310W        W11378  29.068  20.130  12.816
38311W        W11379   9.157  35.520  14.222
38312W        W11380  42.557  18.373   4.185
38313W        W11381  22.485  28.874   3.130
38314W        W11382  33.481  21.981   2.851
38315W        W11383   4.353  23.669  14.583
38316W        W11384  32.290  26.910   4.719
38317W        W11385   7.206  37.315  13.464
38318W        W11386  20.754  22.799  12.065
38319W        W11387  31.540  24.129  11.346
38320W        W11388  32.910  17.573   1.824
38321W        W11389  37.635   1.875   2.728
38322W        W11390  33.119   9.794   1.979
38323W        W11391  19.568  19.562   2.024
38324W        W11392  24.188   1.270   2.163
38325W        W11393  35.011  34.017  14.261
38326W        W11394  26.449   6.881   3.735
38327W        W11395  15.915  26.501  12.013
38328W        W11396  33.580  17.748  12.859
38329W        W11397   7.648  28.161  12.556
38330W        W11398   9.911   0.566   1.889
38331W        W11399  10.175  16.684  12.010
38332W        W11400  23.474   3.735   2.879
38333W        W11401  15.072  41.058  14.497
38334W        W11402  33.304  42.247  10.707
38335W        W11403  29.658  12.020   3.806
38336W        W11404   8.696  30.186  12.008
38337W        W11405  42.971   5.119  12.283
38338W        W11406   8.950  35.375  11.440
38339W        W11407  30.144  40.298   1.402
38340W        W11408   0.059  37.396   3.904
38341W        W11409   1.265  44.791  14.412
38342W        W11410  34.959  30.184  13.800
38343W        W11411  21.467  39.540  13.734
38344W        W11412  10.820  25.476  14.887
38345W        W11413  31.652   9.312  11.618
38346W        W11414  27.738  44.169  10.362
38347W        W11415  39.030  43.428   0.894
38348W        W11416  20.748  39.486  11.949
38349W        W11417   6.600   1.873   4.605
38350W        W11418   9.987  12.744  13.212
38351W        W11419  20.006  18.288   3.933
38352W        W11420  40.401  27.897  12.042
38353W        W11421  11.214   5.221  10.679
38354W        W11422  16.280  41.086  13.481
38355W        W11423  19.598   2.493   2.297
38356W        W11424   9.591  15.739  11.057
38357W        W11425  31.336  27.881   1.467
38358W        W11426  23.373   6.877  10.979
38359W        W11427   4.359   4.713   4.813
38360W        W11428  24.522  10.360   4.438
38361W        W11429  38.287  35.518  10.314
38362W        W11430  39.888   9.199   1.316
38363W        W11431  23.915  22.537  12.413
38364W        W11432   6.161  43.802  10.592
38365W        W11433   3.613  27.399  14.907
38366W        W11434  15.700  14.254   0.998
38367W        W11435  23.198  34.074  13.320
38368W        W11436   3.912  27.901   2.490
38369W        W11437  12.516  21.669   1.571
38370W        W11438  29.615  24.018  11.594
38371W        W11439  10.365  31.956  10.605
38372W        W11440  36.853  29.001   3.723
38373W        W11441  13.356  33.116  14.793
38374W        W11442   9.681   1.043   0.511
38375W        W11443  24.631  24.091   1.260
38376W        W11444  23.673  37.441  10.913
38377W        W11445  26.388  24.629   3.380
38378W        W11446  37.136  22.257   4.639
38379W        W11447  38.070   6.987  11.904
38380W        W11448  35.494  29.114  13.123
38381W        W11449  22.255  25.625  10.640
38382W        W11450  36.419  39.082   4.748
38383W        W11451   7.638  22.974  11.007
38384W        W11452  33.623  39.779   3.179
38385W        W11453  42.794  40.646   2.141
38386W        W11454  33.976  19.385   0.416
38387W        W11455  36.050  26.946   1.321
38388W        W11456  32.078  39.148   3.610
38389W        W11457  41.396  37.602   4.151
38390W        W11458  40.800  27.711   4.240
38391W        W11459  37.799   3.182  12.158
38392W        W11460   5.228   5.179   1.279
38393W        W11461  27.486  44.044  11.177
38394W        W11462   6.268  23.993  14.572
38395W        W11463   4.528  11.699   3.997
38396W        W11464  25.480  36.630  14.835
38397W        W11465  33.673   4.385   0.249
38398W        W11466  41.984  36.602   3.182
38399W        W11467  27.594  33.359   2.612
38400W        W11468   3.971  23.291   0.583
38401W        W11469  14.367  44.368  13.122
38402W        W11470  18.883   8.210  11.158
38403W        W11471  33.121  21.126  10.672
38404W        W11472   7.847  20.965  11.805
38405W        W11473   7.296  13.085  14.448
38406W        W11474  18.268  13.938   4.772
38407W        W11475  21.093  36.439   4.590
38408W        W11476   8.618  20.561  12.053
38409W        W11477  28.644  43.515  13.955
38410W        W11478  43.821  37.599  13.521
38411W        W11479  11.342  19.223  10.776
38412W        W11480   0.504  20.113   0.474
38413W        W11481  24.919  33.643   0.940
38414W        W11482  24.957   9.238   2.386
38415W        W11483   3.257  22.920  10.969
38416W        W11484  32.467  44.790  13.932
38417W        W11485  42.395   6.228   1.352
38418W        W11486  12.559  16.775   0.588
38419W        W11487  22.481   6.648   2.948
38420W        W11488  35.398  35.007  10.313
38421W        W11489  42.820  35.883  13.786
38422W        W11490   9.304  31.100   0.986
38423W        W11491  23.053  34.789   1.331
38424W        W11492  27.418  34.390   0.836
38425W        W11493   9.855  30.529  14.945
38426W        W11494  17.037  17.159   1.050
38427W        W11495  11.559   9.339  10.693
38428W        W11496   2.990  18.255  11.009
38429W        W11497  23.523  36.159  12.434
38430W        W11498  25.091  41.539   3.712
38431W        W11499  36.872  20.305   0.375
38432W        W11500  18.338  10.458   3.863
38433W        W11501   8.358  27.055  10.606
38434W        W11502  36.780  15.581  11.361
38435W        W11503  14.311  36.514  13.740
38436W        W11504   8.647  37.276   3.613
38437W        W11505  16.197  14.211   1.183
38438W        W11506  34.558  41.828   0.479
38439W        W11507  19.724  18.566  12.411
38440W        W11508  17.479  31.751  14.655
38441W        W11509  23.530  35.752  11.669
38442W        W11510  15.864   3.224   2.878
38443W        W11511  20.990   0.869  14.826
38444W        W11512  22.716  23.521   2.270
38445W        W11513  25.087   7.686   0.299
38446W        W11514   4.621  27.551   2.857
38447W        W11515  16.618   6.273   1.884
38448W        W11516   9.793  14.686   2.740
38449W        W11517  30.235  36.033   0.722
38450W        W11518  18.340  35.124  14.337
38451W        W11519  27.884  42.427  12.391
38452W        W11520   4.339  21.705  13.845
38453W        W11521  27.717  42.483   0.014
38454W        W11522  37.113  44.215   5.094
38455W        W11523   0.032  32.086  11.710
38456W        W11524  27.247  22.823  11.991
38457W        W11525  16.520   1.773   2.705
38458W        W11526   3.370  16.257   3.273
38459W        W11527  17.600  31.519   0.118
38460W        W11528  11.141  39.466   1.304
38461W        W11529  17.057  35.443  12.799
38462W        W11530  22.253  31.941   4.000
38463W        W11531  44.239  23.116  13.160
38464W        W11532  36.390   7.828  11.545
38465W        W11533   7.796  20.146   4.214
38466W        W11534   4.307  39.068   4.533
38467W        W11535   7.662  37.481   3.333
38468W        W11536   0.040  41.844   0.203
38469W        W11537  39.087   4.496   3.747
38470W        W11538  18.200  13.984  14.363
38471W        W11539  29.718  17.632   3.246
38472W        W11540  35.590   3.222   2.758
38473W        W11541  22.069   0.497  11.514
38474W        W11542  32.539  13.112  12.047
38475W        W11543   6.758   5.277   2.405
38476W        W11544  24.762  38.039  11.544
38477W        W11545  15.608  26.300   0.319
38478W        W11546  37.272  28.155   1.363
38479W        W11547  15.700  34.044   4.552
38480W        W11548  25.570  16.893   2.761
38481W        W11549  35.729  35.178  11.768
38482W        W11550  43.065   5.580  11.047
38483W        W11551  10.312  21.302   2.263
38484W        W11552  20.776  44.310   2.837
38485W        W11553  26.017   9.319  13.852
38486W        W11554  42.801  10.211   2.660
38487W        W11555   6.627  38.549  11.142
38488W        W11556  23.174  44.337  10.802
38489W        W11557   0.303  41.407  14.055
38490W        W11558  27.235  14.876  12.519
38491W        W11559  40.380  28.437   1.879
38492W        W11560  28.010  42.991  14.397
38493W        W11561  25.984  11.623  14.276
38494W        W11562   2.674   9.264  14.893
38495W        W11563  20.601  10.541  14.468
38496W        W11564  35.966  36.970   4.960
38497W        W11565  44.790  15.367  14.067
38498W        W11566  44.769   5.155  13.891
38499W        W11567  31.831  26.336   5.042
38500W        W11568  33.573  28.134  10.624
38501W        W11569   9.222   7.441   0.423
38502W        W11570  27.578  42.956   4.072
38503W        W11571  13.097  41.981  12.842
38504W        W11572  10.828  21.770  14.210
38505W        W11573  35.630   8.699  12.895
38506W        W11574   4.859  27.326  12.401
38507W        W11575  37.349  21.727  12.460
38508W        W11576  36.861   5.848  10.659
38509W        W11577  43.993  39.382  12.049
38510W        W11578  18.412  37.989   0.288
38511W        W11579  28.090  17.105  13.932
38512W        W11580  23.575  38.140   0.857
38513W        W11581  13.080  22.398   5.053
38514W        W11582  15.086  26.732  12.152
38515W        W11583  30.714  34.701  11.554
38516W        W11584   9.363  35.927  14.513
38517W        W11585  30.114   4.285   4.186
38518W        W11586  28.522  31.116   1.197
38519W        W11587  35.810  33.846   4.120
38520W        W11588  13.824  31.130  14.863
38521W        W11589  36.072  26.738  12.577
38522W        W11590  19.097  28.771  11.043
38523W        W11591  33.328   0.376  13.868
38524W        W11592  44.561   0.250   2.157
38525W        W11593  37.452  34.784  13.889
38526W        W11594  36.571  10.220   3.374
38527W        W11595  39.525   7.781   3.699
38528W        W11596  10.275  32.597   3.297
38529W        W11597  26.572   2.497  13.066
38530W        W11598   0.511  10.786  14.747
38531W        W11599  21.724  36.103   3.557
38532W        W11600   8.936  18.732   2.562
38533W        W11601  14.272  14.608   2.479
38534W        W11602  13.038  35.345   4.827
38535W        W11603  23.131  34.440   1.718
38536W        W11604  39.744  18.429  11.142
38537W        W11605  33.170   0.429   3.697
38538W        W11606  36.942   9.634   1.304
38539W        W11607  27.867   1.973   0.980
38540W        W11608  38.052  29.958   2.832
38541W        W11609  30.376  10.711   0.809
38542W        W11610  21.701  38.193  11.205
38543W        W11611  23.402  24.277  12.120
38544W        W11612  42.085   3.947  12.993
38545W        W11613   3.870  11.701  11.212
38546W        W11614  20.535   6.404   2.640
38547W        W11615   0.389  18.199   4.734
38548W        W11616  38.510  28.558   2.770
38549W        W11617  44.918   5.798   1.778
38550W        W11618  27.225  22.739   0.322
38551W        W11619  10.664   7.159  10.874
38552W        W11620  33.898  31.110   0.056
38553W        W11621  20.438  27.938  14.465
38554W        W11622   8.897   0.790  11.099
38555W        W11623   1.564  23.187   2.124
38556W        W11624   4.337  26.964  11.873
38557W        W11625  17.666  43.303  10.681
38558W        W11626  31.383   3.186  12.545
38559W        W11627   0.207  16.821   1.383
38560W        W11628  26.932   7.927   1.505
38561W        W11629  36.113  33.501  13.517
38562W        W11630  18.580  33.015  13.819
38563W        W11631   7.888  30.113   2.439
38564W        W11632  33.828  22.926  10.715
38565W        W11633  14.626  37.891   1.543
38566W        W11634  27.149   7.778  14.405
38567W        W11635  39.495  31.833  14.326
38568W        W11636  29.231  17.047  12.018
38569W        W11637  21.580  24.069   3.180
38570W        W11638  30.504  18.738   1.277
38571W        W11639  22.480   8.373   1.921
38572W        W11640   6.153   1.358   3.227
38573W        W11641  38.453   6.612   2.455
38574W        W11642  33.881   6.991  11.128
38575W        W11643  17.235  23.696   4.193
38576W        W11644  25.213   4.023  13.103
38577W        W11645  39.089  41.560  10.267
38578W        W11646  37.370  24.165   0.019
38579W        W11647  37.720   7.143  11.565
38580W        W11648  13.668  29.413  13.572
38581W        W11649  34.954  35.381  14.925
38582W        W11650  33.280  44.986  13.535
38583W        W11651  44.744  22.141  10.634
38584W        W11652  34.029  11.553   2.297
38585W        W11653   9.826  12.988   4.851
38586W        W11654   6.090  39.521   1.880
38587W        W11655  34.700  30.760  11.444
38588W        W11656  25.512  40.286   1.829
38589W        W11657  39.732   8.175   1.689
38590W        W11658  10.652  38.806   4.921
38591W        W11659   7.140  22.571   1.394
38592W        W11660  12.132  39.451  14.901
38593W        W11661  38.156  39.821   3.520
38594W        W11662   6.225  22.741  11.439
38595W        W11663   4.359  36.349   3.442
38596W        W11664  32.469   7.208   2.421
38597W        W11665  11.300   0.172  11.432
38598W        W11666   2.849  42.390  14.807
38599W        W11667  26.098  42.759   0.775
38600W        W11668  10.549  33.399  14.480
38601W        W11669  37.930  36.355  14.452
38602W        W11670  18.667  37.366  11.552
38603W        W11671  43.913   9.603   2.206
38604W        W11672  21.482  44.210   2.218
38605W        W11673  11.699  38.525   0.434
38606W        W11674  16.689  17.734   1.715
38607W        W11675  11.860   5.193   3.134
38608W        W11676  18.950  41.275   3.756
38609W        W11677  18.339   8.577  13.566
38610W        W11678  29.000  35.051   0.292
38611W        W11679  34.572  28.338   3.532
38612W        W11680  26.535  21.094   2.361
38613W        W11681   8.909  11.121   4.084
38614W        W11682  29.021  34.078   0.472
38615W        W11683  23.339  18.682  10.718
38616W        W11684   4.168  32.933  10.997
38617W        W11685  14.400  20.668   2.210
38618W        W11686   7.263  19.738  12.441
38619W        W11687  21.112  25.161   1.801
38620W        W11688   3.664   5.786   4.481
38621W        W11689  25.490  24.551   4.018
38622W        W11690  12.458  27.955   0.404
38623W        W11691  23.456  12.202  12.060
38624W        W11692  17.078  42.417  12.232
38625W        W11693  37.896  31.815   0.044
38626W        W11694  44.496  44.936  13.556
38627W        W11695  44.006  13.308   1.497
38628W        W11696  25.745  33.928   0.280
38629W        W11697  32.937  10.186   3.639
38630W        W11698  44.882   1.696   3.144
38631W        W11699  28.658  20.505   3.408
38632W        W11700   7.770  19.829   1.274
38633W        W11701  19.390   4.703  13.831
38634W        W11702  21.589  23.216   1.007
38635W        W11703  29.869  10.542   0.608
38636W        W11704  12.622   4.805   2.714
38637W        W11705  23.353  36.509   1.934
38638W        W11706  21.385   7.615  14.460
38639W        W11707  16.105   6.380  11.332
38640W        W11708  42.919  30.537  11.901
38641W        W11709  28.554   4.880   1.783
38642W        W11710  26.940  11.410  13.361
38643W        W11711  32.991  19.843   2.394
38644W        W11712  21.923  19.398   1.337
38645W        W11713  20.835  27.210   3.689
38646W        W11714  39.274  41.495  12.618
38647W        W11715  37.488  12.978   0.329
38648W        W11716  43.311  18.722   4.760
38649W        W11717  31.506  17.782  10.404
38650W        W11718   5.946  27.685  14.341
38651W        W11719   4.015  44.601   0.414
38652W        W11720   8.076   9.690  11.993
38653W        W11721  18.124  32.566  10.878
38654W        W11722  20.558   6.899   4.868
38655W        W11723  23.225  18.813   1.315
38656W        W11724  25.936  24.721  11.160
38657W        W11725  33.523   4.752   4.059
38658W        W11726  15.340  40.427   2.324
38659W        W11727  35.663   0.369  14.858
38660W        W11728  44.226  12.425   1.882
38661W        W11729  12.585  38.351   0.358
38662W        W11730  33.674  25.694  14.823
38663W        W11731  12.291  31.272  13.528
38664W        W11732  22.942  12.698   2.696
38665W        W11733  31.474  12.732   4.788
38666W        W11734   7.799  37.921  10.628
38667W        W11735  25.241  39.596  11.076
38668W        W11736   3.859  24.649   4.847
38669W        W11737  22.772  32.739  13.553
38670W        W11738   3.161  14.927   3.377
38671W        W11739  36.973   1.653   0.481
38672W        W11740  44.738  43.013  11.516
38673W        W11741  29.771   1.758  11.688
38674W        W11742  10.746  14.954  12.945
38675W        W11743  33.292  22.939  11.989
38676W        W11744  41.881   2.813  13.852
38677W        W11745   8.230   2.768  10.467
38678W        W11746  41.297   4.840   2.744
38679W        W11747  39.005  36.603   4.135
38680W        W11748  13.720   6.376   1.270
38681W        W11749  39.756   6.420  12.493
38682W        W11750  18.302  26.897   4.027
38683W        W11751  17.209   6.288   3.317
38684W        W11752  39.119  37.749   2.605
38685W        W11753  23.042  37.871   1.755
38686W        W11754  18.332  26.472   2.709
38687W        W11755   3.264   1.409  11.067
38688W        W11756  38.513  35.974   0.508
38689W        W11757  10.075  22.497  13.431
38690W        W11758  44.258   6.969   3.313
38691W        W11759   2.886   7.656  11.726
38692W        W11760  38.515  23.046  13.269
38693W        W11761   0.820  27.606   4.761
38694W        W11762  39.374  39.379   4.121
38695W        W11763  38.622  24.844  11.354
38696W        W11764  36.481  10.328  12.659
38697W        W11765   6.052  20.495  11.534
38698W        W11766   3.736  24.166   0.259
38699W        W11767  38.965  18.159   3.728
38700W        W11768  43.742  23.002  13.026
38701W        W11769  32.527  14.342   1.724
38702W        W11770  29.964  11.082   0.024
38703W        W11771  33.877  29.483  10.676
38704W        W11772   3.928  40.313  10.342
38705W        W11773  22.220  18.492  11.512
38706W        W11774  39.467  23.279  13.313
38707W        W11775  36.880  34.554   3.474
38708W        W11776  33.599  38.433   1.801
38709W        W11777  37.987  30.855   5.370
38710W        W11778  38.512  12.680   4.876
38711W        W11779  36.319  37.386   4.877
38712W        W11780  43.058  38.107   0.531
38713W        W11781  28.545  13.863  13.474
38714W        W11782  25.752  37.312   1.103
38715W        W11783   6.212  32.361   4.964
38716W        W11784  14.798  37.543  10.835
38717W        W11785  44.551  38.894  11.550
38718W        W11786  24.111   3.340  10.695
38719W        W11787  23.679  25.922   1.670
38720W        W11788  11.212   0.057   0.065
38721W        W11789   0.493  44.893   1.377
38722W        W11790  33.511   8.142   3.079
38723W        W11791  28.441  36.618  11.431
38724W        W11792  23.165  17.610  11.111
38725W        W11793   7.200  43.866  10.688
38726W        W11794  23.700   4.401  13.294
38727W        W11795  35.746  11.876  11.951
38728W        W11796   5.282  18.081  12.797
38729W        W11797   7.433  21.489   2.781
38730W        W11798  42.158   0.491   1.111
38731W        W11799  36.635  18.333  10.080
38732W        W11800  30.654  33.827   0.958
38733W        W11801  27.486  13.256  12.078
38734W        W11802  18.744  44.000  11.359
38735W        W11803  17.169  41.024  12.359
38736W        W11804  36.828   1.852   3.788
38737W        W11805  35.010  19.142   4.690
38738W        W11806  31.863  18.575  14.300
38739W        W11807  42.162   2.464   2.297
38740W        W11808  11.807  36.469  10.591
38741W        W11809  25.000  19.212   3.623
38742W        W11810  32.580  15.810   1.030
38743W        W11811  13.170  20.738   2.356
38744W        W11812  14.538  24.510  12.059
38745W        W11813  41.126  29.412  10.732
38746W        W11814   9.699  29.178  11.927
38747W        W11815  43.844   5.442   1.263
38748W        W11816  12.534  15.642   2.617
38749W        W11817  41.034   7.604   3.811
38750W        W11818  36.771   9.176  13.969
38751W        W11819   1.945   4.307   3.650
38752W        W11820  12.250  33.390   3.692
38753W        W11821  10.660  18.512  13.944
38754W        W11822  28.171  44.494  12.170
38755W        W11823   6.172   5.699   3.718
38756W        W11824  23.196  43.449   3.107
38757W        W11825  24.093   6.190  14.488
38758W        W11826  26.543  30.684   2.265
38759W        W11827  11.853  16.625  12.812
38760W        W11828   6.791  38.569   0.896
38761W        W11829  12.852  10.669   3.733
38762W        W11830  15.064  10.484  10.539
38763W        W11831  35.722  10.557   4.282
38764W        W11832  32.439  14.787  11.594
38765W        W11833  34.853  33.511   1.288
38766W        W11834  27.569  35.466   1.790
38767W        W11835  10.831  12.597   4.896
38768W        W11836  13.613  41.855  12.876
38769W        W11837  24.535  30.214   1.825
38770W        W11838  36.350  31.205   0.373
38771W        W11839  44.884  39.771  13.424
38772W        W11840  33.205  35.006  12.845
38773W        W11841   2.738   7.617   3.739
38774W        W11842  12.587   4.558   1.836
38775W        W11843  42.401   8.824   4.444
38776W        W11844  32.645  27.490  12.344
38777W        W11845   3.324  37.441   5.099
38778W        W11846  38.888  10.413   3.619
38779W        W11847  43.954   2.850   1.292
38780W        W11848   8.217  21.722  14.927
38781W        W11849  32.023   4.686  12.940
38782W        W11850  17.800  27.665   3.852
38783W        W11851  25.043  14.578  11.063
38784W        W11852  30.412  42.796   2.556
38785W        W11853  23.063  30.118  14.325
38786W        W11854  41.736  34.088  13.956
38787W        W11855  31.341  12.866   0.716
38788W        W11856  13.756  12.159   1.731
38789W        W11857  10.740   8.394  11.374
38790W        W11858   0.494   5.951   2.715
38791W        W11859  11.339   5.779  12.015
38792W        W11860  19.193  19.565  13.467
38793W        W11861  27.538  44.457  13.350
38794W        W11862  30.080  33.401   4.307
38795W        W11863   2.243  31.145  11.573
38796W        W11864   9.851  42.014   3.353
38797W        W11865  19.584  34.880   1.298
38798W        W11866   1.494   5.703   1.813
38799W        W11867   7.587  20.214   3.597
38800W        W11868  24.100  18.755   1.829
38801W        W11869  21.141  31.676   3.281
38802W        W11870  30.120  43.879  12.438
38803W        W11871  26.129  31.302  12.349
38804W        W11872  16.531   2.463   0.197
38805W        W11873  13.377  26.670  13.693
38806W        W11874   9.300  32.110   4.591
38807W        W11875  30.702  22.268  13.467
38808W        W11876   6.791   3.719  11.799
38809W        W11877  35.377  44.845  12.109
38810W        W11878  11.672   1.229  11.923
38811W        W11879  14.695   3.850   4.506
38812W        W11880  10.965  11.612  14.056
38813W        W11881   8.894  27.076   3.642
38814W        W11882  24.231  24.667   3.657
38815W        W11883   2.075   5.994  11.133
38816W        W11884  24.304  18.171  14.596
38817W        W11885  18.023  30.108   0.028
38818W        W11886   6.884   1.968   3.304
38819W        W11887  22.775  16.167  11.657
38820W        W11888  32.092  14.854   3.074
38821W        W11889  12.311  10.730   3.100
38822W        W11890  27.188  34.052  13.710
38823W        W11891  42.816  37.891  14.094
38824W        W11892  14.145  25.082   4.222
38825W        W11893  17.745  26.467  12.121
38826W        W11894  44.366  19.773   4.501
38827W        W11895  36.086   5.269   3.799
38828W        W11896   5.011  41.936   1.460
38829W        W11897   3.417   8.757   2.435
38830W        W11898  31.361  37.987  14.453
38831W        W11899   4.311  31.050   0.869
38832W        W11900  37.065   7.708   3.782
38833W        W11901  28.195  37.304  14.821
38834W        W11902  26.726  41.689  11.622
38835W        W11903  18.170   0.941   0.234
38836W        W11904   6.881   5.380  14.855
38837W        W11905  14.141   1.382  14.358
38838W        W11906  19.007  17.632   4.579
38839W        W11907  40.264  15.115  14.408
38840W        W11908  33.421   7.570  14.779
38841W        W11909  18.843  18.381   5.120
38842W        W11910  17.702   0.459   0.228
38843W        W11911   2.442  20.917   2.266
38844W        W11912   6.769  43.560  11.064
38845W        W11913  37.965  38.409  13.273
38846W        W11914   2.227  44.012   1.421
38847W        W11915  33.568  13.233   0.260
38848W        W11916   7.282  13.836  12.847
38849W        W11917  37.726  19.635  12.619
38850W        W11918  29.741   7.829  13.708
38851W        W11919   2.306  26.636  14.487
38852W        W11920   3.731   0.189  13.620
38853W        W11921   7.510  17.057   3.759
38854W        W11922  22.475   0.297   0.509
38855W        W11923  26.489  40.368  10.483
38856W        W11924   5.763  35.320   1.871
38857W        W11925  18.167  41.098  14.397
38858W        W11926   1.219  39.841  14.953
38859W        W11927  26.574  22.171   4.615
38860W        W11928  44.236   2.416   4.148
38861W        W11929  29.996   6.804   1.735
38862W        W11930  30.423  24.611  14.908
38863W        W11931  37.028  23.863   1.477
38864W        W11932  42.493  42.475   2.219
38865W        W11933   9.629  35.895  11.186
38866W        W11934  41.374   8.473   2.756
38867W        W11935  28.138  14.155  10.560
38868W        W11936  35.055   6.836  10.917
38869W        W11937   4.189   1.702  11.214
38870W        W11938  12.830  22.306  13.897
38871W        W11939   9.342   3.494  13.371
38872W        W11940  23.197   8.047   3.403
38873W        W11941   2.181  16.210  11.424
38874W        W11942   7.260  13.326  12.390
38875W        W11943  20.979   1.801  14.813
38876W        W11944  23.070  12.266   2.966
38877W        W11945  22.752   1.526  13.342
38878W        W11946   7.315  20.695   4.287
38879W        W11947  11.863   3.478  12.397
38880W        W11948  32.185  16.298   1.959
38881W        W11949  44.027  42.848   4.159
38882W        W11950  37.848  17.273  14.378
38883W        W11951   5.247  22.862   3.736
38884W        W11952  43.325  12.331   0.155
38885W        W11953  31.586  16.667  12.562
38886W        W11954   4.812  44.897  13.580
38887W        W11955  15.719  28.229  13.446
38888W        W11956  23.637  37.321   3.862
38889W        W11957  20.657  18.707   3.395
38890W        W11958   7.076  21.196   4.950
38891W        W11959  34.860   8.150   3.257
38892W        W11960  31.121  36.380  13.945
38893W        W11961   6.163   0.695  13.486
38894W        W11962  17.291  13.913   4.717
38895W        W11963   4.187  26.947  12.365
38896W        W11964  32.554  16.568  11.847
38897W        W11965   4.910  27.647   4.370
38898W        W11966  12.331  39.610   2.839
38899W        W11967  10.391   9.853   4.587
38900W        W11968   3.897  16.222  13.007
38901W        W11969  27.120  30.687  12.472
38902W        W11970  29.101   7.474   2.460
38903W        W11971  37.270  37.643   3.699
38904W        W11972   3.027  29.069   0.310
38905W        W11973  26.271  33.454   3.160
38906W        W11974  18.258  11.563   2.851
38907W        W11975   1.872   2.822  14.675
38908W        W11976  34.750   5.118  13.878
38909W        W11977   5.224  24.546  10.415
38910W        W11978  32.802   1.900   1.929
38911W        W11979   4.571  17.985  10.345
38912W        W11980  11.546   3.362  12.821
38913W        W11981  28.101   7.034   4.221
38914W        W11982  44.338  37.867   2.136
38915W        W11983  30.480  43.959  11.510
38916W        W11984  27.188  14.156   3.274
38917W        W11985  39.472  24.201   0.042
38918W        W11986  25.010   3.402   0.750
38919W        W11987  24.304  26.764  12.929
38920W        W11988  25.009   0.482   3.672
38921W        W11989   1.009   2.170   0.390
38922W        W11990  30.612  13.954   4.082
38923W        W11991  41.326  24.593   3.667
38924W        W11992   6.888   4.481  10.659
38925W        W11993  39.822   0.224  13.887
38926W        W11994   0.704  29.932   2.295
38927W        W11995   2.893  32.931   2.390
38928W        W11996  38.843  26.560  14.380
38929W        W11997  43.573  29.466  13.436
38930W        W11998  33.300  11.837  12.095
38931W        W11999   3.770  20.429  10.493
38932W        W12000  39.849  41.825   0.396
38933W        W12001   2.743  36.612   3.446
38934W        W12002   3.377  28.670   3.289
38935W        W12003  37.046   0.802  13.337
38936W        W12004  43.020  41.307  13.412
38937W        W12005  26.102  32.415  10.584
38938W        W12006  42.059  13.744   2.444
38939W        W12007  13.080  15.669   0.461
38940W        W12008  10.312  42.746   1.861
38941W        W12009  31.795  28.025   2.677
38942W        W12010  37.825  10.482  14.686
38943W        W12011  34.691  11.729   2.830
38944W        W12012  15.137  25.746  14.249
38945W        W12013   0.555   9.603   0.423
38946W        W12014  22.708  14.031  14.593
38947W        W12015  19.742  20.341  13.431
38948W        W12016  31.896  39.981   3.679
38949W        W12017  11.701   2.258   0.253
38950W        W12018  30.021  34.655  14.476
38951W        W12019  30.045  10.444   1.346
38952W        W12020  10.631  18.853  13.133
38953W        W12021  36.062  34.078   4.518
38954W        W12022  10.608  23.192  14.219
38955W        W12023   5.186  33.471   2.769
38956W        W12024   9.622  27.044  13.800
38957W        W12025  32.210   8.143  11.299
38958W        W12026   3.084  24.641  13.818
38959W        W12027  28.438  21.640   0.431
38960W        W12028  27.553  42.013  13.751
38961W        W12029  36.337  26.625   4.590
38962W        W12030   3.802  10.469  14.313
38963W        W12031  40.569  30.696   3.512
38964W        W12032  41.053  22.645   3.797
38965W        W12033  11.532  39.102   3.236
38966W        W12034  16.659  38.101  14.983
38967W        W12035   3.563  37.867  14.428
38968W        W12036  13.685   5.442  12.016
38969W        W12037  33.215  44.372   2.775
38970W        W12038  41.910  39.874   0.908
38971W        W12039  11.465   4.421   0.405
38972W        W12040  40.433  22.667   2.582
38973W        W12041  11.323  26.893   3.181
38974W        W12042  33.110  24.091  11.683
38975W        W12043  28.631  32.984  14.402
38976W        W12044  27.608  20.058   1.271
38977W        W12045  41.016  14.742  12.491
38978W        W12046  30.813  31.987  11.133
38979W        W12047  30.160  39.899  12.086
38980W        W12048  33.047   4.770  10.444
38981W        W12049  21.346  36.894   4.632
38982W        W12050  38.107  34.568  12.395
38983W        W12051  37.888  10.722   0.461
38984W        W12052  21.761  23.689   2.817
38985W        W12053  17.767  13.869  11.061
38986W        W12054  33.043   1.875   0.751
38987W        W12055  39.536  11.713   1.217
38988W        W12056  30.781   6.687  12.937
38989W        W12057  39.507  32.613  10.837
38990W        W12058  30.620   9.766  13.305
38991W        W12059   5.622  28.766  13.249
38992W        W12060   1.741   5.874   4.501
38993W        W12061  22.075  39.689  13.602
38994W        W12062  10.802  17.696   2.789
38995W        W12063  10.336  17.215   4.994
38996W        W12064  15.082  40.415  12.538
38997W        W12065   8.657  36.920   4.937
38998W        W12066  19.061  32.474  10.900
38999W        W12067   4.749  24.008   2.420
39000W        W12068  30.252  20.747   4.156
39001W        W12069   5.397  20.989  12.354
39002W        W12070   2.729  17.711   0.863
39003W        W12071   2.914  14.555  12.732
39004W        W12072  20.246  40.614   0.498
39005W        W12073  39.099  12.378  11.890
39006W        W12074  29.540  25.383  10.333
39007W        W12075  19.843  34.522   4.621
39008W        W12076  43.562  39.102  11.118
39009W        W12077  39.799   3.203  14.805
39010W        W12078  36.245  30.793  11.547
39011W        W12079  29.494  10.153  11.921
39012W        W12080   5.148  41.500   4.715
39013W        W12081  33.223  16.722  13.636
39014W        W12082  15.396  33.464  12.366
39015W        W12083   7.586  44.503  14.846
39016W        W12084  16.865   3.890  12.375
39017W        W12085  10.742  27.342  12.001
39018W        W12086  27.655  13.146   1.282
39019W        W12087  14.189   4.785  13.471
39020W        W12088   3.975   4.541  11.568
39021W        W12089  23.339  43.907   4.908
39022W        W12090  41.773   1.920   1.316
39023W        W12091  26.027  16.273  14.273
39024W        W12092  28.025  36.773  12.050
39025W        W12093  24.268  20.723  10.914
39026W        W12094  40.514   3.954   0.837
39027W        W12095  27.524  41.085   0.761
39028W        W12096  34.192  10.248  13.414
39029W        W12097  20.138  38.953  13.914
39030W        W12098  37.338   8.333   3.652
39031W        W12099  19.945   1.795  14.921
39032W        W12100  17.057  12.735  12.139
39033W        W12101  26.512  38.090  13.854
39034W        W12102  37.506  39.508   1.714
39035W        W12103  20.160  31.483   0.766
39036W        W12104  11.273  20.071  11.469
39037W        W12105   5.296  13.825   3.398
39038W        W12106  25.549  30.456  13.494
39039W        W12107  39.804  20.114  11.470
39040W        W12108  28.622  25.477  11.234
39041W        W12109  32.424  31.178   1.187
39042W        W12110  33.496   7.833   2.636
39043W        W12111  12.789  33.954  12.983
39044W        W12112   2.686  27.735   4.580
39045W        W12113   4.472  38.347  10.676
39046W        W12114   0.998  27.461  11.568
39047W        W12115  43.153  13.203   3.759
39048W        W12116   2.305  16.680   2.206
39049W        W12117  24.439  33.894  13.736
39050W        W12118  27.995  17.109   1.992
39051W        W12119   3.490  33.155   0.883
39052W        W12120  26.984  40.706  12.146
39053W        W12121  41.235  23.666   0.874
39054W        W12122  19.172  38.582  14.875
39055W        W12123  36.863  40.930   4.245
39056W        W12124  18.062  17.529   2.783
39057W        W12125  35.659   1.889   2.678
39058W        W12126  26.536  42.337   0.663
39059W        W12127  24.139  20.039   2.359
39060W        W12128   1.239   1.866   4.581
39061W        W12129  28.010  13.082   2.617
39062W        W12130  10.843  26.086  12.615
39063W        W12131  15.742  43.893  14.340
39064W        W12132  19.714   0.410   0.446
39065W        W12133   7.684   6.609  13.426
39066W        W12134  24.476  38.813   4.294
39067W        W12135   2.414  37.968   4.838
39068W        W12136  42.957   0.049   2.753
39069W        W12137  43.488  44.432  13.813
39070W        W12138   1.510  36.142   1.475
39071W        W12139  19.324  22.758  11.191
39072W        W12140  12.363   4.274  10.662
39073W        W12141  32.682  24.052   0.829
39074W        W12142  27.182   8.382   1.359
39075W        W12143  23.118  14.703  13.033
39076W        W12144  37.958  29.945  11.005
39077W        W12145  34.373  14.321  13.768
39078W        W12146  32.511  23.606  12.914
39079W        W12147  12.970  44.722   0.552
39080W        W12148  13.383  30.933   1.350
39081W        W12149  26.055  10.703  12.141
39082W        W12150  17.755   4.933  10.377
39083W        W12151  39.054  32.967   3.321
39084W        W12152   5.385  11.580   2.801
39085W        W12153  42.178  33.393   3.562
39086W        W12154  40.107   1.171  11.117
39087W        W12155  27.144  36.616   3.665
39088W        W12156  40.354   0.816   2.577
39089W        W12157   0.558  44.490   3.453
39090W        W12158  32.069   9.878  14.782
39091W        W12159   1.350   8.418  11.656
39092W        W12160   4.329   3.957   0.572
39093W        W12161  42.926  37.582   4.853
39094W        W12162  38.617  44.179   1.469
39095W        W12163   5.945  34.598   4.185
39096W        W12164  39.395  42.474   0.981
39097W        W12165  27.657  13.780  11.137
39098W        W12166  32.434  21.738   4.173
39099W        W12167  18.562  27.952  10.187
39100W        W12168  33.847  19.394   3.195
39101W        W12169   4.788   7.416   4.234
39102W        W12170  34.866   1.842   3.451
39103W        W12171   4.299  42.900   4.351
39104W        W12172  37.990   5.351  12.883
39105W        W12173  44.488  12.666  11.137
39106W        W12174  31.551  33.811   0.495
39107W        W12175  23.688  44.727   1.194
39108W        W12176  39.735  27.156   3.524
39109W        W12177  39.026   1.301   2.679
39110W        W12178  18.254  33.385  14.040
39111W        W12179   4.876  12.081   1.450
39112W        W12180  29.908  26.961   4.754
39113W        W12181  26.081  23.963  14.240
39114W        W12182  28.083  16.020   4.180
39115W        W12183  26.540  41.547   4.524
39116W        W12184  28.954  33.637  11.318
39117W        W12185  28.061  44.021   2.602
39118W        W12186   8.328  31.382  14.784
39119W        W12187  30.530  27.980   3.223
39120W        W12188  37.841   5.857   1.770
39121W        W12189  36.690  39.677  11.473
39122W        W12190  12.304  27.536  14.683
39123W        W12191  25.769  13.261  10.876
39124W        W12192  18.525  43.469   3.083
39125W        W12193  35.204   7.374   0.857
39126W        W12194  16.087  15.327   5.015
39127W        W12195  33.412  16.349  11.393
39128W        W12196  38.849  31.098   4.440
39129W        W12197   9.549  19.721   4.566
39130W        W12198  42.856  12.438   1.726
39131W        W12199   2.214  15.710  11.174
39132W        W12200  40.055   6.899   2.678
39133W        W12201   8.449  32.493   2.715
39134W        W12202  42.485  41.894   2.775
39135W        W12203  37.978  31.354  14.265
39136W        W12204  44.466  38.508   2.725
39137W        W12205   1.785   1.501   0.333
39138W        W12206  28.511   8.318   2.815
39139W        W12207  25.786  12.074  10.555
39140W        W12208  39.885  15.646   4.996
39141W        W12209  11.912  12.724  13.601
39142W        W12210  30.061  16.300  13.981
39143W        W12211   1.305  40.706   2.852
39144W        W12212  14.911  12.351   2.731
39145W        W12213  42.520   7.729  10.617
39146W        W12214  25.698  38.620  11.436
39147W        W12215  25.931  36.389   0.749
39148W        W12216  35.700  36.983  14.955
39149W        W12217   8.612  30.493   2.825
39150W        W12218   2.839  31.354   4.680
39151W        W12219  32.362   7.239  13.926
39152W        W12220  37.934  32.067   5.051
39153W        W12221  17.204   4.675   1.350
39154W        W12222   0.252  33.350  14.370
39155W        W12223  21.470  24.748   3.862
39156W        W12224  41.932  24.633  13.836
39157W        W12225  36.814   3.213  14.727
39158W        W12226   9.229  23.434  12.810
39159W        W12227  25.144  18.217   0.995
39160W        W12228  36.911  11.265   3.624
39161W        W12229  31.933  16.628  14.914
39162W        W12230  38.540   8.315  12.469
39163W        W12231  41.197  15.106   2.210
39164W        W12232  38.989  23.195  13.488
39165W        W12233   3.250  16.976  10.781
39166W        W12234   5.407  41.861  14.123
39167W        W12235  25.529  26.457   1.783
39168W        W12236  37.779  11.688  14.301
39169W        W12237   8.747  41.534  14.760
39170W        W12238  38.994   2.688   0.884
39171W        W12239   5.926  29.222   0.248
39172W        W12240   2.204  17.259   3.648
39173W        W12241  12.399  38.517  11.154
39174W        W12242  22.360  19.046  12.676
39175W        W12243  36.552  29.896  10.628
39176W        W12244  10.445  42.083  10.051
39177W        W12245  15.994  37.470  13.389
39178W        W12246  15.574   2.011  10.197
39179W        W12247   5.321  40.530  10.766
39180W        W12248  21.031  39.992  11.103
39181W        W12249  44.695  24.776  13.878
39182W        W12250  41.030  33.371  11.006
39183W        W12251  37.067   1.932   3.354
39184W        W12252  37.512  11.669  13.829
39185W        W12253  32.382   8.324   0.192
39186W        W12254  11.797  22.024  11.553
39187W        W12255  30.416  13.474  10.653
39188W        W12256  27.728   4.805  10.932
39189W        W12257   4.260  28.998  11.546
39190W        W12258   2.332  39.335   0.392
39191W        W12259  41.365  44.820  13.049
39192W        W12260  41.320  25.392  14.943
39193W        W12261  39.871  36.385  10.659
39194W        W12262   9.286  32.731  14.351
39195W        W12263  18.214   0.383   0.287
39196W        W12264   6.473  17.202   1.022
39197W        W12265  42.537  11.812   0.027
39198W        W12266  23.741  26.661   2.201
39199W        W12267  13.302  29.455   2.084
39200W        W12268   3.239  35.470   0.355
39201W        W12269  31.894  41.471  14.098
39202W        W12270  32.651  16.094  14.716
39203W        W12271  35.163  21.047   2.793
39204W        W12272  22.343  27.607  13.542
39205W        W12273  16.816   9.716  10.852
39206W        W12274  17.039  43.877  13.692
39207W        W12275  32.157  30.068  13.966
39208W        W12276  28.205  41.489  12.102
39209W        W12277  30.155  24.911   0.737
39210W        W12278  40.809  20.764  13.437
39211W        W12279  42.029  22.116  13.974
39212W        W12280  28.875  14.142  11.135
39213W        W12281   9.896  30.831  14.289
39214W        W12282  26.030  40.680  12.193
39215W        W12283  28.743   0.293  12.687
39216W        W12284  12.668   4.968  14.500
39217W        W12285  42.679  29.541   3.680
39218W        W12286  23.512  33.117   2.810
39219W        W12287  41.931  37.374  14.972
39220W        W12288  12.333   3.123  13.986
39221W        W12289  12.191  24.568  13.888
39222W        W12290  20.047  18.158  12.388
39223W        W12291   4.892  37.600   1.602
39224W        W12292  39.319   6.845   1.349
39225W        W12293  36.998  36.873  12.419
39226W        W12294  40.311   8.312  10.264
39227W        W12295   0.755  19.301   2.227
39228W        W12296  41.050  34.881  14.450
39229W        W12297  42.878  10.994  14.569
39230W        W12298  36.967  26.091  14.545
39231W        W12299  26.737  13.838   0.811
39232W        W12300  39.093   2.186  14.388
39233W        W12301  12.562  31.624  13.842
39234W        W12302  32.032   1.238  12.576
39235W        W12303  24.298  32.634   2.338
39236W        W12304  40.394  41.753   1.033
39237W        W12305  22.541  10.789  11.587
39238W        W12306  43.803  16.753   4.853
39239W        W12307  23.021  30.618  14.200
39240W        W12308  17.198  37.475  12.029
39241W        W12309  35.107  43.510  11.359
39242W        W12310   4.834   5.169  12.356
39243W        W12311  18.740   5.825  11.616
39244W        W12312  20.547  34.971  14.966
39245W        W12313  42.016  40.206  13.441
39246W        W12314  23.423   7.149   3.308
39247W        W12315  16.576  37.825   0.448
39248W        W12316  24.044  18.989   4.112
39249W        W12317  25.101   8.723   2.323
39250W        W12318  11.861   5.003   1.344
39251W        W12319  11.153  29.640  10.684
39252W        W12320  44.258  29.496   2.673
39253W        W12321  24.000   1.296  13.615
39254W        W12322  33.127  15.557  14.321
39255W        W12323   2.960  42.405   4.855
39256W        W12324  14.569  28.192  13.676
39257W        W12325  22.973  15.214  13.871
39258W        W12326  11.178  43.877   1.407
39259W        W12327  44.249  42.535  10.761
39260W        W12328  40.032  36.945   3.640
39261W        W12329  41.278  32.825   1.723
39262W        W12330  30.425  10.772  14.034
39263W        W12331  29.208  13.078  11.998
39264W        W12332   1.722  32.839  11.153
39265W        W12333  10.332  37.747   2.422
39266W        W12334   2.215  38.871  10.140
39267W        W12335  41.428  28.192   4.810
39268W        W12336  33.880   2.759   1.963
39269W        W12337  16.324  43.752  11.169
39270W        W12338   3.211  19.467  11.379
39271W        W12339  15.357   2.693   1.719
39272W        W12340  14.435  25.546   4.268
39273W        W12341  15.766   5.832  14.257
39274W        W12342  39.325  23.702   0.263
39275W        W12343  13.515   8.131   3.760
39276W        W12344  34.623  26.721  13.619
39277W        W12345  21.000  33.989   4.088
39278W        W12346  39.474   2.488  11.428
39279W        W12347  41.894  33.490  10.734
39280W        W12348  20.226  22.712  12.301
39281W        W12349  39.265   9.503   0.669
39282W        W12350  28.910  26.871   4.241
39283W        W12351  33.525  19.643   0.263
39284W        W12352  18.671  34.755   3.759
39285W        W12353  18.278   4.903   2.050
39286W        W12354  25.364  15.141   4.925
39287W        W12355  26.043  27.570  14.088
39288W        W12356  37.936  31.387  12.030
39289W        W12357  10.891   8.927   2.749
39290W        W12358   3.452  26.580   4.663
39291W        W12359  12.825  37.662  13.531
39292W        W12360   0.533  34.108  12.387
39293W        W12361  30.037  26.715  10.650
39294W        W12362  26.857  15.624   1.727
39295W        W12363  19.942   8.642   0.200
39296W        W12364  28.719  11.218   0.756
39297W        W12365   3.740   9.768  14.195
39298W        W12366  10.312  26.297  11.883
39299W        W12367  18.165  18.563   1.467
39300W        W12368  30.620  12.177   3.629
39301W        W12369  37.903  43.375  12.401
39302W        W12370  35.859   0.096  14.258
39303W        W12371  40.816  32.007  14.287
39304W        W12372  42.695  15.666   4.541
39305W        W12373   1.175  30.008   4.410
39306W        W12374  39.081  21.953   4.178
39307W        W12375  34.647   2.407   2.701
39308W        W12376  15.721  26.070   2.285
39309W        W12377  16.216   4.913   2.609
39310W        W12378  12.611  38.045   2.239
39311W        W12379  18.676  11.760   1.259
39312W        W12380  40.856  10.818  12.638
39313W        W12381   5.250   8.213   2.863
39314W        W12382  23.623  36.121   0.315
39315W        W12383  29.825  11.628   4.116
39316W        W12384   2.297   6.816  10.539
39317W        W12385   0.402   4.470  12.699
39318W        W12386  19.222  21.163   0.557
39319W        W12387   4.453  37.309   2.313
39320W        W12388   9.618  27.422   4.152
39321W        W12389   8.827  15.995   4.235
39322W        W12390  33.299  15.107  11.444
39323W        W12391  13.625  23.983  11.681
39324W        W12392  25.816  10.834   1.341
39325W        W12393  18.625  39.622   4.098
39326W        W12394  39.001  22.293  10.180
39327W        W12395  15.568  31.571   3.229
39328W        W12396  41.930   4.919   4.519
39329W        W12397   7.038  43.765   1.768
39330W        W12398  33.985  26.410   4.254
39331W        W12399  15.651   7.861  14.037
39332W        W12400   4.958   2.470   2.677
39333W        W12401   0.905  29.637  13.896
39334W        W12402   7.951  12.725  10.965
39335W        W12403  17.082   7.084   0.913
39336W        W12404  44.217  22.592   2.815
39337W        W12405  27.753  43.694   3.454
39338W        W12406  33.590  35.998  12.504
39339W        W12407   2.787  12.546  13.928
39340W        W12408  14.623  36.123   2.410
39341W        W12409   9.777  37.133  11.877
39342W        W12410  18.175  36.379  14.081
39343W        W12411  29.060  13.292   1.288
39344W        W12412  44.818  13.921  12.976
39345W        W12413   3.491  29.628  11.024
39346W        W12414   7.319  28.407  11.096
39347W        W12415   7.381   2.458  12.883
39348W        W12416  26.667  12.663   9.812
39349W        W12417  39.389  19.982   1.882
39350W        W12418   6.467   0.465   3.396
39351W        W12419   7.770  27.626  12.839
39352W        W12420  34.904  40.769  14.103
39353W        W12421  10.472  41.345  13.808
39354W        W12422  11.712  26.987   0.807
39355W        W12423  28.686  38.482   0.154
39356W        W12424  43.880  29.336   0.343
39357W        W12425  39.697  24.053  11.012
39358W        W12426  32.423   0.722  14.517
39359W        W12427  12.174   3.766   4.091
39360W        W12428  25.268  31.422   2.384
39361W        W12429  43.597  27.115   0.895
39362W        W12430  15.857  28.625  11.526
39363W        W12431  32.999  15.732   0.681
39364W        W12432   8.336  22.342   1.137
39365W        W12433  33.436  13.262   4.140
39366W        W12434  37.449   3.717   2.150
39367W        W12435   2.144  19.746   3.644
39368W        W12436  42.431  39.827  13.386
39369W        W12437  40.887   8.826   3.939
39370W        W12438  28.155  41.415  11.163
39371W        W12439   3.084  17.370   0.299
39372W        W12440  15.155  21.741   0.002
39373W        W12441   3.871  27.019  11.664
39374W        W12442  19.023  30.025   4.087
39375W        W12443  30.561  27.045   1.927
39376W        W12444   5.725  21.714  13.478
39377W        W12445  10.234  10.688  12.836
39378W        W12446   4.828  21.036  13.370
39379W        W12447  15.524  35.400   1.631
39380W        W12448  13.160  39.898  11.925
39381W        W12449  11.413  37.513  11.573
39382W        W12450   4.685  20.500  10.573
39383W        W12451  20.170  26.934   0.404
39384W        W12452  21.738  42.991  10.573
39385W        W12453  34.108   0.966   1.390
39386W        W12454  40.740  36.344  12.646
39387W        W12455  43.562   8.689  12.116
39388W        W12456  29.977  38.084  10.735
39389W        W12457  30.928  41.326  10.718
39390W        W12458  29.197   1.979  11.565
39391W        W12459  32.923   4.880  14.347
39392W        W12460   5.915  30.160   0.717
39393W        W12461  27.474  28.947   1.282
39394W        W12462  34.415  16.242  14.060
39395W        W12463  22.595  26.749   3.584
39396W        W12464  37.451  38.546   0.324
39397W        W12465  39.503  23.763  12.437
39398W        W12466  19.455   6.252  14.384
39399W        W12467  19.018  16.582  11.108
39400W        W12468  26.266  23.601   2.016
39401W        W12469  12.162   0.203  13.300
39402W        W12470   8.838  11.313  14.793
39403W        W12471   1.470  13.172   1.324
39404W        W12472  32.668  15.768   4.562
39405W        W12473  24.635  33.064   3.736
39406W        W12474  22.856  26.705   2.552
39407W        W12475  35.022  23.140   4.409
39408W        W12476  32.975  18.855   1.339
39409W        W12477  41.487  11.465   2.801
39410W        W12478  12.309   0.180  11.659
39411W        W12479  11.292  18.118   0.857
39412W        W12480  12.579  16.169  13.023
39413W        W12481  37.788  38.050   4.407
39414W        W12482  41.595   9.746  12.783
39415W        W12483  36.760   7.717  14.423
39416W        W12484  15.658  39.360   0.462
39417W        W12485   5.978  42.370  13.399
39418W        W12486  14.298  44.326  14.519
39419W        W12487  37.118   5.717  12.191
39420W        W12488  35.541  34.762   2.313
39421W        W12489  23.376  11.665   0.338
39422W        W12490   1.307  43.496  12.348
39423W        W12491   8.666   1.008   2.819
39424W        W12492  35.019   3.696  11.614
39425W        W12493  23.728  33.881   1.129
39426W        W12494  11.266  44.888   3.150
39427W        W12495  44.670   2.743   4.166
39428W        W12496  41.522  10.689  14.197
39429W        W12497  16.415  14.438   4.668
39430W        W12498  15.728  36.135  13.483
39431W        W12499   8.190  20.662   0.300
39432W        W12500  15.126  43.801  14.966
39433W        W12501   6.620  27.061  14.490
39434W        W12502  31.271  20.596  13.407
39435W        W12503  37.896   9.205   1.396
39436W        W12504  16.082   5.960  12.528
39437W        W12505  14.758  22.171   2.646
39438W        W12506  11.347  13.419  11.671
39439W        W12507  23.564  44.041  10.622
39440W        W12508   2.806  12.289   4.081
39441W        W12509  43.338  10.959  10.684
39442W        W12510   8.613  22.746  11.570
39443W        W12511  35.929   0.404   3.830
39444W        W12512  34.571  16.873  13.231
39445W        W12513  28.614  13.339  14.293
39446W        W12514  29.412  21.980   1.636
39447W        W12515  29.996  42.957  11.962
39448W        W12516  20.062  24.007   0.959
39449W        W12517  20.319  25.148   0.351
39450W        W12518  29.478  33.909   2.745
39451W        W12519  16.635  39.425   0.374
39452W        W12520   0.819  12.401  12.441
39453W        W12521  27.803  19.495   9.922
39454W        W12522  14.548  43.278  13.458
39455W        W12523  18.179  20.098   4.618
39456W        W12524  11.199  29.705  13.070
39457W        W12525  36.502  18.091  14.836
39458W        W12526   1.782  43.808  14.778
39459W        W12527  29.161   4.680  12.850
39460W        W12528   2.721   1.903  12.641
39461W        W12529   6.759  33.004   0.288
39462W        W12530  14.230  13.802  12.395
39463W        W12531  24.127  16.687   3.689
39464W        W12532   2.423  37.437   3.473
39465W        W12533   6.273  28.698  10.438
39466W        W12534  19.578  41.385   1.705
39467W        W12535   9.169   6.200   0.702
39468W        W12536  20.664   0.741   5.113
39469W        W12537  32.700  18.115  11.500
39470W        W12538  26.450   9.806  13.225
39471W        W12539   0.631  10.152   1.389
39472W        W12540  41.918  33.689  13.575
39473W        W12541   0.491  15.791  12.104
39474W        W12542  44.489  44.945  11.722
39475W        W12543  36.496  38.004  11.104
39476W        W12544  29.854   1.053   2.376
39477W        W12545  15.161  32.785   4.510
39478W        W12546   2.345  31.634  11.669
39479W        W12547  37.886  17.274   1.995
39480W        W12548  34.633  29.592   1.970
39481W        W12549  15.784  17.701   3.680
39482W        W12550  35.360  28.557   2.741
39483W        W12551  12.140  42.497   0.419
39484W        W12552  42.989   4.775   0.207
39485W        W12553  18.809  31.466   1.937
39486W        W12554   2.312  21.195   4.366
39487W        W12555  31.180   7.944  11.986
39488W        W12556   7.670  13.883  11.434
39489W        W12557  19.702  44.390  10.227
39490W        W12558   3.676  43.712   2.673
39491W        W12559  17.680  14.262   2.191
39492W        W12560   9.471  14.313   3.089
39493W        W12561  32.503  11.879   1.718
39494W        W12562   8.013  16.197   3.663
39495W        W12563  29.696   7.494   4.660
39496W        W12564   3.953  33.539  13.551
39497W        W12565   5.406   4.389  11.639
39498W        W12566  11.748  16.621   4.256
39499W        W12567  16.364  12.499   2.674
39500W        W12568  32.944  13.181   0.940
39501W        W12569  35.369  37.773  13.986
39502W        W12570  40.422  21.281  13.760
39503W        W12571  25.020  26.271   0.336
39504W        W12572   4.883  18.642   0.196
39505W        W12573  31.217  10.396  14.012
39506W        W12574  19.987  38.844   3.052
39507W        W12575  24.103  25.970   2.347
39508W        W12576   7.191  31.204   0.187
39509W        W12577  38.857  12.826  11.958
39510W        W12578  25.878  33.898   3.383
39511W        W12579  16.617  37.463  10.744
39512W        W12580  29.565  23.574  11.180
39513W        W12581   7.459  41.795  10.665
39514W        W12582  44.779   3.487   1.744
39515W        W12583  14.652  13.311  11.190
39516W        W12584  26.218   4.506  10.180
39517W        W12585   1.469  40.842   1.860
39518W        W12586  33.469   5.418  13.342
39519W        W12587  37.008  19.011  14.945
39520W        W12588  16.042  13.350   3.137
39521W        W12589  32.029   2.394  14.924
39522W        W12590  23.661  11.239   4.772
39523W        W12591  27.052  40.143   4.618
39524W        W12592  14.795  22.852   1.683
39525W        W12593  14.822  10.306  14.229
39526W        W12594  37.557  37.949  14.826
39527W        W12595  22.717  32.089  14.786
39528W        W12596  35.897   2.058  12.485
39529W        W12597  43.779  15.818  12.540
39530W        W12598  18.218  33.564   4.894
39531W        W12599   0.304  27.496   3.711
39532W        W12600   8.198   0.676  14.113
39533W        W12601  16.581   5.743  12.382
39534W        W12602   8.222  31.203   3.161
39535W        W12603  25.064  12.583  10.635
39536W        W12604  31.208   7.242   2.084
39537W        W12605  31.072  26.363   1.884
39538W        W12606  32.975  16.263   0.575
39539W        W12607  41.813  40.721   0.326
39540W        W12608  39.894  27.390   1.378
39541W        W12609  15.043   7.945  12.377
39542W        W12610  14.729  36.001   4.593
39543W        W12611  39.241  11.780  10.473
39544W        W12612  32.188  30.964   3.774
39545W        W12613   8.214   6.008   0.810
39546W        W12614   9.640  25.442   4.011
39547W        W12615  44.036  38.982   0.783
39548W        W12616  13.315  20.203   4.991
39549W        W12617   4.204  18.332   1.385
39550W        W12618  23.450  37.942   5.607
39551W        W12619  34.090   0.509  11.095
39552W        W12620   3.812  25.725   2.395
39553W        W12621  43.187  28.815   0.436
39554W        W12622  39.007  25.294  12.932
39555W        W12623   5.253  26.184   2.208
39556W        W12624  24.189  31.602  10.687
39557W        W12625   4.375  19.664  13.860
39558W        W12626  38.920  40.807   0.006
39559W        W12627  24.087  36.618   4.225
39560W        W12628  12.078  28.195  12.920
39561W        W12629  10.434  33.064   0.985
39562W        W12630  18.237   7.629  12.104
39563W        W12631  18.003  38.998   2.226
39564W        W12632  16.166  37.105   0.171
39565W        W12633  32.491  13.650  10.478
39566W        W12634  30.593   4.311  13.279
39567W        W12635  38.437  26.443   2.371
39568W        W12636  35.004  18.142   1.776
39569W        W12637   3.242   7.299   1.983
39570W        W12638  34.823  15.630  12.008
39571W        W12639  21.224   1.691   2.735
39572W        W12640  33.971  39.568  10.703
39573W        W12641  21.996   1.246   3.854
39574W        W12642  38.877   4.331   3.293
39575W        W12643  29.483  33.908   0.329
39576W        W12644  37.623  13.209  11.347
39577W        W12645  21.730  41.233   4.122
39578W        W12646  28.048  18.691   0.924
39579W        W12647   4.684  40.360  14.096
39580W        W12648  31.398  10.231  11.320
39581W        W12649  14.155   0.733  11.281
39582W        W12650  20.220  20.733   2.777
39583W        W12651  17.504   3.172   0.571
39584W        W12652  25.207   2.229  13.794
39585W        W12653   9.434  44.748   4.904
39586W        W12654   3.751  28.844   2.416
39587W        W12655  37.575  39.970   0.399
39588W        W12656   7.777  34.905   0.740
39589W        W12657  28.207  38.006  13.465
39590W        W12658  42.042  43.413  11.612
39591W        W12659  24.134  30.612   3.702
39592W        W12660  30.912  33.057   1.449
39593W        W12661  31.566  11.871   3.733
39594W        W12662  15.282  38.349   0.368
39595W        W12663  27.113  31.037  12.944
39596W        W12664  32.990  15.043  14.403
39597W        W12665  13.088  44.950  10.783
39598W        W12666  21.229  38.936  14.485
39599W        W12667  16.839  37.052  10.482
39600W        W12668  15.187  29.507   2.305
39601W        W12669  22.536  34.064   0.061
39602W        W12670  31.143  30.585  14.338
39603W        W12671  20.759  12.839  13.574
39604W        W12672  23.734  18.548  11.059
39605W        W12673  27.616  28.317  14.447
39606W        W12674   0.010  18.266  13.461
39607W        W12675   2.381  37.561   0.812
39608W        W12676  35.200  19.641  11.311
39609W        W12677   4.884  43.233  10.682
39610W        W12678  32.654  23.749  13.643
39611W        W12679  25.629  44.533  14.875
39612W        W12680  23.766  41.834   4.909
39613W        W12681  27.416   0.015   4.463
39614W        W12682  18.147   8.168   2.476
39615W        W12683   6.471  16.101   3.681
39616W        W12684  40.559  12.692  13.989
39617W        W12685   9.718  27.242   0.017
39618W        W12686   5.853  11.620  12.069
39619W        W12687   9.076  42.317   5.042
39620W        W12688  31.571  31.873  13.440
39621W        W12689  30.546  10.643   1.339
39622W        W12690  32.969  37.761   3.681
39623W        W12691  15.070  14.820   0.491
39624W        W12692   4.491  36.961  11.992
39625W        W12693  42.356   0.566  13.019
39626W        W12694  32.124   0.468   1.439
39627W        W12695  13.164  12.193   3.632
39628W        W12696   7.404  11.477  12.827
39629W        W12697  30.213  39.441  14.053
39630W        W12698  10.588   5.688  13.865
39631W        W12699  34.397  10.192  12.189
39632W        W12700   1.332  13.496  14.032
39633W        W12701  15.843  26.528   1.319
39634W        W12702  21.007  44.016  11.013
39635W        W12703  42.074   1.766  12.569
39636W        W12704  35.069  34.351   0.722
39637W        W12705  39.309   0.372   4.081
39638W        W12706  43.162   4.477  14.811
39639W        W12707  34.706   6.655  12.945
39640W        W12708  20.520  29.388  12.898
39641W        W12709   1.544  26.623   2.220
39642W        W12710   8.297  20.703   4.582
39643W        W12711   0.541  23.836  14.965
39644W        W12712   0.359  40.757   4.563
39645W        W12713  44.732  10.190  11.159
39646W        W12714  21.295  29.015   3.703
39647W        W12715  28.255  27.570   2.696
39648W        W12716  30.111  19.656  14.390
39649W        W12717   6.743  31.953  12.331
39650W        W12718  40.084  12.710   3.859
39651W        W12719  21.534  42.018  12.395
39652W        W12720   7.490  41.277  12.617
39653W        W12721  30.051  31.928  11.608
39654W        W12722  14.031   5.464   4.250
39655W        W12723  28.218  27.534   4.423
39656W        W12724  30.229  14.737  14.314
39657W        W12725  12.225  31.829  12.763
39658W        W12726  27.902  25.060   1.722
39659W        W12727  12.518   1.805   3.075
39660W        W12728  24.173   3.821  11.149
39661W        W12729   8.134  32.632   0.291
39662W        W12730  13.294  23.446   3.641
39663W        W12731  24.150  38.347   3.157
39664W        W12732  43.373  15.038  12.418
39665W        W12733  25.375   5.449  11.225
39666W        W12734  12.085  16.170  12.830
39667W        W12735  14.059  44.444  13.543
39668W        W12736  44.435  43.093   2.881
39669W        W12737  38.503   7.729   4.056
39670W        W12738   4.486   4.346  12.910
39671W        W12739   6.647  24.184  12.965
39672W        W12740  39.930  22.447   2.775
39673W        W12741  20.021  24.393  12.609
39674W        W12742  20.762  10.588  12.922
39675W        W12743  11.820  25.207   4.263
39676W        W12744   3.819  36.123   1.693
39677W        W12745  20.220   0.131   1.250
39678W        W12746   7.006  15.163   4.156
39679W        W12747  39.852   0.509   1.960
39680W        W12748   0.327  30.473  10.679
39681W        W12749  11.829  42.210  14.400
39682W        W12750  38.167  31.091  13.841
39683W        W12751  21.257   0.374  11.408
39684W        W12752  14.102   8.113  12.555
39685W        W12753  21.584   2.878   4.241
39686W        W12754   6.941  15.360  10.782
39687W        W12755  25.379  13.183   4.523
39688W        W12756  17.531  41.333   4.332
39689W        W12757  42.311  29.090  11.024
39690W        W12758  11.117  40.406  12.157
39691W        W12759  24.582   2.380   0.754
39692W        W12760  43.816  22.526  13.831
39693W        W12761  35.107  35.012   0.557
39694W        W12762  44.022   7.925   0.181
39695W        W12763  41.080   8.849   2.475
39696W        W12764  34.930  32.674   3.624
39697W        W12765   7.387  15.745  12.064
39698W        W12766  17.771  41.999  12.111
39699W        W12767  24.168  29.011   1.834
39700W        W12768  19.934   6.723  14.037
39701W        W12769  34.356  36.134  11.223
39702W        W12770  32.040  35.308  10.581
39703W        W12771  25.013  41.795   3.244
39704W        W12772  22.229  38.897   0.399
39705W        W12773  11.815  34.508   1.198
39706W        W12774  31.419  30.951  13.586
39707W        W12775  21.201  37.861   1.177
39708W        W12776  20.572   5.527  12.711
39709W        W12777  22.221  27.341   0.219
39710W        W12778  17.543  39.328   2.902
39711W        W12779  13.219  44.833  14.609
39712W        W12780  29.295  31.398   3.341
39713W        W12781   7.472   5.774   2.178
39714W        W12782  40.815   9.499  13.951
39715W        W12783   0.990  30.919  13.576
39716W        W12784  25.186   3.926   1.532
39717W        W12785  41.002  43.497   3.849
39718W        W12786   3.841  40.536  11.690
39719W        W12787   6.185   2.894   2.608
39720W        W12788  40.350  23.241   4.584
39721W        W12789  13.267  12.717  10.313
39722W        W12790  36.662   5.420   2.629
39723W        W12791  41.753   6.615  11.109
39724W        W12792  21.815  32.663  13.520
39725W        W12793   2.435  10.947   3.855
39726W        W12794  35.079   6.199   2.271
39727W        W12795  44.057   7.700   0.635
39728W        W12796  39.700  40.027  12.913
39729W        W12797  39.040  20.671   3.594
39730W        W12798  37.125  15.565   2.987
39731W        W12799  12.264  20.719  14.832
39732W        W12800   3.057  30.679  14.060
39733W        W12801  26.091  28.556   3.682
39734W        W12802  24.800  17.797  13.862
39735W        W12803  22.129  17.067   4.822
39736W        W12804  27.933  35.305   1.405
39737W        W12805  35.974  14.750  12.068
39738W        W12806  20.728  21.782  14.040
39739W        W12807   5.628  19.857   1.855
39740W        W12808   9.138  14.700   4.673
39741W        W12809  40.459  22.736   4.546
39742W        W12810  33.696  10.168  13.507
39743W        W12811  12.318   1.557  11.127
39744W        W12812  10.655  13.615  12.108
39745W        W12813  31.135  16.858  13.821
39746W        W12814  39.363  16.807   0.375
39747W        W12815  42.934  36.131   3.723
39748W        W12816  39.477  44.478   1.457
39749W        W12817   2.844  38.139  14.020
39750W        W12818  21.005  23.063  12.452
39751W        W12819  34.076  33.889   4.662
39752W        W12820  32.562   2.251   4.606
39753W        W12821  18.984   0.510  14.871
39754W        W12822  24.245   0.442  13.910
39755W        W12823  35.373  37.292   3.898
39756W        W12824  11.726   8.710  12.013
39757W        W12825   8.092  36.012   3.559
39758W        W12826   0.359  32.111   4.972
39759W        W12827   5.405  35.976   2.960
39760W        W12828  36.236   3.367  10.081
39761W        W12829  35.356   6.498   1.437
39762W        W12830   4.946   3.175  13.895
39763W        W12831  18.685  32.595   0.159
39764W        W12832  10.108   5.825  14.058
39765W        W12833   9.775   7.714   4.821
39766W        W12834  12.688   9.900  11.430
39767W        W12835  43.054  12.672   2.346
39768W        W12836  11.202  36.770  13.801
39769W        W12837  34.921  41.726   3.592
39770W        W12838  32.469  37.833   3.836
39771W        W12839  20.206  31.427   1.693
39772W        W12840  14.899   9.979   3.968
39773W        W12841  23.219  26.462  11.597
39774W        W12842  33.358  16.590   4.129
39775W        W12843  41.740  20.796   3.628
39776W        W12844   0.487   3.517  10.573
39777W        W12845   7.600  21.498  13.746
39778W        W12846   6.840  17.996  14.873
39779W        W12847  33.234   6.299   3.095
39780W        W12848  43.311  33.414  12.455
39781W        W12849  19.101  10.131   2.953
39782W        W12850  10.732  27.510  12.539
39783W        W12851  33.599  41.244   1.534
39784W        W12852  28.138   3.304  10.110
39785W        W12853  32.714  39.925   3.271
39786W        W12854  12.544  20.498   0.899
39787W        W12855  29.860  35.932  11.631
39788W        W12856   9.248   8.132  11.252
39789W        W12857   8.003  12.829   0.673
39790W        W12858   3.094  39.624   3.043
39791W        W12859  27.961   7.306   1.710
39792W        W12860   3.474   8.298  14.009
39793W        W12861  25.483   8.388  12.944
39794W        W12862  19.747  30.208   0.940
39795W        W12863  33.433  35.069   3.635
39796W        W12864  41.005  27.285  12.443
39797W        W12865  31.750  40.766  11.038
39798W        W12866  41.733  35.138  12.412
39799W        W12867  19.574   6.822   4.560
39800W        W12868  25.774  38.366   3.145
39801W        W12869  22.684  15.740   0.925
39802W        W12870  23.511  25.670  11.855
39803W        W12871   6.719  11.020  10.643
39804W        W12872  23.676  14.787  12.095
39805W        W12873  14.224  39.033   3.496
39806W        W12874  40.832  28.003   1.100
39807W        W12875  28.141  11.346   1.349
39808W        W12876  16.103   1.807   1.268
39809W        W12877  41.606   4.298  11.488
39810W        W12878  36.738  11.215  13.944
39811W        W12879   0.872   6.933   2.837
39812W        W12880  21.528  28.504   2.632
39813W        W12881  18.826   5.688  10.925
39814W        W12882  44.304  23.953  11.138
39815W        W12883  26.053  15.217   3.303
39816W        W12884   3.272   9.840  13.949
39817W        W12885  11.399  28.184  14.871
39818W        W12886   8.266   0.199  14.330
39819W        W12887  25.756   7.737  12.132
39820W        W12888  18.464  21.282  11.057
39821W        W12889  20.517  13.653   4.602
39822W        W12890  34.395  33.162  11.355
39823W        W12891  31.030  26.653  13.964
39824W        W12892  16.546  17.360  11.913
39825W        W12893   0.903  44.388  13.864
39826W        W12894  17.784  36.322   0.375
39827W        W12895   2.855  11.612  11.578
39828W        W12896   2.998   5.388  12.552
39829W        W12897  28.090   9.116  11.535
39830W        W12898  19.053  43.287  13.442
39831W        W12899   4.911  37.951   3.829
39832W        W12900  28.273  21.963   0.053
39833W        W12901  14.375  24.611  12.548
39834W        W12902  29.101  10.563  10.914
39835W        W12903  21.237  24.955   3.097
39836W        W12904  12.888  12.005   1.394
39837W        W12905  21.622  25.244   3.785
39838W        W12906   7.150  21.279  14.318
39839W        W12907   3.866  10.167   0.499
39840W        W12908  25.595  36.111   3.954
39841W        W12909  32.193   9.274   3.163
39842W        W12910  13.142  13.676  12.774
39843W        W12911  12.803  16.256   4.926
39844W        W12912  10.709   4.355   2.804
39845W        W12913  24.458   5.405   2.403
39846W        W12914   1.981   2.284  11.497
39847W        W12915  42.229  20.993   5.046
39848W        W12916  39.967  27.737   4.641
39849W        W12917  30.153  43.589   4.811
39850W        W12918   5.655  16.792   2.746
39851W        W12919   9.369  34.261   0.203
39852W        W12920  23.954  43.090   2.309
39853W        W12921  43.712  27.234   3.420
39854W        W12922  27.046  41.761   4.513
39855W        W12923  12.807  33.123   1.423
39856W        W12924   8.294  31.037  10.573
39857W        W12925  17.492  18.217   2.333
39858W        W12926  40.448   1.929  11.131
39859W        W12927   6.189  19.959   2.310
39860W        W12928  13.706   9.841   0.485
39861W        W12929   1.548  13.262  10.641
39862W        W12930  21.266  27.684   1.175
39863W        W12931  13.045  36.030   4.244
39864W        W12932   0.038  31.602   4.107
39865W        W12933   1.534  23.981  14.202
39866W        W12934  27.941  20.652  10.344
39867W        W12935  18.144  37.406  13.978
39868W        W12936  34.609  42.636  12.165
39869W        W12937  25.507  30.914   1.271
39870W        W12938   5.936  11.402   2.901
39871W        W12939  10.878  25.443  12.076
39872W        W12940   4.447  32.946  10.470
39873W        W12941   9.242  18.563  12.706
39874W        W12942  36.508  44.961   4.475
39875W        W12943  19.585  29.476   1.338
39876W        W12944  35.085  24.665  10.834
39877W        W12945  10.164  32.339  14.334
39878W        W12946  26.661  33.764  14.995
39879W        W12947   4.237  42.368  11.169
39880W        W12948  43.244  38.414  11.663
39881W        W12949   6.137  44.096  14.571
39882W        W12950  17.177   0.817  11.960
39883W        W12951   8.291  23.669  13.500
39884W        W12952  12.046   4.284  12.833
39885W        W12953  26.607  24.381   4.702
39886W        W12954  36.126   7.276  12.200
39887W        W12955  14.005   9.939  13.693
39888W        W12956  22.904   5.720  11.047
39889W        W12957  11.795  27.617   2.817
39890W        W12958  18.664   8.351   1.478
39891W        W12959  42.333  26.940   3.294
39892W        W12960  38.011   1.452  10.641
39893W        W12961  15.165  30.229  13.977
39894W        W12962  38.014  21.291   0.468
39895W        W12963  35.351  35.622   1.183
39896W        W12964  19.496  29.520   4.982
39897W        W12965  42.602  30.954   0.848
39898W        W12966  25.501  11.645  10.598
39899W        W12967  44.552  37.486   3.830
39900W        W12968  20.316  15.203  12.045
39901W        W12969  14.552   9.441   2.783
39902W        W12970  44.413   7.692  12.986
39903W        W12971  30.654  10.716   4.639
39904W        W12972  24.628  13.344  14.839
39905W        W12973   8.648   9.218   1.831
39906W        W12974  32.902   8.256  11.861
39907W        W12975  19.790  20.471  11.169
39908W        W12976  10.828  38.374   4.610
39909W        W12977  44.809  30.991   1.088
39910W        W12978   1.723  37.789  11.137
39911W        W12979   6.648  18.662  14.016
39912W        W12980   4.404  40.407   3.249
39913W        W12981  13.975  33.570  13.831
39914W        W12982  35.987  30.601   3.726
39915W        W12983  21.310  34.607   0.051
39916W        W12984   5.319  13.750   2.404
39917W        W12985  44.455  13.238   2.410
39918W        W12986  36.389  32.395   2.948
39919W        W12987   0.530  19.097  10.721
39920W        W12988  36.431   4.851  14.914
39921W        W12989  36.055  34.286   9.731
39922W        W12990   8.884  13.075   1.246
39923W        W12991  20.710  29.525  12.436
39924W        W12992  38.851   0.337  12.139
39925W        W12993  36.932  16.429   4.136
39926W        W12994  38.861  20.201   0.774
39927W        W12995   7.812  23.874  10.571
39928W        W12996  36.033   4.452   0.175
39929W        W12997  28.980  34.632  11.067
39930W        W12998  21.024  25.978  11.943
39931W        W12999  24.554  43.687   3.655
39932W        W13000  44.091  38.875   4.146
39933W        W13001  24.190   0.423   2.263
39934W        W13002   0.109   8.548   3.612
39935W        W13003  16.557  11.754  10.669
39936W        W13004  25.121  35.579  10.681
39937W        W13005  14.202  28.573   4.539
39938W        W13006  28.518  43.888  14.342
39939W        W13007   6.379   1.263   1.822
39940W        W13008  26.074  42.118  11.042
39941W        W13009  31.595  25.523  13.487
39942W        W13010  15.874  24.543   3.635
39943W        W13011  20.706  44.944   1.720
39944W        W13012  32.875  34.160  11.580
39945W        W13013  39.991  38.353   2.650
39946W        W13014  12.254  40.958   3.546
39947W        W13015   5.969  10.834   1.347
39948W        W13016   4.998  38.251  13.285
39949W        W13017  43.211  23.715   2.184
39950W        W13018  13.396  12.144  13.507
39951W        W13019  13.822  19.118   0.315
39952W        W13020  13.959  36.829   2.701
39953W        W13021   3.713  43.217  11.559
39954W        W13022  42.897  16.478   1.033
39955W        W13023  43.243  41.881   0.866
39956W        W13024  43.715  43.373  10.668
39957W        W13025  30.567   6.008   4.178
39958W        W13026  23.055  17.778   2.543
39959W        W13027  40.192  17.256  10.361
39960W        W13028  13.603   2.708  12.370
39961W        W13029  43.475   8.627  13.618
39962W        W13030  13.541   4.748   4.307
39963W        W13031  24.267  26.133   1.438
39964W        W13032  10.348  26.760   2.049
39965W        W13033   7.482   2.297   3.734
39966W        W13034  34.084  32.923   1.340
39967W        W13035   8.379  42.671   1.113
39968W        W13036  32.158  17.146   1.403
39969W        W13037  16.166  19.844   4.084
39970W        W13038   7.702  43.754   4.374
39971W        W13039   3.689  25.401   5.149
39972W        W13040   2.386  42.662  14.925
39973W        W13041  34.414  24.148  12.568
39974W        W13042  19.392  43.864   5.250
39975W        W13043  38.702   7.882   1.855
39976W        W13044  29.934  15.783  11.215
39977W        W13045  34.083   6.472  11.117
39978W        W13046  17.790  41.409  13.448
39979W        W13047  19.557  21.551   0.539
39980W        W13048  14.792  38.400   1.840
39981W        W13049  18.135   1.650  12.582
39982W        W13050  33.786  37.550   3.134
39983W        W13051   6.905   6.837  12.052
39984W        W13052  41.946  35.863   3.608
39985W        W13053  25.044  21.485   0.604
39986W        W13054  37.054  17.139   3.753
39987W        W13055  22.578  13.578  11.391
39988W        W13056   2.544   5.914   1.824
39989W        W13057  14.690  44.501   1.792
39990W        W13058  17.132  29.560  13.490
39991W        W13059  35.138  29.506   5.177
39992W        W13060   3.026  37.333   2.257
39993W        W13061  33.487  19.101   1.399
39994W        W13062  44.693   3.758  13.955
39995W        W13063  10.627  12.637   3.546
39996W        W13064  41.365  38.502  11.675
39997W        W13065  24.689  31.207   3.350
39998W        W13066  23.252  44.878  13.546
39999W        W13067  37.005  24.788  13.118
40000W        W13068  26.500  13.804  11.110
40001W        W13069  33.181  41.104   3.392
40002W        W13070   7.317  18.850   5.064
40003W        W13071   8.460   7.879   3.657
40004W        W13072  15.159  26.930  11.530
40005W        W13073  37.553  30.296  11.170
40006W        W13074  35.237  22.589  10.619
40007W        W13075  32.016  22.847  13.418
40008W        W13076  39.972   1.986  11.377
40009W        W13077  21.704  26.958   0.983
40010W        W13078  33.189  42.353   1.711
40011W        W13079   9.095  14.826   0.804
40012W        W13080  11.566   0.861   4.612
40013W        W13081  43.090  25.447  11.522
40014W        W13082   0.830  22.634  14.956
40015W        W13083  38.630  39.407   4.520
40016W        W13084  13.870  22.068  14.891
40017W        W13085  26.474  25.020   3.701
40018W        W13086  21.050  41.370   4.668
40019W        W13087  14.733  11.621   2.230
40020W        W13088  21.235  40.786  10.652
40021W        W13089  25.341  38.144  13.418
40022W        W13090  34.554  39.452   0.768
40023W        W13091   7.323  12.817   2.965
40024W        W13092   9.911   7.801  11.724
40025W        W13093  12.743  30.297  11.028
40026W        W13094   0.372  17.564   3.185
40027W        W13095   5.928  14.153  10.657
40028W        W13096  43.420   5.188   4.940
40029W        W13097   8.149   9.317  10.712
40030W        W13098  23.639  13.117   1.831
40031W        W13099  21.175  22.474  11.817
40032W        W13100  16.665  29.762  12.851
40033W        W13101  33.166   8.340   1.856
40034W        W13102  33.092   6.399   0.312
40035W        W13103  32.103  44.422  14.500
40036W        W13104  37.087  19.843  14.471
40037W        W13105   2.761   4.424  14.459
40038W        W13106  16.928  31.604   2.264
40039W        W13107   4.235  24.224  10.721
40040W        W13108   8.767   6.985  10.605
40041W        W13109  43.992  40.796   3.247
40042W        W13110   2.978  22.334  11.110
40043W        W13111   3.438   1.453  10.564
40044W        W13112  44.549  39.667   1.384
40045W        W13113  32.454  28.120  11.593
40046W        W13114  20.053   3.306  14.351
40047W        W13115  42.974  12.906  10.737
40048W        W13116   6.293  43.330  11.168
40049W        W13117  29.635  32.432   4.667
40050W        W13118  17.311  21.114   0.385
40051W        W13119  12.749  24.808   4.162
40052W        W13120  31.724   7.257  14.322
40053W        W13121   0.045  41.469   4.502
40054W        W13122  31.907  23.701   4.973
40055W        W13123  34.435  40.796   1.749
40056W        W13124   4.856  25.116   1.353
40057W        W13125  15.563   7.755   4.618
40058W        W13126  17.059   0.983   1.782
40059W        W13127  25.621  14.607   3.767
40060W        W13128  11.044  29.460   0.873
40061W        W13129  30.991  20.699   3.672
40062W        W13130  38.495  43.171   4.140
40063W        W13131  30.840   5.568   2.939
40064W        W13132  38.902  20.522  11.633
40065W        W13133  35.666  22.278   1.133
40066W        W13134   6.916   6.401  11.419
40067W        W13135  39.872  24.532  14.980
40068W        W13136  30.210   2.752   4.367
40069W        W13137   0.937  20.078   4.617
40070W        W13138  25.382  24.858  10.235
40071W        W13139  39.727   9.640  10.290
40072W        W13140  12.604   1.982  14.463
40073W        W13141  41.838   4.765  10.846
40074W        W13142  26.029  31.492  11.351
40075W        W13143  13.341  36.412   4.444
40076W        W13144  20.684  19.996   2.773
40077W        W13145  35.674  25.985   1.267
40078W        W13146  24.724   4.130   3.707
40079W        W13147  11.154  36.846   2.682
40080W        W13148  34.332  37.973  11.681
40081W        W13149  19.541  20.025   0.255
40082W        W13150  30.574  43.624  12.311
40083W        W13151   6.371  42.552  11.361
40084W        W13152  33.407   3.620  12.908
40085W        W13153  17.696   9.777  12.903
40086W        W13154  39.997  29.449  12.518
40087W        W13155  31.859  30.714  13.848
40088W        W13156  31.417  35.863  13.524
40089W        W13157  11.467  21.429  14.932
40090W        W13158  33.434  14.042   3.116
40091W        W13159  32.653  18.269  10.608
40092W        W13160  32.625  18.292   3.101
40093W        W13161   6.810  32.063   4.161
40094W        W13162  20.711  43.170   1.687
40095W        W13163   5.460  32.406   1.227
40096W        W13164  30.039   3.857   4.512
40097W        W13165   5.896  34.093  13.342
40098W        W13166  37.526  28.984   1.106
40099W        W13167   3.007  16.628  14.879
40100W        W13168  32.849  24.020   4.001
40101W        W13169  35.949  24.039   4.284
40102W        W13170  21.396  43.143  13.566
40103W        W13171  39.022  15.469  13.343
40104W        W13172  19.533  10.114  11.636
40105W        W13173  41.796   1.848  13.007
40106W        W13174  42.709  32.966   3.257
40107W        W13175  13.636  15.538   4.045
40108W        W13176   1.711   7.878   3.650
40109W        W13177  26.312  35.620   4.094
40110W        W13178  15.997  29.593  10.344
40111W        W13179   9.105  40.037  13.903
40112W        W13180  16.611   6.970   1.192
40113W        W13181  38.289  16.086  11.148
40114W        W13182  34.915  41.635   4.485
40115W        W13183  18.233  17.008   4.835
40116W        W13184  12.486   4.846  11.605
40117W        W13185  20.095  24.897  12.588
40118W        W13186  18.622  13.055   2.298
40119W        W13187  31.341  35.088  11.673
40120W        W13188  28.755   3.683   1.319
40121W        W13189   4.496   7.905  13.310
40122W        W13190  10.676  37.737   1.768
40123W        W13191  33.103  29.566  12.558
40124W        W13192  22.182   4.377  10.592
40125W        W13193  20.573  24.931  14.957
40126W        W13194  32.343  35.030  14.498
40127W        W13195  14.621  17.745  13.528
40128W        W13196  13.291  34.959   0.569
40129W        W13197  28.475  29.890  11.148
40130W        W13198  28.614  32.929   3.755
40131W        W13199   8.439  20.761  14.340
40132W        W13200   3.536  23.871  14.421
40133W        W13201  44.317  16.302  11.108
40134W        W13202   1.488  40.809  11.049
40135W        W13203  22.321  32.910  11.511
40136W        W13204   5.329  37.639   2.310
40137W        W13205  17.778  13.038   4.683
40138W        W13206  29.389  39.061  10.588
40139W        W13207   5.863   9.240  13.200
40140W        W13208   3.147  43.792  14.437
40141W        W13209   5.836   0.890   1.044
40142W        W13210  23.030  18.514  12.105
40143W        W13211  36.124   0.343  14.616
40144W        W13212  38.794   1.965  11.559
40145W        W13213  29.425   8.695   1.822
40146W        W13214  43.268  28.080  11.092
40147W        W13215   4.208   7.227   2.907
40148W        W13216  23.087  24.885  14.833
40149W        W13217  21.071  24.100  10.559
40150W        W13218   3.689  43.038  11.041
40151W        W13219  17.979   4.485   0.390
40152W        W13220  18.350   5.450  12.860
40153W        W13221   8.269   3.718  11.840
40154W        W13222  36.794  14.351  11.977
40155W        W13223  36.469   7.981   1.458
40156W        W13224  17.042   2.284  12.072
40157W        W13225  40.264  10.856   0.477
40158W        W13226  40.439  30.608   4.003
40159W        W13227  26.139  24.641   4.648
40160W        W13228  16.241  38.239  10.962
40161W        W13229   9.728  34.378   3.214
40162W        W13230  18.159  43.712   2.795
40163W        W13231  35.611   3.939   1.403
40164W        W13232  44.611  34.015  14.233
40165W        W13233  32.006  38.452   1.741
40166W        W13234  31.582   8.450   3.340
40167W        W13235   5.203  41.651   1.869
40168W        W13236  14.122   5.916  12.883
40169W        W13237  29.266  34.533  11.667
40170W        W13238   2.922  37.438   0.146
40171W        W13239  21.272   3.292  12.072
40172W        W13240  12.758   4.432  14.494
40173W        W13241   4.343  21.342  10.240
40174W        W13242  35.412  25.125   2.307
40175W        W13243  35.559  14.335   0.895
40176W        W13244  44.020  41.966   1.255
40177W        W13245  44.442   2.281  11.982
40178W        W13246  40.039  13.223  12.436
40179W        W13247  14.192  33.405  14.265
40180W        W13248   6.728  38.301   0.457
40181W        W13249   6.728  19.511  13.626
40182W        W13250  23.937  42.752  10.724
40183W        W13251  27.683   9.268   5.326
40184W        W13252  19.380  35.106  10.707
40185W        W13253  40.340  10.320   4.130
40186W        W13254  18.363  15.649   0.876
40187W        W13255   6.200   1.743   3.624
40188W        W13256  36.297  31.549  11.146
40189W        W13257  22.592  37.845  13.429
40190W        W13258  39.236  30.163   1.364
40191W        W13259  33.134  39.368  13.826
40192W        W13260  40.595  41.273   4.646
40193W        W13261  24.177  33.082   5.127
40194W        W13262  34.045  42.254   1.230
40195W        W13263  37.882  26.550   0.449
40196W        W13264  12.433  17.676   1.018
40197W        W13265   9.810  39.991   4.223
40198W        W13266  29.854  28.044   1.516
40199W        W13267  17.211  16.109  11.917
40200W        W13268  43.824  24.048  12.075
40201W        W13269  28.655  11.327  10.506
40202W        W13270  38.402  44.029   3.103
40203W        W13271  31.936  37.799  14.342
40204W        W13272   0.624   6.867  14.615
40205W        W13273   6.462  14.596   1.256
40206W        W13274   4.689  10.668  11.795
40207W        W13275   8.833  22.041  13.873
40208W        W13276  12.329  31.703   0.343
40209W        W13277   0.245  10.325  14.738
40210W        W13278   1.159  34.916  11.149
40211W        W13279  30.916  32.271  14.855
40212W        W13280  24.443  20.778  14.899
40213W        W13281  12.954   8.308  13.492
40214W        W13282   7.796  11.089  12.132
40215W        W13283  32.984  35.438  14.062
40216W        W13284  16.658  19.673   3.342
40217W        W13285  19.194  11.754   0.949
40218W        W13286  27.937   2.325   4.249
40219W        W13287   1.845  41.563  14.500
40220W        W13288   2.871   3.948  14.284
40221W        W13289   7.311  24.413   4.322
40222W        W13290   3.794   2.231   2.292
40223W        W13291  23.032  21.677  10.732
40224W        W13292  40.928  36.282   4.831
40225W        W13293  23.093   9.956  11.185
40226W        W13294   3.330  21.153  12.001
40227W        W13295  20.673  36.028   0.458
40228W        W13296  34.376  21.706  13.884
40229W        W13297   4.744   2.805   3.729
40230W        W13298  41.025  40.876  13.093
40231W        W13299  36.844  31.056  10.706
40232W        W13300  16.113  26.298   4.430
40233W        W13301  28.041   3.936   2.579
40234W        W13302  25.521  37.955  10.967
40235W        W13303  31.547  43.306  11.392
40236W        W13304  37.001   2.630   0.509
40237W        W13305   4.712  43.782   2.529
40238W        W13306  10.598  11.253   1.341
40239W        W13307  21.626   2.235   5.003
40240W        W13308  32.632  14.607  10.690
40241W        W13309  26.062   2.060  11.972
40242W        W13310  11.724  20.312  10.186
40243W        W13311   7.793  28.643   3.302
40244W        W13312  35.024   9.380   0.693
40245W        W13313   2.433  24.885   0.409
40246W        W13314  40.601  42.764  12.570
40247W        W13315   2.925  26.715  14.937
40248W        W13316  20.319  33.526  10.709
40249W        W13317   2.349  26.156  11.625
40250W        W13318  35.163  25.653  12.929
40251W        W13319   7.956  42.467   0.905
40252W        W13320  44.044  40.543  11.102
40253W        W13321  29.915  18.436  11.558
40254W        W13322  32.705  23.113   4.914
40255W        W13323   6.210  23.027   1.824
40256W        W13324   0.713  26.422   4.095
40257W        W13325   0.028  20.019  12.467
40258W        W13326  43.307   7.309   3.258
40259W        W13327   0.764  34.048   1.303
40260W        W13328   0.336  11.618   3.390
40261W        W13329   8.213  27.804  13.644
40262W        W13330  41.485  37.310  13.369
40263W        W13331  14.631  37.129  12.508
40264W        W13332   0.203  14.301   1.130
40265W        W13333   6.306  19.789   1.178
40266W        W13334  34.369  43.888   3.795
40267W        W13335  25.670   3.688  14.749
40268W        W13336  12.424  37.055  14.342
40269W        W13337   5.338  26.609  11.085
40270W        W13338  27.200   5.899   2.236
40271W        W13339   1.243  21.202   2.242
40272W        W13340  32.516  19.041   0.413
40273W        W13341  11.366  24.050   0.237
40274W        W13342  12.827  34.303   0.298
40275W        W13343  33.882   3.015   1.023
40276W        W13344   9.660  43.066   0.999
40277W        W13345   3.394  22.060  13.778
40278W        W13346  34.326  32.517   2.259
40279W        W13347  24.174  34.641   3.141
40280W        W13348   3.547  19.690  12.434
40281W        W13349  19.246  21.948   5.034
40282W        W13350  20.996  37.915  14.236
40283W        W13351  11.750   7.873  11.527
40284W        W13352  10.331  33.540   4.977
40285W        W13353  42.058  18.057  10.643
40286W        W13354  16.680   0.872  12.098
40287W        W13355  29.523  19.385   0.807
40288W        W13356  16.856  23.525  12.879
40289W        W13357  10.886  10.822   1.173
40290W        W13358   3.325  37.588   0.458
40291W        W13359   1.923  43.747  13.965
40292W        W13360  10.691  38.041   2.202
40293W        W13361  24.460  18.123   0.172
40294W        W13362  12.445  17.175   3.623
40295W        W13363  33.416  11.437   1.609
40296W        W13364  10.459  34.083  12.032
40297W        W13365  41.007  39.444   1.151
40298W        W13366  30.198  39.041  11.102
40299W        W13367  19.761  33.496   0.169
40300W        W13368  29.450  28.420   3.238
40301W        W13369  33.807  43.578   2.671
40302W        W13370  16.947  28.014   1.415
40303W        W13371   7.685  29.634  14.067
40304W        W13372  10.401   4.381  10.723
40305W        W13373   7.154  32.531   4.183
40306W        W13374  35.352   3.408  13.507
40307W        W13375   0.433  32.548   1.398
40308W        W13376  18.004  21.525   0.296
40309W        W13377  28.993  25.494  12.064
40310W        W13378  33.121   5.759  14.517
40311W        W13379  26.153  32.949  10.621
40312W        W13380  15.209  33.181   3.676
40313W        W13381  24.111  29.069   5.161
40314W        W13382  14.029  37.972   3.743
40315W        W13383   2.307  24.071   2.151
40316W        W13384  31.070  19.924  14.446
40317W        W13385  42.240  32.569  14.074
40318W        W13386  34.634  35.977   0.370
40319W        W13387   3.937   7.660   2.734
40320W        W13388  33.575   0.331   4.970
40321W        W13389  24.550  20.251   0.716
40322W        W13390   3.230  21.827   1.704
40323W        W13391  35.787  36.084  12.938
40324W        W13392  35.006  23.122  14.881
40325W        W13393  26.749  17.742  12.090
40326W        W13394  25.312   3.744   2.794
40327W        W13395  33.175  40.245   2.290
40328W        W13396  11.441  22.936   1.295
40329W        W13397   8.684  33.561   3.458
40330W        W13398  22.614  17.977   2.809
40331W        W13399  27.690  35.333  13.560
40332W        W13400   3.802  40.880  12.991
40333W        W13401  10.582  14.746   4.623
40334W        W13402  28.501  36.483   1.669
40335W        W13403   7.921  41.180   2.764
40336W        W13404  15.416  16.688  13.980
40337W        W13405  23.670   0.641   1.178
40338W        W13406  34.788  30.903   1.144
40339W        W13407   0.734  39.738   4.586
40340W        W13408  27.466  15.188  14.342
40341W        W13409   6.496  24.216  11.080
40342W        W13410  36.091  43.017   4.096
40343W        W13411  10.889  38.613   0.404
40344W        W13412   8.357  26.704   1.859
40345W        W13413   9.947  25.446  13.373
40346W        W13414   7.491  28.537   4.708
40347W        W13415  32.960  35.101  13.265
40348W        W13416  13.812  21.826   4.326
40349W        W13417  16.296  11.246   4.361
40350W        W13418  13.826   4.689   2.303
40351W        W13419  41.017  12.715   3.307
40352W        W13420  31.141  14.705  12.882
40353W        W13421  26.293  28.817   2.364
40354W        W13422  22.049   1.376   2.953
40355W        W13423   3.967  35.411  11.435
40356W        W13424   6.411  31.642   2.234
40357W        W13425  40.309   7.562   2.522
40358W        W13426  36.210  40.867   1.677
40359W        W13427  25.652  36.987  10.220
40360W        W13428  22.558  36.381  12.491
40361W        W13429   1.858  11.697   1.017
40362W        W13430  25.740  19.566  12.437
40363W        W13431  36.921   0.406  14.008
40364W        W13432  44.086  36.475   0.842
40365W        W13433  38.060  35.622  11.613
40366W        W13434  28.063  16.783   1.118
40367W        W13435  19.287  19.434  12.508
40368W        W13436   8.414  35.769   2.553
40369W        W13437  28.416   0.060   4.145
40370W        W13438   7.150  30.505   0.894
40371W        W13439  14.100  34.397   2.412
40372W        W13440  34.992  39.401  14.460
40373W        W13441   3.793  23.075  10.955
40374W        W13442   7.441  26.655   1.823
40375W        W13443   8.357  37.663  12.614
40376W        W13444  38.636  40.999   1.463
40377W        W13445  19.534  17.541  14.347
40378W        W13446  43.491  12.603   1.042
40379W        W13447  17.327  28.619   4.879
40380W        W13448   5.819  18.666   3.780
40381W        W13449   3.998  13.871  13.419
40382W        W13450  34.996   8.903  13.355
40383W        W13451  18.292  12.732  10.408
40384W        W13452  18.606   3.199   3.211
40385W        W13453  40.082  39.810  14.517
40386W        W13454  36.422   8.232   0.495
40387W        W13455   3.362  28.717  10.683
40388W        W13456  20.962  14.363  13.535
40389W        W13457  29.549  32.507  12.740
40390W        W13458  33.398  31.240  11.682
40391W        W13459  10.705  24.729  11.563
40392W        W13460  29.556  24.510   1.369
40393W        W13461   2.226  31.108   1.814
40394W        W13462  22.945  37.014  13.820
40395W        W13463  36.581  27.287   2.218
40396W        W13464  34.411  20.042  14.515
40397W        W13465  39.897  17.592   4.544
40398W        W13466  11.749  31.590  12.839
40399W        W13467  15.540  17.124   1.982
40400W        W13468  36.089  20.559  12.501
40401W        W13469   0.717  33.935  11.940
40402W        W13470   0.477  16.010   3.236
40403W        W13471  16.796  29.128   1.317
40404W        W13472  19.581  21.916  11.212
40405W        W13473  25.487  34.499   3.724
40406W        W13474  29.001  19.810   4.859
40407W        W13475  11.335  21.562   3.412
40408W        W13476   8.787  41.035  10.603
40409W        W13477  37.612   3.393   0.831
40410W        W13478  38.568  25.615  12.150
40411W        W13479  37.327   1.007   2.745
40412W        W13480   6.457  16.191  13.062
40413W        W13481  38.082  38.938   0.740
40414W        W13482   9.589  29.634  10.667
40415W        W13483  20.542  31.911  11.117
40416W        W13484  28.982  30.575   2.892
40417W        W13485  34.060  30.530  12.416
40418W        W13486  16.805  40.542   4.160
40419W        W13487   5.489   2.753  12.526
40420W        W13488   8.723  41.883  13.028
40421W        W13489  27.414   7.444   3.010
40422W        W13490  23.520  28.430  13.953
40423W        W13491  17.134  13.777   3.664
40424W        W13492  40.509  38.106  11.377
40425W        W13493  41.489   2.279  12.617
40426W        W13494  20.520  32.221   4.570
40427W        W13495  15.592  33.495   1.894
40428W        W13496  43.380  43.159   0.823
40429W        W13497  18.356   1.387  13.482
40430W        W13498  18.947  23.928  13.772
40431W        W13499  10.796  35.323   1.256
40432W        W13500  25.438  25.032   3.764
40433W        W13501   6.876  37.094  11.244
40434W        W13502  11.651  15.545   0.409
40435W        W13503  16.802  15.349   1.208
40436W        W13504  14.119  37.412  10.688
40437W        W13505  19.830  25.364  14.772
40438W        W13506  31.753  24.997  10.320
40439W        W13507  23.563  17.949   3.656
40440W        W13508  17.432  31.469   2.138
40441W        W13509  10.361   0.428  12.118
40442W        W13510   2.880   3.137  13.270
40443W        W13511  26.935  13.714   3.219
40444W        W13512  26.921  31.649   0.216
40445W        W13513  10.934  40.867   1.661
40446W        W13514  34.328  37.407  12.945
40447W        W13515  26.484   1.079   1.262
40448W        W13516  36.812  32.878  11.746
40449W        W13517  15.570  38.689  10.619
40450W        W13518   6.684  17.515   4.103
40451W        W13519  44.020  18.693   2.148
40452W        W13520   4.229  44.263   0.770
40453W        W13521   2.782   7.330   1.764
40454W        W13522  31.368  41.528  12.081
40455W        W13523  36.485  38.362   2.121
40456W        W13524  31.149  23.806  14.929
40457W        W13525   1.638  26.920  13.407
40458W        W13526  36.132  36.510  10.533
40459W        W13527  18.128  21.539   0.808
40460W        W13528  24.394  27.722  14.575
40461W        W13529  18.109  30.641   4.267
40462W        W13530  11.307   3.394   4.199
40463W        W13531  26.978  19.291   1.757
40464W        W13532  18.693  13.207  13.735
40465W        W13533  15.030  14.130  11.375
40466W        W13534  11.123  29.188  13.031
40467W        W13535  13.300   0.914   1.348
40468W        W13536  40.492   5.377   1.254
40469W        W13537  33.923  16.003  11.986
40470W        W13538   7.497  24.612   0.436
40471W        W13539  40.303   1.340   4.315
40472W        W13540  12.155  36.372   4.527
40473W        W13541  22.012  25.528  11.094
40474W        W13542  11.459  26.148   3.624
40475W        W13543  11.278   0.810   1.134
40476W        W13544  19.125  15.252   4.281
40477W        W13545  12.207  29.062   2.853
40478W        W13546  12.802  12.930  14.873
40479W        W13547  25.995  23.446   3.949
40480W        W13548  15.314  17.940   2.843
40481W        W13549   0.778  38.019   3.740
40482W        W13550  37.853  17.751   0.727
40483W        W13551  43.548  41.527   3.354
40484W        W13552   7.292  26.859   1.340
40485W        W13553  24.192   1.791   2.216
40486W        W13554  33.873  11.972   3.222
40487W        W13555  38.348   4.208   1.154
40488W        W13556  18.626  11.776   0.232
40489W        W13557  44.353  23.937   4.224
40490W        W13558  13.541  40.797  10.671
40491W        W13559  29.929  18.854  12.722
40492W        W13560   0.470  35.982  14.958
40493W        W13561   4.049  37.530  11.715
40494W        W13562  41.824  37.049  14.358
40495W        W13563   1.791   3.758   4.829
40496W        W13564  13.633  28.907  13.435
40497W        W13565  31.940   8.246  13.047
40498W        W13566   0.232  39.900   4.656
40499W        W13567   0.764  38.062  13.460
40500W        W13568   0.091   0.513   3.745
40501W        W13569   6.610  14.822  14.688
40502W        W13570   6.896  24.117  11.469
40503W        W13571  14.725  11.734  11.197
40504W        W13572  44.090  43.908   3.181
40505W        W13573  26.793  33.094  14.448
40506W        W13574  34.826  26.114  11.897
40507W        W13575  11.261  29.073  14.529
40508W        W13576  37.035  10.725  11.652
40509W        W13577   6.404   1.907   1.401
40510W        W13578   3.730  42.274  14.850
40511W        W13579  38.114  20.269  13.462
40512W        W13580  43.489  38.068   0.230
40513W        W13581  20.250  24.039   1.455
40514W        W13582  13.651  37.883   4.077
40515W        W13583   7.188  34.947   0.754
40516W        W13584  36.913  16.894   2.845
40517W        W13585  24.656  33.403  11.005
40518W        W13586  24.064  21.008   0.728
40519W        W13587  15.864   3.272  12.261
40520W        W13588  19.579  10.294   3.116
40521W        W13589  26.113  40.396   1.421
40522W        W13590  35.963  39.634   0.474
40523W        W13591  39.519  19.339  14.225
40524W        W13592  21.577   9.859   0.785
40525W        W13593  35.860   4.791  13.843
40526W        W13594  43.380  44.266   2.401
40527W        W13595  26.122  35.399   2.312
40528W        W13596  34.418  38.603  14.775
40529W        W13597  38.888  22.809  13.807
40530W        W13598  41.966   7.235   2.924
40531W        W13599  43.423  36.517   0.237
40532W        W13600  31.879  25.565  12.415
40533W        W13601  40.327  15.942   5.123
40534W        W13602  38.563  35.498   0.707
40535W        W13603   6.806   0.282   0.785
40536W        W13604   6.855  18.503   4.371
40537W        W13605  19.772   5.707   4.274
40538W        W13606  40.081   4.188  11.579
40539W        W13607  39.791  44.201  12.459
40540W        W13608  38.206  30.578   2.340
40541W        W13609   8.844  26.628  11.168
40542W        W13610   1.380   3.216  12.971
40543W        W13611  30.060   5.432  11.797
40544W        W13612   8.823   7.392   1.729
40545W        W13613   7.417   4.288  11.901
40546W        W13614   1.647   7.887   1.324
40547W        W13615  42.101  42.592  10.508
40548W        W13616  15.701  22.153   2.595
40549W        W13617   9.648  18.530  12.376
40550W        W13618  26.688  24.561   3.797
40551W        W13619  19.805  24.671   1.888
40552W        W13620  17.244  17.582   0.305
40553W        W13621  24.033  41.282   0.350
40554W        W13622  13.617  19.592  12.687
40555W        W13623  43.981  26.949  13.935
40556W        W13624  25.224  40.014   4.719
40557W        W13625  13.596  10.228   0.877
40558W        W13626  33.596  24.168  11.065
40559W        W13627  23.465  34.133  13.946
40560W        W13628  13.815  30.480   2.646
40561W        W13629  28.012  16.817  10.714
40562W        W13630  10.689  13.241  14.357
40563W        W13631  21.003   7.079  10.669
40564W        W13632  17.803   7.020  11.166
40565W        W13633  21.606  26.566  14.834
40566W        W13634  17.663   3.117   4.143
40567W        W13635  44.987  35.094  12.109
40568W        W13636  43.058  20.707  11.705
40569W        W13637   5.393   9.030  12.137
40570W        W13638  19.630  20.101   1.798
40571W        W13639  13.781  39.081  14.096
40572W        W13640  13.758   7.362  13.601
40573W        W13641  27.637   7.636  11.108
40574W        W13642  42.539  25.971  13.326
40575W        W13643  12.425  17.733  10.199
40576W        W13644  20.699   4.319   2.337
40577W        W13645  24.531   1.381   0.289
40578W        W13646  23.502  40.976   2.318
40579W        W13647   8.319   6.242   4.881
40580W        W13648  31.657   5.334  11.551
40581W        W13649  41.789   5.431  11.984
40582W        W13650  21.449   9.637   0.318
40583W        W13651  29.095  13.144  14.357
40584W        W13652  12.248  13.971  12.675
40585W        W13653  29.623  39.399   1.744
40586W        W13654   6.240   5.500  12.429
40587W        W13655  39.556   9.703  14.833
40588W        W13656  24.515  14.553   2.787
40589W        W13657  28.108   9.121  10.712
40590W        W13658  27.531   6.722  10.819
40591W        W13659  14.571   7.428  14.974
40592W        W13660  22.291  40.478  13.263
40593W        W13661  22.019   3.490   3.365
40594W        W13662  34.514  11.121  13.078
40595W        W13663  33.192  23.358   0.458
40596W        W13664  36.851  20.628  13.071
40597W        W13665   1.584  19.963   1.312
40598W        W13666  18.652  30.665  14.018
40599W        W13667  34.053  10.474   3.201
40600W        W13668  24.926  37.306  14.409
40601W        W13669  42.769  11.556   5.032
40602W        W13670  24.995  43.264  13.329
40603W        W13671  43.631  43.305   2.329
40604W        W13672  19.854  10.742   0.433
40605W        W13673  24.527   6.459  14.421
40606W        W13674  36.806  34.542   3.986
40607W        W13675  17.370  17.061   2.412
40608W        W13676  42.162  28.769   2.794
40609W        W13677  28.942  21.538   1.619
40610W        W13678  43.465  32.441  14.424
40611W        W13679  21.047  10.722  14.224
40612W        W13680  36.623  31.186  13.796
40613W        W13681   7.678  38.077  11.982
40614W        W13682  43.831  29.005  10.390
40615W        W13683   7.078  41.231  10.144
40616W        W13684  15.352   2.643   4.581
40617W        W13685   0.374  34.544   4.045
40618W        W13686   4.121   6.914  11.596
40619W        W13687   6.910   4.462   1.131
40620W        W13688  40.481   1.265   2.849
40621W        W13689  23.857  36.989   2.211
40622W        W13690  10.567   6.846   4.959
40623W        W13691  38.853  38.381   1.845
40624W        W13692  39.458   1.598   0.255
40625W        W13693   3.913  34.433  13.353
40626W        W13694  28.210  20.804  11.942
40627W        W13695  12.322   3.694  14.545
40628W        W13696  14.748  42.969  10.308
40629W        W13697  43.761   5.899  11.017
40630W        W13698  34.107  26.721   0.852
40631W        W13699  14.420   9.674  10.722
40632W        W13700  38.828   0.627  12.568
40633W        W13701  16.766  18.024   2.716
40634W        W13702  26.080  44.931   2.331
40635W        W13703  35.945  44.318   3.806
40636W        W13704  34.250  27.377   4.912
40637W        W13705  20.714  37.157   4.598
40638W        W13706  15.917  12.363  12.854
40639W        W13707  33.346  23.090   0.043
40640W        W13708  41.019   8.746   0.258
40641W        W13709   0.159   6.924   3.438
40642W        W13710  18.681  39.145   0.217
40643W        W13711  33.052   0.979  11.179
40644W        W13712   6.385   4.735  10.751
40645W        W13713  31.376   4.895   4.792
40646W        W13714  32.859  17.061   1.878
40647W        W13715  28.131  22.582   3.418
40648W        W13716  31.635   3.323   4.627
40649W        W13717  36.921  31.412   4.242
40650W        W13718  25.021   0.545   1.357
40651W        W13719  19.047  19.684   3.816
40652W        W13720  22.219  37.860   4.882
40653W        W13721  24.172  28.953  11.592
40654W        W13722  29.785  25.068  14.454
40655W        W13723  33.573  21.676  14.873
40656W        W13724  33.122  38.261  11.547
40657W        W13725  18.190  40.045  12.762
40658W        W13726   7.683  30.156  12.090
40659W        W13727  19.587   5.238   4.187
40660W        W13728  13.454  15.357  11.663
40661W        W13729  11.079   0.439  13.383
40662W        W13730  10.943  21.983   4.333
40663W        W13731  21.909  25.017  12.542
40664W        W13732  38.205   3.661  10.790
40665W        W13733  21.621  26.145  12.466
40666W        W13734  15.703  11.452  12.478
40667W        W13735  35.131  19.682  10.809
40668W        W13736  20.506  41.354   2.147
40669W        W13737  44.142  19.835   3.382
40670W        W13738  26.569  10.410   1.234
40671W        W13739  36.451  39.700  10.164
40672W        W13740  20.098  43.347   4.197
40673W        W13741  15.436  14.341   3.139
40674W        W13742  16.309  20.787   0.390
40675W        W13743  12.575  34.418   3.133
40676W        W13744  37.556   7.309   2.265
40677W        W13745   4.442  35.609  11.221
40678W        W13746  14.390  14.784   3.334
40679W        W13747  32.503  15.585  12.135
40680W        W13748  18.704  11.777   3.680
40681W        W13749  14.850  23.073  14.756
40682W        W13750   9.636  19.255  13.441
40683W        W13751  39.128  28.712   5.042
40684W        W13752  26.911  26.711   0.769
40685W        W13753  29.351  20.029  13.872
40686W        W13754  28.491  24.723   2.226
40687W        W13755  21.726   7.372  12.033
40688W        W13756  37.975  40.392   4.679
40689W        W13757  40.280  44.083  11.704
40690W        W13758  22.263  15.657  11.940
40691W        W13759  19.778  10.781  14.008
40692W        W13760  41.200  17.765  14.112
40693W        W13761   3.487  35.898   4.257
40694W        W13762  21.151  32.551  14.345
40695W        W13763  44.624   9.818   2.802
40696W        W13764  29.506  39.093   4.181
40697W        W13765  10.743  22.745  14.720
40698W        W13766  36.064   9.330  10.727
40699W        W13767  42.052  26.955   2.845
40700W        W13768  39.157  18.086   0.876
40701W        W13769  29.465  24.455  11.867
40702W        W13770  31.960  43.265   2.464
40703W        W13771  18.557  42.362   4.528
40704W        W13772   1.749  28.822  10.669
40705W        W13773   0.351  27.942  14.855
40706W        W13774  24.968  17.753   0.765
40707W        W13775  16.645  44.596  13.355
40708W        W13776  28.352  24.191  13.409
40709W        W13777  25.459   0.818   1.386
40710W        W13778   5.444  31.736  14.396
40711W        W13779  24.059  31.436   0.584
40712W        W13780  12.060   2.822   0.023
40713W        W13781   1.384  11.170   3.630
40714W        W13782  28.488  26.124  13.975
40715W        W13783  25.172   8.386  13.892
40716W        W13784  17.766  16.128  10.514
40717W        W13785  37.473   1.003   4.304
40718W        W13786   0.714  18.622  14.580
40719W        W13787  37.716   7.903   0.896
40720W        W13788  42.262  22.312  13.390
40721W        W13789  15.531  42.236   3.534
40722W        W13790  16.279  19.657  11.802
40723W        W13791   7.848  16.154   0.315
40724W        W13792  15.253   2.668  13.770
40725W        W13793  17.471  12.149  11.550
40726W        W13794  23.261  37.829   4.563
40727W        W13795   1.289  30.162  11.476
40728W        W13796   4.864  26.887  12.085
40729W        W13797   2.879  40.456   3.118
40730W        W13798  20.142  30.778   3.224
40731W        W13799  15.497  11.411  12.945
40732W        W13800  27.492  38.338  13.240
40733W        W13801   7.234  39.457   0.650
40734W        W13802  17.612  12.862  12.088
40735W        W13803  20.203   6.430  12.386
40736W        W13804  33.117  35.483  13.560
40737W        W13805  43.221  31.352   2.439
40738W        W13806  20.295  33.359   3.206
40739W        W13807  25.604  32.423   0.419
40740W        W13808  25.918  13.180   0.858
40741W        W13809   8.178  43.908  10.755
40742W        W13810  27.471  35.588   0.323
40743W        W13811  40.435  42.950  13.594
40744W        W13812  39.096   8.946  11.588
40745W        W13813   3.652  40.844   4.829
40746W        W13814   6.461  26.473  14.330
40747W        W13815  44.282  30.000  14.567
40748W        W13816  18.323  17.819  11.231
40749W        W13817   9.687   6.802   3.168
40750W        W13818  41.226  33.070   0.829
40751W        W13819  39.215  15.185  11.629
40752W        W13820  43.620   1.288  13.501
40753W        W13821   6.877  13.657  12.573
40754W        W13822  44.675  14.180  11.210
40755W        W13823  25.946  17.203  12.491
40756W        W13824  33.479  21.358  14.114
40757W        W13825  23.207  17.067   3.818
40758W        W13826   4.731  10.082  14.457
40759W        W13827  38.965  15.093   0.297
40760W        W13828   6.007   3.676   2.749
40761W        W13829  13.806  37.081  13.467
40762W        W13830   5.015   3.911   4.080
40763W        W13831  39.428  27.089  14.574
40764W        W13832   2.138  41.792   2.659
40765W        W13833  18.579   9.861  11.669
40766W        W13834  13.713  33.292   3.750
40767W        W13835  30.990  34.056   3.664
40768W        W13836  44.248  20.242  14.898
40769W        W13837  19.439  34.538  14.031
40770W        W13838   0.414  16.186  12.428
40771W        W13839   4.843  13.123  14.014
40772W        W13840  13.661   1.796  11.164
40773W        W13841   9.390  42.596   3.753
40774W        W13842  19.643   6.946  14.401
40775W        W13843  14.660  22.904   3.983
40776W        W13844  10.299  31.000   0.922
40777W        W13845  33.013  34.113  13.530
40778W        W13846  13.777  21.093   3.214
40779W        W13847  41.521  14.318  11.553
40780W        W13848  44.222  12.279   4.122
40781W        W13849  13.150  33.635  14.060
40782W        W13850   8.281   7.804   2.186
40783W        W13851  21.094   7.439   0.792
40784W        W13852  16.625  33.634   1.244
40785W        W13853  18.788  22.582  11.930
40786W        W13854  12.121  33.925   2.271
40787W        W13855  29.237   8.253  13.075
40788W        W13856  29.616  26.481  13.790
40789W        W13857   2.492   0.407  10.431
40790W        W13858  19.557  19.084  14.150
40791W        W13859  42.901  36.587  14.471
40792W        W13860  42.436  31.947  14.734
40793W        W13861  37.298  16.611  12.875
40794W        W13862  17.573   5.754   3.773
40795W        W13863  40.576   3.467   2.177
40796W        W13864   0.323  14.730   4.921
40797W        W13865   0.221   2.490   1.289
40798W        W13866  42.429   6.165  13.001
40799W        W13867  43.743  36.814   2.839
40800W        W13868   0.319  39.599  12.436
40801W        W13869   8.765  16.342   1.474
40802W        W13870  26.138  25.166  11.011
40803W        W13871  10.661   1.513  11.950
40804W        W13872   9.664  31.087  12.944
40805W        W13873  28.604  36.053  12.041
40806W        W13874   1.929  24.151  11.315
40807W        W13875  15.772  43.013   2.945
40808W        W13876  14.604   0.542   0.634
40809W        W13877   4.590  27.116   4.015
40810W        W13878   5.822  22.704   0.847
40811W        W13879  37.429  32.529   4.746
40812W        W13880   8.739  24.484  11.079
40813W        W13881  29.640  25.561  14.497
40814W        W13882  11.706  39.843  12.527
40815W        W13883  44.866   6.959   2.128
40816W        W13884  30.613  26.009   4.195
40817W        W13885   9.253   3.661  12.872
40818W        W13886  40.144  44.868  12.020
40819W        W13887  40.254  19.052  13.591
40820W        W13888   1.411  11.549   3.282
40821W        W13889  40.432   2.835   4.706
40822W        W13890   8.886  19.809   1.304
40823W        W13891  14.112  13.201  14.921
40824W        W13892   6.427   6.484  12.683
40825W        W13893  11.288  13.286  10.481
40826W        W13894  22.564  40.579  12.478
40827W        W13895  40.405  27.439  14.457
40828W        W13896   8.041   0.972  11.231
40829W        W13897  12.549  18.955   4.064
40830W        W13898   8.697  16.060   1.028
40831W        W13899  37.389  40.520   5.233
40832W        W13900  28.911  43.404  10.458
40833W        W13901  17.254  14.057   0.326
40834W        W13902  26.291  22.019  12.435
40835W        W13903  44.791  44.386   4.572
40836W        W13904  30.101  14.252   1.297
40837W        W13905   7.572  16.823  14.576
40838W        W13906  24.113  17.468   4.300
40839W        W13907  37.807   0.358   1.740
40840W        W13908  26.865  43.048   0.284
40841W        W13909  34.959  28.665   1.477
40842W        W13910  31.927  16.597  10.639
40843W        W13911  34.751  39.893  10.768
40844W        W13912  38.967   2.719   2.744
40845W        W13913  20.670  18.577   3.903
40846W        W13914  10.654  28.659   1.113
40847W        W13915  28.233  37.089  10.715
40848W        W13916  22.110   0.228  11.965
40849W        W13917  10.719  33.225  13.649
40850W        W13918  40.476  24.280   4.892
40851W        W13919  32.713  42.748  13.829
40852W        W13920  39.975  27.942   0.056
40853W        W13921  17.174   3.625  11.948
40854W        W13922  13.265   1.051   0.338
40855W        W13923  41.765  39.129   3.642
40856W        W13924  37.366  35.031  13.408
40857W        W13925   1.852  32.553   0.828
40858W        W13926   0.603  39.963  10.756
40859W        W13927  44.932  23.495   0.292
40860W        W13928  24.119  43.574   4.388
40861W        W13929   8.483  40.547   0.020
40862W        W13930  28.564  24.755   3.747
40863W        W13931   4.680  22.213   4.361
40864W        W13932  38.557  15.711   1.455
40865W        W13933  29.428  27.359  12.439
40866W        W13934  40.476   4.181   0.381
40867W        W13935  34.902  31.918  10.204
40868W        W13936  10.702   3.405   3.297
40869W        W13937  18.303  28.142  11.693
40870W        W13938  29.215  28.549  10.563
40871W        W13939  21.151   0.894   1.809
40872W        W13940  36.863  10.305  11.316
40873W        W13941  27.112   9.910   2.286
40874W        W13942  41.947   8.666   1.871
40875W        W13943  28.020  10.723  12.523
40876W        W13944  41.535  21.557   1.777
40877W        W13945  35.544  42.586  12.925
40878W        W13946  41.781  27.930   1.637
40879W        W13947  43.965  30.478  13.118
40880W        W13948  29.290  26.825  12.464
40881W        W13949   0.932  20.839  13.914
40882W        W13950  23.750   2.456   0.784
40883W        W13951  16.139  23.061  11.648
40884W        W13952  16.432  32.928   0.560
40885W        W13953  44.515  10.144  13.712
40886W        W13954  16.754  41.098  11.609
40887W        W13955  22.223  15.850   0.009
40888W        W13956   2.486  21.983  13.167
40889W        W13957   8.482  43.422  13.749
40890W        W13958  25.504  43.195  11.658
40891W        W13959  36.619  10.656   1.830
40892W        W13960  27.186  40.351   2.306
40893W        W13961   8.839   4.088   0.326
40894W        W13962  10.765  24.268  10.629
40895W        W13963  30.867  35.485   4.271
40896W        W13964   7.139  22.445  13.892
40897W        W13965  40.385  14.161  14.063
40898W        W13966  39.580  33.468  13.520
40899W        W13967  26.089  16.119   4.733
40900W        W13968  38.359  19.179   3.113
40901W        W13969  36.999  30.712   1.619
40902W        W13970  26.603  30.068   0.648
40903W        W13971  12.591  26.226   1.482
40904W        W13972  29.940  25.628  11.117
40905W        W13973  12.207  40.074   1.899
40906W        W13974   6.712  21.120   0.049
40907W        W13975  11.445  24.550   3.912
40908W        W13976   3.412  37.921   2.714
40909W        W13977  20.696  23.819  13.077
40910W        W13978   2.356  25.318  12.064
40911W        W13979   4.260  13.904   1.301
40912W        W13980  38.468  41.018   0.187
40913W        W13981   3.266  16.482  14.334
40914W        W13982  11.078  20.657   4.568
40915W        W13983   7.252  25.629   0.892
40916W        W13984   6.432  25.698   2.833
40917W        W13985   0.961  18.068  12.033
40918W        W13986  40.339   1.755   2.185
40919W        W13987   6.514  12.681  14.728
40920W        W13988  35.509  41.893  13.348
40921W        W13989  23.227  34.544  14.871
40922W        W13990   2.195   4.878   4.571
40923W        W13991  43.992  33.824   1.815
40924W        W13992  34.848   3.232  13.581
40925W        W13993   6.367  42.424  12.848
40926W        W13994   2.340  25.827  12.013
40927W        W13995  23.325  10.924   2.168
40928W        W13996  16.157  32.001  14.706
40929W        W13997   2.169  21.462   2.830
40930W        W13998  33.090   3.972  12.651
40931W        W13999  20.716  35.445  12.724
40932W        W14000  10.749   9.958   1.813
40933W        W14001   0.185  28.035   3.169
40934W        W14002  20.196  15.348   4.397
40935W        W14003   5.225   7.425  10.690
40936W        W14004  25.585  10.743  14.337
40937W        W14005  34.195  17.390  14.449
40938W        W14006  11.649  30.386  13.433
40939W        W14007  29.045  35.137  10.932
40940W        W14008  41.426   2.024  12.069
40941W        W14009  14.305  33.899  11.218
40942W        W14010  28.172  32.920  13.427
40943W        W14011  44.284  40.085  11.166
40944W        W14012  26.353  24.942  13.058
40945W        W14013  40.602  22.539  10.698
40946W        W14014   3.507   3.923   1.842
40947W        W14015   4.197   2.022  10.773
40948W        W14016  33.925   6.974   4.692
40949W        W14017  35.055  14.734  10.596
40950W        W14018  33.583  20.312   0.057
40951W        W14019  30.053  39.389   4.609
40952W        W14020  11.828  44.951   2.731
40953W        W14021  18.544  23.856  11.543
40954W        W14022  14.554  18.571  13.933
40955W        W14023  27.112   1.070   2.924
40956W        W14024  19.616  41.260  13.837
40957W        W14025  18.728  14.953  11.677
40958W        W14026  26.964  37.527   2.403
40959W        W14027  30.585  24.557  10.645
40960W        W14028  35.962  32.124  13.280
40961W        W14029  14.093  20.609   0.430
40962W        W14030  14.850  26.034  14.588
40963W        W14031   8.710  25.716   0.032
40964W        W14032  24.248   4.382   1.355
40965W        W14033  41.529  39.975   0.546
40966W        W14034  27.042  35.063   3.390
40967W        W14035  21.588  36.801   0.886
40968W        W14036   5.726  17.101  13.474
40969W        W14037   6.322  32.494  12.523
40970W        W14038  11.273  14.844   3.476
40971W        W14039  40.864  40.435   3.902
40972W        W14040  24.215  27.457   1.769
40973W        W14041   6.427  33.676  13.423
40974W        W14042  26.604   0.252   0.694
40975W        W14043  40.410  33.920   1.707
40976W        W14044  27.234  42.011   4.104
40977W        W14045  41.986   4.448  14.180
40978W        W14046   9.805  16.293  14.534
40979W        W14047  39.865  11.186   1.318
40980W        W14048  18.137  31.817   2.882
40981W        W14049  14.317  22.127   3.359
40982W        W14050  30.581   2.792  11.571
40983W        W14051  40.036  32.424   0.223
40984W        W14052  43.907  29.214  11.371
40985W        W14053  22.509  43.971   0.706
40986W        W14054  33.046  44.151  11.765
40987W        W14055   1.061  34.991   3.155
40988W        W14056  26.976   4.279  10.684
40989W        W14057  33.068  20.583  13.889
40990W        W14058  19.612  31.220  11.951
40991W        W14059  32.557  29.792   3.276
40992W        W14060   2.821   6.830   3.580
40993W        W14061   3.952  42.311  14.374
40994W        W14062   6.854  36.011  14.228
40995W        W14063  24.154   4.844   2.619
40996W        W14064   6.883  32.931  14.251
40997W        W14065  33.090  19.186  14.335
40998W        W14066  27.207  13.530  11.250
40999W        W14067  17.536  29.677   3.668
41000W        W14068  13.400  26.652  11.643
41001W        W14069  17.382  41.120   2.962
41002W        W14070  15.823  22.506  14.505
41003W        W14071  11.443   6.327  11.492
41004W        W14072  38.378   1.347   0.737
41005W        W14073  21.659  10.414   1.719
41006W        W14074  42.984  10.373   3.628
41007W        W14075   1.874  17.919   0.745
41008W        W14076   5.954  18.600   3.270
41009W        W14077  43.371  16.648  10.785
41010W        W14078  44.056  44.846  14.436
41011W        W14079   3.687  16.710  10.614
41012W        W14080  39.828  12.814   2.416
41013W        W14081  34.243   0.435  14.482
41014W        W14082  41.866  30.592  10.740
41015W        W14083  14.342  12.133   4.264
41016W        W14084   4.931   0.767   0.531
41017W        W14085  36.050  10.731   0.180
41018W        W14086  40.006  33.347   2.691
41019W        W14087  26.975  31.343   2.797
41020W        W14088   9.220  20.794  13.592
41021W        W14089  41.128  43.458  13.541
41022W        W14090  11.664   2.020  14.440
41023W        W14091  44.840  11.410  14.953
41024W        W14092   5.395  36.371   1.541
41025W        W14093  15.708  11.328   0.093
41026W        W14094  36.639   6.687  11.574
41027W        W14095  27.896  29.542   1.835
41028W        W14096  41.446  36.846   3.721
41029W        W14097  22.153  22.693   4.774
41030W        W14098  30.108  44.036   2.206
41031W        W14099  41.468  29.014  10.829
41032W        W14100  22.570  18.365   1.496
41033W        W14101   8.575   1.368   3.245
41034W        W14102   1.976  25.721   3.175
41035W        W14103  41.545  24.967  11.118
41036W        W14104  35.439  28.786  12.113
41037W        W14105  38.923   5.160   4.006
41038W        W14106   4.931  41.155   3.110
41039W        W14107  15.188  13.140   0.334
41040W        W14108  44.850  26.090   0.367
41041W        W14109  30.449  34.580   0.320
41042W        W14110  34.940  37.301   4.609
41043W        W14111  25.473  39.900   0.463
41044W        W14112  12.419  24.550  13.423
41045W        W14113  40.078   2.767  14.784
41046W        W14114  42.512  29.653  12.224
41047W        W14115  31.802  38.895   0.979
41048W        W14116  19.478  24.148  14.706
41049W        W14117  16.782  22.627  14.963
41050W        W14118  20.674  17.266   0.261
41051W        W14119   3.752  22.238  14.142
41052W        W14120  28.178   9.045   0.692
41053W        W14121  21.091   2.454   2.345
41054W        W14122  15.208  11.832   2.229
41055W        W14123  11.619  17.074  12.943
41056W        W14124   5.072   4.268   5.265
41057W        W14125  34.933   7.249   0.413
41058W        W14126  38.509  44.940   1.240
41059W        W14127  44.038   2.460   4.613
41060W        W14128  13.333  30.421   1.552
41061W        W14129  33.725  21.188  12.058
41062W        W14130  30.960  29.022   2.872
41063W        W14131  43.792  21.970   1.536
41064W        W14132  44.445  44.831  10.741
41065W        W14133  10.395  36.668   1.405
41066W        W14134  20.033  40.970  12.569
41067W        W14135   6.394  20.236   1.911
41068W        W14136  18.927  40.319  10.588
41069W        W14137  41.210  36.055  11.649
41070W        W14138  23.041  10.143  11.968
41071W        W14139  18.101  14.824  14.623
41072W        W14140  37.444   7.905  13.347
41073W        W14141  23.684   9.817   3.205
41074W        W14142  44.905   8.596  12.800
41075W        W14143  26.916   2.494   1.068
41076W        W14144  16.183  43.274   2.331
41077W        W14145   9.231  37.373  12.963
41078W        W14146  10.578  28.114   1.849
41079W        W14147  42.272  22.789  12.401
41080W        W14148   0.795   9.393  10.422
41081W        W14149  37.063  18.215  10.396
41082W        W14150  35.899  28.109  10.708
41083W        W14151  29.049  24.657   1.069
41084W        W14152  34.516  20.024  12.877
41085W        W14153  44.925  33.349  12.089
41086W        W14154  15.843  23.157  11.227
41087W        W14155  26.902  10.316   4.455
41088W        W14156   8.200  22.054  13.091
41089W        W14157  42.684   1.866   1.291
41090W        W14158  17.627   5.260  11.498
41091W        W14159  40.603  10.609  11.188
41092W        W14160  26.197  24.623   0.320
41093W        W14161  43.477  26.341  13.364
41094W        W14162  14.100   2.748   3.315
41095W        W14163  28.765   5.393   2.825
41096W        W14164  35.408  32.392   4.500
41097W        W14165   3.454   7.977   0.802
41098W        W14166  34.013  37.253   1.341
41099W        W14167  16.663  38.977   2.918
41100W        W14168  20.023   2.797   4.682
41101W        W14169  38.598  33.609   2.188
41102W        W14170  43.949  32.302  13.082
41103W        W14171  25.165   1.275   0.876
41104W        W14172  33.006  21.635  14.014
41105W        W14173  32.688  11.785  12.890
41106W        W14174   7.373  23.260  12.141
41107W        W14175  12.450  11.598   0.046
41108W        W14176  28.288  44.939   3.418
41109W        W14177   4.729  12.673   3.161
41110W        W14178  41.994  32.526  11.026
41111W        W14179  39.089  25.035  13.410
41112W        W14180  24.218  22.259   4.766
41113W        W14181  18.607   1.386   2.104
41114W        W14182  12.567   6.798   0.413
41115W        W14183   1.900   6.176   3.137
41116W        W14184  17.082   3.939  14.453
41117W        W14185   8.696  29.424   4.246
41118W        W14186  10.424   0.983  13.920
41119W        W14187  36.397  22.090  13.979
41120W        W14188  20.032   1.480   4.330
41121W        W14189  32.949  28.716   4.220
41122W        W14190  15.549  44.449  11.018
41123W        W14191  19.828   9.645  12.493
41124W        W14192  25.532   6.292  12.354
41125W        W14193   4.501  15.373   0.932
41126W        W14194  10.350  39.851   2.267
41127W        W14195  19.458   8.635  14.978
41128W        W14196   8.301  33.650  13.537
41129W        W14197   8.780  34.699   1.237
41130W        W14198  36.320  37.924  13.930
41131W        W14199  19.495  33.490  13.382
41132W        W14200  38.490  14.824  14.174
41133W        W14201  12.416  37.521  10.475
41134W        W14202  30.675  14.796   4.419
41135W        W14203   2.979   0.260  10.693
41136W        W14204  12.646  23.926   1.689
41137W        W14205  16.239  38.345  14.787
41138W        W14206  41.343  15.113   1.319
41139W        W14207   8.896  11.539  13.295
41140W        W14208  35.994  40.050  12.938
41141W        W14209  17.619   7.252  11.614
41142W        W14210  43.071   4.565   2.016
41143W        W14211  33.127  15.821  11.018
41144W        W14212  16.086  35.813  11.237
41145W        W14213  27.598   4.514  12.093
41146W        W14214  10.255  34.436   1.211
41147W        W14215  34.806  15.315  11.553
41148W        W14216   2.464  30.915   2.236
41149W        W14217  17.632  12.079  12.365
41150W        W14218  36.834  39.084  13.949
41151W        W14219  39.828  25.409  10.706
41152W        W14220   5.684  31.158  10.983
41153W        W14221  38.517  37.533   0.492
41154W        W14222   5.195  22.628  10.504
41155W        W14223  39.821  29.444   3.257
41156W        W14224  44.431   5.840   2.710
41157W        W14225  22.655   6.209  11.582
41158W        W14226   7.819  37.332  11.447
41159W        W14227   8.225   3.546   0.760
41160W        W14228   9.414   4.317  11.544
41161W        W14229   6.717  28.631   3.102
41162W        W14230  12.094  12.741   0.416
41163W        W14231   9.363  36.034   0.516
41164W        W14232  26.863  43.274  14.803
41165W        W14233  35.065  20.048  14.078
41166W        W14234   0.909  44.789   2.274
41167W        W14235  17.093  28.071  11.792
41168W        W14236  44.747   0.384  12.540
41169W        W14237  32.297  28.982   3.580
41170W        W14238  18.007   5.365  13.566
41171W        W14239  29.177  27.871  11.169
41172W        W14240  28.212  39.529  14.347
41173W        W14241   0.859   9.495   2.726
41174W        W14242  38.172  19.247   2.642
41175W        W14243  10.055   5.454  12.582
41176W        W14244  42.101   2.338   0.516
41177W        W14245  30.494  27.554   1.812
41178W        W14246   3.381  33.156   2.294
41179W        W14247  10.622   9.300   4.646
41180W        W14248   4.286  40.546  13.374
41181W        W14249  42.870  37.025  13.070
41182W        W14250  30.498  13.117   3.758
41183W        W14251  38.473  40.786   4.157
41184W        W14252  28.746  36.210  11.534
41185W        W14253  26.043   3.288  11.980
41186W        W14254  36.465  33.150   1.690
41187W        W14255  13.147  10.413  13.868
41188W        W14256  22.521  13.629  12.835
41189W        W14257   7.926  22.465   1.851
41190W        W14258  12.377   4.970   3.785
41191W        W14259  28.073  17.259   3.899
41192W        W14260  38.454  25.106  12.118
41193W        W14261   3.506  21.923   3.716
41194W        W14262  36.467   7.449  12.932
41195W        W14263  40.268  17.276   2.607
41196W        W14264  30.609   9.275  10.401
41197W        W14265   0.185  30.125   4.229
41198W        W14266  35.088  21.230   2.323
41199W        W14267  36.366   0.311  12.422
41200W        W14268  21.282  27.428  11.115
41201W        W14269  43.982  32.469   0.464
41202W        W14270  37.029  30.051   4.503
41203W        W14271  38.065   9.843   2.813
41204W        W14272  44.780  39.876  12.074
41205W        W14273  17.635  19.011   2.984
41206W        W14274  10.824  41.350   1.458
41207W        W14275  29.665  11.284   2.325
41208W        W14276  10.256  17.026   0.687
41209W        W14277  25.925  27.527   3.624
41210W        W14278  36.536  42.693   4.985
41211W        W14279  21.160  43.051  11.065
41212W        W14280  11.550  34.401   4.078
41213W        W14281  17.572   8.307   2.796
41214W        W14282  14.153  42.518  11.635
41215W        W14283  35.977  30.930   3.329
41216W        W14284  22.336  25.743   2.883
41217W        W14285  20.653  42.889   1.192
41218W        W14286  38.380   0.870   4.741
41219W        W14287   1.967   3.797  14.861
41220W        W14288  26.398  15.151   3.698
41221W        W14289  18.605  13.701   3.961
41222W        W14290  30.922  31.083   4.461
41223W        W14291  35.099  19.257  10.533
41224W        W14292  12.597  31.499   2.248
41225W        W14293  36.744  10.918   2.259
41226W        W14294   0.466  39.954   4.173
41227W        W14295  24.210  20.695   0.353
41228W        W14296  41.493  44.288  12.930
41229W        W14297  42.872  20.772  13.007
41230W        W14298  41.913  17.059  10.629
41231W        W14299  43.724  43.418  14.859
41232W        W14300  14.184  36.286   3.333
41233W        W14301  21.044  37.031   5.006
41234W        W14302  21.540  43.930   1.127
41235W        W14303  31.057  36.254   2.302
41236W        W14304  41.269  41.253   2.909
41237W        W14305   9.441  32.942  13.026
41238W        W14306  35.485  14.549  10.345
41239W        W14307   7.826   9.748  14.432
41240W        W14308  40.983  44.189   2.548
41241W        W14309  34.658  36.958  12.592
41242W        W14310  42.003  34.882  10.272
41243W        W14311  29.841   4.919   0.177
41244W        W14312   3.988  12.652   0.503
41245W        W14313  35.535  23.760   0.927
41246W        W14314  38.759  41.425   2.687
41247W        W14315  37.035  39.267   2.784
41248W        W14316   2.715  30.760   0.772
41249W        W14317  17.226  28.872  11.181
41250W        W14318  19.899   7.203  12.911
41251W        W14319  21.409   1.104   4.558
41252W        W14320  23.807  30.152   2.277
41253W        W14321  15.173  16.165  10.567
41254W        W14322  15.267   1.211   3.728
41255W        W14323   8.802  23.450   2.968
41256W        W14324   0.568  16.122  10.640
41257W        W14325   8.762  34.144   2.336
41258W        W14326  44.955  18.831   3.059
41259W        W14327  17.786  33.943  13.522
41260W        W14328  31.505  14.815   2.637
41261W        W14329  42.526  43.829   1.913
41262W        W14330   4.349  30.976   4.751
41263W        W14331  43.990  21.933   3.974
41264W        W14332  44.769  24.721  13.365
41265W        W14333  13.640  36.228  13.123
41266W        W14334   3.812  10.294  11.204
41267W        W14335  30.357  11.847  12.477
41268W        W14336  35.496  20.251   2.671
41269W        W14337   2.336  24.251   4.479
41270W        W14338  15.712   2.212  14.224
41271W        W14339  28.910   4.389   0.812
41272W        W14340  17.155  11.282   3.279
41273W        W14341  26.365   8.994   5.097
41274W        W14342  26.074  31.123   2.870
41275W        W14343   8.859  26.195  13.677
41276W        W14344  29.524  42.849  12.092
41277W        W14345  20.579  15.329  10.673
41278W        W14346  26.684  36.478  11.125
41279W        W14347  43.032  30.071  12.546
41280W        W14348  24.184  20.458   4.264
41281W        W14349  16.041  33.660  14.412
41282W        W14350  37.457  30.511  14.366
41283W        W14351  25.725  36.376  13.277
41284W        W14352  38.792   1.694   0.757
41285W        W14353   4.686  42.117   4.649
41286W        W14354  24.671   2.843  11.948
41287W        W14355  22.060  10.284  13.114
41288W        W14356  44.333  36.577  11.701
41289W        W14357  32.543   0.779  12.348
41290W        W14358  14.319  39.792  13.089
41291W        W14359  17.084  26.956   2.651
41292W        W14360  28.925  40.266   3.268
41293W        W14361  22.071   0.191  14.572
41294W        W14362  23.788  10.390  11.621
41295W        W14363  15.865  34.982  13.090
41296W        W14364  30.522   6.509   4.859
41297W        W14365  43.444  26.897  12.420
41298W        W14366   1.716  20.474  12.956
41299W        W14367   2.699  13.741  12.091
41300W        W14368  33.554  31.748   4.876
41301W        W14369  35.145  23.999  11.580
41302W        W14370  40.944  32.619   2.151
41303W        W14371  20.490  15.178   0.323
41304W        W14372   1.004  34.362  10.260
41305W        W14373  14.600   3.357   4.655
41306W        W14374  31.909   7.676  10.522
41307W        W14375  23.922  21.115  13.877
41308W        W14376  16.242  24.658   4.207
41309W        W14377   7.745  19.143  10.544
41310W        W14378  32.234   4.949  14.372
41311W        W14379  36.166  25.960   2.737
41312W        W14380  43.834  13.890   4.845
41313W        W14381  32.990  40.861  12.170
41314W        W14382  21.661  18.745   3.222
41315W        W14383  43.665  12.193   0.720
41316W        W14384  37.343  37.897  10.726
41317W        W14385  42.022  24.753   1.326
41318W        W14386  23.600   9.362  10.669
41319W        W14387  28.005  17.196   3.406
41320W        W14388  33.630  29.029  10.603
41321W        W14389  32.676   3.675  13.338
41322W        W14390  43.808  10.722   0.271
41323W        W14391   1.463   6.421  12.501
41324W        W14392   6.750   0.046   2.235
41325W        W14393   7.354   6.275   4.396
41326W        W14394  23.533  21.448  10.763
41327W        W14395   9.668  20.116  13.639
41328W        W14396  10.064  17.654   3.271
41329W        W14397   2.434  18.842  14.294
41330W        W14398   9.878  33.489   0.799
41331W        W14399  40.034  15.555   0.786
41332W        W14400   8.096  22.594  13.748
41333W        W14401  25.699  26.396  14.958
41334W        W14402  10.760  43.641  14.727
41335W        W14403  24.199  18.013  12.052
41336W        W14404  18.332   2.505   3.622
41337W        W14405  22.549  15.536   4.219
41338W        W14406  44.825   3.193  14.739
41339W        W14407   4.715  41.032  11.483
41340W        W14408   6.530  35.561   2.315
41341W        W14409  37.574  33.144  12.392
41342W        W14410  16.045  29.035   4.921
41343W        W14411  22.948  13.794  11.100
41344W        W14412   7.326  12.725  13.050
41345W        W14413  39.822  33.631   0.892
41346W        W14414  36.254   7.607  14.428
41347W        W14415  25.137  39.831   2.288
41348W        W14416  39.846  42.469  11.614
41349W        W14417  23.594  41.706  13.585
41350W        W14418  28.433  38.160   2.320
41351W        W14419  23.217  19.895  13.437
41352W        W14420  17.932   8.150  11.554
41353W        W14421  21.183   5.372  11.576
41354W        W14422  27.063  42.108  14.511
41355W        W14423  33.856  39.844  11.649
41356W        W14424  37.993  36.134  12.172
41357W        W14425  30.207   3.776  11.561
41358W        W14426  27.545  37.797  14.940
41359W        W14427  26.502  21.235  10.646
41360W        W14428  43.282  17.234   2.788
41361W        W14429  12.091  41.346   4.388
41362W        W14430  42.970  34.481   1.361
41363W        W14431  19.562  41.049   0.453
41364W        W14432  23.976  14.246   2.165
41365W        W14433   0.005  20.185  11.642
41366W        W14434  23.454   2.583  12.555
41367W        W14435  22.412  28.583   1.589
41368W        W14436  35.912   0.706   2.774
41369W        W14437  15.511   3.580   1.819
41370W        W14438  42.778  21.308  12.107
41371W        W14439  16.624  29.881  14.337
41372W        W14440   1.594  43.590  11.939
41373W        W14441   3.839  18.930   2.139
41374W        W14442  35.093  28.619  10.951
41375W        W14443  36.024  30.992  11.112
41376W        W14444  26.116  24.217   3.244
41377W        W14445  15.034  42.460   2.862
41378W        W14446  43.687  12.132   4.993
41379W        W14447  43.007  16.121  13.512
41380W        W14448  21.478  44.809   0.308
41381W        W14449   1.739  34.880   2.189
41382W        W14450   8.355  11.225  13.920
41383W        W14451  39.759  23.722  14.083
41384W        W14452   4.845  22.928   3.295
41385W        W14453  42.364  22.999  14.199
41386W        W14454  19.557  30.435   2.002
41387W        W14455  11.564  16.771   0.841
41388W        W14456  20.550  26.088   0.635
41389W        W14457  25.611   8.973   1.222
41390W        W14458  10.171  20.696  10.477
41391W        W14459  33.025  19.941   4.268
41392W        W14460  28.683  37.306  14.402
41393W        W14461   2.904   4.449  12.607
41394W        W14462  43.424  12.358  13.731
41395W        W14463  21.072  25.149   0.851
41396W        W14464  21.755  36.207  10.532
41397W        W14465   2.955  23.784   3.913
41398W        W14466  19.884   6.047  12.552
41399W        W14467  33.014  18.082   3.890
41400W        W14468  20.476  32.433  10.841
41401W        W14469   0.727   8.690   3.799
41402W        W14470   2.728  27.941  10.649
41403W        W14471  12.647  20.536   2.629
41404W        W14472  43.299  12.362   3.150
41405W        W14473   3.272  42.395  11.674
41406W        W14474  32.545  18.120   0.203
41407W        W14475   5.766   9.489  14.467
41408W        W14476  17.493  18.545   3.102
41409W        W14477  23.030  22.743  12.298
41410W        W14478  19.651   5.019   3.724
41411W        W14479  18.353   3.988  11.388
41412W        W14480   7.791  21.163   0.879
41413W        W14481  29.687  39.528   4.942
41414W        W14482   5.671  18.134  10.462
41415W        W14483  19.523  29.302  10.508
41416W        W14484  15.251   5.840   2.700
41417W        W14485   7.788  36.319  12.914
41418W        W14486  19.474  16.258   0.487
41419W        W14487  21.388  35.971   0.784
41420W        W14488  33.560  43.305   4.718
41421W        W14489   6.947   0.842  13.395
41422W        W14490  31.210  28.141   3.635
41423W        W14491  39.799  28.177   4.327
41424W        W14492  20.025  10.250  11.636
41425W        W14493  29.721  22.478  13.516
41426W        W14494  34.151  17.992  10.422
41427W        W14495  44.493  11.346   2.340
41428W        W14496  29.292  26.198   2.153
41429W        W14497  41.619   4.433   2.670
41430W        W14498  43.877  34.158  10.407
41431W        W14499   7.707  16.578   3.386
41432W        W14500  18.055  27.317  11.645
41433W        W14501  25.629  31.940   0.236
41434W        W14502  22.498  16.739  10.275
41435W        W14503   4.195  38.625   2.360
41436W        W14504  15.014   0.321  14.850
41437W        W14505  17.161  30.733   3.209
41438W        W14506  31.078  19.357  14.809
41439W        W14507  31.493  26.068  14.551
41440W        W14508  42.152  30.478   4.177
41441W        W14509  42.728   8.157  12.384
41442W        W14510  30.823  31.350   3.473
41443W        W14511  17.367  16.695  12.574
41444W        W14512  33.606  33.351   0.330
41445W        W14513   2.405  13.583   3.214
41446W        W14514   2.041   9.699   3.091
41447W        W14515  41.308   2.177   1.370
41448W        W14516  22.381  43.970   4.574
41449W        W14517  23.209  41.713  12.061
41450W        W14518  23.940  36.961   1.313
41451W        W14519  36.545  14.609  12.927
41452W        W14520  27.258  12.149  11.615
41453W        W14521  16.766  20.833  13.353
41454W        W14522  26.659  11.759   2.863
41455W        W14523  41.808  20.802  14.492
41456W        W14524  38.115  37.531  12.283
41457W        W14525   1.272  15.179   2.398
41458W        W14526   8.166  27.163  12.925
41459W        W14527  40.953  11.096   4.350
41460W        W14528  25.871   8.676   4.955
41461W        W14529  13.252  10.899  12.109
41462W        W14530  32.626  21.735   0.494
41463W        W14531  35.648  10.312   3.787
41464W        W14532  27.162   1.321   0.969
41465W        W14533  26.181  30.592   4.640
41466W        W14534   9.694  34.700  11.463
41467W        W14535  28.260   2.085  11.128
41468W        W14536  11.047   4.210  13.005
41469W        W14537  16.941  35.155  13.970
41470W        W14538  36.923  26.900   2.128
41471W        W14539  39.336  35.493   1.947
41472W        W14540  17.281  40.439   1.232
41473W        W14541  25.867   0.963  12.205
41474W        W14542  10.108  13.209  14.810
41475W        W14543  43.378  32.481   3.088
41476W        W14544  12.808  38.478   0.879
41477W        W14545  35.574  30.676  14.971
41478W        W14546  30.070  38.926   1.469
41479W        W14547  11.684   0.323   0.867
41480W        W14548   9.089  31.798   1.570
41481W        W14549  15.709  17.543  11.492
41482W        W14550  22.592   4.161   2.235
41483W        W14551  24.144  25.541   4.629
41484W        W14552   2.392   1.398   1.999
41485W        W14553  15.391   3.647  13.551
41486W        W14554  40.007  30.188  11.124
41487W        W14555   4.212   1.424   1.674
41488W        W14556  12.161  30.678  14.121
41489W        W14557  14.688   9.365   4.622
41490W        W14558  28.989  21.476   2.130
41491W        W14559   5.435  37.717  13.982
41492W        W14560  35.400  33.855   3.265
41493W        W14561  13.821  32.498  13.909
41494W        W14562  20.112  36.724  12.479
41495W        W14563  37.462  17.011  14.555
41496W        W14564  18.074  19.879   2.005
41497W        W14565   9.989  24.981  12.044
41498W        W14566  41.960  23.603  12.488
41499W        W14567  17.158  33.434   3.246
41500W        W14568  18.503  42.210  11.967
41501W        W14569   6.296  22.597  14.279
41502W        W14570   2.477  41.008   4.155
41503W        W14571   6.192  40.155   1.883
41504W        W14572  17.793  23.942   3.563
41505W        W14573  12.294  33.095  13.094
41506W        W14574  42.352  13.803   1.844
41507W        W14575  17.325   8.511   4.041
41508W        W14576   2.336   6.728   3.344
41509W        W14577   5.617  23.790  12.393
41510W        W14578  25.183   3.439  14.748
41511W        W14579  21.615  16.190  14.356
41512W        W14580  31.723   4.406   1.270
41513W        W14581  38.892  32.841  12.111
41514W        W14582  31.119  13.623  14.101
41515W        W14583   0.395  20.556   2.183
41516W        W14584  25.543  40.900  12.092
41517W        W14585  42.309   0.458   3.210
41518W        W14586  35.394   7.939   1.269
41519W        W14587  10.025  26.025   2.381
41520W        W14588  27.154   5.516   4.134
41521W        W14589  16.204   3.342  10.338
41522W        W14590  25.174  14.865  14.496
41523W        W14591  44.982  34.832  11.672
41524W        W14592  18.469  15.703  10.179
41525W        W14593   5.350  26.964  13.805
41526W        W14594  18.798   2.958   1.187
41527W        W14595  36.737  37.307   2.883
41528W        W14596  14.573  32.545   2.455
41529W        W14597   0.949  38.635  13.791
41530W        W14598   5.904  19.109   2.316
41531W        W14599  14.743  15.352  11.184
41532W        W14600  32.626  42.525   2.367
41533W        W14601   3.804   2.372  12.850
41534W        W14602  19.231   4.701   4.599
41535W        W14603  11.008  29.221  14.982
41536W        W14604  26.913  24.592   3.323
41537W        W14605   9.174  30.448  10.560
41538W        W14606  22.587  12.070   0.528
41539W        W14607  12.252  14.973  11.447
41540W        W14608   9.784  35.160  11.661
41541W        W14609  17.862   3.983  11.543
41542W        W14610   0.730  43.198  11.713
41543W        W14611   4.601  44.313   2.727
41544W        W14612  37.468  19.283   3.191
41545W        W14613  26.598  37.004   2.723
41546W        W14614  23.143  42.828  13.861
41547W        W14615  10.226  28.594   0.791
41548W        W14616   5.464  37.980   2.699
41549W        W14617  36.481  20.608   0.294
41550W        W14618  34.640   1.039   2.248
41551W        W14619   7.404  19.714   0.916
41552W        W14620  25.922  13.258   3.665
41553W        W14621   9.726  41.596  11.664
41554W        W14622  17.066   1.824   4.089
41555W        W14623   0.224  23.649  13.646
41556W        W14624   0.723   0.768  13.839
41557W        W14625  27.926  30.635   4.128
41558W        W14626  21.155  13.308   0.231
41559W        W14627   8.127   6.915  13.393
41560W        W14628  35.483  41.726   4.355
41561W        W14629  15.186  19.667   4.667
41562W        W14630  39.505  35.418   2.908
41563W        W14631   1.785  42.686   5.083
41564W        W14632  17.675  37.071   0.861
41565W        W14633  21.740  23.724  13.032
41566W        W14634  34.859  19.844  13.261
41567W        W14635   9.864  42.840   5.087
41568W        W14636   3.058  40.240  10.667
41569W        W14637  36.890  27.671  13.993
41570W        W14638  43.428   4.968   3.162
41571W        W14639  13.744  17.906  11.788
41572W        W14640  21.303  43.778  10.622
41573W        W14641  23.991  42.578   2.306
41574W        W14642   7.735  18.130  14.377
41575W        W14643  40.334  17.261  13.933
41576W        W14644  12.813  44.531  13.527
41577W        W14645  17.266  27.108  11.595
41578W        W14646  44.425  35.359  11.100
41579W        W14647  19.323  34.886   2.461
41580W        W14648  37.834  32.038   2.360
41581W        W14649  28.429  26.950   4.048
41582W        W14650  43.758  30.147   1.803
41583W        W14651   8.062  18.179  12.137
41584W        W14652  22.037  37.428   4.594
41585W        W14653  12.766  25.053   4.632
41586W        W14654  40.345   6.918   3.399
41587W        W14655  37.987   7.139   1.322
41588W        W14656   1.483  34.849  12.918
41589W        W14657  20.460  17.054  12.065
41590W        W14658  18.499   3.866   2.707
41591W        W14659   1.242   7.105   3.134
41592W        W14660   0.692   1.298  13.556
41593W        W14661  39.456  39.066   3.723
41594W        W14662  16.645  13.160   2.899
41595W        W14663   3.345  27.919   3.782
41596W        W14664  18.309  15.765  13.506
41597W        W14665  34.362   4.847   1.293
41598W        W14666  25.598  32.263   4.210
41599W        W14667  23.653  23.418  13.879
41600W        W14668  40.848  43.384   1.830
41601W        W14669   9.627  33.875   3.276
41602W        W14670  39.537  15.458   3.414
41603W        W14671  14.192  32.588   0.425
41604W        W14672  13.744  42.341  13.562
41605W        W14673   6.976  25.597  12.566
41606W        W14674  12.116  32.373   3.579
41607W        W14675  22.769  15.452   5.118
41608W        W14676  17.850   9.201   2.710
41609W        W14677  17.099  26.958  13.064
41610W        W14678  23.498  43.249   0.435
41611W        W14679  28.432   8.647  12.851
41612W        W14680  34.816  34.942   3.649
41613W        W14681  13.702  17.284  11.458
41614W        W14682  16.025  25.677  10.742
41615W        W14683   2.261  32.937   4.530
41616W        W14684  10.330   6.363   4.012
41617W        W14685   8.791  19.371  13.999
41618W        W14686  35.026  36.132  12.871
41619W        W14687  18.483  19.857  12.461
41620W        W14688  34.707   4.201   3.260
41621W        W14689  25.469  25.288   2.168
41622W        W14690  42.329  34.304   3.345
41623W        W14691   1.789  14.824  13.087
41624W        W14692   8.846  16.270   2.491
41625W        W14693  13.968  44.543  12.228
41626W        W14694  28.578  15.932  11.710
41627W        W14695  41.896  14.872  10.396
41628W        W14696  25.439   4.359   2.410
41629W        W14697  31.774   7.975   3.242
41630W        W14698  38.337   4.934   4.462
41631W        W14699  15.714  38.249   1.916
41632W        W14700  41.744  13.863   0.053
41633W        W14701   4.899  15.696  10.644
41634W        W14702  13.072   6.603  12.296
41635W        W14703  13.903  15.876   5.006
41636W        W14704   6.336  28.497   2.729
41637W        W14705  11.289  22.623   2.879
41638W        W14706  12.114  15.629  10.667
41639W        W14707   5.391  33.713   4.223
41640W        W14708  22.581  37.637  11.191
41641W        W14709  36.090  42.284  11.185
41642W        W14710  21.029   5.314   3.563
41643W        W14711   2.857   1.069  12.405
41644W        W14712  37.396  31.650   4.154
41645W        W14713   0.962  36.237  11.433
41646W        W14714   2.441  28.414  14.918
41647W        W14715   0.258  25.112   2.295
41648W        W14716  30.541  20.757   4.583
41649W        W14717  25.162  28.067   5.065
41650W        W14718  41.368  18.121  14.783
41651W        W14719  33.372   7.327   0.916
41652W        W14720   9.770  44.787  11.932
41653W        W14721  17.030   3.641   2.868
41654W        W14722  21.647  28.145  10.996
41655W        W14723  34.418   6.936  12.445
41656W        W14724   3.843  36.113   1.183
41657W        W14725  29.717  29.582  13.441
41658W        W14726  15.186  25.395   2.145
41659W        W14727  40.146  31.314  13.976
41660W        W14728  12.611   5.716   4.178
41661W        W14729  10.858  41.008  10.643
41662W        W14730  21.188  13.721  12.130
41663W        W14731   8.644  27.146  12.065
41664W        W14732  11.603  15.276  14.942
41665W        W14733  34.439  31.167  10.662
41666W        W14734  36.033   3.705   1.662
41667W        W14735  22.463  44.128   5.125
41668W        W14736   7.658  13.258  10.633
41669W        W14737  21.523  22.328  14.964
41670W        W14738  20.770  31.746  13.358
41671W        W14739  44.436   9.483   0.949
41672W        W14740  30.927  30.986  13.436
41673W        W14741  16.526  30.883   4.699
41674W        W14742   2.222   5.269   1.870
41675W        W14743  11.804  34.615   2.606
41676W        W14744  12.948  10.155  12.311
41677W        W14745  20.265  37.059  13.484
41678W        W14746  19.003  21.310  12.332
41679W        W14747   5.176  20.339  10.637
41680W        W14748  38.497   5.369   1.498
41681W        W14749  13.271  33.342   1.552
41682W        W14750  43.552  16.272  11.601
41683W        W14751  44.474  32.603   0.291
41684W        W14752  31.380  37.261   1.659
41685W        W14753  24.996  23.461  12.919
41686W        W14754  30.164   6.856  14.258
41687W        W14755  28.978  28.652   3.324
41688W        W14756   2.121  17.781  11.422
41689W        W14757  28.567  10.978  10.144
41690W        W14758   0.639  10.827   4.271
41691W        W14759  34.613  43.953   4.667
41692W        W14760  43.839  30.501  12.615
41693W        W14761  22.503  14.631  10.651
41694W        W14762   4.008  28.925   1.315
41695W        W14763  38.656   4.409   0.773
41696W        W14764   6.185   5.620   0.885
41697W        W14765  15.686  21.609  13.279
41698W        W14766   7.473  42.430  13.596
41699W        W14767  17.114   5.843   3.572
41700W        W14768  28.131  29.116   0.711
41701W        W14769  27.967   9.585  10.518
41702W        W14770  33.167  11.917  11.254
41703W        W14771  37.758  13.627   3.664
41704W        W14772  16.666  14.745  13.929
41705W        W14773  17.769  35.808   0.349
41706W        W14774   2.718  10.393  11.206
41707W        W14775  43.685   4.397  12.029
41708W        W14776  16.709  27.745   1.782
41709W        W14777  38.949  11.919   3.711
41710W        W14778  41.066  44.529  12.757
41711W        W14779   6.342   6.186   3.715
41712W        W14780  38.037  20.631  11.419
41713W        W14781  36.265  36.998  11.542
41714W        W14782  42.859  11.247   2.696
41715W        W14783   5.745  11.283   4.871
41716W        W14784  18.133  40.379   2.666
41717W        W14785  31.660  40.821   2.325
41718W        W14786  32.580  44.838  10.443
41719W        W14787   8.507   2.918   4.197
41720W        W14788  37.806  44.251   3.775
41721W        W14789  40.073  42.794  12.629
41722W        W14790   6.752  25.446   2.250
41723W        W14791  42.552  35.188   2.298
41724W        W14792  32.893  34.414  12.479
41725W        W14793   8.288  12.193   0.211
41726W        W14794  14.791  13.156   0.702
41727W        W14795  37.933   2.142  12.031
41728W        W14796  27.065   5.635  14.890
41729W        W14797   0.724  18.146   3.114
41730W        W14798   6.851  35.238   1.997
41731W        W14799   9.258  12.888  11.610
41732W        W14800   0.037  29.021   2.719
41733W        W14801  16.618  24.437   1.395
41734W        W14802  23.122  15.693  14.026
41735W        W14803  35.833  26.906  12.130
41736W        W14804  31.940  15.564  13.013
41737W        W14805  13.237  13.592   1.863
41738W        W14806  18.780  12.162  13.881
41739W        W14807  41.898  10.539  13.502
41740W        W14808  22.580  34.365   4.173
41741W        W14809  27.797   1.927  11.282
41742W        W14810  29.666  37.476  13.367
41743W        W14811   2.118  38.881   0.687
41744W        W14812   1.994  27.110  10.806
41745W        W14813  37.446  40.380  13.196
41746W        W14814  23.228  37.412   3.518
41747W        W14815  23.050  13.250  11.874
41748W        W14816  40.072  41.388   4.514
41749W        W14817  17.335  19.195  11.417
41750W        W14818  16.823  14.704   1.767
41751W        W14819  23.126  39.273  11.903
41752W        W14820  26.962   8.442  11.139
41753W        W14821  17.299  25.031   4.578
41754W        W14822   9.964   4.287  10.429
41755W        W14823  15.640   2.973  13.797
41756W        W14824  20.694   4.606  10.424
41757W        W14825   8.299  42.083   3.731
41758W        W14826   8.198   9.868   1.509
41759W        W14827  23.052  41.263   1.522
41760W        W14828  21.176  14.196  14.465
41761W        W14829  27.401  36.874   0.668
41762W        W14830  15.140  14.238   1.688
41763W        W14831  17.841  19.304   0.993
41764W        W14832  44.989  40.868  14.789
41765W        W14833  38.068   5.078   0.511
41766W        W14834   0.089  37.307  11.671
41767W        W14835   1.442  35.016   4.601
41768W        W14836  13.761  20.693  13.477
41769W        W14837  32.186   7.445   3.724
41770W        W14838   8.957  11.732   0.495
41771W        W14839  29.350  27.533   0.775
41772W        W14840  14.215  18.287   1.791
41773W        W14841  26.049  43.205   4.998
41774W        W14842  11.092   6.750  14.281
41775W        W14843  28.503  12.635  12.662
41776W        W14844   5.260  40.566   3.685
41777W        W14845  15.732   2.685   3.889
41778W        W14846  35.581  20.791   0.285
41779W        W14847  30.143  37.489   9.588
41780W        W14848  41.662   2.468  14.531
41781W        W14849  10.811   7.809  10.557
41782W        W14850  20.582  15.827   4.426
41783W        W14851  10.376   6.253   3.073
41784W        W14852  36.826  14.680  11.087
41785W        W14853  13.561  18.346  12.630
41786W        W14854   7.191  19.995  10.501
41787W        W14855  24.018  34.874  13.131
41788W        W14856   0.733  33.335  13.378
41789W        W14857  14.652  29.085   0.829
41790W        W14858  18.461  19.422   5.071
41791W        W14859  40.277   2.334  12.433
41792W        W14860  20.784  14.743   0.246
41793W        W14861  23.026  20.691   3.839
41794W        W14862  34.425   6.762   3.374
41795W        W14863  40.979  20.006  12.470
41796W        W14864  16.635  28.689   2.150
41797W        W14865  40.952   1.714  11.221
41798W        W14866  40.333   5.329  11.970
41799W        W14867  36.970  12.086   2.728
41800W        W14868  18.118  16.187   1.817
41801W        W14869  32.196  23.759  11.958
41802W        W14870   8.436  44.473  13.546
41803W        W14871  18.146  18.293  14.535
41804W        W14872   6.078   3.378   1.014
41805W        W14873  22.422  16.571   2.899
41806W        W14874  28.441   9.530  10.676
41807W        W14875  16.989  17.621  12.762
41808W        W14876   9.350  26.709  10.992
41809W        W14877  42.178  13.976  14.794
41810W        W14878   9.543  36.381   1.850
41811W        W14879   0.309  22.635  12.592
41812W        W14880  29.620  10.516   1.889
41813W        W14881  36.168   7.890  12.906
41814W        W14882  41.470  16.192   1.840
41815W        W14883  35.077   1.842   5.064
41816W        W14884   5.584  21.856   1.416
41817W        W14885   7.788  31.566   1.972
41818W        W14886   7.967  38.831  14.322
41819W        W14887  17.980  36.631  11.706
41820W        W14888  14.046  32.508   2.462
41821W        W14889  35.783  25.924  13.403
41822W        W14890   9.732  20.286  12.139
41823W        W14891  26.577  17.305  12.883
41824W        W14892  32.024  10.667  11.740
41825W        W14893  37.764  27.201   3.133
41826W        W14894   7.863  17.110   0.535
41827W        W14895  40.197   8.815  10.110
41828W        W14896  43.871   6.474  14.346
41829W        W14897  14.905  28.164   0.740
41830W        W14898  10.464  29.440   1.894
41831W        W14899  14.708  14.328   2.480
41832W        W14900  15.413  17.177  14.401
41833W        W14901  30.797  21.319   0.001
41834W        W14902   0.681   5.887  10.653
41835W        W14903  33.914  20.480  10.494
41836W        W14904  15.219  29.983   3.162
41837W        W14905  40.998   7.135  11.050
41838W        W14906  24.770  27.384  11.888
41839W        W14907  27.786   5.341  11.524
41840W        W14908  13.230  22.728   2.862
41841W        W14909   4.342  33.619  14.882
41842W        W14910  23.674   6.586   0.328
41843W        W14911  24.694   5.637   3.309
41844W        W14912  42.785  15.542   2.702
41845W        W14913  13.777  42.390  11.235
41846W        W14914   4.888  15.949   4.983
41847W        W14915  22.009  32.797  10.559
41848W        W14916   6.838  27.122  11.045
41849W        W14917  28.182  33.064   0.344
41850W        W14918   3.711  34.121   3.607
41851W        W14919  32.886  17.722  14.400
41852W        W14920   7.690  19.320   1.319
41853W        W14921   2.816  19.521   3.277
41854W        W14922   8.038  34.396   2.129
41855W        W14923  31.562   2.403  14.531
41856W        W14924   2.443  16.518  12.912
41857W        W14925  26.144   0.977   0.908
41858W        W14926  10.375  42.881   0.186
41859W        W14927  18.106   5.897  14.449
41860W        W14928   9.310   7.279   3.209
41861W        W14929  24.642  18.203   1.022
41862W        W14930  36.016  33.910  12.519
41863W        W14931  10.721   1.718   1.872
41864W        W14932  19.568  20.982   0.890
41865W        W14933  44.433  22.993  13.748
41866W        W14934  25.496  20.191  14.977
41867W        W14935   6.668  43.365   2.776
41868W        W14936  31.085   5.797  14.544
41869W        W14937   4.832  40.407   2.300
41870W        W14938  44.953  21.173  13.049
41871W        W14939  34.014  35.504   2.358
41872W        W14940   7.722  11.972   0.989
41873W        W14941  24.328  41.942  11.150
41874W        W14942   2.779   6.883  12.405
41875W        W14943  32.663   5.334  12.525
41876W        W14944  22.369  28.458   4.229
41877W        W14945  42.488   6.672  14.454
41878W        W14946  26.565  31.509  12.151
41879W        W14947  10.712  39.242   4.649
41880W        W14948  19.499   4.442   2.373
41881W        W14949  41.802  10.816   2.318
41882W        W14950  15.591  40.084  12.522
41883W        W14951  24.547  38.868   3.262
41884W        W14952  38.571   9.856  14.317
41885W        W14953  36.910  20.289   2.303
41886W        W14954   5.218  18.694  11.003
41887W        W14955   2.691  14.152  13.725
41888W        W14956  33.722  16.901  13.484
41889W        W14957  30.763   4.023  14.115
41890W        W14958  15.811  13.802   5.131
41891W        W14959  11.835   6.421  12.445
41892W        W14960  27.154   5.335   2.733
41893W        W14961  26.091  43.644  11.008
41894W        W14962   3.944  42.722  12.968
41895W        W14963   8.329  32.624  11.608
41896W        W14964  26.045   2.041  14.553
41897W        W14965   7.313  33.166  13.359
41898W        W14966  37.889  12.663  13.548
41899W        W14967  26.996   0.226   4.200
41900W        W14968  30.724  20.116   3.990
41901W        W14969  14.185  29.856  10.606
41902W        W14970   2.719  16.551  14.046
41903W        W14971  29.346  23.576  10.712
41904W        W14972  27.714  34.455   2.640
41905W        W14973  33.455  33.828  13.431
41906W        W14974  44.189   7.490  13.444
41907W        W14975  44.289   5.810  10.704
41908W        W14976  14.786  21.467   3.369
41909W        W14977  16.560   1.361  14.309
41910W        W14978  35.356  35.063  14.922
41911W        W14979  24.747  19.150   1.854
41912W        W14980  13.866  28.864   3.706
41913W        W14981  11.936  29.420  13.414
41914W        W14982  33.132   4.830  12.249
41915W        W14983  39.434  17.697   2.885
41916W        W14984  20.684  29.168   2.906
41917W        W14985   7.823  24.828  11.207
41918W        W14986  18.455  17.257  11.193
41919W        W14987  29.103  29.162   3.327
41920W        W14988  33.747   7.494  11.237
41921W        W14989  37.977  39.492   2.467
41922W        W14990  23.276  44.317   1.776
41923W        W14991  11.124   7.409  12.120
41924W        W14992  30.141  35.249   0.386
41925W        W14993  36.703  21.336  11.666
41926W        W14994  24.122   2.997   3.294
41927W        W14995  22.517  30.298  14.286
41928W        W14996   9.197  34.037  14.129
41929W        W14997  36.422  28.638  13.918
41930W        W14998  24.012  23.062  14.951
41931W        W14999   7.697  42.840  13.820
41932W        W15000  42.839  22.822  12.962
41933W        W15001  18.140   4.188  13.936
41934W        W15002  21.436   1.117  10.199
41935W        W15003  12.235  31.355   1.290
41936W        W15004  25.066  33.532  11.309
41937W        W15005  32.556  39.355   0.856
41938W        W15006  21.994  35.350  10.640
41939W        W15007  33.658  40.864  14.980
41940W        W15008  21.774  20.704  10.956
41941W        W15009  42.007  37.649   3.867
41942W        W15010  34.353  36.488  13.346
41943W        W15011  19.305  44.325   0.843
41944W        W15012  31.166   7.737   3.715
41945W        W15013  19.744   1.910  12.692
41946W        W15014  16.174  14.896   4.670
41947W        W15015   7.623  11.829   1.817
41948W        W15016   2.458   7.984   2.779
41949W        W15017  17.180  32.216   2.778
41950W        W15018  25.566  12.539  10.477
41951W        W15019  29.471  31.046   3.036
41952W        W15020  12.649  44.278  12.609
41953W        W15021  10.069   5.901   4.080
41954W        W15022  35.128   8.385  10.777
41955W        W15023  25.918  28.482   2.184
41956W        W15024  36.158   5.114  12.383
41957W        W15025   1.475  34.107   3.688
41958W        W15026  38.369  17.350   0.172
41959W        W15027  23.654   9.111  13.256
41960W        W15028  10.130  39.591   0.022
41961W        W15029   3.691  26.715   1.391
41962W        W15030  33.960  27.485  13.147
41963W        W15031  26.176  16.487   1.697
41964W        W15032  11.834  20.622  11.624
41965W        W15033  43.848  20.807   0.458
41966W        W15034  40.097  16.323  10.728
41967W        W15035  10.892  23.168   3.220
41968W        W15036   4.762  20.406   3.835
41969W        W15037  21.928  42.777  14.406
41970W        W15038  21.225  42.811  14.943
41971W        W15039  38.988  29.134   4.236
41972W        W15040  43.751   2.221  12.644
41973W        W15041  39.377  42.035   3.213
41974W        W15042   5.884  38.840   2.245
41975W        W15043   6.886  34.130  10.771
41976W        W15044  17.571  17.670   3.169
41977W        W15045  42.414  22.498  10.982
41978W        W15046  44.215   1.569   3.777
41979W        W15047  32.885  15.576   0.207
41980W        W15048   7.906  10.298   2.415
41981W        W15049  18.279  22.322   4.692
41982W        W15050  40.575  27.596  11.005
41983W        W15051  11.602   6.603   0.235
41984W        W15052  32.411  20.130  11.105
41985W        W15053  28.094  21.780   1.153
41986W        W15054  19.420  17.868  12.912
41987W        W15055  39.110   3.289  11.126
41988W        W15056  37.616  12.766  11.601
41989W        W15057  34.671  10.148  10.263
41990W        W15058  38.632  37.818  13.482
41991W        W15059   6.677  12.955  10.708
41992W        W15060  44.338  29.041   1.049
41993W        W15061  13.036   1.699   3.160
41994W        W15062  39.472  19.254   2.387
41995W        W15063   9.352  37.932  13.336
41996W        W15064  38.344  43.221  14.301
41997W        W15065  13.173  41.790   3.842
41998W        W15066  43.524   9.644  11.167
41999W        W15067   6.812  19.362  14.481
42000W        W15068  14.309  24.036  11.377
42001W        W15069  13.264  13.857  14.129
42002W        W15070   0.425  23.737   1.407
42003W        W15071  19.730  36.131   4.852
42004W        W15072  24.847  39.348   3.204
42005W        W15073  28.833  28.130   1.386
42006W        W15074  13.524  31.879  12.982
42007W        W15075   8.301   1.337   4.301
42008W        W15076  39.011   2.237   1.866
42009W        W15077  31.709  37.539   0.747
42010W        W15078  41.470  32.846  14.340
42011W        W15079   1.939   9.271  13.510
42012W        W15080   1.060  40.534  13.627
42013W        W15081  22.140  28.215  14.963
42014W        W15082   6.805  29.456   2.920
42015W        W15083   9.505  29.162   3.816
42016W        W15084  32.098  23.219   4.254
42017W        W15085   0.594  44.115   4.388
42018W        W15086  39.849   6.906   4.705
42019W        W15087  42.046  39.491   4.282
42020W        W15088  40.917  15.364  13.935
42021W        W15089   3.752  40.547   1.877
42022W        W15090   6.754   9.740   2.721
42023W        W15091  43.784  19.980   0.031
42024W        W15092   8.114  30.533   2.783
42025W        W15093  36.360  22.240   4.246
42026W        W15094  24.062  19.780   3.701
42027W        W15095  16.331  35.277   0.145
42028W        W15096  10.548  20.384   0.082
42029W        W15097  40.055   6.248   3.326
42030W        W15098  33.645   4.487   1.456
42031W        W15099  26.439  27.528  14.738
42032W        W15100  28.601  37.481   4.694
42033W        W15101  25.119  35.760   0.308
42034W        W15102  17.999  41.962  14.268
42035W        W15103  11.412  24.995  14.369
42036W        W15104  41.266   1.678   1.345
42037W        W15105  11.011  43.766  12.949
42038W        W15106  40.491  12.159  11.009
42039W        W15107   7.897  39.506   4.989
42040W        W15108  37.045  42.284  14.297
42041W        W15109   4.775  31.147  13.344
42042W        W15110  26.150  44.561   1.347
42043W        W15111  19.047  12.380  12.500
42044W        W15112  35.603  32.092   5.018
42045W        W15113  38.351  22.065   2.703
42046W        W15114  32.906  31.949   1.159
42047W        W15115  37.299  13.544   3.911
42048W        W15116   8.180  36.394   1.748
42049W        W15117  35.132  18.504   2.777
42050W        W15118  10.517   0.037   0.007
42051W        W15119  21.531  11.141   3.410
42052W        W15120  21.449  28.545  14.872
42053W        W15121  20.283  18.569  14.116
42054W        W15122  13.306  31.363  10.680
42055W        W15123  18.255  17.443  11.605
42056W        W15124  29.214  33.426   4.291
42057W        W15125  21.103  18.052  13.423
42058W        W15126  40.342   0.771   0.735
42059W        W15127  26.712  33.782   4.419
42060W        W15128  27.587  17.330   3.692
42061W        W15129  25.940  20.636  13.377
42062W        W15130  11.953  29.859  14.387
42063W        W15131  41.476  41.479  13.554
42064W        W15132   7.843  27.787   2.209
42065W        W15133  13.063  27.367  12.154
42066W        W15134  14.920  21.274  14.846
42067W        W15135  17.999   9.254  12.859
42068W        W15136  36.588  41.557   9.593
42069W        W15137  15.923  33.231   4.189
42070W        W15138  41.812  14.325  14.847
42071W        W15139  15.589  15.394  13.564
42072W        W15140  39.255  41.518   2.781
42073W        W15141  28.224  14.441  12.831
42074W        W15142  32.776  30.531   2.780
42075W        W15143  36.040  19.993   4.872
42076W        W15144  39.277  41.864  13.444
42077W        W15145  40.475  32.355   3.385
42078W        W15146  31.710  16.369  14.039
42079W        W15147  19.737  26.468  10.636
42080W        W15148  24.511  19.041  10.961
42081W        W15149   3.266  23.731  14.879
42082W        W15150  39.934  14.689   4.837
42083W        W15151  18.632  36.173   3.973
42084W        W15152   2.350  22.078   2.181
42085W        W15153  14.071  36.051   3.830
42086W        W15154  40.869  32.219   3.082
42087W        W15155  16.604  16.760   2.180
42088W        W15156  11.894  35.593  14.879
42089W        W15157  28.605  34.096   2.759
42090W        W15158  17.228  20.325   3.751
42091W        W15159  44.806  16.182   4.007
42092W        W15160  28.368  27.000   1.848
42093W        W15161  22.539  36.858  13.507
42094W        W15162  39.935   4.476  10.747
42095W        W15163  29.404  29.384  13.809
42096W        W15164  33.890  18.690   2.476
42097W        W15165  40.984  10.191  11.198
42098W        W15166   3.442  44.445  10.444
42099W        W15167  27.791  22.258   3.727
42100W        W15168   2.027  16.754   2.669
42101W        W15169  19.139   1.396  11.566
42102W        W15170  36.799   1.292   4.357
42103W        W15171  32.854  22.689  14.101
42104W        W15172  18.175  13.761   4.269
42105W        W15173  13.865  44.009  14.499
42106W        W15174  13.742   6.203  11.613
42107W        W15175  28.048  11.653  11.636
42108W        W15176  40.067  19.389   3.143
42109W        W15177  20.388   7.559  11.150
42110W        W15178   6.745  12.097  12.070
42111W        W15179  19.261  25.730   3.208
42112W        W15180  34.728  23.989  13.861
42113W        W15181   5.442  35.394   4.220
42114W        W15182  21.622  42.848   3.318
42115W        W15183  13.188  27.560  11.136
42116W        W15184  20.627  10.889   3.886
42117W        W15185  42.690  33.067   0.723
42118W        W15186  23.518   4.312   0.710
42119W        W15187  21.013   5.858  11.576
42120W        W15188   7.756  41.795  12.590
42121W        W15189   5.139  20.192  12.678
42122W        W15190  40.079  42.782   0.356
42123W        W15191  26.102  29.105   4.511
42124W        W15192   0.923  19.577  14.337
42125W        W15193  44.393   4.879  13.594
42126W        W15194  18.395  40.261   0.875
42127W        W15195  32.684  32.582  13.955
42128W        W15196  41.773  23.310  12.872
42129W        W15197   4.779  37.567  13.991
42130W        W15198  11.239   4.464   0.897
42131W        W15199  10.647  29.950  12.106
42132W        W15200   2.954  10.962   3.948
42133W        W15201  34.659   5.599  14.975
42134W        W15202  35.119  42.448   2.739
42135W        W15203   0.327  35.355   3.554
42136W        W15204  23.804  35.932   4.558
42137W        W15205  39.133  44.410   0.207
42138W        W15206  18.827   1.002  14.921
42139W        W15207  10.145  23.345   5.019
42140W        W15208   5.478  19.113  12.847
42141W        W15209  42.827  14.323   3.272
42142W        W15210  19.246  30.993   3.582
42143W        W15211  29.349  30.780  14.425
42144W        W15212  32.275  12.852  13.998
42145W        W15213  21.302  19.710  12.026
42146W        W15214  38.558   4.026  10.755
42147W        W15215  31.163  18.176  10.632
42148W        W15216  32.473  15.233   4.451
42149W        W15217  23.521   4.744  10.195
42150W        W15218  10.626  31.867  13.777
42151W        W15219  10.969  12.166   4.644
42152W        W15220   8.290  10.904   1.876
42153W        W15221  28.248  14.814   3.755
42154W        W15222  21.242   9.422  10.947
42155W        W15223  12.242  11.897  10.825
42156W        W15224  19.191   5.778  11.897
42157W        W15225  43.560   9.555  13.445
42158W        W15226  29.526  31.914   4.559
42159W        W15227  13.684  32.203  11.532
42160W        W15228  17.655  12.151  10.615
42161W        W15229  17.005   2.713   2.610
42162W        W15230   5.249  21.948  13.416
42163W        W15231  29.825  37.884   3.301
42164W        W15232  15.534  40.442  10.653
42165W        W15233  21.359  29.079  13.079
42166W        W15234  13.832  31.822   5.023
42167W        W15235  36.389  41.803   4.326
42168W        W15236   0.445   9.706   3.668
42169W        W15237   6.140  11.663  11.028
42170W        W15238   0.662  43.817  10.219
42171W        W15239  39.295  13.624  12.421
42172W        W15240  28.235   5.301   1.753
42173W        W15241  17.689   1.252  11.928
42174W        W15242   1.298  17.439  14.962
42175W        W15243  11.790  15.674  11.099
42176W        W15244  21.609  26.977  13.126
42177W        W15245   0.379   1.979  10.439
42178W        W15246  27.487  10.861  12.585
42179W        W15247  36.926  41.459   2.294
42180W        W15248  11.942  37.597   4.626
42181W        W15249   7.718  19.104  13.513
42182W        W15250  17.127  44.875   0.465
42183W        W15251  29.590  18.805  11.430
42184W        W15252  17.294  29.453  12.612
42185W        W15253   0.904  27.558   1.469
42186W        W15254  25.161   7.118  11.609
42187W        W15255  43.570  17.168   3.196
42188W        W15256  42.756  16.098   2.353
42189W        W15257  40.542  16.627   3.348
42190W        W15258  33.903  39.492  13.482
42191W        W15259  26.782   0.812  11.117
42192W        W15260  38.576  13.796  12.888
42193W        W15261   2.955   6.510  12.962
42194W        W15262  43.387  24.681   4.412
42195W        W15263  12.787  40.646   2.241
42196W        W15264   7.219   7.435   0.489
42197W        W15265  12.361  22.265   2.243
42198W        W15266   4.544  33.108   0.720
42199W        W15267  27.234   9.952  14.961
42200W        W15268  15.631  25.837  13.912
42201W        W15269  18.874   1.601   0.718
42202W        W15270  25.646  11.622   0.323
42203W        W15271  19.196  11.871  13.958
42204W        W15272  38.473  33.364  13.437
42205W        W15273  27.398  21.985   1.294
42206W        W15274  25.563  29.639  11.679
42207W        W15275   2.811   7.612  14.980
42208W        W15276  26.443   5.350   0.267
42209W        W15277  20.628  26.956   1.455
42210W        W15278  26.067  22.800   3.160
42211W        W15279  35.242  14.137   1.818
42212W        W15280  39.110  15.546  12.030
42213W        W15281  19.213  23.039   1.327
42214W        W15282   1.859  44.879  13.089
42215W        W15283   7.459   0.963   1.758
42216W        W15284  17.856  17.461  14.155
42217W        W15285  40.355  12.895   2.431
42218W        W15286  13.009   3.384  12.133
42219W        W15287  26.098  42.544   2.816
42220W        W15288  37.392  37.643   1.574
42221W        W15289  35.596  37.359  11.593
42222W        W15290  27.491  14.646   3.312
42223W        W15291  35.062  24.902  13.507
42224W        W15292  20.982  15.023  14.696
42225W        W15293  18.765  30.937   3.712
42226W        W15294  27.514  31.933   3.281
42227W        W15295   3.889  20.479  13.042
42228W        W15296  18.325  26.219   3.199
42229W        W15297  21.072  35.024   1.199
42230W        W15298  37.764  29.368   3.425
42231W        W15299  40.291  36.304  12.923
42232W        W15300  13.029  43.341   3.212
42233W        W15301  27.873   1.176  13.017
42234W        W15302  43.831  26.726  14.433
42235W        W15303  22.559   6.221  10.734
42236W        W15304  36.539   0.810  10.688
42237W        W15305  14.753  14.544  11.576
42238W        W15306  27.113  35.853  12.043
42239W        W15307   1.698   5.103   0.799
42240W        W15308  10.747  23.502   4.177
42241W        W15309  11.637  29.031   4.669
42242W        W15310  42.822  43.631  11.025
42243W        W15311  38.854  25.154   0.266
42244W        W15312   8.827   8.770   1.477
42245W        W15313  37.782   6.320  14.945
42246W        W15314  29.018  30.201  13.841
42247W        W15315  22.109  36.108  14.429
42248W        W15316  25.361  13.190  11.169
42249W        W15317  34.920  35.112   4.602
42250W        W15318  17.825  19.082  12.231
42251W        W15319  35.362   0.362   0.286
42252W        W15320  35.662  39.120  13.595
42253W        W15321  42.244  24.293   1.399
42254W        W15322   3.233   7.750   2.246
42255W        W15323  27.727  12.356   3.784
42256W        W15324   7.366  40.776  10.264
42257W        W15325  22.024  43.598   1.886
42258W        W15326   7.370   8.289  13.113
42259W        W15327  15.606  44.703   3.656
42260W        W15328  11.397  29.232   1.165
42261W        W15329  22.908  27.216   4.516
42262W        W15330  40.178   9.881   4.456
42263W        W15331  31.105  41.232  10.022
42264W        W15332  30.235  28.594  11.670
42265W        W15333  33.194   3.011  11.949
42266W        W15334  12.991  19.349   9.763
42267W        W15335   0.397  32.575   2.335
42268W        W15336   6.253  35.151   0.983
42269W        W15337  31.544  24.272   1.876
42270W        W15338  21.468  15.918   4.628
42271W        W15339  36.685  29.541  11.750
42272W        W15340  40.127  31.985  14.904
42273W        W15341   7.279  30.152  12.421
42274W        W15342  42.307  44.781   4.881
42275W        W15343  38.103  34.443   4.111
42276W        W15344  34.941  33.543  13.944
42277W        W15345  43.165  41.062  11.977
42278W        W15346   8.455  42.956  13.280
42279W        W15347  32.810  36.088  14.834
42280W        W15348  19.039  20.794  13.960
42281W        W15349  29.640  29.220  12.021
42282W        W15350  21.094  24.195   5.459
42283W        W15351  13.724  42.759   0.956
42284W        W15352  15.806  20.257   1.674
42285W        W15353   7.744  13.001  10.173
42286W        W15354   6.878  37.553   0.109
42287W        W15355  29.227  10.169   1.855
42288W        W15356  24.613  20.760   4.203
42289W        W15357  22.042  40.332  10.716
42290W        W15358  36.001  34.578   2.454
42291W        W15359   8.238   2.285  13.411
42292W        W15360  15.916  22.190  13.052
42293W        W15361  23.553  38.006  10.075
42294W        W15362   3.956  23.757  11.980
42295W        W15363  19.881  44.221  10.704
42296W        W15364  38.496  13.581  13.793
42297W        W15365  27.227  32.611  12.406
42298W        W15366  19.648   9.299   1.834
42299W        W15367  26.055  10.159   1.963
42300W        W15368  34.463  39.813   3.636
42301W        W15369   8.302  21.521   3.635
42302W        W15370  39.327  37.376  14.033
42303W        W15371  32.969  32.393  11.588
42304W        W15372  24.666  19.944  11.105
42305W        W15373  26.101  12.781   3.802
42306W        W15374  15.717  29.528  13.008
42307W        W15375  34.183  27.649   3.543
42308W        W15376   3.223  32.510   0.293
42309W        W15377  35.851  39.371   3.432
42310W        W15378  36.280   9.159  13.821
42311W        W15379  23.505  24.591  11.356
42312W        W15380  11.089  17.666  12.550
42313W        W15381  17.115  36.395   1.326
42314W        W15382   4.171  25.175   1.767
42315W        W15383  28.898  35.543   1.336
42316W        W15384  35.367  15.241   3.759
42317W        W15385  31.372  30.855   4.669
42318W        W15386   2.689   5.504   3.638
42319W        W15387   2.411  39.898  11.389
42320W        W15388  23.045  44.370  13.434
42321W        W15389   5.125  17.695   2.847
42322W        W15390  23.845   5.426   0.496
42323W        W15391  36.431  40.860   0.282
42324W        W15392   0.031  17.523  14.565
42325W        W15393  34.952  33.627   0.426
42326W        W15394  43.980  23.201  10.610
42327W        W15395  41.601  29.606   1.293
42328W        W15396  41.266  37.796  12.515
42329W        W15397  30.843  38.161  11.831
42330W        W15398  27.190  26.494   3.584
42331W        W15399   1.432  14.541   0.949
42332W        W15400  33.646   8.680  11.930
42333W        W15401  26.041  33.062  11.954
42334W        W15402   8.661  34.394   1.658
42335W        W15403  37.448  12.947   1.808
42336W        W15404  30.491   7.635   3.204
42337W        W15405  25.955  21.201  13.894
42338W        W15406  14.672  41.477  13.264
42339W        W15407  24.026  19.142  14.963
42340W        W15408  38.821  36.573   1.764
42341W        W15409  18.092  16.828   2.286
42342W        W15410  30.028  39.050   2.771
42343W        W15411  28.425  31.895   2.389
42344W        W15412   8.186  12.328   4.596
42345W        W15413   5.916  20.210  12.368
42346W        W15414   6.184  23.836   5.003
42347W        W15415  31.543  22.336  11.725
42348W        W15416  32.184   3.763  13.174
42349W        W15417  39.389  26.749   2.159
42350W        W15418  42.396  22.601   4.636
42351W        W15419  31.235  25.985   1.558
42352W        W15420  22.958  41.463   4.560
42353W        W15421  34.442  25.101   0.045
42354W        W15422  11.868  29.207   0.483
42355W        W15423  19.285  44.729  13.897
42356W        W15424  29.147  15.773  14.093
42357W        W15425  32.920  20.012   1.676
42358W        W15426  12.940   1.724  11.591
42359W        W15427  15.125  39.298   2.614
42360W        W15428  24.465  16.562  13.487
42361W        W15429  17.651  28.974  13.903
42362W        W15430  16.737  12.595   5.143
42363W        W15431  15.183  10.156  10.924
42364W        W15432  29.101  41.972  14.510
42365W        W15433  28.692  10.474  13.823
42366W        W15434  22.500   7.120   1.220
42367W        W15435  41.563  10.330   3.667
42368W        W15436   8.866   2.369  12.601
42369W        W15437  30.480  29.711  12.034
42370W        W15438  18.297   2.694  14.853
42371W        W15439  29.212   2.571  13.995
42372W        W15440  13.307  10.262   2.260
42373W        W15441   7.011  42.373  14.182
42374W        W15442   3.835  32.792   2.289
42375W        W15443  13.701  13.676   4.245
42376W        W15444   2.325  40.147  12.389
42377W        W15445  14.492  34.441  12.498
42378W        W15446  44.505  19.149   0.311
42379W        W15447  22.656  22.728  12.921
42380W        W15448  19.500  36.955   4.664
42381W        W15449   5.757  40.345   0.846
42382W        W15450  41.477   8.862  11.103
42383W        W15451   9.227   0.616   3.267
42384W        W15452  35.035  26.538   3.299
42385W        W15453  42.870  30.169   3.247
42386W        W15454  28.857  42.445   3.798
42387W        W15455   8.666  12.190   4.625
42388W        W15456  11.946   8.400  14.778
42389W        W15457  26.935  44.502  11.563
42390W        W15458   0.223   7.757   2.661
42391W        W15459   9.811  17.140  13.268
42392W        W15460  23.746  39.676   4.832
42393W        W15461  13.605   1.709   4.259
42394W        W15462  26.260   7.695  14.775
42395W        W15463  16.325  38.066   4.065
42396W        W15464  31.545  38.365  13.982
42397W        W15465  34.510  32.687  11.505
42398W        W15466  25.110  25.947   1.458
42399W        W15467  34.564  30.942   0.679
42400W        W15468  18.579  24.774  12.673
42401W        W15469   0.997  44.274  10.150
42402W        W15470  41.563   9.130  11.564
42403W        W15471  34.970   5.673   1.334
42404W        W15472   6.140  22.771   2.388
42405W        W15473  14.847  37.040  12.998
42406W        W15474  27.574  36.861  13.555
42407W        W15475  37.032  31.150   1.297
42408W        W15476  19.048  17.111  11.155
42409W        W15477  28.942  26.492   2.395
42410W        W15478  40.620  21.190   4.589
42411W        W15479  34.152  13.653  12.818
42412W        W15480  38.219  15.123   4.578
42413W        W15481  30.057  32.362  10.723
42414W        W15482  29.956  38.783  12.391
42415W        W15483  35.623  31.461  11.904
42416W        W15484   5.275  40.229   1.748
42417W        W15485  32.141  19.018   4.100
42418W        W15486  26.104   9.957  13.593
42419W        W15487  29.180  35.396   2.719
42420W        W15488   1.440  12.730   0.722
42421W        W15489  10.708  26.492   0.974
42422W        W15490  20.463  20.671   2.271
42423W        W15491  44.355  13.658   4.763
42424W        W15492   1.410  27.689  14.401
42425W        W15493  11.131  40.542   2.659
42426W        W15494  38.757  33.500  13.862
42427W        W15495  17.339  41.020  14.026
42428W        W15496  35.853   9.367   5.172
42429W        W15497  16.944  12.044  11.619
42430W        W15498  11.855   1.267  11.071
42431W        W15499  17.076  41.370  11.977
42432W        W15500   1.323  34.515   1.997
42433W        W15501  32.626   5.668   2.878
42434W        W15502  19.196  27.873  14.907
42435W        W15503  27.116  42.980  12.952
42436W        W15504  39.788  15.006  13.723
42437W        W15505  16.999  27.196   3.140
42438W        W15506   1.261  11.717   1.188
42439W        W15507   4.208  33.374  10.276
42440W        W15508  30.396  13.233   2.801
42441W        W15509  13.188  39.478  13.045
42442W        W15510  10.392  43.475  13.478
42443W        W15511  41.834   9.124   1.629
42444W        W15512  32.936  35.156   0.256
42445W        W15513  27.666  43.717   2.452
42446W        W15514  23.073   3.608   0.271
42447W        W15515  37.758   3.698   0.275
42448W        W15516  32.113  13.102  14.745
42449W        W15517  29.107  26.704  12.932
42450W        W15518   3.327  15.099  11.533
42451W        W15519  34.881   0.018   3.207
42452W        W15520  13.707  15.437  10.564
42453W        W15521   2.871  24.829   3.766
42454W        W15522  24.070  31.061   2.542
42455W        W15523  42.403  16.782   0.630
42456W        W15524  31.337  28.552   3.262
42457W        W15525  14.772  44.880  12.494
42458W        W15526   2.213   1.744   5.205
42459W        W15527  34.667  40.695  14.595
42460W        W15528   6.585   1.773  12.084
42461W        W15529  35.990   4.015  12.396
42462W        W15530   6.907  19.123  13.997
42463W        W15531  11.681   3.519   5.067
42464W        W15532  31.306  14.185   0.715
42465W        W15533  40.020   4.746   1.926
42466W        W15534   6.207  21.826  11.160
42467W        W15535  31.651  11.235   0.770
42468W        W15536  14.613  10.332   4.202
42469W        W15537  35.629   2.896   3.660
42470W        W15538  34.491  33.803   0.253
42471W        W15539  14.198  36.921   0.422
42472W        W15540  25.404  36.496   4.239
42473W        W15541  23.568   2.262  14.201
42474W        W15542  14.066  40.912  14.309
42475W        W15543   5.183  36.143   3.886
42476W        W15544  41.365  41.426   2.009
42477W        W15545   3.239  30.789   0.755
42478W        W15546  30.660   7.509   4.558
42479W        W15547  12.191  25.092   3.900
42480W        W15548  11.146  31.620   2.210
42481W        W15549  44.726  14.967  11.588
42482W        W15550  15.125  14.599  13.601
42483W        W15551   2.986  41.043   0.307
42484W        W15552  19.293  24.496   4.136
42485W        W15553  20.004   7.926  12.413
42486W        W15554   5.300  13.850   1.381
42487W        W15555  26.672  44.094  14.815
42488W        W15556   3.672  24.480  11.098
42489W        W15557  33.364   5.232  11.202
42490W        W15558  37.422  24.699  12.449
42491W        W15559  11.299  39.168   2.749
42492W        W15560  19.294   0.216  14.569
42493W        W15561   2.978  15.287  12.135
42494W        W15562  26.805  23.644  13.154
42495W        W15563  42.549  37.840  12.469
42496W        W15564   5.683  29.016   4.726
42497W        W15565   1.006  28.761  10.966
42498W        W15566   3.702   1.448   1.466
42499W        W15567  21.715  15.720  13.814
42500W        W15568  39.753   6.268  11.236
42501W        W15569  44.826  11.326   2.747
42502W        W15570  23.967  39.955  14.348
42503W        W15571  24.452  20.557  14.441
42504W        W15572  18.320   0.755  10.804
42505W        W15573   5.146  38.429   1.861
42506W        W15574  23.136  13.386  14.007
42507W        W15575   1.638  33.871   1.464
42508W        W15576  15.416  20.342   0.875
42509W        W15577  43.059  27.051   4.064
42510W        W15578   2.558  32.097   1.789
42511W        W15579  12.286  11.655   3.829
42512W        W15580  16.401  31.628  13.601
42513W        W15581  14.238  41.502   2.981
42514W        W15582  23.701  10.907  12.491
42515W        W15583  21.697  15.170  10.425
42516W        W15584  39.251  34.027  11.983
42517W        W15585  27.643  11.197  10.297
42518W        W15586  25.024  20.547   0.713
42519W        W15587  14.624   0.989   4.333
42520W        W15588   9.813  41.484   0.971
42521W        W15589  11.235  44.513   2.756
42522W        W15590  14.838  10.872  11.301
42523W        W15591  29.410  15.556  14.929
42524W        W15592  15.550  23.837  12.126
42525W        W15593  41.650  13.378   4.999
42526W        W15594   1.387  41.003  13.082
42527W        W15595  27.569   9.345   0.955
42528W        W15596   0.146  33.339   4.737
42529W        W15597  23.604   4.792   3.844
42530W        W15598  35.316  15.712  12.923
42531W        W15599  25.190   7.440   0.860
42532W        W15600   5.318  22.877   2.759
42533W        W15601  34.385  27.044   4.136
42534W        W15602   4.708  43.072  14.342
42535W        W15603  34.403  18.142   1.902
42536W        W15604  39.417  25.760  11.461
42537W        W15605  11.640   4.829   4.487
42538W        W15606  26.499  35.159   3.994
42539W        W15607   3.648  40.482   4.153
42540W        W15608  18.402  33.027   3.115
42541W        W15609  11.157  28.383  13.345
42542W        W15610  11.628  25.787  14.071
42543W        W15611   7.788  15.659   4.986
42544W        W15612  36.345   4.030  13.507
42545W        W15613   2.243  25.045   5.022
42546W        W15614  10.247  11.129   0.103
42547W        W15615  17.093  32.038   1.381
42548W        W15616  13.170   1.412   0.714
42549W        W15617   3.916  11.222  11.442
42550W        W15618  36.366  27.713   1.650
42551W        W15619  12.571  13.417   2.826
42552W        W15620  17.220  37.983   3.604
42553W        W15621  12.696  32.436   4.595
42554W        W15622   2.395  12.880   0.487
42555W        W15623  15.172  26.544   4.162
42556W        W15624  19.968  42.741  12.574
42557W        W15625  31.368   0.931   1.256
42558W        W15626  11.915  37.459  10.599
42559W        W15627  44.048   5.003  12.291
42560W        W15628  18.728  30.637   2.366
42561W        W15629   0.777  15.874   9.933
42562W        W15630  42.306  35.396   1.724
42563W        W15631   4.479   0.535  12.919
42564W        W15632  27.400  43.292  10.715
42565W        W15633  11.827  42.493   4.695
42566W        W15634  34.063  27.725   2.630
42567W        W15635  29.480  26.942   0.331
42568W        W15636   0.973  26.462  14.534
42569W        W15637  42.324  12.506  14.280
42570W        W15638   6.335   4.554  14.990
42571W        W15639  19.651  35.291   0.800
42572W        W15640  26.057  22.093  13.740
42573W        W15641   6.910  39.851   4.859
42574W        W15642  42.282   2.276   3.303
42575W        W15643  42.342  35.290  12.815
42576W        W15644  38.707  44.907   1.712
42577W        W15645  29.454  42.544  14.354
42578W        W15646  11.767  25.150  13.114
42579W        W15647  21.435  19.255   1.342
42580W        W15648   8.336  29.023  14.335
42581W        W15649   1.904   2.893   2.787
42582W        W15650  28.522   2.732   4.670
42583W        W15651  30.165  28.892   2.728
42584W        W15652  33.292  38.932   2.976
42585W        W15653  11.851  26.655  11.645
42586W        W15654   0.466  32.053   2.379
42587W        W15655   7.627   8.907  12.978
42588W        W15656   0.358  15.706   0.658
42589W        W15657  25.432   8.855   0.337
42590W        W15658  36.530  35.847  13.316
42591W        W15659  16.529   5.137  12.832
42592W        W15660   4.973  20.138  13.546
42593W        W15661  15.313  31.477  14.982
42594W        W15662  33.404  23.683  12.438
42595W        W15663  28.284  36.097   0.897
42596W        W15664  40.573   8.612   5.039
42597W        W15665  18.361  15.992  11.636
42598W        W15666  17.124  16.162   0.876
42599W        W15667  38.650  22.942   3.989
42600W        W15668  25.510  33.379  11.131
42601W        W15669  17.856  35.362  14.446
42602W        W15670  16.698  13.651   0.844
42603W        W15671  34.047  35.538  10.446
42604W        W15672  31.067  16.898  10.968
42605W        W15673   0.340  33.080   1.367
42606W        W15674  35.613  18.682   0.940
42607W        W15675  41.780  38.290  11.885
42608W        W15676   2.739  24.941   2.371
42609W        W15677  29.618  29.981   0.403
42610W        W15678  41.933  31.147   1.633
42611W        W15679  36.937  18.826  11.655
42612W        W15680  43.789  14.139   1.312
42613W        W15681  40.836   4.215   3.073
42614W        W15682  24.946   2.757   1.957
42615W        W15683   4.426  35.152   4.075
42616W        W15684  39.397  43.484   4.378
42617W        W15685  34.368  44.471   4.291
42618W        W15686  12.841  18.985   1.378
42619W        W15687  24.470  29.390   2.782
42620W        W15688  12.051   4.772  13.442
42621W        W15689  21.577  35.428  12.880
42622W        W15690  29.645  43.300  12.532
42623W        W15691  28.151  30.150   0.524
42624W        W15692   1.636  18.780   4.116
42625W        W15693  27.951  39.665   0.352
42626W        W15694  37.453  30.605  13.323
42627W        W15695   8.257  35.395   2.881
42628W        W15696  34.555  27.040   4.613
42629W        W15697   6.797   6.453   1.600
42630W        W15698  34.785  13.233   4.542
42631W        W15699  29.472  41.389   2.458
42632W        W15700   9.127  10.645   4.159
42633W        W15701   1.483  19.094  11.517
42634W        W15702  15.009  16.141   1.056
42635W        W15703   6.405  14.981  13.387
42636W        W15704  36.657  39.275  13.503
42637W        W15705  43.102  10.881  13.153
42638W        W15706   6.911   4.997   1.210
42639W        W15707  15.623  10.835   0.261
42640W        W15708  43.045  27.379   2.840
42641W        W15709  43.922  33.114   3.660
42642W        W15710  24.662  29.191  12.556
42643W        W15711  17.838  43.861   3.188
42644W        W15712  22.245   4.648  11.126
42645W        W15713  22.494   2.259   4.535
42646W        W15714  40.079  36.982  12.815
42647W        W15715  25.460   6.885  10.893
42648W        W15716  16.796  20.554   2.645
42649W        W15717  35.576  17.749  12.874
42650W        W15718  27.581  16.302  12.006
42651W        W15719  13.258   5.456   1.176
42652W        W15720  25.778  18.886  13.953
42653W        W15721   2.286   5.565  11.896
42654W        W15722  42.485   6.683  13.115
42655W        W15723  26.021  31.801  12.176
42656W        W15724   2.574  37.314   2.501
42657W        W15725  40.686  21.885  11.197
42658W        W15726  24.158   0.079   0.512
42659W        W15727   6.622  17.203   1.922
42660W        W15728  25.764  43.424   0.318
42661W        W15729  12.048  15.052   1.872
42662W        W15730   1.959   1.323   4.668
42663W        W15731   8.987   0.763   0.886
42664W        W15732  11.689   8.196  13.805
42665W        W15733   6.697  13.324   2.920
42666W        W15734  34.580  15.811  13.475
42667W        W15735  20.453  43.442  10.737
42668W        W15736   9.787  26.443  14.945
42669W        W15737  20.145  32.546  13.031
42670W        W15738  22.704  12.760  10.734
42671W        W15739   2.558   4.020   0.934
42672W        W15740  10.418   6.733  10.597
42673W        W15741  36.416  26.041  11.693
42674W        W15742  42.202  37.451  12.425
42675W        W15743   1.704  23.653  13.824
42676W        W15744  36.968  31.529   2.270
42677W        W15745  35.659   0.800  10.569
42678W        W15746  24.659  11.268  14.491
42679W        W15747  20.756   4.765   1.454
42680W        W15748  31.929  22.232  10.551
42681W        W15749  34.968  37.884   0.106
42682W        W15750  33.936  14.150  12.881
42683W        W15751   0.793  40.450   0.106
42684W        W15752   5.422  17.269  12.877
42685W        W15753  27.592  33.919   0.726
42686W        W15754  21.675  42.332   0.423
42687W        W15755   7.044  13.533  14.967
42688W        W15756  42.205   7.239  12.410
42689W        W15757  18.420  40.893   3.732
42690W        W15758  19.506  44.315   3.389
42691W        W15759  15.464  34.999  13.424
42692W        W15760  32.664   9.334  13.321
42693W        W15761   8.428  22.552   3.853
42694W        W15762  18.023   5.297  11.911
42695W        W15763  44.423  30.178   1.388
42696W        W15764  40.749  30.505   1.729
42697W        W15765  26.944  36.567  11.556
42698W        W15766  11.111  10.763  12.297
42699W        W15767  38.411  26.171   4.103
42700W        W15768  30.893  11.361  10.716
42701W        W15769  22.035  29.943  13.342
42702W        W15770  20.049  25.097   2.544
42703W        W15771  38.606   9.846  11.128
42704W        W15772  30.063  44.749  11.315
42705W        W15773   9.114  19.345   0.196
42706W        W15774  13.052  25.632  11.577
42707W        W15775  15.291  24.643   4.589
42708W        W15776  42.833   0.020   4.650
42709W        W15777   4.902   1.274   0.602
42710W        W15778   0.827  40.501   1.492
42711W        W15779  27.092  29.938   2.461
42712W        W15780  36.458  35.643   2.958
42713W        W15781   2.417  25.560  10.603
42714W        W15782   3.459  18.959  11.585
42715W        W15783   0.874   3.560  12.060
42716W        W15784  20.812  20.493   1.474
42717W        W15785  14.747  31.952  10.212
42718W        W15786   5.694   1.775   3.720
42719W        W15787   4.524   0.355   2.208
42720W        W15788  35.458  34.405   3.291
42721W        W15789  27.989  11.880  12.085
42722W        W15790  39.465  15.810   3.013
42723W        W15791  31.195   8.812  14.825
42724W        W15792   1.991  36.875   4.394
42725W        W15793  19.031  42.817  14.595
42726W        W15794  43.913  24.946   1.934
42727W        W15795  21.593  26.583   4.575
42728W        W15796   2.326  40.349   3.738
42729W        W15797  32.155  12.855   4.137
42730W        W15798  38.125  32.779  14.239
42731W        W15799   6.463  18.304   4.080
42732W        W15800  33.952  15.513   4.901
42733W        W15801  26.199  15.519  14.527
42734W        W15802  40.559  44.892  11.166
42735W        W15803  37.656  32.410   1.401
42736W        W15804  29.408  39.495   0.257
42737W        W15805   1.041  19.247   2.651
42738W        W15806  33.909  33.662   1.846
42739W        W15807  12.083  27.109  10.676
42740W        W15808  27.215  10.122   4.097
42741W        W15809  26.318   8.596  11.300
42742W        W15810  29.577  28.938  14.027
42743W        W15811  44.867  27.626  14.443
42744W        W15812  43.757  29.538   3.807
42745W        W15813  23.088   9.443  11.199
42746W        W15814  34.917  20.605   3.653
42747W        W15815  33.470  38.290  11.989
42748W        W15816  43.758  19.262   3.720
42749W        W15817  31.856  29.559  10.615
42750W        W15818  36.512  38.892   1.270
42751W        W15819  34.924   1.404   1.275
42752W        W15820  20.929  15.960   1.430
42753W        W15821   9.369  22.808  11.038
42754W        W15822   2.130  29.617  10.419
42755W        W15823  28.021  25.990  13.628
42756W        W15824  15.343  29.947   4.159
42757W        W15825  13.860  40.969   4.702
42758W        W15826   4.001  30.955  10.923
42759W        W15827  23.763  16.262  13.956
42760W        W15828  12.781  28.226  13.010
42761W        W15829  42.273   1.274   1.535
42762W        W15830  22.259  37.827   4.363
42763W        W15831  12.574  43.255   0.819
42764W        W15832  14.640  19.872   1.214
42765W        W15833  30.453   8.259  11.779
42766W        W15834   7.251  44.246  13.881
42767W        W15835  25.566  39.728   3.503
42768W        W15836  39.780   2.173  12.649
42769W        W15837  30.574  43.267   4.849
42770W        W15838  29.756  39.539   1.227
42771W        W15839  35.918  14.218  13.812
42772W        W15840   9.648  30.611   1.697
42773W        W15841  18.104   1.963   1.309
42774W        W15842  35.825  31.950  11.943
42775W        W15843   0.408  31.622   1.064
42776W        W15844  32.050   2.715   3.127
42777W        W15845   4.956   1.806  14.605
42778W        W15846   9.098  21.954   3.168
42779W        W15847  41.912  25.508   4.750
42780W        W15848   9.834  28.964   4.767
42781W        W15849  24.483   8.375  12.557
42782W        W15850  37.343  10.259   4.225
42783W        W15851   1.970  44.364  12.956
42784W        W15852  12.370   7.301   0.460
42785W        W15853  24.382   1.222   2.644
42786W        W15854  24.059  30.056  12.451
42787W        W15855   7.082  32.081  10.731
42788W        W15856  20.165   8.202   4.620
42789W        W15857  19.520  44.376   4.919
42790W        W15858   4.382  17.615  13.004
42791W        W15859  28.813  23.541  14.028
42792W        W15860   9.352  21.968  13.025
42793W        W15861   0.714  12.867  14.549
42794W        W15862  35.107  15.710   4.989
42795W        W15863   9.781  13.070  12.439
42796W        W15864  20.462  32.078  12.067
42797W        W15865  12.597  41.327   4.504
42798W        W15866  29.869   6.898  13.840
42799W        W15867   9.765  28.570  13.967
42800W        W15868   2.923  14.728   0.898
42801W        W15869  40.283   3.721   1.266
42802W        W15870  19.268  20.599  13.339
42803W        W15871  15.735  35.466   3.674
42804W        W15872  12.699  26.080   0.441
42805W        W15873  14.904  25.474  13.307
42806W        W15874  24.026   1.788  13.802
42807W        W15875  39.430  14.714   0.072
42808W        W15876  14.835   6.135  12.853
42809W        W15877  26.810   9.097  14.307
42810W        W15878  33.929   4.411  14.246
42811W        W15879  14.544  28.973  14.446
42812W        W15880  27.045  44.727   4.244
42813W        W15881  26.242  13.385   1.204
42814W        W15882   5.642  21.001  14.345
42815W        W15883   6.317  17.233   0.102
42816W        W15884  37.516   9.460   0.385
42817W        W15885   1.964  13.628  12.645
42818W        W15886   4.962  19.022   2.789
42819W        W15887  44.935  11.865   2.703
42820W        W15888  11.535  32.372   4.857
42821W        W15889   3.263  43.340  12.902
42822W        W15890  30.056  27.866  12.893
42823W        W15891  14.856  18.761  13.430
42824W        W15892  29.503  30.351   4.574
42825W        W15893   2.850  12.908  13.577
42826W        W15894   8.815  12.292   4.132
42827W        W15895  38.884   2.929  12.480
42828W        W15896   6.227  38.012  12.907
42829W        W15897  22.208  29.282   1.807
42830W        W15898   6.884  16.645  11.695
42831W        W15899   3.992  38.863  13.858
42832W        W15900  11.341  32.400   2.698
42833W        W15901  37.044  39.995   0.325
42834W        W15902   4.214  32.459   9.942
42835W        W15903  10.031  43.965  10.289
42836W        W15904  36.493   5.678   4.332
42837W        W15905  14.623   2.425   0.826
42838W        W15906  39.486  23.473  12.031
42839W        W15907  33.891   7.618  12.923
42840W        W15908  43.486   4.445   3.248
42841W        W15909  25.658  13.748   2.485
42842W        W15910  36.053  24.530  12.617
42843W        W15911  25.671   3.746  10.623
42844W        W15912  39.070  28.131   0.459
42845W        W15913  37.317   0.524   1.832
42846W        W15914  14.351  16.324   4.551
42847W        W15915   7.959  42.811   5.078
42848W        W15916  10.750  32.469  14.915
42849W        W15917  16.816  40.310   1.383
42850W        W15918   0.504  14.322  10.766
42851W        W15919  32.877  35.612  13.114
42852W        W15920  41.302  17.454   9.924
42853W        W15921   0.944  27.635  12.516
42854W        W15922  26.596  24.544   2.909
42855W        W15923  31.087  43.483  11.543
42856W        W15924  11.168  14.580   0.868
42857W        W15925  12.265   6.742   4.751
42858W        W15926  38.985   0.286  14.167
42859W        W15927  14.154  25.987   4.268
42860W        W15928  23.952  20.009   4.177
42861W        W15929  37.326  14.399   0.272
42862W        W15930  21.541  20.731  13.431
42863W        W15931  22.728  38.909   4.645
42864W        W15932   3.482  10.150   1.830
42865W        W15933  20.327   7.314  14.987
42866W        W15934   4.942  36.830  14.915
42867W        W15935   8.808  14.380   2.589
42868W        W15936   9.865  22.930   4.356
42869W        W15937  24.844  11.663  14.956
42870W        W15938  42.564  14.249   3.726
42871W        W15939  41.812  14.337  11.986
42872W        W15940  42.539   7.407   3.823
42873W        W15941  34.902  10.896   4.139
42874W        W15942  36.487  39.384  10.638
42875W        W15943  32.992  41.013  10.667
42876W        W15944  31.583  38.037   2.406
42877W        W15945  25.343  24.059   2.856
42878W        W15946  12.836   9.647  11.862
42879W        W15947  38.611   5.907  14.118
42880W        W15948  44.801   2.310   2.165
42881W        W15949  35.134  44.885   4.358
42882W        W15950  37.098  38.736   0.686
42883W        W15951  10.801   5.083   2.830
42884W        W15952  42.861  32.467  12.168
42885W        W15953  34.431  32.836  13.856
42886W        W15954  35.545  44.004   2.247
42887W        W15955  34.430   6.828  14.310
42888W        W15956  30.150   8.297  12.789
42889W        W15957  34.965  25.599   4.233
42890W        W15958  18.961  17.624   3.728
42891W        W15959  41.063  20.705  13.907
42892W        W15960  18.270  29.186   1.949
42893W        W15961   7.138  26.139   2.745
42894W        W15962  22.962  26.896  11.561
42895W        W15963  42.429  36.422   2.901
42896W        W15964  33.037   2.888   0.681
42897W        W15965   8.569  29.423   1.088
42898W        W15966  39.022  38.876   4.651
42899W        W15967  31.935   5.727  12.968
42900W        W15968   8.907  11.215   2.719
42901W        W15969  12.758  29.414   1.970
42902W        W15970   9.144  36.371  14.380
42903W        W15971  14.235   5.807   2.900
42904W        W15972  40.382  17.719   1.668
42905W        W15973  13.734   3.209  11.403
42906W        W15974  20.611  10.541  11.130
42907W        W15975   5.447   5.707   0.435
42908W        W15976  39.475  34.635  10.495
42909W        W15977  12.215  36.731  12.031
42910W        W15978  30.018  23.623   0.401
42911W        W15979  42.211  42.352   2.737
42912W        W15980  28.206  40.141  13.892
42913W        W15981   3.384  36.121   0.937
42914W        W15982  29.212  13.221  13.855
42915W        W15983  14.683  13.716   2.359
42916W        W15984  27.742  32.890  13.099
42917W        W15985   4.820  30.408  12.888
42918W        W15986  32.451  41.781   2.856
42919W        W15987  35.788   1.713   4.609
42920W        W15988  14.767  43.079  12.114
42921W        W15989  44.534  36.055  12.488
42922W        W15990  15.346  10.816   2.348
42923W        W15991   7.380   7.225   2.573
42924W        W15992  44.025  19.057   1.237
42925W        W15993  18.703  28.719  13.148
42926W        W15994  42.599  13.537   4.144
42927W        W15995  41.325  37.426  12.891
42928W        W15996  38.583  14.548   4.096
42929W        W15997  33.872  38.354   4.650
42930W        W15998  20.249   2.386   4.948
42931W        W15999  44.496  12.647   3.126
42932W        W16000  18.494  38.977  14.659
42933W        W16001  39.558  36.615   2.821
42934W        W16002  39.919  28.189   1.866
42935W        W16003  13.042  16.848   2.378
42936W        W16004  23.935   2.193  13.445
42937W        W16005   7.450  11.256  13.884
42938W        W16006  31.526  24.667  11.539
42939W        W16007   6.611  18.872  14.500
42940W        W16008   3.007   7.351  12.536
42941W        W16009  41.395   9.817  12.010
42942W        W16010  14.906   9.203   2.252
42943W        W16011  20.201  11.657   3.634
42944W        W16012  34.540  43.946   2.384
42945W        W16013  34.207  25.595   1.885
42946W        W16014  27.119  37.279   0.897
42947W        W16015   7.877  16.967   4.135
42948W        W16016  38.023  18.276   4.278
42949W        W16017  18.140  24.093  10.756
42950W        W16018  26.488  22.582   4.224
42951W        W16019  14.884  18.726   4.967
42952W        W16020  11.599  32.486   0.045
42953W        W16021  13.260  35.434   1.936
42954W        W16022   4.391  19.857   3.126
42955W        W16023  21.686   8.596  14.400
42956W        W16024  36.153  41.569  13.927
42957W        W16025  16.644   6.391  10.635
42958W        W16026  17.624  18.780  10.615
42959W        W16027  43.418   7.090   0.295
42960W        W16028   2.218  11.200  14.919
42961W        W16029  17.206  32.572   1.191
42962W        W16030  15.642  37.085   2.693
42963W        W16031  19.104  20.699   1.372
42964W        W16032   0.075  30.555  11.121
42965W        W16033  16.323   6.143  12.099
42966W        W16034  25.935  13.330   2.300
42967W        W16035  37.934  34.368   2.159
42968W        W16036   1.915  33.810  13.982
42969W        W16037  37.402  42.847  14.385
42970W        W16038   9.620  43.670  14.665
42971W        W16039  17.479  41.549  11.158
42972W        W16040   4.965  27.900  14.493
42973W        W16041  36.093  23.806  10.643
42974W        W16042  14.488  25.533   0.277
42975W        W16043  37.511  36.864  12.505
42976W        W16044   5.459  42.320  13.388
42977W        W16045   6.675  43.063  13.814
42978W        W16046  35.065  33.750   4.571
42979W        W16047  42.291  43.457   4.184
42980W        W16048  37.557  36.015  10.528
42981W        W16049  25.833  27.138  13.858
42982W        W16050  34.997  10.867  10.323
42983W        W16051  10.727  33.093   3.688
42984W        W16052  11.735  38.796   1.766
42985W        W16053  32.517  32.041   1.495
42986W        W16054  17.698  15.130  14.701
42987W        W16055  39.408  31.052  11.117
42988W        W16056   3.947  34.279   1.251
42989W        W16057  38.432  17.502   1.208
42990W        W16058  26.554  31.382   0.498
42991W        W16059   0.474  10.277   9.972
42992W        W16060   1.351  20.478   1.521
42993W        W16061  10.339  17.483   2.853
42994W        W16062  25.577  16.151   4.968
42995W        W16063  30.545   8.248  12.329
42996W        W16064  15.841  38.924   4.182
42997W        W16065  34.081   8.238   0.773
42998W        W16066   9.301   3.151  12.971
42999W        W16067   3.919  27.594   3.385
43000W        W16068  28.116  15.886  12.554
43001W        W16069  18.659  39.327  14.316
43002W        W16070  14.273   2.897   0.252
43003W        W16071  43.961  19.736  14.365
43004W        W16072  16.313   5.943   3.633
43005W        W16073  14.207  13.539  11.951
43006W        W16074  29.432  24.262   0.575
43007W        W16075  32.263  19.543  12.428
43008W        W16076  25.669   1.640   1.726
43009W        W16077  19.188   9.763   0.210
43010W        W16078   7.660   5.900  14.842
43011W        W16079   5.762   6.685  12.986
43012W        W16080  22.932   6.981  11.687
43013W        W16081  43.685  44.993   0.813
43014W        W16082  30.667   9.752  11.034
43015W        W16083  43.950   2.981  14.794
43016W        W16084  32.270   1.946  14.745
43017W        W16085  43.979  16.617   3.445
43018W        W16086  19.641  20.579   2.041
43019W        W16087   3.884   0.585  10.941
43020W        W16088  40.928  31.932   1.479
43021W        W16089  28.090  38.770  12.863
43022W        W16090  26.815  37.098  14.875
43023W        W16091   8.830  30.008  13.729
43024W        W16092  36.002  19.461  13.129
43025W        W16093   0.168  35.826   3.330
43026W        W16094  35.660  10.642  14.112
43027W        W16095  28.933  20.449  14.313
43028W        W16096   4.182  25.111  14.272
43029W        W16097  36.095  43.201  12.710
43030W        W16098   7.199  37.437   2.136
43031W        W16099   4.894   9.940  12.498
43032W        W16100   6.176  36.048  11.884
43033W        W16101  43.328  16.353   0.761
43034W        W16102  31.670   1.729  11.650
43035W        W16103   7.524  32.434  11.193
43036W        W16104  21.970   5.651   0.335
43037W        W16105  35.003  26.874  13.311
43038W        W16106  26.485  13.114  11.534
43039W        W16107  13.558  14.292   3.111
43040W        W16108   5.736  16.036   0.014
43041W        W16109  38.714   0.362   2.808
43042W        W16110  21.582  32.841   0.441
43043W        W16111  32.369  30.886   2.693
43044W        W16112  26.037   8.841   1.923
43045W        W16113   7.239  28.067  14.537
43046W        W16114  17.089  30.994   3.647
43047W        W16115  38.539  39.706  12.947
43048W        W16116  28.800   3.338  13.791
43049W        W16117   3.457  21.462   4.612
43050W        W16118   3.129   2.672  10.457
43051W        W16119  35.501  40.255  10.525
43052W        W16120  15.333  24.311  12.195
43053W        W16121  10.639  18.058   0.707
43054W        W16122   5.509   4.281   3.916
43055W        W16123  42.741  17.134  14.962
43056W        W16124  22.624  25.480   4.769
43057W        W16125   8.917  28.655  11.144
43058W        W16126  21.538  15.660   0.232
43059W        W16127  43.895  26.449   0.709
43060W        W16128  39.089  13.101  10.784
43061W        W16129  28.109   3.812  14.283
43062W        W16130  15.576  39.370  14.503
43063W        W16131   1.263  22.568   0.394
43064W        W16132  10.852  23.562  13.233
43065W        W16133  37.520  27.615  11.047
43066W        W16134  32.473   0.448  12.777
43067W        W16135  18.349   3.341  13.306
43068W        W16136  37.463   4.263  12.718
43069W        W16137  39.305  26.846   9.855
43070W        W16138  19.279  39.906  14.919
43071W        W16139  19.228  22.566  12.216
43072W        W16140  34.088  38.577   0.956
43073W        W16141  23.187   2.510  11.073
43074W        W16142  36.502  25.472   0.524
43075W        W16143  36.865   6.830  14.343
43076W        W16144  10.076   5.696   1.379
43077W        W16145  10.733   4.852   0.381
43078W        W16146  39.320  10.092   4.083
43079W        W16147  23.629  40.817   4.208
43080W        W16148  27.498  37.558   1.647
43081W        W16149  34.395  21.004   1.924
43082W        W16150  36.981  42.820  13.081
43083W        W16151   7.822  42.398  10.432
43084W        W16152  15.693  28.879   2.377
43085W        W16153  36.518  28.361  14.349
43086W        W16154  33.112  28.283   4.522
43087W        W16155  27.926  15.813   3.724
43088W        W16156  24.568  42.203  12.893
43089W        W16157   8.308   7.735   2.692
43090W        W16158  21.547  21.149  10.848
43091W        W16159  16.345  15.075   4.205
43092W        W16160   8.142  21.551   0.898
43093W        W16161  11.846  34.353   0.318
43094W        W16162  21.235  14.010   3.125
43095W        W16163  16.146   1.591   0.766
43096W        W16164  44.535  20.259   1.736
43097W        W16165  18.590  16.979  10.395
43098W        W16166  30.753  25.126  14.504
43099W        W16167  39.248   6.610  13.455
43100W        W16168  20.092   4.648   2.794
43101W        W16169  21.664  22.056  12.304
43102W        W16170  12.675  10.552   0.536
43103W        W16171  23.933   7.464  12.463
43104W        W16172   7.762   1.833   3.097
43105W        W16173  38.993  33.364   0.222
43106W        W16174  40.863  38.635   4.710
43107W        W16175   5.412   3.748   4.504
43108W        W16176   8.791  36.001  12.107
43109W        W16177   1.300  29.744   0.304
43110W        W16178  28.422  29.896   2.581
43111W        W16179  18.191   6.666  11.861
43112W        W16180  14.362  41.891   2.148
43113W        W16181   3.999  18.094   4.829
43114W        W16182  27.582  18.793  11.567
43115W        W16183  43.923  17.252   1.360
43116W        W16184  12.643  44.236   3.286
43117W        W16185  37.871  29.897  13.530
43118W        W16186   7.312  38.435   4.075
43119W        W16187  33.852  11.212   0.254
43120W        W16188  32.223  34.992  12.831
43121W        W16189  32.532   9.648  12.912
43122W        W16190  32.957  15.618   4.966
43123W        W16191  12.822   1.349  11.006
43124W        W16192   3.258  28.969  11.570
43125W        W16193  22.803  34.389  12.428
43126W        W16194   3.885   5.753  14.515
43127W        W16195   1.945  33.962   1.887
43128W        W16196   6.678   8.191  14.411
43129W        W16197  39.942   7.460  10.195
43130W        W16198  38.557  22.363  11.506
43131W        W16199   4.979   2.422  12.101
43132W        W16200  22.983  40.273   1.733
43133W        W16201  13.036  28.714   4.589
43134W        W16202  28.595  10.695   2.878
43135W        W16203   6.720   1.507   1.318
43136W        W16204   2.884  13.114  14.065
43137W        W16205  12.297  27.213   1.757
43138W        W16206  25.554  17.268   3.745
43139W        W16207   0.407   0.301  14.482
43140W        W16208  10.875   5.721   3.661
43141W        W16209  13.819  42.312  13.029
43142W        W16210  38.335   6.902   1.633
43143W        W16211   0.943  17.211  11.104
43144W        W16212  26.421  22.679  14.937
43145W        W16213  15.263  35.696   3.905
43146W        W16214  22.937  27.667   3.602
43147W        W16215  35.864  21.010   4.325
43148W        W16216  11.886   8.366  13.358
43149W        W16217   5.884  32.370  13.406
43150W        W16218  26.294  43.995   3.419
43151W        W16219   7.030  20.093   3.592
43152W        W16220  40.273  28.000   4.229
43153W        W16221   4.981  10.126   4.546
43154W        W16222  35.323  22.518  12.413
43155W        W16223  32.611  35.507  12.415
43156W        W16224   9.331  11.831  13.238
43157W        W16225   7.732  10.313   2.929
43158W        W16226  16.059  44.455  13.164
43159W        W16227   2.031  15.588   4.724
43160W        W16228   9.211  36.817   1.873
43161W        W16229  11.752   9.758  13.955
43162W        W16230  35.881  42.956  14.506
43163W        W16231  18.822  31.338  13.431
43164W        W16232   2.539  28.932  13.999
43165W        W16233  30.720  12.589  11.970
43166W        W16234   3.440  40.563  13.252
43167W        W16235  38.176  20.538   2.266
43168W        W16236  31.900   7.265  11.887
43169W        W16237  13.900  13.745   0.968
43170W        W16238  29.730  21.228   0.648
43171W        W16239  35.448  18.792   3.084
43172W        W16240  39.307  26.129   3.368
43173W        W16241  27.440  21.159   4.181
43174W        W16242  21.800  21.551  11.042
43175W        W16243  25.137   7.170  12.118
43176W        W16244  19.703   5.650   2.906
43177W        W16245  39.951  36.126  11.117
43178W        W16246  14.309  37.395   0.925
43179W        W16247  24.469  27.093   2.678
43180W        W16248  26.005  22.696  11.631
43181W        W16249  19.211  20.052   0.894
43182W        W16250  44.409  29.244  12.122
43183W        W16251  17.367  10.322  14.112
43184W        W16252  13.050   2.418   2.722
43185W        W16253  29.724  19.388  13.047
43186W        W16254   8.648  31.538   1.497
43187W        W16255   9.332   9.742   4.806
43188W        W16256   4.924  27.539   0.324
43189W        W16257  44.201  28.521   2.704
43190W        W16258  37.438  38.434   1.251
43191W        W16259   9.993  15.219   3.874
43192W        W16260  22.679   1.015   1.730
43193W        W16261  43.773  31.345   3.179
43194W        W16262  41.741  32.148   3.604
43195W        W16263   4.598   3.855  14.623
43196W        W16264  44.928  22.233  13.831
43197W        W16265  29.289  20.073  12.358
43198W        W16266  31.024  43.259  13.519
43199W        W16267  41.237   1.307  11.584
43200W        W16268   6.772  16.981  14.957
43201W        W16269  44.018  43.783  12.412
43202W        W16270  32.071  25.961   2.719
43203W        W16271  31.842  23.454   2.212
43204W        W16272   0.581   1.062  11.933
43205W        W16273  35.469   8.817   3.607
43206W        W16274  30.665  32.793  13.526
43207W        W16275   2.422  38.944   1.076
43208W        W16276  18.669  40.925   1.745
43209W        W16277   3.392  30.124  11.973
43210W        W16278  35.820  27.547  13.810
43211W        W16279  24.529   2.440  12.224
43212W        W16280  20.802   6.300   1.690
43213W        W16281  37.105  39.374   4.203
43214W        W16282   1.716  25.533  11.212
43215W        W16283  25.650  12.742   3.589
43216W        W16284  42.388  15.163  11.964
43217W        W16285  24.533  35.396  10.647
43218W        W16286  41.825  10.027  13.493
43219W        W16287  16.785  40.367  13.999
43220W        W16288  20.664  11.210   4.274
43221W        W16289   7.424  21.000  12.966
43222W        W16290  23.082  24.742   0.851
43223W        W16291  11.640   4.315   1.687
43224W        W16292  41.831  44.466   2.898
43225W        W16293  42.190  25.162   1.885
43226W        W16294  34.558  21.683  11.009
43227W        W16295  34.838   8.398   4.102
43228W        W16296  25.635  32.205  13.052
43229W        W16297   3.865   4.405  13.582
43230W        W16298  40.582  40.038   3.791
43231W        W16299  43.132  41.498   1.553
43232W        W16300   4.928   1.870   4.161
43233W        W16301  36.878  35.111  14.312
43234W        W16302  30.657  21.343   2.739
43235W        W16303  42.696  39.493   2.686
43236W        W16304   1.410  23.669   2.270
43237W        W16305  23.698   9.728  14.696
43238W        W16306  35.993  20.493   1.233
43239W        W16307  39.325  10.723   2.285
43240W        W16308  37.158  17.577   0.231
43241W        W16309   0.220  39.983   0.884
43242W        W16310   6.456   3.924  14.933
43243W        W16311  39.430  22.526   2.690
43244W        W16312  18.796  41.628   4.134
43245W        W16313  37.340   7.853  12.456
43246W        W16314  14.274  22.054   2.360
43247W        W16315  35.043   1.240  14.339
43248W        W16316  35.370  13.181   3.912
43249W        W16317  44.301  36.370  12.154
43250W        W16318  40.558  18.600   1.338
43251W        W16319  35.131  38.807  14.941
43252W        W16320  39.732  17.916  11.122
43253W        W16321  40.943  17.522  12.901
43254W        W16322   9.284   8.148   4.573
43255W        W16323  41.054  17.715  11.894
43256W        W16324  12.243  31.379  13.017
43257W        W16325  28.082  42.484  10.541
43258W        W16326   6.730  26.825  14.036
43259W        W16327  31.319  14.183  12.908
43260W        W16328   2.667  14.795   2.611
43261W        W16329  25.348  41.733  13.985
43262W        W16330  16.093   7.567  13.907
43263W        W16331  33.554   6.264   0.071
43264W        W16332  27.368  25.077  11.384
43265W        W16333  10.190   9.862  14.915
43266W        W16334  39.456  13.228   3.237
43267W        W16335  21.092  43.879  13.926
43268W        W16336   5.740   8.295   2.153
43269W        W16337  24.449  18.417   2.803
43270W        W16338  11.192  39.052  14.356
43271W        W16339   6.297   9.811   0.070
43272W        W16340  35.959  26.730  10.174
43273W        W16341  38.032  39.528   2.962
43274W        W16342  44.769  28.538   0.240
43275W        W16343  16.857  29.962   0.992
43276W        W16344  26.952  21.196  13.852
43277W        W16345  44.702   2.823  13.800
43278W        W16346  23.792   2.883  14.423
43279W        W16347  42.796   1.258  12.547
43280W        W16348  20.854  31.596   1.308
43281W        W16349  26.275   6.261   0.146
43282W        W16350  28.648   7.211  12.461
43283W        W16351  18.491  21.267  12.410
43284W        W16352  21.844  21.935  14.834
43285W        W16353  40.362   2.374  11.910
43286W        W16354  36.093   5.913  14.858
43287W        W16355  12.564  29.037  12.419
43288W        W16356  24.932   5.345   3.739
43289W        W16357  21.590   8.308   2.671
43290W        W16358  36.507   3.440  13.492
43291W        W16359  12.133  24.518   2.078
43292W        W16360  13.263  35.013  13.337
43293W        W16361  36.551  44.012  13.090
43294W        W16362  18.382  18.782  12.787
43295W        W16363  36.673   5.868  11.883
43296W        W16364  39.462  11.308   4.484
43297W        W16365  30.645   4.769   2.086
43298W        W16366  35.142   9.360  12.455
43299W        W16367  31.421   8.743  13.224
43300W        W16368  31.168  19.185  13.121
43301W        W16369   0.972  42.610  13.894
43302W        W16370  28.220  21.267   2.894
43303W        W16371  36.416   7.618   1.853
43304W        W16372  18.201  34.168  12.506
43305W        W16373  31.438  40.947   4.603
43306W        W16374   7.372  15.378   1.754
43307W        W16375  30.270  13.076   2.024
43308W        W16376   5.851  17.275  12.588
43309W        W16377  39.532  27.232  13.141
43310W        W16378  10.166   9.470   4.345
43311W        W16379   3.969  20.836   1.373
43312W        W16380  14.590  41.731   0.515
43313W        W16381  27.083  15.328   1.304
43314W        W16382  29.914  15.300   3.110
43315W        W16383  31.873  40.904   3.621
43316W        W16384  40.946  41.722  13.864
43317W        W16385  41.630  16.714   5.039
43318W        W16386  28.926   5.245   0.001
43319W        W16387  19.515  42.464  13.340
43320W        W16388  43.410  15.294  11.347
43321W        W16389   1.344  37.390   3.994
43322W        W16390  21.605  12.683   1.629
43323W        W16391  29.719  26.649   3.760
43324W        W16392   0.021  26.659   3.312
43325W        W16393   4.373  37.219  13.467
43326W        W16394  25.970   0.372   2.557
43327W        W16395  25.143  29.345   4.151
43328W        W16396   1.897  12.068   2.319
43329W        W16397  30.111  38.284  12.373
43330W        W16398  25.707  24.807   2.187
43331W        W16399  42.963  32.495   1.437
43332W        W16400  32.829  26.656   0.395
43333W        W16401  17.869  32.133   3.255
43334W        W16402  42.046  35.535   4.608
43335W        W16403  16.875   8.740   4.177
43336W        W16404  24.261  41.442   4.124
43337W        W16405  26.962  30.614  11.589
43338W        W16406  31.401  31.100   2.798
43339W        W16407  16.631  33.228  11.224
43340W        W16408   4.775   2.417  10.809
43341W        W16409  19.334  37.605   3.972
43342W        W16410  41.814  11.199   0.837
43343W        W16411  24.724  44.898  11.844
43344W        W16412  12.058  10.898   2.324
43345W        W16413  14.324  21.227   3.390
43346W        W16414  41.013  29.201  14.849
43347W        W16415  34.019  42.422   3.948
43348W        W16416   5.603  15.290  10.739
43349W        W16417  13.692  43.424   2.264
43350W        W16418  44.681  14.249   4.735
43351W        W16419  31.454   2.753   0.924
43352W        W16420  21.292  25.968  11.035
43353W        W16421   3.500   1.711  13.053
43354W        W16422  31.090  27.152  12.875
43355W        W16423  10.431   9.867   2.908
43356W        W16424   1.925   1.368   2.199
43357W        W16425  13.258  32.100   0.165
43358W        W16426  16.695  28.598   4.104
43359W        W16427  10.757  41.755  10.308
43360W        W16428  38.369  16.242   2.305
43361W        W16429   7.918  33.982   1.745
43362W        W16430  21.848   7.584   2.306
43363W        W16431  19.777  12.196  13.002
43364W        W16432  25.494  26.974  11.555
43365W        W16433   8.340  19.217   1.963
43366W        W16434   8.295  14.256   4.734
43367W        W16435  27.888  27.696   1.357
43368W        W16436  23.442  37.079   1.271
43369W        W16437  13.006   4.130   1.357
43370W        W16438  42.903  36.934   4.105
43371W        W16439  19.804  13.151   1.973
43372W        W16440  38.273  44.440  10.393
43373W        W16441  34.454  20.377  10.618
43374W        W16442   4.869  28.420   0.198
43375W        W16443  16.495  42.892  14.729
43376W        W16444  31.710  19.722   1.030
43377W        W16445  17.316   6.135   0.810
43378W        W16446  17.845  17.791  13.750
43379W        W16447  43.281  11.716   1.478
43380W        W16448  15.116   0.453  13.442
43381W        W16449   2.767  32.261  12.541
43382W        W16450  16.241   7.945   1.840
43383W        W16451   6.629  22.569   1.561
43384W        W16452  29.425   1.997  12.027
43385W        W16453  32.021  32.528  13.950
43386W        W16454  22.625  23.167  14.919
43387W        W16455  36.979  23.887   4.573
43388W        W16456  24.457  26.286   2.612
43389W        W16457  18.763  26.187  12.064
43390W        W16458   6.582  35.916   0.375
43391W        W16459  29.662   5.771  13.746
43392W        W16460  27.984   6.408  10.964
43393W        W16461  33.844  37.089  13.096
43394W        W16462  24.047  44.474  13.099
43395W        W16463  21.029   1.387  14.483
43396W        W16464  35.428  30.464   0.952
43397W        W16465   3.973  11.274   3.723
43398W        W16466  34.383  36.046   4.312
43399W        W16467  17.177   5.902   1.262
43400W        W16468  29.083  33.810   0.018
43401W        W16469  13.769  37.770  14.834
43402W        W16470  22.948  20.744  11.566
43403W        W16471  41.855  43.974  13.293
43404W        W16472  41.571  33.102   4.243
43405W        W16473  20.122  15.798   2.279
43406W        W16474   4.437  30.747   1.270
43407W        W16475  18.386  12.808  10.917
43408W        W16476   3.416  39.998   0.781
43409W        W16477  33.430   2.858   4.401
43410W        W16478  10.982  10.681   4.574
43411W        W16479  37.810  29.888  11.930
43412W        W16480  20.633  15.861   2.413
43413W        W16481  26.940  42.325   1.470
43414W        W16482  43.953  26.646  11.516
43415W        W16483  42.555  15.062   2.751
43416W        W16484  34.034  28.629   4.204
43417W        W16485  30.194  17.446   2.356
43418W        W16486   0.031  43.839   2.331
43419W        W16487   3.852  42.797   2.716
43420W        W16488  19.095  15.780  14.704
43421W        W16489  25.252  34.564   2.817
43422W        W16490  40.993   3.190  13.813
43423W        W16491  36.881  26.504   1.348
43424W        W16492  20.578  35.209   4.508
43425W        W16493  15.194   6.458  14.274
43426W        W16494  20.491  44.788   2.782
43427W        W16495  41.443  41.989  13.536
43428W        W16496  43.353  24.771   2.341
43429W        W16497  37.135   9.354   3.171
43430W        W16498   7.708   9.396  14.987
43431W        W16499   8.664   5.486   0.403
43432W        W16500  24.259  37.478   0.030
43433W        W16501  27.602  12.658   2.196
43434W        W16502  41.362  36.178   3.751
43435W        W16503  12.231  23.456  12.187
43436W        W16504   3.071  36.432   2.077
43437W        W16505  14.310  32.521  11.336
43438W        W16506  10.130  17.226  12.085
43439W        W16507  27.373  37.415   4.296
43440W        W16508  43.256  15.805  11.935
43441W        W16509  38.783  24.931  10.826
43442W        W16510   8.180  42.591  12.954
43443W        W16511  33.329  10.509   3.713
43444W        W16512   5.492  13.020  11.244
43445W        W16513   6.908  41.726  12.922
43446W        W16514  10.298  38.356  11.560
43447W        W16515   1.377  27.158   4.176
43448W        W16516  44.786  18.544  11.575
43449W        W16517   9.241  27.446  13.820
43450W        W16518  18.627  23.665   4.226
43451W        W16519   5.617  33.182   2.494
43452W        W16520  31.413   3.973   4.249
43453W        W16521  20.065  39.857   1.239
43454W        W16522   4.549  19.996   3.588
43455W        W16523  19.113  16.713   2.410
43456W        W16524   9.911  33.627   4.680
43457W        W16525  31.045  23.628   3.067
43458W        W16526  22.190  35.341   3.267
43459W        W16527  27.513   6.914  13.385
43460W        W16528  11.876   3.178   0.812
43461W        W16529  20.742  39.904   1.983
43462W        W16530  20.458  38.591   3.160
43463W        W16531   1.955  43.014  11.166
43464W        W16532   4.530  31.005   2.801
43465W        W16533  43.308  36.133  13.794
43466W        W16534  42.569  23.087  13.733
43467W        W16535  29.092  43.897  11.691
43468W        W16536  16.568  11.786  14.229
43469W        W16537   7.491   2.939   4.152
43470W        W16538  41.129   8.892  11.555
43471W        W16539   7.252  12.828  13.894
43472W        W16540  15.765  33.381   3.701
43473W        W16541  22.730  24.310   3.757
43474W        W16542  13.987  38.650  13.892
43475W        W16543  33.175  19.582  12.990
43476W        W16544  43.830   9.188  10.753
43477W        W16545  37.671  26.116   1.277
43478W        W16546  38.135  32.054  12.562
43479W        W16547   6.140  44.905   1.356
43480W        W16548   5.574  34.474  11.139
43481W        W16549   1.863  38.010   3.594
43482W        W16550  32.899  37.760  10.983
43483W        W16551  40.008  34.279   4.543
43484W        W16552  23.705  31.732   0.325
43485W        W16553  23.164  25.937  14.884
43486W        W16554  37.432   9.174  10.815
43487W        W16555  11.835  40.788   1.096
43488W        W16556  34.964  11.245   2.764
43489W        W16557   4.776  38.774  10.674
43490W        W16558  25.521  38.963  10.698
43491W        W16559   9.639   9.420   1.893
43492W        W16560  44.568  14.315  12.484
43493W        W16561  14.574  23.485  13.952
43494W        W16562  37.772  27.601  10.600
43495W        W16563  30.894  41.493   5.251
43496W        W16564  43.986   8.408  11.994
43497W        W16565  24.512   9.963   3.559
43498W        W16566  28.103  29.484   2.313
43499W        W16567   9.859  23.349  12.515
43500W        W16568  16.100  14.740  14.777
43501W        W16569  33.465  29.013  10.078
43502W        W16570  26.695  28.975   3.710
43503W        W16571  13.588  44.624  13.498
43504W        W16572  35.505  26.550  10.418
43505W        W16573  10.365   4.785   2.743
43506W        W16574   4.921   7.440   5.125
43507W        W16575   4.465   4.378  14.876
43508W        W16576  17.503  20.289  12.466
43509W        W16577   0.526  12.038  11.080
43510W        W16578  25.414   2.071   0.895
43511W        W16579   3.050  34.786   3.152
43512W        W16580  23.205   1.797  10.695
43513W        W16581  32.555   9.147   1.501
43514W        W16582  12.833  13.747   4.053
43515W        W16583   5.886  35.816   0.003
43516W        W16584  33.781  41.904   4.819
43517W        W16585   3.708  19.059   0.635
43518W        W16586  16.735  11.413  14.721
43519W        W16587  39.479   2.513  14.201
43520W        W16588  41.759  20.346  14.247
43521W        W16589  39.342  15.374  12.923
43522W        W16590  20.181   2.301  12.002
43523W        W16591  13.957  19.056  11.601
43524W        W16592  40.098  27.364   3.142
43525W        W16593  28.730  12.740   3.340
43526W        W16594  30.602  14.679   1.181
43527W        W16595  13.582  40.481   4.689
43528W        W16596  15.266   5.564   4.605
43529W        W16597  19.822   3.061   1.334
43530W        W16598  12.127  21.494   1.917
43531W        W16599   4.004   9.261  10.443
43532W        W16600   6.075  35.684   2.079
43533W        W16601  22.784  17.870  14.688
43534W        W16602  32.071  26.712   3.193
43535W        W16603  39.058  23.746  10.761
43536W        W16604  22.480  18.256  14.927
43537W        W16605  28.487   9.874   1.865
43538W        W16606  24.043  22.607   3.576
43539W        W16607  39.515  36.830  11.483
43540W        W16608  11.952  42.725  10.397
43541W        W16609  39.449  16.616  10.945
43542W        W16610  34.552  35.469   2.229
43543W        W16611  27.981  29.948   1.023
43544W        W16612  15.994  13.120   4.043
43545W        W16613  25.711  39.450  12.006
43546W        W16614  22.032  32.957  14.729
43547W        W16615  40.383  27.130  13.639
43548W        W16616  26.207  19.770  12.540
43549W        W16617   5.779  25.069   4.317
43550W        W16618  28.609  42.465   0.265
43551W        W16619  26.939   9.701   0.900
43552W        W16620  30.586   0.179   3.341
43553W        W16621  35.136  20.265  12.173
43554W        W16622  32.127   1.642  11.313
43555W        W16623  29.011   0.694   4.585
43556W        W16624  37.240  12.175  13.666
43557W        W16625   3.871  44.427  13.611
43558W        W16626  22.473  40.622  10.672
43559W        W16627   5.137  10.323   3.299
43560W        W16628  12.097  19.375  12.587
43561W        W16629   1.924   1.327  13.946
43562W        W16630   0.494  25.929   4.575
43563W        W16631  41.552  24.694  13.481
43564W        W16632  13.334   3.868   4.775
43565W        W16633  19.707   1.351  11.353
43566W        W16634  33.314   3.229  14.739
43567W        W16635  25.068  19.098   4.951
43568W        W16636  30.446  16.966   0.201
43569W        W16637   4.784  19.528   3.632
43570W        W16638  23.433  10.460   1.949
43571W        W16639   0.235  28.691  11.543
43572W        W16640  38.314   8.255   0.043
43573W        W16641   8.406  25.538  12.589
43574W        W16642  44.696  35.625  11.436
43575W        W16643  35.884  20.690  11.009
43576W        W16644  13.779  29.967   1.909
43577W        W16645  34.940  31.880   1.180
43578W        W16646  37.479  44.693   2.236
43579W        W16647  14.507  33.774   9.907
43580W        W16648  30.620  30.529  13.464
43581W        W16649  34.506   2.640   0.879
43582W        W16650  29.010  32.549   2.827
43583W        W16651  25.304  25.579  10.628
43584W        W16652  37.797  18.731  10.497
43585W        W16653  32.505  27.543   4.620
43586W        W16654  26.733  36.362   3.828
43587W        W16655  35.996   7.901  12.371
43588W        W16656  42.026  21.037   0.805
43589W        W16657   7.312  12.815   2.442
43590W        W16658  19.336  43.128  13.036
43591W        W16659  39.293  42.984  10.473
43592W        W16660  32.861  16.640   4.152
43593W        W16661   9.899   3.475  11.583
43594W        W16662  22.648  42.365  13.287
43595W        W16663  23.032  40.837  12.362
43596W        W16664   7.229  17.826  13.669
43597W        W16665  38.351  42.507  14.786
43598W        W16666  25.482  15.789   0.939
43599W        W16667   1.369  31.889  14.483
43600W        W16668   1.919  25.963  14.003
43601W        W16669  41.981  19.311  11.621
43602W        W16670  25.961  16.299   2.342
43603W        W16671  12.861  35.640   2.235
43604W        W16672  30.490  35.462  13.061
43605W        W16673   3.489  40.142   3.159
43606W        W16674  43.494  15.577  13.308
43607W        W16675   4.976  27.452  12.954
43608W        W16676  20.753  12.171  12.049
43609W        W16677   7.797  14.217   5.146
43610W        W16678  35.813  31.406   0.738
43611W        W16679  29.833  44.700   2.896
43612W        W16680  34.059   0.222   2.235
43613W        W16681  11.424  27.983  13.587
43614W        W16682  44.451  43.182   5.071
43615W        W16683  14.084  39.878   2.270
43616W        W16684   2.040  10.764   0.802
43617W        W16685  32.840  14.612   0.560
43618W        W16686  38.834  15.410   2.328
43619W        W16687  21.127  17.253   3.782
43620W        W16688  36.475   8.513  11.876
43621W        W16689  41.297  41.337  12.589
43622W        W16690   2.403  26.067  14.932
43623W        W16691  16.149   6.162   4.086
43624W        W16692  27.551  25.527   4.464
43625W        W16693  27.136  35.551  14.311
43626W        W16694  39.039  12.195  10.879
43627W        W16695   8.062  36.779   2.710
43628W        W16696   3.102  29.214   2.685
43629W        W16697  34.155  28.814  11.417
43630W        W16698  33.311  17.023  10.877
43631W        W16699  26.716  17.349  10.907
43632W        W16700  38.490  29.201   4.466
43633W        W16701  22.481   1.693   4.561
43634W        W16702  13.301  43.013  14.007
43635W        W16703  43.224  26.621  12.874
43636W        W16704  29.355   9.756  12.614
43637W        W16705  12.144   9.300  11.500
43638W        W16706  44.708  35.894  14.541
43639W        W16707  12.864  26.915   4.647
43640W        W16708  38.124  31.627  13.857
43641W        W16709  29.025  38.057  13.949
43642W        W16710  44.255  22.704   1.747
43643W        W16711  33.607  43.052  14.035
43644W        W16712  13.764  10.144  10.942
43645W        W16713  40.369  12.004   2.418
43646W        W16714   8.760  29.502   0.070
43647W        W16715   6.698   7.846   3.272
43648W        W16716  27.393   5.964  14.356
43649W        W16717  11.663  24.541  12.277
43650W        W16718   1.262  40.484   1.188
43651W        W16719  20.128  37.349  14.455
43652W        W16720  39.528   6.665   5.040
43653W        W16721  36.768  35.023  11.702
43654W        W16722  35.517  31.472  10.573
43655W        W16723   2.376  17.778   4.509
43656W        W16724   2.202   6.756   1.309
43657W        W16725  39.666  35.478  12.461
43658W        W16726  34.467  43.054   2.220
43659W        W16727  22.578  34.368  14.231
43660W        W16728  18.505  11.345   3.453
43661W        W16729  26.928   2.904  13.835
43662W        W16730  26.174   2.315   0.524
43663W        W16731  17.807  22.238  12.618
43664W        W16732  41.286  34.383  14.433
43665W        W16733  20.984  28.475  12.095
43666W        W16734   5.172  42.896  10.395
43667W        W16735  21.538  31.621  14.751
43668W        W16736   2.288   7.710   4.620
43669W        W16737  13.124  30.579  14.719
43670W        W16738  31.807  37.928  12.163
43671W        W16739  23.685  23.909  10.793
43672W        W16740  41.045  37.741   3.787
43673W        W16741  25.553   3.722  12.477
43674W        W16742  30.380  35.012  14.471
43675W        W16743  24.740  18.091  14.299
43676W        W16744   8.684  18.374   3.747
43677W        W16745  15.365  19.638   4.179
43678W        W16746  39.304  12.356   9.978
43679W        W16747  15.295  14.881  10.665
43680W        W16748   3.727  32.594   1.760
43681W        W16749  31.642  43.209  12.939
43682W        W16750  24.671  26.935   0.685
43683W        W16751   6.908  36.748  14.984
43684W        W16752  22.770   5.204   3.270
43685W        W16753  33.491  26.933   4.911
43686W        W16754  43.768  12.183   3.356
43687W        W16755  35.988  14.447  13.336
43688W        W16756  38.261  33.424  11.591
43689W        W16757   6.811  18.266   1.904
43690W        W16758   2.206  35.989  14.384
43691W        W16759  31.899  19.641  14.365
43692W        W16760  18.240   2.953  12.190
43693W        W16761  38.705  16.248  13.840
43694W        W16762  12.091   0.784   0.177
43695W        W16763   8.744  42.697  11.828
43696W        W16764  40.368   8.740   4.582
43697W        W16765  12.070  17.359  14.129
43698W        W16766  10.907  44.202   4.152
43699W        W16767   7.702  43.742  10.646
43700W        W16768  31.453  33.048  14.859
43701W        W16769   6.872  19.601   3.706
43702W        W16770  39.898   2.749   1.720
43703W        W16771  11.183  30.062   1.819
43704W        W16772   3.541  26.010   1.798
43705W        W16773   8.739  17.269  12.544
43706W        W16774  35.299  41.748   4.833
43707W        W16775  26.497  26.432   3.758
43708W        W16776   2.226  29.235   0.750
43709W        W16777  42.461  20.194   0.322
43710W        W16778  33.078   9.519  14.849
43711W        W16779  39.880  36.444   0.052
43712W        W16780   3.813  21.768  13.911
43713W        W16781  28.549   6.390   3.894
43714W        W16782   7.516  28.055  13.069
43715W        W16783  40.146  25.713  13.981
43716W        W16784  32.157   3.789  13.988
43717W        W16785  31.149   6.845  11.962
43718W        W16786  39.054   2.419  13.925
43719W        W16787  16.325  17.189   3.744
43720W        W16788  20.026  32.943   1.310
43721W        W16789  12.175  40.311   4.964
43722W        W16790  24.237   5.835   2.613
43723W        W16791  11.605  43.905  11.681
43724W        W16792  39.372  26.271  10.602
43725W        W16793  11.314   0.053   0.582
43726W        W16794  13.566  42.892   4.592
43727W        W16795  37.548  37.861  13.815
43728W        W16796   3.559   6.146   1.349
43729W        W16797  17.952  34.382  14.059
43730W        W16798  28.490   3.119  11.529
43731W        W16799   7.500  17.514   4.758
43732W        W16800   0.681   6.487   5.069
43733W        W16801   8.354  39.650  10.657
43734W        W16802  15.093  40.782  11.488
43735W        W16803  27.214  21.121   3.719
43736W        W16804   8.649  19.021  13.391
43737W        W16805  24.721  27.353   0.375
43738W        W16806   6.825  32.379   4.587
43739W        W16807  36.615  33.549  13.564
43740W        W16808  15.622  37.110   4.581
43741W        W16809  32.473  18.330   1.590
43742W        W16810   0.262  13.237   4.572
43743W        W16811   9.331  28.598   1.312
43744W        W16812  36.476  10.608  10.538
43745W        W16813  36.340  15.201   4.562
43746W        W16814  28.892   3.862  13.851
43747W        W16815  30.004   5.476   3.530
43748W        W16816  25.206  10.146   3.795
43749W        W16817  20.189  15.107   0.721
43750W        W16818   9.919  23.250   2.436
43751W        W16819  19.745  41.703  12.059
43752W        W16820  42.357  37.966   1.858
43753W        W16821   6.944  27.498  14.435
43754W        W16822  20.825  31.150   4.550
43755W        W16823   6.360  21.146  13.274
43756W        W16824  40.754  43.775   2.790
43757W        W16825  33.972  34.488   3.533
43758W        W16826  38.054  13.448  12.618
43759W        W16827  44.937  28.491   3.262
43760W        W16828  44.839  40.388  10.444
43761W        W16829   6.823  17.558   1.178
43762W        W16830  42.456  23.456  14.454
43763W        W16831  21.702  24.432  10.608
43764W        W16832  36.128  26.605   0.050
43765W        W16833  11.315  24.915   2.112
43766W        W16834  26.164  22.784  12.925
43767W        W16835  37.032   3.518   2.427
43768W        W16836  10.283   8.922   1.007
43769W        W16837  14.240  15.291   3.894
43770W        W16838  28.215  37.616   2.281
43771W        W16839  37.094  28.563  11.589
43772W        W16840  17.244   4.324   3.859
43773W        W16841  44.387   8.419   4.182
43774W        W16842  19.761   1.288   1.354
43775W        W16843  41.886   1.928   3.433
43776W        W16844  25.792  30.187  12.938
43777W        W16845  36.892   0.262   1.327
43778W        W16846  19.249  35.198  12.976
43779W        W16847  34.176  28.106   3.781
43780W        W16848  10.144  25.990   4.191
43781W        W16849  31.912   8.010  10.905
43782W        W16850   0.205  15.557   3.138
43783W        W16851   9.575  10.224  11.890
43784W        W16852  24.158   3.532  10.218
43785W        W16853   1.565   1.247  12.017
43786W        W16854  23.221  33.358   3.585
43787W        W16855  30.927  23.646   4.050
43788W        W16856  11.169  16.626  12.617
43789W        W16857  15.391  29.370   4.675
43790W        W16858   6.792  42.547   3.269
43791W        W16859  20.217  42.005  11.416
43792W        W16860  19.726  14.531  10.595
43793W        W16861  14.399  14.215  10.665
43794W        W16862   9.934   7.338  14.829
43795W        W16863  41.405   0.736  10.630
43796W        W16864  14.823  39.532   0.992
43797W        W16865  29.699  22.771   0.414
43798W        W16866   0.820  31.768   0.243
43799W        W16867   6.774  19.860   4.549
43800W        W16868  18.508   6.968  14.909
43801W        W16869  28.797   6.899   4.258
43802W        W16870  20.083   3.856  14.024
43803W        W16871   8.434  31.089   1.657
43804W        W16872   7.017   9.921   2.299
43805W        W16873  13.329  32.899   4.176
43806W        W16874   0.732   7.713  14.336
43807W        W16875  30.295   7.624   2.320
43808W        W16876  10.640  19.374  12.486
43809W        W16877  31.598  37.948   4.955
43810W        W16878  37.546  17.535  10.836
43811W        W16879   7.264   8.828   3.550
43812W        W16880  24.602  29.143  14.482
43813W        W16881   0.711  27.900   5.181
43814W        W16882   1.977  22.861  11.760
43815W        W16883  35.022  38.497   0.951
43816W        W16884  16.652  27.181  12.386
43817W        W16885   4.905  27.154   4.858
43818W        W16886  24.706  43.433  13.887
43819W        W16887  19.434  10.231  12.983
43820W        W16888  18.480  36.424   0.957
43821W        W16889  43.799  12.960  12.120
43822W        W16890  14.266  27.490  11.237
43823W        W16891  43.946   1.221  14.572
43824W        W16892  25.674  23.718  13.006
43825W        W16893  15.643  31.907  11.612
43826W        W16894  40.153   3.260  14.421
43827W        W16895   7.754   4.355   1.237
43828W        W16896  39.374  10.285  11.872
43829W        W16897  15.939   2.771  11.374
43830W        W16898   9.824  27.112  10.325
43831W        W16899   6.012  13.244  13.859
43832W        W16900  35.423  37.779   4.114
43833W        W16901   0.548  10.416  12.812
43834W        W16902   0.758   5.667  14.986
43835W        W16903  18.210   6.605  11.351
43836W        W16904  37.308   5.369  11.106
43837W        W16905  16.777   5.934  13.846
43838W        W16906  16.720  31.630   4.323
43839W        W16907  35.804  18.417   2.832
43840W        W16908  43.270  38.901  14.136
43841W        W16909  37.461  33.430  11.973
43842W        W16910  16.719   5.339   2.926
43843W        W16911  35.325  36.783   1.819
43844W        W16912  28.924  18.312  12.928
43845W        W16913  15.134   1.810  12.394
43846W        W16914  41.431   9.162   1.940
43847W        W16915  12.782  23.435  14.736
43848W        W16916  10.762  19.886  12.346
43849W        W16917  25.987  16.654   4.549
43850W        W16918  34.576   2.356   1.562
43851W        W16919   3.924  39.880   1.201
43852W        W16920  32.831  17.108  11.038
43853W        W16921   1.190  10.133  11.603
43854W        W16922   5.413  44.422   1.438
43855W        W16923  19.924  25.661   3.686
43856W        W16924  33.345   9.840   3.686
43857W        W16925  11.401  32.632   1.347
43858W        W16926   6.352  38.207   2.732
43859W        W16927  32.200   3.473  11.199
43860W        W16928  16.084  10.582   0.387
43861W        W16929  38.358  26.144  13.889
43862W        W16930   1.192  22.732   1.304
43863W        W16931  21.494  23.062   3.566
43864W        W16932  40.008  27.495   2.646
43865W        W16933  11.546  28.198   1.657
43866W        W16934  26.978  20.517  13.293
43867W        W16935   4.444  27.473   1.354
43868W        W16936  36.869   3.194  12.138
43869W        W16937  37.456  18.742   3.227
43870W        W16938  28.911  34.954   1.869
43871W        W16939  36.676  30.360   3.242
43872W        W16940  37.785  43.821   0.372
43873W        W16941  35.332  23.481  11.597
43874W        W16942  23.225  28.018  12.116
43875W        W16943   7.351  31.152  13.539
43876W        W16944  29.926  39.982  13.088
43877W        W16945  31.685  13.391   1.494
43878W        W16946  23.886  34.106   4.117
43879W        W16947  34.982  13.474   4.106
43880W        W16948   3.617   7.837  13.851
43881W        W16949  22.504  36.768  10.986
43882W        W16950  39.005  18.414  13.024
43883W        W16951  39.062  27.560   0.895
43884W        W16952  35.669  23.494  10.690
43885W        W16953  37.558  33.721   4.228
43886W        W16954  16.299  27.676   4.672
43887W        W16955  33.100  34.670  14.012
43888W        W16956  24.183  25.866   1.859
43889W        W16957  22.012  31.443  10.913
43890W        W16958  24.671   1.766   1.353
43891W        W16959  35.325  14.819   2.341
43892W        W16960  29.384  20.693   1.262
43893W        W16961  33.826   5.276  14.946
43894W        W16962  17.103  23.623   1.280
43895W        W16963   3.664   2.123  12.400
43896W        W16964  36.419  35.144   9.881
43897W        W16965  27.886  28.052   9.995
43898W        W16966  12.699  26.789  14.425
43899W        W16967  23.202   5.451   4.221
43900W        W16968  26.517  10.244  12.564
43901W        W16969  12.772  44.723   4.204
43902W        W16970  34.723  34.356   1.111
43903W        W16971  10.360  35.472   4.747
43904W        W16972   3.519  10.111   4.644
43905W        W16973  15.124   2.014  10.493
43906W        W16974  22.762  27.627   4.095
43907W        W16975   6.408  35.940   1.724
43908W        W16976  43.391   5.243  10.819
43909W        W16977  11.288  36.160  11.468
43910W        W16978  32.177  37.292  10.333
43911W        W16979  27.409  23.647   0.876
43912W        W16980  37.342  15.056  11.629
43913W        W16981  15.633   7.238  11.611
43914W        W16982  39.830  10.655   1.313
43915W        W16983  39.312   8.741   4.582
43916W        W16984  42.959   9.266   4.069
43917W        W16985  32.845  32.541  14.468
43918W        W16986  27.807  18.139   2.761
43919W        W16987  43.243  16.320  13.914
43920W        W16988   5.907   7.394   1.637
43921W        W16989  42.401  38.787  14.265
43922W        W16990  12.317  29.973  11.147
43923W        W16991  22.761  37.999   4.225
43924W        W16992  32.541  41.698   4.539
43925W        W16993  13.104  14.162  10.426
43926W        W16994  13.368  10.233   0.399
43927W        W16995  34.051  37.817   3.483
43928W        W16996  10.082  23.135  10.318
43929W        W16997  36.890  19.293   4.972
43930W        W16998  36.193  12.992   3.438
43931W        W16999  11.685  31.073   4.046
43932W        W17000  41.465  38.350   3.724
43933W        W17001   9.237  40.302   5.031
43934W        W17002  14.157  15.252   2.896
43935W        W17003  44.427  42.793   1.953
43936W        W17004  43.226   9.198  13.315
43937W        W17005   2.202   7.738   2.378
43938W        W17006  16.612  44.947  11.550
43939W        W17007   0.544  12.750  11.596
43940W        W17008  31.596  42.336   1.472
43941W        W17009  32.885   2.399  13.104
43942W        W17010  33.002  40.966  13.177
43943W        W17011  42.934  30.397   2.233
43944W        W17012  13.696   9.152  13.747
43945W        W17013  40.881   4.131   0.076
43946W        W17014  17.257  30.273   0.728
43947W        W17015  26.739  29.074  14.408
43948W        W17016  44.543  43.419   1.350
43949W        W17017  25.271  25.603   4.814
43950W        W17018  30.446  26.683  13.331
43951W        W17019   3.460  35.589   0.825
43952W        W17020   3.130  29.973  11.360
43953W        W17021  26.698  35.541   3.048
43954W        W17022  25.506  38.731   1.031
43955W        W17023   7.417  42.923  13.388
43956W        W17024  10.168  23.561  14.917
43957W        W17025  24.793  19.442  11.101
43958W        W17026  38.611  14.734   0.181
43959W        W17027  18.261   8.396  12.362
43960W        W17028  19.256   8.366   4.164
43961W        W17029  28.660  28.047  14.984
43962W        W17030  22.173  17.219   3.468
43963W        W17031  21.709  28.141  14.699
43964W        W17032  16.483  12.277   1.775
43965W        W17033  22.291  35.648   1.444
43966W        W17034   2.015   7.285  12.368
43967W        W17035   7.454  18.291  11.136
43968W        W17036   1.021  15.717  11.848
43969W        W17037   2.320  36.515  11.147
43970W        W17038  26.699  36.851  14.427
43971W        W17039  24.513  28.888  14.043
43972W        W17040   1.392   3.373  13.563
43973W        W17041  36.975  33.543   3.173
43974W        W17042  18.651   2.535   1.471
43975W        W17043   4.668   9.449   4.980
43976W        W17044  31.057  25.478   3.803
43977W        W17045   6.361  32.699   1.241
43978W        W17046  20.579  39.753   2.440
43979W        W17047  34.610   5.345  10.640
43980W        W17048  15.649  10.062   3.153
43981W        W17049  35.443   6.242  11.087
43982W        W17050  34.535  26.699   1.832
43983W        W17051  31.894  41.607  14.597
43984W        W17052  22.564  33.427   0.860
43985W        W17053  17.372  24.680  14.376
43986W        W17054   5.299  25.432   1.378
43987W        W17055   5.284  22.350   2.837
43988W        W17056   3.361  14.165  14.934
43989W        W17057  39.524   9.431  10.724
43990W        W17058  39.026  10.621  13.330
43991W        W17059   8.379  19.653  10.753
43992W        W17060  28.620  22.681   2.649
43993W        W17061  34.862  16.521   0.747
43994W        W17062  14.348   7.372  11.434
43995W        W17063  32.621  16.862  12.703
43996W        W17064   7.265  28.173  10.640
43997W        W17065  14.786  27.244   3.675
43998W        W17066   7.211   3.288   4.428
43999W        W17067  13.232  18.980  13.532
44000W        W17068  42.663  26.224   3.688
44001W        W17069  17.272  29.973   2.421
44002W        W17070   7.731  23.630   2.147
44003W        W17071   0.325   9.192   4.921
44004W        W17072  37.445   8.924   1.315
44005W        W17073  27.974   4.266  10.767
44006W        W17074  34.142  35.783   0.190
44007W        W17075  36.376  32.173   3.847
44008W        W17076  18.044  43.356  11.622
44009W        W17077  14.194  38.844   4.072
44010W        W17078  29.165  16.715  10.652
44011W        W17079  42.890  11.048   4.355
44012W        W17080   5.921   8.798  13.487
44013W        W17081  29.556  41.539  11.973
44014W        W17082   1.558  44.895  10.719
44015W        W17083  12.684  40.451  11.407
44016W        W17084  33.144  15.179  12.523
44017W        W17085  20.925  41.118   2.363
44018W        W17086  38.553  22.143   4.618
44019W        W17087  21.536  30.196   2.503
44020W        W17088  32.985  39.833  11.636
44021W        W17089  38.046   0.334  14.687
44022W        W17090  12.297   2.992   2.485
44023W        W17091  43.828  41.599  11.479
44024W        W17092  32.354  32.583  14.331
44025W        W17093  22.029  20.768   2.925
44026W        W17094   5.814  16.957  12.990
44027W        W17095  28.149  20.021   1.327
44028W        W17096  22.956  17.547  14.305
44029W        W17097  14.818   2.842   3.680
44030W        W17098  35.585   3.321   4.551
44031W        W17099  34.941  24.174   2.874
44032W        W17100  43.475   2.947   1.451
44033W        W17101  41.771  23.622   2.813
44034W        W17102  20.247  30.219  11.063
44035W        W17103   0.435  30.773  13.318
44036W        W17104  29.628   3.719  12.529
44037W        W17105  39.326  13.406   0.924
44038W        W17106  32.616  39.939  14.669
44039W        W17107  31.935  28.097  14.250
44040W        W17108  14.262  37.647  14.979
44041W        W17109  29.956  31.898  13.442
44042W        W17110  40.858  30.497   0.332
44043W        W17111  36.535  23.590  11.480
44044W        W17112  20.840  27.021  11.466
44045W        W17113   8.890   0.386   0.520
44046W        W17114  40.378  39.924  11.932
44047W        W17115  34.458  13.701   4.627
44048W        W17116   0.421  18.684  13.382
44049W        W17117   5.307  36.574   0.538
44050W        W17118  31.151  20.631  11.184
44051W        W17119  29.731  39.549  12.281
44052W        W17120  19.719  35.960   0.761
44053W        W17121  14.116  20.461  12.780
44054W        W17122  24.686  14.758  12.298
44055W        W17123   7.337  39.381   4.214
44056W        W17124  10.580  22.103  12.503
44057W        W17125   9.822   0.789   0.046
44058W        W17126  33.294  43.024   5.064
44059W        W17127  13.106  11.281  14.479
44060W        W17128   3.049  18.112   4.470
44061W        W17129  22.491  33.056  12.936
44062W        W17130  33.487   2.704  12.375
44063W        W17131   4.151  20.782   0.464
44064W        W17132  19.136  17.899  11.456
44065W        W17133  30.982   6.881  13.714
44066W        W17134  21.093  31.150  12.145
44067W        W17135  37.112  36.667   1.701
44068W        W17136  42.856   5.479  12.677
44069W        W17137  28.480  42.802  13.456
44070W        W17138   5.945   0.278  11.494
44071W        W17139  26.585  31.816   3.322
44072W        W17140  31.476  24.701  13.097
44073W        W17141  39.079  20.092  12.356
44074W        W17142  32.116  38.816   1.393
44075W        W17143  43.320  19.752   1.226
44076W        W17144  33.007  28.275   5.036
44077W        W17145   2.975  16.788  12.936
44078W        W17146  26.886  25.216   2.766
44079W        W17147  38.044  18.718   1.485
44080W        W17148  18.024   9.675   4.170
44081W        W17149   4.925  38.768   2.779
44082W        W17150  29.856   3.421  11.648
44083W        W17151  12.584  36.264  11.116
44084W        W17152  44.068  42.883  12.833
44085W        W17153  44.836  42.561   4.159
44086W        W17154  24.662   7.215  11.439
44087W        W17155  39.486  41.558  10.646
44088W        W17156  30.598  28.373  13.377
44089W        W17157  35.324  28.155   2.395
44090W        W17158  37.253  35.256   1.190
44091W        W17159   2.830   7.318  13.463
44092W        W17160  33.229  41.559   1.691
44093W        W17161  19.051   1.636   3.918
44094W        W17162  43.999   8.986  14.410
44095W        W17163  41.394  10.317  13.426
44096W        W17164  22.024  28.803  13.888
44097W        W17165   9.215  17.309   0.308
44098W        W17166  19.063  39.936  13.938
44099W        W17167  37.418   6.429   0.360
44100W        W17168  21.648  33.553  12.882
44101W        W17169  19.540  39.964   1.230
44102W        W17170  13.858  17.370  13.039
44103W        W17171  36.176  21.252  13.117
44104W        W17172  18.344  43.786  11.635
44105W        W17173  41.881  35.690   1.836
44106W        W17174  30.461  19.440  13.917
44107W        W17175  13.339  14.826  12.473
44108W        W17176  23.737  41.725  12.026
44109W        W17177  44.456   7.232   2.269
44110W        W17178  42.723  36.396   0.486
44111W        W17179  17.715  35.045  14.940
44112W        W17180  10.207  38.834  13.936
44113W        W17181  11.575  33.932   4.276
44114W        W17182  43.810  36.949   1.931
44115W        W17183  30.962  24.722  12.993
44116W        W17184  16.817   1.372  13.869
44117W        W17185  12.506  13.784   1.278
44118W        W17186  35.488   4.425  10.660
44119W        W17187  29.088  35.740  10.945
44120W        W17188  33.027  26.715   2.208
44121W        W17189  12.267  31.789  13.415
44122W        W17190  21.159  27.580   3.137
44123W        W17191  29.716   6.988  11.035
44124W        W17192   6.941  11.185  13.740
44125W        W17193  26.963  35.633   4.216
44126W        W17194   3.322  37.793   3.885
44127W        W17195  21.764   0.548  10.631
44128W        W17196  19.732  17.189  12.506
44129W        W17197  16.600  13.512   4.364
44130W        W17198  15.233  36.546   1.912
44131W        W17199  16.821   2.699  12.431
44132W        W17200  12.993  32.440  14.834
44133W        W17201  26.041  43.735   1.012
44134W        W17202  22.016   9.798   3.177
44135W        W17203  18.802   9.371  14.010
44136W        W17204   7.316  12.357   2.757
44137W        W17205  34.042  13.822   2.234
44138W        W17206  10.692  27.034  10.925
44139W        W17207   0.832   8.651   0.978
44140W        W17208  34.077  34.100  10.594
44141W        W17209  39.571  38.324  11.556
44142W        W17210  38.325  12.847  14.815
44143W        W17211  11.876  28.204   4.280
44144W        W17212  30.928  23.282   3.668
44145W        W17213   9.839   8.966   3.667
44146W        W17214  32.228  31.581  11.625
44147W        W17215  37.391  32.429   3.842
44148W        W17216   2.339  15.179   0.773
44149W        W17217  24.560   9.422  14.741
44150W        W17218   4.275  22.397  12.577
44151W        W17219   3.594  31.881   4.569
44152W        W17220  40.202   8.164  10.758
44153W        W17221  16.271   9.253   3.487
44154W        W17222  27.101  39.288  12.098
44155W        W17223  19.311  38.051  13.566
44156W        W17224  23.128  36.003   1.958
44157W        W17225  36.251  18.166   3.682
44158W        W17226   6.529  31.954   4.567
44159W        W17227  21.719  36.456  11.234
44160W        W17228  37.086   3.785   1.773
44161W        W17229  40.327  34.155   2.692
44162W        W17230  21.161  41.776   4.991
44163W        W17231  19.140  23.537  13.483
44164W        W17232  44.743   0.709   3.377
44165W        W17233  43.779   6.947   4.627
44166W        W17234  14.314  27.764  12.594
44167W        W17235   2.823  17.893  14.482
44168W        W17236  14.395  41.100  13.487
44169W        W17237  14.374  22.230   0.767
44170W        W17238   9.245  13.624   1.829
44171W        W17239  29.088   3.147  13.331
44172W        W17240   2.421  42.388   4.362
44173W        W17241   5.313  36.075   5.330
44174W        W17242  11.995  36.328   4.029
44175W        W17243  29.580  16.480  13.854
44176W        W17244  29.982   4.374  11.678
44177W        W17245  14.725  32.175  14.857
44178W        W17246  22.431  42.488  11.981
44179W        W17247   4.237   9.591  14.790
44180W        W17248   9.166  29.158   0.089
44181W        W17249  39.794  41.258  13.386
44182W        W17250   3.470   4.639  11.557
44183W        W17251  20.674  35.139  14.485
44184W        W17252  14.071   5.524   9.949
44185W        W17253  32.633  22.249  11.091
44186W        W17254   6.427   9.310   0.222
44187W        W17255   6.140  32.655  12.042
44188W        W17256  33.843  27.098  14.018
44189W        W17257  43.605   2.278  13.598
44190W        W17258  18.994   5.319   2.401
44191W        W17259   6.922   6.964  10.633
44192W        W17260  15.801  30.709  11.886
44193W        W17261  22.211  29.240   2.790
44194W        W17262  21.831  40.366  11.993
44195W        W17263  35.945  33.172  14.476
44196W        W17264  28.062  28.775  12.934
44197W        W17265  35.966   6.424   4.095
44198W        W17266  36.487  17.731  10.749
44199W        W17267  26.683  18.590   1.604
44200W        W17268  13.655  44.921  10.731
44201W        W17269  30.140  15.572  12.426
44202W        W17270  13.527   2.401   4.565
44203W        W17271   7.117  28.421   3.853
44204W        W17272  20.735   0.518   0.473
44205W        W17273  28.665  17.553  10.760
44206W        W17274   3.582  39.453  11.693
44207W        W17275  35.029  27.173   0.373
44208W        W17276  42.474  10.288   0.942
44209W        W17277  42.193  19.185   0.399
44210W        W17278  44.852   4.884   2.417
44211W        W17279  39.669   1.947   2.666
44212W        W17280  13.811  21.154   1.833
44213W        W17281  15.739  30.195  11.940
44214W        W17282  40.904  37.712   0.537
44215W        W17283  42.420  20.548   2.069
44216W        W17284  42.464   5.957   3.312
44217W        W17285  41.341   9.815   4.797
44218W        W17286  38.248  42.743   0.969
44219W        W17287  17.648  17.230  10.709
44220W        W17288  33.520  22.016  13.496
44221W        W17289   0.883  30.021  13.551
44222W        W17290  19.770   7.753  11.991
44223W        W17291  16.738  35.048   4.538
44224W        W17292  20.779  12.281  14.539
44225W        W17293  33.569  14.087   1.275
44226W        W17294  32.553  37.540  12.384
44227W        W17295  28.256  31.376  11.147
44228W        W17296  38.981  24.509  11.633
44229W        W17297   1.775   2.390  13.324
44230W        W17298   2.618  28.791  13.133
44231W        W17299  38.121  24.577  11.192
44232W        W17300  11.702  26.177  12.370
44233W        W17301  22.988  29.094   0.374
44234W        W17302  44.202   1.258  11.274
44235W        W17303  32.168   5.261  13.876
44236W        W17304  13.623  13.406   3.704
44237W        W17305  27.989  12.763   1.708
44238W        W17306  37.598  43.814   1.246
44239W        W17307  40.989  31.822  13.847
44240W        W17308   9.624   8.361  10.934
44241W        W17309   0.907  34.457  11.148
44242W        W17310  38.858  16.777  13.318
44243W        W17311  10.279  14.268   0.575
44244W        W17312  31.378  12.458  12.254
44245W        W17313  35.286  42.006  14.873
44246W        W17314  16.830   4.462  14.085
44247W        W17315  10.731  36.438   4.314
44248W        W17316  22.210  44.491  14.809
44249W        W17317   6.184  44.766  11.510
44250W        W17318  20.523  38.875  13.292
44251W        W17319  34.016  10.399  13.871
44252W        W17320  16.615  27.849  10.736
44253W        W17321  38.753   7.318  10.721
44254W        W17322   5.440  42.049   4.545
44255W        W17323  28.473  20.580  10.428
44256W        W17324  12.617  38.964  13.445
44257W        W17325   8.734  17.506   3.278
44258W        W17326  17.713   9.481   2.310
44259W        W17327   6.891  43.784   4.232
44260W        W17328   2.700   8.761   3.187
44261W        W17329  25.185  21.301   3.807
44262W        W17330  41.819  30.613   4.580
44263W        W17331   6.904  11.608  11.992
44264W        W17332   2.879  40.372  14.480
44265W        W17333  36.339  11.407   1.373
44266W        W17334   5.810  18.772  12.634
44267W        W17335  36.457   6.881  12.042
44268W        W17336  28.123   3.649  12.127
44269W        W17337  42.245  30.952   3.344
44270W        W17338  42.452   4.320   2.441
44271W        W17339  31.056  29.588   5.001
44272W        W17340   3.714  33.968   0.335
44273W        W17341   9.690   4.081   2.653
44274W        W17342   7.724  19.633   4.266
44275W        W17343  26.790  27.454  11.554
44276W        W17344   9.651   7.147   3.569
44277W        W17345  40.929  26.032   3.929
44278W        W17346   0.463   1.185   2.430
44279W        W17347  18.817  36.144   1.261
44280W        W17348   5.352  27.092  12.275
44281W        W17349   7.468  23.441  11.148
44282W        W17350  33.892   5.709   2.597
44283W        W17351  16.579  25.214   1.912
44284W        W17352   5.638  33.717  12.506
44285W        W17353  31.087   3.035  13.793
44286W        W17354   6.939  12.698   4.318
44287W        W17355  13.154  19.801  13.933
44288W        W17356  44.749  25.184   2.287
44289W        W17357  22.940  24.679   2.761
44290W        W17358  33.063  33.001   4.670
44291W        W17359   9.257  32.709  13.560
44292W        W17360   9.193  44.870   0.238
44293W        W17361   3.342  23.495  10.964
44294W        W17362  25.191  19.786  11.457
44295W        W17363  12.230  16.826   2.640
44296W        W17364   3.801  28.437  11.958
44297W        W17365  34.600  40.138  14.399
44298W        W17366  30.137  38.442   1.284
44299W        W17367  25.288  28.142   3.234
44300W        W17368   5.189   8.106   0.469
44301W        W17369   3.559  26.051   2.775
44302W        W17370  27.102   8.873   5.126
44303W        W17371   3.310  10.586   0.391
44304W        W17372  17.265   5.115   1.092
44305W        W17373  14.590  34.646   2.357
44306W        W17374  16.763  38.050   4.329
44307W        W17375  23.360  37.147   2.178
44308W        W17376  29.502  37.458   3.195
44309W        W17377  40.925  24.607  11.887
44310W        W17378  24.131  19.060  11.626
44311W        W17379  42.847  11.873  14.580
44312W        W17380  22.881  19.669   4.987
44313W        W17381  22.001  10.819   3.300
44314W        W17382  41.863  24.074  12.670
44315W        W17383  38.887  25.579  14.366
44316W        W17384  37.031   6.863  13.318
44317W        W17385  38.799  31.363  10.318
44318W        W17386   0.860  35.071   5.085
44319W        W17387   1.047  22.984   4.246
44320W        W17388   8.458  24.025  12.492
44321W        W17389  10.861  41.306  12.384
44322W        W17390  22.492  27.509   4.545
44323W        W17391  43.819   2.502  14.932
44324W        W17392  34.677  21.299  10.706
44325W        W17393  42.970  14.558   3.720
44326W        W17394  44.304  38.444   4.764
44327W        W17395  13.502  41.952  13.787
44328W        W17396  22.148  19.890   0.651
44329W        W17397  32.391  19.586   3.236
44330W        W17398  20.768  36.147  14.473
44331W        W17399  39.428  20.212  11.140
44332W        W17400  21.156  43.715   9.656
44333W        W17401  18.640  42.032   0.301
44334W        W17402  20.383  23.552  11.311
44335W        W17403  32.158  20.535  11.294
44336W        W17404  40.121  36.588  12.019
44337W        W17405  24.017   7.898  11.665
44338W        W17406  27.209   9.424  12.869
44339W        W17407  30.680  22.143  12.340
44340W        W17408   1.217   0.889  14.658
44341W        W17409  41.330  30.551  14.049
44342W        W17410  41.477  24.814  12.532
44343W        W17411  17.076  20.257   4.584
44344W        W17412  36.449   8.111  13.476
44345W        W17413   8.782  16.018   3.357
44346W        W17414  14.695   7.216  10.166
44347W        W17415  42.113   3.421   1.986
44348W        W17416  20.493  31.586  12.932
44349W        W17417  24.009  15.306   4.166
44350W        W17418  41.476  44.812  14.962
44351W        W17419  23.587  25.197   3.123
44352W        W17420  33.995  16.535  14.344
44353W        W17421   7.135  30.396  11.136
44354W        W17422   0.735  25.474   4.400
44355W        W17423  22.462  42.946   2.352
44356W        W17424  35.621  31.611  14.814
44357W        W17425  36.992  28.596   4.034
44358W        W17426   2.728   1.402  12.830
44359W        W17427   3.480   5.949   1.836
44360W        W17428   6.332  32.529   0.742
44361W        W17429  22.580  34.054   1.005
44362W        W17430  32.389  29.225  12.039
44363W        W17431   9.316  18.783  14.987
44364W        W17432   1.188  14.611  10.706
44365W        W17433   9.223   0.270   4.117
44366W        W17434   5.207  19.110   1.586
44367W        W17435  33.986  16.295   1.330
44368W        W17436  10.376  35.456   2.008
44369W        W17437  15.993  15.976  10.035
44370W        W17438   9.062   6.290  13.461
44371W        W17439  43.711  18.022  10.095
44372W        W17440  10.838  29.093   3.914
44373W        W17441  18.129   2.342   2.136
44374W        W17442   4.305  19.022   3.453
44375W        W17443  27.606  27.954   0.992
44376W        W17444  27.546  19.108   2.385
44377W        W17445   3.908  20.683   3.191
44378W        W17446  29.537  21.726   3.897
44379W        W17447  22.649  30.468   0.773
44380W        W17448  31.337  16.710   4.350
44381W        W17449  10.642  42.223  10.550
44382W        W17450   9.284  23.599  14.238
44383W        W17451  27.850  13.194  12.439
44384W        W17452  20.532  44.684   0.408
44385W        W17453   6.282  19.696  13.402
44386W        W17454  40.569  24.079  14.510
44387W        W17455  28.057  16.019  14.855
44388W        W17456  36.073  17.301   1.945
44389W        W17457  30.922  26.713  13.091
44390W        W17458  35.947  18.807   0.425
44391W        W17459  24.313  10.157  14.106
44392W        W17460   2.374  29.073  13.531
44393W        W17461  14.189  14.536   0.158
44394W        W17462  20.046  10.332   0.215
44395W        W17463  26.965   7.390   4.540
44396W        W17464  34.555   0.220  12.450
44397W        W17465  18.575  16.786  14.051
44398W        W17466  15.349  44.245  12.619
44399W        W17467  11.660   8.402  11.600
44400W        W17468  13.301  22.713  11.698
44401W        W17469  27.600   6.189  10.693
44402W        W17470  40.008  13.416  11.911
44403W        W17471   9.378  43.425   4.172
44404W        W17472  19.044  30.939  12.333
44405W        W17473  38.574  10.384  11.155
44406W        W17474  43.805  17.197   4.537
44407W        W17475  24.962  31.009  12.174
44408W        W17476  34.089  32.404  11.623
44409W        W17477  35.490  22.698   4.872
44410W        W17478  42.751  19.166   1.162
44411W        W17479  26.212  11.189   0.840
44412W        W17480  30.258   1.306   0.519
44413W        W17481  22.260  25.293   3.139
44414W        W17482  14.956  30.887  11.242
44415W        W17483  31.631  40.230   0.440
44416W        W17484  19.523  17.305   1.781
44417W        W17485  34.551   0.737  12.578
44418W        W17486   0.923  42.489  10.902
44419W        W17487   5.130  16.743  12.549
44420W        W17488  27.973   5.354  14.820
44421W        W17489  20.601  39.953   3.761
44422W        W17490  37.276  23.408   2.637
44423W        W17491  31.181   3.489   3.692
44424W        W17492  10.761   5.895   4.542
44425W        W17493  38.224  27.307   1.826
44426W        W17494  28.197   3.510   3.687
44427W        W17495  35.472  43.226   1.776
44428W        W17496   0.557  38.585   4.163
44429W        W17497  24.762  40.402  11.097
44430W        W17498  36.058  15.543   4.905
44431W        W17499  36.621  25.426  13.881
44432W        W17500  41.323  11.283  13.532
44433W        W17501  24.031  12.081  13.047
44434W        W17502  39.877  35.160   1.804
44435W        W17503   6.524  19.737   0.672
44436W        W17504  41.718  31.016  12.918
44437W        W17505  39.031   1.351  13.318
44438W        W17506  36.434  33.631   0.702
44439W        W17507  33.026   9.900   2.486
44440W        W17508  27.752  17.080   0.292
44441W        W17509   6.727  12.094  12.606
44442W        W17510  24.261  19.115  14.459
44443W        W17511   1.492  16.816   0.777
44444W        W17512  24.516   6.374  12.630
44445W        W17513   8.608  21.176  13.503
44446W        W17514  24.591   3.510  10.567
44447W        W17515   4.913  37.099   1.686
44448W        W17516  11.257  23.187  12.085
44449W        W17517  21.105  42.275   4.800
44450W        W17518  23.481   3.797  14.330
44451W        W17519  16.654  41.365   3.770
44452W        W17520   2.203  33.497   1.873
44453W        W17521  16.089  40.311   4.580
44454W        W17522  15.172  27.513  13.642
44455W        W17523  14.750  25.282   2.389
44456W        W17524  40.370   3.278  10.632
44457W        W17525  38.841   9.464  14.089
44458W        W17526  23.729   4.277  14.441
44459W        W17527  41.384  29.422   1.738
44460W        W17528  35.381  42.459  13.408
44461W        W17529  34.616  33.900   2.847
44462W        W17530  28.977  31.392   1.175
44463W        W17531  41.696   9.414   4.753
44464W        W17532   7.421  43.333  11.532
44465W        W17533  37.558  18.496   1.331
44466W        W17534   5.311  19.491   3.377
44467W        W17535   9.023  35.822   2.688
44468W        W17536   3.779  21.052  14.336
44469W        W17537   6.852  34.628  10.728
44470W        W17538   6.724  21.599  14.823
44471W        W17539  40.129  40.515   0.819
44472W        W17540   6.834  10.247   2.846
44473W        W17541   2.422   5.781  11.447
44474W        W17542  25.265   1.797   4.478
44475W        W17543  13.387  12.774  13.775
44476W        W17544  26.680  16.830  10.762
44477W        W17545   2.738  11.987   2.056
44478W        W17546  27.238  21.815   1.750
44479W        W17547  41.270  28.105  10.565
44480W        W17548  43.748  28.881  13.758
44481W        W17549  23.165  19.977  12.010
44482W        W17550  12.659  10.910   1.407
44483W        W17551   9.613  11.734  14.059
44484W        W17552  15.974  43.416   3.216
44485W        W17553  26.076  18.697   4.500
44486W        W17554  21.584  27.561  12.459
44487W        W17555  33.424   2.019  11.053
44488W        W17556   0.713  33.982  11.036
44489W        W17557   1.209  11.265   0.933
44490W        W17558  15.737  40.268   3.299
44491W        W17559  33.936  29.034   3.900
44492W        W17560  35.821  36.495   3.650
44493W        W17561  43.865   0.833  13.817
44494W        W17562  30.514  41.244  13.946
44495W        W17563   7.448  12.808   0.051
44496W        W17564   8.060  38.385   1.974
44497W        W17565  32.639  41.923  11.159
44498W        W17566  44.232  31.410  12.533
44499W        W17567  33.345  23.761   2.093
44500W        W17568   3.957   9.331   0.168
44501W        W17569  40.957   0.308   0.309
44502W        W17570   8.908  15.338   1.232
44503W        W17571  20.085  24.658   0.461
44504W        W17572   7.227  41.052  14.340
44505W        W17573  14.163  34.478  14.415
44506W        W17574  26.959   2.836   3.514
44507W        W17575  10.357  38.486   1.776
44508W        W17576  28.746  30.450   4.453
44509W        W17577   4.636  38.935   4.119
44510W        W17578  41.559  33.404   1.256
44511W        W17579   2.419  23.941  11.471
44512W        W17580  24.948  21.593  12.424
44513W        W17581  26.040  19.608   4.235
44514W        W17582  34.664  14.904  12.989
44515W        W17583   7.094  30.847  13.922
44516W        W17584   7.855  16.393  13.039
44517W        W17585  38.934   1.041   2.221
44518W        W17586  40.441  40.071  14.856
44519W        W17587  38.024  26.530  13.418
44520W        W17588  31.708  20.150   2.338
44521W        W17589  16.212  34.470  12.454
44522W        W17590  27.979  34.992   0.391
44523W        W17591  13.554  19.578   4.603
44524W        W17592  42.024  20.837   2.261
44525W        W17593  34.332  33.986   4.201
44526W        W17594   2.390  29.446  13.905
44527W        W17595  12.054  33.333  10.970
44528W        W17596   9.185  38.812  13.861
44529W        W17597  29.415  11.814   0.441
44530W        W17598  26.247   4.723  13.985
44531W        W17599  23.074  41.893  13.428
44532W        W17600  19.964  38.216   4.433
44533W        W17601  22.374  22.256  10.010
44534W        W17602  11.668  20.263   3.635
44535W        W17603  16.873   1.044   0.873
44536W        W17604   9.748   8.162   3.338
44537W        W17605   8.527   5.513  11.565
44538W        W17606   1.402   1.831   0.466
44539W        W17607  26.438   3.295  13.520
44540W        W17608  16.349  20.196  14.629
44541W        W17609  29.057  15.800  10.204
44542W        W17610  19.741  41.934  11.605
44543W        W17611   5.287  32.745  14.525
44544W        W17612  28.070   2.650  13.999
44545W        W17613   7.872  25.596  13.536
44546W        W17614  15.727  40.936   1.808
44547W        W17615  15.555  36.051   2.453
44548W        W17616  17.824   3.209  14.114
44549W        W17617   0.823  15.509  14.847
44550W        W17618  37.544  33.003   4.969
44551W        W17619  21.570  10.897   1.609
44552W        W17620  16.157  35.441  13.172
44553W        W17621   6.720   8.821  10.271
44554W        W17622  43.214   2.314   2.865
44555W        W17623   7.320  22.980  13.987
44556W        W17624  22.729  38.344   3.792
44557W        W17625  42.812  20.764  14.334
44558W        W17626   7.744   5.276  14.054
44559W        W17627  16.524  12.598   2.184
44560W        W17628  43.546  37.411  10.782
44561W        W17629   7.790   5.169  13.042
44562W        W17630  38.616  26.662   0.898
44563W        W17631  12.668  19.590   2.958
44564W        W17632  27.720  34.482  14.509
44565W        W17633  14.680   3.029   2.270
44566W        W17634  33.011  28.220  14.363
44567W        W17635   8.767  12.678  10.960
44568W        W17636  12.109  21.967   2.774
44569W        W17637  16.744   2.904  11.439
44570W        W17638  26.336  30.812  11.108
44571W        W17639  43.910   1.949   4.532
44572W        W17640   7.483  43.756   0.547
44573W        W17641  24.954  26.231  11.872
44574W        W17642  38.576  28.107   1.953
44575W        W17643  41.502  43.494   4.699
44576W        W17644  26.040  38.730   4.564
44577W        W17645  16.868  10.321  14.039
44578W        W17646  23.090  43.565   1.301
44579W        W17647  41.832  42.458  11.569
44580W        W17648  15.525   5.377   4.190
44581W        W17649  31.707   2.181  13.472
44582W        W17650  40.833   6.899   5.474
44583W        W17651   1.958  24.202   4.093
44584W        W17652  34.843  14.401   4.145
44585W        W17653  40.351   9.332  13.303
44586W        W17654   4.592  39.362  11.644
44587W        W17655  33.147  41.936  11.102
44588W        W17656  26.169   8.558  13.137
44589W        W17657  44.063  43.683  11.926
44590W        W17658  36.092  31.879   4.153
44591W        W17659  30.564  44.866  11.417
44592W        W17660   5.605   1.855   1.867
44593W        W17661  37.542  22.505   1.632
44594W        W17662  19.032  44.246   3.652
44595W        W17663  29.045  19.206  14.010
44596W        W17664  10.725  12.195   0.368
44597W        W17665  44.297  33.145  13.070
44598W        W17666  40.756  34.455  14.516
44599W        W17667   2.196  33.405   3.695
44600W        W17668  31.125  28.660   2.531
44601W        W17669  17.727  39.962  14.067
44602W        W17670  35.388  15.911  10.257
44603W        W17671  27.597  37.363   0.653
44604W        W17672   8.342  27.775   4.535
44605W        W17673  31.990  23.351  13.335
44606W        W17674   9.677  25.709  14.098
44607W        W17675  18.602  29.172  11.937
44608W        W17676  34.033  22.163  13.228
44609W        W17677  29.632   1.378  14.251
44610W        W17678  43.467  32.174   4.855
44611W        W17679   8.569  34.636  14.450
44612W        W17680   5.197  30.979   4.902
44613W        W17681  36.931   2.890  13.850
44614W        W17682   9.826  25.696  12.592
44615W        W17683  16.189  41.089  11.916
44616W        W17684   7.452  24.640   1.352
44617W        W17685  32.902  18.999  12.375
44618W        W17686  30.413   7.930   0.359
44619W        W17687  32.915  12.100  10.449
44620W        W17688  29.788  35.339  12.520
44621W        W17689  43.678   8.511   5.255
44622W        W17690  27.649  33.766   4.174
44623W        W17691  15.701  28.534  14.881
44624W        W17692   1.057  42.255  13.518
44625W        W17693  22.111  19.555  14.723
44626W        W17694   0.978  27.582   3.310
44627W        W17695  11.324  17.582  12.046
44628W        W17696  41.312  42.466  11.567
44629W        W17697   7.909  38.511   3.283
44630W        W17698  38.021  22.564   4.055
44631W        W17699  22.935   8.084   1.845
44632W        W17700  16.247   5.699  14.009
44633W        W17701  41.624  35.339  13.306
44634W        W17702  41.096  42.727  12.422
44635W        W17703   0.604   9.205  13.899
44636W        W17704  22.155   0.999   5.160
44637W        W17705  26.572  37.887   0.251
44638W        W17706   1.803  40.415   3.685
44639W        W17707   1.454  42.878  14.514
44640W        W17708  11.236   4.402  11.169
44641W        W17709  41.372   7.782  13.063
44642W        W17710  31.531   0.818   3.255
44643W        W17711  20.751  15.621   0.439
44644W        W17712  14.918  12.867   1.151
44645W        W17713  13.245  10.923  13.870
44646W        W17714  17.753  38.302   2.798
44647W        W17715  13.964  41.894   5.071
44648W        W17716  32.580  36.108   4.125
44649W        W17717  14.127  18.585  11.669
44650W        W17718  24.120  16.690  14.851
44651W        W17719  15.148  38.872  13.099
44652W        W17720   7.892   1.471  13.845
44653W        W17721  23.199   4.210  14.445
44654W        W17722  28.681  27.564   1.374
44655W        W17723  27.441  17.037   4.127
44656W        W17724  34.297  39.833  11.019
44657W        W17725  43.286   5.457   2.437
44658W        W17726   9.286  40.007   0.363
44659W        W17727  29.553  10.689   2.808
44660W        W17728  27.913  15.707   4.643
44661W        W17729   4.979  40.341  14.532
44662W        W17730  41.855  23.265   2.452
44663W        W17731  21.319  38.659  11.960
44664W        W17732   2.904  43.851   0.772
44665W        W17733  13.361   7.267   3.411
44666W        W17734   1.324  17.141   3.516
44667W        W17735   5.920   4.250  11.527
44668W        W17736   1.271  36.327   0.043
44669W        W17737   2.836   2.473   0.801
44670W        W17738  17.030  36.971  12.015
44671W        W17739  10.081  44.423   0.862
44672W        W17740  21.552  42.530   4.404
44673W        W17741  34.990  17.234  12.586
44674W        W17742  18.612  40.691   0.315
44675W        W17743  29.919  39.582  11.756
44676W        W17744   6.615  26.001   1.402
44677W        W17745   0.714  44.413  11.443
44678W        W17746  34.437  22.117  13.537
44679W        W17747  25.323  34.450  12.951
44680W        W17748  26.629  42.608   4.427
44681W        W17749   4.270  28.953  12.594
44682W        W17750  41.735  37.999  12.661
44683W        W17751  37.258  28.666   0.059
44684W        W17752   3.791  22.196  12.529
44685W        W17753  24.947  34.283  14.387
44686W        W17754   3.893  26.041   3.408
44687W        W17755  36.997  27.103  11.459
44688W        W17756  38.418  44.729  13.349
44689W        W17757  44.336  14.598   4.623
44690W        W17758   7.315  27.598  11.490
44691W        W17759  32.209  40.763   4.082
44692W        W17760   9.778  13.256  14.413
44693W        W17761   4.359  10.234   0.844
44694W        W17762  24.931  32.905  10.612
44695W        W17763  20.825  40.283   1.269
44696W        W17764  20.106   9.643   1.873
44697W        W17765  35.246   8.270   4.921
44698W        W17766  42.596  29.679   1.242
44699W        W17767   5.282   9.311   4.713
44700W        W17768   5.490  20.487  12.443
44701W        W17769  40.860  38.475   3.250
44702W        W17770   7.992  26.033  13.285
44703W        W17771  16.414  34.696   1.335
44704W        W17772  15.126   1.474   3.060
44705W        W17773  29.048   8.910  14.345
44706W        W17774  38.057  35.045   2.942
44707W        W17775  10.809  14.524  12.640
44708W        W17776  11.018  18.353   0.489
44709W        W17777  14.995  20.197  14.377
44710W        W17778  38.385  13.257   2.092
44711W        W17779  11.886   9.736   3.764
44712W        W17780  17.712  37.583   0.832
44713W        W17781   7.504  32.015   0.677
44714W        W17782  44.879  32.495   1.382
44715W        W17783  32.569  29.496  13.470
44716W        W17784   9.150  24.901   1.213
44717W        W17785  21.170  38.983   1.226
44718W        W17786  31.442   8.161  13.861
44719W        W17787   2.452  15.197  12.444
44720W        W17788  21.143  42.999   1.914
44721W        W17789   0.852   8.346   1.461
44722W        W17790  21.135  41.879   3.963
44723W        W17791  25.415  33.703   0.801
44724W        W17792   3.787   7.475  14.817
44725W        W17793   5.155  27.032  12.744
44726W        W17794  26.953  33.892   2.592
44727W        W17795  41.996   7.344  10.690
44728W        W17796  36.239   4.430  13.846
44729W        W17797  43.928  14.901  14.438
44730W        W17798   8.875  12.676   0.161
44731W        W17799  12.731  20.023   1.685
44732W        W17800  44.384  25.127  11.427
44733W        W17801  39.084   2.729   0.036
44734W        W17802  11.093   5.288  12.557
44735W        W17803  25.873  13.727  14.485
44736W        W17804  16.118  42.294  12.905
44737W        W17805  37.577  10.147  10.767
44738W        W17806  44.543  36.046  14.990
44739W        W17807  22.560   2.347  14.398
44740W        W17808  40.578  37.450   2.837
44741W        W17809  18.652  12.282   4.139
44742W        W17810   0.716   1.828  11.421
44743W        W17811  34.899   0.385  11.533
44744W        W17812  41.546  41.796  12.539
44745W        W17813  34.539  41.981  12.635
44746W        W17814  29.991  34.144   2.660
44747W        W17815  31.405   5.683   4.642
44748W        W17816   1.689   7.939  11.115
44749W        W17817  16.492  27.204   3.870
44750W        W17818  20.598  28.415   2.432
44751W        W17819  29.666  25.213  11.226
44752W        W17820  11.260  39.579  12.550
44753W        W17821  40.611  16.544  11.475
44754W        W17822  15.600  38.881   1.870
44755W        W17823  31.077  27.921  12.006
44756W        W17824  33.882   3.952   3.958
44757W        W17825  34.945  37.905  12.297
44758W        W17826  26.684  34.999   3.021
44759W        W17827   1.685  25.721  12.938
44760W        W17828   0.732  16.021  13.064
44761W        W17829  14.133   9.147   2.764
44762W        W17830   4.641  32.505  13.539
44763W        W17831   6.607   7.299   1.289
44764W        W17832  43.319  19.162  12.405
44765W        W17833  44.798  40.058  13.845
44766W        W17834  32.202  31.162  13.728
44767W        W17835   0.674  38.974   2.717
44768W        W17836  14.889  36.843  14.882
44769W        W17837  44.331  26.049  13.499
44770W        W17838  22.921  13.108   0.802
44771W        W17839  42.990  26.532   4.926
44772W        W17840  11.376  25.422  12.864
44773W        W17841  20.906   2.020  12.168
44774W        W17842  14.111  25.560  14.314
44775W        W17843  17.593  30.913  11.276
44776W        W17844  18.267  20.063   1.566
44777W        W17845   0.987  23.508  14.427
44778W        W17846   7.570  40.432  11.680
44779W        W17847  41.752  40.352   4.287
44780W        W17848  21.026   0.186  13.319
44781W        W17849  30.470   4.543  14.978
44782W        W17850  11.726  16.184  12.036
44783W        W17851   4.386  38.532  12.824
44784W        W17852  17.462   3.330  12.327
44785W        W17853  28.442   6.348  11.193
44786W        W17854   5.230  15.523   4.211
44787W        W17855  12.405  37.290   2.217
44788W        W17856  34.508  28.138  11.099
44789W        W17857  41.404  16.723  10.476
44790W        W17858  32.825  21.274   0.304
44791W        W17859  31.726  32.494   3.788
44792W        W17860  29.566   7.325   1.190
44793W        W17861  42.131  20.870   1.297
44794W        W17862   1.484   2.172   3.700
44795W        W17863  37.460  25.906   4.112
44796W        W17864   3.700  14.686   2.889
44797W        W17865  10.352  34.894   3.704
44798W        W17866  44.567  40.390   1.999
44799W        W17867  30.714  21.141  14.095
44800W        W17868  25.254  21.543   3.177
44801W        W17869   8.681  38.923  13.089
44802W        W17870   4.876  13.384  12.392
44803W        W17871   9.648  39.298   9.622
44804W        W17872  26.620  15.895  11.560
44805W        W17873  43.911  21.027   2.400
44806W        W17874  42.367  41.847   4.403
44807W        W17875  21.162   2.672   0.682
44808W        W17876  13.199  36.884   2.451
44809W        W17877  13.440  25.565  13.659
44810W        W17878  26.026  31.654   0.462
44811W        W17879   0.026  11.321  12.097
44812W        W17880  32.974  44.378  10.522
44813W        W17881  36.552  36.181   4.019
44814W        W17882  34.790   7.349   4.919
44815W        W17883   5.389  11.800  11.970
44816W        W17884  25.071  26.362  13.670
44817W        W17885   7.916   4.993   1.941
44818W        W17886  22.445  17.803  14.296
44819W        W17887   6.172  33.114  14.368
44820W        W17888   6.128  17.428  13.508
44821W        W17889  21.295  41.633  14.099
44822W        W17890   1.401   4.292  11.178
44823W        W17891  24.576  25.761   2.269
44824W        W17892   4.662  31.684  11.589
44825W        W17893  18.316   8.247  11.886
44826W        W17894   2.476   0.801   3.724
44827W        W17895  23.245  35.386  12.847
44828W        W17896  12.083  23.129   1.713
44829W        W17897  20.797   1.858   4.473
44830W        W17898  29.438  32.913  14.068
44831W        W17899  29.313   3.377  13.862
44832W        W17900   5.728  33.679   3.301
44833W        W17901  33.048  26.699  12.051
44834W        W17902  41.532  21.674  13.354
44835W        W17903  18.033  42.442  11.985
44836W        W17904  30.852  20.612  10.761
44837W        W17905  28.559  15.643  11.287
44838W        W17906  24.567  37.771   3.763
44839W        W17907   2.974  33.472  13.941
44840W        W17908  12.445  16.732  11.978
44841W        W17909  13.782  22.294   4.117
44842W        W17910  41.337  25.126   4.115
44843W        W17911  22.932  22.279   3.200
44844W        W17912  10.246  41.344  14.703
44845W        W17913   0.017  18.216  11.220
44846W        W17914  26.062  30.613  14.964
44847W        W17915  22.758   3.944   0.934
44848W        W17916  32.150  31.666  13.522
44849W        W17917   9.873  41.081   0.565
44850W        W17918  42.512   0.408   2.076
44851W        W17919  25.344  42.183   3.223
44852W        W17920   8.195  13.801  13.408
44853W        W17921  44.837  37.803   1.972
44854W        W17922  36.595  34.174   1.923
44855W        W17923  13.470  38.160   0.292
44856W        W17924  23.611  44.348   4.285
44857W        W17925  29.870  16.853  13.478
44858W        W17926  27.201  21.648  14.001
44859W        W17927  13.092   5.312   1.656
44860W        W17928  18.994   1.391   1.743
44861W        W17929   5.493  33.446   3.695
44862W        W17930  36.778  16.686  12.897
44863W        W17931  33.162  28.020   3.642
44864W        W17932   3.047  33.959   0.936
44865W        W17933  22.655  27.574   1.780
44866W        W17934  43.548  35.153  13.778
44867W        W17935  13.730  24.035   0.876
44868W        W17936  36.464  41.206   2.292
44869W        W17937  23.995  29.683   2.504
44870W        W17938  32.979   2.884   3.546
44871W        W17939  34.946  35.901  14.919
44872W        W17940  10.731  11.382  11.878
44873W        W17941  29.940  18.587  14.867
44874W        W17942   1.707  41.726  13.770
44875W        W17943  39.404   4.714  11.448
44876W        W17944   9.248  13.152  12.888
44877W        W17945  14.008   5.704   1.306
44878W        W17946   6.913  11.456  11.474
44879W        W17947   6.159   0.906   4.475
44880W        W17948  34.134  42.873  12.092
44881W        W17949  17.595  38.944   3.338
44882W        W17950  39.086  13.120  14.568
44883W        W17951  21.689   4.344   1.342
44884W        W17952  42.727  40.881   0.491
44885W        W17953  43.284  39.219  10.679
44886W        W17954  28.625  11.305  13.614
44887W        W17955  33.541  30.422  10.191
44888W        W17956  16.046  16.556  13.029
44889W        W17957  19.762   0.419  14.512
44890W        W17958  35.456  27.086   4.361
44891W        W17959  43.298  15.661   1.414
44892W        W17960   3.071  37.785  13.569
44893W        W17961  36.454  29.625   2.243
44894W        W17962  19.206  18.771   0.458
44895W        W17963  38.311   3.718   1.342
44896W        W17964  21.232  21.672   1.176
44897W        W17965  29.996  20.312   3.301
44898W        W17966  20.648  19.902   4.263
44899W        W17967   9.139  39.888   4.649
44900W        W17968   6.388  18.182   2.203
44901W        W17969  30.298  22.658   4.599
44902W        W17970  25.011  25.777   0.539
44903W        W17971  25.121  11.913   5.166
44904W        W17972  18.423  16.049   3.838
44905W        W17973   5.885   8.886  12.156
44906W        W17974  11.726  37.781  14.761
44907W        W17975  39.838  13.675  10.648
44908W        W17976   6.795  38.380  14.024
44909W        W17977  36.730  34.772  14.688
44910W        W17978  36.484   5.025  10.694
44911W        W17979  15.631   1.678   2.866
44912W        W17980  20.111  10.330   3.320
44913W        W17981  39.618  29.949  14.037
44914W        W17982  13.122  29.010   1.858
44915W        W17983  11.374  31.086  11.596
44916W        W17984  39.560  33.523   2.435
44917W        W17985  19.623  13.662  12.525
44918W        W17986  29.789  14.632   4.921
44919W        W17987   5.706  41.014  12.649
44920W        W17988  25.059  43.800   0.993
44921W        W17989  17.218   2.757  11.614
44922W        W17990   0.935  43.745   1.317
44923W        W17991  11.316   5.635   0.717
44924W        W17992   8.625  22.514   0.762
44925W        W17993  36.325   1.782  12.342
44926W        W17994  12.483  33.708  14.807
44927W        W17995  25.667  10.146   5.058
44928W        W17996  23.514  21.737   4.421
44929W        W17997   5.681  13.774   4.682
44930W        W17998  23.602  18.989   3.689
44931W        W17999  12.730   5.847   0.529
44932W        W18000   5.195  27.687   0.760
44933W        W18001  41.395  24.519  12.034
44934W        W18002  26.466  42.619  11.869
44935W        W18003   5.783  13.177   4.389
44936W        W18004  41.614  42.459   0.933
44937W        W18005  44.900  27.876   0.887
44938W        W18006  21.145   1.433  13.008
44939W        W18007  41.391  34.090   0.765
44940W        W18008  42.006  38.317   2.602
44941W        W18009  31.573  43.806  10.650
44942W        W18010  25.126  32.984   3.545
44943W        W18011  28.073  28.556  13.438
44944W        W18012  22.186  17.554   0.327
44945W        W18013  15.800  29.464   1.781
44946W        W18014  43.428  40.932  14.262
44947W        W18015  40.342  39.283   0.321
44948W        W18016  20.267   0.907   0.535
44949W        W18017   5.225  31.051  13.571
44950W        W18018  37.760  24.607   2.407
44951W        W18019   8.504  16.088   3.793
44952W        W18020  13.767  16.446  11.075
44953W        W18021  29.059   4.366  13.849
44954W        W18022  37.493  41.257   4.223
44955W        W18023  17.484  20.282   2.072
44956W        W18024  18.054  17.153   1.885
44957W        W18025   4.757  28.743  12.646
44958W        W18026  12.043  44.706  11.906
44959W        W18027  28.483  36.889  13.610
44960W        W18028  38.376  21.562   3.928
44961W        W18029  34.046   6.760   0.960
44962W        W18030  29.431  36.235  11.501
44963W        W18031  33.614  37.549   4.589
44964W        W18032  17.454  43.175  13.943
44965W        W18033  39.445   6.263   4.730
44966W        W18034   6.441  16.772   0.311
44967W        W18035  14.310  38.783   0.449
44968W        W18036  34.120  20.702   1.244
44969W        W18037  13.329  13.796   3.883
44970W        W18038  35.280  19.184   3.383
44971W        W18039  11.431  41.530  13.053
44972W        W18040  27.043   3.198   4.649
44973W        W18041   4.681  15.355   2.113
44974W        W18042  22.715  23.331   0.446
44975W        W18043  25.502   9.477  11.255
44976W        W18044  17.427  31.215   4.859
44977W        W18045  16.933   9.799   0.694
44978W        W18046   4.641  22.689   2.287
44979W        W18047  40.939  38.802  10.779
44980W        W18048  24.047   2.439   3.339
44981W        W18049  26.209  39.472  12.426
44982W        W18050   8.980  10.822   2.343
44983W        W18051  11.730  13.563   0.336
44984W        W18052  11.622  20.794   3.715
44985W        W18053  20.670  40.741  12.851
44986W        W18054  32.991  36.415  11.097
44987W        W18055  34.617  16.029  10.854
44988W        W18056  10.738  33.046   4.590
44989W        W18057  16.093  22.448   3.309
44990W        W18058  30.640   1.411  14.303
44991W        W18059  10.816  36.636   3.846
44992W        W18060  25.524  15.341   3.917
44993W        W18061   6.891  14.197   0.888
44994W        W18062  27.425  38.524  13.739
44995W        W18063   7.038  39.241  14.283
44996W        W18064  33.479   9.714  11.889
44997W        W18065  22.688  38.509  13.845
44998W        W18066  11.630  19.223   1.676
44999W        W18067   9.921   7.910  14.032
45000W        W18068  17.242  36.048  11.479
45001W        W18069   2.542  31.662   4.341
45002W        W18070  23.166  41.926   4.404
45003W        W18071  18.166  13.145   1.574
45004W        W18072  33.110  30.651   1.795
45005W        W18073  40.817  20.641  12.924
45006W        W18074   5.322  40.933   3.335
45007W        W18075  17.739  29.433  11.662
45008W        W18076  29.404  22.267  10.622
45009W        W18077  40.788  43.449  10.562
45010W        W18078  17.849  33.553  14.769
45011W        W18079  34.611  29.692  12.473
45012W        W18080  33.566  22.516   2.859
45013W        W18081  24.120  44.489  11.175
45014W        W18082  30.062  22.269   2.838
45015W        W18083  39.112  17.279  13.288
45016W        W18084  31.974  19.487  11.619
45017W        W18085  26.556  23.216  12.188
45018W        W18086  14.370  28.213   0.735
45019W        W18087  43.395   1.446  13.038
45020W        W18088  33.652   8.301  12.340
45021W        W18089  21.262  15.937   4.127
45022W        W18090  39.412  18.017   4.951
45023W        W18091  25.177  32.548  11.808
45024W        W18092  31.665  20.182   3.235
45025W        W18093  21.700   1.872   4.124
45026W        W18094   1.956  30.686   3.211
45027W        W18095   3.739  29.994  12.929
45028W        W18096   1.334  19.767  10.852
45029W        W18097  26.175   3.378   3.870
45030W        W18098   3.476   8.737   4.947
45031W        W18099   2.900   1.845  11.105
45032W        W18100  44.245   7.760  11.115
45033W        W18101  41.184  34.032  12.225
45034W        W18102  20.506  17.205   4.396
45035W        W18103  41.398  27.461   3.540
45036W        W18104   2.207   8.166   0.866
45037W        W18105  44.896  39.349   4.059
45038W        W18106  33.080  33.706  13.910
45039W        W18107  21.522   7.769   2.670
45040W        W18108  26.477   7.173   2.043
45041W        W18109  27.097  32.194  12.054
45042W        W18110   8.455  29.032   3.771
45043W        W18111  12.617   1.456   4.885
45044W        W18112  42.282  12.649  12.368
45045W        W18113  11.263  28.900   4.121
45046W        W18114  16.270  25.983   4.019
45047W        W18115  34.513  21.080   4.280
45048W        W18116  26.944  15.034   4.128
45049W        W18117   3.987   7.850   4.853
45050W        W18118  19.255  16.888  14.824
45051W        W18119   8.720  25.354   4.968
45052W        W18120   3.953  13.230  14.393
45053W        W18121  40.602  42.531  13.362
45054W        W18122  20.042  24.733  11.646
45055W        W18123  12.136  24.231  11.661
45056W        W18124  36.879  17.495  14.781
45057W        W18125  37.569  12.304  11.867
45058W        W18126  29.030   8.480   2.951
45059W        W18127  24.489  16.539   0.235
45060W        W18128  11.780  17.208  12.482
45061W        W18129  14.506  44.244   3.600
45062W        W18130  26.482  20.999  11.099
45063W        W18131   0.233  25.968  14.414
45064W        W18132   9.645  44.094  12.362
45065W        W18133  21.202   6.269  12.379
45066W        W18134  26.168  19.735  13.473
45067W        W18135   9.250  36.883  10.652
45068W        W18136  14.724  36.030   1.845
45069W        W18137  41.816   1.335  14.738
45070W        W18138   4.546  10.406   4.589
45071W        W18139  31.145   0.667  10.647
45072W        W18140  12.093   6.858   3.846
45073W        W18141  29.997  34.401   4.412
45074W        W18142  23.188  32.023   4.085
45075W        W18143  41.789  16.667  12.475
45076W        W18144  27.056  31.825  11.658
45077W        W18145  39.445  22.606   2.175
45078W        W18146   3.302   4.538   2.381
45079W        W18147  14.186   4.723   3.255
45080W        W18148  31.651  24.297   0.658
45081W        W18149  19.711  13.147   2.895
45082W        W18150   5.754  42.600   0.448
45083W        W18151  12.346  39.283  12.632
45084W        W18152   4.644  44.006   3.952
45085W        W18153  29.073   2.913   2.853
45086W        W18154  34.558  25.718  12.091
45087W        W18155  26.424  15.231  13.555
45088W        W18156  36.789  20.620   0.811
45089W        W18157   2.534  20.682   4.665
45090W        W18158   2.189  37.989  11.036
45091W        W18159  10.379   0.926   2.413
45092W        W18160  13.566   1.990   1.388
45093W        W18161  24.470  34.913   0.193
45094W        W18162  24.477  21.323   0.782
45095W        W18163  13.225  15.661   3.145
45096W        W18164   6.151  28.392   4.519
45097W        W18165  18.370  30.884  10.701
45098W        W18166  30.845  14.377   3.301
45099W        W18167   2.809  10.835   0.433
45100W        W18168  35.535   1.735  14.078
45101W        W18169  22.947  38.892  11.593
45102W        W18170  12.336   7.906   4.219
45103W        W18171  29.135  40.453   2.158
45104W        W18172   7.485   6.814  11.265
45105W        W18173   1.552  13.955   2.984
45106W        W18174  17.677  39.096   4.786
45107W        W18175  10.837   4.920   2.348
45108W        W18176  26.100  41.322  10.315
45109W        W18177  29.943  34.389  13.337
45110W        W18178  13.688   4.680   1.815
45111W        W18179  14.740  18.076  10.654
45112W        W18180  33.506  13.328  12.154
45113W        W18181   1.169  39.581   0.686
45114W        W18182  22.454  41.940   3.661
45115W        W18183   6.359  18.640   3.683
45116W        W18184   4.866  10.139  10.267
45117W        W18185  32.480  10.674  12.047
45118W        W18186  42.765  15.547  11.958
45119W        W18187   2.649  44.793  12.463
45120W        W18188  34.465  28.772   3.255
45121W        W18189   0.572  42.777  14.381
45122W        W18190  34.514  11.711   0.930
45123W        W18191  17.817  43.078  12.941
45124W        W18192  42.811  31.953   4.589
45125W        W18193  20.249  38.484   0.715
45126W        W18194   7.806   5.170   3.364
45127W        W18195  11.363  33.221   0.718
45128W        W18196  30.352   4.136  11.966
45129W        W18197  32.829   6.417   2.544
45130W        W18198  21.672  38.662  12.321
45131W        W18199  31.874  16.042   3.757
45132W        W18200  26.204  19.114   4.226
45133W        W18201  34.898  37.432  11.401
45134W        W18202   8.832  26.873  11.646
45135W        W18203  28.044  34.532   4.638
45136W        W18204  34.942  27.638   2.938
45137W        W18205   7.788  41.225  14.276
45138W        W18206  14.858  24.910  12.563
45139W        W18207   3.068   3.906   0.910
45140W        W18208  10.230  13.947   1.461
45141W        W18209  17.822  38.617   3.739
45142W        W18210  41.739  21.193  10.611
45143W        W18211  42.404  44.505  14.008
45144W        W18212  41.783  43.799   2.690
45145W        W18213  43.436  31.165  11.905
45146W        W18214   3.946  14.124   1.686
45147W        W18215  20.554   4.717  11.370
45148W        W18216   0.547  44.438   0.872
45149W        W18217  29.105  10.745  12.377
45150W        W18218  28.576   0.779  11.919
45151W        W18219  17.155  39.273  10.882
45152W        W18220  39.221  27.944  14.770
45153W        W18221  35.528   4.700  12.011
45154W        W18222  25.867  23.420  10.299
45155W        W18223   4.935   1.181  11.193
45156W        W18224  41.251  33.093  12.870
45157W        W18225  30.165  36.838   2.132
45158W        W18226  15.126   2.953   0.143
45159W        W18227  36.343  15.106  14.359
45160W        W18228  38.075  44.331   0.316
45161W        W18229  40.500  15.756   3.331
45162W        W18230   7.777  30.507   4.233
45163W        W18231   9.815  36.441   4.486
45164W        W18232  24.080   2.253   2.443
45165W        W18233  38.591  15.842  13.413
45166W        W18234   6.991  43.814   0.389
45167W        W18235  39.889  38.266   2.150
45168W        W18236   5.652  16.801  12.528
45169W        W18237  27.715  18.179  10.676
45170W        W18238  10.221  34.894  10.736
45171W        W18239   4.374   3.402   1.924
45172W        W18240  13.069  36.775  12.004
45173W        W18241   5.429   7.608  13.574
45174W        W18242  23.113  43.513   4.670
45175W        W18243  28.456  16.753   1.874
45176W        W18244  16.853   4.734  12.848
45177W        W18245  23.182   4.261  13.036
45178W        W18246  17.167  24.979  12.470
45179W        W18247  22.443  32.219   1.304
45180W        W18248  21.829  20.178   1.455
45181W        W18249  22.904   9.856   2.738
45182W        W18250  25.047   1.928   3.185
45183W        W18251  39.560   8.855   5.019
45184W        W18252  43.698  39.868  12.847
45185W        W18253  10.238  10.283   1.685
45186W        W18254   3.279  22.107  12.262
45187W        W18255  23.674  21.616   1.226
45188W        W18256  25.214  32.613   1.196
45189W        W18257  11.579   6.652  14.424
45190W        W18258  44.227   0.868   3.352
45191W        W18259  24.378  31.711   0.885
45192W        W18260  29.698  17.027  10.147
45193W        W18261  19.489  31.541   2.767
45194W        W18262  10.804  13.146   0.388
45195W        W18263  27.246  27.020   0.463
45196W        W18264  10.776   8.728   0.994
45197W        W18265  30.155  44.453  13.901
45198W        W18266   9.213  10.855  11.570
45199W        W18267  19.570  29.508  13.786
45200W        W18268  20.695  25.447  14.419
45201W        W18269   6.547  10.340  12.874
45202W        W18270   3.159  19.717  12.104
45203W        W18271   9.108  25.164  10.051
45204W        W18272   5.228  13.905  13.511
45205W        W18273   1.458  28.192  14.462
45206W        W18274  17.630  20.611  14.356
45207W        W18275   3.253   9.613   2.294
45208W        W18276  32.018  33.642   2.910
45209W        W18277  13.531  10.753   1.340
45210W        W18278  40.539   8.898   0.506
45211W        W18279  28.482   4.532   4.212
45212W        W18280  21.513  39.171  14.892
45213W        W18281  28.468  19.210  11.050
45214W        W18282  15.808  22.710   1.920
45215W        W18283  27.501   9.071   3.203
45216W        W18284  17.281  40.786   1.622
45217W        W18285  42.413   7.204   4.848
45218W        W18286  10.363  33.600  13.488
45219W        W18287  23.013  18.137   4.825
45220W        W18288  23.739  18.769   1.228
45221W        W18289   2.002  15.166  14.452
45222W        W18290   3.211  22.092   4.554
45223W        W18291  26.315  37.219  14.816
45224W        W18292  32.145  15.040  10.739
45225W        W18293   7.599  13.690   0.279
45226W        W18294   1.038  40.603  11.910
45227W        W18295  22.456  36.952  14.011
45228W        W18296  37.809  16.576   3.609
45229W        W18297  42.580  25.475  11.583
45230W        W18298  43.495  29.109   3.746
45231W        W18299  37.434  15.191  10.715
45232W        W18300  31.041   8.841  11.169
45233W        W18301  18.409   4.860  11.181
45234W        W18302   5.862   0.007   0.934
45235W        W18303  22.012   2.001   3.186
45236W        W18304   5.866  10.420   4.333
45237W        W18305  30.622  32.433   4.540
45238W        W18306   3.111  28.431   0.991
45239W        W18307   1.326  19.285   4.615
45240W        W18308  21.692  41.881   2.559
45241W        W18309  14.751  39.593  11.967
45242W        W18310   9.752  37.908  14.703
45243W        W18311   3.462  29.935   1.042
45244W        W18312  35.385  33.835   1.279
45245W        W18313  22.994  26.408   1.281
45246W        W18314  21.683  38.964   1.306
45247W        W18315  36.249  38.400  13.743
45248W        W18316  20.789   5.228  11.221
45249W        W18317   2.434  12.724  11.720
45250W        W18318  40.215  19.298  11.237
45251W        W18319  31.429  11.333  10.766
45252W        W18320  10.502  40.572  14.807
45253W        W18321   9.731   4.739   1.849
45254W        W18322  15.546  21.426  11.451
45255W        W18323  11.922  19.899   2.177
45256W        W18324  27.816   6.987  14.114
45257W        W18325  28.946  25.821  12.480
45258W        W18326  17.754  27.439   2.685
45259W        W18327  23.216  33.562  14.871
45260W        W18328   7.034   6.709  11.050
45261W        W18329  31.859   1.914  12.098
45262W        W18330  22.008   7.950   2.668
45263W        W18331   9.008  23.741   4.337
45264W        W18332  44.736   4.921  14.514
45265W        W18333  28.169  26.160   4.157
45266W        W18334  32.001  25.245  11.517
45267W        W18335  17.605   7.874  12.974
45268W        W18336  19.238  13.164   3.400
45269W        W18337   5.251  30.517  13.543
45270W        W18338  36.482  23.723  14.771
45271W        W18339  14.881  16.626  12.445
45272W        W18340   1.834  13.120  14.851
45273W        W18341  33.608  37.272   0.770
45274W        W18342  14.803  38.014  11.075
45275W        W18343  14.398  15.023   0.829
45276W        W18344  28.271   5.244  10.710
45277W        W18345  31.058  38.261   1.233
45278W        W18346   9.797   6.319  12.544
45279W        W18347  23.076  23.661  11.978
45280W        W18348  30.861  27.732   0.791
45281W        W18349  13.365   8.914  14.065
45282W        W18350   5.214  13.848   4.961
45283W        W18351  32.199  21.090  10.698
45284W        W18352  20.061   3.512   1.257
45285W        W18353  33.592  25.287   0.181
45286W        W18354  31.682  28.073   0.043
45287W        W18355  19.008  25.080   1.861
45288W        W18356  21.333  41.478   3.247
45289W        W18357  42.764  29.460  11.488
45290W        W18358  10.700   8.145  11.823
45291W        W18359  28.090  43.455   0.311
45292W        W18360  35.062  23.318   2.876
45293W        W18361   3.729   3.798   2.366
45294W        W18362  23.570  24.887   0.500
45295W        W18363   9.916  30.169  12.843
45296W        W18364  36.833  12.030   1.930
45297W        W18365   8.859  33.152   3.168
45298W        W18366  17.322  21.765   4.616
45299W        W18367   3.693  20.197  14.166
45300W        W18368  39.386   3.018   1.992
45301W        W18369  18.043  13.124  10.655
45302W        W18370   3.704  11.205  12.404
45303W        W18371  24.290  17.860  12.974
45304W        W18372  24.482  23.311  12.029
45305W        W18373  27.463  22.580  14.848
45306W        W18374  33.348   4.529   5.199
45307W        W18375   3.882   2.897   3.425
45308W        W18376  41.007  33.432   2.185
45309W        W18377  43.941  21.116   0.882
45310W        W18378   8.751   8.474   3.026
45311W        W18379  17.492   8.827   2.753
45312W        W18380  26.454  42.583  14.119
45313W        W18381  27.106  44.285   4.455
45314W        W18382  37.435  11.883   3.226
45315W        W18383   4.605   6.056  11.424
45316W        W18384  28.000  30.917  11.131
45317W        W18385   8.178  36.840  10.577
45318W        W18386  34.935  22.028  14.940
45319W        W18387  29.445  19.118   3.289
45320W        W18388  27.986   1.791   2.310
45321W        W18389  27.880  10.071   2.693
45322W        W18390  25.159  13.524   1.467
45323W        W18391  38.513   2.932   1.917
45324W        W18392  38.412  32.046  13.944
45325W        W18393  14.604   9.311   0.491
45326W        W18394  25.777  13.272   2.772
45327W        W18395  12.044  21.138   4.593
45328W        W18396  18.070  19.779  13.376
45329W        W18397  39.420  42.926  10.956
45330W        W18398   9.968  18.836   0.792
45331W        W18399  14.281  30.500   0.321
45332W        W18400  16.793  18.125  14.804
45333W        W18401  41.234  35.322  10.787
45334W        W18402   7.865  35.162   1.200
45335W        W18403  42.003  22.524  10.698
45336W        W18404  40.086   1.833   1.748
45337W        W18405  17.662  29.026  10.963
45338W        W18406  18.123  39.334   4.773
45339W        W18407  43.812  19.143  12.899
45340W        W18408  14.831  12.145  10.930
45341W        W18409  31.575  35.846  11.246
45342W        W18410   8.305  23.354  13.077
45343W        W18411  16.791  43.332   1.108
45344W        W18412  21.031  24.786   2.642
45345W        W18413  37.420  29.155  13.395
45346W        W18414  27.916  20.023   3.386
45347W        W18415   1.202  12.979  11.819
45348W        W18416   9.121  22.590   0.647
45349W        W18417  25.562  28.411  14.559
45350W        W18418  37.880  17.205  12.473
45351W        W18419  29.500  32.496   0.417
45352W        W18420  38.349  29.321   0.950
45353W        W18421  24.197  12.306   1.490
45354W        W18422  27.885  21.144  12.737
45355W        W18423   0.829   8.124   1.016
45356W        W18424   9.920  14.184   2.835
45357W        W18425  17.758  16.811   4.063
45358W        W18426  10.913   4.442  14.327
45359W        W18427  29.573  33.487   5.133
45360W        W18428  35.741   2.876   1.420
45361W        W18429  14.745  34.920   1.851
45362W        W18430   6.445  38.806   1.614
45363W        W18431  41.213  38.881   2.166
45364W        W18432   9.192  24.599   4.392
45365W        W18433  24.281  33.896   0.288
45366W        W18434  13.261   5.921  10.388
45367W        W18435  26.034  15.667   5.008
45368W        W18436  30.924   9.825   1.353
45369W        W18437  42.928   5.620   4.297
45370W        W18438   0.279  33.709  12.136
45371W        W18439   4.176  29.055   1.838
45372W        W18440   5.465   7.882  12.682
45373W        W18441  38.431  21.496   0.810
45374W        W18442  13.329  23.438  10.639
45375W        W18443  28.911  15.057  11.828
45376W        W18444  10.248   3.380  13.796
45377W        W18445  10.672   2.482   0.064
45378W        W18446   4.783  20.269   4.331
45379W        W18447  38.574  40.276  13.628
45380W        W18448  17.675  39.554   5.027
45381W        W18449  41.401  33.575  13.023
45382W        W18450  24.591  41.607   0.319
45383W        W18451  18.885  29.451  13.588
45384W        W18452  19.973  39.826  11.971
45385W        W18453   2.507  28.047   5.002
45386W        W18454   7.118  17.263  12.415
45387W        W18455  13.085  31.687   3.424
45388W        W18456   1.001  11.197   1.409
45389W        W18457   2.053  26.511   2.195
45390W        W18458  16.112  26.730  11.590
45391W        W18459   3.352  27.360  12.178
45392W        W18460   2.205   5.130  14.320
45393W        W18461  17.600  42.476   3.749
45394W        W18462  15.326  11.156  13.365
45395W        W18463  36.956  31.654   1.262
45396W        W18464  17.142  23.601  13.332
45397W        W18465  39.991  42.451  14.146
45398W        W18466   3.131  24.522   2.683
45399W        W18467  41.578  15.181  10.661
45400W        W18468  26.164   3.746  12.889
45401W        W18469   4.862  20.063   1.422
45402W        W18470  26.119  11.904   0.512
45403W        W18471  37.538  42.438  12.100
45404W        W18472   5.259   7.211   4.081
45405W        W18473  19.578  23.236  12.812
45406W        W18474  18.775  42.747  12.942
45407W        W18475  33.581  27.670  10.366
45408W        W18476  12.892  37.177  13.380
45409W        W18477  20.195  19.045   1.899
45410W        W18478  40.447  21.816  12.430
45411W        W18479  17.909  16.081  11.415
45412W        W18480  36.995   6.290   2.609
45413W        W18481   2.944  31.713   0.789
45414W        W18482   1.249  40.275   2.538
45415W        W18483  17.254   5.637  13.077
45416W        W18484  44.344  27.472   1.616
45417W        W18485  33.263  38.475   2.209
45418W        W18486  18.299  22.444   0.856
45419W        W18487   0.498  13.474   1.149
45420W        W18488  32.973  28.128  12.482
45421W        W18489  29.091  15.135  10.450
45422W        W18490  34.435  21.565   1.808
45423W        W18491   9.176  12.260   4.517
45424W        W18492   9.264   6.887   1.197
45425W        W18493  11.793  21.318  13.976
45426W        W18494  32.088  37.395   1.426
45427W        W18495  20.023   9.812   4.158
45428W        W18496  21.542  27.928  12.796
45429W        W18497  21.224  31.208  14.606
45430W        W18498  14.344  39.344   1.091
45431W        W18499  21.204  37.425  14.934
45432W        W18500  28.559  36.970  12.115
45433W        W18501   8.245  17.208   0.190
45434W        W18502   7.266  36.349  13.045
45435W        W18503  37.403  39.236   3.145
45436W        W18504   5.781  30.100  14.819
45437W        W18505   7.785  29.862   3.927
45438W        W18506  29.474  34.717  13.893
45439W        W18507  11.140  25.541  10.329
45440W        W18508   2.376  13.596   2.223
45441W        W18509  15.262  16.857  11.685
45442W        W18510   7.201  35.473  13.085
45443W        W18511   6.259  42.042   4.876
45444W        W18512  27.042  32.053  11.181
45445W        W18513   4.233  26.754  13.434
45446W        W18514  38.382  12.724  13.359
45447W        W18515  10.718  31.119   4.422
45448W        W18516  15.051  32.530  10.595
45449W        W18517  24.181   5.811   3.890
45450W        W18518  13.239   3.836  14.417
45451W        W18519  15.991  16.896  14.998
45452W        W18520  35.774  27.476   4.645
45453W        W18521  22.879  39.114   4.183
45454W        W18522  13.293   8.434   4.144
45455W        W18523  39.808   1.376  14.866
45456W        W18524  38.113  20.562   3.174
45457W        W18525  24.864  32.737  11.447
45458W        W18526  15.648  28.671   1.906
45459W        W18527  40.045  25.170  11.348
45460W        W18528   1.923   9.805  14.901
45461W        W18529  40.979   3.795   1.954
45462W        W18530  10.900  15.385  13.853
45463W        W18531   4.267  21.132   4.189
45464W        W18532  28.225  17.706  12.603
45465W        W18533  11.645   8.834  14.834
45466W        W18534  37.879  11.622   0.884
45467W        W18535   5.893  17.281   3.870
45468W        W18536   7.809  16.029   4.620
45469W        W18537  33.328   9.783  14.234
45470W        W18538  14.083  28.163  13.539
45471W        W18539  33.952  15.535   1.748
45472W        W18540  43.767  17.038  12.124
45473W        W18541  26.716  30.695  10.237
45474W        W18542   9.843  19.178  12.969
45475W        W18543  30.909   3.186   2.857
45476W        W18544  28.390  21.660  11.243
45477W        W18545  20.954  28.572   1.460
45478W        W18546  12.577  15.307   1.649
45479W        W18547  40.590   3.734  10.722
45480W        W18548  34.075  14.137   1.376
45481W        W18549  27.081  35.399  12.935
45482W        W18550  40.294  18.321   0.330
45483W        W18551  21.624   6.172  12.680
45484W        W18552  33.835  35.978   1.114
45485W        W18553   4.151  36.323   0.496
45486W        W18554   0.520  15.888  13.509
45487W        W18555   3.143  17.466  10.636
45488W        W18556  26.584  16.440   4.058
45489W        W18557  35.028   6.908   4.747
45490W        W18558  12.153  43.870  10.912
45491W        W18559  37.278  29.516  14.806
45492W        W18560  28.455  11.948   3.890
45493W        W18561  32.564  33.844  13.576
45494W        W18562  19.196  35.531   0.721
45495W        W18563   6.840  41.907  14.384
45496W        W18564  39.834  22.623  12.072
45497W        W18565  34.902   7.405  11.683
45498W        W18566  43.071  44.771  12.096
45499W        W18567  26.063  14.167  11.645
45500W        W18568  21.508  25.226  11.581
45501W        W18569  12.268  21.702  14.542
45502W        W18570  12.952   6.854   4.139
45503W        W18571  22.831   3.756   3.199
45504W        W18572  44.008  25.354  12.172
45505W        W18573  42.249  18.331   3.664
45506W        W18574  20.125  39.290   4.595
45507W        W18575   1.967  40.368  14.043
45508W        W18576  29.745  31.812   1.171
45509W        W18577  40.961  35.898   0.495
45510W        W18578  28.540   1.216  12.193
45511W        W18579  32.365  36.569   4.121
45512W        W18580  21.841  40.418  14.364
45513W        W18581   1.367  37.528   1.671
45514W        W18582  21.131   1.650   1.388
45515W        W18583  30.601   3.010   4.622
45516W        W18584   7.317  41.995  13.100
45517W        W18585   3.139  44.453   4.166
45518W        W18586   7.236  38.548  12.324
45519W        W18587  32.032   6.036  13.378
45520W        W18588  18.562  12.367   3.244
45521W        W18589  44.069  22.638  11.258
45522W        W18590  43.475  41.264   1.238
45523W        W18591   1.229  40.049  13.479
45524W        W18592   7.858  19.972   1.782
45525W        W18593  12.331  20.683  13.434
45526W        W18594   9.506  35.546   0.688
45527W        W18595  29.448  36.882  14.533
45528W        W18596  32.054   7.307  12.797
45529W        W18597  21.011  25.560  11.172
45530W        W18598  22.298   5.735   2.823
45531W        W18599  36.617  20.732   2.380
45532W        W18600  42.771  19.322  11.227
45533W        W18601  18.527  15.520   1.448
45534W        W18602  19.087   0.235  10.907
45535W        W18603  28.132   4.527  11.169
45536W        W18604   5.784   5.218  12.464
45537W        W18605   5.268  19.310  14.446
45538W        W18606  33.125  17.077  11.866
45539W        W18607   0.198  23.407   4.124
45540W        W18608  32.370  28.122   2.139
45541W        W18609  10.430  32.863  13.941
45542W        W18610   6.911  16.021   0.505
45543W        W18611  44.556  37.099   0.891
45544W        W18612  40.524  42.320   3.686
45545W        W18613  20.874  10.672   2.393
45546W        W18614  11.900  11.655   5.081
45547W        W18615  44.347   7.246   3.776
45548W        W18616  29.083  25.587  10.519
45549W        W18617  43.049  19.537  10.402
45550W        W18618  35.135  30.093  12.051
45551W        W18619  22.074  37.927  13.024
45552W        W18620  21.467   7.433   3.649
45553W        W18621  20.157  42.640  10.626
45554W        W18622  41.370  37.916  13.037
45555W        W18623  37.083   4.360  13.041
45556W        W18624  23.152  38.390   2.568
45557W        W18625  40.286  15.533   2.449
45558W        W18626  15.081   3.466   0.427
45559W        W18627   1.379  37.492  14.751
45560W        W18628  35.913  43.293   3.679
45561W        W18629   0.378  43.322  10.584
45562W        W18630  13.720  38.070  13.308
45563W        W18631  31.589  12.910   2.758
45564W        W18632  13.031  13.657  10.607
45565W        W18633  26.009  26.149   3.709
45566W        W18634  27.137  28.521  10.741
45567W        W18635  16.151  42.774   4.604
45568W        W18636  25.923  12.582   1.731
45569W        W18637   7.694  12.213   1.447
45570W        W18638  23.427   5.283   3.743
45571W        W18639   6.898  11.086  12.406
45572W        W18640  15.267   0.049   3.269
45573W        W18641  23.355  10.400  13.384
45574W        W18642  21.356  10.445  13.465
45575W        W18643  37.295  23.529   3.993
45576W        W18644  44.984   8.691  10.597
45577W        W18645  34.483  24.022   3.611
45578W        W18646   2.806  32.970   3.861
45579W        W18647  38.591   0.734  13.442
45580W        W18648  22.219  36.058  11.937
45581W        W18649  25.244  14.033   1.331
45582W        W18650  32.112  36.502  10.612
45583W        W18651  12.309   8.180  14.439
45584W        W18652  16.577  18.644   2.165
45585W        W18653  23.622   0.948   0.776
45586W        W18654  24.082  23.114   2.332
45587W        W18655  21.172  37.512   4.840
45588W        W18656  30.992  34.845  13.332
45589W        W18657  36.642  43.243  13.343
45590W        W18658   4.801  22.728   2.778
45591W        W18659  37.103   1.997  10.708
45592W        W18660   3.204  41.365  12.454
45593W        W18661   3.374  23.929   1.164
45594W        W18662  10.670  28.334  14.375
45595W        W18663  12.200   6.413  10.696
45596W        W18664  36.710  41.560  11.171
45597W        W18665   5.226   0.861  13.857
45598W        W18666  20.101  22.039  11.078
45599W        W18667  36.260  28.870  14.405
45600W        W18668  32.542  37.019  14.308
45601W        W18669  23.659  17.652   4.082
45602W        W18670  39.076   4.303   4.571
45603W        W18671  21.769  44.809  10.094
45604W        W18672  29.446  16.393  11.477
45605W        W18673  43.461  15.726   3.192
45606W        W18674   8.103   7.377   1.133
45607W        W18675  29.702   1.814   0.479
45608W        W18676  15.014   2.159   2.391
45609W        W18677   6.500  39.460  11.383
45610W        W18678  27.861   1.767  13.902
45611W        W18679  10.577  24.016  12.343
45612W        W18680  10.509  43.575   4.182
45613W        W18681  37.213  12.311  12.752
45614W        W18682  14.031  21.271   1.312
45615W        W18683  19.113  38.307  11.184
45616W        W18684  10.664  12.740   3.046
45617W        W18685  13.560  33.982  11.571
45618W        W18686  11.271  33.036  13.862
45619W        W18687  14.119  32.325  11.792
45620W        W18688  29.659  41.656  13.044
45621W        W18689  33.014  11.873   2.803
45622W        W18690  31.691  19.607   4.006
45623W        W18691   0.011  29.656   4.062
45624W        W18692  14.662  26.833   3.295
45625W        W18693   2.103   5.425   0.771
45626W        W18694  15.753  11.891   4.192
45627W        W18695  11.069  15.344   1.805
45628W        W18696  44.507   0.392  12.034
45629W        W18697   7.694   0.215   2.155
45630W        W18698  30.073  17.695  14.537
45631W        W18699  21.070  14.675   3.644
45632W        W18700  28.683   5.419   3.846
45633W        W18701   1.365  31.557  12.528
45634W        W18702  37.555  28.486  10.600
45635W        W18703   4.200  21.332  14.162
45636W        W18704  14.302  19.210   3.925
45637W        W18705  20.113   9.124   1.648
45638W        W18706  15.687  11.133   2.118
45639W        W18707  15.842   9.515  11.090
45640W        W18708  43.391  41.297   0.250
45641W        W18709  23.942  16.820   1.360
45642W        W18710   1.692  36.114  14.397
45643W        W18711  17.501   0.420   4.194
45644W        W18712  11.990  44.739  13.077
45645W        W18713   2.270  39.749  13.687
45646W        W18714  10.378   8.737  11.566
45647W        W18715  43.047  18.223   4.185
45648W        W18716  37.439  10.259  10.281
45649W        W18717  18.563  20.720   1.498
45650W        W18718  29.483  30.722   0.733
45651W        W18719  26.855  15.674   4.474
45652W        W18720  35.957   7.412   1.735
45653W        W18721  19.950  41.092  14.290
45654W        W18722  23.753   1.473   3.614
45655W        W18723  29.507  12.794  13.583
45656W        W18724  41.502  44.012  12.119
45657W        W18725  38.929   2.907   2.265
45658W        W18726  26.913  14.816  14.829
45659W        W18727  39.346   2.394   3.329
45660W        W18728  21.553   0.613  10.166
45661W        W18729  38.061  29.592   3.798
45662W        W18730  34.760  21.097  12.102
45663W        W18731   2.559  43.278   3.511
45664W        W18732  34.675  44.208  13.074
45665W        W18733  30.951  13.239  14.861
45666W        W18734  15.225  18.350   4.662
45667W        W18735  13.224  31.995  14.654
45668W        W18736  24.204  16.684   2.307
45669W        W18737  25.556  35.634   0.569
45670W        W18738  13.839  33.075  14.047
45671W        W18739  10.660  20.441  13.137
45672W        W18740  17.118  22.011   0.362
45673W        W18741  33.064  26.734   3.163
45674W        W18742  38.737  14.225   2.127
45675W        W18743  34.874   2.800  12.793
45676W        W18744  15.449   9.576  12.004
45677W        W18745   7.808   6.423   3.586
45678W        W18746   3.909  37.497  10.556
45679W        W18747   7.365  22.678   2.825
45680W        W18748  40.421  24.221  11.555
45681W        W18749  39.147  32.550  13.245
45682W        W18750  24.365  26.448   4.177
45683W        W18751  12.133   5.855   2.311
45684W        W18752  11.891  19.181  13.085
45685W        W18753   7.174  23.614   2.138
45686W        W18754  24.123  40.518  13.560
45687W        W18755   0.789  43.063   1.863
45688W        W18756  44.386   2.593  10.565
45689W        W18757   7.693  30.440  13.482
45690W        W18758   6.915  25.182   1.848
45691W        W18759   2.760  33.587   2.647
45692W        W18760  29.428  11.661  12.597
45693W        W18761  11.263  32.116   3.132
45694W        W18762   4.749  33.486  11.556
45695W        W18763  38.983  43.053  11.164
45696W        W18764  25.116  43.545   4.742
45697W        W18765   6.175   9.740   3.815
45698W        W18766  39.332   7.637   3.240
45699W        W18767   4.810  30.931  12.886
45700W        W18768  17.802  10.407  12.179
45701W        W18769  24.424  21.609  11.500
45702W        W18770  34.264  12.161  14.994
45703W        W18771   1.752  12.177   1.797
45704W        W18772  37.035  17.696  10.725
45705W        W18773   3.662  22.361   4.383
45706W        W18774  13.841  37.675   2.444
45707W        W18775  31.847  33.575   3.788
45708W        W18776   4.677  23.567   2.153
45709W        W18777  22.237  17.580  12.434
45710W        W18778  33.415  43.050   1.328
45711W        W18779   3.463   4.677   3.774
45712W        W18780  34.655  30.094  10.650
45713W        W18781  42.020   1.764   4.911
45714W        W18782  18.173   9.623  14.930
45715W        W18783   6.960   1.004   2.475
45716W        W18784  40.320   9.116  13.766
45717W        W18785  18.671  18.803   3.771
45718W        W18786  34.606  33.333  10.286
45719W        W18787  13.772  32.351   3.782
45720W        W18788  35.567  35.948   2.958
45721W        W18789  36.030   1.482  11.551
45722W        W18790   1.206  42.096  11.852
45723W        W18791   9.769  20.486  11.186
45724W        W18792  41.952   0.308   5.016
45725W        W18793  25.029   4.814  14.458
45726W        W18794  20.964   5.190  12.062
45727W        W18795   4.460   8.379   5.017
45728W        W18796  23.201  38.343  11.129
45729W        W18797  29.955   7.758  11.670
45730W        W18798  24.973  37.030   3.121
45731W        W18799  19.246  29.616   0.309
45732W        W18800  28.909   5.134  13.348
45733W        W18801  12.588  37.869  13.954
45734W        W18802  21.212  23.813  12.933
45735W        W18803  26.937  41.355   2.249
45736W        W18804   3.931  26.954  14.893
45737W        W18805  23.950  28.620  10.815
45738W        W18806   5.464   0.317   1.029
45739W        W18807  12.359  27.546  10.521
45740W        W18808  37.313  11.710  10.709
45741W        W18809  32.436   7.417  11.547
45742W        W18810  22.322  21.498   2.022
45743W        W18811   6.231  18.300  13.295
45744W        W18812  21.137   2.307   5.164
45745W        W18813  13.570  22.542  12.977
45746W        W18814   5.503   7.088  12.019
45747W        W18815  41.925   4.402  14.690
45748W        W18816   7.391  39.295   3.265
45749W        W18817  25.054   2.751  12.878
45750W        W18818   0.250  16.708   2.179
45751W        W18819  29.395   5.995  12.330
45752W        W18820  41.267  25.022  11.962
45753W        W18821  29.182  43.941   1.427
45754W        W18822  12.328  26.021   3.335
45755W        W18823   4.783  28.982   4.214
45756W        W18824  43.860  34.519   1.226
45757W        W18825  44.340  27.844   1.212
45758W        W18826  12.264  22.489  13.081
45759W        W18827  19.548  18.154  14.249
45760W        W18828  26.676  11.330   1.077
45761W        W18829   1.950  35.000  10.642
45762W        W18830   5.896   8.192   1.156
45763W        W18831  15.797  19.770   1.854
45764W        W18832  44.865  26.270  14.608
45765W        W18833   0.847   1.261  12.686
45766W        W18834  22.469   4.148   0.012
45767W        W18835  11.687   4.155  13.821
45768W        W18836  27.968   3.481   0.854
45769W        W18837  19.562  34.508   3.367
45770W        W18838  25.898  23.101  14.310
45771W        W18839   4.815   4.913   1.409
45772W        W18840  34.521   5.306  11.142
45773W        W18841  33.484   7.912  11.455
45774W        W18842  21.270  12.056  11.213
45775W        W18843  17.440  38.953   0.311
45776W        W18844  17.319  21.598   4.128
45777W        W18845  14.016  35.645  12.051
45778W        W18846   7.252  34.608   3.213
45779W        W18847  17.049  31.972   4.481
45780W        W18848  21.561  27.751   3.851
45781W        W18849  34.586  34.074  10.617
45782W        W18850   8.342  23.578   0.331
45783W        W18851  24.130  38.919  13.487
45784W        W18852  28.856   2.184  12.937
45785W        W18853  11.291  17.545   2.195
45786W        W18854  27.032  34.533  13.543
45787W        W18855  38.009  24.757  12.976
45788W        W18856   5.149  23.126  13.814
45789W        W18857  19.828  31.978   1.025
45790W        W18858  24.915  28.023  13.816
45791W        W18859  27.331  24.511  13.883
45792W        W18860  32.918  12.303  13.001
45793W        W18861  36.027  43.628   3.248
45794W        W18862  21.542  20.196  13.486
45795W        W18863   1.450   8.468  11.157
45796W        W18864   0.737  26.765   2.742
45797W        W18865  13.401  44.854   4.649
45798W        W18866   4.262  34.334  13.994
45799W        W18867  18.885   4.518  10.459
45800W        W18868  24.207  10.802  12.409
45801W        W18869  11.390  10.795   0.247
45802W        W18870  30.119  11.269  12.641
45803W        W18871  15.672  13.924   4.166
45804W        W18872  28.017   8.829   2.192
45805W        W18873   7.394   9.568   2.325
45806W        W18874  10.977  12.840   3.872
45807W        W18875  23.320  31.904  10.746
45808W        W18876  28.543   3.912  11.936
45809W        W18877  16.206  20.088  12.377
45810W        W18878  13.236  13.891   4.383
45811W        W18879  39.511   6.737  14.824
45812W        W18880  21.573  28.962  11.896
45813W        W18881  19.196  28.667  13.404
45814W        W18882  32.146  39.502  13.924
45815W        W18883  34.657  40.051  12.067
45816W        W18884  22.171  33.710  12.927
45817W        W18885  16.711  26.054   0.321
45818W        W18886  20.645  17.603   2.678
45819W        W18887  30.093  31.566   4.650
45820W        W18888  17.720  15.810   4.176
45821W        W18889  30.374  24.559  12.388
45822W        W18890   8.489  11.813  11.055
45823W        W18891  23.460  35.002   0.024
45824W        W18892   2.591  42.452  13.019
45825W        W18893  12.260  37.048   4.221
45826W        W18894   6.839   4.221  11.650
45827W        W18895  42.733  19.518   4.479
45828W        W18896  40.074  31.326   1.462
45829W        W18897   5.210  24.375   1.271
45830W        W18898  20.626   1.309   1.928
45831W        W18899  41.378  31.865   0.644
45832W        W18900  29.652  41.608  14.369
45833W        W18901  28.091   9.439   1.147
45834W        W18902   3.157  14.004   1.373
45835W        W18903  33.901   6.765  13.607
45836W        W18904  41.371  19.160   0.758
45837W        W18905  43.376  24.721  13.871
45838W        W18906  30.858   1.179  10.688
45839W        W18907  22.633   8.601   1.466
45840W        W18908   4.964   9.419   2.462
45841W        W18909   0.930  10.754  11.055
45842W        W18910  13.509  40.326  12.274
45843W        W18911   6.650  24.515  11.683
45844W        W18912  12.470  33.435   4.187
45845W        W18913   8.214   7.148  12.909
45846W        W18914  11.163  24.487   3.464
45847W        W18915   3.956  17.319  12.112
45848W        W18916  18.411  27.236   3.338
45849W        W18917  21.680  10.647   0.300
45850W        W18918  32.162  28.324  11.199
45851W        W18919  34.560  14.732   1.760
45852W        W18920   7.240  37.765  13.823
45853W        W18921   7.273   4.397   3.254
45854W        W18922   1.298   8.722   2.611
45855W        W18923  17.145  17.849   4.676
45856W        W18924   3.423  25.067   0.576
45857W        W18925  23.742  19.157   1.850
45858W        W18926  25.664   2.559  11.058
45859W        W18927   2.742  15.302  14.864
45860W        W18928  19.490  18.693   1.754
45861W        W18929  19.831  39.929  14.226
45862W        W18930  12.120  14.349   0.751
45863W        W18931   6.324  30.332   1.045
45864W        W18932  18.013  41.478  11.135
45865W        W18933  15.058  43.373  13.971
45866W        W18934   1.422  31.965  13.479
45867W        W18935   6.709  44.855  14.598
45868W        W18936  25.161  29.120   3.667
45869W        W18937  12.335  34.959  12.819
45870W        W18938   6.022  14.145   2.400
45871W        W18939  42.844  36.725  11.701
45872W        W18940  30.582  20.844  14.487
45873W        W18941  42.344  44.944   3.924
45874W        W18942  10.708  10.758  13.912
45875W        W18943  32.022   8.125   4.540
45876W        W18944  38.632  15.635  14.494
45877W        W18945  33.638  39.007   3.708
45878W        W18946  11.422  32.698  11.576
45879W        W18947  29.159  40.568   1.296
45880W        W18948  42.265  25.011  13.919
45881W        W18949  11.325  22.118  11.768
45882W        W18950   2.266  32.043   2.204
45883W        W18951  35.564  36.283  14.003
45884W        W18952  41.809   5.296  14.896
45885W        W18953   6.675  29.537   0.940
45886W        W18954  16.614  44.894  10.643
45887W        W18955  15.891   7.184   2.374
45888W        W18956   7.881  18.543  12.875
45889W        W18957  11.237   3.759  12.915
45890W        W18958  20.581  16.610   3.600
45891W        W18959  19.160  39.859   0.444
45892W        W18960  34.670  12.560  13.051
45893W        W18961  35.406   2.270  12.430
45894W        W18962  19.914  13.845   0.975
45895W        W18963  16.640   7.440   4.336
45896W        W18964   2.248  13.635  11.636
45897W        W18965  21.332  29.907   4.328
45898W        W18966  36.525  17.214   3.739
45899W        W18967   5.464   0.500   1.522
45900W        W18968   4.347  15.365   1.434
45901W        W18969   9.776  39.911   1.468
45902W        W18970  11.647  43.412   1.781
45903W        W18971   5.910  30.742   2.467
45904W        W18972  42.789  40.373  10.445
45905W        W18973  29.994  36.606   1.702
45906W        W18974  20.679  34.657  11.995
45907W        W18975   9.348  27.955  10.476
45908W        W18976  11.234  15.244   4.323
45909W        W18977  19.009  11.476   3.351
45910W        W18978  31.407   9.237   1.925
45911W        W18979  36.821  30.444   0.635
45912W        W18980  28.020  37.140  14.356
45913W        W18981  39.551  28.747   0.238
45914W        W18982  14.300  19.601  13.357
45915W        W18983  13.053   2.781   1.022
45916W        W18984  13.705  37.232  12.978
45917W        W18985  41.233   9.824   0.359
45918W        W18986  27.693  25.172   3.195
45919W        W18987  25.189  12.368   2.612
45920W        W18988  20.988   7.942   0.764
45921W        W18989  44.358  38.072   1.674
45922W        W18990  28.675  13.339   4.504
45923W        W18991  39.994  21.021   1.398
45924W        W18992  20.226  31.014  10.683
45925W        W18993  37.310   2.954   0.778
45926W        W18994  33.869  10.734   1.904
45927W        W18995   6.971  29.959  13.367
45928W        W18996  38.283   6.234  13.379
45929W        W18997  34.464  13.988   0.141
45930W        W18998  21.629  10.167  14.385
45931W        W18999  25.533  17.573   4.185
45932W        W19000  36.924  37.498   4.145
45933W        W19001   5.723   0.628  12.092
45934W        W19002  26.888  24.650  12.100
45935W        W19003  33.582  36.979  12.152
45936W        W19004  30.950  41.366  13.558
45937W        W19005  38.918  36.403   2.258
45938W        W19006  34.731  31.602   3.680
45939W        W19007  36.931  43.456  11.876
45940W        W19008  26.818   1.965   2.907
45941W        W19009  22.672   4.334  12.927
45942W        W19010  43.411  43.754   2.433
45943W        W19011  35.169  21.696  13.438
45944W        W19012  27.197   6.433   0.531
45945W        W19013  29.953  12.909   3.887
45946W        W19014  11.658  36.075  14.108
45947W        W19015  30.701  18.596   4.090
45948W        W19016  17.151   8.789   1.067
45949W        W19017  44.524  44.370  10.956
45950W        W19018   2.246  37.433  12.114
45951W        W19019   8.797  29.981   4.731
45952W        W19020  36.785  35.123   1.350
45953W        W19021  29.507  40.023   0.307
45954W        W19022  40.149  15.950   2.778
45955W        W19023   1.884  18.631  11.424
45956W        W19024   5.952  25.724   3.167
45957W        W19025  42.553  40.122   4.288
45958W        W19026   6.790  15.682   3.703
45959W        W19027  38.916  34.131   0.834
45960W        W19028  20.238  26.027   0.222
45961W        W19029  33.968   0.943   4.828
45962W        W19030  32.598  39.463  14.904
45963W        W19031  21.631  37.521  11.138
45964W        W19032  32.713  30.415  10.676
45965W        W19033  36.551  27.345  14.186
45966W        W19034  43.553  19.734  11.045
45967W        W19035  31.249   4.021   3.754
45968W        W19036  44.438   2.848  14.685
45969W        W19037  28.684  23.898   4.056
45970W        W19038   9.698   3.355  14.565
45971W        W19039   7.906  31.428  14.262
45972W        W19040  36.579  42.563  11.259
45973W        W19041   0.995  35.405   2.391
45974W        W19042  16.507   0.884  14.496
45975W        W19043  29.043  42.528  10.964
45976W        W19044  25.033  42.952   0.367
45977W        W19045   0.249  37.480  13.316
45978W        W19046  37.751  32.953  10.119
45979W        W19047  31.947   8.503  14.952
45980W        W19048  29.217  19.663  12.063
45981W        W19049   2.254  43.720   2.659
45982W        W19050   4.761   4.371   4.152
45983W        W19051  34.106  34.592  13.974
45984W        W19052  43.946  43.451   0.523
45985W        W19053  22.756  14.559  13.423
45986W        W19054  29.865  11.783  14.523
45987W        W19055  10.150   2.320   2.229
45988W        W19056  39.817  12.245  12.605
45989W        W19057  22.793  33.353  12.161
45990W        W19058  12.920  33.201   4.182
45991W        W19059  12.417  26.371  14.257
45992W        W19060  15.117  13.274   3.904
45993W        W19061  42.563   8.938   1.693
45994W        W19062   4.293  23.225  14.231
45995W        W19063  27.172  33.140   4.125
45996W        W19064  19.976  40.283  10.710
45997W        W19065  37.891  24.806  10.200
45998W        W19066  44.339  35.003   4.750
45999W        W19067  15.388   7.782  14.909
46000W        W19068  26.728   0.984  13.721
46001W        W19069  22.071  26.213  13.577
46002W        W19070  12.888  22.124   4.616
46003W        W19071  27.475  28.882   4.917
46004W        W19072  43.833  36.340  12.946
46005W        W19073   3.896  37.123  14.237
46006W        W19074  41.628  19.179   4.869
46007W        W19075  18.373   1.459   2.851
46008W        W19076  24.390   6.188  14.937
46009W        W19077  31.357  34.961  10.986
46010W        W19078  34.984  32.956   3.035
46011W        W19079  14.267  26.470  11.232
46012W        W19080  28.195   2.793  11.870
46013W        W19081  18.028  13.628   0.284
46014W        W19082  34.057  23.039  13.326
46015W        W19083  40.559  25.090   1.007
46016W        W19084   3.781   3.253   1.690
46017W        W19085  44.711  23.523   3.101
46018W        W19086  24.675  23.241   4.111
46019W        W19087  13.669  15.616  12.582
46020W        W19088   8.141  36.659   1.294
46021W        W19089  26.118   3.407   4.396
46022W        W19090  42.028  39.922  10.758
46023W        W19091  19.711  37.506  11.641
46024W        W19092  43.390  37.982  14.731
46025W        W19093   7.471  34.680   2.761
46026W        W19094  36.986  39.043  13.107
46027W        W19095  37.514  27.067  12.738
46028W        W19096  16.161  25.724   2.297
46029W        W19097  16.842  30.233  11.144
46030W        W19098  34.708  27.977   3.870
46031W        W19099  29.982  44.924   1.180
46032W        W19100  39.971  23.627   3.174
46033W        W19101   9.218  10.747   0.297
46034W        W19102   0.401  13.124  14.907
46035W        W19103  13.094  22.331   4.130
46036W        W19104  20.924  17.857  12.386
46037W        W19105  15.234  26.065  10.442
46038W        W19106  29.853  10.301   2.906
46039W        W19107  13.137  41.031  14.927
46040W        W19108   9.780  18.505  13.797
46041W        W19109  43.310  16.250  11.134
46042W        W19110  40.934  16.690  13.274
46043W        W19111   2.987   2.354  11.376
46044W        W19112  39.741  10.196   0.560
46045W        W19113  37.233  14.217   1.793
46046W        W19114   0.315  19.633   5.076
46047W        W19115   8.707  30.698  12.003
46048W        W19116  11.955  21.624  13.178
46049W        W19117  23.989  41.659  12.533
46050W        W19118  30.874  18.249  12.891
46051W        W19119  12.340  26.658  10.554
46052W        W19120   0.274  35.248   2.075
46053W        W19121   9.859  41.997   2.426
46054W        W19122  17.626  34.513   2.430
46055W        W19123   0.189  20.222   4.949
46056W        W19124  40.572  33.071   4.231
46057W        W19125   8.378  12.565   4.166
46058W        W19126   8.596  42.969   2.643
46059W        W19127  35.422  30.141  13.559
46060W        W19128  34.882  10.970   2.327
46061W        W19129  20.612  25.522   2.440
46062W        W19130   6.981   4.342  12.974
46063W        W19131  12.841   3.668   0.857
46064W        W19132  40.855  18.630   3.451
46065W        W19133  21.509  15.384   4.660
46066W        W19134  19.311  41.891   4.879
46067W        W19135  18.472   7.761   4.196
46068W        W19136  18.040  27.599   3.383
46069W        W19137  31.554  38.563   1.956
46070W        W19138  29.405   1.926   1.281
46071W        W19139   0.290  17.648  13.554
46072W        W19140  13.791  35.997   1.966
46073W        W19141  39.537  37.718   9.964
46074W        W19142  34.377  33.892  12.936
46075W        W19143  22.629  20.291  12.988
46076W        W19144  14.222  37.021  13.742
46077W        W19145  19.840  12.723   4.197
46078W        W19146  19.123   0.883   3.685
46079W        W19147  24.465  13.786   3.683
46080W        W19148  22.043   7.340   1.340
46081W        W19149   4.536  43.484   0.417
46082W        W19150  28.129   2.422  13.475
46083W        W19151  11.448  16.538   2.270
46084W        W19152  35.638  23.047   1.339
46085W        W19153  20.154  14.396  11.242
46086W        W19154  43.219  35.824  11.168
46087W        W19155  13.101  27.399  12.807
46088W        W19156  34.466  16.547   1.455
46089W        W19157   3.852  28.043  11.618
46090W        W19158  40.532  17.546   3.121
46091W        W19159  21.041  30.850   4.176
46092W        W19160  21.719  26.111   4.790
46093W        W19161  31.463  22.662   1.930
46094W        W19162  21.916   2.884   3.803
46095W        W19163  22.702  23.766   3.688
46096W        W19164  38.062  15.764   1.822
46097W        W19165   3.969  15.784   2.116
46098W        W19166   1.795  26.009  12.340
46099W        W19167  21.035  10.928  11.132
46100W        W19168   9.270  40.044   1.410
46101W        W19169  42.472   9.601  11.138
46102W        W19170   1.404  29.056   4.562
46103W        W19171  27.490  39.046  13.774
46104W        W19172  41.374  32.426   1.389
46105W        W19173   9.691  26.630  12.526
46106W        W19174  42.468  37.067  13.405
46107W        W19175  28.465  19.631   1.207
46108W        W19176  42.265  17.121   4.516
46109W        W19177  33.490   0.845   5.054
46110W        W19178  12.613  15.853   0.374
46111W        W19179  39.484  15.202  12.083
46112W        W19180   5.214  40.806   0.264
46113W        W19181   9.877   6.316   3.192
46114W        W19182  40.135  19.586   2.648
46115W        W19183  25.808  23.479  13.471
46116W        W19184  29.565  32.952   0.746
46117W        W19185  35.369  43.235   4.580
46118W        W19186  33.544  17.206  13.083
46119W        W19187  15.010  27.588   2.373
46120W        W19188  14.623   6.827  13.283
46121W        W19189   3.328  27.861  12.313
46122W        W19190   2.438  33.511  14.829
46123W        W19191  35.052  28.116  11.131
46124W        W19192  35.549   7.114   3.823
46125W        W19193  42.889   5.262   0.379
46126W        W19194  10.908  16.840   3.335
46127W        W19195  35.476  12.338  11.994
46128W        W19196  16.798   8.777  11.526
46129W        W19197  13.412   8.813   0.415
46130W        W19198  22.171  14.764  11.452
46131W        W19199  25.408  26.670   0.321
46132W        W19200  26.711  19.906   5.176
46133W        W19201  41.400   1.053  10.207
46134W        W19202  22.231  25.473  14.909
46135W        W19203  17.043  38.425  10.936
46136W        W19204  44.961   5.806  11.829
46137W        W19205  25.956  40.607  14.931
46138W        W19206  13.202  10.024   3.235
46139W        W19207  17.195  29.008   2.785
46140W        W19208  40.807  31.500  12.834
46141W        W19209  32.286  23.961  14.076
46142W        W19210  35.621  15.263   3.275
46143W        W19211  33.834  29.105   1.260
46144W        W19212   6.236  31.772   0.328
46145W        W19213  16.912   0.285   1.336
46146W        W19214  31.623   1.781  11.125
46147W        W19215   8.598  14.615   1.793
46148W        W19216  31.801  33.418   4.625
46149W        W19217  27.527  44.471  12.438
46150W        W19218  36.008  37.773  11.116
46151W        W19219  32.090  15.306  14.518
46152W        W19220  27.601  18.540   0.568
46153W        W19221   6.383  35.356  13.255
46154W        W19222  27.731   8.680   4.940
46155W        W19223   7.161  10.661   2.798
46156W        W19224  13.872   7.438  11.303
46157W        W19225  35.252   8.432   2.441
46158W        W19226  22.050  27.998  13.345
46159W        W19227  42.975   4.562  13.603
46160W        W19228   2.928  18.759  14.463
46161W        W19229  18.908  12.820  13.445
46162W        W19230  12.844  34.978  12.989
46163W        W19231   3.885  44.293  10.687
46164W        W19232   3.771  38.108   0.737
46165W        W19233  14.177  29.402   4.113
46166W        W19234  36.286  40.009   0.667
46167W        W19235  35.146   4.291   0.425
46168W        W19236   2.427  11.776  12.987
46169W        W19237   1.512  39.933   3.857
46170W        W19238  33.608  30.221   4.009
46171W        W19239  43.983  38.345   1.899
46172W        W19240   7.847   0.002  11.199
46173W        W19241  10.755  41.182   4.172
46174W        W19242  15.135   7.410   0.672
46175W        W19243   0.488  35.637  10.783
46176W        W19244  21.242  14.183   3.592
46177W        W19245  37.495   9.386   4.326
46178W        W19246  31.684  26.413  12.411
46179W        W19247   5.309  21.825   4.547
46180W        W19248  30.084  32.937   4.066
46181W        W19249   9.651   6.946   4.091
46182W        W19250  23.641  39.116  13.436
46183W        W19251  15.797  29.533  12.483
46184W        W19252  16.779  41.864   1.402
46185W        W19253  38.423  36.286   3.129
46186W        W19254  10.537  34.972   4.750
46187W        W19255  22.280  44.171  12.934
46188W        W19256  22.251  32.588   3.243
46189W        W19257   0.965  41.429   4.242
46190W        W19258  20.004   7.866   2.427
46191W        W19259  38.521  27.143  12.965
46192W        W19260   2.246  42.851  12.338
46193W        W19261   3.255  26.828  13.332
46194W        W19262  37.650  18.033  12.135
46195W        W19263  36.586  43.963   2.407
46196W        W19264  11.089  29.621   0.354
46197W        W19265  25.707  44.453   4.644
46198W        W19266   1.341  35.838   4.870
46199W        W19267  20.209  20.729  11.476
46200W        W19268  10.302  42.204  13.911
46201W        W19269  35.903  41.898   3.353
46202W        W19270  17.037  34.592   5.152
46203W        W19271   1.761  32.527  13.057
46204W        W19272   2.427  17.270  13.440
46205W        W19273  39.111  44.753   3.179
46206W        W19274  33.524  27.474   4.163
46207W        W19275  16.837  34.417  12.610
46208W        W19276  14.983  25.049   1.433
46209W        W19277  38.053  20.005  13.026
46210W        W19278  10.557  32.946  10.769
46211W        W19279  43.947   6.787  12.074
46212W        W19280  22.011  35.319  13.738
46213W        W19281  42.796  28.633   4.519
46214W        W19282   7.920  34.753  13.917
46215W        W19283  32.481  15.301   2.814
46216W        W19284  36.884  24.742   4.530
46217W        W19285  20.194  13.884  13.081
46218W        W19286  40.883  20.281   2.008
46219W        W19287   7.478  39.803  12.519
46220W        W19288   9.291  40.763  14.409
46221W        W19289  28.363   6.837  13.982
46222W        W19290  13.791  30.899   2.334
46223W        W19291  10.812  26.025  11.209
46224W        W19292  15.272  10.003  10.448
46225W        W19293  20.249  24.262   3.658
46226W        W19294  38.200  33.009  10.776
46227W        W19295  27.571  12.608  11.848
46228W        W19296  39.443  34.123   3.765
46229W        W19297  16.635  40.973   0.805
46230W        W19298  43.838  12.496   0.265
46231W        W19299  30.860  13.494  13.327
46232W        W19300   3.929  17.882   3.572
46233W        W19301  11.805   2.451  12.506
46234W        W19302  36.944  36.407  13.926
46235W        W19303  34.058  41.818   4.074
46236W        W19304  34.222  31.007  13.913
46237W        W19305  12.463  20.261  14.588
46238W        W19306  36.272  20.568   0.789
46239W        W19307  31.817  33.671  11.106
46240W        W19308   4.254  27.915  12.683
46241W        W19309  31.738  15.253   2.209
46242W        W19310  37.414  41.080   2.942
46243W        W19311   3.333  14.508   0.341
46244W        W19312   5.916  35.360   0.625
46245W        W19313  25.157  11.443   2.446
46246W        W19314  36.839  21.821   3.753
46247W        W19315  43.168   0.725  10.790
46248W        W19316   8.739  39.090  13.600
46249W        W19317  15.335  41.038  11.111
46250W        W19318  38.588  38.466  10.553
46251W        W19319  34.488   0.308   2.747
46252W        W19320  41.777  37.573  14.504
46253W        W19321  29.632   6.949   3.680
46254W        W19322  28.649   2.723   3.184
46255W        W19323  37.064  20.738   3.191
46256W        W19324  33.666  25.568   1.822
46257W        W19325  23.669  40.457  13.332
46258W        W19326  33.008  40.781  11.134
46259W        W19327  15.618  37.651   1.270
46260W        W19328  13.023  31.514  14.713
46261W        W19329   7.463   4.856  14.559
46262W        W19330  38.391  25.108   0.035
46263W        W19331  32.894  30.137   2.470
46264W        W19332   6.041   1.118  13.782
46265W        W19333  32.093  35.047   4.573
46266W        W19334   1.870  37.952   2.643
46267W        W19335  13.170   9.197   4.600
46268W        W19336   8.099  10.191   9.880
46269W        W19337  38.000   0.063  13.398
46270W        W19338  12.704  14.872   1.891
46271W        W19339   0.881  22.171   3.372
46272W        W19340  27.688  24.084   0.787
46273W        W19341  23.710  44.234  12.753
46274W        W19342   7.577  17.652  13.316
46275W        W19343   2.346  19.134  13.876
46276W        W19344   2.842  12.021  11.060
46277W        W19345  41.527  20.649  11.570
46278W        W19346  27.664  31.261  14.788
46279W        W19347  20.713  41.503   0.232
46280W        W19348   0.503   6.646   1.913
46281W        W19349   5.686   2.977  12.019
46282W        W19350  33.820  21.260   0.017
46283W        W19351  34.057  38.281   0.525
46284W        W19352  17.163  17.169  10.479
46285W        W19353  31.090  38.121  14.017
46286W        W19354  42.806  15.317  11.086
46287W        W19355  11.157  40.298   0.794
46288W        W19356  12.161  25.468  12.367
46289W        W19357  18.641  39.409  13.384
46290W        W19358  25.594  26.467   3.185
46291W        W19359  19.643   5.730   0.548
46292W        W19360   0.740   4.031   2.283
46293W        W19361  31.102  23.236  13.868
46294W        W19362  36.261  28.223   2.462
46295W        W19363  41.349   3.193   1.379
46296W        W19364  32.945  40.955   2.725
46297W        W19365  32.999  37.103  13.307
46298W        W19366  33.945  29.619   2.460
46299W        W19367  40.442   7.867  10.013
46300W        W19368  43.681  26.482   4.168
46301W        W19369  21.327   7.062  11.764
46302W        W19370  25.588  20.057   1.497
46303W        W19371  37.842  13.569  11.652
46304W        W19372  42.946  24.504   4.207
46305W        W19373  18.786   4.392   4.618
46306W        W19374  36.063   6.321  12.371
46307W        W19375  37.057  24.428  12.700
46308W        W19376  20.523  41.478   4.592
46309W        W19377  32.866  31.154   4.467
46310W        W19378  10.685  17.059   9.958
46311W        W19379  32.345  34.160   1.365
46312W        W19380  14.883   6.792   0.757
46313W        W19381   4.898   3.309   1.445
46314W        W19382  11.132  38.319  14.023
46315W        W19383  11.661  16.191  13.132
46316W        W19384  31.086  14.059  13.831
46317W        W19385  16.646  27.893  14.818
46318W        W19386  26.165   8.199   1.382
46319W        W19387  38.801  32.033   2.357
46320W        W19388  28.585  22.936   4.519
46321W        W19389  28.487   8.090   2.358
46322W        W19390  23.768   1.327   4.625
46323W        W19391  10.700  33.338   4.150
46324W        W19392  29.507  40.967   4.216
46325W        W19393  13.082  34.020  10.701
46326W        W19394   6.235  17.290   4.250
46327W        W19395  43.203   0.987  11.245
46328W        W19396  25.636  11.643   2.597
46329W        W19397  10.084  28.166   1.961
46330W        W19398  42.974  16.777  13.894
46331W        W19399  35.965  36.374  11.397
46332W        W19400  33.005  43.413   3.327
46333W        W19401   5.949   6.180  14.481
46334W        W19402  44.062  39.815  10.751
46335W        W19403  36.254  17.302   3.267
46336W        W19404  32.166  37.016   0.198
46337W        W19405  33.028   5.174  13.608
46338W        W19406  36.810  20.700  14.417
46339W        W19407  10.619  23.121  13.377
46340W        W19408   2.849  23.190  13.034
46341W        W19409  22.664   4.613  10.729
46342W        W19410  29.469  44.704  12.425
46343W        W19411   7.420  40.908   2.869
46344W        W19412  41.984   2.974   2.263
46345W        W19413   7.265  20.732  11.998
46346W        W19414  38.517  37.092  11.506
46347W        W19415  11.399  36.506  10.232
46348W        W19416  29.655  22.098   3.556
46349W        W19417   2.742  16.063   4.601
46350W        W19418   3.860  36.422   4.750
46351W        W19419   8.358  17.402   4.363
46352W        W19420  16.611  38.912  11.884
46353W        W19421  25.898   9.305  10.954
46354W        W19422  36.804   1.140  11.937
46355W        W19423  15.269  41.384  14.949
46356W        W19424   4.905  21.966  11.518
46357W        W19425  34.064  37.787   1.407
46358W        W19426  23.426  21.468   2.938
46359W        W19427  20.472   1.668   2.277
46360W        W19428  41.465  11.587  12.135
46361W        W19429  12.838  10.463   4.972
46362W        W19430  44.857  23.660  10.816
46363W        W19431  32.018  37.371  13.323
46364W        W19432  18.624  37.101  11.056
46365W        W19433  38.999  16.700  13.804
46366W        W19434  25.041  42.973  11.193
46367W        W19435  37.937   2.003   2.264
46368W        W19436  13.920   8.538   0.441
46369W        W19437  43.512  36.920   3.293
46370W        W19438  29.115  26.427  14.794
46371W        W19439   9.330  34.741   4.250
46372W        W19440  30.605  39.611  11.287
46373W        W19441  26.246  39.859  13.263
46374W        W19442  13.969  19.739   1.815
46375W        W19443  19.499  34.469  13.136
46376W        W19444  27.590  25.440   3.709
46377W        W19445  26.723  31.327   3.389
46378W        W19446   6.867  21.704  14.270
46379W        W19447  10.805  33.979   1.975
46380W        W19448  12.702  33.879  11.029
46381W        W19449  38.538  29.013   3.994
46382W        W19450  33.547  17.197  12.162
46383W        W19451  16.275  30.371   4.984
46384W        W19452  22.314   7.378   2.271
46385W        W19453  18.694  19.062   2.267
46386W        W19454  25.956  10.772  11.641
46387W        W19455   3.724  32.209  12.514
46388W        W19456  11.061  12.711  14.322
46389W        W19457  32.753  33.035  11.160
46390W        W19458  41.969  20.316   2.198
46391W        W19459   5.859  38.061  11.415
46392W        W19460  31.904  18.988  12.595
46393W        W19461  24.187  19.619  12.283
46394W        W19462  23.695  18.789  11.511
46395W        W19463  36.074  42.500  12.085
46396W        W19464  32.971  39.930   0.481
46397W        W19465  25.971  42.277   3.840
46398W        W19466  36.317  44.490  11.199
46399W        W19467  43.118  19.134  13.161
46400W        W19468   2.434   2.452  12.069
46401W        W19469  18.317  16.398  14.989
46402W        W19470  11.165  37.418  12.961
46403W        W19471  16.197  39.923   2.877
46404W        W19472  32.480  33.675   2.246
46405W        W19473   9.821   3.858  14.568
46406W        W19474   8.561  38.900  10.998
46407W        W19475  14.689  10.829  14.343
46408W        W19476  20.297  31.561   4.040
46409W        W19477   6.239  36.910   3.461
46410W        W19478  40.244  21.055  10.679
46411W        W19479  20.185  27.942  11.247
46412W        W19480   7.826  42.996   0.736
46413W        W19481  34.655  21.239   1.470
46414W        W19482  39.445  14.752   4.016
46415W        W19483  32.324  12.137   1.266
46416W        W19484  41.034  12.126   1.432
46417W        W19485  43.393   2.699  11.513
46418W        W19486  13.894  31.890   4.509
46419W        W19487  34.010  38.844  10.248
46420W        W19488  35.771  13.954  13.363
46421W        W19489  13.831  39.473   0.265
46422W        W19490  31.216  20.065  11.981
46423W        W19491   4.221  41.363   4.336
46424W        W19492  16.622  20.190  10.972
46425W        W19493  20.270  31.774   3.414
46426W        W19494  30.509  22.120   2.607
46427W        W19495  13.313  29.935   4.304
46428W        W19496  26.564  30.961  13.583
46429W        W19497  11.735   3.959  10.890
46430W        W19498  22.180  31.024  10.626
46431W        W19499  38.819  27.036  14.179
46432W        W19500  22.054  14.705  10.951
46433W        W19501  33.380  14.279  13.951
46434W        W19502  32.887  25.041   1.638
46435W        W19503  24.017  28.622   4.909
46436W        W19504  43.581  32.652   4.659
46437W        W19505  19.278  43.194  13.899
46438W        W19506  18.880  18.566   2.358
46439W        W19507  18.112   6.291  13.177
46440W        W19508  39.266  13.128   0.459
46441W        W19509   0.369   8.277  14.074
46442W        W19510  18.029   4.494  12.623
46443W        W19511  32.605  19.096  11.568
46444W        W19512   8.338  27.258   4.663
46445W        W19513  40.831  27.078  13.393
46446W        W19514  17.518  10.378   4.044
46447W        W19515  31.625  39.676  11.110
46448W        W19516   8.671   4.679  11.853
46449W        W19517  26.713  17.562   0.714
46450W        W19518  44.996  18.724   2.562
46451W        W19519  22.435  43.729  13.127
46452W        W19520   6.607   9.214   1.820
46453W        W19521  22.616   1.233  13.853
46454W        W19522  43.274  23.248   3.685
46455W        W19523  21.099  33.839  14.004
46456W        W19524  32.915  13.637  10.808
46457W        W19525  17.056  18.054   3.252
46458W        W19526  24.202   6.728   3.652
46459W        W19527  43.840  38.072   2.454
46460W        W19528  34.445  10.745  10.972
46461W        W19529   6.053  40.898  11.144
46462W        W19530  41.480  44.518   0.376
46463W        W19531  10.078  32.571   4.708
46464W        W19532   8.402  16.752  12.589
46465W        W19533  31.992   8.631   2.233
46466W        W19534  25.793  28.435   4.107
46467W        W19535  42.518   8.283   3.690
46468W        W19536  17.758  34.351   1.421
46469W        W19537  26.197  14.688  12.453
46470W        W19538   8.507  20.826  11.576
46471W        W19539  41.379  35.334  12.094
46472W        W19540  30.641  30.182  11.221
46473W        W19541  11.631  25.404  13.553
46474W        W19542  21.966  39.975   0.449
46475W        W19543  12.661   8.133   0.390
46476W        W19544  22.692  30.469  12.969
46477W        W19545  40.297  10.116  13.862
46478W        W19546  26.396  22.451  13.569
46479W        W19547  24.049  29.615  14.566
46480W        W19548  42.938  15.565   3.603
46481W        W19549  34.268  31.865   3.283
46482W        W19550  24.990  13.464   3.609
46483W        W19551  37.942  23.181  12.143
46484W        W19552  36.325  10.449   4.348
46485W        W19553   3.830  13.630  11.500
46486W        W19554  22.698  11.080  12.973
46487W        W19555   3.514  14.199  11.529
46488W        W19556  29.990  21.745   4.205
46489W        W19557  40.216  34.098  13.126
46490W        W19558  28.097  21.325  11.975
46491W        W19559  24.090   1.680   0.426
46492W        W19560   6.077  35.199   9.849
46493W        W19561  15.068  35.592  11.205
46494W        W19562   2.312  11.658  11.676
46495W        W19563   3.022  20.102   2.142
46496W        W19564  31.905  25.526   4.096
46497W        W19565  35.939  27.346   3.723
46498W        W19566  20.936  28.647  13.485
46499W        W19567  42.783  14.285  13.987
46500W        W19568  41.552   1.070  11.920
46501W        W19569  31.875   8.167   4.055
46502W        W19570  32.357  13.760  11.509
46503W        W19571  19.047   8.742  11.630
46504W        W19572   8.564  15.786   2.360
46505W        W19573  39.826   0.232   4.095
46506W        W19574   3.860   6.457  11.534
46507W        W19575   7.392  31.161  11.458
46508W        W19576   4.389  13.589   2.356
46509W        W19577  19.765  28.790   0.327
46510W        W19578  14.831   4.191   4.916
46511W        W19579   7.033  27.194  13.847
46512W        W19580   3.853  23.193   1.094
46513W        W19581  41.833  38.246   4.597
46514W        W19582  43.318   3.698   0.498
46515W        W19583  25.571   5.982  10.672
46516W        W19584  35.996   5.183   4.837
46517W        W19585  27.108  42.610   1.868
46518W        W19586  42.508  38.171  12.067
46519W        W19587  15.289  34.932   4.360
46520W        W19588  29.561  15.765   3.701
46521W        W19589  12.763  40.887  11.766
46522W        W19590  16.579  42.035  11.542
46523W        W19591   4.031   2.794   1.698
46524W        W19592   7.141  11.856  11.141
46525W        W19593  10.003  35.508   0.744
46526W        W19594   1.686  19.803  13.652
46527W        W19595   2.250  22.705  11.197
46528W        W19596  29.481   6.375   1.254
46529W        W19597  24.409  20.158  11.544
46530W        W19598  31.430  26.437   1.401
46531W        W19599  13.262  24.665   4.132
46532W        W19600   8.301  22.496  14.356
46533W        W19601  33.585  24.508   0.995
46534W        W19602  14.886  18.092  14.954
46535W        W19603  40.485  27.587  13.897
46536W        W19604   9.791   8.485   1.764
46537W        W19605   1.729  21.661   2.738
46538W        W19606  10.194  44.567   3.237
46539W        W19607  40.465  27.771   3.810
46540W        W19608  44.579   2.128  13.279
46541W        W19609  34.663  15.885   4.220
46542W        W19610   6.325  19.593   4.589
46543W        W19611  43.923   7.199   4.161
46544W        W19612  25.186  35.493   2.350
46545W        W19613  17.635  38.193   1.373
46546W        W19614  24.912  40.779   0.374
46547W        W19615  16.719  28.840  11.991
46548W        W19616  39.524  28.037   2.381
46549W        W19617   6.440  24.559  14.336
46550W        W19618   7.289  19.562  14.414
46551W        W19619  31.651   9.578  14.750
46552W        W19620   9.227  20.755  10.917
46553W        W19621  13.380  38.629   0.051
46554W        W19622  41.196  32.104   2.698
46555W        W19623  44.536  30.112   0.015
46556W        W19624   7.309  44.802  14.051
46557W        W19625  12.419  37.323   3.794
46558W        W19626  21.090  42.714  11.675
46559W        W19627   9.252  38.740   2.412
46560W        W19628  41.567  40.276  14.755
46561W        W19629  10.732  32.405   2.273
46562W        W19630  17.588  10.264  11.197
46563W        W19631  31.148   7.459  14.910
46564W        W19632  44.994  14.036  12.503
46565W        W19633  34.087  11.413  12.992
46566W        W19634  30.914   0.864  10.231
46567W        W19635  32.013   7.289   2.739
46568W        W19636  36.567  44.450  12.621
46569W        W19637  21.220  18.978  12.950
46570W        W19638  31.253  17.963   9.958
46571W        W19639  20.142   7.812  10.715
46572W        W19640  30.886  24.657   3.271
46573W        W19641  22.105  44.721  14.356
46574W        W19642  42.318  10.891  11.443
46575W        W19643  44.907   7.797  13.150
46576W        W19644  16.313  20.352   4.049
46577W        W19645  11.892   5.224   4.774
46578W        W19646   9.427  36.800  14.305
46579W        W19647  19.398   0.260   0.065
46580W        W19648  11.971  29.095  11.486
46581W        W19649  35.774  10.697   2.477
46582W        W19650   9.117  35.080   3.368
46583W        W19651  36.168   1.055  10.384
46584W        W19652  15.838   4.289   1.933
46585W        W19653   6.874  37.349  13.901
46586W        W19654  38.855  31.147  12.981
46587W        W19655  42.775  24.496   2.679
46588W        W19656  43.039  20.261   4.133
46589W        W19657  16.118  32.048  13.786
46590W        W19658  34.140  44.448  11.877
46591W        W19659  38.847  16.390   2.481
46592W        W19660  23.838   1.985   3.496
46593W        W19661  19.289  39.192   1.326
46594W        W19662  18.730  43.252  13.874
46595W        W19663   6.466   4.395   4.841
46596W        W19664   7.973  25.686   2.726
46597W        W19665  21.221  11.636  14.471
46598W        W19666  10.650   0.591  12.929
46599W        W19667  14.535  13.199   1.154
46600W        W19668  36.085  33.636  13.028
46601W        W19669  39.245  15.074  14.368
46602W        W19670  24.406  25.602  11.711
46603W        W19671  28.747  22.112  11.503
46604W        W19672   3.957  25.955  13.905
46605W        W19673  39.564  34.405  11.850
46606W        W19674   9.529  15.121  12.092
46607W        W19675  33.329  28.618   3.193
46608W        W19676   2.228   8.341  10.613
46609W        W19677   2.861  35.693   3.242
46610W        W19678  19.793  29.597  11.234
46611W        W19679  24.456  42.789  10.789
46612W        W19680  12.270  17.190   0.474
46613W        W19681  26.412   4.430  13.147
46614W        W19682   0.417   2.519   2.561
46615W        W19683  19.116   0.917   2.631
46616W        W19684  18.363  11.573  12.060
46617W        W19685  17.578   7.171   0.726
46618W        W19686  33.616  18.466   3.560
46619W        W19687  26.703  29.637   2.311
46620W        W19688   2.712  14.776   3.605
46621W        W19689  16.579   5.830   2.161
46622W        W19690   2.100  33.504  13.001
46623W        W19691  38.946   1.950  10.656
46624W        W19692   9.475  11.650   1.542
46625W        W19693  18.824   3.415   3.642
46626W        W19694  25.084  33.832   2.374
46627W        W19695  18.326  39.357   3.666
46628W        W19696   9.462  18.367  10.962
46629W        W19697   6.278   6.187  10.830
46630W        W19698  33.503   8.354   4.538
46631W        W19699   4.759   1.872  13.562
46632W        W19700  15.716  20.341  13.034
46633W        W19701   3.883  40.560   3.201
46634W        W19702  37.349  17.357   4.123
46635W        W19703  32.244  25.923   1.439
46636W        W19704   3.406   4.240  13.773
46637W        W19705  17.723  39.382   0.349
46638W        W19706   6.111  25.869   1.470
46639W        W19707  15.141  15.890  11.543
46640W        W19708  33.028  29.979   3.465
46641W        W19709  41.348  18.807   2.845
46642W        W19710  24.430  23.157  10.754
46643W        W19711  14.148   5.237   3.655
46644W        W19712  15.931  37.844  11.681
46645W        W19713   5.396  34.182   0.706
46646W        W19714  41.390  43.137   5.033
46647W        W19715   6.265  25.400   2.416
46648W        W19716  31.122   6.165   2.283
46649W        W19717  19.482  34.014   1.617
46650W        W19718  32.675  17.333   1.380
46651W        W19719  10.408  26.576   2.899
46652W        W19720   5.308  25.057   4.116
46653W        W19721  12.277  27.191  13.742
46654W        W19722   6.893  16.499  12.542
46655W        W19723   0.718  37.136  12.944
46656W        W19724   9.742  18.226  14.229
46657W        W19725  29.652  27.261  11.940
46658W        W19726  36.512  16.903  12.420
46659W        W19727   6.390  12.616  14.234
46660W        W19728  16.070  13.157   4.545
46661W        W19729  38.824  39.326  11.446
46662W        W19730   6.086  28.102   4.973
46663W        W19731  25.474  18.174   1.401
46664W        W19732   2.563  13.294  10.662
46665W        W19733  13.264  30.986   1.857
46666W        W19734  23.480  15.936   9.677
46667W        W19735  21.287  31.705  13.370
46668W        W19736  33.613  44.960   2.344
46669W        W19737   4.385  29.647   1.122
46670W        W19738  10.927  37.316  12.511
46671W        W19739  30.624   7.928  13.480
46672W        W19740  27.101   3.402  12.001
46673W        W19741  21.334   4.726   0.475
46674W        W19742  12.765  26.664  10.937
46675W        W19743  36.870  18.139   2.600
46676W        W19744  26.660  17.869   4.213
46677W        W19745  38.870   4.735   4.797
46678W        W19746  10.251  33.039  10.361
46679W        W19747  42.846  42.980   1.821
46680W        W19748  21.020  43.827   1.137
46681W        W19749  24.082  18.146  14.094
46682W        W19750  40.315  21.484   0.230
46683W        W19751  32.964  41.260   0.807
46684W        W19752  36.439  13.630   4.647
46685W        W19753   8.335   8.875  14.396
46686W        W19754  22.073  37.957   0.175
46687W        W19755  16.401   8.447  11.519
46688W        W19756  43.488  30.937  14.831
46689W        W19757  24.934  16.246   0.377
46690W        W19758  23.225  11.289  11.340
46691W        W19759  36.287  11.298  14.166
46692W        W19760  21.333  21.031   2.331
46693W        W19761  11.460  34.904  11.244
46694W        W19762  17.894   4.993   3.383
46695W        W19763  37.725  42.396  12.587
46696W        W19764  28.149  38.783  12.021
46697W        W19765   0.814  21.707  12.022
46698W        W19766  15.986   9.530   0.330
46699W        W19767  24.487  37.374   4.677
46700W        W19768  29.166  41.255  11.151
46701W        W19769  19.814  38.385  11.600
46702W        W19770  10.318  17.494   3.691
46703W        W19771  37.533   7.033  10.317
46704W        W19772  14.204  23.949  13.069
46705W        W19773   2.706  40.492  12.505
46706W        W19774  31.210  44.001  12.443
46707W        W19775   7.725   2.193   1.039
46708W        W19776   0.674  40.940  11.550
46709W        W19777  35.429  30.357   4.402
46710W        W19778  25.510  36.058   2.923
46711W        W19779   0.551   0.209   2.294
46712W        W19780   7.559  33.548  14.510
46713W        W19781   8.829  12.904  14.694
46714W        W19782   7.962   6.108  11.553
46715W        W19783  19.344  22.582  13.512
46716W        W19784  22.495  10.933  12.075
46717W        W19785  33.974  38.249   3.754
46718W        W19786  37.887  12.147   0.922
46719W        W19787  12.203   2.739  12.260
46720W        W19788  38.759  22.555  14.632
46721W        W19789  16.493  37.413  12.616
46722W        W19790  10.107   9.163  14.537
46723W        W19791  13.151  15.034  12.040
46724W        W19792  17.160  26.206  11.165
46725W        W19793  25.809   4.964  13.898
46726W        W19794  24.315  10.687   1.407
46727W        W19795  28.231   7.201   1.273
46728W        W19796  19.305  25.832  13.607
46729W        W19797   5.210  22.526  11.416
46730W        W19798  40.164  18.884   3.163
46731W        W19799  25.142  15.535  12.847
46732W        W19800  19.231  18.879  12.641
46733W        W19801  27.229  42.228  13.414
46734W        W19802   6.353  13.102   3.240
46735W        W19803   1.883  18.095   1.244
46736W        W19804  18.686  21.134  14.722
46737W        W19805   1.535  23.635   2.778
46738W        W19806  43.893  31.842  12.324
46739W        W19807  32.047  22.013   0.950
46740W        W19808   3.934  11.326   1.839
46741W        W19809  19.122  17.386   0.508
46742W        W19810  36.527  10.873  14.292
46743W        W19811   1.768   8.641   3.353
46744W        W19812   0.434  36.530   2.018
46745W        W19813  37.876  28.900  13.418
46746W        W19814  16.580  38.068  13.194
46747W        W19815   2.004   4.731   2.768
46748W        W19816  10.076  10.258  14.231
46749W        W19817   9.793  23.691   0.756
46750W        W19818  25.939   5.900  14.395
46751W        W19819  27.545  10.365   5.005
46752W        W19820  27.727   5.972  11.156
46753W        W19821  20.366  12.798  11.525
46754W        W19822  26.520  23.481  11.750
46755W        W19823  37.066  34.030   1.671
46756W        W19824  42.687  13.333   4.601
46757W        W19825  43.814  40.457   0.638
46758W        W19826  15.015   0.283  13.927
46759W        W19827   4.125  11.116  13.326
46760W        W19828  38.510  38.528  11.455
46761W        W19829  37.250  13.815  14.943
46762W        W19830  23.832  30.782   3.302
46763W        W19831   3.038  28.267   0.502
46764W        W19832  23.996   9.276  11.163
46765W        W19833  19.255  20.165   2.710
46766W        W19834  30.864   2.626   2.746
46767W        W19835  41.739  27.928   0.696
46768W        W19836  21.117  36.962   0.699
46769W        W19837  25.443  10.258   5.513
46770W        W19838  19.077   0.394  10.386
46771W        W19839  15.743  28.396   4.569
46772W        W19840   1.934  33.454   0.725
46773W        W19841  12.320  12.633  14.929
46774W        W19842   2.469   7.193   2.532
46775W        W19843  11.168  31.035   0.210
46776W        W19844  14.254  42.491  13.820
46777W        W19845  10.630  28.384  10.379
46778W        W19846  27.613   8.901  14.576
46779W        W19847  12.391   7.395  10.910
46780W        W19848   1.453  27.747  11.466
46781W        W19849  18.775  41.744   1.364
46782W        W19850  40.211  41.360  12.216
46783W        W19851  24.333   3.384   4.726
46784W        W19852  17.810   3.259   1.584
46785W        W19853  35.022  15.147  12.035
46786W        W19854   1.890  29.904  13.059
46787W        W19855  38.504   6.385  14.364
46788W        W19856  12.744  23.609  14.263
46789W        W19857  35.974  29.615  13.389
46790W        W19858  29.622  41.592  12.505
46791W        W19859  27.469  11.354   0.818
46792W        W19860  44.761  23.362   2.206
46793W        W19861  33.035   5.721  12.411
46794W        W19862  37.154   8.434  11.459
46795W        W19863  29.164  31.328  11.405
46796W        W19864  14.555  32.314  10.538
46797W        W19865  11.680  40.338  12.800
46798W        W19866  30.685  29.862  14.118
46799W        W19867  10.306  41.610   9.897
46800W        W19868   8.398  35.811  10.645
46801W        W19869  29.944  27.168  11.542
46802W        W19870   7.683   4.857  12.071
46803W        W19871  40.843   6.210   0.908
46804W        W19872  35.978  11.093   1.144
46805W        W19873  33.483   9.687  13.375
46806W        W19874  39.649  36.805   4.585
46807W        W19875  20.034  19.215   0.476
46808W        W19876  25.352  12.105   4.741
46809W        W19877   2.715  39.485   2.684
46810W        W19878  27.207  26.496   1.720
46811W        W19879  41.356  27.470   4.100
46812W        W19880  26.626  19.005  12.367
46813W        W19881  37.972  42.741  12.953
46814W        W19882  17.237  38.339   2.314
46815W        W19883  27.920  35.510  14.013
46816W        W19884  10.119   3.877   4.542
46817W        W19885  34.102  38.186  12.898
46818W        W19886  26.707  38.292   1.729
46819W        W19887  10.324  11.387  11.573
46820W        W19888  21.193  22.015  11.299
46821W        W19889  32.149  40.886  12.183
46822W        W19890   2.762  17.868   2.198
46823W        W19891   4.750  37.319  14.885
46824W        W19892  43.934  27.262   2.372
46825W        W19893  26.131  35.885  12.078
46826W        W19894  33.418  32.625   2.198
46827W        W19895   2.753  17.670  13.491
46828W        W19896  39.388  41.811  13.936
46829W        W19897   2.432  38.870   5.424
46830W        W19898  12.227  12.255  12.018
46831W        W19899  34.616  41.303   1.246
46832W        W19900  23.193   1.883  14.085
46833W        W19901  36.996  25.712   3.625
46834W        W19902  37.381  13.368   3.412
46835W        W19903   1.294  33.164   2.635
46836W        W19904  25.605  27.728   1.220
46837W        W19905  26.660  44.061  13.786
46838W        W19906  29.097  21.561   3.649
46839W        W19907   6.571  33.497   3.558
46840W        W19908   4.375  17.260  13.380
46841W        W19909  44.308  29.995  10.263
46842W        W19910   1.681   8.029  11.969
46843W        W19911   8.688   4.689   0.860
46844W        W19912  43.129   8.087   3.254
46845W        W19913  33.000  43.695  14.737
46846W        W19914   1.803  21.476   3.237
46847W        W19915  10.278  24.042  12.772
46848W        W19916  18.612  14.161  14.725
46849W        W19917   8.639  26.099   3.719
46850W        W19918  26.280   1.900  12.464
46851W        W19919  37.885   0.996  11.396
46852W        W19920   6.851   3.966  10.536
46853W        W19921   9.636  17.279  14.954
46854W        W19922  42.300  13.256  10.724
46855W        W19923   7.022  12.628   0.303
46856W        W19924  31.845   2.435   0.416
46857W        W19925  34.181  12.402   3.255
46858W        W19926  27.887  27.969   1.825
46859W        W19927  22.401   5.841   3.327
46860W        W19928   6.418  27.437   3.631
46861W        W19929  19.925  37.503   3.349
46862W        W19930  17.214  33.993  14.360
46863W        W19931  42.895  25.763   3.666
46864W        W19932  12.907  19.959   2.689
46865W        W19933  31.030  44.692   0.335
46866W        W19934  17.784  29.389  12.614
46867W        W19935  18.707   2.807  12.519
46868W        W19936   7.863  32.384  12.463
46869W        W19937  23.467  36.871  13.872
46870W        W19938  31.483   8.724  14.350
46871W        W19939  30.166  33.895  11.078
46872W        W19940  44.707  18.287  14.424
46873W        W19941  24.986  40.321  11.545
46874W        W19942  25.519   7.147   4.139
46875W        W19943  18.154  40.280   1.320
46876W        W19944   3.751   7.060   1.001
46877W        W19945   4.401  17.795  13.485
46878W        W19946  25.050  28.584  12.945
46879W        W19947  14.660  39.991  14.218
46880W        W19948   4.955   9.131   3.756
46881W        W19949   7.982  22.771   4.028
46882W        W19950  23.089  38.018  10.285
46883W        W19951   6.377  28.069   4.115
46884W        W19952  15.279  13.153   2.975
46885W        W19953   1.071  37.066  11.108
46886W        W19954  44.219  25.674   3.524
46887W        W19955   6.876  40.126   5.295
46888W        W19956  20.704   6.534  13.038
46889W        W19957  37.416  39.363   3.761
46890W        W19958  24.248  37.478  12.046
46891W        W19959   4.246  43.556   2.657
46892W        W19960  30.638  28.121  12.902
46893W        W19961  10.597  39.441  14.957
46894W        W19962  14.166  11.344   1.407
46895W        W19963  30.546  44.333   2.175
46896W        W19964  42.541  25.967   0.888
46897W        W19965  17.335  36.982   2.726
46898W        W19966  38.728  43.250   2.359
46899W        W19967  23.734  13.200   2.718
46900W        W19968  30.403   0.443   0.437
46901W        W19969  20.501  18.203  13.786
46902W        W19970   4.733  20.828   0.918
46903W        W19971   7.775  43.714  12.015
46904W        W19972  15.214  28.942   2.578
46905W        W19973   7.850  21.099  12.279
46906W        W19974  12.611  42.367  13.733
46907W        W19975  11.945  19.257   0.390
46908W        W19976  31.834  20.529  11.690
46909W        W19977  23.225  29.188   4.581
46910W        W19978  41.967  19.215   3.076
46911W        W19979  26.096   4.255   1.902
46912W        W19980  13.828   1.324  12.420
46913W        W19981  41.784  36.892  11.320
46914W        W19982  29.409  35.693  14.846
46915W        W19983   6.150   1.354  12.450
46916W        W19984  29.816  42.798   0.429
46917W        W19985  13.842   5.087  11.287
46918W        W19986  35.404  15.722   3.217
46919W        W19987   2.456  21.057   2.793
46920W        W19988  38.264  18.179  11.026
46921W        W19989  10.830  42.740  12.514
46922W        W19990  29.433  10.800   2.305
46923W        W19991  24.448  13.365   0.810
46924W        W19992  29.216  27.284   4.356
46925W        W19993  34.551  35.090   3.187
46926W        W19994  20.150   3.435   2.227
46927W        W19995  18.794   2.039  14.423
46928W        W19996  16.830  23.754   0.852
46929W        W19997  32.736  44.443   0.211
46930W        W19998  14.608  25.418   1.351
46931W        W19999  19.577  26.508   1.371
46932W        W20000  25.938  40.916   4.229
46933W        W20001  43.207  42.969  11.194
46934W        W20002  10.607  20.205   2.800
46935W        W20003  14.662   0.705  13.491
46936W        W20004  21.040   2.979  11.355
46937W        W20005  14.411  43.240   1.938
46938W        W20006  38.813  13.725  14.720
46939W        W20007  11.287  38.060  14.484
46940W        W20008  24.182  20.694  14.020
46941W        W20009  10.684   2.769   4.223
46942W        W20010  34.387  10.770  14.901
46943W        W20011   1.702  34.081   4.154
46944W        W20012  14.401  33.552   2.699
46945W        W20013  12.615  36.697  14.721
46946W        W20014   9.198   8.317   0.360
46947W        W20015  21.664  16.023  12.902
46948W        W20016  38.347  12.640  13.865
46949W        W20017   9.766  13.019   3.574
46950W        W20018  31.496  24.681  14.859
46951W        W20019  14.259  43.901   0.943
46952W        W20020  36.992  13.785   2.648
46953W        W20021  12.184  14.506  14.758
46954W        W20022  11.752  29.727   4.212
46955W        W20023  37.430  39.266   1.252
46956W        W20024  15.636  20.108  10.164
46957W        W20025   1.088  36.410   2.514
46958W        W20026  40.147  34.112  14.052
46959W        W20027  23.598  40.004   2.454
46960W        W20028  36.616  44.514  13.165
46961W        W20029  20.188  21.483  12.335
46962W        W20030  18.142  12.290   4.353
46963W        W20031  34.326  31.992   2.328
46964W        W20032  34.958  23.614  14.697
46965W        W20033  27.295  38.019  10.759
46966W        W20034  43.556   1.710   1.715
46967W        W20035  32.394  14.268  11.614
46968W        W20036   2.902  12.728   4.387
46969W        W20037   8.277  44.728   4.550
46970W        W20038   3.391   4.146  10.598
46971W        W20039  19.774  31.957  12.500
46972W        W20040  15.299   3.864   0.189
46973W        W20041  35.617  11.138  11.500
46974W        W20042   2.541  26.696   0.512
46975W        W20043  10.184  26.191  13.766
46976W        W20044  30.543  26.055  14.635
46977W        W20045  14.322   9.054  12.527
46978W        W20046  33.928  14.714   1.292
46979W        W20047  33.832  12.865   3.105
46980W        W20048  28.896  38.967   3.060
46981W        W20049  11.224   3.915  11.052
46982W        W20050   3.703   7.940   3.278
46983W        W20051  32.065  43.976  12.598
46984W        W20052  24.184  14.924  14.121
46985W        W20053  26.424   9.816  11.912
46986W        W20054   9.786   2.384   1.702
46987W        W20055  26.590  35.335   0.470
46988W        W20056  14.930  42.669  10.707
46989W        W20057  17.265  24.553  10.585
46990W        W20058   7.802   1.466   4.152
46991W        W20059  21.924  30.598   3.866
46992W        W20060  28.156  36.113  12.844
46993W        W20061  24.447   3.315  11.108
46994W        W20062  32.114   9.368  14.715
46995W        W20063  22.643   0.018  10.441
46996W        W20064  17.189  28.116  14.874
46997W        W20065  40.343  14.187   0.981
46998W        W20066  36.991  17.646   3.688
46999W        W20067   5.843  35.414   2.676
47000W        W20068  37.331  22.476   3.291
47001W        W20069  39.241  39.266  10.761
47002W        W20070  27.117  42.315  11.160
47003W        W20071  11.235   8.447  13.966
47004W        W20072  33.132  21.199   3.671
47005W        W20073  40.011  34.477   2.208
47006W        W20074  24.575  19.936   4.954
47007W        W20075  13.640  13.555  12.536
47008W        W20076  11.164  26.444   2.294
47009W        W20077  30.535  19.448  12.148
47010W        W20078  20.486  16.361   0.226
47011W        W20079   2.921  30.522   0.374
47012W        W20080  36.029  24.867  10.635
47013W        W20081   7.337  27.772  14.951
47014W        W20082  12.873  37.094   2.091
47015W        W20083  28.625  42.314   0.834
47016W        W20084  42.257   5.604  14.723
47017W        W20085  37.005  13.155   4.176
47018W        W20086  29.711  37.607  11.558
47019W        W20087   8.182  20.741  14.801
47020W        W20088  40.340  32.987  12.906
47021W        W20089  35.877  13.696   4.018
47022W        W20090  27.970  44.563  13.606
47023W        W20091  35.951   1.252  13.417
47024W        W20092  20.322   0.352  11.628
47025W        W20093   7.293  30.663   1.367
47026W        W20094  26.504  16.140  12.017
47027W        W20095   3.824  38.403  11.912
47028W        W20096  11.385  12.220   3.277
47029W        W20097  42.174   8.820   0.853
47030W        W20098  17.886   0.904  11.021
47031W        W20099   0.512  24.961  13.659
47032W        W20100  13.886  44.456  11.626
47033W        W20101  24.818  35.440   3.331
47034W        W20102  34.387   2.263   3.908
47035W        W20103  44.062  18.803   0.327
47036W        W20104  42.938  22.064  14.779
47037W        W20105   5.333  41.884  13.623
47038W        W20106  20.883  34.521  10.226
47039W        W20107  12.103  41.321   3.877
47040W        W20108  18.101  24.077  11.659
47041W        W20109  16.311  39.740  12.899
47042W        W20110  13.702   8.292  14.519
47043W        W20111  11.559   2.355   4.056
47044W        W20112   0.867   5.422  13.898
47045W        W20113  43.499  39.341  14.396
47046W        W20114  13.624  28.216  11.158
47047W        W20115  13.384  32.029   3.673
47048W        W20116  39.484  35.713   0.472
47049W        W20117  21.210  25.051  13.808
47050W        W20118  30.679  28.134   3.698
47051W        W20119  43.404  24.618   1.862
47052W        W20120  16.009  26.943  11.126
47053W        W20121   4.946  20.130  12.147
47054W        W20122   3.408  33.538   4.235
47055W        W20123   1.413  25.892  11.973
47056W        W20124  44.456  33.682   4.193
47057W        W20125  35.060  28.360   3.337
47058W        W20126  33.513  16.368  12.785
47059W        W20127  22.851  41.843  10.207
47060W        W20128   0.363  20.820   1.713
47061W        W20129  32.663  35.365  14.783
47062W        W20130   2.910  11.203   1.703
47063W        W20131  38.410  32.381   4.560
47064W        W20132   8.377  39.276   3.298
47065W        W20133  35.310  31.900  11.935
47066W        W20134  13.605  15.938  10.787
47067W        W20135   2.921  41.996  11.191
47068W        W20136  25.709  20.297   2.450
47069W        W20137  33.922  43.067  13.416
47070W        W20138  12.714  31.733  10.346
47071W        W20139  11.181  14.665   1.805
47072W        W20140  18.694  26.043   1.045
47073W        W20141  29.413  28.641  14.990
47074W        W20142  12.316  21.582  13.542
47075W        W20143  31.056  34.883   2.071
47076W        W20144  38.088  17.555  13.477
47077W        W20145  15.190   3.713   2.216
47078W        W20146   7.779   4.279  14.869
47079W        W20147   7.005  37.389  12.512
47080W        W20148   8.608  19.101   4.376
47081W        W20149  17.152  13.207   2.888
47082W        W20150   6.864  15.547   3.201
47083W        W20151  41.284  37.972   2.134
47084W        W20152  39.855  25.633  11.165
47085W        W20153  10.186  16.066  13.508
47086W        W20154   4.730  36.475   2.115
47087W        W20155   6.818  17.681  10.945
47088W        W20156  40.161   5.173  11.486
47089W        W20157  30.448  38.444  10.584
47090W        W20158  32.402  17.162   0.945
47091W        W20159  33.916  15.148  13.129
47092W        W20160  18.622  36.469  14.840
47093W        W20161   0.979  13.851   1.895
47094W        W20162   9.116  40.051  14.854
47095W        W20163  35.955  22.378   4.777
47096W        W20164  14.856  10.400   2.715
47097W        W20165  17.318  42.800  14.410
47098W        W20166  43.806  38.978  12.876
47099W        W20167  24.024  42.580  13.839
47100W        W20168   2.280  17.641   2.211
47101W        W20169  28.991  39.830  11.350
47102W        W20170  29.474  32.388   3.834
47103W        W20171  35.112  35.584   3.472
47104W        W20172   2.868  30.109   4.186
47105W        W20173   4.740  43.966   0.397
47106W        W20174  29.636  20.248   1.321
47107W        W20175  33.038  35.599   4.338
47108W        W20176  31.365  18.243  12.717
47109W        W20177   0.658  22.549   0.437
47110W        W20178  40.385  35.965  13.307
47111W        W20179  27.944  25.321  14.759
47112W        W20180  17.686   6.433   4.557
47113W        W20181   7.856  11.653  11.875
47114W        W20182  25.210  42.349  13.367
47115W        W20183  38.895  11.102  14.513
47116W        W20184  17.805  30.473  14.707
47117W        W20185  27.612  23.249   3.922
47118W        W20186  42.255  15.229   3.158
47119W        W20187  30.203  14.025  10.695
47120W        W20188  20.939  29.005   1.105
47121W        W20189  10.655  20.787   2.806
47122W        W20190  30.646  15.602  11.630
47123W        W20191  23.597   8.146   0.317
47124W        W20192  15.005  32.017  10.665
47125W        W20193  20.513  20.720  10.531
47126W        W20194  21.576  32.630   0.944
47127W        W20195  31.445  36.385  14.772
47128W        W20196  31.565  36.518  12.775
47129W        W20197  36.552  43.291  11.559
47130W        W20198  21.230  22.156   0.543
47131W        W20199   3.783  34.514  11.032
47132W        W20200   3.323  22.918   1.345
47133W        W20201   0.143  27.923  13.601
47134W        W20202  24.612  27.699  13.535
47135W        W20203  39.939  14.632   3.848
47136W        W20204   9.747   1.484  12.346
47137W        W20205  12.370  23.533   1.893
47138W        W20206  34.792  37.653  11.856
47139W        W20207   8.648  15.610   0.691
47140W        W20208  27.506   2.764   0.167
47141W        W20209  13.860  13.325   3.233
47142W        W20210  25.589  29.589  10.706
47143W        W20211  30.816  24.659  13.844
47144W        W20212  34.305  24.608  14.346
47145W        W20213  23.603  37.276  10.204
47146W        W20214  15.471  26.107  11.343
47147W        W20215  18.183  34.445  10.650
47148W        W20216  14.847  30.090   4.223
47149W        W20217  14.226   1.221  12.865
47150W        W20218  15.230  37.130   1.036
47151W        W20219  31.526   7.827   1.011
47152W        W20220  12.298  15.739  11.134
47153W        W20221  31.134  21.712  14.885
47154W        W20222   6.658  37.617   4.306
47155W        W20223  23.523   5.015   0.474
47156W        W20224   4.187  15.755  12.842
47157W        W20225  34.186   7.773   1.315
47158W        W20226  10.847  21.116  11.703
47159W        W20227  38.134   1.920  10.424
47160W        W20228  31.841  29.482  14.854
47161W        W20229  21.655  15.229  14.099
47162W        W20230  36.984  20.022   1.344
47163W        W20231  34.475   7.960  13.989
47164W        W20232  21.478  36.028  14.961
47165W        W20233  14.341   7.207  12.150
47166W        W20234  34.585  13.209   1.917
47167W        W20235  13.195  24.949   0.847
47168W        W20236  32.624  26.268  10.910
47169W        W20237  11.496  21.179  10.292
47170W        W20238  22.263   3.344   4.643
47171W        W20239   6.506  28.501   2.212
47172W        W20240   1.797  35.583   3.232
47173W        W20241  34.398  14.621  13.327
47174W        W20242  28.469  15.134   0.262
47175W        W20243   6.429  34.405   3.844
47176W        W20244  33.066  39.305  12.546
47177W        W20245   9.292  27.698   3.797
47178W        W20246  11.358  12.309  13.435
47179W        W20247  24.076  15.638   2.224
47180W        W20248   6.243   9.241  10.320
47181W        W20249  17.976  34.357   4.287
47182W        W20250  11.397  25.430  12.351
47183W        W20251  44.305  14.712  12.308
47184W        W20252   5.922  15.627   0.906
47185W        W20253  36.827  31.920   3.712
47186W        W20254  26.449  30.143   4.837
47187W        W20255  13.839  39.494  11.805
47188W        W20256   1.260  42.404  11.441
47189W        W20257  13.476  35.238  14.223
47190W        W20258  22.017  36.683   4.163
47191W        W20259   8.308  10.423   2.100
47192W        W20260   4.016  14.900  11.983
47193W        W20261   4.007   3.258  14.940
47194W        W20262  40.475  33.429   2.443
47195W        W20263  18.175   8.835  13.994
47196W        W20264  41.425  14.646  13.926
47197W        W20265  44.138   0.262   3.581
47198W        W20266  15.891  14.771   0.244
47199W        W20267  41.392  14.904   0.852
47200W        W20268   0.489  39.323  13.744
47201W        W20269   1.777   4.282   2.677
47202W        W20270  24.705  39.455  11.121
47203W        W20271  14.134  11.391  13.997
47204W        W20272  40.951  43.590   3.268
47205W        W20273   0.818  40.815   1.069
47206W        W20274   5.778  18.198  11.465
47207W        W20275   9.849   3.763   4.098
47208W        W20276  26.668   7.889  12.534
47209W        W20277   4.372  39.553  12.994
47210W        W20278  37.994  10.823   3.921
47211W        W20279  22.851  27.368  13.672
47212W        W20280  32.094  23.110   0.203
47213W        W20281  16.837  41.710   1.902
47214W        W20282  41.279   3.723   2.367
47215W        W20283  23.128  12.091  11.240
47216W        W20284  42.960  38.412  14.201
47217W        W20285  33.425  37.748  14.770
47218W        W20286  13.910  27.131  12.152
47219W        W20287  41.295  14.188   3.202
47220W        W20288  13.309  41.402   2.770
47221W        W20289   5.521  31.914   4.613
47222W        W20290  40.087   2.024   2.963
47223W        W20291  22.194  26.200   2.695
47224W        W20292  28.751  44.189   0.532
47225W        W20293  34.017  17.206   3.316
47226W        W20294  40.701  44.846   4.580
47227W        W20295  34.522  44.856   0.163
47228W        W20296  10.382   2.432  12.850
47229W        W20297  42.242  39.592   1.828
47230W        W20298  18.269  19.132  14.607
47231W        W20299  24.206  25.137  11.852
47232W        W20300  14.653  31.932  13.503
47233W        W20301  14.634  11.911   2.707
47234W        W20302  38.555  35.908  13.367
47235W        W20303   0.005  10.076  10.151
47236W        W20304  26.101   0.729  14.510
47237W        W20305  40.844  22.790  12.955
47238W        W20306  33.584  29.974  10.470
47239W        W20307   1.612  31.309   4.154
47240W        W20308  25.747  40.205   3.630
47241W        W20309  29.626   9.156   1.895
47242W        W20310  20.034  36.816   2.597
47243W        W20311  41.289  18.496  11.455
47244W        W20312  33.231  36.993   2.761
47245W        W20313  31.225  13.541   1.371
47246W        W20314   4.196  44.049  11.900
47247W        W20315  36.014  22.163  13.313
47248W        W20316   1.827   1.868   4.854
47249W        W20317  39.603   4.035  11.585
47250W        W20318  32.723   2.802  12.834
47251W        W20319  42.465  20.588   1.563
47252W        W20320  10.131  12.553   4.239
47253W        W20321  44.256  34.688   2.861
47254W        W20322   3.808   7.439   4.133
47255W        W20323  31.956  27.386  12.029
47256W        W20324  27.025  43.698  13.556
47257W        W20325  35.559  39.539   2.849
47258W        W20326  20.037  27.966  13.497
47259W        W20327   1.226  26.465   4.193
47260W        W20328  15.389  23.033  14.030
47261W        W20329  29.932  13.961   5.233
47262W        W20330  37.020  10.183   1.956
47263W        W20331  40.287   4.245  12.048
47264W        W20332  31.129  38.353  13.333
47265W        W20333  17.099  23.452  10.860
47266W        W20334  25.011  29.590   2.292
47267W        W20335  33.893  33.454  12.777
47268W        W20336  38.549  37.171   0.957
47269W        W20337   1.780  23.561  13.324
47270W        W20338  16.870  21.732  11.980
47271W        W20339   0.435  38.556   0.852
47272W        W20340  38.110  16.927  11.072
47273W        W20341  33.109  14.052   3.566
47274W        W20342  34.836  24.517  12.577
47275W        W20343  28.831   4.158   3.288
47276W        W20344  27.244  41.808  14.883
47277W        W20345  15.228  42.523   1.462
47278W        W20346  35.650  25.656   0.018
47279W        W20347  19.107  38.392  14.388
47280W        W20348   5.162  35.897   1.718
47281W        W20349  43.013  30.743  10.571
47282W        W20350  38.962  25.427  10.709
47283W        W20351  16.807  43.453  13.526
47284W        W20352  23.300  15.342  11.206
47285W        W20353   0.505   9.628   4.712
47286W        W20354  36.966   3.429   1.412
47287W        W20355  29.047  13.646   3.368
47288W        W20356  38.896  43.233   0.415
47289W        W20357  43.414  10.060   3.141
47290W        W20358  10.075  38.454   1.352
47291W        W20359   8.254  36.902   1.817
47292W        W20360  14.180   5.693   3.388
47293W        W20361   0.576  14.144   2.082
47294W        W20362  10.304  41.845  11.114
47295W        W20363  21.079  26.474  14.894
47296W        W20364  44.003  36.758  12.686
47297W        W20365   2.775  19.253  14.211
47298W        W20366  31.806  36.779   5.259
47299W        W20367   5.467  35.295  14.278
47300W        W20368  25.205   7.696  14.720
47301W        W20369  19.504  13.122   2.419
47302W        W20370  13.139  41.745  11.922
47303W        W20371  17.317  26.602  10.399
47304W        W20372  26.618  26.666  10.455
47305W        W20373  20.385   4.695  13.472
47306W        W20374  22.499  20.629   2.712
47307W        W20375  34.675  43.744  11.179
47308W        W20376  35.028  19.733  12.802
47309W        W20377  20.839  22.021  13.575
47310W        W20378  10.037  41.443   3.295
47311W        W20379  38.459  35.405  13.813
47312W        W20380  19.081  31.089  12.849
47313W        W20381   1.141  39.277  13.265
47314W        W20382  10.653  21.602  11.588
47315W        W20383  20.576   0.850   1.213
47316W        W20384  37.827  12.899  14.958
47317W        W20385  44.457  16.800  11.100
47318W        W20386  26.416  14.199   3.787
47319W        W20387  17.121   1.823   1.434
47320W        W20388  25.978  19.380  11.497
47321W        W20389   7.443  25.303  13.425
47322W        W20390   6.972  27.619   0.301
47323W        W20391  24.425  34.844  11.560
47324W        W20392   5.316  13.199   4.623
47325W        W20393  27.744  37.599  14.303
47326W        W20394  13.581   4.651  12.982
47327W        W20395  27.682  17.504   4.171
47328W        W20396  27.754  18.571  11.122
47329W        W20397  37.343  38.480   3.842
47330W        W20398  23.248   4.782  12.959
47331W        W20399  36.422  43.701  14.073
47332W        W20400  35.878  28.768  13.225
47333W        W20401  14.839  20.491   3.771
47334W        W20402  38.587  19.493  13.604
47335W        W20403  37.029  40.401   4.379
47336W        W20404  11.933  14.358   5.059
47337W        W20405   5.460  37.907   3.604
47338W        W20406   8.507  37.658  13.396
47339W        W20407  34.609  27.510   2.310
47340W        W20408  26.085   2.984  12.424
47341W        W20409  30.508  15.645  13.278
47342W        W20410  31.132  29.931  13.858
47343W        W20411  34.882  21.641   3.580
47344W        W20412  18.232  44.981   4.555
47345W        W20413   7.402  31.920  11.085
47346W        W20414   9.112  35.024   1.422
47347W        W20415   1.564  42.041   4.035
47348W        W20416  26.083  38.018   9.675
47349W        W20417   1.302   6.461   1.285
47350W        W20418  43.052  17.135   2.357
47351W        W20419  38.943  23.521   3.249
47352W        W20420  43.274  37.020   2.844
47353W        W20421  39.575  32.616   1.328
47354W        W20422  34.986  30.434   1.233
47355W        W20423  42.226  37.989   4.793
47356W        W20424  11.771  17.366  10.683
47357W        W20425  29.549  44.032  11.489
47358W        W20426   5.263  23.995   2.279
47359W        W20427   5.318  14.220   4.633
47360W        W20428   7.577  12.728  10.594
47361W        W20429  25.552   2.962  12.985
47362W        W20430  17.971  35.152  12.598
47363W        W20431   4.842  10.843  14.923
47364W        W20432  18.798  34.422  14.803
47365W        W20433  30.119  31.151  12.960
47366W        W20434  39.919   9.734   3.654
47367W        W20435  21.089  39.896   4.664
47368W        W20436  34.418  43.923  11.584
47369W        W20437  25.894  19.490   2.603
47370W        W20438  15.762  21.092   5.066
47371W        W20439  18.133  35.517  12.278
47372W        W20440  44.360  19.525   4.950
47373W        W20441  16.303  44.929  13.836
47374W        W20442  29.107  38.350  10.937
47375W        W20443  21.458  34.888  12.401
47376W        W20444  31.685  32.005  12.863
47377W        W20445  36.139  39.172   2.233
47378W        W20446  25.908  24.397   4.260
47379W        W20447   6.713   5.990   1.826
47380W        W20448  30.117  27.467  11.155
47381W        W20449  15.063  23.483  13.040
47382W        W20450  41.561  32.089  13.116
47383W        W20451  44.230  13.064   2.899
47384W        W20452  24.276  25.556  10.709
47385W        W20453  43.398  37.934  11.744
47386W        W20454  39.851  17.089  13.886
47387W        W20455  14.345  34.434  10.519
47388W        W20456  11.903   3.324   4.088
47389W        W20457  30.255  25.764  12.490
47390W        W20458  15.131   8.710  14.933
47391W        W20459  32.278  41.893  13.134
47392W        W20460  13.598   7.160  12.628
47393W        W20461  32.446   9.718  11.560
47394W        W20462  36.524  32.408  10.734
47395W        W20463  13.042  25.550  12.300
47396W        W20464  29.625  19.661  13.521
47397W        W20465  26.495  34.529   3.191
47398W        W20466  26.702  26.899  10.915
47399W        W20467  37.056   6.440  13.776
47400W        W20468   8.234   0.465  12.374
47401W        W20469  17.312  16.729  10.726
47402W        W20470  21.761  39.388  12.775
47403W        W20471  31.514  44.197   4.324
47404W        W20472  16.125  31.035  12.820
47405W        W20473   3.628  41.601  13.867
47406W        W20474  13.126   8.345  10.597
47407W        W20475  35.809  29.750   2.658
47408W        W20476  26.561  42.793   2.303
47409W        W20477  18.177  19.274   4.672
47410W        W20478   5.740   0.411   3.413
47411W        W20479   2.746  35.991  14.325
47412W        W20480  39.923  10.243   1.035
47413W        W20481  11.410  19.220   4.535
47414W        W20482  14.245  40.210  13.986
47415W        W20483  42.428  36.018   3.802
47416W        W20484  41.136  35.316  13.484
47417W        W20485  42.621   0.136  10.030
47418W        W20486  30.001  42.240  10.804
47419W        W20487  33.462   4.503   2.831
47420W        W20488  39.061  37.464   0.450
47421W        W20489  43.836  37.704  11.151
47422W        W20490   0.390   6.270  10.921
47423W        W20491  19.083  35.444   3.265
47424W        W20492  33.128  41.228  14.854
47425W        W20493  21.759  23.144  12.153
47426W        W20494   2.243   1.090   1.164
47427W        W20495  22.082   0.698  12.923
47428W        W20496  15.038  11.163  12.100
47429W        W20497   6.791  16.529   1.361
47430W        W20498  40.319  19.246  14.922
47431W        W20499  21.308   6.021   2.769
47432W        W20500  36.752  18.203   3.574
47433W        W20501  27.174  11.283  12.501
47434W        W20502  36.468   7.094  13.329
47435W        W20503  16.002  22.535   2.383
47436W        W20504   7.503  37.065   5.061
47437W        W20505  39.010  14.072  13.378
47438W        W20506  30.699  33.323  13.466
47439W        W20507  32.965  22.566  14.583
47440W        W20508   5.867  25.762  12.909
47441W        W20509  31.687   9.928  11.065
47442W        W20510  26.482  17.066   0.805
47443W        W20511   5.225  10.309  14.392
47444W        W20512  44.995  21.083  13.563
47445W        W20513  39.863  18.700  13.430
47446W        W20514  27.442  30.008  13.767
47447W        W20515  35.604  12.742   2.255
47448W        W20516   9.972  13.321   3.209
47449W        W20517  10.780  21.942  13.030
47450W        W20518  35.861   8.982   1.963
47451W        W20519  26.033  40.096   1.865
47452W        W20520  11.641  41.581   4.540
47453W        W20521  12.744   8.318  13.006
47454W        W20522  44.881  35.176  11.249
47455W        W20523  35.847  31.082  10.638
47456W        W20524   0.942   0.452   1.920
47457W        W20525   8.907  12.347   1.771
47458W        W20526  38.577   6.741  14.000
47459W        W20527   3.418  16.538   0.164
47460W        W20528  38.981  12.101  13.080
47461W        W20529  21.032  23.755   0.766
47462W        W20530   7.755  25.666  14.053
47463W        W20531  25.555  42.212  14.361
47464W        W20532   8.193  21.108   2.789
47465W        W20533  24.703  25.439   3.402
47466W        W20534  21.634   7.733  14.930
47467W        W20535  38.409   5.844   2.726
47468W        W20536   3.491   6.631  12.920
47469W        W20537  15.724  26.934  10.139
47470W        W20538   3.747  39.985   2.743
47471W        W20539  30.385  28.811   1.186
47472W        W20540   0.257  37.554   2.685
47473W        W20541  37.267  14.744  13.543
47474W        W20542  19.593  18.613  11.025
47475W        W20543  42.566   1.303   1.104
47476W        W20544  44.768  37.571   2.438
47477W        W20545  10.366  10.848   4.645
47478W        W20546   3.477  29.861   2.764
47479W        W20547  25.515  17.113  14.832
47480W        W20548  33.299   7.342  12.134
47481W        W20549   7.327   5.671  12.467
47482W        W20550  35.334  21.509  11.532
47483W        W20551   9.204  11.962   1.918
47484W        W20552  42.320  40.598   0.334
47485W        W20553  31.998  20.766   2.783
47486W        W20554  38.289  14.102   1.189
47487W        W20555  35.888  25.057   4.220
47488W        W20556  26.122  10.395  13.302
47489W        W20557   7.907  13.378   5.056
47490W        W20558  27.942  40.024   1.807
47491W        W20559   6.971   0.465   3.563
47492W        W20560  44.546  35.128  11.621
47493W        W20561  16.658  40.636  13.041
47494W        W20562  35.064   3.495   3.840
47495W        W20563  37.698   2.332   5.115
47496W        W20564  19.714  40.560   0.444
47497W        W20565   8.665  15.635  13.301
47498W        W20566   6.560   0.786   2.735
47499W        W20567   7.747  15.109  11.968
47500W        W20568  13.931  25.524   4.455
47501W        W20569  36.958  37.435  13.994
47502W        W20570  32.990  36.946   0.856
47503W        W20571  20.469   2.596   4.498
47504W        W20572  32.569  32.381   2.731
47505W        W20573   0.529   5.782  13.593
47506W        W20574  17.785  27.106  14.776
47507W        W20575  20.004  30.938  12.724
47508W        W20576  12.902  17.714  13.022
47509W        W20577   3.407   0.578  10.661
47510W        W20578  26.668  11.198  12.385
47511W        W20579  15.270   4.290   4.206
47512W        W20580  10.501  42.677  13.848
47513W        W20581  41.781   8.812  10.540
47514W        W20582  21.333  24.467   2.319
47515W        W20583  14.721  30.119   2.840
47516W        W20584  13.575  37.781   3.571
47517W        W20585  33.688  30.858   0.933
47518W        W20586  22.679  32.549  13.087
47519W        W20587   4.980   1.270   2.458
47520W        W20588  19.241   2.406   0.759
47521W        W20589  27.703  14.766  11.243
47522W        W20590  24.795  21.921  11.249
47523W        W20591  25.559   0.066   1.667
47524W        W20592  42.617  44.250  10.205
47525W        W20593  29.090  43.432  11.483
47526W        W20594  44.309  35.003  14.727
47527W        W20595   1.308  29.230  13.037
47528W        W20596  25.743   8.777   0.760
47529W        W20597  25.942  22.607  13.853
47530W        W20598  16.828  39.368  11.685
47531W        W20599  36.294  37.443   3.779
47532W        W20600  19.951  28.381  11.355
47533W        W20601  25.716  32.193   3.058
47534W        W20602  36.382  22.746   4.076
47535W        W20603  32.413   9.379  11.150
47536W        W20604  38.290   3.292   2.718
47537W        W20605   2.923  43.460   4.800
47538W        W20606  20.827  12.754   4.205
47539W        W20607  38.318  43.983  11.704
47540W        W20608  13.011  28.146  12.504
47541W        W20609  27.139  14.326   1.430
47542W        W20610   8.517  26.332   3.214
47543W        W20611   8.828  22.907  12.047
47544W        W20612   0.334   9.042   0.132
47545W        W20613  14.213  30.359  14.435
47546W        W20614  29.199   0.217   4.755
47547W        W20615  22.681  40.930   4.127
47548W        W20616  16.618  20.124   2.173
47549W        W20617  38.363  12.376   0.854
47550W        W20618  29.764   0.812   3.294
47551W        W20619  37.827  31.289   1.856
47552W        W20620  31.889   1.246   0.005
47553W        W20621  30.740   1.144  13.858
47554W        W20622   5.672  42.975   2.242
47555W        W20623  19.065  39.813   2.250
47556W        W20624   8.236  11.584  10.638
47557W        W20625  38.302  36.630   1.697
47558W        W20626  38.084   7.716  14.937
47559W        W20627  27.684  36.970   1.691
47560W        W20628  36.116   5.316   2.499
47561W        W20629  30.749  33.603   3.693
47562W        W20630  27.356  37.391   0.195
47563W        W20631  36.931  16.389  11.126
47564W        W20632  44.900   2.703  12.433
47565W        W20633  21.562  13.242   3.458
47566W        W20634  41.607  33.094  12.447
47567W        W20635  30.077  32.745  12.070
47568W        W20636   7.819  44.569  10.242
47569W        W20637  28.427  42.897   3.677
47570W        W20638  20.495  13.657   1.666
47571W        W20639  39.329  32.970   1.671
47572W        W20640  21.952  38.258   3.366
47573W        W20641  33.335  27.773   0.918
47574W        W20642  24.604   0.910   0.029
47575W        W20643  22.215  12.882  11.540
47576W        W20644  15.357  28.639  11.490
47577W        W20645  30.475  31.343   4.926
47578W        W20646   6.682  44.853   1.082
47579W        W20647  13.512  31.399   1.672
47580W        W20648  44.783  10.436   1.472
47581W        W20649  17.992  28.173  14.300
47582W        W20650  19.383   0.963   3.189
47583W        W20651  21.812   9.142   1.300
47584W        W20652  32.996  10.317   2.797
47585W        W20653  30.095  27.047  12.823
47586W        W20654  10.627  23.072  10.715
47587W        W20655  18.740  19.357   1.811
47588W        W20656  33.657  36.986   0.217
47589W        W20657  38.921  14.552   3.231
47590W        W20658  25.562   0.950   4.208
47591W        W20659  34.925  41.219  13.840
47592W        W20660  39.485  17.525  13.547
47593W        W20661  21.988  21.819   0.669
47594W        W20662  38.483   7.749   3.127
47595W        W20663   1.515  13.067   0.298
47596W        W20664  34.863  14.823   3.102
47597W        W20665  40.121  33.872   1.275
47598W        W20666   5.255  18.199  11.356
47599W        W20667  31.683  14.279   3.678
47600W        W20668   4.502  32.256  13.061
47601W        W20669  26.539  41.813  12.808
47602W        W20670  27.413   5.669   0.302
47603W        W20671  35.016  34.323   4.164
47604W        W20672  36.812   5.690   3.827
47605W        W20673  14.280  27.426   0.419
47606W        W20674   1.492  15.135  11.854
47607W        W20675  18.052   8.368   4.772
47608W        W20676  27.900  18.690  10.634
47609W        W20677  38.951  31.514  13.380
47610W        W20678  12.270  34.529  12.485
47611W        W20679   8.565   7.802  12.525
47612W        W20680  19.472   2.815   3.006
47613W        W20681  13.293  36.589   0.264
47614W        W20682  32.683  39.569  11.308
47615W        W20683  14.839   0.506  12.957
47616W        W20684   6.175  13.315   2.755
47617W        W20685  17.493   6.305  14.398
47618W        W20686  25.426  24.819  11.129
47619W        W20687  29.422   6.668  14.859
47620W        W20688   3.312  17.706   4.854
47621W        W20689  16.724  22.921   2.418
47622W        W20690   2.308  11.604  13.999
47623W        W20691  12.164  22.708   4.455
47624W        W20692  26.471  30.111   4.294
47625W        W20693  30.845  41.797   2.751
47626W        W20694   7.356  44.249  10.994
47627W        W20695  14.311  37.790  14.372
47628W        W20696  43.013   2.856   3.285
47629W        W20697  30.092  24.136  13.981
47630W        W20698  17.262  27.100  14.796
47631W        W20699  44.945  19.637  12.810
47632W        W20700  19.789  37.743   4.216
47633W        W20701  21.488  12.298  12.566
47634W        W20702  24.478  12.823   3.658
47635W        W20703  29.203  14.253   2.252
47636W        W20704  37.059  12.777   2.348
47637W        W20705  14.676  11.161  14.816
47638W        W20706  27.566  18.695  12.366
47639W        W20707  10.221  29.938   0.641
47640W        W20708  26.920  35.050  10.332
47641W        W20709   8.401   7.806   0.414
47642W        W20710  43.038  34.954   2.259
47643W        W20711   5.040  31.291   0.247
47644W        W20712  42.897  43.378   5.030
47645W        W20713  19.069  19.736  11.021
47646W        W20714  36.600  34.546  13.583
47647W        W20715  13.080  20.754  12.847
47648W        W20716  28.927   1.324   3.909
47649W        W20717  43.448   2.985  14.931
47650W        W20718  36.113  38.809   2.718
47651W        W20719  39.642  25.672  13.857
47652W        W20720  42.847  34.359  11.988
47653W        W20721   5.461  12.724  12.520
47654W        W20722   4.833  41.035   4.453
47655W        W20723  28.039   8.334  14.072
47656W        W20724  16.323  43.280  10.964
47657W        W20725  12.633  27.077  10.650
47658W        W20726  44.319  27.135   4.719
47659W        W20727  29.732  32.588   2.126
47660W        W20728  12.244  43.213   3.620
47661W        W20729  18.030  38.886  13.555
47662W        W20730  18.173  23.743   1.383
47663W        W20731   8.822   9.421  13.888
47664W        W20732  39.493  20.970  12.740
47665W        W20733  26.701   8.600  13.881
47666W        W20734   0.822  16.324   0.401
47667W        W20735  22.645  18.729  12.983
47668W        W20736   2.484   9.015   2.720
47669W        W20737  13.729  26.936  14.880
47670W        W20738   9.432  10.279   0.372
47671W        W20739  22.685  43.574   2.959
47672W        W20740  29.870   9.389  14.798
47673W        W20741   7.753   2.436   1.472
47674W        W20742  40.819  40.571   3.393
47675W        W20743  14.035   4.113  11.633
47676W        W20744  35.278   2.314   4.330
47677W        W20745  10.370  23.673  11.945
47678W        W20746   9.935  43.494   0.852
47679W        W20747  37.066  38.295  13.507
47680W        W20748   5.495  23.630   1.670
47681W        W20749  15.275   7.366   4.158
47682W        W20750  43.890   5.258  14.898
47683W        W20751   3.956  16.681   2.070
47684W        W20752  20.983  15.283  13.666
47685W        W20753   5.072  29.039   1.352
47686W        W20754  19.046   8.695   4.709
47687W        W20755  32.623  42.313  10.545
47688W        W20756   4.228  44.938   1.391
47689W        W20757  16.116  43.797   2.844
47690W        W20758  20.262  35.920  11.981
47691W        W20759  10.922  11.856  14.540
47692W        W20760  26.680   8.642   0.867
47693W        W20761  28.624  42.504   3.340
47694W        W20762   1.130   0.408  13.148
47695W        W20763   8.195  19.073   0.546
47696W        W20764  31.932   5.538   2.969
47697W        W20765  29.085  18.779   0.069
47698W        W20766   2.260  17.592   0.195
47699W        W20767  33.400  44.565  13.818
47700W        W20768  33.908  37.164  11.318
47701W        W20769   6.202  23.208  11.129
47702W        W20770  16.766  12.849  11.158
47703W        W20771  29.094  41.982  13.593
47704W        W20772   5.005   2.301  14.855
47705W        W20773  10.198   4.513   1.889
47706W        W20774  10.650  38.923  13.544
47707W        W20775  29.972  26.276   2.754
47708W        W20776  32.415  37.357   2.859
47709W        W20777  17.833  33.515   4.564
47710W        W20778   1.017   2.285   1.942
47711W        W20779  31.521  26.691  13.278
47712W        W20780  18.884  15.173   1.487
47713W        W20781   5.181   2.322   3.121
47714W        W20782  38.041  12.156  10.605
47715W        W20783  13.909  24.053   1.449
47716W        W20784  44.241  33.901   0.581
47717W        W20785  20.715  12.330   4.658
47718W        W20786  34.835   8.843  12.503
47719W        W20787  19.126  35.560  12.463
47720W        W20788  23.461  26.672   1.257
47721W        W20789   3.618  42.062   1.008
47722W        W20790   2.943  12.980   1.901
47723W        W20791  29.588  39.925  11.975
47724W        W20792  24.440  16.530   4.065
47725W        W20793  15.113  21.780   3.871
47726W        W20794   3.877  17.122  14.469
47727W        W20795   9.713   7.655   3.395
47728W        W20796  13.029  24.845  11.144
47729W        W20797  21.417   6.373  14.791
47730W        W20798   0.137  10.103   1.270
47731W        W20799  11.840  29.514  14.777
47732W        W20800  18.295   0.346   2.820
47733W        W20801  43.261   3.274  12.136
47734W        W20802  37.617   1.309  13.411
47735W        W20803  25.029  24.055   2.387
47736W        W20804  23.473   6.262   1.656
47737W        W20805  12.852  35.440  12.672
47738W        W20806  10.726   4.483   1.187
47739W        W20807  14.681  19.447   4.736
47740W        W20808  25.190  39.628  10.206
47741W        W20809   2.223   0.982  14.473
47742W        W20810  20.525  39.496   3.116
47743W        W20811  44.984  15.805  11.362
47744W        W20812  37.766   4.642   0.381
47745W        W20813  32.926   0.514   0.323
47746W        W20814  42.580   5.730   1.399
47747W        W20815  37.832  25.018   4.168
47748W        W20816   2.809  14.335  12.037
47749W        W20817   6.198  19.805   4.122
47750W        W20818  29.948  35.393  11.667
47751W        W20819  13.034   8.311   1.909
47752W        W20820  39.944  19.872   3.049
47753W        W20821  36.960  16.483   3.182
47754W        W20822  21.766  25.990   1.834
47755W        W20823  29.546  36.127  12.555
47756W        W20824   7.903  12.346   4.152
47757W        W20825  42.131  41.306  11.181
47758W        W20826  18.744  32.890  13.335
47759W        W20827  16.248  40.874   2.394
47760W        W20828  31.673   2.056   2.671
47761W        W20829  27.477  14.278   1.947
47762W        W20830   1.257   6.428   1.808
47763W        W20831  40.108   3.459  13.352
47764W        W20832  17.023  35.483   4.558
47765W        W20833  17.082  14.262   1.881
47766W        W20834  24.058   9.632  10.786
47767W        W20835  32.902   9.726   3.419
47768W        W20836  39.990  28.934  12.538
47769W        W20837  22.561  36.369   3.721
47770W        W20838   1.708   7.466  11.955
47771W        W20839  30.466  30.635  14.916
47772W        W20840  36.593  33.075  12.521
47773W        W20841  19.039  42.711  12.459
47774W        W20842   8.338  26.361  11.108
47775W        W20843  38.829  39.787   1.727
47776W        W20844  12.356  14.679  10.631
47777W        W20845  29.129  24.928  14.981
47778W        W20846  27.542   1.534  13.381
47779W        W20847  31.695  18.153   4.626
47780W        W20848  16.129   3.441   3.780
47781W        W20849  11.865   2.333   3.179
47782W        W20850  32.821   0.050   0.106
47783W        W20851  31.700   4.392  11.109
47784W        W20852   0.555  20.129  11.647
47785W        W20853  30.588  18.506   1.813
47786W        W20854  11.530   3.077  11.795
47787W        W20855   6.380   1.442  13.977
47788W        W20856  12.336  24.159   3.067
47789W        W20857   5.366   9.805  14.378
47790W        W20858  40.012  29.674   3.686
47791W        W20859  18.355  23.039   3.886
47792W        W20860   0.977   2.334   4.522
47793W        W20861  16.497  13.353   3.352
47794W        W20862  19.362   3.912   3.149
47795W        W20863  11.095  12.733  14.854
47796W        W20864  10.446   7.326   0.021
47797W        W20865  38.922   4.207  13.649
47798W        W20866  38.573  32.403   1.322
47799W        W20867   4.480  19.369   2.244
47800W        W20868  22.028  16.165  13.376
47801W        W20869   1.706  42.348   0.977
47802W        W20870  15.632  42.486  12.866
47803W        W20871  19.559  22.781   1.700
47804W        W20872  28.734  18.779  11.179
47805W        W20873  23.597  35.986   4.084
47806W        W20874  44.236   7.544   5.036
47807W        W20875   1.961   8.231  12.377
47808W        W20876  35.961   4.682  14.715
47809W        W20877   3.388  18.340  12.497
47810W        W20878   0.839   7.494   1.988
47811W        W20879  36.782  44.259   1.878
47812W        W20880  40.591  10.873  12.076
47813W        W20881  43.927   6.528   2.385
47814W        W20882  14.054   9.563  11.927
47815W        W20883  18.808  21.434  13.956
47816W        W20884  24.693  11.350   1.872
47817W        W20885  11.185  15.307  12.868
47818W        W20886  18.768  35.793   4.888
47819W        W20887  35.767  29.586  11.915
47820W        W20888  25.722  19.060   0.367
47821W        W20889  41.384  15.418   0.884
47822W        W20890  39.863   8.127   0.301
47823W        W20891  15.396  17.779  14.895
47824W        W20892  42.633  43.223  14.259
47825W        W20893  10.522  36.826  11.407
47826W        W20894  19.235  18.114   4.903
47827W        W20895  35.114  38.872   4.630
47828W        W20896  23.926  12.694  13.372
47829W        W20897  37.528  12.673  12.923
47830W        W20898  17.444   5.094   1.564
47831W        W20899  15.269  38.500   1.666
47832W        W20900  36.108  40.327  14.412
47833W        W20901  10.341   1.105   3.267
47834W        W20902   9.499   9.436   1.413
47835W        W20903  41.395  15.582  10.899
47836W        W20904  11.802  30.655  14.977
47837W        W20905  23.096   1.165  12.097
47838W        W20906   6.824  13.475  11.591
47839W        W20907  22.764  40.477  13.488
47840W        W20908  37.403   7.462   2.739
47841W        W20909  38.181  38.608   3.337
47842W        W20910  33.867  25.183   5.132
47843W        W20911  21.035  44.528  11.043
47844W        W20912  39.412   8.315   3.522
47845W        W20913  15.725  15.182  14.926
47846W        W20914  20.760  22.720  11.148
47847W        W20915  12.658  11.389  11.410
47848W        W20916  38.862  30.771  13.375
47849W        W20917  38.359  17.719   3.676
47850W        W20918  35.986   6.943   4.078
47851W        W20919  31.020  25.232  12.876
47852W        W20920  22.122  40.515   1.705
47853W        W20921  40.471  11.878   4.088
47854W        W20922   0.756  37.734   3.284
47855W        W20923   3.695  32.590   2.935
47856W        W20924  43.989  36.307   4.623
47857W        W20925  18.001   8.727   0.822
47858W        W20926  31.817  11.589   3.383
47859W        W20927  12.044  19.176   2.680
47860W        W20928  35.581  25.511   3.759
47861W        W20929  13.241  39.442  12.523
47862W        W20930  16.206  13.843   0.771
47863W        W20931   9.435   6.602   4.424
47864W        W20932   6.762  37.844   2.775
47865W        W20933  33.645  28.035  12.180
47866W        W20934  42.453  37.480  13.726
47867W        W20935  11.166  10.256  14.400
47868W        W20936  29.153  28.920   2.874
47869W        W20937  11.612   7.828  10.989
47870W        W20938   6.069  33.441   3.616
47871W        W20939  30.156  43.407  14.927
47872W        W20940   8.159  39.002   3.699
47873W        W20941  32.165  10.336   0.668
47874W        W20942  34.123  24.397   0.820
47875W        W20943  23.504  24.748  11.866
47876W        W20944  32.830  33.430   1.904
47877W        W20945  19.788   9.712   4.627
47878W        W20946  10.688  21.866   0.186
47879W        W20947  37.249   4.661   1.463
47880W        W20948   4.710  30.886   3.303
47881W        W20949  44.491  37.988  10.952
47882W        W20950  36.893   4.537  10.630
47883W        W20951  14.199  34.953   4.234
47884W        W20952  37.619  39.918   3.659
47885W        W20953  25.135  14.208  13.653
47886W        W20954  18.094  14.760  12.169
47887W        W20955  26.681  44.321  12.906
47888W        W20956  16.706  24.990  13.909
47889W        W20957  28.420  44.332  13.455
47890W        W20958  24.756  18.723  12.467
47891W        W20959  26.617  16.172   3.563
47892W        W20960  40.706   5.309  11.616
47893W        W20961  26.605  32.382  11.110
47894W        W20962  37.564   5.386   4.326
47895W        W20963  40.297  15.076   3.927
47896W        W20964  30.417  38.999  13.825
47897W        W20965   6.982   7.962   3.669
47898W        W20966  33.634  24.174   2.312
47899W        W20967  37.103   1.747   4.217
47900W        W20968  28.532  42.516  13.040
47901W        W20969  15.245  16.916  12.179
47902W        W20970  10.312  30.631   3.746
47903W        W20971   7.344   2.774  14.019
47904W        W20972  12.168  30.416  13.361
47905W        W20973  23.467  22.961  10.599
47906W        W20974  39.319  15.356   4.759
47907W        W20975   2.289  35.579  13.614
47908W        W20976  21.941  44.738  11.899
47909W        W20977  43.032   6.319  11.999
47910W        W20978  42.854  36.414  12.089
47911W        W20979  17.163  37.310   0.001
47912W        W20980  24.481   0.906  14.065
47913W        W20981  11.919  41.700   2.214
47914W        W20982  29.286   7.365   3.717
47915W        W20983  15.698  36.788  14.330
47916W        W20984  37.549  15.158   0.756
47917W        W20985   3.462  36.524   5.070
47918W        W20986   4.251  22.292  13.940
47919W        W20987  28.145  23.136  10.881
47920W        W20988  19.026  18.354  14.263
47921W        W20989  25.791   5.696   4.720
47922W        W20990   2.261  40.056  13.293
47923W        W20991   5.769  31.642  10.793
47924W        W20992  20.179   0.289   2.387
47925W        W20993  32.970   4.338   2.808
47926W        W20994  35.900  34.132   3.283
47927W        W20995  39.604  27.304  10.734
47928W        W20996  37.430   7.852  11.054
47929W        W20997  43.786   5.931   1.077
47930W        W20998  17.730  39.458   3.402
47931W        W20999   7.922  19.222   3.354
47932W        W21000  21.202  18.062   3.876
47933W        W21001  30.539  43.836   0.515
47934W        W21002   1.333  15.094  11.380
47935W        W21003   5.652  36.050  11.843
47936W        W21004  38.845   1.532   1.260
47937W        W21005  43.561  38.024  12.736
47938W        W21006  10.726  39.798   3.810
47939W        W21007   0.463  15.153   4.613
47940W        W21008  27.118  19.790  10.776
47941W        W21009   3.732  11.440   2.798
47942W        W21010  37.581  44.572   4.569
47943W        W21011  26.629  37.462  11.207
47944W        W21012   7.169  19.002   2.924
47945W        W21013  15.194   3.214  11.476
47946W        W21014   4.342  26.741  10.822
47947W        W21015  10.748  43.149  10.582
47948W        W21016  18.077   2.921  14.459
47949W        W21017  34.554  39.827   3.109
47950W        W21018  10.208  43.881  12.385
47951W        W21019  14.761  35.946  13.333
47952W        W21020  34.036   3.963  13.415
47953W        W21021   3.790  28.288   0.295
47954W        W21022  44.413   9.950   4.140
47955W        W21023  12.535  38.311  12.888
47956W        W21024  35.924  33.068  10.776
47957W        W21025  26.987  20.441   1.191
47958W        W21026  32.922  37.767   2.223
47959W        W21027   1.074  42.878   4.360
47960W        W21028  25.151  20.719  11.010
47961W        W21029   1.202  43.437   2.802
47962W        W21030  43.745  17.319   9.866
47963W        W21031   2.365  38.598   4.269
47964W        W21032   3.785   0.767  12.602
47965W        W21033  42.284  28.508   4.593
47966W        W21034  31.988   6.898   1.748
47967W        W21035  16.181   4.823  14.815
47968W        W21036  24.827  15.073  11.451
47969W        W21037  28.144  33.467  10.662
47970W        W21038  44.485  40.943  14.370
47971W        W21039  10.953  31.534   4.225
47972W        W21040  23.027  41.010   3.732
47973W        W21041  13.497  12.115  12.551
47974W        W21042  32.109  34.135  11.752
47975W        W21043  43.215  40.032  14.751
47976W        W21044  24.605  15.079  13.863
47977W        W21045  17.987  15.530  13.888
47978W        W21046   0.372  28.879   4.130
47979W        W21047  38.362  33.682   4.061
47980W        W21048  36.403  30.118   0.729
47981W        W21049  29.612  36.426   3.916
47982W        W21050  12.338   1.324   2.608
47983W        W21051  27.620   6.632   1.377
47984W        W21052  23.979  17.747   0.842
47985W        W21053  17.364  20.092   4.193
47986W        W21054   3.302  24.220  14.082
47987W        W21055  23.507  28.148   1.368
47988W        W21056  13.380  31.556  11.882
47989W        W21057  34.926  27.684   0.424
47990W        W21058  39.995  31.828   2.678
47991W        W21059  17.177  20.630  11.046
47992W        W21060  23.674  24.383   0.372
47993W        W21061  36.044  18.611   1.395
47994W        W21062  41.887  10.059   1.734
47995W        W21063  29.170  15.032   3.603
47996W        W21064  33.505  43.533  10.802
47997W        W21065  39.869   6.737  12.100
47998W        W21066   5.066  34.522  11.160
47999W        W21067   3.350   8.680   4.382
48000W        W21068  20.966  14.455  12.560
48001W        W21069   0.921  11.597   2.121
48002W        W21070  36.149  37.007  13.945
48003W        W21071  39.690   4.885  12.425
48004W        W21072  13.081  22.475   3.290
48005W        W21073  20.103  28.396   0.746
48006W        W21074   4.915  37.382  10.017
48007W        W21075   6.381   7.617   0.888
48008W        W21076   2.999  16.859   0.363
48009W        W21077   0.074  25.722  11.545
48010W        W21078  27.587   0.754  13.889
48011W        W21079  44.241  42.373   0.327
48012W        W21080  34.072  28.439   1.935
48013W        W21081   0.473  12.612  14.959
48014W        W21082  11.165  20.055   3.689
48015W        W21083  15.748  25.649   4.294
48016W        W21084  21.972  10.590  11.093
48017W        W21085   5.805  28.135  14.537
48018W        W21086  24.636  14.241  12.400
48019W        W21087   3.350  43.278   4.552
48020W        W21088  15.288  25.270  11.223
48021W        W21089  10.127   1.087  10.164
48022W        W21090  40.110  39.514  13.689
48023W        W21091  35.861  43.948  13.699
48024W        W21092  18.720  22.244  14.278
48025W        W21093  39.936  38.999  13.580
48026W        W21094  15.298  25.907   0.243
48027W        W21095   5.833  34.151  13.858
48028W        W21096  44.741  41.363   0.385
48029W        W21097  44.256  44.382   3.396
48030W        W21098   9.356  36.336  11.354
48031W        W21099  30.619   3.883  12.865
48032W        W21100   0.431  42.076   1.220
48033W        W21101  12.742   3.820  14.234
48034W        W21102  29.374  35.033   1.685
48035W        W21103  32.609  29.918  14.958
48036W        W21104   8.868  15.825   1.460
48037W        W21105  20.271   4.160   2.886
48038W        W21106   6.935  15.281  13.387
48039W        W21107  17.882   5.051  13.957
48040W        W21108  42.335  18.084  14.574
48041W        W21109  10.361  42.502  12.442
48042W        W21110  36.396   6.146   4.116
48043W        W21111  43.054   4.106   0.674
48044W        W21112   0.768  36.476  14.870
48045W        W21113  19.060  13.996   5.094
48046W        W21114   1.301  12.239  12.418
48047W        W21115  10.702  30.132   0.788
48048W        W21116  22.209  36.015   4.581
48049W        W21117  16.006   8.810   3.573
48050W        W21118  11.916  37.410   3.730
48051W        W21119  14.582  44.407   0.011
48052W        W21120   7.363  42.029   1.705
48053W        W21121  32.085  18.999  11.573
48054W        W21122   8.903   2.756   0.718
48055W        W21123  43.400  33.843  10.726
48056W        W21124  37.376  38.304   2.256
48057W        W21125  40.315   4.900   0.445
48058W        W21126   3.782  29.099  13.329
48059W        W21127  38.995   0.532  13.163
48060W        W21128   8.037  44.784  14.971
48061W        W21129  40.972  32.851   1.303
48062W        W21130  12.476  18.627   2.172
48063W        W21131   3.782  32.968  14.882
48064W        W21132  23.752  14.363   0.334
48065W        W21133  20.181  27.715   1.570
48066W        W21134  43.538  30.168   2.698
48067W        W21135  22.781  36.144  12.904
48068W        W21136  34.529  30.617  11.892
48069W        W21137  27.074  42.879   2.289
48070W        W21138  13.526  31.577  14.780
48071W        W21139  30.664  21.519  11.310
48072W        W21140  14.447   7.315  13.040
48073W        W21141  39.958   9.005  11.493
48074W        W21142  14.729  41.498   1.750
48075W        W21143  12.321  20.188   2.316
48076W        W21144  39.829  43.399   1.251
48077W        W21145  21.250   5.780   3.702
48078W        W21146  25.981  12.150   3.205
48079W        W21147  25.174  41.456  13.087
48080W        W21148   2.951   3.062   4.497
48081W        W21149   2.086  16.423  12.170
48082W        W21150   4.619  33.968  11.501
48083W        W21151   0.240   3.809  13.945
48084W        W21152  44.496  32.910   1.958
48085W        W21153  21.534  17.241   4.099
48086W        W21154  17.562  26.044  13.511
48087W        W21155   9.021  15.384   2.843
48088W        W21156  38.423  31.807  13.472
48089W        W21157  39.921  25.720   4.387
48090W        W21158   4.170  15.666  12.348
48091W        W21159  10.632  43.215  12.482
48092W        W21160  27.895  13.721   1.943
48093W        W21161  37.880  44.837   0.473
48094W        W21162   9.395  17.560   4.664
48095W        W21163   2.293  39.908  14.663
48096W        W21164  23.864  11.829  13.532
48097W        W21165   0.345   9.958  12.945
48098W        W21166  43.230  11.862   4.182
48099W        W21167  20.791  26.556   1.796
48100W        W21168  17.989  22.985   4.272
48101W        W21169  37.076  11.875   1.491
48102W        W21170  19.989  23.153  12.508
48103W        W21171  15.186   9.639   2.270
48104W        W21172  16.642  18.580   2.670
48105W        W21173   1.935  14.320   2.826
48106W        W21174  43.286  24.259   2.211
48107W        W21175   4.225  34.990   3.645
48108W        W21176  25.732   9.469   1.333
48109W        W21177   9.743  32.453  12.466
48110W        W21178  39.679  12.458   2.756
48111W        W21179  40.765  20.048  12.950
48112W        W21180  21.090  17.979  11.535
48113W        W21181  25.549   1.685  14.451
48114W        W21182  39.958  28.170  12.037
48115W        W21183  23.629   9.829   2.295
48116W        W21184  28.264  31.102  11.566
48117W        W21185   9.234   8.820  13.084
48118W        W21186  43.989  33.903   4.314
48119W        W21187  41.873  16.811  14.358
48120W        W21188   8.364  30.042   2.137
48121W        W21189  41.036   4.552   4.601
48122W        W21190  22.209  13.864  13.935
48123W        W21191  42.738   9.694   0.439
48124W        W21192  44.275  24.446  12.025
48125W        W21193  22.288  14.225  10.896
48126W        W21194  23.696   2.030  11.519
48127W        W21195   4.782  15.226   4.419
48128W        W21196  18.976  11.706  14.404
48129W        W21197  23.800  28.053  10.821
48130W        W21198   0.364   6.240  10.408
48131W        W21199  36.746  43.221   0.759
48132W        W21200  10.794  19.202   9.971
48133W        W21201  30.564   2.154   2.656
48134W        W21202   6.964  42.406   2.333
48135W        W21203  24.774   4.791  14.911
48136W        W21204  13.745  20.049   4.717
48137W        W21205  44.230  24.662  14.121
48138W        W21206  29.095  42.440  13.327
48139W        W21207  14.288  28.142  12.240
48140W        W21208  16.558  32.559  14.416
48141W        W21209  44.742  28.456   1.857
48142W        W21210  17.420  29.516   4.578
48143W        W21211  44.929  13.225   2.132
48144W        W21212  12.744  26.607  12.336
48145W        W21213  33.620  11.862   1.396
48146W        W21214  30.040  13.577   2.949
48147W        W21215  17.351   4.731  12.764
48148W        W21216  25.272   9.795   5.029
48149W        W21217   7.096  44.479  12.517
48150W        W21218   2.806  13.513   1.849
48151W        W21219  20.317  23.064   0.521
48152W        W21220  41.441  42.074   4.090
48153W        W21221  11.297   9.548   4.525
48154W        W21222   4.052  33.077   0.909
48155W        W21223   6.353  10.577   0.830
48156W        W21224  26.783  16.902   4.946
48157W        W21225  19.914  18.232  11.070
48158W        W21226  29.713  40.513  14.493
48159W        W21227  37.552  19.802   3.233
48160W        W21228  27.979   9.228  12.367
48161W        W21229  18.495  25.511   4.891
48162W        W21230  36.565  17.198   0.700
48163W        W21231   7.720  33.360   0.552
48164W        W21232  35.723  12.592   0.076
48165W        W21233  43.405  34.393  14.487
48166W        W21234  13.568  16.652  12.497
48167W        W21235  38.926  44.826   0.410
48168W        W21236  18.690  12.628   2.787
48169W        W21237  36.485   4.145   1.398
48170W        W21238   4.807   2.529   4.506
48171W        W21239  26.960  17.041  10.203
48172W        W21240   8.446  23.103  14.894
48173W        W21241  10.424  30.685   0.529
48174W        W21242   8.633   0.766  12.164
48175W        W21243  28.389  44.264   2.908
48176W        W21244  39.060  14.079  12.369
48177W        W21245  21.823  38.787   3.405
48178W        W21246  31.886   6.484  12.416
48179W        W21247  41.045   6.085  12.938
48180W        W21248  43.393  38.929   0.172
48181W        W21249   0.491  12.691  13.779
48182W        W21250  39.364  40.026  10.534
48183W        W21251  12.835  41.690   2.065
48184W        W21252  37.501  15.704   4.449
48185W        W21253   2.588   1.349   0.749
48186W        W21254  15.076   3.009  13.438
48187W        W21255  35.065  18.381  14.873
48188W        W21256  35.735  21.679   0.341
48189W        W21257  22.543  19.802  10.589
48190W        W21258  37.640  22.208   4.587
48191W        W21259  11.847   6.396   0.649
48192W        W21260  38.444   9.121  12.881
48193W        W21261  29.424  23.137  10.389
48194W        W21262  32.588  10.870  12.964
48195W        W21263  26.394   6.899  12.458
48196W        W21264  12.301  33.614   0.300
48197W        W21265  13.360   0.948   0.835
48198W        W21266  23.225   1.475   2.327
48199W        W21267  36.553  43.356  12.491
48200W        W21268  12.242  32.609   4.072
48201W        W21269  32.069  35.941  11.384
48202W        W21270  42.392  35.164  12.050
48203W        W21271  25.806  30.709  12.952
48204W        W21272  19.750  32.238   2.315
48205W        W21273  40.914   7.646  14.668
48206W        W21274  15.040  27.908   1.389
48207W        W21275  14.249  31.216   3.165
48208W        W21276  23.249   5.325   3.241
48209W        W21277   5.218  14.880  10.597
48210W        W21278  25.950  24.605  13.011
48211W        W21279  34.339  40.350  11.189
48212W        W21280  13.839  20.661  11.953
48213W        W21281  32.700  43.700  11.065
48214W        W21282   2.557  18.974  13.397
48215W        W21283  26.922  39.911  11.581
48216W        W21284  39.299  38.447  11.114
48217W        W21285  21.966  14.272  14.828
48218W        W21286  44.321  39.493   3.366
48219W        W21287   4.238  31.992  11.502
48220W        W21288  34.926  10.791  10.832
48221W        W21289   1.284   1.997  14.014
48222W        W21290   3.531  18.129   4.672
48223W        W21291   2.825   3.853   0.424
48224W        W21292  40.962  31.180  12.456
48225W        W21293  13.257  21.178   3.137
48226W        W21294  25.613  39.754   1.891
48227W        W21295  38.230  20.262   2.730
48228W        W21296   4.715  22.127  12.541
48229W        W21297  26.013  34.811  11.930
48230W        W21298  28.241  34.183  12.941
48231W        W21299  37.010  26.881  12.515
48232W        W21300  23.894   7.234   4.673
48233W        W21301   5.854  42.920   2.738
48234W        W21302  39.270  30.870  14.204
48235W        W21303  39.465  31.187   4.261
48236W        W21304  13.167   7.910  11.275
48237W        W21305   4.447  33.506   4.111
48238W        W21306  19.389   0.530  11.508
48239W        W21307  28.721  23.528  12.778
48240W        W21308  43.661  43.017  13.139
48241W        W21309  41.914  12.140   1.819
48242W        W21310  32.335  33.528  14.455
48243W        W21311   9.019  31.175  11.041
48244W        W21312  43.947  36.497   0.345
48245W        W21313  22.710  40.430  11.120
48246W        W21314   0.692  39.956  14.927
48247W        W21315  31.998  23.613  12.876
48248W        W21316   4.345  23.681  12.952
48249W        W21317  22.709  13.165   2.792
48250W        W21318   1.712   6.118  10.771
48251W        W21319  30.078   7.126  13.412
48252W        W21320   3.870  38.750  12.944
48253W        W21321   1.087  41.495   4.772
48254W        W21322  32.670   8.975   3.664
48255W        W21323   0.422  16.373  13.297
48256W        W21324   5.837   9.652  10.089
48257W        W21325  43.236  17.338   1.915
48258W        W21326   3.769  20.254  11.702
48259W        W21327  26.448  38.516   4.302
48260W        W21328  33.435  24.846   4.826
48261W        W21329   3.434  22.680   3.155
48262W        W21330  18.258  41.232  13.612
48263W        W21331   9.725  21.461   1.157
48264W        W21332  31.012  19.229  12.249
48265W        W21333  32.910  25.154  12.565
48266W        W21334  13.273  16.888  10.813
48267W        W21335  43.278  25.431   1.311
48268W        W21336  31.675  33.149  12.981
48269W        W21337  19.298  36.628   3.635
48270W        W21338  43.089  42.975   2.799
48271W        W21339  12.750  38.511   3.175
48272W        W21340  24.388   9.684  12.016
48273W        W21341  21.837  15.539   2.798
48274W        W21342  42.864  14.273   2.404
48275W        W21343   1.198  22.011  10.121
48276W        W21344  18.199  35.015  12.116
48277W        W21345  30.372  26.481  14.407
48278W        W21346  28.500   7.450   3.230
48279W        W21347  31.126   4.725   2.665
48280W        W21348  18.485  27.732  12.402
48281W        W21349  17.163  31.446   1.253
48282W        W21350  25.427  41.388  12.626
48283W        W21351  20.757   0.750  14.361
48284W        W21352  41.543   8.345   3.943
48285W        W21353  11.321  10.291   3.283
48286W        W21354  44.196  29.651   5.077
48287W        W21355  27.567   0.013  12.415
48288W        W21356  38.487  36.086   3.633
48289W        W21357  29.261  39.811   1.672
48290W        W21358  29.523  20.040   3.274
48291W        W21359  26.936  17.232  14.794
48292W        W21360  17.409   2.402  14.408
48293W        W21361  12.314  14.069   4.716
48294W        W21362  25.579   0.856   4.750
48295W        W21363  42.314   9.776  10.662
48296W        W21364  27.637  34.983  14.720
48297W        W21365  37.308  31.267   2.593
48298W        W21366  19.242  39.461   4.618
48299W        W21367  34.354  33.498   1.459
48300W        W21368  32.969  17.131  13.406
48301W        W21369   0.267  44.252   2.118
48302W        W21370   1.659  20.104   3.326
48303W        W21371  36.979  19.346  11.682
48304W        W21372  18.262  15.528   0.347
48305W        W21373   4.007  41.438   2.779
48306W        W21374   2.139  19.625  13.840
48307W        W21375   7.598   4.819  13.371
48308W        W21376  42.440  42.300   4.129
48309W        W21377  24.201  44.391   3.682
48310W        W21378  31.431  41.568  14.838
48311W        W21379  41.116  43.029  11.955
48312W        W21380   0.851  43.374   2.392
48313W        W21381  13.175  39.988  10.692
48314W        W21382  13.683  32.496   4.270
48315W        W21383   4.673  38.832  11.605
48316W        W21384  42.788  28.066  12.887
48317W        W21385  38.555   2.956   0.909
48318W        W21386  11.062  36.439   3.070
48319W        W21387  20.805  29.600  11.593
48320W        W21388  11.407  26.701  10.584
48321W        W21389  32.907  17.037  14.981
48322W        W21390  15.115  18.768   4.076
48323W        W21391  43.032  11.756   0.976
48324W        W21392  24.230  16.809   2.800
48325W        W21393  15.709  37.075   3.646
48326W        W21394  27.610   7.437  14.923
48327W        W21395  35.152  18.641   2.260
48328W        W21396  23.317  24.746   5.051
48329W        W21397  35.937  12.617   1.207
48330W        W21398  24.273   2.208  12.596
48331W        W21399  20.692  43.949   3.224
48332W        W21400  17.311  32.107  12.897
48333W        W21401  28.429  37.335  12.891
48334W        W21402  20.321  21.474  14.802
48335W        W21403  29.014  14.230   4.661
48336W        W21404   0.993  35.526  14.543
48337W        W21405  32.107   2.714   1.398
48338W        W21406  41.321  13.808  12.417
48339W        W21407   9.737  40.311  10.114
48340W        W21408  40.178  39.797   4.744
48341W        W21409  11.051  29.530  14.386
48342W        W21410  29.447  31.078  12.343
48343W        W21411   3.313   9.673   3.889
48344W        W21412  39.545  24.101   3.754
48345W        W21413   0.873  11.810   4.626
48346W        W21414  23.906  10.736  12.923
48347W        W21415  37.444  41.768   4.240
48348W        W21416  37.569  43.915  13.017
48349W        W21417  24.552  13.360   1.891
48350W        W21418  42.293  35.429  13.687
48351W        W21419  41.790  44.787   2.182
48352W        W21420  42.332  23.039   2.509
48353W        W21421  16.111  11.662  11.959
48354W        W21422  17.047  21.688  14.860
48355W        W21423  41.582  17.133  12.497
48356W        W21424   9.244   1.573  14.927
48357W        W21425  28.164  36.475   4.634
48358W        W21426  13.119  42.350   2.699
48359W        W21427  25.989  12.544  14.357
48360W        W21428   7.166  43.127  12.336
48361W        W21429   5.599  41.390  14.340
48362W        W21430  38.322  28.714  11.093
48363W        W21431  14.543  43.948   2.805
48364W        W21432  34.215  10.364   1.998
48365W        W21433  37.885  28.101  10.585
48366W        W21434   7.414  26.141   1.849
48367W        W21435   7.840  28.385  13.983
48368W        W21436  26.115   4.795   3.727
48369W        W21437  31.879  22.670   3.285
48370W        W21438  26.452   9.607  13.733
48371W        W21439  32.895  21.419   0.830
48372W        W21440  15.563  44.236  13.104
48373W        W21441  11.150  35.594   4.490
48374W        W21442  21.617  41.796   4.156
48375W        W21443  27.115   2.160   0.659
48376W        W21444  36.014   4.870   1.673
48377W        W21445   9.164  41.599   9.934
48378W        W21446   6.996  10.166   0.051
48379W        W21447  37.347  42.747  11.530
48380W        W21448  11.184  32.645   2.254
48381W        W21449  19.773   1.248  14.852
48382W        W21450  23.178  16.733  14.976
48383W        W21451  26.918  10.147  10.669
48384W        W21452  28.628  42.770  14.835
48385W        W21453   8.794  16.204  14.989
48386W        W21454   2.954   7.814   1.805
48387W        W21455  23.181   8.220  11.189
48388W        W21456  29.087  24.684   0.560
48389W        W21457  25.966  20.740  12.530
48390W        W21458   0.335   9.703   2.220
48391W        W21459  20.066  30.252   0.289
48392W        W21460  34.792   7.331   3.165
48393W        W21461  14.305   4.075   4.127
48394W        W21462   8.333  25.230   0.265
48395W        W21463   9.443   0.729  14.702
48396W        W21464  32.549  28.587   0.483
48397W        W21465  15.488  27.411   2.345
48398W        W21466   0.312   0.540  13.575
48399W        W21467  32.167  17.223   3.884
48400W        W21468  25.400  41.985  14.816
48401W        W21469  10.732  40.118  11.479
48402W        W21470  14.612  14.644   3.810
48403W        W21471  13.220  41.015   3.887
48404W        W21472  10.166  42.364  12.920
48405W        W21473  33.656  44.711   3.619
48406W        W21474  28.438  43.311  13.507
48407W        W21475  28.637   8.324   4.224
48408W        W21476  12.318  13.185  14.312
48409W        W21477  33.442  25.201  12.414
48410W        W21478   6.811   3.915   1.154
48411W        W21479   2.453  42.867   1.692
48412W        W21480  24.986   6.290  12.838
48413W        W21481  39.252  14.189   2.102
48414W        W21482  34.792  31.810   2.170
48415W        W21483  18.068  23.236  11.968
48416W        W21484  39.302  36.319   5.093
48417W        W21485   3.655  43.941   3.135
48418W        W21486  10.767  19.886   0.742
48419W        W21487  22.063  10.752   1.750
48420W        W21488   8.891  10.771  12.722
48421W        W21489  11.646  26.604   1.158
48422W        W21490  28.146  10.696   0.463
48423W        W21491  16.717  14.317  12.053
48424W        W21492  25.457   5.310   0.195
48425W        W21493  11.693  16.166  11.081
48426W        W21494  27.066   3.948   0.909
48427W        W21495  22.713  13.165  14.206
48428W        W21496   7.224   4.856  10.500
48429W        W21497  12.367   7.345   3.175
48430W        W21498  31.906  36.868  12.910
48431W        W21499   3.392  29.428   3.720
48432W        W21500   8.309  20.232   4.355
48433W        W21501  26.560  33.055  12.095
48434W        W21502  33.540   1.561   3.308
48435W        W21503  16.157  34.051   4.869
48436W        W21504  40.398  37.515  14.926
48437W        W21505  10.386  26.099   1.384
48438W        W21506  20.467  16.589   2.723
48439W        W21507  39.823   7.838   3.297
48440W        W21508  19.959  13.046  12.963
48441W        W21509  19.014  40.527   1.841
48442W        W21510  42.998  44.340  12.911
48443W        W21511  21.075  17.968   0.916
48444W        W21512  10.269  40.388  14.346
48445W        W21513  26.674   1.978  13.052
48446W        W21514  31.131  32.442   2.397
48447W        W21515  20.104  44.955  11.879
48448W        W21516  24.979  21.909   0.317
48449W        W21517  12.297  37.185   0.312
48450W        W21518  10.663  28.558  11.371
48451W        W21519  35.965  37.820   1.776
48452W        W21520  19.593  26.197   0.961
48453W        W21521  11.170   0.347   3.423
48454W        W21522   8.606   5.696  10.496
48455W        W21523  37.431  20.322  14.843
48456W        W21524  38.901   9.783   4.088
48457W        W21525  41.378   2.389   3.325
48458W        W21526   7.706  20.235   2.205
48459W        W21527  33.056  41.274  11.371
48460W        W21528  10.735  21.415   3.625
48461W        W21529  41.969  37.202  10.508
48462W        W21530  44.373  28.654   4.795
48463W        W21531  40.727  19.654   3.714
48464W        W21532  41.737  15.477  14.486
48465W        W21533  29.620  36.614   0.367
48466W        W21534  17.668  33.890   2.826
48467W        W21535  27.421  22.488  10.762
48468W        W21536  20.024  30.911   1.658
48469W        W21537   6.809  16.667  13.517
48470W        W21538  31.066  44.956   4.433
48471W        W21539   4.160  16.472  12.634
48472W        W21540  33.956  21.301  12.549
48473W        W21541  29.872  15.311  12.062
48474W        W21542   2.933  37.044  13.108
48475W        W21543   6.502   1.899  12.611
48476W        W21544  25.471  38.531  10.974
48477W        W21545   3.967  34.151  10.720
48478W        W21546  23.984   1.358  13.096
48479W        W21547  24.165   8.667   2.387
48480W        W21548  26.556  32.632  10.667
48481W        W21549  39.285   2.479   4.218
48482W        W21550  15.135   6.968   2.882
48483W        W21551  29.476  16.522   1.789
48484W        W21552  17.612  20.035  12.915
48485W        W21553  25.110  26.459   1.437
48486W        W21554  35.336  17.801   2.442
48487W        W21555  32.667   4.190   0.331
48488W        W21556   3.747  23.278  12.084
48489W        W21557   3.248  37.779   2.234
48490W        W21558  36.054  43.887  12.831
48491W        W21559  13.221  18.281   4.610
48492W        W21560  12.374  36.016  10.689
48493W        W21561  26.699   1.927  10.329
48494W        W21562   1.475  22.735   4.526
48495W        W21563  41.039  30.895   2.337
48496W        W21564  24.325  20.670  10.387
48497W        W21565  30.536  11.138   1.203
48498W        W21566  27.485  41.505   1.068
48499W        W21567  20.297  36.469  13.774
48500W        W21568  23.224  39.473   0.691
48501W        W21569  38.573  23.032  11.377
48502W        W21570   5.184  33.576  11.796
48503W        W21571  41.952   3.746   3.602
48504W        W21572   3.848   8.170  10.699
48505W        W21573  10.703  11.641   0.860
48506W        W21574   9.814  31.426   2.163
48507W        W21575  21.195  37.971   4.545
48508W        W21576  15.046   7.964  11.338
48509W        W21577  43.018  36.554  10.737
48510W        W21578  39.857  36.186   1.838
48511W        W21579   8.323  16.719   4.194
48512W        W21580  40.494  33.084  10.567
48513W        W21581  12.077  40.520   2.669
48514W        W21582   6.246   9.779  14.051
48515W        W21583   2.992  17.031   3.225
48516W        W21584  41.253  10.545   3.312
48517W        W21585  16.150  43.971  10.729
48518W        W21586  41.350  30.310  13.442
48519W        W21587  32.605  38.985  13.174
48520W        W21588   3.404   6.494  14.257
48521W        W21589  11.602  24.506   1.964
48522W        W21590  24.803  33.258  14.386
48523W        W21591  11.259   6.801   3.575
48524W        W21592  44.271   9.445   1.442
48525W        W21593  19.272   1.470   1.049
48526W        W21594  43.349  28.574  14.795
48527W        W21595  13.182  43.670   2.758
48528W        W21596  21.689  27.964   1.740
48529W        W21597  39.302   8.249  11.161
48530W        W21598  29.968  29.934   3.723
48531W        W21599  36.866   0.417   4.966
48532W        W21600   6.356  13.698  11.623
48533W        W21601  40.827  10.284  12.783
48534W        W21602  24.272  13.751  14.899
48535W        W21603   1.364   5.311  11.549
48536W        W21604  36.547  36.624  10.818
48537W        W21605   1.232   0.975   3.246
48538W        W21606  42.593  31.669   1.266
48539W        W21607   1.458  42.049   0.502
48540W        W21608  15.322  20.332   3.677
48541W        W21609  39.028  42.808  12.460
48542W        W21610  25.156  34.702   3.392
48543W        W21611  13.064   8.157   1.404
48544W        W21612  44.771  10.801   2.887
48545W        W21613   0.014  31.804  13.954
48546W        W21614  11.258  13.647  12.580
48547W        W21615  40.234  13.753   3.782
48548W        W21616  19.759  25.026   3.380
48549W        W21617  27.372  19.057  11.978
48550W        W21618   6.178   2.046   0.943
48551W        W21619  30.370  34.727   0.841
48552W        W21620  29.258  40.268  14.454
48553W        W21621  24.790   6.780  12.096
48554W        W21622  17.657  15.874  12.051
48555W        W21623   9.683  44.367   3.278
48556W        W21624  26.680  40.227   4.073
48557W        W21625  27.436  22.014   3.456
48558W        W21626  32.433  30.518   4.538
48559W        W21627  11.861   9.801   2.852
48560W        W21628  15.030  23.702  11.491
48561W        W21629  14.243  24.454  10.720
48562W        W21630  44.442  43.135  14.919
48563W        W21631  35.474  31.367   4.596
48564W        W21632  24.642  39.955  13.960
48565W        W21633  37.806  42.490  11.651
48566W        W21634   5.449  31.368   3.400
48567W        W21635  21.731  33.608  14.970
48568W        W21636  27.033  28.867   4.111
48569W        W21637  38.613  19.265   1.367
48570W        W21638  29.842  12.820   2.161
48571W        W21639  10.961  27.696  12.992
48572W        W21640  33.848  44.436   0.309
48573W        W21641   2.910  10.749  12.634
48574W        W21642  10.189   9.835  13.920
48575W        W21643  20.076  33.950   3.865
48576W        W21644  20.341   1.036  13.458
48577W        W21645   2.159  36.002  13.359
48578W        W21646   1.895  42.735  13.818
48579W        W21647  25.396  27.639  12.976
48580W        W21648  29.716  24.057  12.090
48581W        W21649   4.715  30.924   5.117
48582W        W21650  41.486  17.001   2.448
48583W        W21651  39.478  37.530  10.885
48584W        W21652  31.536  11.880   5.004
48585W        W21653   6.798   0.119   3.176
48586W        W21654   2.651  33.448  11.885
48587W        W21655   4.684  29.153  14.967
48588W        W21656   5.973  35.595  11.985
48589W        W21657   8.831  41.953   3.241
48590W        W21658  10.180  23.178   1.944
48591W        W21659   1.949   4.856  12.575
48592W        W21660   5.800  42.333   4.813
48593W        W21661   6.265  36.716   4.497
48594W        W21662  38.235  23.551   5.074
48595W        W21663  37.901  30.198   1.837
48596W        W21664  26.171   7.371  12.044
48597W        W21665  31.374  44.548   1.312
48598W        W21666  25.027  43.503   3.712
48599W        W21667  23.520   4.727   4.437
48600W        W21668  10.850  16.712   1.410
48601W        W21669  16.013  10.825  10.668
48602W        W21670  23.612  37.114   2.646
48603W        W21671  25.708  12.568   3.046
48604W        W21672  38.489  42.350  11.033
48605W        W21673  31.980   0.681   2.799
48606W        W21674  37.969   0.820  10.446
48607W        W21675  39.176  21.230  10.260
48608W        W21676  40.365  25.570   3.345
48609W        W21677  28.980   8.690   4.134
48610W        W21678  19.091  33.313  11.329
48611W        W21679  39.037  19.484   1.199
48612W        W21680  29.822  17.148   4.181
48613W        W21681   2.358  19.476  10.587
48614W        W21682  20.622  32.063   1.164
48615W        W21683  39.669  42.784   3.259
48616W        W21684   2.883  39.926   0.940
48617W        W21685  14.527  39.953   0.884
48618W        W21686   3.244  29.653   1.415
48619W        W21687  29.173   9.362   2.296
48620W        W21688  17.250  22.630  13.261
48621W        W21689  19.186  10.634   4.759
48622W        W21690  10.222  33.466   1.243
48623W        W21691   4.022  34.975  13.539
48624W        W21692  12.869  32.612   1.382
48625W        W21693  42.330  37.158  12.018
48626W        W21694  35.158  10.218  10.091
48627W        W21695  13.619  37.636   2.924
48628W        W21696  16.204  44.700   2.611
48629W        W21697  23.564   0.001  14.841
48630W        W21698  14.718  30.132  12.903
48631W        W21699  26.616  38.978   3.396
48632W        W21700  16.759  23.256  13.310
48633W        W21701  31.382   9.760   4.342
48634W        W21702  43.025   8.863   2.979
48635W        W21703  26.381  27.491  12.981
48636W        W21704   2.350   1.907  14.329
48637W        W21705  27.963   2.190  12.996
48638W        W21706  44.384  38.467   3.245
48639W        W21707  19.224  25.517  11.620
48640W        W21708   6.890  24.732   4.307
48641W        W21709  28.113  11.584   2.833
48642W        W21710  32.015  32.590  13.434
48643W        W21711  43.228  10.838   3.523
48644W        W21712   6.634  28.033  11.516
48645W        W21713   4.321  15.640   3.419
48646W        W21714  42.197  32.914   0.784
48647W        W21715  42.284  11.314  13.664
48648W        W21716  10.678  37.512  14.505
48649W        W21717  39.771  13.667  13.439
48650W        W21718  22.302   1.748   2.705
48651W        W21719  30.868   2.422   0.310
48652W        W21720   4.067  28.769   5.015
48653W        W21721  16.630  15.359   0.400
48654W        W21722   1.210  10.375  12.048
48655W        W21723  13.585  31.433   1.175
48656W        W21724  33.580  18.180   3.107
48657W        W21725  35.424  29.991   4.028
48658W        W21726  40.033   4.644  12.992
48659W        W21727  44.951  32.436   0.864
48660W        W21728   8.319  22.074  12.101
48661W        W21729   2.488  16.751  12.059
48662W        W21730  35.009  22.590  14.953
48663W        W21731  28.578  37.644  14.789
48664W        W21732  41.045  13.244  13.427
48665W        W21733  27.068  26.044   3.202
48666W        W21734  15.784  13.619   0.985
48667W        W21735  22.723  31.721  13.298
48668W        W21736  35.693  25.601  12.063
48669W        W21737  12.145  23.566   1.433
48670W        W21738   9.176  40.707   1.847
48671W        W21739  19.503   4.706   4.142
48672W        W21740  32.892  10.613   1.980
48673W        W21741  26.977  16.789  11.408
48674W        W21742  40.922  23.669  10.884
48675W        W21743  34.681  28.482  13.839
48676W        W21744  15.616  19.664   0.466
48677W        W21745  26.237   0.694  11.925
48678W        W21746  10.719  18.589  10.721
48679W        W21747  35.653  31.063   3.725
48680W        W21748  42.012  38.598  10.408
48681W        W21749  39.498  38.399  12.901
48682W        W21750  19.855  23.549   0.303
48683W        W21751  25.544  33.188  12.858
48684W        W21752  41.927  20.106   4.315
48685W        W21753  25.563  12.110   2.858
48686W        W21754  40.209   2.212   4.359
48687W        W21755  43.877  41.826   4.166
48688W        W21756  28.606  34.058  11.654
48689W        W21757   8.621  32.488  14.019
48690W        W21758  33.379  11.184   4.199
48691W        W21759   8.203  42.757  14.255
48692W        W21760  27.267  16.338  11.526
48693W        W21761  37.838  13.731   4.242
48694W        W21762  23.510  10.863   4.072
48695W        W21763  26.514  20.127   1.354
48696W        W21764  30.435  12.099  12.936
48697W        W21765  23.487   8.342   0.908
48698W        W21766   9.851   8.454   3.749
48699W        W21767  25.919  14.225  14.420
48700W        W21768  42.234  15.658  11.909
48701W        W21769  18.659   1.386   4.132
48702W        W21770  41.052  41.534   4.647
48703W        W21771  12.029  12.763   2.228
48704W        W21772  43.121  18.405  12.416
48705W        W21773  42.327  44.901  13.710
48706W        W21774  18.486  40.869  11.901
48707W        W21775  44.315  25.865  11.966
48708W        W21776  43.467   9.009   0.385
48709W        W21777  32.218  15.428   2.259
48710W        W21778  21.215  28.696  12.491
48711W        W21779  21.068  13.821   0.360
48712W        W21780  27.074  44.210  13.488
48713W        W21781  37.511  44.944   1.792
48714W        W21782  27.648  21.027  11.154
48715W        W21783  24.731  17.321  12.149
48716W        W21784   3.301  30.484  14.781
48717W        W21785   7.756  32.617  12.887
48718W        W21786  24.465   1.287   1.299
48719W        W21787  16.664  44.719   1.623
48720W        W21788  19.267  29.625  11.212
48721W        W21789  30.070  35.139  12.135
48722W        W21790  10.881  24.148   0.044
48723W        W21791  31.579  27.446   1.275
48724W        W21792  40.002  21.580   0.646
48725W        W21793  44.416  43.384  11.696
48726W        W21794  30.706  19.236   1.375
48727W        W21795  29.263  24.970  11.893
48728W        W21796   2.937  42.924   4.805
48729W        W21797  10.181  43.620  11.151
48730W        W21798  36.814   5.325   1.733
48731W        W21799  24.927  36.219   4.277
48732W        W21800  20.343  10.207   1.412
48733W        W21801   4.829   3.997   4.546
48734W        W21802  26.517  33.111  12.889
48735W        W21803  39.012  34.378   0.369
48736W        W21804  32.866  25.666  12.530
48737W        W21805  30.329   0.201  14.946
48738W        W21806   5.667   1.529  12.489
48739W        W21807  38.572  27.916   3.852
48740W        W21808  33.992   4.425   3.737
48741W        W21809  44.341  30.717   0.361
48742W        W21810   5.740  12.366   3.250
48743W        W21811  16.743  13.949   2.213
48744W        W21812  33.019  10.702   2.467
48745W        W21813   2.538  16.837   1.783
48746W        W21814  34.466  36.035  12.547
48747W        W21815  30.015  10.748   3.157
48748W        W21816  40.487  35.018   2.233
48749W        W21817  39.497  37.961  13.807
48750W        W21818  17.786  24.241  12.621
48751W        W21819  34.543  17.267   2.004
48752W        W21820   3.465   7.627  11.054
48753W        W21821  39.527  25.498   3.539
48754W        W21822  23.345  11.806  13.421
48755W        W21823  41.816   9.010  13.502
48756W        W21824   1.463   6.668  12.017
48757W        W21825   6.820  20.637   2.379
48758W        W21826  14.004  28.192  12.669
48759W        W21827  13.745  34.419  11.401
48760W        W21828  38.944  35.068  13.466
48761W        W21829   1.188   0.827   0.181
48762W        W21830   0.164   2.805   3.370
48763W        W21831   7.812  28.027  10.628
48764W        W21832  43.201  33.504   3.905
48765W        W21833  35.865  32.319   0.833
48766W        W21834  34.723  21.149  14.684
48767W        W21835   9.877   4.506  11.429
48768W        W21836   1.332  44.787  11.426
48769W        W21837  26.562  35.523   4.533
48770W        W21838  42.865   0.968   0.377
48771W        W21839  44.186  39.544  11.586
48772W        W21840  32.688  19.658  13.750
48773W        W21841   8.305  15.490  14.551
48774W        W21842   2.504   3.682  12.672
48775W        W21843  29.541  26.904  10.697
48776W        W21844  26.023  44.270   1.888
48777W        W21845  12.391   6.173  14.892
48778W        W21846   1.875   4.874  13.423
48779W        W21847   6.875  30.988   1.789
48780W        W21848  12.287   4.205   0.864
48781W        W21849  24.442  11.867   2.750
48782W        W21850  15.125  13.567   4.736
48783W        W21851  10.334  38.834  14.431
48784W        W21852  37.472  10.483   0.301
48785W        W21853   9.448  43.837   0.437
48786W        W21854  21.117  22.902  11.508
48787W        W21855  28.198  42.750  10.960
48788W        W21856   6.812   4.497   3.491
48789W        W21857  40.307  10.447  12.069
48790W        W21858  37.941  11.149  12.626
48791W        W21859  41.037  44.580  14.759
48792W        W21860  38.489  41.350   4.828
48793W        W21861   5.825   8.191  12.391
48794W        W21862   1.471  41.707   2.757
48795W        W21863  36.114  21.191  10.735
48796W        W21864   8.435  42.960   5.319
48797W        W21865  37.893  44.091  10.424
48798W        W21866  38.926   2.230  14.908
48799W        W21867  41.093  25.968   4.986
48800W        W21868  43.920  11.215   0.081
48801W        W21869  32.436  37.301  14.780
48802W        W21870  36.543  29.464   3.275
48803W        W21871  12.703  28.002  10.581
48804W        W21872  23.350  44.798   3.426
48805W        W21873  25.090  10.219  11.781
48806W        W21874  35.575  34.091   2.832
48807W        W21875  31.473  37.774  12.546
48808W        W21876  41.720  18.218   5.050
48809W        W21877  34.131  13.302  11.543
48810W        W21878  32.932  31.323  11.514
48811W        W21879   8.625  11.365   4.460
48812W        W21880   8.375  16.458   1.153
48813W        W21881  37.322   2.711   2.173
48814W        W21882  17.828   6.691  13.395
48815W        W21883  44.994  16.801  11.137
48816W        W21884  25.139  44.946  11.550
48817W        W21885  18.776  31.361  12.501
48818W        W21886   1.711  24.248   2.780
48819W        W21887  22.983  37.183  12.782
48820W        W21888   7.931   7.554  10.679
48821W        W21889   1.840  35.567  13.335
48822W        W21890  10.882  18.408  12.419
48823W        W21891  36.709  19.512  11.242
48824W        W21892   4.013  15.783  14.791
48825W        W21893  32.380  14.974  12.607
48826W        W21894  32.921  36.035   0.805
48827W        W21895  10.696  32.310   4.083
48828W        W21896   5.272  13.740   3.897
48829W        W21897  38.488  26.997   4.154
48830W        W21898  23.496  31.086  14.363
48831W        W21899   2.698  24.609  14.667
48832W        W21900  16.693  28.909  13.940
48833W        W21901   9.864  18.045  10.992
48834W        W21902  23.762  13.209  12.467
48835W        W21903  15.839  39.720  11.087
48836W        W21904  21.098  33.642  11.448
48837W        W21905  39.122  43.951  14.499
48838W        W21906  37.301  35.528   4.016
48839W        W21907  22.148  34.060  13.357
48840W        W21908  26.136  16.018  14.710
48841W        W21909  44.228  15.561   4.636
48842W        W21910  10.833  39.831   1.999
48843W        W21911  13.299  37.358   2.144
48844W        W21912  28.254   5.330   3.209
48845W        W21913  13.393  17.729  14.772
48846W        W21914  20.768  39.350  12.948
48847W        W21915  23.265  20.060   2.582
48848W        W21916  19.725  23.650  12.551
48849W        W21917  42.291  33.143  11.918
48850W        W21918  19.690   9.786  12.017
48851W        W21919  23.795   2.159   4.271
48852W        W21920  41.812  28.927   0.337
48853W        W21921  33.398   9.851  12.377
48854W        W21922  10.298   9.147  13.095
48855W        W21923  31.410   1.681   3.547
48856W        W21924  33.269  20.343   3.849
48857W        W21925  39.529  10.992   4.071
48858W        W21926  39.994   5.358  11.017
48859W        W21927  42.464  34.904   4.222
48860W        W21928   2.486  41.584  10.503
48861W        W21929  10.692   7.729   3.651
48862W        W21930  44.514  24.732   0.383
48863W        W21931   2.776   7.880   3.294
48864W        W21932  20.186  28.729   1.160
48865W        W21933  36.384  36.292   0.823
48866W        W21934   4.793  29.851   2.371
48867W        W21935  33.463   1.960   4.340
48868W        W21936   4.559  12.143   1.892
48869W        W21937  40.489  12.010  14.587
48870W        W21938  41.513  34.936  13.612
48871W        W21939  18.894   2.903  13.871
48872W        W21940  44.933  40.766   1.995
48873W        W21941  15.370  41.929  12.610
48874W        W21942  28.303  36.303  11.059
48875W        W21943  40.209  36.964  10.993
48876W        W21944  27.559  17.905   1.809
48877W        W21945  28.811  10.396  12.617
48878W        W21946  23.270  31.437   0.309
48879W        W21947  33.474  22.609   4.683
48880W        W21948  41.289   5.100  14.990
48881W        W21949  44.616  37.908  14.328
48882W        W21950  40.691  24.404  14.970
48883W        W21951  17.186  14.823  13.919
48884W        W21952   1.352  36.978   3.193
48885W        W21953  21.630  44.851  13.882
48886W        W21954  30.124  17.207   1.902
48887W        W21955  14.346   1.915  13.013
48888W        W21956  10.313  23.161  13.785
48889W        W21957  33.349  16.711  13.146
48890W        W21958  13.742  31.937   0.964
48891W        W21959  39.330  30.602   3.177
48892W        W21960  25.858  35.640   1.671
48893W        W21961   1.679  36.045  13.493
48894W        W21962  31.341  38.754   4.036
48895W        W21963  22.540  39.267   2.824
48896W        W21964  14.707  36.514   4.738
48897W        W21965  31.100  17.561   0.440
48898W        W21966  18.143   1.032   4.700
48899W        W21967  34.808   8.332  13.087
48900W        W21968   7.801  13.888  14.426
48901W        W21969  21.504  36.485   4.928
48902W        W21970   3.505  11.860   4.209
48903W        W21971  17.665  32.524   4.352
48904W        W21972  44.464   8.186   0.066
48905W        W21973  11.407  14.298  13.338
48906W        W21974  20.175  24.004   4.242
48907W        W21975  14.298  44.450  10.369
48908W        W21976  39.868  41.948  11.641
48909W        W21977  42.380  44.915   0.025
48910W        W21978  32.030  26.983  13.179
48911W        W21979  39.162  19.269   4.856
48912W        W21980  22.689  38.373   2.795
48913W        W21981   0.974  34.764   4.672
48914W        W21982  40.749   2.906  10.701
48915W        W21983   2.181  38.422   4.726
48916W        W21984  37.087  30.918   4.350
48917W        W21985  30.802  24.277   4.603
48918W        W21986  14.372  38.270  10.959
48919W        W21987  19.497   6.476   3.700
48920W        W21988  41.397   0.565   0.461
48921W        W21989  17.103  20.676  14.450
48922W        W21990   7.258  18.724   0.234
48923W        W21991   8.457   5.726   3.216
48924W        W21992  26.762  39.873   1.421
48925W        W21993  42.029  35.873   1.257
48926W        W21994  14.627  38.973  10.295
48927W        W21995  43.812  24.619  11.258
48928W        W21996  41.112  24.788   4.409
48929W        W21997  39.599  18.393  14.404
48930W        W21998  37.048  12.692   0.307
48931W        W21999  44.572  20.677  11.988
48932W        W22000  25.513  43.383   2.682
48933W        W22001  18.868  25.687  13.385
48934W        W22002  26.860   0.864  13.085
48935W        W22003  14.160  19.148   1.904
48936W        W22004  22.212  27.901  12.567
48937W        W22005  11.063  31.403   3.258
48938W        W22006   0.461  29.693   4.419
48939W        W22007  38.004  34.986   4.739
48940W        W22008  21.688  42.061   0.891
48941W        W22009  43.774  14.782  10.575
48942W        W22010   0.249  34.698  10.733
48943W        W22011   0.475  35.080  11.863
48944W        W22012  34.954  12.762   0.482
48945W        W22013   5.500  18.088   4.306
48946W        W22014  19.126   8.239  10.653
48947W        W22015  30.013  29.212   1.865
48948W        W22016  40.030  32.582   3.152
48949W        W22017  13.055  43.869   0.181
48950W        W22018  21.198   8.803  14.485
48951W        W22019  36.977  22.848  13.984
48952W        W22020  14.064  24.563   0.077
48953W        W22021   6.852  40.994   1.161
48954W        W22022  43.421  34.599   2.067
48955W        W22023  40.110  42.992   2.214
48956W        W22024  17.119  24.643   4.862
48957W        W22025  37.589   5.907  14.420
48958W        W22026  20.316  29.297  13.416
48959W        W22027  44.010   0.313  13.928
48960W        W22028   2.182  23.733  14.009
48961W        W22029   8.954  18.290   4.986
48962W        W22030  27.647  35.743  12.005
48963W        W22031   8.248  15.214  11.773
48964W        W22032  22.567   1.771  14.884
48965W        W22033   2.793  10.269  13.433
48966W        W22034   2.900  43.531   3.189
48967W        W22035  33.306   5.957  13.307
48968W        W22036  33.104   3.078  13.021
48969W        W22037  25.487  32.871  12.036
48970W        W22038  44.127   3.571  14.509
48971W        W22039  12.208  10.822   1.188
48972W        W22040  17.681  31.615   4.636
48973W        W22041  18.656  19.534  13.403
48974W        W22042  22.009  34.148  11.123
48975W        W22043  18.521  38.052   1.110
48976W        W22044  36.991  40.275   2.873
48977W        W22045   9.337  10.182  12.393
48978W        W22046   6.426  27.699  12.996
48979W        W22047  44.570  43.667  13.944
48980W        W22048   4.704  27.962   1.295
48981W        W22049  22.630  15.504   3.279
48982W        W22050  28.224  20.208   0.422
48983W        W22051  29.468   5.798  14.765
48984W        W22052   6.460   8.320   3.227
48985W        W22053  39.572   6.660  10.167
48986W        W22054  38.473   3.997  12.935
48987W        W22055  16.436  41.237   1.237
48988W        W22056  37.426  21.323  13.217
48989W        W22057  33.043  36.419  10.556
48990W        W22058  33.451  25.201   3.855
48991W        W22059  39.334  39.330  11.279
48992W        W22060  19.705   2.285   2.791
48993W        W22061   3.829   8.387   2.369
48994W        W22062   4.404  22.979   3.562
48995W        W22063  30.136  21.426   1.065
48996W        W22064  42.873   6.125   4.169
48997W        W22065   6.418  33.153  13.422
48998W        W22066   9.151  36.280   2.910
48999W        W22067  41.250  38.958  14.896
49000W        W22068  22.482   5.302  12.880
49001W        W22069  41.912  30.227   2.045
49002W        W22070  29.490  15.611  10.989
49003W        W22071   5.227  11.642  14.742
49004W        W22072  25.527   4.005  14.015
49005W        W22073  21.936  44.389  11.001
49006W        W22074   5.214   5.955   3.386
49007W        W22075  20.144  11.192   5.001
49008W        W22076  43.833  29.650   0.903
49009W        W22077  37.327  22.067   2.956
49010W        W22078  16.631  27.902   0.968
49011W        W22079  26.891  34.851   3.862
49012W        W22080   4.846  13.126   1.329
49013W        W22081  33.437  32.803  13.307
49014W        W22082  27.222  40.896   2.278
49015W        W22083  44.755  19.151   3.879
49016W        W22084  30.623  26.686  11.961
49017W        W22085  33.391   2.421   0.456
49018W        W22086  32.983  17.691  13.508
49019W        W22087   7.790  14.107   0.032
49020W        W22088   3.988   1.003   2.794
49021W        W22089  31.078  42.762  13.333
49022W        W22090  33.874  24.146  13.051
49023W        W22091  15.657   7.103  13.342
49024W        W22092  37.879  24.060  14.781
49025W        W22093   3.352  32.101  13.517
49026W        W22094  28.707  32.910  13.493
49027W        W22095  43.804  22.208  12.463
49028W        W22096  13.394  22.096   4.468
49029W        W22097  44.746  13.290   0.773
49030W        W22098   6.276  38.764  12.373
49031W        W22099   2.401  44.906   1.184
49032W        W22100  17.694  13.564  12.750
49033W        W22101  29.999  40.306  12.355
49034W        W22102   2.354  11.949  14.369
49035W        W22103  21.975   9.663   0.401
49036W        W22104  44.827  41.921   2.334
49037W        W22105  42.927  16.257   4.259
49038W        W22106  12.845  42.764  13.969
49039W        W22107   5.140  28.970  12.350
49040W        W22108  35.100  13.623   3.236
49041W        W22109  19.462  16.230  12.563
49042W        W22110  18.953  29.938  14.801
49043W        W22111  18.161   6.344   3.709
49044W        W22112  17.182  34.309  13.910
49045W        W22113  13.483  14.218  14.587
49046W        W22114   8.637  18.797  11.580
49047W        W22115  12.747  31.889  14.430
49048W        W22116  17.746  33.808   0.503
49049W        W22117  11.384  41.136   1.801
49050W        W22118  41.928  10.716   2.833
49051W        W22119  37.361  20.737   1.322
49052W        W22120   3.007  18.946   2.757
49053W        W22121   2.376  39.787  10.901
49054W        W22122  35.968   3.542  10.693
49055W        W22123  32.329  18.585   4.394
49056W        W22124   8.888  35.960   4.358
49057W        W22125   4.674  11.245  12.353
49058W        W22126  40.316  39.998  13.853
49059W        W22127  38.502  13.563   1.654
49060W        W22128  15.334  12.527   1.229
49061W        W22129  20.127  34.406  11.324
49062W        W22130   0.888  33.370   2.353
49063W        W22131  34.963  43.524  13.495
49064W        W22132  23.674  42.260  12.382
49065W        W22133   7.459   2.259   4.672
49066W        W22134  22.491  29.196   0.306
49067W        W22135   2.224  21.704   4.178
49068W        W22136  35.894  41.003  11.637
49069W        W22137   8.749  40.015  14.394
49070W        W22138   4.270  28.155  14.050
49071W        W22139  30.284  40.375   5.069
49072W        W22140  11.257  10.452  13.060
49073W        W22141  19.880  38.317  14.125
49074W        W22142  20.928  37.529   1.862
49075W        W22143   3.386  10.146  14.402
49076W        W22144  13.757  38.953   3.163
49077W        W22145   7.300  25.913   2.313
49078W        W22146  16.130  11.140  11.080
49079W        W22147  34.831  25.803   2.223
49080W        W22148  26.909  19.047  11.564
49081W        W22149  44.863   6.479  11.631
49082W        W22150  20.996  40.323   4.971
49083W        W22151  39.341  27.393   3.786
49084W        W22152  38.590  22.772  11.813
49085W        W22153   2.972  35.857   0.729
49086W        W22154  34.612  23.190  14.554
49087W        W22155  37.754   7.672  11.516
49088W        W22156  18.221  10.016  10.513
49089W        W22157  16.669  38.630  14.980
49090W        W22158  31.321  31.307   3.567
49091W        W22159  29.339  13.111   1.682
49092W        W22160  30.994  25.781  10.942
49093W        W22161  13.863  30.917   3.329
49094W        W22162  36.900  32.633   1.233
49095W        W22163   2.895   5.458  10.626
49096W        W22164  29.200  42.415   2.634
49097W        W22165   0.013   7.580   0.915
49098W        W22166  38.712  15.698  10.616
49099W        W22167  39.957  39.358  12.682
49100W        W22168  26.980   4.022   4.138
49101W        W22169  22.978  24.627  11.234
49102W        W22170  22.042  32.047  14.305
49103W        W22171  37.571  20.031   4.472
49104W        W22172   3.837  21.317   1.135
49105W        W22173  44.525  14.843   4.197
49106W        W22174   1.675  31.944   0.181
49107W        W22175   1.166  35.017   3.648
49108W        W22176  28.117  35.029  10.963
49109W        W22177  24.808  36.405  14.228
49110W        W22178  40.212   7.233   3.855
49111W        W22179  30.930  21.601  11.739
49112W        W22180  29.182  35.127   2.269
49113W        W22181  18.537  39.872   1.427
49114W        W22182  33.169  30.990   0.032
49115W        W22183   6.699  18.103  10.649
49116W        W22184   6.862   0.374   1.817
49117W        W22185  12.758   8.638   1.190
49118W        W22186  43.074  27.618  11.270
49119W        W22187  19.754  41.959   4.590
49120W        W22188  40.872  31.718   2.569
49121W        W22189  28.527  36.684   2.793
49122W        W22190  15.557  31.139  10.672
49123W        W22191  25.427  41.754   2.921
49124W        W22192   0.783  17.164   1.784
49125W        W22193  10.728  39.439   0.980
49126W        W22194  15.643  22.032  14.402
49127W        W22195  34.786   8.405  14.062
49128W        W22196  37.998  20.116  11.470
49129W        W22197   3.292   8.918  12.428
49130W        W22198  42.292   8.737  10.662
49131W        W22199   6.250   3.795   0.435
49132W        W22200   0.495  44.972  12.344
49133W        W22201  25.754  23.834  14.872
49134W        W22202   4.815  27.052  13.964
49135W        W22203  30.578  31.038   2.345
49136W        W22204  20.240   2.485   1.008
49137W        W22205  38.412  25.971  10.767
49138W        W22206  30.036  29.662   4.186
49139W        W22207  19.382  23.326   0.247
49140W        W22208  44.291  38.905   5.041
49141W        W22209   8.831   6.370  11.242
49142W        W22210  33.887  20.020  11.351
49143W        W22211  20.750  33.445   4.530
49144W        W22212  21.272  34.258   4.463
49145W        W22213  20.992  44.330   1.951
49146W        W22214  23.207  34.193   4.610
49147W        W22215  25.275  17.151   4.591
49148W        W22216  20.140  20.476   3.756
49149W        W22217   1.767  15.727  10.177
49150W        W22218  35.863  30.697   5.119
49151W        W22219  38.660  26.123  12.131
49152W        W22220  17.584  21.965   1.806
49153W        W22221  12.475   6.258   4.045
49154W        W22222   4.979  36.104  12.944
49155W        W22223  11.841   9.098   1.428
49156W        W22224  32.899  22.299  12.289
49157W        W22225  16.296  23.684  14.560
49158W        W22226  18.955  11.291  10.880
49159W        W22227   4.351  41.546   1.512
49160W        W22228  31.662  31.963   3.865
49161W        W22229  42.236  40.562  12.934
49162W        W22230  28.925  13.748  10.776
49163W        W22231  30.014  37.414   3.311
49164W        W22232  39.079  37.946   1.736
49165W        W22233  20.281  31.049  13.673
49166W        W22234   6.205  29.600   1.739
49167W        W22235  44.033  24.046  10.709
49168W        W22236  13.185  38.138  11.689
49169W        W22237  24.397   0.859   3.816
49170W        W22238  38.629   5.876   1.428
49171W        W22239  39.054  44.432   4.167
49172W        W22240  18.797  32.957   1.767
49173W        W22241  25.437  27.688  11.319
49174W        W22242  10.703   9.834  13.894
49175W        W22243   9.429  43.923   3.431
49176W        W22244  27.220   9.457   0.193
49177W        W22245  16.017  33.087   0.094
49178W        W22246   6.501  17.709   0.295
49179W        W22247  22.172  18.686  14.772
49180W        W22248  35.563  37.177  13.563
49181W        W22249  30.688   4.488  11.150
49182W        W22250   5.389  22.199  14.353
49183W        W22251  37.475  16.814   2.323
49184W        W22252  36.878   3.650   3.719
49185W        W22253  23.705   1.433   0.858
49186W        W22254  10.163  41.907   0.871
49187W        W22255  36.388  36.384   1.324
49188W        W22256  24.087  40.403  13.055
49189W        W22257  33.083  40.032  14.462
49190W        W22258  23.060  11.832  12.923
49191W        W22259  28.122   0.042  11.137
49192W        W22260  15.275  25.713  14.755
49193W        W22261  25.582  19.810   3.013
49194W        W22262  15.993   7.062  13.764
49195W        W22263   3.645  33.928  13.378
49196W        W22264  27.596  24.504  14.325
49197W        W22265   0.978   7.572   4.513
49198W        W22266  43.706  22.526   2.790
49199W        W22267  14.173  17.055   1.197
49200W        W22268  42.205  10.602  11.013
49201W        W22269  43.302  33.464   2.494
49202W        W22270  42.200  11.615   2.252
49203W        W22271  19.365  30.005  13.861
49204W        W22272  28.644  41.801  12.493
49205W        W22273   6.499   2.945   3.203
49206W        W22274  14.773  41.416  14.803
49207W        W22275  29.799   3.037  14.544
49208W        W22276  34.005  10.981   4.085
49209W        W22277  28.669  38.451  11.587
49210W        W22278  17.551   2.907  14.446
49211W        W22279  41.462  36.958  10.702
49212W        W22280   2.198  15.349  14.918
49213W        W22281  19.493  30.653  13.604
49214W        W22282   9.342  38.937  10.797
49215W        W22283   5.272  28.864  12.839
49216W        W22284  36.975   7.648   4.714
49217W        W22285  38.881  15.840  12.446
49218W        W22286  31.361  19.309   3.260
49219W        W22287  22.958  21.324  13.258
49220W        W22288  42.389  18.803  12.032
49221W        W22289  35.597  40.449   4.431
49222W        W22290  27.736  38.960  13.329
49223W        W22291   9.584  22.619  11.453
49224W        W22292  13.854  16.130   3.257
49225W        W22293   4.196  23.509   4.674
49226W        W22294  19.746  30.284  10.562
49227W        W22295  34.061  17.264   0.380
49228W        W22296  41.373  13.540   9.989
49229W        W22297   8.246  35.558   3.355
49230W        W22298  16.402  23.165  12.951
49231W        W22299   6.507  41.004   3.353
49232W        W22300  43.420  23.259   1.279
49233W        W22301  32.721  19.724   2.863
49234W        W22302   5.936   1.126  11.201
49235W        W22303  42.345   2.718   3.042
49236W        W22304  18.033  37.399   3.502
49237W        W22305  35.971  38.460  14.229
49238W        W22306  16.983   4.384  11.703
49239W        W22307   9.647  12.736  12.799
49240W        W22308  39.343   2.907   3.478
49241W        W22309   3.775  22.631  12.809
49242W        W22310  19.298  43.818   3.404
49243W        W22311   4.873   6.371  14.956
49244W        W22312  31.706  19.459   1.853
49245W        W22313   4.431  42.651   1.523
49246W        W22314  21.515  29.403   1.275
49247W        W22315  24.391  10.661  12.844
49248W        W22316  33.474  13.829  14.811
49249W        W22317  41.919  16.060   3.947
49250W        W22318  10.393  31.085  13.386
49251W        W22319  39.738   1.217   1.442
49252W        W22320   7.247   6.811  14.371
49253W        W22321  10.963  22.443  10.972
49254W        W22322  20.956  27.987  14.482
49255W        W22323  30.751  19.118   4.558
49256W        W22324   9.713  24.484   1.828
49257W        W22325  39.380  41.308  13.986
49258W        W22326   9.187  12.179  14.423
49259W        W22327  16.347   0.351  12.973
49260W        W22328  42.569  32.371  10.421
49261W        W22329  25.155   2.722  14.002
49262W        W22330  19.161   3.913   1.411
49263W        W22331   2.045  40.447  13.537
49264W        W22332   8.852  25.472   0.489
49265W        W22333  26.427  39.854  11.617
49266W        W22334  22.552  37.586   2.431
49267W        W22335  40.883  32.551  12.326
49268W        W22336  31.436  16.774   0.011
49269W        W22337  42.950  29.996   0.932
49270W        W22338  16.740  38.424   2.820
49271W        W22339  36.824  27.570   3.963
49272W        W22340  31.074   4.213  13.100
49273W        W22341  24.667  16.064   3.895
49274W        W22342   3.982  37.138  14.753
49275W        W22343  36.558  29.388  10.797
49276W        W22344  38.623   2.419  14.202
49277W        W22345  11.184  43.840  10.359
49278W        W22346  12.716  31.029   0.394
49279W        W22347  43.060  22.960   4.098
49280W        W22348  35.956   0.129  10.786
49281W        W22349  17.638  13.659   4.007
49282W        W22350   5.228  25.514   3.897
49283W        W22351  13.600  13.762  13.009
49284W        W22352  36.998  18.197  10.912
49285W        W22353  10.785  18.649   3.313
49286W        W22354  27.008   5.651   0.963
49287W        W22355  37.356  38.272   0.746
49288W        W22356   2.356  16.069  10.404
49289W        W22357  12.414  40.172  13.060
49290W        W22358  23.994  35.330  13.367
49291W        W22359   6.509  11.329  11.763
49292W        W22360  29.592  14.137  10.325
49293W        W22361   8.442  18.701   2.654
49294W        W22362  21.011  23.693   1.718
49295W        W22363  23.011   0.740  10.124
49296W        W22364  39.043  25.578   2.692
49297W        W22365  19.491   5.174   2.781
49298W        W22366  36.100   2.146   1.914
49299W        W22367  28.939  27.072   2.677
49300W        W22368  15.094   6.722   0.284
49301W        W22369  27.149  27.749   3.250
49302W        W22370  43.809  36.330   2.652
49303W        W22371   6.151  30.212  12.861
49304W        W22372  28.839  44.379  14.746
49305W        W22373  39.856  30.180   3.720
49306W        W22374   3.435  10.803   3.173
49307W        W22375  39.718   5.917  13.834
49308W        W22376  29.243  22.294  14.915
49309W        W22377  39.797  29.808   2.878
49310W        W22378   0.755   0.867  14.904
49311W        W22379  26.206  16.491  13.022
49312W        W22380  39.840  12.992  13.944
49313W        W22381  21.694  15.169  14.997
49314W        W22382  40.339   3.786   4.843
49315W        W22383  35.315  13.579   0.297
49316W        W22384  12.750  41.252   0.231
49317W        W22385  15.198  15.803   4.065
49318W        W22386   4.550   1.489  14.810
49319W        W22387  25.515  20.128   3.923
49320W        W22388   7.597  24.444   1.833
49321W        W22389  32.063  43.784  12.102
49322W        W22390  31.198  36.531  11.326
49323W        W22391  26.704   4.009   0.526
49324W        W22392  18.854  17.764  13.813
49325W        W22393   8.677  18.280   4.558
49326W        W22394  21.500  17.580   1.732
49327W        W22395  25.727   7.830   2.000
49328W        W22396  23.409  15.041  13.504
49329W        W22397  17.835   6.202  14.817
49330W        W22398  20.535  43.426  14.426
49331W        W22399  23.251  11.658  14.293
49332W        W22400  39.531   4.890   0.827
49333W        W22401  22.245  25.159   0.386
49334W        W22402  17.181  33.470   1.310
49335W        W22403   7.217  30.179   3.622
49336W        W22404  35.429  31.694  14.331
49337W        W22405  28.999   6.920  10.734
49338W        W22406   1.452   3.923  11.551
49339W        W22407   6.145  33.426   1.839
49340W        W22408   4.782   8.181  10.646
49341W        W22409  33.342   6.417   3.628
49342W        W22410  20.125  29.837  12.033
49343W        W22411  30.356  40.037   4.038
49344W        W22412  13.684   9.738  13.349
49345W        W22413  44.258  27.956  10.968
49346W        W22414  18.174  41.734   0.336
49347W        W22415   6.655  13.929  11.259
49348W        W22416   1.748  36.288   0.275
49349W        W22417  18.578   2.924  14.294
49350W        W22418   5.696   5.417   1.320
49351W        W22419   8.429  22.395  12.779
49352W        W22420  20.786  42.776  14.699
49353W        W22421  39.314   9.836   4.854
49354W        W22422   0.204  10.157  12.494
49355W        W22423  26.295   1.231  14.374
49356W        W22424  34.628  22.511   3.044
49357W        W22425   6.840  25.798  13.872
49358W        W22426  37.615  43.269  14.179
49359W        W22427  24.233  24.613  11.696
49360W        W22428  13.973  16.749  10.405
49361W        W22429  29.407  32.365   3.102
49362W        W22430  21.382  22.179  14.461
49363W        W22431   2.787  17.460   3.000
49364W        W22432  17.481  15.212   2.749
49365W        W22433   5.591  15.286  11.278
49366W        W22434  36.440  34.309   2.417
49367W        W22435  23.129   2.748   3.168
49368W        W22436  41.335  34.865   1.796
49369W        W22437  42.035  11.268  12.495
49370W        W22438   6.749  19.129  11.416
49371W        W22439   6.602  39.579   1.886
49372W        W22440  30.481  28.571   4.735
49373W        W22441  26.283   3.406   2.717
49374W        W22442   2.820  18.543  13.407
49375W        W22443  24.254   7.675  14.500
49376W        W22444  39.819  18.671   4.338
49377W        W22445  28.072  39.045  14.256
49378W        W22446   2.986  33.951   2.928
49379W        W22447  19.717  43.525   5.092
49380W        W22448  18.735   7.921   1.827
49381W        W22449  17.329  11.690   0.792
49382W        W22450  24.159  15.906  13.902
49383W        W22451   9.753   3.413   1.578
49384W        W22452  13.260  20.781   1.312
49385W        W22453  38.921  21.987   1.453
49386W        W22454  34.476  14.883  14.405
49387W        W22455   6.420  25.666   3.357
49388W        W22456  11.679  39.455   2.105
49389W        W22457  24.825  42.762  13.310
49390W        W22458  22.768   7.153   2.146
49391W        W22459  41.486  11.880   1.777
49392W        W22460  31.023  16.181   2.948
49393W        W22461  18.530  13.182  10.554
49394W        W22462  44.997  44.756  14.621
49395W        W22463   0.539  31.094   0.329
49396W        W22464  28.094  16.979  11.220
49397W        W22465  43.054  42.293   4.195
49398W        W22466   4.911  37.925  11.207
49399W        W22467  38.331  17.267  10.731
49400W        W22468  20.106  42.663   3.714
49401W        W22469  11.790  13.379   0.823
49402W        W22470  19.520  11.471  12.404
49403W        W22471   0.508  35.993  11.381
49404W        W22472   8.847  30.228   0.797
49405W        W22473   9.880   6.188  11.064
49406W        W22474  13.884  39.372   1.361
49407W        W22475  24.222  39.644   2.232
49408W        W22476  43.770  43.467   3.258
49409W        W22477  39.003   8.842  13.492
49410W        W22478  43.173  16.933   3.709
49411W        W22479  37.961  13.301   2.405
49412W        W22480  30.748   7.871   0.840
49413W        W22481  30.668  31.073   0.799
49414W        W22482  43.809  18.240   4.569
49415W        W22483  32.600  38.579  11.039
49416W        W22484  21.788  31.109   4.611
49417W        W22485  42.311  14.603   2.773
49418W        W22486  37.407  35.114   0.286
49419W        W22487  23.049  25.039  13.528
49420W        W22488  19.075  19.184  13.960
49421W        W22489   4.820  28.518   2.864
49422W        W22490  36.370  16.045   1.462
49423W        W22491  25.738  35.383   3.289
49424W        W22492  35.681   4.309  11.128
49425W        W22493  41.324  26.173  10.627
49426W        W22494  14.781  11.019   0.762
49427W        W22495  15.275  14.352   0.670
49428W        W22496   8.075  31.011  13.016
49429W        W22497  24.176  16.407  12.989
49430W        W22498   8.145   0.506   4.376
49431W        W22499   8.107  14.070   1.257
49432W        W22500  23.223  41.490   2.763
49433W        W22501  13.092  44.291   3.568
49434W        W22502   6.609  35.576  11.112
49435W        W22503  44.795  13.846   4.460
49436W        W22504  23.884  36.513  13.816
49437W        W22505  10.421  11.976  14.579
49438W        W22506  19.590  13.460  14.334
49439W        W22507  25.239  36.495   2.870
49440W        W22508  19.192  17.665   2.443
49441W        W22509  17.787  16.733   3.547
49442W        W22510  27.413  12.136   3.113
49443W        W22511  17.674  37.800   2.776
49444W        W22512  25.992  20.581   3.919
49445W        W22513  15.098   1.930   3.320
49446W        W22514  10.755  14.516  11.602
49447W        W22515  23.146  29.960  12.469
49448W        W22516  11.249   7.617   4.787
49449W        W22517  31.587  15.034   3.085
49450W        W22518  27.229  10.549  14.349
49451W        W22519  36.035  32.659  13.052
49452W        W22520  29.197   3.847   4.209
49453W        W22521  11.796  36.304  11.470
49454W        W22522  28.597  28.200   0.893
49455W        W22523   7.311   8.334  12.509
49456W        W22524  37.917   2.768  13.631
49457W        W22525  33.722  34.977   0.272
49458W        W22526  11.305  32.180  12.489
49459W        W22527  30.823  33.917  12.895
49460W        W22528   5.783   9.053  12.708
49461W        W22529  34.667  25.582  12.957
49462W        W22530  17.831  25.464  11.942
49463W        W22531  43.813  36.446   3.182
49464W        W22532  26.055  43.438  10.539
49465W        W22533  36.920  13.774  10.926
49466W        W22534   0.329   1.516   0.253
49467W        W22535   0.369  40.508   0.876
49468W        W22536  19.804   7.350   0.008
49469W        W22537  33.184  19.792   1.237
49470W        W22538  24.210   4.082   3.578
49471W        W22539  32.896   9.143  12.052
49472W        W22540  22.098  20.003  11.868
49473W        W22541  40.439  42.575   2.091
49474W        W22542   4.967  19.601  13.369
49475W        W22543  38.218  29.920  13.148
49476W        W22544  17.027   7.658  14.348
49477W        W22545  38.646  38.319   3.287
49478W        W22546  22.141   6.679   0.456
49479W        W22547  36.078  40.267   2.906
49480W        W22548   5.823  14.708  12.778
49481W        W22549   9.150  15.284   2.018
49482W        W22550   8.196  39.091  10.692
49483W        W22551  40.525  34.021  10.647
49484W        W22552  38.577  19.884  14.400
49485W        W22553  12.554  34.121  10.593
49486W        W22554  14.308   1.822  14.604
49487W        W22555  33.335  44.826   1.914
49488W        W22556  37.663  14.023  11.508
49489W        W22557  40.427  32.353  14.453
49490W        W22558  13.196  44.961  13.533
49491W        W22559  18.509  25.583   4.393
49492W        W22560  29.391  10.296   3.743
49493W        W22561  35.365  39.386  12.108
49494W        W22562  27.227  40.081   4.119
49495W        W22563   9.828  31.368   0.297
49496W        W22564  36.263  32.042  13.697
49497W        W22565  10.790  38.738   0.911
49498W        W22566  13.706  28.577   3.312
49499W        W22567  41.498  28.497  10.804
49500W        W22568  21.100  21.613  12.354
49501W        W22569  35.463   0.205  13.938
49502W        W22570  19.573   4.658   2.857
49503W        W22571  39.484  33.560   2.933
49504W        W22572  39.889  35.867  10.685
49505W        W22573  40.881   2.804  11.188
49506W        W22574   1.803  17.330   3.300
49507W        W22575  12.763  27.668  12.496
49508W        W22576  27.154  24.773  14.290
49509W        W22577  42.771  27.209  11.064
49510W        W22578   5.381  38.977   9.967
49511W        W22579  24.244  28.137   9.854
49512W        W22580  26.168  34.023  11.550
49513W        W22581  19.034  25.271  12.052
49514W        W22582  32.637  17.729  12.893
49515W        W22583  34.630  40.316  11.616
49516W        W22584  26.842  18.628   3.718
49517W        W22585  20.475  40.181   0.302
49518W        W22586  10.279  14.110   1.948
49519W        W22587  27.140  35.841  13.816
49520W        W22588  16.796  44.818  12.042
49521W        W22589  32.657  37.921   0.265
49522W        W22590  27.107  12.127   4.130
49523W        W22591  40.847  43.008   3.738
49524W        W22592  11.271   0.872  12.110
49525W        W22593  25.703   7.242   0.923
49526W        W22594  27.984  25.998   1.178
49527W        W22595  42.920  27.456   1.229
49528W        W22596  42.188  16.654   1.634
49529W        W22597  28.022  30.173   3.837
49530W        W22598  14.330   6.977   4.205
49531W        W22599   4.242  15.031   0.456
49532W        W22600   5.898  11.188  12.901
49533W        W22601  29.851  13.103  11.408
49534W        W22602  12.045  33.088   4.171
49535W        W22603  12.817  17.421   3.220
49536W        W22604  13.385  12.034   2.300
49537W        W22605  23.876  16.162  10.030
49538W        W22606  23.938   3.376  11.178
49539W        W22607  11.173   6.606   2.677
49540W        W22608  33.513  16.065   1.313
49541W        W22609  16.269  29.587   1.650
49542W        W22610  25.990   6.559  12.437
49543W        W22611  28.120  19.609   2.197
49544W        W22612  44.435  42.959   0.970
49545W        W22613   8.286  43.800   0.062
49546W        W22614   9.181  42.421  10.938
49547W        W22615  16.516   8.090  12.045
49548W        W22616  26.122  11.097   3.323
49549W        W22617  13.650  39.784  10.605
49550W        W22618   6.820  43.939   1.318
49551W        W22619  11.608  33.915   0.057
49552W        W22620  43.017   7.404   3.671
49553W        W22621  43.348  22.413   4.148
49554W        W22622  34.305  18.608   2.139
49555W        W22623  35.469  20.569  14.838
49556W        W22624  16.187  15.155   1.943
49557W        W22625  28.511  30.547  10.632
49558W        W22626  19.529  13.506   1.713
49559W        W22627  13.636  11.290   4.748
49560W        W22628   9.217  29.471  14.325
49561W        W22629  39.396   9.855  13.106
49562W        W22630  19.807  15.312  14.036
49563W        W22631  15.667  20.070   3.973
49564W        W22632  25.974  33.180   4.910
49565W        W22633  17.550  36.111   1.692
49566W        W22634  26.974  43.094  14.255
49567W        W22635  44.355  23.737  12.537
49568W        W22636  28.473  34.360   2.305
49569W        W22637  27.344  35.412  14.839
49570W        W22638  32.997  43.330  10.843
49571W        W22639  43.334  14.201   2.210
49572W        W22640  36.180  44.380  12.939
49573W        W22641   9.559   5.898   4.018
49574W        W22642  34.448  27.884  10.654
49575W        W22643   1.363   2.422  10.627
49576W        W22644  11.030  19.141   2.933
49577W        W22645  26.883  11.241   2.282
49578W        W22646  22.256  28.095   3.381
49579W        W22647  21.432  30.759   3.861
49580W        W22648  42.432  22.804  10.565
49581W        W22649  39.930   5.659  12.037
49582W        W22650   2.843  17.109  14.906
49583W        W22651  23.204   1.457  12.523
49584W        W22652   8.631  10.170  14.195
49585W        W22653   8.440  41.219   4.445
49586W        W22654  26.727  24.188  14.802
49587W        W22655   1.915  25.065  11.382
49588W        W22656  34.352  30.120  12.503
49589W        W22657   9.774  30.596  13.835
49590W        W22658  25.843  18.345   3.566
49591W        W22659  10.710  24.736   3.395
49592W        W22660  25.613   4.668   1.325
49593W        W22661  23.219  31.593   2.214
49594W        W22662  24.145  14.352   5.105
49595W        W22663  25.200  40.972  14.951
49596W        W22664  26.254  37.607  14.457
49597W        W22665   9.344   2.905  12.516
49598W        W22666   7.573  18.805   1.261
49599W        W22667  27.007  27.146   0.006
49600W        W22668  30.876  15.650  14.679
49601W        W22669  41.274  39.929   1.873
49602W        W22670  41.976  43.827  12.305
49603W        W22671  44.241  21.958  10.752
49604W        W22672  20.508   0.236  12.125
49605W        W22673  34.318  20.718  13.928
49606W        W22674  24.648  20.440  11.111
49607W        W22675  13.177  11.200  12.537
49608W        W22676  10.338   5.300   2.953
49609W        W22677  24.047   2.792  10.554
49610W        W22678  25.155  43.257   3.266
49611W        W22679  17.422  35.321  10.466
49612W        W22680  26.586  31.382   4.873
49613W        W22681  33.047  37.040  14.465
49614W        W22682  36.590   4.761  12.438
49615W        W22683  33.415   5.078  13.971
49616W        W22684  15.400  14.184   4.607
49617W        W22685  35.902  15.643  14.836
49618W        W22686  22.065  13.168  11.982
49619W        W22687  20.399  30.029   4.184
49620W        W22688  42.949  11.270  12.877
49621W        W22689  43.386  40.303  12.485
49622W        W22690  19.163  13.435  13.914
49623W        W22691  31.938   4.054   2.617
49624W        W22692  24.970  15.772  11.559
49625W        W22693  37.786  16.051  11.023
49626W        W22694  22.390  40.550   0.757
49627W        W22695  35.267  16.181   0.909
49628W        W22696  18.310  33.953   3.585
49629W        W22697  33.493   1.813  13.451
49630W        W22698  33.036  18.591   3.721
49631W        W22699  13.101  19.004   2.748
49632W        W22700  17.232  13.256  14.990
49633W        W22701   5.453   4.222  10.626
49634W        W22702  19.153  10.204   3.473
49635W        W22703   7.737  32.890  12.401
49636W        W22704  40.551   0.923  11.130
49637W        W22705  32.438   4.140   0.833
49638W        W22706   1.400  35.619  12.201
49639W        W22707  42.990  26.614   3.573
49640W        W22708  21.507  10.627  11.412
49641W        W22709  20.530  19.789  10.634
49642W        W22710  26.565  37.592   1.232
49643W        W22711  18.569  41.329  12.655
49644W        W22712  32.216  14.161   4.596
49645W        W22713  25.742   7.566  13.983
49646W        W22714  27.049   1.618   0.527
49647W        W22715   6.761  15.401  12.912
49648W        W22716  24.576  14.725   4.705
49649W        W22717  11.411  19.008   3.280
49650W        W22718  41.588   6.095  13.824
49651W        W22719  27.173  19.171   3.157
49652W        W22720  25.573  20.770   4.156
49653W        W22721  23.915  39.343  13.811
49654W        W22722  36.599   9.821   3.725
49655W        W22723  41.427  34.523  13.937
49656W        W22724  33.713   5.449  13.788
49657W        W22725  40.940  23.180   0.432
49658W        W22726  16.192  42.279  12.383
49659W        W22727   4.837   0.784  12.415
49660W        W22728   1.882  21.005   4.626
49661W        W22729  20.688  43.242  13.955
49662W        W22730  11.791  18.743  11.474
49663W        W22731  17.138  33.334  11.232
49664W        W22732  44.431   3.530  13.063
49665W        W22733   6.228  28.931   2.380
49666W        W22734  17.363   3.803  12.462
49667W        W22735  39.024  11.342   1.813
49668W        W22736  16.006   3.485   0.432
49669W        W22737  44.744   9.162   4.532
49670W        W22738  14.572  22.201  13.285
49671W        W22739   3.320  26.332  13.506
49672W        W22740  17.628   9.705  13.808
49673W        W22741  43.000  13.967   5.118
49674W        W22742  11.061   5.339   0.382
49675W        W22743   2.312  18.775   1.370
49676W        W22744  11.572  16.228  12.575
49677W        W22745  23.274   6.343   4.815
49678W        W22746  23.172  19.723   3.929
49679W        W22747  31.154  39.434   4.660
49680W        W22748  22.145  34.184   0.755
49681W        W22749  28.507  40.523   2.936
49682W        W22750  37.921  23.896  13.877
49683W        W22751  43.091  12.620  14.040
49684W        W22752  32.578  41.984   2.335
49685W        W22753  25.267  39.297   1.766
49686W        W22754  44.717  16.693   1.383
49687W        W22755  30.585   8.351  10.734
49688W        W22756  24.105  23.162   0.443
49689W        W22757  42.831  40.140   2.345
49690W        W22758  44.164  13.325  11.134
49691W        W22759  41.009  22.283  12.083
49692W        W22760  32.475  38.633  12.066
49693W        W22761  34.540  32.850   3.268
49694W        W22762  16.820   9.230  14.985
49695W        W22763  24.973   7.832  13.249
49696W        W22764   0.383   4.028  12.447
49697W        W22765  25.537   9.773   0.449
49698W        W22766  24.213   9.261   0.078
49699W        W22767  37.873  31.554   1.188
49700W        W22768  39.471  24.256  12.495
49701W        W22769   6.561   2.002   2.348
49702W        W22770  42.078  11.306   4.656
49703W        W22771  13.936  17.377   2.772
49704W        W22772  20.166   9.589  14.024
49705W        W22773  22.732  26.033  11.135
49706W        W22774  16.044  41.722   2.836
49707W        W22775  11.130  18.316  13.789
49708W        W22776  30.085   9.570   4.558
49709W        W22777  11.339  39.815  11.602
49710W        W22778   8.575  37.746   3.814
49711W        W22779  25.505  16.670   4.755
49712W        W22780  15.083  20.743   0.806
49713W        W22781  22.166  39.249  14.403
49714W        W22782  38.485  16.733   0.507
49715W        W22783  11.739  44.879  11.230
49716W        W22784  41.516  44.954  14.069
49717W        W22785  16.530  10.847  10.633
49718W        W22786  24.215   1.906  14.296
49719W        W22787   6.428  16.010  10.752
49720W        W22788  21.973  34.863  12.421
49721W        W22789  11.942   3.390  13.752
49722W        W22790  33.091   2.458  14.367
49723W        W22791  28.043  35.864  11.126
49724W        W22792  32.551  33.839  11.838
49725W        W22793  40.446  16.505  14.372
49726W        W22794   6.292  34.080   0.786
49727W        W22795   4.657   6.818   3.769
49728W        W22796   4.301   2.074  13.412
49729W        W22797   0.026  37.401   1.682
49730W        W22798  44.824  40.823   0.287
49731W        W22799  29.087  34.969  11.427
49732W        W22800   5.873   9.400   2.311
49733W        W22801   8.107  20.226   0.556
49734W        W22802   6.933  27.258   2.618
49735W        W22803  28.544   5.967  14.357
49736W        W22804   8.264  24.429  14.706
49737W        W22805  13.769  24.937  11.555
49738W        W22806  11.795  30.700  12.548
49739W        W22807  36.513  14.371   0.024
49740W        W22808  38.685  43.043   0.973
49741W        W22809  15.854  14.948   4.249
49742W        W22810  37.632  14.692   1.914
49743W        W22811   1.217  16.369   4.180
49744W        W22812  16.938  18.726   3.069
49745W        W22813  11.499   9.019   4.172
49746W        W22814  15.808  42.214   0.208
49747W        W22815  44.408  20.680  12.491
49748W        W22816  29.281  29.999  11.593
49749W        W22817  20.091  38.565  11.176
49750W        W22818  44.848  20.512   4.297
49751W        W22819  22.486  12.307  10.487
49752W        W22820  42.404  14.751  10.269
49753W        W22821  20.071   7.788  14.902
49754W        W22822  24.218   5.717  14.814
49755W        W22823  12.026  22.722   1.380
49756W        W22824  40.020   1.057   0.205
49757W        W22825  38.730  40.137   2.814
49758W        W22826  43.187  31.411  13.342
49759W        W22827  44.727  26.113   2.306
49760W        W22828  42.680   2.362   1.404
49761W        W22829  37.465  43.409  12.024
49762W        W22830  29.881  12.746   0.692
49763W        W22831   1.005  25.672   1.423
49764W        W22832  16.015  39.643  11.572
49765W        W22833  38.541  44.902   0.724
49766W        W22834  10.617  35.056   2.334
49767W        W22835  22.955   6.666   3.404
49768W        W22836  19.719  10.670  14.893
49769W        W22837  19.748  30.730   4.314
49770W        W22838  14.943  30.893   2.530
49771W        W22839  14.814  16.553   4.626
49772W        W22840  18.084   6.839  14.613
49773W        W22841  22.716  12.726  14.961
49774W        W22842  32.375  17.126  11.221
49775W        W22843  11.735  22.512   0.359
49776W        W22844  29.698  35.472   2.707
49777W        W22845   0.722  24.653   3.793
49778W        W22846   3.882  36.472  12.445
49779W        W22847  24.989  31.603   4.756
49780W        W22848  21.213   7.144   0.377
49781W        W22849  24.411  10.811  14.751
49782W        W22850   7.853  43.769  13.345
49783W        W22851  29.659  21.007   2.618
49784W        W22852  20.005   8.902  12.378
49785W        W22853   9.749  22.088  10.888
49786W        W22854  31.886   6.412   3.042
49787W        W22855  37.321   1.982   1.807
49788W        W22856  30.126  36.597  11.889
49789W        W22857  23.502  32.075  12.923
49790W        W22858   3.689   2.239  14.324
49791W        W22859  24.460  38.079   2.223
49792W        W22860  14.773  21.906  11.314
49793W        W22861  42.120  14.135  10.188
49794W        W22862  43.356  32.075   4.201
49795W        W22863   4.845  38.819   4.566
49796W        W22864   9.848  23.588  10.450
49797W        W22865  39.264  25.219  12.441
49798W        W22866  39.521  39.192  12.458
49799W        W22867  42.284  14.558  13.069
49800W        W22868  29.791  28.057   4.157
49801W        W22869  27.613  24.011  14.492
49802W        W22870  31.034  33.704  11.651
49803W        W22871  37.788  39.458   3.407
49804W        W22872  16.232  30.091  12.044
49805W        W22873  17.555  18.711   2.200
49806W        W22874  44.197  30.365  13.918
49807W        W22875  38.317  32.410  10.410
49808W        W22876  30.629   3.500   4.433
49809W        W22877   4.691  39.899  13.366
49810W        W22878  26.165  17.622   2.391
49811W        W22879  36.546  37.188  14.900
49812W        W22880  16.684  37.610   3.557
49813W        W22881   6.147  40.539   2.726
49814W        W22882   9.422   5.099   1.215
49815W        W22883  25.510  17.678   1.604
49816W        W22884  22.588  15.783   2.460
49817W        W22885  42.892  38.014  14.579
49818W        W22886  18.503  15.607   4.560
49819W        W22887   6.652   0.760  10.706
49820W        W22888  42.342   9.826   1.786
49821W        W22889  21.120  21.589   1.682
49822W        W22890   2.939  14.833  14.886
49823W        W22891   7.764  12.956  13.728
49824W        W22892  40.918  16.909  11.133
49825W        W22893  12.043  24.804   2.516
49826W        W22894   7.269   6.761   4.218
49827W        W22895   4.207  41.957   1.808
49828W        W22896  32.712  32.141   1.952
49829W        W22897  16.761  38.836  13.740
49830W        W22898   4.170  40.863   2.862
49831W        W22899  27.531  19.401   0.375
49832W        W22900  19.930  20.960  11.067
49833W        W22901  31.173  15.694   2.794
49834W        W22902  18.287  33.079   1.764
49835W        W22903  12.260  22.156  11.361
49836W        W22904  44.457  42.284  11.189
49837W        W22905   6.671  39.065   3.231
49838W        W22906  44.829   0.407   4.173
49839W        W22907  27.835  31.640  12.914
49840W        W22908  26.670  21.277   1.436
49841W        W22909  36.854  44.275   3.705
49842W        W22910   8.929  41.285   0.640
49843W        W22911   8.882  36.266  11.228
49844W        W22912  35.934  33.353  13.971
49845W        W22913   1.786  42.264  13.079
49846W        W22914  17.683  33.336   2.309
49847W        W22915   3.832  44.011  11.099
49848W        W22916  19.730  29.942  13.010
49849W        W22917  16.503   0.885  10.755
49850W        W22918  15.985  35.472   0.824
49851W        W22919  25.710  17.685   2.097
49852W        W22920  41.308  38.457  13.628
49853W        W22921  13.648  44.968  11.563
49854W        W22922   9.931  28.882   3.893
49855W        W22923  41.357   3.469   1.827
49856W        W22924  30.712  19.655   0.789
49857W        W22925  13.260  39.052  11.444
49858W        W22926  44.720   4.770   4.866
49859W        W22927  33.979   0.735   0.361
49860W        W22928  19.045  36.829  11.980
49861W        W22929   4.618   7.269   4.716
49862W        W22930  38.989  13.201   4.340
49863W        W22931   4.132  23.211  12.850
49864W        W22932  32.022  35.385  12.084
49865W        W22933  42.224  20.504  11.114
49866W        W22934   2.656  17.578  14.853
49867W        W22935  16.116  33.941  12.526
49868W        W22936   2.328  16.759  13.366
49869W        W22937  36.473  13.254  12.909
49870W        W22938  42.934  37.847   1.862
49871W        W22939  23.610  19.660   5.912
49872W        W22940  43.748  39.216   2.683
49873W        W22941  31.260  30.398   0.196
49874W        W22942  14.196  27.592  12.114
49875W        W22943  14.445  38.819  14.367
49876W        W22944  16.287  36.426   0.693
49877W        W22945  39.661   2.368   2.375
49878W        W22946  33.588  26.886  14.453
49879W        W22947  17.200  40.894   2.115
49880W        W22948  33.189  16.658   1.898
49881W        W22949   6.024   0.867   2.018
49882W        W22950  39.309  25.985  13.554
49883W        W22951   1.293  40.360   0.191
49884W        W22952  14.001  11.617   3.442
49885W        W22953  16.534  28.890   3.292
49886W        W22954  29.558  19.054   1.832
49887W        W22955   7.145  33.966  12.891
49888W        W22956  27.277  22.012  11.617
49889W        W22957  44.390   3.838  13.525
49890W        W22958  23.905  17.675   2.779
49891W        W22959  37.794  23.168  14.502
49892W        W22960  21.043  26.260   1.377
49893W        W22961  39.864  26.470  10.552
49894W        W22962  19.709  26.680  12.028
49895W        W22963  26.378  15.144  12.666
49896W        W22964  15.662   6.116  11.056
49897W        W22965  21.230   1.313  10.619
49898W        W22966  38.091   7.371  14.501
49899W        W22967   4.855  13.639   1.219
49900W        W22968  44.934  23.603   1.760
49901W        W22969   5.219  26.719  14.721
49902W        W22970  10.133  20.000   2.758
49903W        W22971   8.303  26.195  12.043
49904W        W22972  32.686  40.991   4.104
49905W        W22973  13.393  31.870   2.736
49906W        W22974  13.393  32.193  11.073
49907W        W22975   1.686  25.732   2.746
49908W        W22976  24.533  12.120   2.285
49909W        W22977  11.599   6.746   3.964
49910W        W22978  29.449  23.145   3.596
49911W        W22979  32.666  20.190  10.662
49912W        W22980  44.622  29.664  13.414
49913W        W22981  44.256  44.318   4.557
49914W        W22982  38.775  41.190  14.677
49915W        W22983   4.298  13.158   4.116
49916W        W22984  26.904  29.556  14.548
49917W        W22985   8.235  23.096   4.590
49918W        W22986   4.721  42.945   2.250
49919W        W22987   0.261  40.511   2.308
49920W        W22988   5.431  40.793   1.636
49921W        W22989  17.503  43.882  12.797
49922W        W22990  42.396  19.108  13.338
49923W        W22991  28.980  41.329  10.658
49924W        W22992  21.612  44.958  14.404
49925W        W22993  23.645  23.383   0.547
49926W        W22994  33.472  10.103   0.872
49927W        W22995  37.908   5.050   3.203
49928W        W22996  30.097  29.073   0.499
49929W        W22997  13.288  13.876  12.322
49930W        W22998  27.508  10.738   3.774
49931W        W22999  18.078  11.384   2.374
49932W        W23000  38.369  44.381   0.756
49933W        W23001  12.400  19.628   2.038
49934W        W23002  40.568  28.669   0.915
49935W        W23003  37.894   9.220  14.461
49936W        W23004  22.674   7.803  11.117
49937W        W23005  36.358  21.815  14.427
49938W        W23006   5.110   3.876  14.391
49939W        W23007   0.629   5.510  12.023
49940W        W23008  17.993  39.897  11.016
49941W        W23009  34.457  35.131  14.735
49942W        W23010  11.802  11.708   0.764
49943W        W23011  37.317  40.409   0.517
49944W        W23012   8.404  27.196   3.338
49945W        W23013  38.418   9.555   0.344
49946W        W23014   0.049  42.849   3.367
49947W        W23015  17.153   3.325   3.301
49948W        W23016  19.618  15.292  13.324
49949W        W23017   6.221   4.091   3.867
49950W        W23018  34.650  32.408  11.109
49951W        W23019  31.681  15.863   1.195
49952W        W23020  18.660  33.420  11.015
49953W        W23021   9.344  31.873  14.830
49954W        W23022   7.568  44.330   0.720
49955W        W23023  33.517  20.140   0.532
49956W        W23024  44.935  11.121  14.519
49957W        W23025   0.778   7.466  12.029
49958W        W23026  32.614  16.132   4.188
49959W        W23027  44.530  29.164  13.456
49960W        W23028  44.290  33.166   3.284
49961W        W23029  24.687  24.076  14.254
49962W        W23030  23.318  16.530   3.659
49963W        W23031   1.790   8.242  13.308
49964W        W23032   3.787  29.567  11.453
49965W        W23033  16.530   3.544  12.163
49966W        W23034  41.491  35.865   4.185
49967W        W23035  18.646  25.232  13.501
49968W        W23036  33.182   5.199  10.715
49969W        W23037  31.027  27.561   1.245
49970W        W23038  25.119  26.656   0.758
49971W        W23039  16.600  39.981  12.008
49972W        W23040  44.429   1.308  14.792
49973W        W23041  24.021   0.422  10.877
49974W        W23042  12.746  22.686  10.378
49975W        W23043  42.775  29.056   1.956
49976W        W23044  36.404  25.883  13.991
49977W        W23045  38.824  20.930  14.952
49978W        W23046   1.054  32.936  13.398
49979W        W23047   0.512  11.854   1.884
49980W        W23048  32.044  31.697   4.093
49981W        W23049   0.254  38.110   0.720
49982W        W23050  36.952  33.645   1.310
49983W        W23051  28.494  33.298   2.308
49984W        W23052   9.667  15.844  12.773
49985W        W23053  29.671   1.641   0.953
49986W        W23054  29.649  14.345  11.808
49987W        W23055  25.601  41.396  12.087
49988W        W23056   5.404  11.147  12.983
49989W        W23057  33.340  26.536  11.173
49990W        W23058   2.774  38.054   1.390
49991W        W23059  14.134  19.665  14.448
49992W        W23060  39.363  11.318  13.250
49993W        W23061  14.277  32.168  10.977
49994W        W23062  25.224  40.769   1.920
49995W        W23063  21.629   5.841   1.754
49996W        W23064  37.843  25.121   0.316
49997W        W23065   0.934   0.847  13.359
49998W        W23066  34.803  42.293  10.852
49999W        W23067  14.978  22.594   2.132
50000W        W23068  28.706   9.830  11.412
50001W        W23069   5.003  25.306   4.828
50002W        W23070   5.055  31.962   0.648
50003W        W23071  30.873  37.114   4.103
50004W        W23072  23.673  17.607  10.889
50005W        W23073  31.909   0.207   2.984
50006W        W23074   7.301  31.631  13.325
50007W        W23075  28.403  36.549   1.137
50008W        W23076  30.070  30.015  14.704
50009W        W23077   0.738  39.250  14.366
50010W        W23078  36.191  30.181  12.951
50011W        W23079  43.003  36.636   3.691
50012W        W23080  31.786  35.822  12.805
50013W        W23081  22.547  25.157  10.744
50014W        W23082  27.886  23.719   4.562
50015W        W23083   1.382  12.410  12.912
50016W        W23084   1.777  43.812   4.399
50017W        W23085  27.710  41.667   2.360
50018W        W23086  35.818  14.512  11.634
50019W        W23087  13.315   0.385  10.617
50020W        W23088  11.762  39.274  11.611
50021W        W23089  32.938  25.643  14.457
50022W        W23090  30.942  18.194   1.389
50023W        W23091  24.164  37.384   0.523
50024W        W23092   5.127  40.585  13.945
50025W        W23093  16.618  26.926   3.400
50026W        W23094   5.930  44.952  14.559
50027W        W23095   3.814   1.046  14.836
50028W        W23096  29.923  17.808  12.095
50029W        W23097  34.224  11.603   4.199
50030W        W23098  16.810  33.694  11.478
50031W        W23099  37.455  35.923  14.949
50032W        W23100  23.273  11.171  14.496
50033W        W23101  26.078   6.276   3.206
50034W        W23102  11.606  43.854   2.062
50035W        W23103   8.199  16.136  10.850
50036W        W23104  27.893  25.225   4.104
50037W        W23105  12.092  19.070  14.491
50038W        W23106  11.680  20.134  11.134
50039W        W23107  16.373   1.548  12.136
50040W        W23108  23.205   5.961   0.749
50041W        W23109  13.722  26.890  14.232
50042W        W23110   9.909  14.769   1.216
50043W        W23111   2.539  10.161  10.287
50044W        W23112   0.201  20.260  14.827
50045W        W23113  18.166  43.561  11.160
50046W        W23114  16.472  36.132  10.983
50047W        W23115  10.423   5.698   0.963
50048W        W23116  40.996  36.458   1.149
50049W        W23117  38.595   3.588  11.169
50050W        W23118  26.948   5.934   1.394
50051W        W23119  13.960   5.525   1.796
50052W        W23120  26.668  15.543  14.273
50053W        W23121  14.613   0.434   2.104
50054W        W23122  43.437  29.306   0.649
50055W        W23123   1.921   7.416   3.689
50056W        W23124  11.349  12.763  11.979
50057W        W23125   3.447  17.325   0.701
50058W        W23126  37.677  40.362   0.884
50059W        W23127  40.881  14.190   1.332
50060W        W23128  44.090  39.125  11.129
50061W        W23129  34.552  37.270   3.524
50062W        W23130  20.577   2.163   3.189
50063W        W23131  30.390   3.281  11.613
50064W        W23132  44.995  16.250   3.090
50065W        W23133  21.512  12.384   3.763
50066W        W23134   9.229  38.990   4.412
50067W        W23135  24.864  41.095  10.187
50068W        W23136  22.251  26.540  10.610
50069W        W23137   3.205   1.776  14.911
50070W        W23138   1.972  20.175   2.910
50071W        W23139  18.492  32.963   1.316
50072W        W23140  32.590  20.118   2.546
50073W        W23141  23.465   1.755   4.426
50074W        W23142  33.117   2.205  13.536
50075W        W23143   2.379  16.596   1.044
50076W        W23144   4.261  33.656  11.669
50077W        W23145  15.066  17.093  12.612
50078W        W23146  34.133  35.394  14.332
50079W        W23147   5.619  34.186   3.297
50080W        W23148  35.641   0.764   2.269
50081W        W23149   2.309  12.661   0.008
50082W        W23150  28.248   8.253   4.587
50083W        W23151  17.319   0.893   4.040
50084W        W23152  28.469  27.537  13.917
50085W        W23153   9.259  22.665  14.663
50086W        W23154  20.863   8.326  13.021
50087W        W23155  36.964   2.160   1.398
50088W        W23156  44.392  30.591  14.860
50089W        W23157   2.315  29.830   2.325
50090W        W23158  42.783  31.413   0.337
50091W        W23159   4.657  28.514  13.421
50092W        W23160  17.906   6.202   2.218
50093W        W23161  36.046  27.020   0.479
50094W        W23162  14.682  10.510   0.679
50095W        W23163  35.860  37.060   3.246
50096W        W23164  19.126  14.226  12.888
50097W        W23165  18.765  41.753  11.872
50098W        W23166  40.113  22.842  14.902
50099W        W23167   8.167  39.042   0.336
50100W        W23168   5.973  39.276   4.673
50101W        W23169  36.427  29.400  14.341
50102W        W23170   5.860  40.752  14.897
50103W        W23171  39.294  22.495  11.901
50104W        W23172  28.865  42.037   0.439
50105W        W23173  36.998  44.401   3.181
50106W        W23174  12.222  31.861   1.403
50107W        W23175  19.898   8.867   4.138
50108W        W23176   1.904  20.821  11.918
50109W        W23177  39.045   4.180   0.505
50110W        W23178  33.841  27.678   0.788
50111W        W23179  41.399  24.199  13.411
50112W        W23180  20.231   1.615  10.513
50113W        W23181  41.002  37.583   4.510
50114W        W23182  23.059   5.248   2.726
50115W        W23183  22.978  34.939   2.797
50116W        W23184  32.460  29.898   2.783
50117W        W23185  13.107  41.076  10.577
50118W        W23186  14.663   2.179   1.308
50119W        W23187  33.171  14.295  12.582
50120W        W23188  26.434  29.969  11.180
50121W        W23189  12.608  39.947   0.457
50122W        W23190  43.391   5.749  13.805
50123W        W23191  39.478  13.750  13.895
50124W        W23192  12.506  29.754  14.499
50125W        W23193  34.959  20.087   3.655
50126W        W23194  34.609   6.376  14.555
50127W        W23195   0.399   8.347   4.470
50128W        W23196  28.533   3.961   1.703
50129W        W23197  27.353  18.694  14.744
50130W        W23198  39.134   0.182  12.783
50131W        W23199   2.880  19.567   1.441
50132W        W23200  26.389  24.526  13.895
50133W        W23201  33.953  43.719   0.905
50134W        W23202   1.381  19.695  14.520
50135W        W23203  26.284   9.261   0.323
50136W        W23204  19.825  21.059   2.754
50137W        W23205  32.965  13.694   0.767
50138W        W23206   5.171  41.356   4.217
50139W        W23207  43.896   6.527  11.639
50140W        W23208  17.320  42.495  11.399
50141W        W23209   8.015  41.034   2.234
50142W        W23210   7.888  25.150   2.252
50143W        W23211  21.332  41.892  11.929
50144W        W23212  38.062  27.636   2.253
50145W        W23213  42.513  33.948   2.852
50146W        W23214  12.169  26.178   1.809
50147W        W23215  23.019  15.998  13.485
50148W        W23216  12.160  20.259   3.196
50149W        W23217  10.159  14.259  11.227
50150W        W23218   3.977  14.335  14.605
50151W        W23219  32.654  41.932  11.717
50152W        W23220  12.453  39.431   4.465
50153W        W23221  23.978  19.253   2.796
50154W        W23222  24.147  30.770  11.190
50155W        W23223  43.035  39.537  12.930
50156W        W23224  32.509  30.808   0.370
50157W        W23225  23.987  11.533   4.498
50158W        W23226  13.277  17.990  13.356
50159W        W23227  42.257  14.292  13.944
50160W        W23228   0.230  19.803   0.131
50161W        W23229  35.324  27.945  11.562
50162W        W23230  10.241  32.550   0.235
50163W        W23231  18.237  28.161   1.420
50164W        W23232  24.087  26.774   3.856
50165W        W23233  16.091  39.947   2.328
50166W        W23234   7.430  13.452   4.141
50167W        W23235   2.226   6.376   0.963
50168W        W23236   4.853  35.388  14.949
50169W        W23237  27.930  21.751   3.734
50170W        W23238   6.205  41.624  11.540
50171W        W23239  24.913  12.311  13.902
50172W        W23240  11.387   3.992   0.742
50173W        W23241  28.452   1.548   2.307
50174W        W23242  15.643  19.631  11.685
50175W        W23243  33.930  26.867   1.707
50176W        W23244  26.665  35.664  12.814
50177W        W23245  41.208  31.912  11.816
50178W        W23246  10.302  27.473   0.719
50179W        W23247  41.561  22.803   3.314
50180W        W23248  38.377  11.296  11.544
50181W        W23249  37.598  15.667   2.752
50182W        W23250  22.939   4.666  14.455
50183W        W23251  30.213   9.710   0.050
50184W        W23252  29.062  37.235   4.556
50185W        W23253  38.552  34.988   0.996
50186W        W23254  19.365  42.358   4.614
50187W        W23255   4.730  44.804   1.490
50188W        W23256  14.575  40.988   0.028
50189W        W23257  33.754   7.393  10.737
50190W        W23258  29.341  17.271  12.484
50191W        W23259  44.151  17.496   3.777
50192W        W23260  13.752  19.148  13.900
50193W        W23261  13.771  14.738   2.485
50194W        W23262  21.129   7.635  12.503
50195W        W23263  11.947  44.185  11.942
50196W        W23264  26.032  25.491  14.784
50197W        W23265   2.928  28.430  10.754
50198W        W23266  44.965  16.007   0.802
50199W        W23267  39.854  33.324   4.135
50200W        W23268   0.334  37.931  10.555
50201W        W23269   4.250  26.998   3.629
50202W        W23270  29.572   9.636   3.198
50203W        W23271  36.433  34.861   2.464
50204W        W23272  22.697  41.575  14.413
50205W        W23273  23.243   3.246  14.261
50206W        W23274  35.790  42.858  12.480
50207W        W23275  13.503  16.266  11.493
50208W        W23276  29.883  34.517   0.882
50209W        W23277  12.015  10.265  14.036
50210W        W23278  13.384  20.053  12.593
50211W        W23279   6.027  43.918   0.429
50212W        W23280  34.262   3.803   2.851
50213W        W23281  23.144  34.909  11.487
50214W        W23282   6.099  15.299  11.401
50215W        W23283   2.085  43.431   3.689
50216W        W23284  39.827  11.941  12.151
50217W        W23285   2.024  35.508   2.755
50218W        W23286  37.345  33.304   1.286
50219W        W23287  15.578   9.908  13.972
50220W        W23288  31.827  31.914   3.123
50221W        W23289   9.748  16.328   3.401
50222W        W23290  25.459  11.868   2.167
50223W        W23291  33.610  37.092   2.127
50224W        W23292  22.188  18.252  14.334
50225W        W23293  38.371  21.690   4.426
50226W        W23294  42.358  28.372  10.699
50227W        W23295  28.302  33.381  14.276
50228W        W23296  43.520   6.190  13.538
50229W        W23297  34.592  39.406  12.921
50230W        W23298  33.461  14.700   4.262
50231W        W23299  29.746  42.326   2.656
50232W        W23300  21.606   7.282   1.626
50233W        W23301  25.167  40.425   9.793
50234W        W23302  23.643  38.070  11.520
50235W        W23303   2.920  28.192   4.729
50236W        W23304  33.050  23.640   2.751
50237W        W23305  28.131  32.418   1.364
50238W        W23306  31.741  27.110   3.086
50239W        W23307  43.412   4.167  13.734
50240W        W23308  11.721  43.901  10.623
50241W        W23309  12.864  23.946  11.232
50242W        W23310  14.836  42.971  13.079
50243W        W23311  41.412  37.076  12.527
50244W        W23312  23.049   6.508  11.503
50245W        W23313   9.167  37.786  13.818
50246W        W23314  16.564   2.697   2.890
50247W        W23315  39.946  41.791   4.181
50248W        W23316  28.561  24.975   4.897
50249W        W23317  30.974  28.795  12.027
50250W        W23318  34.883  18.031   2.883
50251W        W23319  16.051  28.101   3.310
50252W        W23320  17.066  16.665  12.998
50253W        W23321  30.711  21.230  12.694
50254W        W23322  44.774   1.661  13.029
50255W        W23323  23.662  37.544   1.407
50256W        W23324   6.178  16.528   2.785
50257W        W23325  18.561  24.014  14.504
50258W        W23326  22.106  18.180   2.855
50259W        W23327  15.646  41.912   4.529
50260W        W23328  34.226  14.380  14.841
50261W        W23329  38.775  25.293  11.175
50262W        W23330  31.514  33.331  12.494
50263W        W23331  12.063   9.935   1.763
50264W        W23332  29.940  31.009   1.573
50265W        W23333  18.209  33.810  14.517
50266W        W23334  22.750  21.761   1.890
50267W        W23335  13.306  35.454  13.612
50268W        W23336   2.994  19.993   1.134
50269W        W23337  13.341   6.495   4.210
50270W        W23338   1.784  17.243  14.946
50271W        W23339   6.356  32.113  13.487
50272W        W23340  37.505  41.423   4.704
50273W        W23341   3.290  37.273  11.218
50274W        W23342  16.299  16.034  11.996
50275W        W23343  19.012  15.636   4.613
50276W        W23344  37.821  22.205   2.868
50277W        W23345   7.325  28.177   4.356
50278W        W23346   1.947  31.432   3.734
50279W        W23347  31.861   2.961   2.716
50280W        W23348  18.779  10.180  12.028
50281W        W23349  34.224  40.952  11.040
50282W        W23350  22.574  36.316   0.421
50283W        W23351  37.756  44.983  14.410
50284W        W23352   7.204  39.947  12.939
50285W        W23353  12.630  22.817  12.908
50286W        W23354  15.200  27.039   3.442
50287W        W23355  28.246   0.283  12.543
50288W        W23356  21.936  40.622  11.561
50289W        W23357  42.232  17.034   2.756
50290W        W23358  24.893   9.769  11.968
50291W        W23359  21.814   2.025   1.809
50292W        W23360   1.980  20.033   4.325
50293W        W23361  44.220  30.381   2.733
50294W        W23362  31.413  32.558  14.714
50295W        W23363   6.591  22.725   3.704
50296W        W23364  32.263  38.424   3.258
50297W        W23365   4.885  28.912   0.419
50298W        W23366  44.830  29.233  14.834
50299W        W23367   7.212  16.660  14.215
50300W        W23368  28.472  40.522  12.024
50301W        W23369  29.908  36.354   1.258
50302W        W23370   5.887   0.163  11.982
50303W        W23371  44.104   4.305   0.695
50304W        W23372  21.056   1.388  13.956
50305W        W23373  17.245  22.715  13.794
50306W        W23374  31.589   4.169  12.568
50307W        W23375  43.478  31.547  11.568
50308W        W23376  10.878  35.539  12.193
50309W        W23377   1.718  26.458  11.982
50310W        W23378  26.570   9.084   2.295
50311W        W23379  33.390   7.290   2.669
50312W        W23380  28.156  11.420   2.303
50313W        W23381  35.157  27.697   5.131
50314W        W23382  30.388   9.890  11.528
50315W        W23383  37.480   4.249   2.228
50316W        W23384  11.505  44.485  11.925
50317W        W23385   9.494  35.317   1.541
50318W        W23386   2.039  44.014   0.172
50319W        W23387  25.132  11.802  13.896
50320W        W23388  14.543  13.960  13.487
50321W        W23389  28.725  36.178  10.765
50322W        W23390  37.114  28.202  13.108
50323W        W23391  26.496  15.932   4.997
50324W        W23392  31.122  26.699   0.788
50325W        W23393  31.978  26.951   3.847
50326W        W23394  18.144  31.191  11.044
50327W        W23395  22.081   3.317   0.982
50328W        W23396  18.332  36.947  11.466
50329W        W23397  33.401   4.389  14.812
50330W        W23398  22.337  26.688   2.639
50331W        W23399  23.322  35.506   0.065
50332W        W23400  27.953  26.185  10.684
50333W        W23401  42.889  12.598  11.130
50334W        W23402  27.920  21.837  11.115
50335W        W23403  31.144  13.399  12.410
50336W        W23404  10.190  40.331   2.379
50337W        W23405  41.907  26.634   1.445
50338W        W23406  20.516  23.723  11.915
50339W        W23407  30.021  26.169  12.765
50340W        W23408  33.590  41.892   3.379
50341W        W23409  15.406  41.535   1.328
50342W        W23410  44.824  23.743  13.320
50343W        W23411   5.950  22.642  13.881
50344W        W23412  42.797  26.757   2.244
50345W        W23413  42.897  19.071   4.649
50346W        W23414  33.670  15.939  10.228
50347W        W23415  19.266  38.723  12.973
50348W        W23416  11.213  44.675  11.530
50349W        W23417   0.508  21.212  10.241
50350W        W23418  11.656  42.727  13.518
50351W        W23419  14.858   8.259   4.205
50352W        W23420  23.000   0.875  13.914
50353W        W23421  37.279  29.898  14.423
50354W        W23422   1.020   4.561  10.530
50355W        W23423  20.488  20.210   0.040
50356W        W23424  10.201  29.185  11.057
50357W        W23425  10.385  41.015  13.437
50358W        W23426  17.103  23.719   2.307
50359W        W23427   3.714  37.028  10.501
50360W        W23428  18.214  41.115  11.457
50361W        W23429   2.454  39.476  14.404
50362W        W23430  16.591  42.528   0.812
50363W        W23431   8.692  19.293   2.926
50364W        W23432   1.385  40.532   4.600
50365W        W23433  11.923  11.185   1.914
50366W        W23434   9.907  12.394   2.206
50367W        W23435  18.473  21.665   0.111
50368W        W23436   8.224  31.500   0.306
50369W        W23437  10.580   3.262  11.934
50370W        W23438   0.934  15.258  10.606
50371W        W23439  26.933  20.968  11.424
50372W        W23440  40.291  16.206  11.179
50373W        W23441  33.021  43.874   0.231
50374W        W23442  38.651  13.867  14.241
50375W        W23443  41.396  42.984   2.836
50376W        W23444  29.122  25.078  10.628
50377W        W23445  41.994   2.762  12.040
50378W        W23446  34.912  31.056  11.808
50379W        W23447  17.503  17.208  12.062
50380W        W23448  44.683   5.755   2.257
50381W        W23449  13.589  19.205   2.914
50382W        W23450  44.621  20.674  14.289
50383W        W23451  31.399   9.874  14.385
50384W        W23452   2.867  13.686   4.309
50385W        W23453  44.104   6.707  12.958
50386W        W23454  10.487  30.132  11.047
50387W        W23455  35.624  37.434   1.872
50388W        W23456  24.663   8.731  13.542
50389W        W23457   0.098  15.326  11.617
50390W        W23458  10.556  25.975   2.206
50391W        W23459  28.503  17.233  12.072
50392W        W23460  41.941   1.339  12.863
50393W        W23461  41.829  29.650  14.057
50394W        W23462  29.326  37.936   2.246
50395W        W23463   2.381   0.323   2.878
50396W        W23464  15.850   0.254   0.570
50397W        W23465  32.217  18.067  13.009
50398W        W23466  19.377  18.612  14.002
50399W        W23467  21.112  13.266  14.335
50400W        W23468  24.720   0.795   2.899
50401W        W23469  24.312  44.711  12.084
50402W        W23470  11.757  35.971  12.112
50403W        W23471  32.354  22.957  13.955
50404W        W23472  35.443  27.025  10.652
50405W        W23473  22.519   0.467  12.713
50406W        W23474   3.462  34.940  10.696
50407W        W23475  33.037  35.404  12.127
50408W        W23476  42.942   9.905   3.362
50409W        W23477  17.787  26.885   2.674
50410W        W23478  21.995  13.174  13.386
50411W        W23479  27.687   1.285  13.917
50412W        W23480  25.488   4.314   3.251
50413W        W23481  16.878   6.245   2.360
50414W        W23482   6.746  23.947  10.694
50415W        W23483   0.749  44.296   2.278
50416W        W23484  27.718   4.985  11.898
50417W        W23485  27.762   2.446   3.359
50418W        W23486  28.849  27.067   1.692
50419W        W23487   0.375  37.093  12.505
50420W        W23488   4.871  29.170   4.692
50421W        W23489  16.557  34.644   3.832
50422W        W23490  16.549  17.788  11.034
50423W        W23491   0.941  44.514   2.709
50424W        W23492  31.449  12.174  10.611
50425W        W23493  16.303   0.831  14.000
50426W        W23494  22.751   5.025   5.079
50427W        W23495   4.237  34.204  11.728
50428W        W23496   9.320  32.485   4.202
50429W        W23497  20.424   8.766  12.661
50430W        W23498   5.317  15.848  11.953
50431W        W23499  12.288  11.284   1.409
50432W        W23500  22.688  34.952  11.215
50433W        W23501   7.689  16.649   0.385
50434W        W23502  21.245  20.442   0.393
50435W        W23503   1.978  41.706   5.017
50436W        W23504  35.393   5.987   1.311
50437W        W23505  15.694  15.909  14.846
50438W        W23506   9.290  15.492   4.580
50439W        W23507  23.550  18.472   3.693
50440W        W23508   9.358  26.027  14.452
50441W        W23509  14.767  43.919   4.716
50442W        W23510   8.133  40.852  14.788
50443W        W23511  10.283  14.798  11.515
50444W        W23512  44.937  36.344  13.441
50445W        W23513  22.573  44.716   5.046
50446W        W23514  24.519   1.345  14.725
50447W        W23515  28.957   1.740  12.675
50448W        W23516  34.965  43.065  10.117
50449W        W23517  30.977  28.354   4.052
50450W        W23518  37.373  17.614  13.891
50451W        W23519  20.104  37.847  13.978
50452W        W23520  43.706  16.280   3.708
50453W        W23521  10.132  36.991  12.360
50454W        W23522  29.448   9.447  11.353
50455W        W23523  12.720  43.425   3.753
50456W        W23524  16.623  21.352  14.373
50457W        W23525  39.402  40.364   3.917
50458W        W23526  31.449  33.614  12.965
50459W        W23527  35.136  39.887  14.370
50460W        W23528  21.136  21.491  11.433
50461W        W23529  29.436  32.141   2.122
50462W        W23530  36.079  30.123   1.248
50463W        W23531  33.280  32.369  14.744
50464W        W23532   1.445  27.435  13.963
50465W        W23533   0.817  35.891   2.557
50466W        W23534  37.994   1.852  13.947
50467W        W23535  40.019  33.310  10.632
50468W        W23536  33.368  16.282   3.722
50469W        W23537  14.646  26.860  13.439
50470W        W23538  26.107   9.138   1.219
50471W        W23539  35.527  40.362  11.527
50472W        W23540  20.356  33.867   1.446
50473W        W23541   6.672  11.968   0.784
50474W        W23542   5.887  30.422  10.704
50475W        W23543   7.892  39.039   3.255
50476W        W23544  25.450  23.269   3.686
50477W        W23545   4.885  36.357  14.708
50478W        W23546  35.122  44.514  14.322
50479W        W23547  13.733  32.128   1.948
50480W        W23548   3.747  16.637  12.369
50481W        W23549  26.560  39.097  13.851
50482W        W23550  11.314  27.663  10.399
50483W        W23551  20.297  38.002  13.511
50484W        W23552  19.392  14.887   2.828
50485W        W23553  35.851  13.323   3.669
50486W        W23554  15.943  24.774  11.589
50487W        W23555  34.512   5.775   3.314
50488W        W23556   8.207  14.330   3.175
50489W        W23557  18.622  39.587   3.226
50490W        W23558  43.227  42.965   2.214
50491W        W23559  16.501  27.565  11.640
50492W        W23560  10.551   9.392  11.955
50493W        W23561   4.765  27.260   1.702
50494W        W23562  25.089   6.421  13.900
50495W        W23563  29.410   7.875  10.604
50496W        W23564  25.162  12.535  12.359
50497W        W23565   0.462   7.107   1.646
50498W        W23566  26.951  24.278   4.247
50499W        W23567  30.931   3.227   4.102
50500W        W23568  24.261  27.964   0.847
50501W        W23569  36.973  40.575   3.277
50502W        W23570   0.992  12.530  11.754
50503W        W23571   2.021  29.109  12.546
50504W        W23572  42.044  28.517   0.895
50505W        W23573  23.664  24.231  13.183
50506W        W23574  22.110   8.180   5.024
50507W        W23575   8.813  38.774   4.636
50508W        W23576  43.334  10.741   4.498
50509W        W23577  36.867  40.035  14.834
50510W        W23578  35.096  38.919   2.761
50511W        W23579  39.949  43.001  11.712
50512W        W23580  21.308  17.364   5.083
50513W        W23581   9.114  13.596   0.168
50514W        W23582  40.265  11.110   0.965
50515W        W23583  24.019  13.570  14.413
50516W        W23584  24.913  31.115   4.585
50517W        W23585  12.718  22.216  11.113
50518W        W23586   5.103  32.204   4.570
50519W        W23587  25.520  27.852   3.614
50520W        W23588  17.188   6.688   2.360
50521W        W23589  39.934   7.811   5.606
50522W        W23590  11.048   5.775  12.441
50523W        W23591  11.618   3.634   1.426
50524W        W23592  43.414  25.268   2.441
50525W        W23593  32.636  26.387  14.633
50526W        W23594  18.669  26.204  11.162
50527W        W23595   6.340   3.014   1.333
50528W        W23596  14.135   8.273  14.825
50529W        W23597  28.878  44.398   2.871
50530W        W23598  33.968  35.369   3.804
50531W        W23599  29.079  16.281   0.238
50532W        W23600  32.863  37.496   4.129
50533W        W23601  20.105   4.688   3.736
50534W        W23602  17.081  29.815  11.321
50535W        W23603   9.768  12.065   3.813
50536W        W23604  33.368  11.268  10.148
50537W        W23605  33.471   5.890   2.382
50538W        W23606  38.807   2.237   2.780
50539W        W23607  32.180  16.082   1.260
50540W        W23608  41.718  18.826  11.590
50541W        W23609  40.868  16.768  11.942
50542W        W23610  22.233  35.651  11.009
50543W        W23611   0.676  15.351   1.843
50544W        W23612   2.680  11.638  12.556
50545W        W23613  10.440  10.292  13.868
50546W        W23614   1.737   3.397   5.172
50547W        W23615  36.788  12.574   0.905
50548W        W23616   6.627  11.552  12.445
50549W        W23617   9.579  34.836   1.371
50550W        W23618   8.573  21.707  11.501
50551W        W23619  23.275   5.223   1.858
50552W        W23620  39.903  18.192  10.712
50553W        W23621  35.787   6.820  14.495
50554W        W23622   5.450  17.719   0.349
50555W        W23623  28.951  12.429   0.919
50556W        W23624  13.101  21.271  14.243
50557W        W23625   8.621  42.825  12.298
50558W        W23626  15.158  16.631   3.170
50559W        W23627  18.674  13.649   4.967
50560W        W23628  25.692  12.804  14.005
50561W        W23629  27.983  33.975  13.370
50562W        W23630  29.082  28.085  12.150
50563W        W23631  11.166  14.076  14.046
50564W        W23632  41.033  13.329   2.628
50565W        W23633  42.309  13.179   2.319
50566W        W23634  18.622   8.941   4.533
50567W        W23635  12.634   0.833  11.711
50568W        W23636  27.374   2.008  13.589
50569W        W23637  32.134   4.993  10.677
50570W        W23638  44.712  29.179   0.709
50571W        W23639  31.123  19.947   4.384
50572W        W23640  25.006  28.637   3.623
50573W        W23641  14.138  18.084   1.300
50574W        W23642  31.570  21.081   2.792
50575W        W23643  11.357  41.200  11.608
50576W        W23644  22.119  43.982   2.844
50577W        W23645   3.395  43.036   4.993
50578W        W23646  27.706  34.429  11.640
50579W        W23647  31.039  18.582   2.767
50580W        W23648   9.389  44.437   4.198
50581W        W23649  38.345  34.515   1.162
50582W        W23650   9.602   3.975   3.169
50583W        W23651  29.759  33.547  11.276
50584W        W23652  18.000   3.803   3.848
50585W        W23653   3.050   1.540   0.911
50586W        W23654  26.739   1.827   9.780
50587W        W23655   9.867   2.024   4.962
50588W        W23656  18.152  11.394   4.894
50589W        W23657  40.520   8.934  14.879
50590W        W23658  22.530  23.951  14.248
50591W        W23659  44.634   2.437   0.300
50592W        W23660   6.351  19.473  12.338
50593W        W23661  42.356  10.434   2.794
50594W        W23662   4.421   4.957   1.729
50595W        W23663  10.153  11.564   2.084
50596W        W23664  32.516  25.706   2.602
50597W        W23665  17.633  39.905   4.658
50598W        W23666  28.032   9.851   3.606
50599W        W23667  29.650   1.964  12.877
50600W        W23668   0.882  29.163  12.363
50601W        W23669   3.983  41.859  13.569
50602W        W23670  11.150   6.866   0.321
50603W        W23671  16.914  25.762  11.148
50604W        W23672  40.336  30.249   4.971
50605W        W23673  41.266   3.749   1.381
50606W        W23674   5.202  15.539  12.972
50607W        W23675  30.566  21.665   0.823
50608W        W23676  38.217   0.051   1.661
50609W        W23677  35.477  14.376   4.200
50610W        W23678  30.031  27.586   4.126
50611W        W23679   7.017  10.880   2.355
50612W        W23680  17.580   9.510  10.936
50613W        W23681  39.901   7.473   0.032
50614W        W23682  30.544  15.614   0.756
50615W        W23683  30.758  34.615  10.661
50616W        W23684  30.473   5.632  14.052
50617W        W23685  31.934  36.975  10.714
50618W        W23686  14.837  29.524   0.599
50619W        W23687  36.871  27.090   3.072
50620W        W23688  16.594  34.560   4.341
50621W        W23689  20.413  38.151   1.463
50622W        W23690   8.215  12.808  13.924
50623W        W23691   5.184  20.662   3.665
50624W        W23692  19.737  13.986  10.548
50625W        W23693  16.153   5.357   3.466
50626W        W23694   9.763  43.589  12.425
50627W        W23695   8.690  10.192   2.871
50628W        W23696   4.099  28.550   0.709
50629W        W23697   0.637  27.605   1.904
50630W        W23698  43.021  36.929  12.595
50631W        W23699  23.667  28.929   1.679
50632W        W23700  34.606  30.196   2.567
50633W        W23701  39.145  41.521  14.382
50634W        W23702  44.953  39.431  14.968
50635W        W23703  17.262   6.926  11.381
50636W        W23704  42.799  16.631   3.888
50637W        W23705  31.682  11.787   2.254
50638W        W23706   1.857  10.125   2.200
50639W        W23707  30.218  36.022   4.405
50640W        W23708  15.675   8.708   5.485
50641W        W23709  29.900   2.384   4.166
50642W        W23710  20.037   7.898   0.790
50643W        W23711  40.613  12.685  11.098
50644W        W23712   5.263  28.905   3.912
50645W        W23713  18.953  43.379   0.742
50646W        W23714  12.891  40.350  12.926
50647W        W23715  35.898  25.517   1.928
50648W        W23716  22.920  18.059  12.987
50649W        W23717  43.299  30.367   0.758
50650W        W23718  18.514  14.553   3.753
50651W        W23719  32.651  14.534  11.991
50652W        W23720  27.545   6.153   0.301
50653W        W23721   1.479  20.154   4.563
50654W        W23722  38.373  37.544   1.953
50655W        W23723   8.220  27.809  10.872
50656W        W23724  31.594  23.733   1.764
50657W        W23725   6.283  12.121  14.057
50658W        W23726  43.668  10.877  11.110
50659W        W23727  44.809  36.853   0.433
50660W        W23728   3.054  35.537  10.906
50661W        W23729  42.866  40.614   0.993
50662W        W23730  17.180  38.329   0.784
50663W        W23731  24.748  24.560  13.563
50664W        W23732  16.837   9.315   0.489
50665W        W23733  42.629  11.103   1.375
50666W        W23734  33.509  31.961   1.841
50667W        W23735  34.865   3.129   4.160
50668W        W23736  25.174   8.717  11.518
50669W        W23737   5.150  25.676  12.173
50670W        W23738  34.356  39.873  11.544
50671W        W23739  44.502   1.741  12.381
50672W        W23740  18.362  29.487   3.365
50673W        W23741  17.177  37.546   3.362
50674W        W23742   2.405  28.152   2.669
50675W        W23743  44.410  10.223  14.199
50676W        W23744  10.207   1.151  14.372
50677W        W23745  19.299  21.791  14.065
50678W        W23746  11.664  22.820  14.915
50679W        W23747  13.527  28.887  11.693
50680W        W23748  27.587  11.707  10.954
50681W        W23749   5.863  28.644   1.466
50682W        W23750  19.277  27.481  13.294
50683W        W23751  36.113  42.793  11.166
50684W        W23752  31.717  11.212  13.760
50685W        W23753  12.830  32.410   2.793
50686W        W23754  13.719  15.107   3.772
50687W        W23755  24.539  34.971   2.225
50688W        W23756   3.329  10.638  10.595
50689W        W23757  41.840   8.909   3.804
50690W        W23758  29.727   2.952  11.923
50691W        W23759  22.472  31.482  11.671
50692W        W23760  23.281  14.830  13.998
50693W        W23761   7.839  15.706   3.588
50694W        W23762  34.682  42.940   3.236
50695W        W23763  39.311  28.534  14.819
50696W        W23764  30.946  39.079  12.406
50697W        W23765  40.969  39.576   3.165
50698W        W23766   6.755  28.994   2.296
50699W        W23767   4.363  33.891  12.122
50700W        W23768  44.253  11.193  10.849
50701W        W23769  16.312   9.225   0.032
50702W        W23770  16.830   5.252   0.866
50703W        W23771  43.277  22.224  10.438
50704W        W23772  19.483  36.439   1.039
50705W        W23773  19.013   6.176   4.725
50706W        W23774   4.022  40.322   0.037
50707W        W23775  41.455   0.976  11.077
50708W        W23776  38.433  25.433  10.723
50709W        W23777  36.423  43.308   3.198
50710W        W23778  25.308  13.818  14.874
50711W        W23779  26.203  39.734  11.132
50712W        W23780  27.397   6.951  14.419
50713W        W23781  41.599  40.355   1.930
50714W        W23782  39.763   6.942  11.464
50715W        W23783  43.321  28.134  12.990
50716W        W23784  29.123  10.699  12.910
50717W        W23785   6.568  15.936   0.070
50718W        W23786   0.689   6.429  13.896
50719W        W23787  30.465   9.618   1.477
50720W        W23788  16.204  35.480   3.389
50721W        W23789   4.516  10.974  10.959
50722W        W23790   4.869  41.259  11.054
50723W        W23791  15.921  18.511   0.911
50724W        W23792  32.375  19.231  11.144
50725W        W23793  24.752  19.756   4.500
50726W        W23794   1.303  15.770   9.908
50727W        W23795  35.449   1.787  12.630
50728W        W23796  24.194  41.888  14.580
50729W        W23797   5.265  11.161  10.552
50730W        W23798  31.414  27.192   2.694
50731W        W23799  43.595  11.923   2.419
50732W        W23800  16.245  21.026   0.844
50733W        W23801  11.813  44.892  14.055
50734W        W23802  28.485   4.889  10.974
50735W        W23803  11.180  11.811  13.390
50736W        W23804  17.181  41.088  10.506
50737W        W23805  10.877   1.483   0.278
50738W        W23806  34.129   7.252  13.753
50739W        W23807  36.103  42.269  14.493
50740W        W23808  17.761  14.143   4.896
50741W        W23809  44.510  39.538  12.891
50742W        W23810  28.632  44.063  13.082
50743W        W23811  34.397   5.680  12.845
50744W        W23812   9.834   6.400   4.159
50745W        W23813   8.108  21.206  13.549
50746W        W23814  19.745  37.480   2.484
50747W        W23815   1.773   4.233  14.609
50748W        W23816  43.526  36.638   3.722
50749W        W23817  41.513   8.407  14.126
50750W        W23818  36.419  38.900  10.412
50751W        W23819   8.561   2.098   0.037
50752W        W23820  38.844  21.323   1.680
50753W        W23821   3.594  25.449  13.816
50754W        W23822  42.368  19.605   2.441
50755W        W23823   6.047  43.411   0.395
50756W        W23824  18.777  15.000   2.372
50757W        W23825  12.102  29.936   3.923
50758W        W23826  29.613  33.409   0.403
50759W        W23827  40.462  14.145  10.236
50760W        W23828  35.814   0.871   3.623
50761W        W23829  10.793  26.645  14.370
50762W        W23830  20.956  22.642   4.155
50763W        W23831  31.013  10.129  11.002
50764W        W23832   8.171  23.542  12.591
50765W        W23833  28.058  12.160   1.817
50766W        W23834  22.781  20.590   4.290
50767W        W23835  34.092   1.437  11.156
50768W        W23836  41.023  11.829  11.995
50769W        W23837  14.730   9.790  13.476
50770W        W23838  41.286  12.763  12.688
50771W        W23839  21.174  36.423  14.788
50772W        W23840  16.760   5.791   2.626
50773W        W23841  38.753  41.924   0.919
50774W        W23842  38.094  37.377  14.242
50775W        W23843  26.169  36.727   2.689
50776W        W23844  41.583  26.971  11.660
50777W        W23845  29.905  30.504  11.944
50778W        W23846   3.690  35.959  12.409
50779W        W23847  25.804   9.396   2.635
50780W        W23848   6.942  21.097  12.530
50781W        W23849  38.311  14.070   4.911
50782W        W23850  15.694  34.821  11.062
50783W        W23851  42.795   0.804  14.018
50784W        W23852  26.362  13.695  14.336
50785W        W23853  14.854  44.325   0.457
50786W        W23854  12.980  26.536  14.043
50787W        W23855   9.568   5.573   1.360
50788W        W23856  16.248  34.166   3.827
50789W        W23857   1.959   1.413   3.637
50790W        W23858  31.129   2.681  10.758
50791W        W23859   3.477  21.528  11.417
50792W        W23860  15.082  26.256   4.603
50793W        W23861  15.469  30.883   2.648
50794W        W23862  24.642   5.090   3.379
50795W        W23863  29.206   1.818  11.093
50796W        W23864  30.409  12.347  14.857
50797W        W23865   4.733  22.373  11.238
50798W        W23866  13.912  11.538  14.888
50799W        W23867  30.592   6.187   2.340
50800W        W23868  10.851   9.682   3.197
50801W        W23869  29.670  13.785   3.728
50802W        W23870  31.597  42.694  13.127
50803W        W23871  31.731  16.881   1.255
50804W        W23872  34.132  37.122  13.517
50805W        W23873  29.997  36.153  12.119
50806W        W23874  20.545   1.300  14.318
50807W        W23875  38.347   9.613   4.130
50808W        W23876  12.993   7.262   3.818
50809W        W23877   8.541   9.773   1.894
50810W        W23878  23.950  25.010   3.939
50811W        W23879  17.310   6.763  11.870
50812W        W23880  23.203   9.740   4.586
50813W        W23881  32.592  17.800   4.608
50814W        W23882   5.349  17.250  10.893
50815W        W23883  24.939  20.607  12.432
50816W        W23884  34.070  24.144   4.219
50817W        W23885   9.316  38.054   3.319
50818W        W23886  10.443  31.853   2.788
50819W        W23887  19.583  36.628  12.500
50820W        W23888  34.844   6.799  13.456
50821W        W23889  39.029  15.678  11.015
50822W        W23890  18.065   6.833  12.889
50823W        W23891  12.777   0.740  12.186
50824W        W23892  13.557  43.415  10.686
50825W        W23893  43.381  23.750  14.242
50826W        W23894   3.837   5.304  10.630
50827W        W23895  17.150   9.211   3.305
50828W        W23896  15.217  38.813   0.102
50829W        W23897  30.343  32.093   2.594
50830W        W23898   1.879  36.391   1.166
50831W        W23899  23.154  28.090   1.967
50832W        W23900   7.730   2.462  13.361
50833W        W23901  18.704  36.657   1.385
50834W        W23902   4.979  44.345  14.451
50835W        W23903  13.809  16.233   4.621
50836W        W23904  35.615  14.433  14.835
50837W        W23905  34.078   0.461  12.454
50838W        W23906  41.337  19.570  14.261
50839W        W23907   8.963  20.627   1.825
50840W        W23908  37.068  20.037   3.707
50841W        W23909  33.215  20.675   3.426
50842W        W23910  13.654  13.974   4.679
50843W        W23911  17.191  15.082   1.405
50844W        W23912  28.703  25.963  12.053
50845W        W23913  15.330  19.798  14.903
50846W        W23914   8.846  12.334  10.557
50847W        W23915   4.701  10.148  11.647
50848W        W23916   9.657  28.071   4.685
50849W        W23917  39.374   9.637   4.372
50850W        W23918  27.090  26.875  10.440
50851W        W23919   5.396  41.866  12.602
50852W        W23920  43.327  38.576  11.197
50853W        W23921  29.632   4.818  13.805
50854W        W23922  25.229  27.016  14.919
50855W        W23923  18.778  34.336   1.765
50856W        W23924   2.265  30.152   1.877
50857W        W23925  10.772  10.923   2.183
50858W        W23926  39.976   2.395  14.421
50859W        W23927  22.791  14.166  10.766
50860W        W23928  29.671  19.163   1.268
50861W        W23929  12.177  13.876   0.431
50862W        W23930   1.017  44.412   3.667
50863W        W23931  22.734  18.516   3.324
50864W        W23932  37.365  27.761   2.677
50865W        W23933  44.939   4.140  12.686
50866W        W23934  14.875  38.914  12.569
50867W        W23935  40.815  22.984   1.031
50868W        W23936   1.828  44.229   3.614
50869W        W23937  22.378  22.195  10.533
50870W        W23938  20.661  25.980   1.132
50871W        W23939  35.645  18.390   3.851
50872W        W23940  18.641   1.322  12.507
50873W        W23941  34.561  17.325   0.496
50874W        W23942  11.662  34.824   1.561
50875W        W23943  32.020  31.453   0.039
50876W        W23944  32.046  15.842  12.207
50877W        W23945  16.063  37.762   2.737
50878W        W23946  25.233  30.868  12.590
50879W        W23947  17.546  27.500   3.170
50880W        W23948  29.123   3.895   0.682
50881W        W23949  28.951  41.272   0.816
50882W        W23950   4.111   7.140   4.762
50883W        W23951  30.903   3.640  14.443
50884W        W23952  13.994  43.636  11.892
50885W        W23953  27.617   7.024   0.777
50886W        W23954  21.524  39.276   1.697
50887W        W23955  40.957  30.505  13.097
50888W        W23956  32.674  21.266   2.220
50889W        W23957   3.899   9.850  11.429
50890W        W23958  40.890  28.675  13.947
50891W        W23959   0.986  26.940  11.669
50892W        W23960   7.897  27.529  10.502
50893W        W23961  43.042  30.918   1.172
50894W        W23962  20.259  29.214  11.148
50895W        W23963  38.795  39.421  12.606
50896W        W23964  20.617   1.782   5.004
50897W        W23965  28.065  17.177  13.047
50898W        W23966  22.755  39.464   4.552
50899W        W23967  20.069  33.195  12.998
50900W        W23968  36.623  41.017  14.812
50901W        W23969   2.956  10.174  14.999
50902W        W23970  35.390   0.353   0.809
50903W        W23971  16.061  16.546   0.373
50904W        W23972  31.875   6.238  12.873
50905W        W23973  12.697  19.094  10.158
50906W        W23974  27.261   2.720   0.668
50907W        W23975  36.917  35.291  11.250
50908W        W23976  36.152  36.106   0.394
50909W        W23977   7.747  11.669   3.615
50910W        W23978  29.277  39.563  10.569
50911W        W23979  37.830  37.040   3.164
50912W        W23980  22.751   7.845   0.856
50913W        W23981  16.244  16.519  14.744
50914W        W23982  31.466  27.671   2.875
50915W        W23983  10.729  35.317   0.370
50916W        W23984  37.401   9.877  13.917
50917W        W23985  27.655  18.264  11.560
50918W        W23986  44.828  12.372   2.832
50919W        W23987  24.706  17.003   2.872
50920W        W23988  21.521  11.966   4.630
50921W        W23989  19.533   4.503  14.351
50922W        W23990  30.485  34.157  10.703
50923W        W23991   4.921   8.049  14.553
50924W        W23992   9.591   0.530   4.674
50925W        W23993  27.610  21.179  13.544
50926W        W23994  42.798   9.169  10.594
50927W        W23995  34.617  40.448  12.918
50928W        W23996  42.433  27.966  11.605
50929W        W23997  39.020  38.082  12.201
50930W        W23998  14.934   3.681  10.170
50931W        W23999  28.952   4.684  10.772
50932W        W24000  16.704   8.865   1.821
50933W        W24001  19.811  30.704   1.183
50934W        W24002  11.239  34.330  14.884
50935W        W24003  31.967   4.773  13.943
50936W        W24004  24.002  38.419  10.608
50937W        W24005  27.643   8.104   0.453
50938W        W24006  15.833   1.271   1.382
50939W        W24007  11.449  33.971   1.385
50940W        W24008  11.924  13.487  14.467
50941W        W24009  16.170  25.080  13.955
50942W        W24010  14.154   6.029  10.374
50943W        W24011   7.744  18.547   4.162
50944W        W24012  18.045  28.985  12.772
50945W        W24013  19.475   6.029   3.987
50946W        W24014  14.228  12.071   2.440
50947W        W24015  28.760   0.412  14.967
50948W        W24016  42.101  18.010   1.818
50949W        W24017  23.164  19.066  10.438
50950W        W24018   9.700  13.743  10.720
50951W        W24019  11.614   9.041   3.221
50952W        W24020  29.447  43.736   3.724
50953W        W24021  16.085  21.991  13.507
50954W        W24022  19.519   5.208  10.631
50955W        W24023  41.960   8.680  13.915
50956W        W24024  36.883  33.153   2.373
50957W        W24025   4.046  26.159   2.567
50958W        W24026  36.003  21.561   3.667
50959W        W24027  19.237  32.046  10.694
50960W        W24028  19.243   4.880   2.226
50961W        W24029  37.991  16.144   3.218
50962W        W24030  39.823  19.616   3.547
50963W        W24031  21.626   5.260  12.461
50964W        W24032  38.297  14.147   4.379
50965W        W24033   4.689  33.831   3.308
50966W        W24034  38.921  40.307  14.064
50967W        W24035  20.106   6.161   2.404
50968W        W24036   6.675  21.178  14.492
50969W        W24037  26.636  40.012  14.832
50970W        W24038   1.285   9.209   2.866
50971W        W24039   3.174  17.102  13.792
50972W        W24040  21.286  29.453  13.978
50973W        W24041  31.625   5.242   3.262
50974W        W24042  27.208  10.822   0.283
50975W        W24043  32.477  36.290  11.170
50976W        W24044  41.749   2.830  12.507
50977W        W24045   3.387  13.215   0.326
50978W        W24046  26.919  23.770  12.045
50979W        W24047  12.681  37.618   3.449
50980W        W24048  19.106  13.597  12.651
50981W        W24049  39.204  41.117   4.183
50982W        W24050  26.590   2.516   0.287
50983W        W24051  13.588   8.582   3.206
50984W        W24052  37.622  33.916   4.837
50985W        W24053  35.311  40.965  13.523
50986W        W24054  43.373  20.291   4.570
50987W        W24055   2.316  12.915  10.381
50988W        W24056  12.566   2.688  13.819
50989W        W24057  44.196  35.322  12.053
50990W        W24058   3.950  25.586   0.102
50991W        W24059  25.953  30.395  10.405
50992W        W24060  40.280   3.479   1.739
50993W        W24061   2.602  25.772   4.690
50994W        W24062   6.742  16.077  12.221
50995W        W24063   3.933  30.486   3.119
50996W        W24064  22.655  17.155   3.685
50997W        W24065  30.747  38.199   1.975
50998W        W24066  16.254  13.637  10.713
50999W        W24067  24.665  12.160   1.298
51000W        W24068  14.622  30.037   4.693
51001W        W24069  32.485  16.929  13.475
51002W        W24070   2.012  23.240  10.820
51003W        W24071   4.418  25.960   1.230
51004W        W24072  30.615  27.674  12.101
51005W        W24073  11.106  39.384   2.305
51006W        W24074   7.249  24.719  12.362
51007W        W24075  15.236  17.545  13.054
51008W        W24076   8.799  27.183  14.003
51009W        W24077  27.902   4.170  12.911
51010W        W24078  31.886  15.696  14.942
51011W        W24079  12.159  11.404  10.707
51012W        W24080  43.288  25.074   3.190
51013W        W24081   1.510  29.002  12.146
51014W        W24082  12.699  15.466   0.752
51015W        W24083  43.944   0.444  10.869
51016W        W24084  24.054  43.882  13.801
51017W        W24085  32.972  33.186   3.768
51018W        W24086  25.526  41.223   2.878
51019W        W24087   4.274  22.514  13.454
51020W        W24088  12.818  29.589  14.918
51021W        W24089  42.924  24.441  13.931
51022W        W24090   5.756  30.921   3.338
51023W        W24091  38.745  40.721  13.835
51024W        W24092  25.935  28.895  13.885
51025W        W24093   5.170  30.382  11.225
51026W        W24094   6.208  16.242   3.234
51027W        W24095  41.013  13.791   2.366
51028W        W24096  21.092  11.751   2.891
51029W        W24097  14.790  10.706  12.191
51030W        W24098  13.320  25.525  14.809
51031W        W24099   1.550  18.060  11.088
51032W        W24100  39.307  41.313  13.481
51033W        W24101  37.853  41.428   3.866
51034W        W24102  28.047  30.573  13.313
51035W        W24103  40.791  13.388  12.992
51036W        W24104  39.921  42.508   2.211
51037W        W24105  27.943  26.091   3.696
51038W        W24106  22.160  25.099  14.366
51039W        W24107  43.766  24.293   0.014
51040W        W24108   1.663  27.782   0.959
51041W        W24109  11.580  29.439  14.330
51042W        W24110   8.876  21.133   4.071
51043W        W24111   9.863   9.772  11.893
51044W        W24112  24.175  33.447  10.792
51045W        W24113  21.494  12.236   1.914
51046W        W24114  13.180  40.568   1.163
51047W        W24115  11.064  22.179  13.399
51048W        W24116  38.201  15.615  14.775
51049W        W24117   3.420  24.689  10.709
51050W        W24118  37.557   2.199   0.119
51051W        W24119  18.097  44.336   3.147
51052W        W24120  18.707  36.889  14.441
51053W        W24121  11.673  37.389  12.894
51054W        W24122  10.677  17.634   0.419
51055W        W24123  37.067  15.989   3.326
51056W        W24124  36.548   2.267  12.446
51057W        W24125  37.875  42.865   4.860
51058W        W24126  16.889  35.340  13.391
51059W        W24127  35.224  32.140  10.555
51060W        W24128   3.969   8.449  13.848
51061W        W24129  29.231   3.830   3.244
51062W        W24130  19.184  40.615  11.470
51063W        W24131  27.121   9.229   9.639
51064W        W24132   6.223  13.850   0.246
51065W        W24133  12.202  32.951  11.270
51066W        W24134  28.916  13.315   2.656
51067W        W24135   0.519  35.149  10.489
51068W        W24136  31.655  28.218   1.701
51069W        W24137  12.213  42.206  14.036
51070W        W24138   2.427  24.276   1.324
51071W        W24139   8.029  12.533  13.534
51072W        W24140  31.693  27.949  13.013
51073W        W24141  14.275  18.214  11.360
51074W        W24142  13.650  30.946   4.776
51075W        W24143  43.864  29.146   0.905
51076W        W24144  44.272   4.462   5.202
51077W        W24145   2.875   6.690   0.472
51078W        W24146   7.356  29.187   4.296
51079W        W24147  39.618  33.631  13.030
51080W        W24148  13.790  21.655  10.924
51081W        W24149  23.442  33.916  11.258
51082W        W24150  27.965  36.535  11.571
51083W        W24151  30.969  14.659  10.819
51084W        W24152  39.489  16.310  12.158
51085W        W24153  21.219  24.298  12.593
51086W        W24154  38.839  11.110   1.386
51087W        W24155  40.961  35.858   3.501
51088W        W24156  36.041  13.818   1.027
51089W        W24157  34.850   9.636  11.033
51090W        W24158   4.654   0.973  10.797
51091W        W24159  17.079  36.544   2.902
51092W        W24160  27.617  40.852  14.240
51093W        W24161  41.935  17.110   1.742
51094W        W24162  33.105  12.786  14.202
51095W        W24163   8.334  17.319  14.317
51096W        W24164  21.292  21.587   3.104
51097W        W24165  18.572  32.368  13.343
51098W        W24166  28.173   2.409   1.125
51099W        W24167  34.059  20.247  12.369
51100W        W24168  17.022  40.894  14.915
51101W        W24169  28.935  44.131  13.487
51102W        W24170  33.949  28.179   1.321
51103W        W24171   8.731   1.995  11.666
51104W        W24172   1.719  18.247   3.648
51105W        W24173  27.700   0.457   1.766
51106W        W24174   5.355   1.787   3.162
51107W        W24175  29.100   5.694  12.981
51108W        W24176  19.277  13.739  12.015
51109W        W24177  37.484  13.083   2.328
51110W        W24178  31.492   7.171  11.103
51111W        W24179   4.517   1.701  13.044
51112W        W24180   4.787  15.135   1.292
51113W        W24181  32.642   7.858   0.215
51114W        W24182   5.353  41.067  14.819
51115W        W24183  33.725   0.199  10.907
51116W        W24184  36.886  15.106  13.587
51117W        W24185  39.770  27.498  11.211
51118W        W24186  38.029   2.393   1.460
51119W        W24187  34.848  37.770   0.601
51120W        W24188   6.229  27.562   4.106
51121W        W24189  30.508   3.450   1.852
51122W        W24190  14.443   5.398   1.903
51123W        W24191  33.126   3.813  13.651
51124W        W24192  30.092  11.572   2.901
51125W        W24193  10.202  12.848   3.295
51126W        W24194  43.066  13.284  13.412
51127W        W24195  39.261  44.496  12.944
51128W        W24196  15.636  21.863   4.539
51129W        W24197  44.466  16.032   4.759
51130W        W24198  35.382  11.465   0.315
51131W        W24199  23.655  18.805   2.391
51132W        W24200  33.027   8.295   3.272
51133W        W24201   2.536  40.900   0.547
51134W        W24202  28.053  19.300  12.981
51135W        W24203  11.855  12.733   4.238
51136W        W24204  35.020  29.494  14.535
51137W        W24205  33.085  31.631  13.963
51138W        W24206  34.170  29.040  10.622
51139W        W24207  22.717  29.689  12.433
51140W        W24208  34.433  32.356   3.263
51141W        W24209   1.774  43.802   3.895
51142W        W24210  33.876  31.174  11.856
51143W        W24211  23.445  31.303  14.858
51144W        W24212  31.375   8.907   3.222
51145W        W24213   4.418  42.016  12.620
51146W        W24214  16.751  24.183   3.630
51147W        W24215  23.661  10.983  11.209
51148W        W24216  32.328   7.856  12.455
51149W        W24217  40.492   9.471   1.253
51150W        W24218  24.095   6.642   5.005
51151W        W24219   9.817  18.679  14.889
51152W        W24220  40.744  24.418   1.819
51153W        W24221   9.093   1.487   3.279
51154W        W24222   2.993  37.479   2.772
51155W        W24223  28.691  28.045  11.025
51156W        W24224  41.827   2.666  11.480
51157W        W24225  24.605  19.026  11.463
51158W        W24226  40.296  42.343  12.461
51159W        W24227  39.000  20.576  12.140
51160W        W24228   0.543   9.326   0.961
51161W        W24229  29.582  32.024  12.520
51162W        W24230  23.752  24.533   3.778
51163W        W24231  41.455  40.863  12.424
51164W        W24232  32.069  11.283  11.632
51165W        W24233   6.651  22.093  12.474
51166W        W24234  29.745  32.323   1.218
51167W        W24235  34.409   0.848   2.662
51168W        W24236  11.270  39.892  12.109
51169W        W24237  26.281  27.483  11.574
51170W        W24238  34.883  27.050   3.140
51171W        W24239   2.790  28.621  12.305
51172W        W24240  12.344  26.440  11.938
51173W        W24241  19.013  31.385   2.711
51174W        W24242   3.335   2.320   4.412
51175W        W24243  19.689  40.415  11.151
51176W        W24244  43.536  19.529   0.263
51177W        W24245   0.711  10.368  14.515
51178W        W24246   9.736  16.530  11.550
51179W        W24247  40.273  36.606  12.511
51180W        W24248   8.825  36.666  13.507
51181W        W24249  12.592  15.147  13.238
51182W        W24250   4.533  37.093   0.835
51183W        W24251  34.530  25.320   1.225
51184W        W24252  33.351  34.630  12.553
51185W        W24253   6.248  12.583   3.187
51186W        W24254  14.097  23.734   3.079
51187W        W24255  24.353  35.598  14.243
51188W        W24256  41.845  41.624  14.779
51189W        W24257  13.203  27.896  12.894
51190W        W24258  40.012  15.829  11.898
51191W        W24259  31.814   3.414  13.420
51192W        W24260  21.649  39.861  14.140
51193W        W24261  41.416  25.963   4.101
51194W        W24262  17.720  20.439   3.673
51195W        W24263  35.969   3.468  12.801
51196W        W24264  31.481  35.924   0.077
51197W        W24265  11.079   7.909  13.026
51198W        W24266   7.537  25.025  11.987
51199W        W24267  32.397  43.299  10.959
51200W        W24268   9.979  33.539   2.676
51201W        W24269   7.282  23.911   4.382
51202W        W24270  43.609   7.060   5.100
51203W        W24271  37.325  27.428   0.731
51204W        W24272  30.544  34.198   1.796
51205W        W24273   5.325   2.850   1.849
51206W        W24274  43.748  41.126   2.304
51207W        W24275  43.423  16.875   1.724
51208W        W24276   9.755  28.323   1.429
51209W        W24277  44.557  27.068  12.349
51210W        W24278  37.975  37.610  13.233
51211W        W24279  14.574  29.882  13.343
51212W        W24280  28.659  21.455  12.491
51213W        W24281  18.242   2.175  14.839
51214W        W24282  32.410  31.977  14.013
51215W        W24283  17.296  44.499   4.030
51216W        W24284  38.100  37.917  11.205
51217W        W24285  44.410   6.269  12.971
51218W        W24286  25.666  26.807   4.726
51219W        W24287  14.137  16.649   3.168
51220W        W24288   6.397  28.002   2.133
51221W        W24289  16.619  31.322  13.995
51222W        W24290  35.701  24.507   3.563
51223W        W24291  19.982  21.378   4.152
51224W        W24292  21.740   9.630   2.245
51225W        W24293  42.498   1.440  11.977
51226W        W24294  32.903  23.678  12.586
51227W        W24295  30.547  29.210   4.150
51228W        W24296  40.361  13.209   3.817
51229W        W24297  22.288  38.758  14.482
51230W        W24298  42.913  10.245  11.450
51231W        W24299  35.585  34.103   3.707
51232W        W24300  12.315   1.044  11.124
51233W        W24301  20.257  12.111  11.214
51234W        W24302  22.169  20.661  13.554
51235W        W24303  42.120  41.056  12.982
51236W        W24304   3.375  39.884  14.778
51237W        W24305  31.192  34.048   2.329
51238W        W24306  17.609  24.225  13.809
51239W        W24307  40.575   5.852   1.468
51240W        W24308  36.518  18.598  11.465
51241W        W24309  20.631  43.780  13.710
51242W        W24310  26.136  38.041  13.128
51243W        W24311  43.780  43.811   2.783
51244W        W24312   3.374  26.460   3.659
51245W        W24313  22.771  25.444   9.889
51246W        W24314  11.157  31.932   5.043
51247W        W24315  20.557  30.425   2.318
51248W        W24316  39.586  23.281   0.457
51249W        W24317  42.581  11.154   4.769
51250W        W24318  12.539   8.878   3.373
51251W        W24319  28.307  36.488  13.312
51252W        W24320  28.731   1.264  12.680
51253W        W24321  30.489   9.553   3.765
51254W        W24322   8.624   9.954  11.148
51255W        W24323  44.246   5.376   2.768
51256W        W24324  43.866  11.666  11.557
51257W        W24325   2.815  42.338   1.530
51258W        W24326  23.488  24.756   3.397
51259W        W24327  35.658  38.476  12.509
51260W        W24328  19.715  19.157   1.627
51261W        W24329  15.719  33.798   2.735
51262W        W24330  17.208  31.385  12.493
51263W        W24331   3.345  34.429  10.690
51264W        W24332  42.801  16.095  12.014
51265W        W24333  38.817  11.427   3.577
51266W        W24334  43.443   3.809  13.336
51267W        W24335  12.344  34.512  13.078
51268W        W24336  25.495  13.111  11.636
51269W        W24337   3.287   5.375   4.299
51270W        W24338   3.997   4.826  10.094
51271W        W24339  30.505  37.361  13.950
51272W        W24340   3.243  23.928   2.667
51273W        W24341  39.227  18.237   9.914
51274W        W24342  22.078  14.820  13.031
51275W        W24343   1.327  17.892  13.897
51276W        W24344  11.125  44.266  12.876
51277W        W24345  22.410  11.712  11.568
51278W        W24346  33.539  35.997   3.872
51279W        W24347  34.150   5.429   2.272
51280W        W24348  19.289  38.810   4.775
51281W        W24349  37.967  11.567  12.909
51282W        W24350  27.561   5.667  10.704
51283W        W24351  25.419  39.937   2.706
51284W        W24352  38.376   0.894   4.216
51285W        W24353  42.084  34.349  14.775
51286W        W24354  30.685  44.560  14.505
51287W        W24355  17.335  10.772  11.067
51288W        W24356  24.673  37.439   4.190
51289W        W24357  29.672  34.640   1.629
51290W        W24358  41.414  10.287   1.721
51291W        W24359   1.720   9.413  11.037
51292W        W24360  21.577  19.280   2.209
51293W        W24361  26.631  39.590  13.907
51294W        W24362  26.543  30.606   0.268
51295W        W24363  20.054  15.858  12.826
51296W        W24364   6.298  15.310   0.842
51297W        W24365  43.279  19.601  13.401
51298W        W24366  21.938   2.148  12.295
51299W        W24367   0.089  22.141  12.447
51300W        W24368   1.914  21.996   1.435
51301W        W24369  28.073  24.724   4.896
51302W        W24370  28.470  33.499   0.698
51303W        W24371   7.461  11.930  12.115
51304W        W24372   6.141  36.545   2.154
51305W        W24373  34.665  13.911   4.158
51306W        W24374  16.356  13.347  13.982
51307W        W24375  16.361  43.254  14.389
51308W        W24376   7.875  28.057   4.616
51309W        W24377   7.782  11.659  14.381
51310W        W24378  22.642  33.046  13.950
51311W        W24379  14.096  19.850   0.921
51312W        W24380  21.355  23.607   4.650
51313W        W24381  31.916  20.694  14.981
51314W        W24382   1.590   0.837  12.779
51315W        W24383  15.003   0.279   3.878
51316W        W24384  27.089  14.398  12.482
51317W        W24385  44.264  17.797   2.149
51318W        W24386  30.615  14.130   1.229
51319W        W24387  35.620  21.371   4.054
51320W        W24388   2.429  20.617  11.210
51321W        W24389  44.428   2.633  13.365
51322W        W24390  36.888  38.010   4.069
51323W        W24391  34.766  41.940   4.882
51324W        W24392  15.270  17.105  10.400
51325W        W24393  42.171  43.061  10.692
51326W        W24394   5.676  22.693  11.608
51327W        W24395  29.434  35.470   1.367
51328W        W24396  22.125   7.217   3.247
51329W        W24397  25.987  18.116   2.293
51330W        W24398  43.637   2.255   0.476
51331W        W24399   0.173  38.864   2.699
51332W        W24400  27.820   9.943  14.364
51333W        W24401  30.058  44.918  13.639
51334W        W24402  33.373  21.014   1.807
51335W        W24403  15.158  21.704  11.649
51336W        W24404   0.001  38.538  14.975
51337W        W24405  27.265   8.214  10.753
51338W        W24406  14.690  26.732   2.460
51339W        W24407  43.262   4.933   2.348
51340W        W24408  35.097   2.910  14.905
51341W        W24409  27.686  32.061   2.799
51342W        W24410  20.527  28.243   0.334
51343W        W24411   1.555   8.343   2.852
51344W        W24412  25.980  31.192   2.193
51345W        W24413  24.035   0.119   4.202
51346W        W24414  20.642  27.154   4.169
51347W        W24415  39.873  17.064  14.937
51348W        W24416  44.407   5.752   0.262
51349W        W24417  20.761   0.066   4.115
51350W        W24418  28.988  18.264  11.546
51351W        W24419   8.209  30.964   3.660
51352W        W24420  30.218   1.290   1.820
51353W        W24421  34.198  28.649   3.689
51354W        W24422  22.712  28.634   0.261
51355W        W24423  19.099  32.533  13.290
51356W        W24424   7.415   1.416  14.977
51357W        W24425  22.544  19.928  11.488
51358W        W24426  30.284  15.739   4.423
51359W        W24427   8.313  36.386   0.743
51360W        W24428  35.079  32.958   4.960
51361W        W24429  15.550  24.087  12.603
51362W        W24430  29.082  29.332  14.220
51363W        W24431  25.885  40.850   2.759
51364W        W24432  31.788  20.525  13.351
51365W        W24433  21.163  42.361  14.679
51366W        W24434  20.674  44.405   3.663
51367W        W24435  38.240  16.033  13.752
51368W        W24436  38.938  25.038  10.352
51369W        W24437  33.635  19.624  13.820
51370W        W24438  29.542  27.906   3.290
51371W        W24439  31.069  13.892   4.299
51372W        W24440  16.075  11.381   0.866
51373W        W24441  38.380  17.443   0.684
51374W        W24442  11.567  15.050   0.425
51375W        W24443  16.334   1.506  14.748
51376W        W24444   5.442  13.501   0.373
51377W        W24445  39.761  16.961   3.711
51378W        W24446  27.648   2.322  14.889
51379W        W24447  28.135  16.187  11.844
51380W        W24448  31.375  42.844   4.936
51381W        W24449  37.234   1.330   4.616
51382W        W24450  10.973  11.073   4.191
51383W        W24451  28.728   4.382   3.769
51384W        W24452  16.138  31.970   1.280
51385W        W24453  25.389  11.576  11.433
51386W        W24454  37.575  13.854   0.998
51387W        W24455  23.014  41.954  12.494
51388W        W24456   2.062   5.230  12.245
51389W        W24457  29.328   5.449  13.425
51390W        W24458   9.922  20.662   1.800
51391W        W24459   8.681  31.554  10.884
51392W        W24460   7.312  32.558  10.741
51393W        W24461  22.671  34.969  13.443
51394W        W24462  26.923  18.188  13.778
51395W        W24463  42.305   1.051  10.863
51396W        W24464  12.446  44.345  13.122
51397W        W24465   3.342  44.509  12.380
51398W        W24466  27.121  39.132  11.184
51399W        W24467  20.079  13.605   1.988
51400W        W24468  33.145   5.272   3.191
51401W        W24469  12.161   2.035  13.263
51402W        W24470  25.026   1.181  14.965
51403W        W24471  23.625   9.677   1.275
51404W        W24472  41.602  40.171   1.433
51405W        W24473  18.784   1.299   2.584
51406W        W24474  15.765  34.312   2.691
51407W        W24475  36.829  10.321   4.350
51408W        W24476  24.706  44.707  14.332
51409W        W24477  12.191  25.214   2.783
51410W        W24478  38.357  39.726  14.982
51411W        W24479  17.091  10.399   4.553
51412W        W24480  12.333  36.479   1.310
51413W        W24481  15.408  19.808   0.926
51414W        W24482  36.407  12.173   2.873
51415W        W24483   5.647  17.745  12.658
51416W        W24484   3.202  43.755   1.224
51417W        W24485  11.829  19.314  14.020
51418W        W24486  30.061  22.465  11.193
51419W        W24487  28.215   2.944   2.866
51420W        W24488  42.036  38.878  13.486
51421W        W24489  30.649  40.938  13.540
51422W        W24490  42.245  37.536  13.265
51423W        W24491  37.771   5.766   3.328
51424W        W24492   3.315   9.410  12.622
51425W        W24493   2.532  32.472   3.901
51426W        W24494  36.060  39.508  10.917
51427W        W24495   3.929  33.984  12.954
51428W        W24496  11.849  42.228  12.552
51429W        W24497  43.649  11.128   3.254
51430W        W24498  22.259   6.216  14.330
51431W        W24499  30.810  38.500   4.781
51432W        W24500  43.250  19.507   3.690
51433W        W24501  24.597  15.243   0.811
51434W        W24502  28.023   7.782  14.992
51435W        W24503  33.288  24.157   3.743
51436W        W24504  11.277  15.755  10.922
51437W        W24505  22.073  37.159   1.411
51438W        W24506  32.104  37.764   2.676
51439W        W24507  33.678  35.476   2.734
51440W        W24508  14.483  11.328  12.889
51441W        W24509  30.661  24.419   5.082
51442W        W24510  37.717  11.402  10.019
51443W        W24511  37.051  11.690  14.815
51444W        W24512  33.805  36.455   4.971
51445W        W24513  35.388   7.135  14.733
51446W        W24514   2.989  34.447   2.770
51447W        W24515  16.647  28.506  13.596
51448W        W24516  19.561  13.686   4.888
51449W        W24517  21.316  22.064  12.676
51450W        W24518  43.742   3.523   0.709
51451W        W24519  29.560   0.680   4.274
51452W        W24520  40.799   3.387   2.666
51453W        W24521  23.760  29.972   3.169
51454W        W24522  38.868  21.512   1.199
51455W        W24523  24.565  18.122  12.554
51456W        W24524  25.133  11.954   1.182
51457W        W24525  39.855  14.880   1.832
51458W        W24526   7.317  38.584   0.770
51459W        W24527  40.060  44.011   1.828
51460W        W24528  22.656   7.740  13.935
51461W        W24529   6.811  20.490  12.027
51462W        W24530  21.802  37.075  14.027
51463W        W24531   6.175  34.857   3.772
51464W        W24532   4.988   8.647   4.548
51465W        W24533  25.063  41.344  14.424
51466W        W24534  31.627  41.592   2.606
51467W        W24535   7.366   0.262  14.309
51468W        W24536   6.019   4.256   1.024
51469W        W24537  37.793  38.980   1.723
51470W        W24538  42.916  23.468   0.480
51471W        W24539  29.715  12.106  12.437
51472W        W24540  26.497  38.600  13.849
51473W        W24541  33.054  12.711   1.146
51474W        W24542  42.400   5.688   4.219
51475W        W24543   8.810  31.821  11.337
51476W        W24544  26.231  13.361  11.117
51477W        W24545  32.264  41.932  12.076
51478W        W24546  40.879  17.906   4.323
51479W        W24547   8.747  19.025  11.121
51480W        W24548  18.676  33.097  14.366
51481W        W24549  27.044  34.354   3.875
51482W        W24550  16.060  29.185   0.032
51483W        W24551  36.753  27.719   1.965
51484W        W24552   1.673   5.347   3.608
51485W        W24553   8.426  13.032   2.375
51486W        W24554  39.546  42.032   1.254
51487W        W24555  38.271  39.201   1.810
51488W        W24556  23.653  14.198   3.744
51489W        W24557  13.209  30.942  12.979
51490W        W24558  18.543  20.540  14.392
51491W        W24559  43.573  28.042   0.498
51492W        W24560  15.102   0.120   4.627
51493W        W24561  44.364   6.172   2.334
51494W        W24562  20.209  27.941  10.248
51495W        W24563  10.694  22.961  12.031
51496W        W24564   3.675   0.723   3.207
51497W        W24565   5.393  18.840   4.746
51498W        W24566   2.387   8.955  12.624
51499W        W24567  24.717  42.409   1.964
51500W        W24568  36.977   4.918  12.144
51501W        W24569  11.091  29.934  13.524
51502W        W24570   2.795  22.927   4.623
51503W        W24571  26.416  18.717   1.173
51504W        W24572  41.982  12.582   3.148
51505W        W24573  27.534  16.157  13.879
51506W        W24574  35.572   5.494  14.503
51507W        W24575  39.342  37.070   2.756
51508W        W24576  41.771  18.571  12.868
51509W        W24577   7.361   7.173   4.518
51510W        W24578   4.422  39.806  12.521
51511W        W24579  30.144  39.787   1.461
51512W        W24580  37.555   3.817  14.803
51513W        W24581  30.010   7.692  14.551
51514W        W24582  15.686  37.334   3.191
51515W        W24583  14.265  19.143   4.848
51516W        W24584  44.518   7.928  11.515
51517W        W24585  11.877   5.828  12.313
51518W        W24586  13.642  29.986   1.386
51519W        W24587   4.713  12.361   0.954
51520W        W24588  28.280  16.687  11.885
51521W        W24589  36.519  16.922   1.141
51522W        W24590  32.527  22.055   2.805
51523W        W24591  39.441  36.453  12.773
51524W        W24592  21.182  30.876   0.876
51525W        W24593  16.372   8.656   2.227
51526W        W24594  26.707  25.042   0.002
51527W        W24595   6.645  44.627   3.182
51528W        W24596   3.448  21.765   0.071
51529W        W24597  19.479  42.983  11.624
51530W        W24598  31.942  44.508  11.023
51531W        W24599  32.649  40.853  14.897
51532W        W24600  22.037   7.972   3.920
51533W        W24601  27.140  12.611   1.935
51534W        W24602  32.078   4.514   3.709
51535W        W24603  18.618   5.865  14.432
51536W        W24604  11.830   5.767   0.887
51537W        W24605  10.730   1.159  14.323
51538W        W24606  37.651  13.198   4.818
51539W        W24607  42.974  12.641   1.208
51540W        W24608   7.424  36.553  11.489
51541W        W24609  26.270  40.523   4.337
51542W        W24610  40.925  40.742  11.692
51543W        W24611  35.588  40.223  12.018
51544W        W24612   2.433   9.165  14.409
51545W        W24613  35.074  37.401  10.131
51546W        W24614  44.995  29.398   3.119
51547W        W24615  26.057   0.913   4.553
51548W        W24616  11.221  40.929   4.034
51549W        W24617  40.474  17.733  12.985
51550W        W24618  17.692   5.927   4.670
51551W        W24619   0.329  15.206   0.471
51552W        W24620  31.367  18.572  14.452
51553W        W24621  40.190  29.171   2.417
51554W        W24622  40.855   5.687   1.029
51555W        W24623  17.475  40.901   1.148
51556W        W24624   0.668  31.632  11.159
51557W        W24625   6.221  28.430   1.144
51558W        W24626   0.211  23.556   3.255
51559W        W24627  38.928  26.996  14.681
51560W        W24628  39.522  13.739   3.303
51561W        W24629  43.471  11.916   2.938
51562W        W24630  25.960  43.428   2.408
51563W        W24631  10.894  19.660  13.369
51564W        W24632  29.113  38.547  13.803
51565W        W24633  25.564  27.979   4.627
51566W        W24634  26.544  27.141  13.314
51567W        W24635  12.396  38.500  14.706
51568W        W24636   7.322  41.393   5.137
51569W        W24637  38.747  42.364  12.479
51570W        W24638  25.206  19.843  10.441
51571W        W24639  13.263   9.254  11.245
51572W        W24640  18.770   6.684   4.141
51573W        W24641  16.311  18.391  13.436
51574W        W24642  40.887  25.686  12.185
51575W        W24643  35.363  10.891   0.622
51576W        W24644  39.964  15.745   3.211
51577W        W24645  37.526   9.798  12.895
51578W        W24646  43.301   8.939   4.328
51579W        W24647  42.834  22.295  11.163
51580W        W24648  39.070  36.877   4.579
51581W        W24649  12.838   3.455  13.396
51582W        W24650   8.465  30.039  13.383
51583W        W24651  33.440  25.011  12.879
51584W        W24652   9.855  20.144   2.109
51585W        W24653  29.501  32.946  12.168
51586W        W24654  13.339  36.078  11.367
51587W        W24655  40.706  15.559   5.018
51588W        W24656  44.519  25.217   4.684
51589W        W24657  30.598  26.213   0.124
51590W        W24658  31.656   3.706   3.797
51591W        W24659  41.224  28.416  14.759
51592W        W24660  42.755  43.209  13.324
51593W        W24661   4.253  34.123  14.874
51594W        W24662  11.305  16.827   2.682
51595W        W24663  38.048   9.122  13.541
51596W        W24664  41.308  44.478   2.235
51597W        W24665  18.796  41.881   4.590
51598W        W24666  25.780  29.127   0.854
51599W        W24667  10.704  43.723  12.507
51600W        W24668  12.543   2.876  11.317
51601W        W24669  43.357  17.285  10.526
51602W        W24670  28.476   9.231  13.605
51603W        W24671  35.830  38.779   0.860
51604W        W24672  25.307  32.172   1.518
51605W        W24673  35.866   2.979  12.944
51606W        W24674   5.934  15.163  13.561
51607W        W24675  32.646  24.530   1.362
51608W        W24676  21.615  14.073   2.360
51609W        W24677  12.280   3.186  12.485
51610W        W24678  11.694  13.851   3.220
51611W        W24679  26.687   5.428   4.562
51612W        W24680  36.580  22.590   0.905
51613W        W24681  13.156  43.787  12.301
51614W        W24682  26.091  23.327   3.235
51615W        W24683  36.068  36.616  11.828
51616W        W24684  12.719  32.426   1.858
51617W        W24685  16.069  10.008  11.070
51618W        W24686   4.277  25.228   3.243
51619W        W24687  40.860  13.832   1.743
51620W        W24688   1.733  12.714   2.826
51621W        W24689  35.182  18.526   3.718
51622W        W24690  36.661  20.224  14.584
51623W        W24691  43.766  12.339   2.811
51624W        W24692  27.474  18.037   3.168
51625W        W24693  31.023  41.021  13.991
51626W        W24694  12.065  19.050   0.885
51627W        W24695   4.841  25.523   4.216
51628W        W24696  36.518  29.875   1.300
51629W        W24697  22.527   0.852  11.483
51630W        W24698  16.175   3.411   1.355
51631W        W24699  23.216  41.900   0.309
51632W        W24700  16.903  40.895   3.766
51633W        W24701  25.328   6.702  11.371
51634W        W24702  34.456  34.898   4.747
51635W        W24703  16.162  12.908   0.912
51636W        W24704   5.992  39.413  11.470
51637W        W24705  42.833  43.150  14.753
51638W        W24706  29.653   5.424   4.729
51639W        W24707  36.811   2.948  12.991
51640W        W24708  38.994  34.828  13.014
51641W        W24709   1.486  29.774   4.086
51642W        W24710   8.613  44.333  12.569
51643W        W24711  42.255  24.409   2.915
51644W        W24712  19.319  14.162   3.816
51645W        W24713   0.144  43.010  11.868
51646W        W24714  12.174  36.952  13.480
51647W        W24715  20.935  41.944   0.433
51648W        W24716   5.448   9.926  11.427
51649W        W24717  15.960  12.915  11.082
51650W        W24718  15.919  40.852   4.598
51651W        W24719  16.765  26.075  10.778
51652W        W24720   3.316   5.134  10.700
51653W        W24721  39.567   6.344  10.751
51654W        W24722  19.040   7.264  11.565
51655W        W24723  31.824  26.519   4.066
51656W        W24724  44.203  37.996   4.538
51657W        W24725   1.005  13.329  11.436
51658W        W24726  32.903  12.327  11.515
51659W        W24727  39.093   7.559   1.747
51660W        W24728  19.525  31.038  12.483
51661W        W24729  32.700  41.292   3.554
51662W        W24730  29.064  32.632  12.899
51663W        W24731  42.078  12.592   0.455
51664W        W24732  29.372  12.745  14.560
51665W        W24733   8.177   2.369  11.243
51666W        W24734  40.800  13.150   0.440
51667W        W24735  17.314   7.220  14.382
51668W        W24736   4.530  34.009  14.409
51669W        W24737  12.582  11.789   2.340
51670W        W24738  32.395  17.383  10.792
51671W        W24739  39.947  40.456  11.626
51672W        W24740   7.265  31.817  13.804
51673W        W24741  41.140  41.098   2.384
51674W        W24742  32.631  28.516  12.647
51675W        W24743   8.839  40.839  12.920
51676W        W24744  26.162  41.318   4.008
51677W        W24745  19.213  16.625   4.905
51678W        W24746  12.265  35.016  12.300
51679W        W24747   9.093   1.520  13.519
51680W        W24748  20.246  33.447   4.094
51681W        W24749   6.180  43.587   4.332
51682W        W24750  39.336  15.237  11.105
51683W        W24751   8.739  16.071  13.546
51684W        W24752  25.116   4.970   4.070
51685W        W24753  15.240   3.791  12.136
51686W        W24754  20.473  24.511  13.447
51687W        W24755   9.397  36.452  14.861
51688W        W24756  19.839  23.258   1.864
51689W        W24757  25.654  31.835  13.855
51690W        W24758  22.458  13.038   3.240
51691W        W24759  26.462  36.425   0.764
51692W        W24760  13.544  11.572   2.158
51693W        W24761  42.080  17.811  11.085
51694W        W24762  25.252  37.923   0.768
51695W        W24763   8.748  35.275  14.815
51696W        W24764  10.161  18.049  14.509
51697W        W24765  20.999   5.428   1.212
51698W        W24766  26.176  24.189  11.822
51699W        W24767  28.475  22.166   2.677
51700W        W24768   4.615   7.001  11.606
51701W        W24769  43.847  34.085   0.304
51702W        W24770  10.817   2.913   3.168
51703W        W24771  40.711  25.896  14.410
51704W        W24772  17.627   3.435  10.629
51705W        W24773  12.821  28.604  12.554
51706W        W24774   3.162  37.499   4.600
51707W        W24775  24.000  37.334   2.918
51708W        W24776  21.306  13.388  13.823
51709W        W24777  27.444  35.757   3.823
51710W        W24778   8.241   6.677   0.055
51711W        W24779  44.982  16.068   2.151
51712W        W24780  12.753  14.379   1.815
51713W        W24781  10.028  13.874   2.362
51714W        W24782  18.497  22.214  13.806
51715W        W24783  24.536  23.240  12.887
51716W        W24784   4.823  21.511   4.891
51717W        W24785  33.626  27.390  14.418
51718W        W24786  31.327   1.412  10.885
51719W        W24787  42.808   9.303   2.663
51720W        W24788  35.917  14.520   2.303
51721W        W24789  28.043  10.025   1.040
51722W        W24790  19.643  24.132  12.380
51723W        W24791  25.871  26.682  13.368
51724W        W24792  28.160   7.799   2.050
51725W        W24793  41.545  36.271  14.488
51726W        W24794  28.481   8.907   1.912
51727W        W24795   3.342  28.937   3.705
51728W        W24796  24.688  13.867   1.953
51729W        W24797  12.091  31.566   3.351
51730W        W24798  27.063  19.569  13.799
51731W        W24799  17.476  11.578  13.914
51732W        W24800   9.863  16.979   4.991
51733W        W24801  22.321  23.136  14.469
51734W        W24802  16.244  15.011   0.569
51735W        W24803  41.259  23.904  13.828
51736W        W24804  20.602  37.486   3.603
51737W        W24805  14.547  17.125  12.458
51738W        W24806  29.735  17.072  11.924
51739W        W24807   3.371  44.457   2.054
51740W        W24808  11.107  22.230   3.151
51741W        W24809  24.145  22.985   1.815
51742W        W24810  42.572  20.632  11.527
51743W        W24811   3.729  12.702   2.247
51744W        W24812  44.884   6.081  14.873
51745W        W24813  35.091  41.568  14.676
51746W        W24814  29.657  25.452  13.063
51747W        W24815   4.931  18.239  11.739
51748W        W24816  24.902  25.274   0.380
51749W        W24817  22.516  42.389   4.425
51750W        W24818   4.307  30.667   4.336
51751W        W24819   6.784  15.694   9.961
51752W        W24820  37.603  27.469  11.696
51753W        W24821  30.417  43.519  10.506
51754W        W24822  43.023   4.953   1.687
51755W        W24823  20.177   0.765  14.460
51756W        W24824  44.357  29.495  14.760
51757W        W24825  22.325  10.286   4.138
51758W        W24826  20.152  18.668  12.110
51759W        W24827  21.238  23.903   1.222
51760W        W24828  26.005  12.603  12.563
51761W        W24829  34.440  15.360  13.065
51762W        W24830  32.112   6.121  11.293
51763W        W24831  28.098  31.398   1.403
51764W        W24832  21.906  11.339   0.970
51765W        W24833  37.348  13.403  10.954
51766W        W24834  36.348  10.876   1.438
51767W        W24835  15.015  28.439   1.345
51768W        W24836  31.207   5.384  12.498
51769W        W24837   8.631   7.121   3.725
51770W        W24838  20.728  18.062  11.963
51771W        W24839  37.613  38.468  11.966
51772W        W24840  31.984  14.514   0.370
51773W        W24841   1.017  26.097   1.778
51774W        W24842  36.114  35.553  14.296
51775W        W24843  22.589   5.099  13.386
51776W        W24844  18.179  28.639  11.902
51777W        W24845  32.928  33.446   2.416
51778W        W24846  41.274  30.663   4.120
51779W        W24847   3.204  39.967   1.750
51780W        W24848  19.070   8.126   0.587
51781W        W24849  19.156   1.919  11.545
51782W        W24850  20.824  21.157  12.946
51783W        W24851  40.920  12.623   1.622
51784W        W24852  41.954  13.770   5.647
51785W        W24853  17.458   7.810   4.135
51786W        W24854  28.631   3.005   0.782
51787W        W24855  40.348  22.929   1.241
51788W        W24856  23.571  24.250   4.176
51789W        W24857   1.618  22.786   0.979
51790W        W24858  43.716   7.293   0.722
51791W        W24859  24.677  35.022   2.712
51792W        W24860  19.171  43.870   2.900
51793W        W24861  29.657  33.811  13.971
51794W        W24862   3.670  11.703   3.745
51795W        W24863  38.410  11.809  11.442
51796W        W24864   1.759  41.798  12.862
51797W        W24865  21.359  10.072   5.347
51798W        W24866  16.112   9.329  11.498
51799W        W24867   1.456   6.669   0.841
51800W        W24868  15.048   8.771   3.125
51801W        W24869  44.525  36.217   1.373
51802W        W24870  19.235   0.892  13.404
51803W        W24871  36.490  41.342  14.418
51804W        W24872  29.053  36.587  10.638
51805W        W24873  24.668  29.159  10.739
51806W        W24874  15.947   6.550  13.779
51807W        W24875  36.389  26.470  11.382
51808W        W24876  38.785  29.493  13.777
51809W        W24877  35.621   1.266   1.762
51810W        W24878  31.393  19.522  14.298
51811W        W24879  44.407  43.620   2.856
51812W        W24880  19.368  36.423  11.974
51813W        W24881  16.857   1.392   0.466
51814W        W24882  33.616   9.392  11.440
51815W        W24883   6.659  39.975   0.949
51816W        W24884  30.056  30.073   3.171
51817W        W24885   3.716  39.750  13.481
51818W        W24886  19.096  26.262  13.801
51819W        W24887  22.996  35.374  11.387
51820W        W24888   9.224  39.916  10.634
51821W        W24889  30.128  20.478   1.453
51822W        W24890  17.655   0.100   3.651
51823W        W24891  40.991  14.210  13.420
51824W        W24892  35.341  20.842   3.872
51825W        W24893  29.907  41.917   2.920
51826W        W24894  38.296  35.066  11.526
51827W        W24895  24.705   5.730   0.537
51828W        W24896  20.543   2.069  13.888
51829W        W24897  17.258  38.010  13.841
51830W        W24898   3.252  20.870  14.887
51831W        W24899  29.949  37.649   1.864
51832W        W24900  25.691   0.334  11.154
51833W        W24901  40.268  13.698   2.839
51834W        W24902  40.882  26.479  10.200
51835W        W24903  32.335  23.688   2.229
51836W        W24904  31.725   1.949   1.232
51837W        W24905  32.540  19.306  12.046
51838W        W24906  42.987   5.832   4.766
51839W        W24907  29.505  29.196   1.016
51840W        W24908  37.853  17.976  13.721
51841W        W24909  44.628  34.899   3.614
51842W        W24910  44.329  33.145  14.393
51843W        W24911  10.375   7.689   2.707
51844W        W24912  26.426  22.330   1.295
51845W        W24913  43.916   5.750  12.002
51846W        W24914  29.877  30.154  12.339
51847W        W24915  24.029  36.977  13.952
51848W        W24916  19.574  20.156   2.309
51849W        W24917  13.374  13.648   0.990
51850W        W24918  30.596  26.527   1.717
51851W        W24919   7.212  14.813  13.135
51852W        W24920  30.434  35.472   3.880
51853W        W24921  10.103  35.910   3.838
51854W        W24922  28.936  11.873   5.215
51855W        W24923  15.061  38.583  11.512
51856W        W24924  19.601   5.369  11.525
51857W        W24925  19.965  13.690   4.567
51858W        W24926   8.817  29.813  11.626
51859W        W24927  17.056   9.360  11.713
51860W        W24928  41.306  29.643  11.779
51861W        W24929  27.449  14.225  13.420
51862W        W24930  21.774   2.933   5.140
51863W        W24931   8.264  19.508  11.636
51864W        W24932  29.693   6.305   2.830
51865W        W24933  32.601  38.172  11.808
51866W        W24934  10.028  37.367  13.331
51867W        W24935  34.570  24.953   2.375
51868W        W24936  27.152  25.720   1.235
51869W        W24937  20.718   8.593   3.791
51870W        W24938  37.783   9.701   1.554
51871W        W24939  35.146  41.366   2.235
51872W        W24940  16.864  33.662  12.568
51873W        W24941  17.193  35.817  14.885
51874W        W24942  44.732  14.792  12.555
51875W        W24943  17.372  30.962  10.721
51876W        W24944  26.970  16.097  13.074
51877W        W24945   9.345  18.571   2.814
51878W        W24946  28.701  42.338  13.653
51879W        W24947  37.826  44.424  14.869
51880W        W24948  18.232  19.536   1.313
51881W        W24949  14.700  26.241  11.496
51882W        W24950  26.137  10.922  11.167
51883W        W24951  17.811  26.179   3.112
51884W        W24952   4.167  35.115   1.371
51885W        W24953   5.874   5.703   2.731
51886W        W24954  37.407   6.113  12.423
51887W        W24955  25.224  14.079   2.376
51888W        W24956  36.118   7.328   2.256
51889W        W24957  37.115  36.890  13.839
51890W        W24958  36.718  12.796  11.138
51891W        W24959  10.319   9.130  12.565
51892W        W24960   6.838  18.483   0.858
51893W        W24961   4.212  18.575   2.292
51894W        W24962   4.770  42.278  14.885
51895W        W24963  23.005  35.496   1.893
51896W        W24964  41.537   1.753  12.532
51897W        W24965  41.249  29.103  14.370
51898W        W24966  40.793   5.752  13.244
51899W        W24967  19.238   9.459  12.399
51900W        W24968   5.474  44.154  13.315
51901W        W24969   9.738   5.426   0.844
51902W        W24970  20.958  44.054  13.383
51903W        W24971  29.642   8.648   0.426
51904W        W24972   8.581  18.026   3.198
51905W        W24973  28.008  20.206   1.792
51906W        W24974  26.315  22.645   3.658
51907W        W24975  33.933   1.860   1.233
51908W        W24976   4.366  25.346  11.676
51909W        W24977  29.916  25.137   2.081
51910W        W24978  40.786  11.358  12.005
51911W        W24979  39.787   8.825   2.278
51912W        W24980  28.727  12.259   4.918
51913W        W24981  19.052  36.915   4.232
51914W        W24982  33.162  23.815  13.502
51915W        W24983  28.490  17.338  11.210
51916W        W24984  40.995  30.872   1.447
51917W        W24985  24.178  30.641  14.773
51918W        W24986  44.169  12.331  11.587
51919W        W24987  13.202  13.468  13.254
51920W        W24988  20.671  32.532   0.955
51921W        W24989   1.739   3.830   3.806
51922W        W24990   9.908  11.075  11.590
51923W        W24991  27.202  43.593  11.582
51924W        W24992  34.043   4.822  10.747
51925W        W24993   5.319  16.274  13.781
51926W        W24994  19.182  21.100  14.904
51927W        W24995   3.721  16.757  11.488
51928W        W24996  38.583  33.021  11.731
51929W        W24997  23.486  20.596   2.882
51930W        W24998  11.691  43.929   3.070
51931W        W24999   1.024  42.952   2.761
51932W        W25000  28.167   0.477  12.036
51933W        W25001  21.577  42.283  10.858
51934W        W25002  30.051  30.829  10.683
51935W        W25003   8.143  29.416   3.908
51936W        W25004  39.398   5.354   4.756
51937W        W25005  16.138  10.768  13.020
51938W        W25006  23.989  21.889  11.622
51939W        W25007  11.848  35.950  10.682
51940W        W25008   3.486  13.394  11.182
51941W        W25009  31.148  12.011  13.449
51942W        W25010  21.722  17.545  13.894
51943W        W25011   6.789  15.596   1.189
51944W        W25012  27.540  43.990  14.779
51945W        W25013   4.346  37.411   3.798
51946W        W25014  23.189  38.336   2.067
51947W        W25015  21.173  22.574  12.323
51948W        W25016   1.464   6.863   2.729
51949W        W25017  42.691  22.659   1.909
51950W        W25018   5.602  18.581   1.310
51951W        W25019   5.309   8.177  12.293
51952W        W25020  24.625  32.537  13.348
51953W        W25021  29.985  21.552  14.452
51954W        W25022  31.671  22.562  10.890
51955W        W25023  32.905   8.821   3.211
51956W        W25024  40.271  26.960   0.928
51957W        W25025   8.423   4.672   1.317
51958W        W25026  18.100  26.712   1.307
51959W        W25027   8.220   2.989   3.768
51960W        W25028  18.977  41.365   4.550
51961W        W25029  26.654  37.616  14.805
51962W        W25030   1.451   1.238   2.411
51963W        W25031  20.588  19.871   0.867
51964W        W25032  42.900   8.939  11.825
51965W        W25033  12.186  16.378  13.286
51966W        W25034  24.830  18.213   0.557
51967W        W25035  14.352  16.672  11.709
51968W        W25036  12.178  13.369   1.282
51969W        W25037  21.741  21.454   2.357
51970W        W25038   2.196   2.273  13.988
51971W        W25039  32.822  17.849   3.298
51972W        W25040   1.436  17.921   2.907
51973W        W25041  38.361  20.505   1.718
51974W        W25042  18.149  16.723   0.891
51975W        W25043  44.311   6.775  14.908
51976W        W25044  43.893  27.682   1.412
51977W        W25045  34.126  26.591  14.040
51978W        W25046  39.718   6.205   0.381
51979W        W25047   9.844  10.889  12.542
51980W        W25048  23.653   8.931   2.569
51981W        W25049  19.039   6.749   3.688
51982W        W25050  34.345   4.871   3.723
51983W        W25051  26.001   5.707  10.711
51984W        W25052   9.389  14.701   2.166
51985W        W25053   7.959   2.980  13.451
51986W        W25054  38.417  22.635   4.787
51987W        W25055  17.063  18.754  10.525
51988W        W25056  17.102  36.060  13.372
51989W        W25057   8.701  24.232  11.518
51990W        W25058   5.403  42.767  12.143
51991W        W25059  44.878  35.694  14.121
51992W        W25060   9.287  33.627  10.711
51993W        W25061   5.808  43.867  12.467
51994W        W25062  17.887  16.633  12.609
51995W        W25063  17.827   0.486  14.335
51996W        W25064  38.571  43.332  11.328
51997W        W25065  18.722  15.152   4.599
51998W        W25066  20.699   5.770  10.405
51999W        W25067  18.159  16.499   3.998
52000W        W25068  26.606  18.793   0.251
52001W        W25069   1.317  19.519  13.969
52002W        W25070  22.540   9.762   3.093
52003W        W25071  31.466  44.249   3.824
52004W        W25072  40.284  19.621   2.135
52005W        W25073  25.161   5.468   4.186
52006W        W25074  33.642   7.402  13.891
52007W        W25075  36.590  36.653   3.163
52008W        W25076  38.305  25.029  11.000
52009W        W25077  23.171  37.525   2.502
52010W        W25078  29.364   1.417  12.856
52011W        W25079  32.641  20.249   2.046
52012W        W25080  25.816   4.912  14.943
52013W        W25081  42.276  43.896   0.731
52014W        W25082   8.167  26.126  11.542
52015W        W25083  36.463  28.385  10.947
52016W        W25084  20.859  19.741  13.866
52017W        W25085  24.060   3.643  12.443
52018W        W25086  41.906  41.388  10.737
52019W        W25087  20.337  41.868  13.290
52020W        W25088  38.958  24.644   4.799
52021W        W25089  43.952  11.335   3.652
52022W        W25090   6.948   8.470  13.560
52023W        W25091  14.697  21.086  12.442
52024W        W25092   6.092  14.594   4.894
52025W        W25093  24.957  44.005   3.781
52026W        W25094  34.881   1.511  14.775
52027W        W25095  41.528  13.738  13.921
52028W        W25096  36.277   4.930  12.835
52029W        W25097  39.573  35.083   3.708
52030W        W25098  32.673  42.592   5.062
52031W        W25099  12.213  40.396  11.158
52032W        W25100   2.350  21.087  13.514
52033W        W25101  33.362   7.162  11.033
52034W        W25102  31.287  43.808   1.618
52035W        W25103  43.091  24.490  12.478
52036W        W25104  25.061  32.595  12.312
52037W        W25105  36.586  24.678   2.765
52038W        W25106  33.178  25.476   0.800
52039W        W25107   2.372  35.200   0.927
52040W        W25108  36.489  20.803  11.703
52041W        W25109   5.425  14.395  11.852
52042W        W25110  14.375  29.170   3.691
52043W        W25111  26.206  38.123   0.963
52044W        W25112  13.820  10.954   0.950
52045W        W25113  32.637  12.812   0.754
52046W        W25114  19.253   5.647   4.240
52047W        W25115  36.883  25.767   4.133
52048W        W25116  15.753  19.559   3.315
52049W        W25117  24.215  41.611   3.608
52050W        W25118  15.347   4.103   1.844
52051W        W25119  34.023  23.670  12.135
52052W        W25120  44.906   6.267  10.656
52053W        W25121  28.930  40.520  14.789
52054W        W25122   6.654  39.093  11.031
52055W        W25123  16.556  42.485   4.481
52056W        W25124  39.521  18.774  14.763
52057W        W25125  36.027   7.664  11.890
52058W        W25126  26.470   5.340  12.066
52059W        W25127  11.267  21.230  14.501
52060W        W25128  32.147  26.167   4.239
52061W        W25129  34.663  27.957   2.620
52062W        W25130  20.805  31.412   4.096
52063W        W25131  38.551  15.313  13.367
52064W        W25132  11.199  23.392   1.347
52065W        W25133  20.669  43.249  12.479
52066W        W25134   3.939  30.003  13.404
52067W        W25135  40.762   8.132  14.805
52068W        W25136  34.152   2.454  14.365
52069W        W25137  31.297  18.367   2.359
52070W        W25138  30.619  25.181  11.134
52071W        W25139  35.340   8.223  12.877
52072W        W25140   2.869  28.973  11.895
52073W        W25141   3.686  14.120  12.096
52074W        W25142  12.894   9.834  13.057
52075W        W25143  12.896  39.421  13.501
52076W        W25144  27.383   9.615  14.601
52077W        W25145  37.454  43.980   0.760
52078W        W25146  27.465   7.126  12.097
52079W        W25147  39.479  31.658   4.454
52080W        W25148  19.045   3.988  10.451
52081W        W25149  28.891  30.747  12.656
52082W        W25150  22.549  17.409  14.619
52083W        W25151   5.918  12.132  12.063
52084W        W25152  42.211  22.275   2.784
52085W        W25153  24.613  25.090  13.541
52086W        W25154  33.051  27.701  10.575
52087W        W25155  29.017   3.636  12.033
52088W        W25156  31.876  21.607  14.202
52089W        W25157  14.650  29.622   4.068
52090W        W25158  12.832  33.620   5.120
52091W        W25159   6.482  10.470   1.784
52092W        W25160  11.309   2.883  14.419
52093W        W25161   0.964  33.377  13.867
52094W        W25162  24.089  33.211  11.291
52095W        W25163  17.606   6.267   1.745
52096W        W25164  22.920  21.319   2.859
52097W        W25165  35.478  39.432   0.312
52098W        W25166  35.988  26.031  12.004
52099W        W25167  10.425  21.159  14.033
52100W        W25168  10.708   7.760   2.125
52101W        W25169  44.316  26.618   3.655
52102W        W25170   3.621  37.894   1.192
52103W        W25171  31.154  37.213   4.525
52104W        W25172  32.963   4.949   1.014
52105W        W25173  43.853  10.881   2.833
52106W        W25174  17.616  16.262  12.386
52107W        W25175   3.909  25.741  12.974
52108W        W25176   5.909  21.624   1.788
52109W        W25177  31.550  17.322  12.135
52110W        W25178  31.437  31.513  12.018
52111W        W25179  32.550  23.993  11.623
52112W        W25180  14.251  12.756  10.615
52113W        W25181  40.336   8.792  14.386
52114W        W25182  19.084   2.987   3.374
52115W        W25183  19.046  44.345   4.150
52116W        W25184  32.011  38.922   2.366
52117W        W25185  42.777  18.288   3.741
52118W        W25186  25.123  27.633   0.521
52119W        W25187  35.581  37.798   3.306
52120W        W25188  35.316  19.585  13.413
52121W        W25189  36.106  27.628  14.247
52122W        W25190  22.607  21.260   3.719
52123W        W25191  39.437   2.810   1.499
52124W        W25192  43.397  10.735   2.624
52125W        W25193  40.037   6.105   4.218
52126W        W25194  43.360  28.560   1.341
52127W        W25195  41.306  34.281  10.841
52128W        W25196  27.173  26.177  12.611
52129W        W25197   2.179  13.802   3.632
52130W        W25198  15.669   1.801  14.575
52131W        W25199  44.825   2.999  11.220
52132W        W25200  41.202   0.937   2.213
52133W        W25201   1.713   6.187   1.838
52134W        W25202  39.943  41.418   5.015
52135W        W25203  24.188   6.826  10.798
52136W        W25204  26.224  43.834  12.076
52137W        W25205  24.999  25.989   3.740
52138W        W25206  10.131  42.332  10.357
52139W        W25207   2.620   0.243  12.701
52140W        W25208  23.155   7.361  10.946
52141W        W25209  36.286  35.583   4.832
52142W        W25210  44.991   3.667  14.848
52143W        W25211  39.945  23.238   1.311
52144W        W25212  14.818   8.558  11.463
52145W        W25213   8.011  32.679   1.769
52146W        W25214   4.842  31.465  12.894
52147W        W25215  10.755  37.269  11.121
52148W        W25216  20.204  22.950  14.058
52149W        W25217  27.424  17.244  14.911
52150W        W25218  40.092   7.821  11.120
52151W        W25219  41.971   8.852   5.177
52152W        W25220  32.531  38.348   3.716
52153W        W25221  19.581  28.397  13.005
52154W        W25222   1.289  15.747  14.770
52155W        W25223  26.936  28.332   4.102
52156W        W25224  22.670  17.313  12.528
52157W        W25225  44.879  37.893   3.789
52158W        W25226  34.099  23.176   0.483
52159W        W25227  21.220   6.419   1.423
52160W        W25228  12.080  36.407   3.207
52161W        W25229  29.724  41.839   2.442
52162W        W25230   9.685  16.059   1.971
52163W        W25231   5.903  33.092  11.952
52164W        W25232  20.937  43.222   2.833
52165W        W25233   1.416  22.887  12.343
52166W        W25234  35.580  26.016  11.233
52167W        W25235  29.893  39.416  13.639
52168W        W25236   2.681  27.393  12.943
52169W        W25237  42.256  29.133  12.287
52170W        W25238  15.511  41.527  11.129
52171W        W25239  18.189   9.295   2.252
52172W        W25240  34.509  28.840   0.747
52173W        W25241  41.919   9.322   0.230
52174W        W25242   0.560  29.130   4.732
52175W        W25243  24.958  37.483   2.868
52176W        W25244  29.599  11.649   2.702
52177W        W25245   3.421  24.968   2.771
52178W        W25246   7.165  36.471   2.804
52179W        W25247   5.366  13.779   1.894
52180W        W25248  10.117   2.135  11.635
52181W        W25249  21.250  43.254  13.087
52182W        W25250  44.574  39.560   5.315
52183W        W25251  26.616   7.648  12.077
52184W        W25252  39.609   5.760   4.093
52185W        W25253  38.469  16.773  10.667
52186W        W25254  42.320  44.107  12.563
52187W        W25255  30.884  37.618   4.255
52188W        W25256   3.689  32.413  11.567
52189W        W25257  24.031   4.823  10.396
52190W        W25258  36.401  36.965  12.045
52191W        W25259  38.479  25.123   2.748
52192W        W25260  24.241   9.153   1.400
52193W        W25261  32.535  37.368  11.095
52194W        W25262  39.619   9.179   4.581
52195W        W25263  11.144   8.728  14.945
52196W        W25264  29.380  26.695  11.147
52197W        W25265  42.673  11.773   4.163
52198W        W25266  17.929  29.598   4.577
52199W        W25267  32.038  21.288   2.706
52200W        W25268   0.661  20.662   0.626
52201W        W25269  33.611   9.177   0.366
52202W        W25270   8.104   2.826   2.939
52203W        W25271  13.934  37.442  13.875
52204W        W25272  25.961  27.624  14.586
52205W        W25273  33.460  16.265   4.615
52206W        W25274   3.190  29.557   0.483
52207W        W25275  36.965  35.032  13.775
52208W        W25276  25.087   0.036   1.413
52209W        W25277  29.691  20.066   2.314
52210W        W25278   9.618  23.611  14.795
52211W        W25279  36.565  27.137   0.454
52212W        W25280  18.198  19.239   2.316
52213W        W25281  30.925  30.775  11.697
52214W        W25282  17.117  24.140   1.424
52215W        W25283  20.669  24.750  12.098
52216W        W25284   8.325  16.296   0.171
52217W        W25285   1.892  23.684  14.439
52218W        W25286  12.542  39.494   0.894
52219W        W25287  11.708  20.922  14.479
52220W        W25288  16.681  24.408  14.832
52221W        W25289  37.912  35.484  13.892
52222W        W25290  34.881  29.809  11.467
52223W        W25291  15.588  43.981  11.841
52224W        W25292  24.976  44.738  12.810
52225W        W25293  40.413  38.976  10.718
52226W        W25294  12.254  23.623   4.298
52227W        W25295  21.018  30.636   0.445
52228W        W25296  33.749   3.415  12.557
52229W        W25297  14.390  16.727  13.789
52230W        W25298  15.639  16.759  13.510
52231W        W25299   7.564  38.055   2.457
52232W        W25300   7.940  39.926   1.812
52233W        W25301  12.830  42.766   1.522
52234W        W25302  13.768   2.246   0.844
52235W        W25303  23.187  37.006   4.920
52236W        W25304  10.722  22.194   3.905
52237W        W25305  42.959  41.589   5.075
52238W        W25306  37.008  41.229  14.265
52239W        W25307  38.380  36.155   1.854
52240W        W25308  36.635   7.826  13.882
52241W        W25309  24.576  31.836   2.185
52242W        W25310  10.978   4.417   0.197
52243W        W25311  42.498  30.062   2.908
52244W        W25312  32.908  39.800   2.816
52245W        W25313  22.172  37.567  10.732
52246W        W25314  25.170  21.450  14.588
52247W        W25315  22.221  43.877   4.075
52248W        W25316  32.877  22.539   3.223
52249W        W25317   1.728  15.591  11.068
52250W        W25318  39.051  19.162  11.088
52251W        W25319   3.060  18.087  13.505
52252W        W25320  30.257  29.861  11.433
52253W        W25321  28.190   3.239   4.665
52254W        W25322   4.727  39.445  13.930
52255W        W25323  10.168  20.757   4.374
52256W        W25324  27.141  38.452  11.547
52257W        W25325  37.305  16.302   3.786
52258W        W25326  40.844  41.052   0.309
52259W        W25327   6.767  10.599  10.950
52260W        W25328  17.999  12.247   1.544
52261W        W25329   8.585   5.437   4.089
52262W        W25330  43.340  17.631  10.932
52263W        W25331  43.917  28.560   3.600
52264W        W25332   3.561  27.437   1.737
52265W        W25333  27.519   0.629   2.227
52266W        W25334  27.465   7.671  12.886
52267W        W25335  31.331  11.411   2.403
52268W        W25336  16.824  20.092  14.878
52269W        W25337   7.224  21.219  13.410
52270W        W25338  11.455  21.658  11.063
52271W        W25339  35.894  37.072  11.945
52272W        W25340  38.016  30.884   0.502
52273W        W25341  15.649  17.830  12.906
52274W        W25342  32.214   1.148   4.991
52275W        W25343  39.756  39.060   2.066
52276W        W25344   7.749  34.053  10.906
52277W        W25345  13.249  40.828   2.170
52278W        W25346  35.105   6.984  12.962
52279W        W25347  35.921  30.575   1.027
52280W        W25348   9.927   5.922   0.912
52281W        W25349  29.337   4.348  10.667
52282W        W25350  19.029   7.241   1.173
52283W        W25351  37.823   8.695   2.347
52284W        W25352  18.114  14.095  10.572
52285W        W25353  22.242  42.558   3.352
52286W        W25354  34.949  42.455   4.142
52287W        W25355  12.405  43.024   1.295
52288W        W25356  43.932  35.832   2.710
52289W        W25357  12.321  18.331  13.443
52290W        W25358  43.710  31.626   0.994
52291W        W25359   7.104  22.582   3.752
52292W        W25360  27.295  41.290  13.398
52293W        W25361   5.566   9.846   1.365
52294W        W25362  24.045  37.745   5.529
52295W        W25363   9.561  36.945   3.671
52296W        W25364  29.718  22.696  10.602
52297W        W25365  10.607  17.753  14.469
52298W        W25366  31.046   4.482   3.649
52299W        W25367  13.339   8.727   1.814
52300W        W25368   4.643  29.262   1.788
52301W        W25369  20.497  13.772  14.765
52302W        W25370   8.139  24.317   4.791
52303W        W25371  12.746   9.978   0.951
52304W        W25372  36.567  23.347   2.821
52305W        W25373  23.513  14.890   3.222
52306W        W25374  42.956  33.105  10.451
52307W        W25375  34.440  27.951   1.346
52308W        W25376  22.269  23.169   4.540
52309W        W25377  40.356   2.818  11.577
52310W        W25378  38.705  39.331   0.005
52311W        W25379  26.523  18.049   0.813
52312W        W25380  35.462  14.900  13.374
52313W        W25381   0.034  42.775  14.290
52314W        W25382  18.132  15.907   2.319
52315W        W25383  12.685   5.654  13.835
52316W        W25384  20.691  24.248   3.369
52317W        W25385   6.608   6.887   1.847
52318W        W25386  16.381   8.456   3.629
52319W        W25387   3.932  35.881   3.327
52320W        W25388  11.876  41.723  13.371
52321W        W25389  17.873  25.606   3.165
52322W        W25390  31.652  11.735   1.726
52323W        W25391  30.598  19.195  14.938
52324W        W25392   7.771  13.182   0.313
52325W        W25393  29.943  19.435  13.966
52326W        W25394  18.689  43.515   3.567
52327W        W25395  27.872   4.413   0.845
52328W        W25396  11.405   9.267  14.991
52329W        W25397  24.206  33.490  13.933
52330W        W25398  22.696  33.577  13.967
52331W        W25399  14.319  30.006   4.188
52332W        W25400   3.729  30.472  13.373
52333W        W25401   9.416   0.865  11.240
52334W        W25402  20.126  44.903  12.377
52335W        W25403   1.623  30.829   3.990
52336W        W25404   1.646  35.958  11.878
52337W        W25405  30.163   7.834   2.806
52338W        W25406  28.647  39.061  10.256
52339W        W25407  43.120  11.113   4.802
52340W        W25408  20.994  16.162   4.539
52341W        W25409  36.636  24.413  13.014
52342W        W25410  44.930   4.270   4.129
52343W        W25411  12.190  17.708   1.500
52344W        W25412  36.891  38.997   4.933
52345W        W25413  25.950  34.623  14.309
52346W        W25414  32.912  38.745  11.595
52347W        W25415  43.553  30.953  13.412
52348W        W25416  12.135  39.538  10.331
52349W        W25417  40.528  19.608  11.512
52350W        W25418  23.548  36.131   2.223
52351W        W25419  44.408  39.890   3.062
52352W        W25420  38.748  17.211   2.903
52353W        W25421  38.070  42.459   1.383
52354W        W25422  12.718  18.436   4.599
52355W        W25423  20.487  34.873   1.295
52356W        W25424   0.591  37.355  10.882
52357W        W25425  28.119  40.185   4.517
52358W        W25426  19.890  30.401   1.600
52359W        W25427  23.266  29.944   3.096
52360W        W25428  25.875  37.928   5.477
52361W        W25429  19.572   9.600  11.521
52362W        W25430   4.873  44.273  13.120
52363W        W25431  42.492  18.976  10.921
52364W        W25432  22.432   1.818   5.079
52365W        W25433   2.284  42.329  12.414
52366W        W25434  21.514   7.238   2.137
52367W        W25435  21.856   2.890  11.057
52368W        W25436  24.412  32.065  14.903
52369W        W25437  42.682  20.300  11.094
52370W        W25438  28.020  14.302  11.467
52371W        W25439  20.613  40.624   0.925
52372W        W25440  25.023  12.236   4.229
52373W        W25441   1.908   3.243  13.695
52374W        W25442  43.889  28.008   0.957
52375W        W25443  12.742  10.895  14.482
52376W        W25444   3.525  17.544   3.726
52377W        W25445   5.809  11.246   4.373
52378W        W25446  36.510  25.573  11.463
52379W        W25447   1.020  31.315   2.428
52380W        W25448  18.254  19.624   3.368
52381W        W25449  13.163  19.695   4.911
52382W        W25450   1.195  12.079  11.562
52383W        W25451   3.015  19.216   2.274
52384W        W25452  17.411  27.483   4.129
52385W        W25453   2.948  27.114  10.647
52386W        W25454  38.501  44.423  10.845
52387W        W25455  20.982  16.705   2.697
52388W        W25456  34.057   4.788  12.704
52389W        W25457  21.735  18.501   4.552
52390W        W25458  12.606  42.553   0.199
52391W        W25459   9.590  40.790  11.143
52392W        W25460  19.076  44.586  13.052
52393W        W25461   3.482  20.201   2.344
52394W        W25462  17.184  24.679  12.902
52395W        W25463  34.349  17.711   4.130
52396W        W25464  13.106  38.933   1.865
52397W        W25465  15.194   0.790  14.871
52398W        W25466  16.372   1.234   2.671
52399W        W25467  21.629  29.455   3.212
52400W        W25468  15.634  39.154   2.886
52401W        W25469  18.019  33.633   0.878
52402W        W25470  41.323  38.447  14.894
52403W        W25471   5.990   2.238  13.013
52404W        W25472   1.507   2.910   4.094
52405W        W25473  42.880  17.563  10.713
52406W        W25474   6.728   3.003   4.526
52407W        W25475  18.976  30.639   3.314
52408W        W25476  11.855   3.443  14.783
52409W        W25477  11.259  19.730  14.986
52410W        W25478   2.289  27.068  12.872
52411W        W25479  41.856  17.563  10.639
52412W        W25480  39.112  15.580   0.307
52413W        W25481  23.093  17.069  11.111
52414W        W25482  40.028  39.562   3.214
52415W        W25483  19.763  40.950   1.894
52416W        W25484  22.858  19.588  12.168
52417W        W25485  39.201  39.469   0.873
52418W        W25486  24.625  21.539   0.305
52419W        W25487   6.876  34.867  12.683
52420W        W25488  30.131  31.646  14.359
52421W        W25489  14.056   4.312   2.025
52422W        W25490   7.750  39.022   9.856
52423W        W25491  15.321  10.359  14.012
52424W        W25492  18.307  10.909  12.813
52425W        W25493  16.443  14.085   0.361
52426W        W25494  22.698  17.993   3.336
52427W        W25495  21.999  35.876   1.816
52428W        W25496  39.637  34.029   1.206
52429W        W25497  11.651  21.212  13.027
52430W        W25498  37.538  13.291  14.000
52431W        W25499  41.928  13.431  12.993
52432W        W25500  44.236  24.295   4.596
52433W        W25501  17.572   5.193  12.877
52434W        W25502  19.446  28.966  14.722
52435W        W25503  31.420   4.402  11.603
52436W        W25504  23.988   2.237  10.692
52437W        W25505  34.096  23.996  14.479
52438W        W25506  32.595  18.318  13.742
52439W        W25507   4.734  17.408   2.095
52440W        W25508   5.714   0.786   4.700
52441W        W25509   4.905  17.057  10.697
52442W        W25510  10.217  24.010   1.313
52443W        W25511   8.120  38.501  12.062
52444W        W25512  32.885  24.040  11.205
52445W        W25513  41.057  35.391   0.346
52446W        W25514   2.408   0.994   1.656
52447W        W25515   4.483  11.233   3.766
52448W        W25516  31.988   4.232   4.498
52449W        W25517  41.519   6.266  11.916
52450W        W25518  12.678  31.643  12.936
52451W        W25519  32.054  24.616   0.665
52452W        W25520  27.122  31.307  14.290
52453W        W25521  16.011  29.944   2.814
52454W        W25522  38.261  17.043   2.855
52455W        W25523   0.352   0.964   0.205
52456W        W25524  24.640  21.038  13.585
52457W        W25525  16.808  38.286  13.589
52458W        W25526  20.052   6.407   1.200
52459W        W25527  42.346  11.115  14.214
52460W        W25528   6.192  10.648  10.120
52461W        W25529  27.452  28.709   2.126
52462W        W25530  32.593  30.414  13.507
52463W        W25531   0.904  33.585   5.421
52464W        W25532  38.830  33.413   3.212
52465W        W25533  38.383  26.616  12.092
52466W        W25534  33.454  36.490  10.856
52467W        W25535   2.006  41.402   2.121
52468W        W25536  34.893   0.380   4.098
52469W        W25537   4.932  27.933   0.003
52470W        W25538  16.667  13.205  13.430
52471W        W25539  39.269  17.597   3.378
52472W        W25540  25.477  34.021  12.117
52473W        W25541  13.755  21.183  11.883
52474W        W25542   6.957  32.863  11.572
52475W        W25543  34.908  13.150   3.106
52476W        W25544  20.307  17.613   4.093
52477W        W25545  44.524  40.842  13.410
52478W        W25546  21.690  36.029   4.570
52479W        W25547  18.576  12.842  14.498
52480W        W25548   9.773  44.933  10.930
52481W        W25549  13.147  34.910   4.477
52482W        W25550  19.162  13.147  11.338
52483W        W25551  36.814  33.407  11.686
52484W        W25552  22.099  31.536   4.812
52485W        W25553  24.827  10.588   1.527
52486W        W25554   5.883  21.001   4.098
52487W        W25555  28.059  19.192  10.736
52488W        W25556  22.507   8.238  10.911
52489W        W25557   1.467   0.297  11.586
52490W        W25558   2.810  41.273  14.333
52491W        W25559  20.653  16.611  12.990
52492W        W25560  21.519  25.979   3.295
52493W        W25561  40.921  23.675   1.317
52494W        W25562  27.095   8.277   3.358
52495W        W25563   6.114  26.116   2.811
52496W        W25564  25.675   2.806   0.370
52497W        W25565  43.066  38.550   2.218
52498W        W25566  40.851  20.687  14.961
52499W        W25567   4.264  41.939  10.399
52500W        W25568  41.102  22.640  10.768
52501W        W25569  38.063  42.058  11.703
52502W        W25570  10.257  12.137  13.558
52503W        W25571  18.543   8.373  13.997
52504W        W25572  17.802  40.053  13.090
52505W        W25573  34.035  30.799  13.418
52506W        W25574  26.263  36.882   1.801
52507W        W25575  12.313  35.822  11.162
52508W        W25576   7.951  27.967   2.695
52509W        W25577  12.553   3.268  12.939
52510W        W25578  22.906  39.955  13.382
52511W        W25579  41.512  28.662   1.215
52512W        W25580  15.763   1.355  13.863
52513W        W25581  18.182  22.037  10.771
52514W        W25582  34.015  11.663  13.431
52515W        W25583  30.161   5.455  13.143
52516W        W25584  33.483  24.786  11.559
52517W        W25585  20.377  19.576  11.077
52518W        W25586  42.367  19.202  12.380
52519W        W25587  42.456  35.422  14.171
52520W        W25588  30.586  11.404  12.405
52521W        W25589  32.138  22.775   3.722
52522W        W25590  24.109  31.475   1.960
52523W        W25591  43.998  20.542  10.738
52524W        W25592  43.370  30.083  13.017
52525W        W25593  32.245  25.962  13.954
52526W        W25594   0.582  15.579   3.485
52527W        W25595   7.808  14.165   3.452
52528W        W25596   0.602  26.838  14.415
52529W        W25597  22.748  17.091   1.820
52530W        W25598  11.334  34.041  12.655
52531W        W25599  43.035  37.645   3.806
52532W        W25600  30.639  24.771   1.363
52533W        W25601  18.667  24.845  11.732
52534W        W25602  11.372   4.867   3.549
52535W        W25603   2.572   6.418  12.187
52536W        W25604  16.334  12.890   1.402
52537W        W25605  20.127  28.692  13.829
52538W        W25606   5.844  14.111  11.922
52539W        W25607  34.875  26.173   4.346
52540W        W25608  14.670  40.792   1.432
52541W        W25609  40.838   1.974   1.448
52542W        W25610  44.726  10.884  14.114
52543W        W25611  11.234  15.281   3.814
52544W        W25612  21.661  43.507   3.749
52545W        W25613  44.395  38.012   2.622
52546W        W25614   0.332   1.947   3.248
52547W        W25615  43.935  20.451  11.627
52548W        W25616  30.035   6.225   4.247
52549W        W25617  28.991  14.673  10.689
52550W        W25618   2.781  32.737  11.093
52551W        W25619   3.548  37.721  12.641
52552W        W25620   2.731  11.846   2.891
52553W        W25621  41.556  42.682  14.943
52554W        W25622  12.116  14.861   4.126
52555W        W25623   4.636  35.462   3.699
52556W        W25624  20.226   7.631   0.379
52557W        W25625  30.523   7.120   3.214
52558W        W25626  20.547  25.186   0.821
52559W        W25627   9.493   2.386  12.541
52560W        W25628   2.813  19.834  13.552
52561W        W25629  12.652   9.373  11.469
52562W        W25630   3.857  33.118  10.635
52563W        W25631  21.509  34.405  11.841
52564W        W25632  37.566  27.716   4.694
52565W        W25633   4.193   9.089   1.973
52566W        W25634  44.216  41.712   4.651
52567W        W25635  38.433   2.665  12.382
52568W        W25636  23.018  17.221  14.748
52569W        W25637  26.661  23.341   1.197
52570W        W25638  18.131  38.474  11.142
52571W        W25639  12.321   7.368  11.428
52572W        W25640  24.575  33.097  12.978
52573W        W25641   5.308  21.153   1.315
52574W        W25642  37.408   2.198  11.451
52575W        W25643  35.098  18.577   0.785
52576W        W25644   5.465  42.819   3.060
52577W        W25645   5.795  41.341   3.757
52578W        W25646  16.267  20.642  12.461
52579W        W25647  43.961   1.420  10.796
52580W        W25648  20.201  24.034  13.440
52581W        W25649   6.414  42.523  11.872
52582W        W25650  24.134  13.230   0.397
52583W        W25651  19.660  43.072  12.108
52584W        W25652  21.743  30.350  12.959
52585W        W25653   3.295  21.080   0.363
52586W        W25654  38.814  10.627  11.548
52587W        W25655   2.465  39.821  12.864
52588W        W25656  41.620  25.238  14.471
52589W        W25657  35.638  29.607   0.831
52590W        W25658  11.926  25.001  10.487
52591W        W25659  20.208  39.608   4.206
52592W        W25660  39.951   2.293   0.879
52593W        W25661  17.736  40.589   1.458
52594W        W25662  32.557  14.687  13.976
52595W        W25663  43.901  11.289   1.009
52596W        W25664  12.894  29.593   3.725
52597W        W25665   8.331  17.674   2.885
52598W        W25666  30.653  18.082   3.192
52599W        W25667  42.668  14.172   1.656
52600W        W25668  17.726  43.984   2.658
52601W        W25669   8.048  20.788  11.387
52602W        W25670  33.851  26.434  14.450
52603W        W25671  32.404  24.282  11.170
52604W        W25672  35.501  40.981   2.207
52605W        W25673   0.962  41.570   1.881
52606W        W25674  22.616  38.642  10.774
52607W        W25675  26.971   7.416   1.389
52608W        W25676  33.499  27.467  12.881
52609W        W25677  15.244  18.784   2.277
52610W        W25678   4.724  16.064  14.818
52611W        W25679  27.718   1.588  10.658
52612W        W25680  32.541  33.324  13.553
52613W        W25681  10.336  31.050  11.561
52614W        W25682  39.386  15.060   1.926
52615W        W25683   9.196  16.237   0.701
52616W        W25684  23.740  44.510  14.949
52617W        W25685  34.915   5.181  14.522
52618W        W25686  35.771  33.280   5.287
52619W        W25687  38.498  14.832   3.243
52620W        W25688  11.568   3.536  11.092
52621W        W25689  16.272   2.425  12.644
52622W        W25690   3.005   8.981   4.894
52623W        W25691  24.074  35.647   3.231
52624W        W25692  31.596  38.668   1.443
52625W        W25693  10.272  40.776  13.008
52626W        W25694   3.464  22.753   4.035
52627W        W25695  22.418  12.652  14.508
52628W        W25696  33.032   8.177   4.695
52629W        W25697  37.700  28.905   0.199
52630W        W25698  29.838  34.362  12.401
52631W        W25699  40.886  27.629  12.075
52632W        W25700  11.369  40.864   1.357
52633W        W25701  16.784  39.965  12.950
52634W        W25702  18.556   6.940  12.739
52635W        W25703  21.505  35.091  11.551
52636W        W25704  16.317  17.003   0.401
52637W        W25705  36.792  35.033   4.251
52638W        W25706   0.010  43.525   1.547
52639W        W25707  39.508  22.486   0.298
52640W        W25708  22.546  18.339  11.099
52641W        W25709  37.338  37.969   3.222
52642W        W25710   3.195  34.675   1.878
52643W        W25711  39.359  15.255  13.897
52644W        W25712   4.366  10.259  11.250
52645W        W25713  24.493   8.208  11.204
52646W        W25714   5.729  41.834  13.297
52647W        W25715   9.829  44.341  14.828
52648W        W25716  31.610  27.545  11.667
52649W        W25717   6.202  40.406  11.058
52650W        W25718  11.424  14.229   5.051
52651W        W25719   9.898  24.520   3.663
52652W        W25720  23.495   9.523  12.354
52653W        W25721   7.130  35.074  11.591
52654W        W25722  21.750  44.025  10.679
52655W        W25723  44.006   2.040   0.883
52656W        W25724  38.642  40.309  10.700
52657W        W25725  14.752  42.131   3.171
52658W        W25726  10.802  40.589  12.867
52659W        W25727   7.369  27.734   0.833
52660W        W25728  42.836  33.328   4.679
52661W        W25729  35.046  30.101  14.787
52662W        W25730  32.260   1.169  10.879
52663W        W25731  41.995  44.360   3.836
52664W        W25732  23.984  24.661  12.132
52665W        W25733  14.854  44.726  11.445
52666W        W25734  18.184  39.089  14.256
52667W        W25735  16.601  28.495   0.635
52668W        W25736  41.380  26.610  14.385
52669W        W25737  13.797   2.874   0.445
52670W        W25738  27.999  18.447   2.389
52671W        W25739  19.655  21.801  13.683
52672W        W25740  36.579  42.063   1.443
52673W        W25741  12.785  36.890   2.991
52674W        W25742   5.792   5.375   2.309
52675W        W25743   1.557  40.430  13.737
52676W        W25744  19.898  14.856   2.858
52677W        W25745  11.123   5.872  14.727
52678W        W25746  12.861  29.506  12.410
52679W        W25747   0.417  32.079   0.328
52680W        W25748  36.158  12.592   3.110
52681W        W25749  37.935  18.275  11.400
52682W        W25750  39.805  11.218   0.784
52683W        W25751  15.444   5.230  11.064
52684W        W25752   7.449   6.688   4.720
52685W        W25753  30.116  17.734  10.831
52686W        W25754  12.449  38.773  13.896
52687W        W25755  27.214  12.415  10.750
52688W        W25756   1.335   0.863  12.334
52689W        W25757   4.010  37.073   1.701
52690W        W25758  22.019  37.539   1.043
52691W        W25759  12.872  24.560   2.776
52692W        W25760  32.464  11.152  14.341
52693W        W25761  42.465   4.540  13.544
52694W        W25762  34.454   9.412   4.153
52695W        W25763   6.386  41.930   3.886
52696W        W25764  33.602  13.158  11.674
52697W        W25765   1.736  39.925  13.858
52698W        W25766  21.815   3.089  14.977
52699W        W25767   2.661  21.385   9.891
52700W        W25768  23.179  27.659   0.303
52701W        W25769   0.324  38.460  11.369
52702W        W25770   0.296  38.854  12.019
52703W        W25771  42.581  32.443   4.556
52704W        W25772  41.776  27.146  13.883
52705W        W25773  42.696  39.039   4.653
52706W        W25774  37.002  40.784   2.815
52707W        W25775  35.598  12.431  13.854
52708W        W25776  43.349  21.205   1.828
52709W        W25777  38.585  23.174   0.296
52710W        W25778  39.183  24.650  10.672
52711W        W25779  33.894  12.421  14.737
52712W        W25780  25.593   7.372  14.439
52713W        W25781  10.298  23.036   4.629
52714W        W25782   6.606  12.490  10.450
52715W        W25783  10.910   6.356  14.813
52716W        W25784  32.141  28.532   1.858
52717W        W25785  24.783   8.942  11.115
52718W        W25786  11.733  15.086  14.465
52719W        W25787   9.722  38.116  10.662
52720W        W25788  22.178   9.974  12.317
52721W        W25789   6.027  29.121   1.599
52722W        W25790  28.956  36.236   3.610
52723W        W25791  29.500  37.767  14.295
52724W        W25792   5.345   4.426  12.570
52725W        W25793  26.940  27.443  12.968
52726W        W25794  30.465  23.504   3.807
52727W        W25795   8.140  25.169  14.303
52728W        W25796  31.458  41.440  11.588
52729W        W25797  37.917  35.860   1.429
52730W        W25798  37.756  22.755   3.245
52731W        W25799  26.487  24.738   0.749
52732W        W25800  19.696  20.886  12.104
52733W        W25801  18.515   0.431  10.431
52734W        W25802  24.773   4.764  13.015
52735W        W25803  26.950  30.054  14.717
52736W        W25804   4.516  28.158  14.846
52737W        W25805  39.327  27.607  12.863
52738W        W25806  18.351  44.604   4.979
52739W        W25807  35.378  20.976   3.367
52740W        W25808  41.231  13.222  11.463
52741W        W25809  32.592  21.446   1.396
52742W        W25810  44.658  41.499   1.395
52743W        W25811   1.765  30.485   3.661
52744W        W25812  20.621  25.550   3.466
52745W        W25813   0.415  30.156  11.084
52746W        W25814   2.384  39.315   3.688
52747W        W25815  39.400  25.452  14.317
52748W        W25816   3.970  27.096   2.880
52749W        W25817  21.236  43.254   4.885
52750W        W25818  29.248  38.286  12.467
52751W        W25819  23.797  16.707  13.714
52752W        W25820  18.680  19.565  14.512
52753W        W25821  23.856  32.889  11.706
52754W        W25822   4.211  16.286  13.473
52755W        W25823  30.519  16.636  13.170
52756W        W25824  29.422  20.143   2.760
52757W        W25825   7.278   6.247   3.419
52758W        W25826   4.757  31.095   2.049
52759W        W25827   3.057   9.366  10.634
52760W        W25828   4.180  43.786   3.841
52761W        W25829  40.451  15.190  12.134
52762W        W25830  39.724  12.792  12.463
52763W        W25831  12.755  27.545  10.847
52764W        W25832  41.363   6.338  10.892
52765W        W25833  30.500   7.168   0.892
52766W        W25834   1.912   5.166   4.230
52767W        W25835  23.693  29.570  13.279
52768W        W25836  41.853  33.615   4.852
52769W        W25837  26.172  18.798   1.622
52770W        W25838  19.560   1.354   4.480
52771W        W25839   9.939  14.248   0.001
52772W        W25840  24.929  16.771  13.528
52773W        W25841  11.529  18.296   0.315
52774W        W25842  10.821   1.106   4.194
52775W        W25843  32.945  31.415  12.483
52776W        W25844   9.199  35.594  13.722
52777W        W25845  25.021  20.109   3.191
52778W        W25846  17.728  31.981  11.172
52779W        W25847  17.632   3.361   4.759
52780W        W25848  19.679  10.013   1.795
52781W        W25849  13.318  26.786   5.030
52782W        W25850  30.873  21.067  11.065
52783W        W25851  21.287  43.841  11.965
52784W        W25852   6.974  16.848  12.155
52785W        W25853  14.208  35.869   1.183
52786W        W25854   4.925  39.859   4.194
52787W        W25855  43.871  35.843   4.839
52788W        W25856  39.827  25.406  14.738
52789W        W25857  44.441  43.031  10.727
52790W        W25858  19.088  40.294  14.620
52791W        W25859  12.566  29.006  10.763
52792W        W25860  36.507  34.915   3.324
52793W        W25861  34.966  28.451   3.834
52794W        W25862   3.409  40.656  11.378
52795W        W25863  19.984  10.416   2.837
52796W        W25864  44.247  33.944  11.887
52797W        W25865  37.757  26.953  13.226
52798W        W25866  28.393  31.429  12.062
52799W        W25867   8.744  10.864   0.467
52800W        W25868  10.262  28.773   2.622
52801W        W25869  23.983  33.884  14.391
52802W        W25870  39.544  31.029   0.423
52803W        W25871  10.387  19.163  10.356
52804W        W25872  21.117  11.605   3.742
52805W        W25873  35.324  40.864   4.281
52806W        W25874  30.844  27.212  12.429
52807W        W25875  24.193  37.343  13.594
52808W        W25876  17.847   3.735   0.763
52809W        W25877  16.338  11.627   0.485
52810W        W25878  15.518   1.887   4.169
52811W        W25879   2.507  18.333  10.859
52812W        W25880  22.662  16.300   4.720
52813W        W25881  22.223   4.869  12.947
52814W        W25882  33.093  25.403  12.099
52815W        W25883   1.485  13.683   2.002
52816W        W25884  21.155   6.075   0.548
52817W        W25885  18.146  25.696  10.674
52818W        W25886  18.461  20.628  10.506
52819W        W25887  23.646   8.420   2.671
52820W        W25888   0.246  32.398  14.944
52821W        W25889  12.363  30.695   0.514
52822W        W25890  40.611   5.277   0.282
52823W        W25891  39.443   5.560  11.962
52824W        W25892   0.286  40.795  11.238
52825W        W25893  42.851  14.345   4.749
52826W        W25894  35.487   9.827   1.265
52827W        W25895  27.031  18.030   1.453
52828W        W25896  13.106   8.803   2.277
52829W        W25897  39.972  22.914   4.326
52830W        W25898   0.967  35.802  13.453
52831W        W25899  31.467  26.081   3.329
52832W        W25900   2.940  20.135  11.812
52833W        W25901  20.446  42.113   0.434
52834W        W25902  31.748  23.619   3.442
52835W        W25903  20.213  22.209   3.816
52836W        W25904  16.657  10.420   3.213
52837W        W25905  35.590  27.635  10.700
52838W        W25906  27.083  44.734  12.466
52839W        W25907  29.655  12.198   4.760
52840W        W25908  27.405  35.911  14.615
52841W        W25909  34.960  34.141  12.464
52842W        W25910  17.560  11.050  12.555
52843W        W25911   3.293  24.615   0.813
52844W        W25912  33.881  30.432   4.613
52845W        W25913  44.736  32.036   4.074
52846W        W25914  24.859  44.494  13.883
52847W        W25915   2.929  36.198   3.175
52848W        W25916  20.571  43.304   3.169
52849W        W25917  18.518   8.796   4.022
52850W        W25918  10.313  23.160  11.116
52851W        W25919  12.549  33.410  10.874
52852W        W25920  33.663  16.167   4.138
52853W        W25921  40.888  28.726   4.444
52854W        W25922  41.841  23.263  11.150
52855W        W25923  19.042   0.039  12.796
52856W        W25924  44.463  31.621  11.465
52857W        W25925  24.985  24.242   3.277
52858W        W25926   6.162  20.722   1.909
52859W        W25927  14.020  14.416   3.332
52860W        W25928   7.738  28.257  11.620
52861W        W25929  35.015  44.345  13.447
52862W        W25930  12.294  22.597  14.602
52863W        W25931  34.431   8.229  13.476
52864W        W25932  18.244   3.936   0.375
52865W        W25933  16.200  32.548   0.879
52866W        W25934  35.435   5.187   3.219
52867W        W25935  34.477  33.593   0.735
52868W        W25936   7.756  22.228   3.305
52869W        W25937  28.595  30.555  13.077
52870W        W25938  38.968  17.577  13.942
52871W        W25939  33.570   4.698   2.197
52872W        W25940   5.215  26.219  10.724
52873W        W25941  16.830  39.089  14.714
52874W        W25942  22.012   9.656  11.516
52875W        W25943  12.873   4.517  12.548
52876W        W25944  28.910   3.756  14.722
52877W        W25945   8.676  42.276  12.101
52878W        W25946  10.674  29.359   4.322
52879W        W25947  30.334  42.925   0.509
52880W        W25948  42.404  43.076  12.549
52881W        W25949   2.357   1.734   3.611
52882W        W25950  38.844   3.745   0.332
52883W        W25951  24.050  21.111   2.270
52884W        W25952  40.955  20.830   1.187
52885W        W25953  10.241  13.166   1.010
52886W        W25954  15.407   7.273  12.901
52887W        W25955  20.054  38.780  12.981
52888W        W25956  20.314  27.607  10.894
52889W        W25957  13.558  10.368   2.697
52890W        W25958  25.694  31.886   1.724
52891W        W25959  33.022  28.524   2.776
52892W        W25960   9.608  30.985  14.989
52893W        W25961   0.506  18.537   1.145
52894W        W25962  43.714  17.888   0.684
52895W        W25963  18.070  10.386   0.521
52896W        W25964   6.903  22.840  13.615
52897W        W25965  37.335   5.281  14.785
52898W        W25966  19.774  43.353  13.858
52899W        W25967  20.094  38.268  12.894
52900W        W25968  18.681  16.006   2.317
52901W        W25969  30.628   0.722  10.702
52902W        W25970  25.775   6.693   3.320
52903W        W25971  30.907   2.402  11.145
52904W        W25972  35.987  18.187  14.813
52905W        W25973   9.241  31.609   4.718
52906W        W25974  37.824  32.510   0.885
52907W        W25975   9.914  12.985  13.985
52908W        W25976   3.451  43.799   0.780
52909W        W25977  39.792  39.086   4.126
52910W        W25978  42.281  15.929  12.665
52911W        W25979  37.507  18.103  14.998
52912W        W25980  18.823  41.657   3.430
52913W        W25981  37.326   1.465   0.870
52914W        W25982  23.959  20.409  11.542
52915W        W25983  34.927   4.271  14.411
52916W        W25984  44.938  13.341  14.057
52917W        W25985  39.885  26.629   0.913
52918W        W25986  17.815  35.316   2.646
52919W        W25987  13.529  33.840  13.552
52920W        W25988  31.172  32.597   2.886
52921W        W25989  26.473  28.158   4.231
52922W        W25990  29.688  13.163  10.654
52923W        W25991   6.230  38.459  10.574
52924W        W25992  30.837  26.058  13.787
52925W        W25993  43.854  24.022  13.619
52926W        W25994  27.787   2.756   0.627
52927W        W25995  19.659  18.850   4.716
52928W        W25996  40.172   4.139  11.070
52929W        W25997   1.816  19.644  10.686
52930W        W25998   4.594  16.687   4.320
52931W        W25999  30.847  24.702  12.130
52932W        W26000  36.285  19.580   4.565
52933W        W26001  36.785  17.625   2.377
52934W        W26002  18.193  13.788  13.893
52935W        W26003  24.982   6.676  14.422
52936W        W26004  26.797  27.768   4.118
52937W        W26005  44.287  19.097  11.165
52938W        W26006  27.008  38.928   2.653
52939W        W26007  28.074  25.939   4.623
52940W        W26008  42.455  14.256  14.421
52941W        W26009  18.618  25.024   5.031
52942W        W26010  41.839  13.057   4.060
52943W        W26011  31.579  23.618  13.175
52944W        W26012   3.423  35.840  14.933
52945W        W26013   8.765  27.404  11.642
52946W        W26014  16.613  29.362  14.227
52947W        W26015  37.460   2.843   3.115
52948W        W26016  33.049  19.326   0.242
52949W        W26017  35.983   3.951   0.320
52950W        W26018  19.769   9.508  14.431
52951W        W26019   3.821   3.929   0.272
52952W        W26020  35.920  12.199  14.803
52953W        W26021   9.645  33.060   1.727
52954W        W26022   2.475  21.978  13.673
52955W        W26023  37.063  15.259   0.531
52956W        W26024  43.554  11.379   4.917
52957W        W26025  41.503  23.245  10.565
52958W        W26026  33.445  24.952   3.387
52959W        W26027  41.786  31.737   0.965
52960W        W26028  31.109  43.759  12.001
52961W        W26029  13.563  27.414  14.994
52962W        W26030  41.319  12.840  13.239
52963W        W26031   7.629  12.421   2.350
52964W        W26032  25.253  10.342  13.179
52965W        W26033  28.055  33.630   4.453
52966W        W26034   2.840  13.797   3.733
52967W        W26035  36.339  42.797   3.199
52968W        W26036  28.906  37.824   5.036
52969W        W26037   2.952   1.585  10.653
52970W        W26038  38.868  19.284   3.271
52971W        W26039  22.868  27.175   3.731
52972W        W26040  10.458  18.633  11.154
52973W        W26041   8.802  40.833   1.335
52974W        W26042  12.826  39.432   0.464
52975W        W26043  26.590   7.377  12.537
52976W        W26044  36.180  13.163  13.873
52977W        W26045   7.977  23.802   3.228
52978W        W26046  13.849  36.507   3.665
52979W        W26047   7.461  29.967  11.141
52980W        W26048  40.830  23.576  13.937
52981W        W26049  34.597  38.418  10.512
52982W        W26050  33.025  44.709  11.797
52983W        W26051  41.135  22.679  14.718
52984W        W26052  26.441  34.925  12.179
52985W        W26053  28.619  13.034   1.350
52986W        W26054   2.552  28.166   0.363
52987W        W26055  31.842  41.217  13.654
52988W        W26056  44.020  37.007   0.911
52989W        W26057  12.546   5.938  11.937
52990W        W26058  31.065  21.802   0.858
52991W        W26059  33.131  22.221  13.230
52992W        W26060  31.671  26.644  11.764
52993W        W26061  33.131  41.617   3.495
52994W        W26062   4.728  23.488   3.300
52995W        W26063   5.342   9.190  14.512
52996W        W26064  22.133   9.604  11.010
52997W        W26065  23.044  43.951   2.923
52998W        W26066   7.083  26.527  10.684
52999W        W26067   3.078  39.484  11.669
53000W        W26068  16.488   2.802  12.902
53001W        W26069  22.777  40.288   0.429
53002W        W26070   6.185  36.373   3.680
53003W        W26071  25.116   6.869   1.763
53004W        W26072  43.820  20.774  14.380
53005W        W26073  33.138  21.935  11.108
53006W        W26074  36.873  11.141   4.568
53007W        W26075  41.820   8.700  14.424
53008W        W26076  18.741   1.346  10.213
53009W        W26077   3.397  41.640   3.599
53010W        W26078   5.712   8.202  11.062
53011W        W26079  31.098  20.093  10.638
53012W        W26080  10.882   1.172   1.171
53013W        W26081  38.276  40.022   4.423
53014W        W26082   8.297  35.123   0.878
53015W        W26083  16.374   4.672  13.011
53016W        W26084  42.968  33.384  11.663
53017W        W26085  14.116  16.318  12.469
53018W        W26086  15.953  13.333  12.613
53019W        W26087  22.690   8.798   4.547
53020W        W26088  22.268  41.002  11.508
53021W        W26089   6.819   8.270  12.638
53022W        W26090   5.398   9.173   2.376
53023W        W26091  26.415   6.794  14.353
53024W        W26092  37.843   3.847  13.519
53025W        W26093   1.654  38.403   4.732
53026W        W26094   0.300  33.123   0.490
53027W        W26095  24.055  19.259   3.679
53028W        W26096   1.943  10.321   4.296
53029W        W26097  16.978  12.278   1.957
53030W        W26098   7.834   1.069   4.987
53031W        W26099  16.203  12.107   1.359
53032W        W26100  29.555  30.000  14.888
53033W        W26101  36.275  17.665  12.043
53034W        W26102   2.962  42.441  10.496
53035W        W26103  44.417   1.589  10.569
53036W        W26104  12.314  23.058   3.613
53037W        W26105  42.757  37.357  11.813
53038W        W26106   1.973  29.704   4.369
53039W        W26107  43.551   1.408  12.103
53040W        W26108  37.118  35.033  10.828
53041W        W26109  41.049  19.811  13.357
53042W        W26110  42.502   4.656   3.168
53043W        W26111  23.939  37.724  11.254
53044W        W26112  11.926  33.477  11.617
53045W        W26113   2.032  43.239  14.003
53046W        W26114  36.492  15.763  13.724
53047W        W26115  11.830  36.771   2.919
53048W        W26116  17.255  35.483  13.753
53049W        W26117  15.496  31.536   1.359
53050W        W26118  30.985  30.640   2.673
53051W        W26119   2.834  39.163   3.952
53052W        W26120  26.010  21.601   2.653
53053W        W26121  23.030  31.305   2.656
53054W        W26122  29.205  26.031  11.977
53055W        W26123  17.567  23.728  10.756
53056W        W26124  22.932  29.998   1.753
53057W        W26125   6.926  32.373   1.962
53058W        W26126  12.290  24.900   1.232
53059W        W26127  42.429  36.762  12.985
53060W        W26128  22.042  18.517   3.822
53061W        W26129   9.708  21.363  10.800
53062W        W26130   6.524  18.838  11.004
53063W        W26131  10.220  18.205  11.307
53064W        W26132  12.168  35.343   1.036
53065W        W26133  12.838  14.296   2.726
53066W        W26134  32.458  23.076   1.128
53067W        W26135  22.607  44.713   3.716
53068W        W26136   7.374   2.466   0.778
53069W        W26137   3.954  42.817   1.677
53070W        W26138   5.768   1.849  11.696
53071W        W26139  42.125  12.699  10.514
53072W        W26140  28.551   3.146   2.434
53073W        W26141   2.404   0.196  13.802
53074W        W26142  23.555  15.361   0.489
53075W        W26143  22.059  27.600  13.964
53076W        W26144  23.804  19.561  11.013
53077W        W26145  18.725   5.317  12.518
53078W        W26146  10.205  34.821  13.880
53079W        W26147  14.874  24.110   3.248
53080W        W26148  11.872   2.156  12.084
53081W        W26149  42.500  38.090   2.720
53082W        W26150  27.177  33.054  13.476
53083W        W26151  31.461  29.553   4.357
53084W        W26152   9.175   0.310  13.994
53085W        W26153  33.486  17.500  10.845
53086W        W26154  38.294  25.825  14.287
53087W        W26155   9.250  21.085  10.009
53088W        W26156   4.846   9.197  12.741
53089W        W26157  22.656   5.429   4.276
53090W        W26158  27.943   9.653   1.949
53091W        W26159   8.543  18.113  12.056
53092W        W26160  39.325  12.820   4.490
53093W        W26161  39.836  33.122   1.701
53094W        W26162  12.138   5.709  12.948
53095W        W26163  20.733  31.928   4.934
53096W        W26164   1.491  32.582  11.550
53097W        W26165  25.692  29.500   0.496
53098W        W26166  21.824   5.170   3.221
53099W        W26167  28.512  30.931  11.974
53100W        W26168  31.485  14.838   1.296
53101W        W26169  25.054  29.621  11.953
53102W        W26170  19.802  15.272  11.114
53103W        W26171  26.617   5.395  12.577
53104W        W26172  38.840   2.011   1.431
53105W        W26173  37.446  23.504   1.206
53106W        W26174  42.762  39.043  12.904
53107W        W26175  20.796  27.960   3.125
53108W        W26176  26.638   8.432   4.606
53109W        W26177  31.993  35.944   1.817
53110W        W26178  38.292  30.554  10.527
53111W        W26179  16.779   6.706   2.664
53112W        W26180  40.509  17.057  10.724
53113W        W26181  20.797  36.575   3.592
53114W        W26182   2.899  38.113   3.100
53115W        W26183  39.956   2.787  12.983
53116W        W26184  30.936  25.117   0.180
53117W        W26185  13.169  43.326   2.327
53118W        W26186  16.019   0.977  13.565
53119W        W26187  43.550  27.708  14.845
53120W        W26188   2.487   3.879   1.781
53121W        W26189  13.755   0.045   3.720
53122W        W26190  12.711   8.899  14.818
53123W        W26191  41.008  10.229   0.669
53124W        W26192   3.871  22.060  11.206
53125W        W26193  20.572  21.624  12.640
53126W        W26194  26.668  40.442  10.954
53127W        W26195  17.621  10.611   4.915
53128W        W26196  32.706  10.161   3.188
53129W        W26197  43.528  34.863  13.343
53130W        W26198  39.281  24.413  12.049
53131W        W26199  19.301   6.583  12.981
53132W        W26200   8.106  14.687   4.487
53133W        W26201  19.488  13.550   4.354
53134W        W26202  15.599  37.760   1.779
53135W        W26203  25.070  44.859   0.507
53136W        W26204   6.174  36.901   1.601
53137W        W26205   8.653   7.413  13.022
53138W        W26206  30.029  15.856  13.286
53139W        W26207  24.039   8.853  14.323
53140W        W26208  11.865  17.788  13.899
53141W        W26209   1.953  14.151  14.195
53142W        W26210  16.485  19.835  14.282
53143W        W26211  19.691  10.915  11.159
53144W        W26212  26.080  23.476   0.094
53145W        W26213  28.257  34.424  11.668
53146W        W26214   4.813  13.585  12.875
53147W        W26215   9.620  24.563   4.096
53148W        W26216  11.109   3.870  12.423
53149W        W26217  17.578   4.834   0.263
53150W        W26218  41.909  36.086  12.904
53151W        W26219  20.573  19.284   2.168
53152W        W26220  44.194  23.087   4.743
53153W        W26221  15.767   5.699   2.735
53154W        W26222  26.268   0.242  11.140
53155W        W26223  16.057  41.271   1.587
53156W        W26224  26.758   8.920   4.751
53157W        W26225  10.197  19.846  13.848
53158W        W26226   6.321  43.779  14.082
53159W        W26227  12.290   7.671  14.324
53160W        W26228   6.838   4.719  11.574
53161W        W26229  41.773   3.793   2.218
53162W        W26230  36.065  10.130  12.438
53163W        W26231  11.590  30.935  12.035
53164W        W26232   8.515   2.319  12.985
53165W        W26233  39.837  18.234   0.518
53166W        W26234   9.325  40.944  13.138
53167W        W26235  17.924  30.202   1.824
53168W        W26236  21.655  27.067  12.624
53169W        W26237   8.710  23.063   1.735
53170W        W26238   8.882  27.231   2.283
53171W        W26239   3.444  22.607  12.431
53172W        W26240  18.145  42.070   0.960
53173W        W26241  14.828  20.007  12.701
53174W        W26242  29.426  20.652   2.931
53175W        W26243  33.212   0.011  12.618
53176W        W26244  29.681   6.808   2.147
53177W        W26245  28.926  21.965  11.988
53178W        W26246   2.373  32.193   9.979
53179W        W26247  37.285  36.305   0.953
53180W        W26248  13.782  17.744   3.137
53181W        W26249  24.208  34.350   4.408
53182W        W26250  11.351   6.617  12.490
53183W        W26251  31.247   6.201   0.707
53184W        W26252  10.632  17.949   1.207
53185W        W26253  33.595  32.720  13.800
53186W        W26254  16.710   8.908   0.812
53187W        W26255  35.450  12.587   0.525
53188W        W26256  28.404   0.208   2.651
53189W        W26257  32.614  18.440   1.078
53190W        W26258  14.607   3.416  12.874
53191W        W26259  31.611   9.792  11.939
53192W        W26260  20.752   1.804  14.329
53193W        W26261   7.906  24.012   1.834
53194W        W26262  37.967  19.513   3.072
53195W        W26263  44.951  21.047   5.013
53196W        W26264  10.219   9.494   4.930
53197W        W26265  14.665  23.684  10.662
53198W        W26266  39.507  31.690  10.726
53199W        W26267  24.230  12.714   4.100
53200W        W26268  20.024   5.328   4.541
53201W        W26269  25.224  41.609   0.692
53202W        W26270  44.430  34.637  13.437
53203W        W26271   8.337   9.862   3.625
53204W        W26272   6.764  36.802   2.750
53205W        W26273  32.699  44.079   1.006
53206W        W26274  42.477  15.690   3.323
53207W        W26275  40.837  13.164  11.127
53208W        W26276  37.592   7.569  10.252
53209W        W26277  28.978  13.798   4.208
53210W        W26278  13.581  37.100  12.095
53211W        W26279  29.653   5.366  13.021
53212W        W26280  22.822  21.273   0.449
53213W        W26281  22.096  34.173  14.185
53214W        W26282  38.405  26.808   1.988
53215W        W26283  21.902  35.441  13.266
53216W        W26284   5.951  43.020   1.191
53217W        W26285  31.692  13.200   2.331
53218W        W26286  42.220  38.512   1.704
53219W        W26287  19.601  27.826  13.696
53220W        W26288  16.578  22.886   1.169
53221W        W26289   3.263  16.800  12.484
53222W        W26290  14.804  29.989   0.822
53223W        W26291  20.202  14.571  10.772
53224W        W26292  11.240  28.274  10.833
53225W        W26293  36.897  37.526   1.398
53226W        W26294  31.515  31.436   4.057
53227W        W26295  36.844  42.915  12.509
53228W        W26296  25.579  41.593   2.403
53229W        W26297  14.827  39.976   3.244
53230W        W26298   0.588   3.272   5.095
53231W        W26299  29.131  24.712   2.848
53232W        W26300  16.129   6.203   4.661
53233W        W26301   0.372  43.834  14.315
53234W        W26302  16.988   9.312  12.566
53235W        W26303  29.434   0.896  14.545
53236W        W26304   5.159   6.114   0.313
53237W        W26305  40.281  35.431   1.571
53238W        W26306  18.254  21.058  14.989
53239W        W26307   1.278  27.942  14.879
53240W        W26308   9.805  41.974   4.793
53241W        W26309  24.260  41.566   1.307
53242W        W26310  35.619  16.621   1.897
53243W        W26311   5.119   9.379   1.983
53244W        W26312  14.174  34.091   4.581
53245W        W26313  40.817  17.164   3.775
53246W        W26314  36.839  42.715   3.704
53247W        W26315   5.294  34.300  13.953
53248W        W26316   4.347  34.017  12.656
53249W        W26317  41.797  18.989   2.645
53250W        W26318  18.998  36.045  13.985
53251W        W26319   6.507  27.089   4.051
53252W        W26320  27.728   5.883   2.237
53253W        W26321  10.174  42.369   2.641
53254W        W26322  19.800  38.529   3.718
53255W        W26323  28.694  40.413   0.242
53256W        W26324   3.922  25.024  11.657
53257W        W26325  28.012  26.000  14.127
53258W        W26326   4.290  20.188  10.441
53259W        W26327  38.367  13.195   3.641
53260W        W26328  12.062   8.512   5.214
53261W        W26329  17.858  18.167   2.948
53262W        W26330   4.754   7.661  10.727
53263W        W26331  29.879  41.970   1.839
53264W        W26332  11.588   7.928  12.445
53265W        W26333  42.304  13.681   4.632
53266W        W26334  43.250  18.089   2.378
53267W        W26335  28.773  37.817  13.446
53268W        W26336  12.580   2.718   1.239
53269W        W26337  32.322  20.669  11.755
53270W        W26338  12.797  30.043  11.461
53271W        W26339  16.013  18.600  12.435
53272W        W26340  37.009  41.368  11.533
53273W        W26341  13.201  30.431   4.296
53274W        W26342  21.271   2.408  10.659
53275W        W26343  29.675  33.648   4.125
53276W        W26344  34.694  33.124   0.860
53277W        W26345   2.750   5.825   2.305
53278W        W26346   5.931  20.288  11.068
53279W        W26347  16.639   7.797  14.004
53280W        W26348  29.166  15.710   3.366
53281W        W26349  16.716  32.196  10.614
53282W        W26350   5.346   2.318   1.841
53283W        W26351  14.351  31.117   1.173
53284W        W26352  22.776   6.680   1.945
53285W        W26353  26.940  41.847  12.076
53286W        W26354  43.464  16.103   1.214
53287W        W26355  13.129  13.717  14.626
53288W        W26356  14.661  43.506   4.415
53289W        W26357  12.678  12.869   1.614
53290W        W26358  42.415  34.042   3.823
53291W        W26359  28.158  38.455  10.713
53292W        W26360  38.393  30.856   1.327
53293W        W26361  37.394   9.949   1.307
53294W        W26362  26.867  26.841   1.918
53295W        W26363  19.133  36.423   1.606
53296W        W26364  31.658  44.263  12.434
53297W        W26365  15.686  42.428   4.371
53298W        W26366  35.356  27.856  13.794
53299W        W26367   6.779  22.493   0.496
53300W        W26368  10.682  28.457   2.718
53301W        W26369  21.971  27.700  12.160
53302W        W26370  42.074  15.147  12.489
53303W        W26371  44.790   0.772   0.531
53304W        W26372  30.454  41.320   4.591
53305W        W26373  22.064   9.549   2.695
53306W        W26374  23.648   0.739  11.067
53307W        W26375  32.351  42.333  10.980
53308W        W26376  33.350  21.057  13.417
53309W        W26377  10.896  41.819  12.374
53310W        W26378  23.134  32.495   1.737
53311W        W26379  34.349  25.156  13.004
53312W        W26380  20.057  15.238  13.585
53313W        W26381  19.760  36.055  10.541
53314W        W26382  32.074  35.450  13.580
53315W        W26383  19.175  26.799  12.051
53316W        W26384  30.878  22.654   3.312
53317W        W26385  36.559  35.923   0.142
53318W        W26386  40.086  17.300   1.205
53319W        W26387  43.880  30.692  14.109
53320W        W26388  15.935  15.202   0.941
53321W        W26389  17.244  34.295   1.521
53322W        W26390  38.886   2.411  12.471
53323W        W26391  32.901   0.563  14.113
53324W        W26392  30.281   6.269  11.531
53325W        W26393  22.334   6.868   2.175
53326W        W26394   1.186  19.717   4.333
53327W        W26395  20.095  32.982   0.004
53328W        W26396   6.785  37.823   1.844
53329W        W26397  19.575  10.775  12.176
53330W        W26398  13.228  14.573  14.256
53331W        W26399  22.043  29.120  10.728
53332W        W26400  43.789   9.468   3.713
53333W        W26401  31.943  38.674   4.177
53334W        W26402  10.549  22.837   3.407
53335W        W26403  35.400  19.805   0.283
53336W        W26404  41.426  28.438  12.469
53337W        W26405  43.379  30.423  10.708
53338W        W26406  25.780  27.260  12.872
53339W        W26407  37.117   7.930   4.294
53340W        W26408  20.073  10.144  12.504
53341W        W26409  20.787  29.839  12.836
53342W        W26410  30.393  12.643   3.625
53343W        W26411   0.304  20.912  12.763
53344W        W26412  39.333   6.329   1.270
53345W        W26413  32.060  30.356  12.618
53346W        W26414  26.127   7.784  11.076
53347W        W26415   1.832  15.226  11.463
53348W        W26416  17.259   9.131  13.387
53349W        W26417  18.792  11.184   4.295
53350W        W26418  16.611  11.161   0.288
53351W        W26419  11.683  23.316   0.750
53352W        W26420  38.567  42.382   1.205
53353W        W26421  31.566  34.406   0.428
53354W        W26422   4.731  14.144   1.308
53355W        W26423  24.563  10.801   4.865
53356W        W26424  34.349  37.394  12.415
53357W        W26425  12.167   8.441  13.822
53358W        W26426  22.040   2.371  14.354
53359W        W26427   2.786  37.458  11.846
53360W        W26428  44.980  21.768   0.472
53361W        W26429  17.718  21.725  11.895
53362W        W26430  37.538  44.265   0.331
53363W        W26431  16.624   5.168   3.471
53364W        W26432  25.210   5.279   2.749
53365W        W26433  13.726   8.803  14.569
53366W        W26434  39.278  36.904  11.942
53367W        W26435   4.857  33.531   4.750
53368W        W26436  18.441  20.261  12.776
53369W        W26437  16.170  30.708   0.823
53370W        W26438   6.820  34.921   3.245
53371W        W26439  30.350  27.745   3.718
53372W        W26440  21.188  21.074   1.827
53373W        W26441  40.695  38.733   5.244
53374W        W26442  33.587  39.961   4.531
53375W        W26443  36.042  42.315   2.759
53376W        W26444  24.100  20.933  13.417
53377W        W26445  43.762  23.786  14.973
53378W        W26446   4.239  23.224   1.851
53379W        W26447   8.891  31.570  12.098
53380W        W26448  11.683  11.168  13.029
53381W        W26449  16.560  16.731  13.839
53382W        W26450  11.555  23.058  14.412
53383W        W26451  41.237  19.120   0.272
53384W        W26452  36.108   3.250   4.788
53385W        W26453  33.568  10.210  14.427
53386W        W26454  20.866  28.604   0.343
53387W        W26455  38.034  11.320  10.956
53388W        W26456  32.411  24.039   2.677
53389W        W26457  26.229  35.582   3.301
53390W        W26458  25.186  20.573  13.851
53391W        W26459   2.653  30.143   4.718
53392W        W26460   5.851  14.849  11.377
53393W        W26461  17.325  33.447  10.762
53394W        W26462  28.134  28.422  14.400
53395W        W26463  21.798  29.884   3.477
53396W        W26464  43.263  26.954  10.187
53397W        W26465  42.848  22.969   0.258
53398W        W26466  34.345  33.780  11.406
53399W        W26467  38.566   3.328   0.486
53400W        W26468  15.418  38.856  14.623
53401W        W26469  38.344   1.419   1.277
53402W        W26470  14.111  14.614  11.949
53403W        W26471   8.635  23.587  14.485
53404W        W26472  13.823  23.285   2.238
53405W        W26473  43.639  14.011  12.359
53406W        W26474  19.800  44.738  13.801
53407W        W26475   2.548  41.515   1.185
53408W        W26476  20.253   1.198   3.426
53409W        W26477  20.057  41.925   3.225
53410W        W26478  25.062  25.612   2.845
53411W        W26479   4.685   6.902  13.532
53412W        W26480   5.306  20.012  13.147
53413W        W26481   0.308  28.964   1.292
53414W        W26482  40.373  33.694   3.663
53415W        W26483   9.314   9.220   0.985
53416W        W26484   4.650  40.802  13.837
53417W        W26485  23.603  28.582   2.706
53418W        W26486  20.504  29.471   4.735
53419W        W26487  30.407  19.647   1.205
53420W        W26488  10.678  33.443   0.309
53421W        W26489  30.156  14.084  12.511
53422W        W26490  20.960  13.046  10.453
53423W        W26491  28.914  33.663   4.636
53424W        W26492  31.464  35.426  12.602
53425W        W26493  22.683  20.713  13.580
53426W        W26494  17.147  31.670   3.510
53427W        W26495  21.111  28.240  10.691
53428W        W26496  27.626  43.369   0.506
53429W        W26497  36.335  11.785   0.376
53430W        W26498   6.693   2.585   0.386
53431W        W26499  33.735  42.059  14.360
53432W        W26500  16.241  16.078   3.153
53433W        W26501  31.493  34.475  11.108
53434W        W26502  24.949   9.718  10.659
53435W        W26503  15.219  12.816  14.371
53436W        W26504  12.872  29.267  11.186
53437W        W26505  14.353  44.349   4.074
53438W        W26506   3.442  13.244  14.429
53439W        W26507  18.563  22.813   1.710
53440W        W26508  43.444   3.415   2.366
53441W        W26509  13.365  30.589  11.830
53442W        W26510   2.936   1.199  11.879
53443W        W26511  24.235   9.634   4.956
53444W        W26512  25.634  31.198   4.065
53445W        W26513  21.810  12.253   0.489
53446W        W26514  12.603  41.013  14.782
53447W        W26515  27.652  31.549   2.272
53448W        W26516  18.390  18.345  11.161
53449W        W26517  37.213  32.571   5.204
53450W        W26518  42.175   0.195  11.598
53451W        W26519  40.031  12.691  11.157
53452W        W26520  15.183  18.027  12.684
53453W        W26521  42.930  25.913  14.925
53454W        W26522  10.715  37.460   4.119
53455W        W26523   8.886   7.367  10.257
53456W        W26524  36.394  27.485  12.847
53457W        W26525  38.481  11.172  10.680
53458W        W26526  22.507  18.685   0.778
53459W        W26527   3.823  33.286   1.464
53460W        W26528  42.886   8.889   3.708
53461W        W26529  16.181  13.385   2.147
53462W        W26530  36.739  36.501   4.707
53463W        W26531  13.587   4.307   3.645
53464W        W26532   3.523   0.262  14.942
53465W        W26533  25.109  31.428  10.906
53466W        W26534  10.964  21.980  12.157
53467W        W26535   9.351   8.132  14.096
53468W        W26536  17.056  21.659  14.314
53469W        W26537  10.897  32.013   0.572
53470W        W26538  23.435  15.119   0.032
53471W        W26539  18.768  29.705  11.110
53472W        W26540   7.778   4.294   3.229
53473W        W26541  21.540  41.080   0.695
53474W        W26542  14.535  36.610   0.686
53475W        W26543  38.879  17.627  14.991
53476W        W26544  29.529   3.936   3.815
53477W        W26545  23.123  31.893  13.535
53478W        W26546  40.912  39.829  11.566
53479W        W26547  15.294  38.088   2.470
53480W        W26548   4.511  13.783   0.315
53481W        W26549  16.479  25.055   2.863
53482W        W26550   1.025  20.172   4.113
53483W        W26551  34.990  12.167   2.799
53484W        W26552   9.681   3.992   0.494
53485W        W26553   7.841  44.487  11.142
53486W        W26554  16.206  28.644  10.337
53487W        W26555   7.202  25.491  14.870
53488W        W26556  35.955  20.036  14.326
53489W        W26557   0.346  38.318  10.890
53490W        W26558   3.791  44.519   4.906
53491W        W26559  23.768   2.466   0.207
53492W        W26560  23.283   8.104   4.441
53493W        W26561  25.011  31.894   2.415
53494W        W26562  33.983   3.944   4.463
53495W        W26563  13.744  35.408  10.320
53496W        W26564  27.258  23.509  13.352
53497W        W26565  31.904  17.128  11.533
53498W        W26566  39.804  30.084  13.311
53499W        W26567  26.944  30.615  10.708
53500W        W26568  15.774  44.986  13.992
53501W        W26569  17.090  44.718  11.627
53502W        W26570  28.009   4.413   2.248
53503W        W26571   5.598  32.547  14.899
53504W        W26572  44.029  16.761  12.460
53505W        W26573  17.156   9.630  13.553
53506W        W26574  37.366  28.559  12.823
53507W        W26575  24.521  25.574  13.271
53508W        W26576  19.028   1.178  11.071
53509W        W26577   1.336  30.487   4.580
53510W        W26578  15.568   0.855   1.195
53511W        W26579  17.266  19.501  11.870
53512W        W26580  33.893   9.558   4.528
53513W        W26581  15.709   8.121   2.674
53514W        W26582  34.900   1.805  13.446
53515W        W26583   0.137  20.768  14.962
53516W        W26584  29.950  31.545  13.846
53517W        W26585   1.922   8.935  11.889
53518W        W26586   1.982  27.989   2.342
53519W        W26587   3.850   0.336  12.359
53520W        W26588  11.246  12.229  14.289
53521W        W26589  31.986   6.435  13.776
53522W        W26590  17.983  24.710   1.411
53523W        W26591   6.282  13.262   4.231
53524W        W26592  23.546  17.838  12.513
53525W        W26593  26.014  44.009  13.558
53526W        W26594  25.030   0.519  14.398
53527W        W26595  37.359  25.731  12.549
53528W        W26596  25.514   7.390   1.750
53529W        W26597  10.911  10.682   3.126
53530W        W26598  13.200  10.682  14.342
53531W        W26599   2.967  21.568  11.467
53532W        W26600   6.572  21.506   4.822
53533W        W26601  11.414  23.102   0.364
53534W        W26602  10.671   7.137  13.863
53535W        W26603  30.865  10.811   0.951
53536W        W26604   2.047  31.844   4.605
53537W        W26605  14.151  35.418   1.448
53538W        W26606  39.097  39.353  13.016
53539W        W26607   4.843  24.046  13.405
53540W        W26608  41.875  13.466   9.873
53541W        W26609   1.415   1.934  10.843
53542W        W26610  18.793  27.926   2.122
53543W        W26611   8.647  28.893   1.977
53544W        W26612  10.786   5.635   0.057
53545W        W26613  13.407  16.276   3.552
53546W        W26614  10.244  39.401   1.244
53547W        W26615   1.900  29.505   2.439
53548W        W26616   6.979   5.066   2.829
53549W        W26617  41.719  36.348   4.181
53550W        W26618  21.715  35.809  14.548
53551W        W26619  16.994   9.631   4.107
53552W        W26620  23.188  20.529  12.885
53553W        W26621   3.723  14.277   1.241
53554W        W26622  19.122  10.657  13.063
53555W        W26623  25.713  36.620   0.312
53556W        W26624  10.803  24.987   3.850
53557W        W26625   7.815  39.638   1.393
53558W        W26626  14.776   0.894   0.998
53559W        W26627  17.945  40.264   4.926
53560W        W26628  39.774   9.193   2.679
53561W        W26629  20.664  15.761   2.958
53562W        W26630  23.973  39.612   3.655
53563W        W26631  14.610   8.728   1.245
53564W        W26632  24.579  16.133  12.456
53565W        W26633  18.234  26.241  10.679
53566W        W26634  13.179  29.676   4.738
53567W        W26635  44.906  29.349   1.430
53568W        W26636  13.116   3.761  11.562
53569W        W26637  34.067  37.779   0.458
53570W        W26638  12.092  11.863   2.210
53571W        W26639  38.293   5.244   1.969
53572W        W26640  11.205  17.459   4.962
53573W        W26641   2.883  23.282  10.880
53574W        W26642  21.996  33.649  11.188
53575W        W26643  26.123  10.161   1.409
53576W        W26644  36.464   4.939   4.831
53577W        W26645   5.155   9.138   4.229
53578W        W26646  36.545  13.759  12.914
53579W        W26647  13.666  28.019  14.032
53580W        W26648  11.918  18.127  14.370
53581W        W26649  41.317  37.133  11.176
53582W        W26650  26.280  14.362   2.408
53583W        W26651  28.096  36.758  12.810
53584W        W26652  39.490  40.529   4.927
53585W        W26653   9.647  44.766   1.588
53586W        W26654  42.999  20.558  13.909
53587W        W26655  42.453   8.962  12.502
53588W        W26656  15.212  33.974   1.263
53589W        W26657   7.614  20.248  10.654
53590W        W26658   5.745  15.568   3.870
53591W        W26659  32.582  17.793  13.827
53592W        W26660  33.083  11.471  14.894
53593W        W26661  36.592  31.327   5.136
53594W        W26662   3.743   2.542   4.652
53595W        W26663  14.871  11.282   4.235
53596W        W26664  20.684   6.358   3.299
53597W        W26665  39.979   0.846  10.697
53598W        W26666  16.991  13.126   4.216
53599W        W26667  34.506  22.718   0.784
53600W        W26668   0.405   8.795  14.141
53601W        W26669  41.969  41.029   2.640
53602W        W26670  37.493   3.195   0.340
53603W        W26671  17.987  24.123   3.120
53604W        W26672   3.950  11.036   0.938
53605W        W26673  43.458  13.777  14.021
53606W        W26674  44.037  19.094  11.604
53607W        W26675  33.046  21.122  13.873
53608W        W26676  19.569  39.266  11.506
53609W        W26677  40.446  16.043  14.592
53610W        W26678  27.935  41.495   1.340
53611W        W26679  25.092  39.117  10.986
53612W        W26680  18.805  14.291   0.176
53613W        W26681   4.717  14.729  10.646
53614W        W26682  30.454  25.538  14.511
53615W        W26683  16.193   2.617   4.647
53616W        W26684  12.878  12.305   0.491
53617W        W26685  15.328  42.876  12.983
53618W        W26686   5.875   5.869  10.674
53619W        W26687  35.082   7.754  13.653
53620W        W26688  16.445  12.365  12.805
53621W        W26689  28.501  14.315   3.716
53622W        W26690  38.740  29.880  11.677
53623W        W26691   3.199  20.786   1.675
53624W        W26692  21.143  44.364  13.775
53625W        W26693   8.706  43.003   4.557
53626W        W26694   2.372   4.517   0.940
53627W        W26695   0.400  21.216  14.825
53628W        W26696  44.255  16.046  13.781
53629W        W26697  17.109  42.946  11.298
53630W        W26698   7.352  18.538  12.950
53631W        W26699   9.908  39.299   0.860
53632W        W26700  28.162   6.210  10.535
53633W        W26701  41.122  16.271  10.611
53634W        W26702  32.891  13.524  12.139
53635W        W26703   7.831  36.605   4.859
53636W        W26704  28.429  22.708  13.010
53637W        W26705  38.276  22.392  11.970
53638W        W26706  30.891   7.447   1.729
53639W        W26707  37.826   4.700  11.939
53640W        W26708  32.045  39.897   0.432
53641W        W26709  30.077  44.297  11.617
53642W        W26710   6.437   3.474  12.954
53643W        W26711  40.357  41.792   0.488
53644W        W26712  40.362  10.586   3.294
53645W        W26713  37.396   3.198  11.653
53646W        W26714  37.902  26.547  12.289
53647W        W26715  27.345   1.984  14.614
53648W        W26716  39.473  30.658  14.934
53649W        W26717  44.753  35.356   4.650
53650W        W26718  30.906  42.162   0.942
53651W        W26719  44.298  14.651  12.829
53652W        W26720   6.987  16.167   3.698
53653W        W26721  34.978  23.526  13.815
53654W        W26722   9.393  20.424  13.291
53655W        W26723  30.846  12.364  11.530
53656W        W26724   7.727  18.269   2.436
53657W        W26725  18.547  37.489  12.058
53658W        W26726  26.991  10.402   1.868
53659W        W26727  39.508  39.137   4.582
53660W        W26728  28.138  42.741   3.272
53661W        W26729  12.157  16.118  10.485
53662W        W26730  30.199   7.976   5.173
53663W        W26731  36.414  24.224   0.949
53664W        W26732  20.637  19.323  12.484
53665W        W26733   6.289  27.404   1.309
53666W        W26734  20.239  10.871  11.970
53667W        W26735  34.918  34.881  14.712
53668W        W26736  18.508  20.569   2.874
53669W        W26737   0.723  28.665   4.516
53670W        W26738  44.252   2.786   0.696
53671W        W26739  35.585   8.401   0.657
53672W        W26740  28.040   1.504  13.483
53673W        W26741  42.717  33.398  12.113
53674W        W26742  37.787  13.889  12.484
53675W        W26743   5.327  35.286   2.632
53676W        W26744  27.396   3.892  14.938
53677W        W26745  31.769   4.665  14.948
53678W        W26746   4.175  19.758   2.130
53679W        W26747  37.367   9.273  14.538
53680W        W26748  29.863  19.263  11.497
53681W        W26749  18.170  31.078  12.571
53682W        W26750  41.773   3.113   2.732
53683W        W26751  40.454  17.517   2.150
53684W        W26752   3.958  33.980   1.950
53685W        W26753  27.353  16.254  13.398
53686W        W26754  15.834  27.042  14.888
53687W        W26755  29.630   2.925  14.045
53688W        W26756  44.221  15.518  11.171
53689W        W26757   9.361  11.084  13.431
53690W        W26758  36.816   8.056   2.449
53691W        W26759  13.402  20.769  13.890
53692W        W26760  19.088  23.199  11.605
53693W        W26761  20.519   0.812  11.630
53694W        W26762  18.877  34.983  10.567
53695W        W26763   0.320  35.577  12.065
53696W        W26764  22.540  14.789   4.722
53697W        W26765   5.106  15.225   0.155
53698W        W26766  10.861   2.719   1.901
53699W        W26767  24.338  18.722  14.817
53700W        W26768  22.518  18.864  11.037
53701W        W26769   6.285  43.344   3.459
53702W        W26770  12.652  38.560   3.683
53703W        W26771  33.492   1.477   1.472
53704W        W26772  10.430  21.410   3.185
53705W        W26773  30.623   6.967  14.433
53706W        W26774  31.995   6.862  14.095
53707W        W26775  41.371  37.002  11.662
53708W        W26776  33.839  23.724  11.100
53709W        W26777  23.587   9.731   0.741
53710W        W26778  11.110  25.079  12.586
53711W        W26779  24.161  36.902   2.652
53712W        W26780  24.071  24.117  10.479
53713W        W26781  17.667  37.663  13.999
53714W        W26782  35.649  41.440   3.138
53715W        W26783  40.619   4.069   3.760
53716W        W26784   9.389  27.029  10.598
53717W        W26785  25.485  42.214   0.278
53718W        W26786   3.920  34.078   2.838
53719W        W26787  34.723  35.015   0.187
53720W        W26788  39.606  40.483  13.748
53721W        W26789   2.252  22.252  10.500
53722W        W26790   6.036  16.809   4.089
53723W        W26791  21.653  19.957  13.970
53724W        W26792  21.881  20.017  14.703
53725W        W26793   6.825  39.709  11.689
53726W        W26794  26.822  26.358   5.117
53727W        W26795   6.223  24.622  11.927
53728W        W26796   6.202  37.529   4.623
53729W        W26797  39.269  13.601  10.587
53730W        W26798  31.440  25.795   0.362
53731W        W26799  13.285  12.153  11.093
53732W        W26800  19.299  39.341   2.209
53733W        W26801   4.209  38.824  14.367
53734W        W26802   2.416  33.181   4.101
53735W        W26803   7.370   3.245  13.302
53736W        W26804   3.655   9.359  13.908
53737W        W26805   3.272  31.017  14.975
53738W        W26806  17.475   4.346   0.553
53739W        W26807  26.475  38.626  12.961
53740W        W26808   8.998   0.324   4.580
53741W        W26809  11.251  22.650  12.008
53742W        W26810   9.873  44.282  11.919
53743W        W26811  30.447  15.874  10.707
53744W        W26812  25.212  11.043  11.387
53745W        W26813  32.921  21.984   1.705
53746W        W26814  14.174  26.291   4.704
53747W        W26815  11.545  27.049  11.459
53748W        W26816   5.742  11.006  14.359
53749W        W26817  25.886  23.198   1.635
53750W        W26818  10.175  21.132   0.426
53751W        W26819  24.244  42.292  10.775
53752W        W26820  27.461  35.507  12.575
53753W        W26821  16.305   1.013  14.968
53754W        W26822  32.291  23.002   0.655
53755W        W26823  26.410  15.870   3.164
53756W        W26824  31.973  24.102   2.928
53757W        W26825  42.889  40.962   4.099
53758W        W26826  15.287   4.807   0.494
53759W        W26827   9.806  13.133  13.519
53760W        W26828  30.351  18.090  12.049
53761W        W26829  34.043  30.866  11.451
53762W        W26830  36.352   1.136  14.072
53763W        W26831  28.949  23.922   4.856
53764W        W26832  33.081  26.484   1.744
53765W        W26833  19.870  17.053   3.243
53766W        W26834   7.337  12.570  14.325
53767W        W26835  27.961  39.094  12.410
53768W        W26836  32.165  24.175   4.880
53769W        W26837  40.987   7.292   2.887
53770W        W26838  31.925   0.716   4.090
53771W        W26839  23.023  18.129  10.963
53772W        W26840   9.711   0.324   2.360
53773W        W26841  37.313  34.182   4.200
53774W        W26842  15.675  26.076   4.602
53775W        W26843   6.109   1.757   4.602
53776W        W26844  27.311  15.358  12.389
53777W        W26845  15.097  14.808   3.808
53778W        W26846  16.734  43.227   1.639
53779W        W26847  37.783   2.311  13.848
53780W        W26848  29.785   7.456   3.741
53781W        W26849   0.918  34.053   0.005
53782W        W26850  34.883   9.649   2.754
53783W        W26851  39.027  25.974  14.902
53784W        W26852  33.960  29.342  13.474
53785W        W26853  28.045  15.826  10.511
53786W        W26854  37.469  31.151  12.098
53787W        W26855  40.348  20.266   1.670
53788W        W26856  28.690  16.530  13.706
53789W        W26857  41.442  22.965  10.994
53790W        W26858  25.241  31.430  10.414
53791W        W26859   0.924  16.146  14.057
53792W        W26860  35.764  29.120   3.228
53793W        W26861  11.782  27.084   1.801
53794W        W26862  17.838  19.006   4.398
53795W        W26863  19.129  39.434   0.099
53796W        W26864   1.257  17.604  13.264
53797W        W26865  23.018   0.280  11.830
53798W        W26866  41.769  43.972  10.838
53799W        W26867  35.283  41.286   4.568
53800W        W26868  29.959  20.009   4.187
53801W        W26869  21.626  19.532   4.697
53802W        W26870  14.983  27.717  11.630
53803W        W26871  23.292  14.875   1.294
53804W        W26872  13.341   1.914  12.957
53805W        W26873   6.169  32.090   3.546
53806W        W26874  28.729  32.139   1.336
53807W        W26875  26.181  16.621   2.691
53808W        W26876  23.766  13.711  14.846
53809W        W26877  35.556  21.704  13.827
53810W        W26878  31.093  21.002   0.311
53811W        W26879   3.705  31.878  14.693
53812W        W26880   0.579  39.490   1.482
53813W        W26881  21.670  42.515  14.859
53814W        W26882  14.586   7.763   3.038
53815W        W26883  42.318  15.687  10.481
53816W        W26884  41.448  15.571   2.280
53817W        W26885  44.171  18.523  12.785
53818W        W26886  30.933   9.274   0.327
53819W        W26887  43.972  33.530   0.270
53820W        W26888   9.872  20.619   3.211
53821W        W26889   8.839   0.692   3.808
53822W        W26890   2.299  21.019   4.971
53823W        W26891   7.521  20.482  12.981
53824W        W26892  32.037   1.734   4.202
53825W        W26893  22.498  21.920  11.880
53826W        W26894   8.275   8.391  11.608
53827W        W26895  16.781  26.373  14.930
53828W        W26896  39.458  22.682   4.467
53829W        W26897  27.041  33.078  13.979
53830W        W26898  38.045   4.943   2.333
53831W        W26899   9.819  19.211   5.178
53832W        W26900   3.036  12.623   3.047
53833W        W26901  26.123  38.878   2.682
53834W        W26902   5.250   5.941   1.718
53835W        W26903  28.030  14.237  12.387
53836W        W26904  27.471  35.630   4.338
53837W        W26905  25.048  15.412  13.864
53838W        W26906  35.613  27.973  11.128
53839W        W26907  30.153   0.449   3.293
53840W        W26908  23.977  22.595  14.241
53841W        W26909  17.018  21.809   3.768
53842W        W26910  43.908   0.719   1.838
53843W        W26911  41.739  24.982   1.718
53844W        W26912  22.433   5.389   4.901
53845W        W26913  32.372  32.190  14.976
53846W        W26914  14.288  23.064   4.318
53847W        W26915   6.890  34.490   3.563
53848W        W26916  22.558  17.141  10.665
53849W        W26917  31.113  16.649   2.687
53850W        W26918  22.126  10.891  12.485
53851W        W26919  34.648  20.075   4.813
53852W        W26920  32.911  30.526   4.328
53853W        W26921  40.901   4.646   3.685
53854W        W26922  23.180  23.265   4.496
53855W        W26923   4.768  18.683   4.591
53856W        W26924  14.644   5.495   3.654
53857W        W26925  15.822   7.111   3.823
53858W        W26926  20.611  28.647   2.879
53859W        W26927  38.526  34.394   3.196
53860W        W26928  18.877   7.837  12.383
53861W        W26929  35.097  18.075   0.910
53862W        W26930  11.949  27.879  11.978
53863W        W26931  20.040  16.503   3.639
53864W        W26932  33.121  19.149  10.408
53865W        W26933   1.853  32.080  14.345
53866W        W26934   3.875  22.437  11.580
53867W        W26935   0.467  27.015   2.148
53868W        W26936   7.719  14.870   0.824
53869W        W26937   4.690   0.741   1.859
53870W        W26938  22.694  42.962  12.068
53871W        W26939   8.131   8.181   2.496
53872W        W26940  34.951   7.998   2.363
53873W        W26941  23.980  38.827  13.974
53874W        W26942  33.744  23.242  14.074
53875W        W26943  38.572   3.742  13.934
53876W        W26944  17.133  29.142  14.866
53877W        W26945  25.192  16.202   1.762
53878W        W26946   0.525  11.565  12.351
53879W        W26947  17.635  11.794  14.928
53880W        W26948  44.844  21.967  13.365
53881W        W26949  41.553  38.184   1.136
53882W        W26950  23.222  22.243  13.565
53883W        W26951  44.823  41.007  11.113
53884W        W26952   4.902  14.454   1.782
53885W        W26953   3.323  39.401  11.236
53886W        W26954  36.291  19.579  10.320
53887W        W26955  42.471  16.236   9.725
53888W        W26956  28.763  35.808  14.991
53889W        W26957   6.470  42.539   2.215
53890W        W26958  39.998  22.425   4.152
53891W        W26959  29.523  43.834   4.646
53892W        W26960  20.556  31.181   1.424
53893W        W26961  26.255  29.850   2.324
53894W        W26962   7.826  32.229   5.136
53895W        W26963  27.585  31.860  11.972
53896W        W26964   7.766  23.707   4.387
53897W        W26965  43.808  28.016  13.904
53898W        W26966  11.119  39.315  11.063
53899W        W26967  36.134  15.294   3.262
53900W        W26968  17.808   3.438  11.116
53901W        W26969   5.201  32.979  11.004
53902W        W26970  16.559   7.996  13.071
53903W        W26971  34.651   7.406  12.463
53904W        W26972  18.327   9.000   2.664
53905W        W26973  27.689  17.569   3.192
53906W        W26974  20.255  40.907   2.740
53907W        W26975  34.299   8.817   3.616
53908W        W26976   6.711  16.203   0.959
53909W        W26977  29.664  21.468  14.906
53910W        W26978   5.440  26.032   0.033
53911W        W26979   7.777  38.795   1.737
53912W        W26980  36.116  21.511   4.187
53913W        W26981  20.222  33.430  11.218
53914W        W26982   6.375  20.791   4.054
53915W        W26983  23.962  42.849  11.599
53916W        W26984  19.846  12.406   3.005
53917W        W26985   3.446  35.151   1.870
53918W        W26986  17.758  25.053  11.165
53919W        W26987  38.032  27.074  12.381
53920W        W26988  44.353  14.773  14.737
53921W        W26989  41.817   4.285   0.673
53922W        W26990  39.272  38.315   4.164
53923W        W26991  20.982   1.407   4.672
53924W        W26992  32.983   1.660   2.701
53925W        W26993  10.273  30.150   4.079
53926W        W26994  11.941   5.276  13.544
53927W        W26995  26.887   6.589   3.766
53928W        W26996  22.396  41.710   4.986
53929W        W26997  28.762  25.982   3.216
53930W        W26998  44.331  16.916   9.903
53931W        W26999  32.658  13.428   0.208
53932W        W27000   6.703  42.087  11.175
53933W        W27001  20.204  42.940   3.289
53934W        W27002   5.900  32.041  12.994
53935W        W27003   5.433   9.769  12.787
53936W        W27004  17.758  21.643   3.334
53937W        W27005  14.128   6.645   2.930
53938W        W27006  16.801  33.196   4.159
53939W        W27007  34.006  35.904  14.403
53940W        W27008  43.799  15.188   4.195
53941W        W27009  22.211  37.115   2.818
53942W        W27010  31.506  40.780  14.368
53943W        W27011  28.511   1.349  11.182
53944W        W27012  31.659  14.563  12.916
53945W        W27013  15.585  29.691   2.690
53946W        W27014  32.668  10.153  10.736
53947W        W27015  33.564  41.857   4.314
53948W        W27016  40.723   1.408  11.542
53949W        W27017   1.376  30.440   2.402
53950W        W27018   3.203  24.196   1.814
53951W        W27019  25.103   5.322   3.248
53952W        W27020  41.270  43.534  12.117
53953W        W27021  41.974  15.967   2.735
53954W        W27022  41.560  44.071  14.399
53955W        W27023  42.248  31.600   2.677
53956W        W27024  16.260   4.344  12.359
53957W        W27025  42.447  31.195  13.968
53958W        W27026  30.961  21.577  13.499
53959W        W27027  25.063  17.803   4.899
53960W        W27028  32.555  35.596   2.346
53961W        W27029  36.542  11.761   3.688
53962W        W27030  37.049  43.865   4.661
53963W        W27031  33.933  41.856  11.946
53964W        W27032  18.607   6.389   1.639
53965W        W27033   2.796  31.231   3.466
53966W        W27034  31.788  28.206  13.752
53967W        W27035  24.012  28.167  12.928
53968W        W27036  28.483   5.828   2.923
53969W        W27037   5.884  39.384  11.979
53970W        W27038  36.153  18.977  13.020
53971W        W27039  42.064  15.279  10.708
53972W        W27040  16.951  36.379   2.367
53973W        W27041  33.457  41.535  12.553
53974W        W27042  18.071  38.326   3.337
53975W        W27043  23.160  15.789  14.977
53976W        W27044  34.537  11.192  14.609
53977W        W27045  43.533  14.634  11.033
53978W        W27046  16.473  35.428   1.403
53979W        W27047  26.081   0.422   4.729
53980W        W27048  19.537   7.003  12.453
53981W        W27049  15.408  34.504  12.898
53982W        W27050   5.919  42.340  11.118
53983W        W27051  17.302  30.092  10.954
53984W        W27052  42.467  36.788   1.235
53985W        W27053  17.339  19.135  14.863
53986W        W27054  36.626  16.718  10.873
53987W        W27055  33.953   2.562   3.842
53988W        W27056  22.634  26.973  11.954
53989W        W27057  40.050  30.495   2.162
53990W        W27058  21.023  34.435  11.699
53991W        W27059   7.334  35.288  14.389
53992W        W27060   0.296  23.619  12.566
53993W        W27061  17.734  17.233   3.723
53994W        W27062  11.105  41.273   0.004
53995W        W27063  14.360  13.147  12.911
53996W        W27064  37.437  13.417   0.762
53997W        W27065   9.817  23.508  12.007
53998W        W27066   1.728   5.241   1.729
53999W        W27067  31.473   7.312   0.956
54000W        W27068  30.037  35.628   3.588
54001W        W27069  30.220   7.174  14.757
54002W        W27070  10.362   0.212   1.428
54003W        W27071   7.760  31.020   3.422
54004W        W27072  36.451  41.872   3.417
54005W        W27073   4.484  44.984  14.481
54006W        W27074  14.866  32.951  12.841
54007W        W27075  40.307  30.599   0.785
54008W        W27076  27.508  15.197  10.601
54009W        W27077   3.653   9.216   2.695
54010W        W27078  26.500  41.999  11.315
54011W        W27079  16.079  44.733  12.323
54012W        W27080   5.760  26.199   1.229
54013W        W27081  35.516  16.189   4.509
54014W        W27082  12.301  27.029   0.477
54015W        W27083  19.725   2.791  12.331
54016W        W27084  28.011  13.172  11.542
54017W        W27085   4.448  37.015   4.142
54018W        W27086  15.368  41.282   0.465
54019W        W27087  34.342  42.513  10.932
54020W        W27088  16.299  11.216   2.809
54021W        W27089  20.517  11.707  12.523
54022W        W27090  35.154  39.907  12.121
54023W        W27091  23.930  23.101   0.949
54024W        W27092  35.826  31.222   4.227
54025W        W27093  21.668  19.551   1.791
54026W        W27094  15.512   2.480  11.942
54027W        W27095  41.515   7.779  11.128
54028W        W27096  23.071  19.337   4.288
54029W        W27097  32.883  31.007   2.587
54030W        W27098  39.541  44.853   1.075
54031W        W27099   7.460  11.793   3.221
54032W        W27100  27.741  30.050   1.941
54033W        W27101   1.481  34.605   2.503
54034W        W27102  12.073   7.637   2.327
54035W        W27103  28.272   5.340   2.692
54036W        W27104  27.961  17.343  14.381
54037W        W27105  44.475  19.800  11.944
54038W        W27106  21.787   5.850   2.751
54039W        W27107  27.452  16.513   4.099
54040W        W27108  41.912  12.705  14.964
54041W        W27109   8.645  11.729  12.293
54042W        W27110  20.524  35.486   1.782
54043W        W27111   6.682  29.642   1.890
54044W        W27112   4.324  22.987   4.507
54045W        W27113   4.782   6.095  14.519
54046W        W27114   9.762  12.783   2.574
54047W        W27115   7.238  19.184   0.487
54048W        W27116  34.584  10.156   2.297
54049W        W27117  33.993  31.620   0.786
54050W        W27118  15.614  20.593  11.930
54051W        W27119  30.634  10.127  10.652
54052W        W27120   2.307  14.325   1.753
54053W        W27121  21.023  25.271  12.466
54054W        W27122  18.492  42.894   1.829
54055W        W27123  15.334   3.974  12.602
54056W        W27124  26.670  10.694   2.175
54057W        W27125  23.757   0.053   3.629
54058W        W27126   9.085   2.999   1.333
54059W        W27127   3.551  26.653   3.214
54060W        W27128   8.357  21.633  13.367
54061W        W27129   2.055  15.895  12.062
54062W        W27130  36.872  43.051  10.165
54063W        W27131   6.526  19.329  10.962
54064W        W27132  15.095  40.444  13.421
54065W        W27133  18.205  20.988   4.083
54066W        W27134  26.883  33.536   3.967
54067W        W27135  19.630  35.404  11.152
54068W        W27136   5.422  43.544  11.484
54069W        W27137  18.524  36.274   1.677
54070W        W27138  34.953  25.636   0.225
54071W        W27139  42.510  40.367  13.342
54072W        W27140  18.132  32.538   0.799
54073W        W27141   3.237  38.981  14.962
54074W        W27142  16.671  37.954  12.718
54075W        W27143  21.737  37.597  13.980
54076W        W27144  34.702  43.696  12.901
54077W        W27145  30.689  22.175  11.806
54078W        W27146  41.441  20.964  11.974
54079W        W27147  39.851   8.616  13.424
54080W        W27148  37.878  16.118   2.341
54081W        W27149  10.167   0.826   0.440
54082W        W27150  27.631   7.401  12.491
54083W        W27151  30.973  44.989  11.131
54084W        W27152  44.486  15.354   4.215
54085W        W27153   8.717   7.512   4.068
54086W        W27154  38.411   8.484   4.563
54087W        W27155  24.490  18.232   4.745
54088W        W27156  25.684  10.665  12.492
54089W        W27157   2.237  22.657  13.932
54090W        W27158   5.867   1.258  14.261
54091W        W27159  16.975  26.668  14.313
54092W        W27160  33.043   8.850  14.851
54093W        W27161  33.554  30.048   4.479
54094W        W27162  10.714  32.812   4.117
54095W        W27163  26.187  11.374   3.766
54096W        W27164   2.288  32.362   0.488
54097W        W27165  28.009   7.600   2.494
54098W        W27166  24.853   3.366   3.710
54099W        W27167  24.651   4.708   1.362
54100W        W27168  16.510  14.889  11.174
54101W        W27169  18.819  37.872  13.546
54102W        W27170  17.608  32.093   1.404
54103W        W27171   5.346  25.671  13.040
54104W        W27172  23.963  27.690   2.144
54105W        W27173  11.381  15.586  13.828
54106W        W27174   2.534  37.922  12.625
54107W        W27175  32.683  31.482   3.112
54108W        W27176  31.521  31.491  11.192
54109W        W27177  15.563   0.749   3.759
54110W        W27178   3.370  35.410   1.338
54111W        W27179  11.780   2.669  12.006
54112W        W27180  25.156  33.811  13.413
54113W        W27181  23.503  38.522  14.428
54114W        W27182  24.088  35.821   4.023
54115W        W27183  33.160  12.633  10.716
54116W        W27184  24.157  15.965  12.222
54117W        W27185  15.986  24.141   0.504
54118W        W27186   1.819  36.566  10.549
54119W        W27187  15.705  34.074   1.104
54120W        W27188  16.353  23.188  13.988
54121W        W27189  40.608   6.816  12.438
54122W        W27190  16.109  12.650   0.447
54123W        W27191  25.457   9.180  12.585
54124W        W27192  22.178  12.808  10.665
54125W        W27193  11.221  11.249   0.479
54126W        W27194  19.096   8.851   2.204
54127W        W27195   7.570  34.523   2.286
54128W        W27196  24.194  43.424  14.006
54129W        W27197  28.302  23.906   3.671
54130W        W27198  23.117  12.248  13.505
54131W        W27199  36.202  36.240  10.959
54132W        W27200  44.956  29.105  11.425
54133W        W27201  39.109  42.243  13.931
54134W        W27202  29.156  18.217  10.513
54135W        W27203   3.811   6.420   0.012
54136W        W27204  11.557   5.223   0.497
54137W        W27205  42.338  14.444  14.930
54138W        W27206   4.430  11.238   0.853
54139W        W27207   2.756  10.674  14.153
54140W        W27208  10.147  22.242  12.122
54141W        W27209  12.803  10.400   4.155
54142W        W27210  15.144  22.234  14.385
54143W        W27211  31.484   4.940   0.461
54144W        W27212   0.001  16.766   2.971
54145W        W27213  28.172  17.946  13.487
54146W        W27214  35.417  26.243   1.673
54147W        W27215  33.493  33.106   4.934
54148W        W27216   8.049  35.542   4.676
54149W        W27217  44.337  10.622  13.852
54150W        W27218  30.863  37.147  12.038
54151W        W27219  33.164  21.741   3.736
54152W        W27220  40.553   6.438  14.896
54153W        W27221   2.313   6.590  13.821
54154W        W27222  29.642  18.066   2.584
54155W        W27223  42.173  36.910  13.837
54156W        W27224  14.700  17.060  11.810
54157W        W27225  37.237   3.372  13.005
54158W        W27226  22.780  31.084  11.499
54159W        W27227   0.387  27.700  14.403
54160W        W27228  36.101  32.429   4.299
54161W        W27229  13.731  19.576   4.116
54162W        W27230   5.172  33.959   4.674
54163W        W27231   4.931  27.766   1.716
54164W        W27232  41.974  36.997  12.799
54165W        W27233   3.796  36.115   2.868
54166W        W27234  23.978  33.115   0.026
54167W        W27235  37.818  29.619   1.112
54168W        W27236  28.749   1.357  14.106
54169W        W27237  41.728  39.177  10.298
54170W        W27238  34.908  10.147  13.906
54171W        W27239  33.213  38.863   3.470
54172W        W27240  10.817  26.171   4.984
54173W        W27241   7.717  30.046  11.589
54174W        W27242   6.377  30.783   0.103
54175W        W27243  19.982  44.844   2.780
54176W        W27244  33.937  41.562   1.795
54177W        W27245  11.859   0.223  14.451
54178W        W27246  24.003   5.695  13.817
54179W        W27247  22.040   8.413   2.937
54180W        W27248  16.771   1.391  10.891
54181W        W27249  38.473  35.818   1.485
54182W        W27250   2.722  21.100  10.518
54183W        W27251  13.385  35.964   1.672
54184W        W27252  33.528  20.881  13.889
54185W        W27253  31.222  42.883  13.846
54186W        W27254   7.267  41.080  12.209
54187W        W27255  39.805   5.422  14.178
54188W        W27256  24.291  26.466   1.054
54189W        W27257  31.390  27.138  12.445
54190W        W27258  29.984  16.196   1.351
54191W        W27259  40.890  21.503  12.427
54192W        W27260   8.307  15.285  13.621
54193W        W27261  18.036  41.472  12.932
54194W        W27262   8.113  23.842  14.414
54195W        W27263  28.263  38.993  13.301
54196W        W27264  38.404  28.844   0.726
54197W        W27265   3.775  23.659   1.420
54198W        W27266  18.801  39.099  10.110
54199W        W27267  26.915  19.482   1.279
54200W        W27268  28.058  10.875  10.133
54201W        W27269  18.500   1.819   3.202
54202W        W27270  31.985  34.540  11.049
54203W        W27271  17.164  38.047   1.228
54204W        W27272   0.644   2.313  14.995
54205W        W27273   0.949   7.194   2.382
54206W        W27274   3.992  44.797  12.895
54207W        W27275  23.031  29.263   0.854
54208W        W27276   2.473  37.514   2.969
54209W        W27277  39.482  18.033  13.531
54210W        W27278  28.632  18.128  12.507
54211W        W27279  21.750  39.557  11.805
54212W        W27280  25.728  39.268   1.998
54213W        W27281   6.698  36.000  11.961
54214W        W27282  16.196   7.265   1.338
54215W        W27283  14.176  40.616   0.765
54216W        W27284  20.268  12.179   3.623
54217W        W27285  13.152  20.075   0.870
54218W        W27286   9.053  19.701   4.734
54219W        W27287   5.199  28.540   0.590
54220W        W27288  33.098  44.864  10.385
54221W        W27289  20.710  29.929   2.442
54222W        W27290  23.574  18.711   4.149
54223W        W27291   8.309  38.955   5.436
54224W        W27292   4.877  25.195  13.510
54225W        W27293  23.589  31.379   1.870
54226W        W27294  37.390  24.024   0.524
54227W        W27295  43.743   3.143  13.341
54228W        W27296  39.288  26.429   1.768
54229W        W27297  34.381   1.783   4.772
54230W        W27298  33.934   5.377   0.916
54231W        W27299  12.046  39.116   4.279
54232W        W27300   2.807  28.370  14.546
54233W        W27301  36.429  33.573  14.695
54234W        W27302  18.337  21.768  13.535
54235W        W27303  39.870  14.216   1.261
54236W        W27304  19.775  26.987  11.546
54237W        W27305  30.177  34.083   0.967
54238W        W27306  21.388  32.605  12.524
54239W        W27307  25.445  33.947  13.997
54240W        W27308  35.831  10.926   1.620
54241W        W27309  16.617  30.861   1.891
54242W        W27310  34.504  17.531  12.434
54243W        W27311  13.934  20.515   4.575
54244W        W27312  41.768  39.814   1.789
54245W        W27313  15.368  31.106  14.285
54246W        W27314   6.873  39.536  10.847
54247W        W27315  21.272  16.652   2.093
54248W        W27316  29.712  15.957  10.587
54249W        W27317   8.714  28.021   1.852
54250W        W27318  31.037  14.552   1.439
54251W        W27319  17.333  40.116  12.451
54252W        W27320  10.277  32.889   4.362
54253W        W27321  22.900  21.172  13.757
54254W        W27322  18.827  35.468  14.529
54255W        W27323  38.566  22.049   4.092
54256W        W27324  10.797  25.946  12.124
54257W        W27325   5.474  18.142   1.605
54258W        W27326  13.848  39.899   2.868
54259W        W27327   4.237  21.955   4.514
54260W        W27328  36.378  12.284   1.943
54261W        W27329  20.629  33.108   2.146
54262W        W27330  25.212   3.869   1.026
54263W        W27331  39.993  22.561  11.539
54264W        W27332  41.840  15.147   0.811
54265W        W27333   7.423  34.961  11.193
54266W        W27334  41.871  39.019   4.183
54267W        W27335  13.621  23.315   0.189
54268W        W27336  19.095  37.344  12.042
54269W        W27337  10.352  34.369   3.736
54270W        W27338  21.029   2.881  10.548
54271W        W27339  29.773  20.222  12.416
54272W        W27340   6.195  17.652  12.014
54273W        W27341   7.930  16.689   0.854
54274W        W27342   4.653   4.798  14.401
54275W        W27343  13.345  20.592   3.787
54276W        W27344  37.467   5.270  12.983
54277W        W27345  26.915  14.516   4.170
54278W        W27346  35.401  42.946   2.244
54279W        W27347   0.291  28.467  12.011
54280W        W27348  30.344   0.451  13.141
54281W        W27349  27.997  35.792   5.097
54282W        W27350  12.362  37.489  11.523
54283W        W27351  23.182  20.113   3.572
54284W        W27352  15.172  36.802   4.690
54285W        W27353   7.802  15.067   0.359
54286W        W27354  17.764  18.264  14.905
54287W        W27355  34.930  31.031   2.824
54288W        W27356  27.338  17.118  12.583
54289W        W27357  38.780  30.398  13.710
54290W        W27358  10.590   3.919   0.637
54291W        W27359  42.322  16.288  13.044
54292W        W27360  41.404  40.511  11.821
54293W        W27361  29.533  16.613   0.887
54294W        W27362  44.252  16.659  14.402
54295W        W27363  21.664   6.337  10.659
54296W        W27364   0.932  43.791  11.129
54297W        W27365  17.046  22.592  10.734
54298W        W27366   2.824  20.481   1.873
54299W        W27367  15.296   6.902  12.063
54300W        W27368   8.166  15.131   3.696
54301W        W27369  23.199  11.222  13.078
54302W        W27370  13.667  29.592   3.223
54303W        W27371  18.699  14.154   3.065
54304W        W27372  13.416   6.330  14.921
54305W        W27373  21.808   7.407   0.713
54306W        W27374   9.767  40.293  12.000
54307W        W27375  34.890  36.804   4.715
54308W        W27376  30.181  30.997  11.151
54309W        W27377  30.009  16.568   1.774
54310W        W27378  15.823   0.287  12.938
54311W        W27379   4.642   6.705   0.677
54312W        W27380  18.080  29.594   1.658
54313W        W27381  25.619  42.300  11.644
54314W        W27382  28.944   4.458  12.452
54315W        W27383  20.535  42.275  14.092
54316W        W27384   4.805  21.703   4.398
54317W        W27385  37.819  26.720   3.837
54318W        W27386  39.853   3.739   2.149
54319W        W27387  26.902  26.682   9.988
54320W        W27388  11.415   8.907   2.719
54321W        W27389   4.167  42.507  12.482
54322W        W27390  43.576   2.930   2.301
54323W        W27391  27.639  44.311   4.255
54324W        W27392  21.064   4.280   0.494
54325W        W27393  26.472  37.174  12.058
54326W        W27394  10.175   0.254  12.583
54327W        W27395  16.465  40.716   1.276
54328W        W27396  25.444  17.232   1.897
54329W        W27397   4.892  42.606  14.508
54330W        W27398  16.272  25.252  12.449
54331W        W27399  44.848  39.872  10.320
54332W        W27400  18.372  25.683  12.473
54333W        W27401  14.033  42.241  10.791
54334W        W27402  12.343   2.240   3.375
54335W        W27403  33.513  40.838   1.895
54336W        W27404  17.217  40.439   2.377
54337W        W27405  34.341  33.557   3.789
54338W        W27406  30.291  25.187   4.575
54339W        W27407   2.614  37.281  14.746
54340W        W27408   0.962  36.874  14.258
54341W        W27409  30.638  31.669  10.756
54342W        W27410  42.844  26.527  12.280
54343W        W27411  41.384   9.371  11.121
54344W        W27412  44.719  27.112  14.382
54345W        W27413  26.963  41.245   4.566
54346W        W27414  31.508   4.439  12.118
54347W        W27415  40.753  27.136   0.903
54348W        W27416  23.787  26.240   1.269
54349W        W27417  30.146  11.346  11.144
54350W        W27418  29.470  38.048  12.924
54351W        W27419  20.977  11.854  13.357
54352W        W27420  27.202  13.766  13.534
54353W        W27421   4.204  41.497   3.321
54354W        W27422  31.685  33.641  12.074
54355W        W27423  41.768  36.539   2.327
54356W        W27424  25.477  14.679   4.651
54357W        W27425   3.339  32.962  10.664
54358W        W27426  38.791   4.415   1.873
54359W        W27427  30.373  32.180  14.984
54360W        W27428  18.096  31.151   3.520
54361W        W27429  26.164   4.893   2.639
54362W        W27430  11.514  23.480   2.237
54363W        W27431  26.127   0.239  12.896
54364W        W27432   6.909  24.207  13.527
54365W        W27433  11.133  19.061  11.655
54366W        W27434  16.008  11.715   3.726
54367W        W27435  40.797  37.495   3.316
54368W        W27436   0.294  15.817   1.193
54369W        W27437  11.354  21.772   0.800
54370W        W27438  33.059  32.460   3.365
54371W        W27439  36.822  37.399  14.495
54372W        W27440  24.976  20.693   4.605
54373W        W27441  42.898  39.688  11.200
54374W        W27442   5.678  31.494   1.408
54375W        W27443  24.186  36.796  10.723
54376W        W27444  27.662  28.497  10.763
54377W        W27445  34.443  16.770  14.200
54378W        W27446  36.900  34.491  13.092
54379W        W27447  24.588   1.910   0.387
54380W        W27448   1.482  24.570   3.634
54381W        W27449  25.674   4.859   4.698
54382W        W27450  12.272  33.296   0.745
54383W        W27451  39.997  31.077   0.171
54384W        W27452  12.120   2.925   1.345
54385W        W27453  32.509  26.905   3.839
54386W        W27454  26.220  37.795   1.868
54387W        W27455  36.144  34.225  12.145
54388W        W27456   6.692  31.172   4.191
54389W        W27457  43.446  35.113  12.895
54390W        W27458   1.856  41.362   2.614
54391W        W27459   8.962  18.388   3.317
54392W        W27460  26.495  41.944  12.312
54393W        W27461  37.774   1.315   2.768
54394W        W27462  18.052  29.423   1.158
54395W        W27463  13.529  40.593   3.652
54396W        W27464  14.248  16.579  12.897
54397W        W27465   8.076  36.589   2.210
54398W        W27466   5.734   2.904  13.458
54399W        W27467  18.822  29.985  10.675
54400W        W27468   9.392  31.666  13.384
54401W        W27469   4.157  14.143   0.300
54402W        W27470  17.311  32.888   1.845
54403W        W27471  40.815   6.921   9.776
54404W        W27472  43.998  44.388   2.967
54405W        W27473  34.497  11.333   2.529
54406W        W27474   7.720  29.118  11.437
54407W        W27475   3.825  41.341  13.464
54408W        W27476  34.833  40.949   0.332
54409W        W27477  26.160  17.743   4.343
54410W        W27478  23.678  37.534   2.340
54411W        W27479  39.809   7.245   2.390
54412W        W27480   1.471  14.388  14.263
54413W        W27481   0.399  37.335   4.896
54414W        W27482  21.039  19.621   1.506
54415W        W27483  21.119  31.934   0.947
54416W        W27484  22.830  29.398  14.257
54417W        W27485  35.458  43.010   3.727
54418W        W27486  44.026  39.127  13.417
54419W        W27487   3.348  17.954  10.702
54420W        W27488  34.138   7.362  12.504
54421W        W27489  43.045  38.891  13.326
54422W        W27490  40.844  43.473   2.348
54423W        W27491   1.999   0.117   0.905
54424W        W27492   7.373  30.667  12.337
54425W        W27493  35.973  22.133   3.129
54426W        W27494  17.837  40.877  14.770
54427W        W27495  42.955  13.871  10.623
54428W        W27496  23.004  34.052  14.788
54429W        W27497  18.722   8.369   4.276
54430W        W27498  27.130  23.412   2.250
54431W        W27499   8.869  39.953  11.565
54432W        W27500  27.616  22.139  12.207
54433W        W27501  43.277  11.987  12.553
54434W        W27502   0.923  25.673  14.974
54435W        W27503  25.159   4.082   5.028
54436W        W27504  43.085  20.052  13.995
54437W        W27505  18.876  44.512  10.574
54438W        W27506  16.159  42.512   4.160
54439W        W27507  35.878  10.660  10.629
54440W        W27508  15.505  40.437   1.424
54441W        W27509  11.601  28.135  13.116
54442W        W27510  20.367  28.174   4.415
54443W        W27511  44.045  34.371  11.684
54444W        W27512  29.200   8.865  12.416
54445W        W27513  33.410  20.667  10.757
54446W        W27514  31.569  43.793   0.058
54447W        W27515  44.878   6.091   3.197
54448W        W27516  23.651  43.541   3.618
54449W        W27517  44.009   4.283  10.653
54450W        W27518  40.838   3.243   3.661
54451W        W27519  10.239  35.152   4.354
54452W        W27520  35.371  27.377  14.018
54453W        W27521  43.790   7.556   2.653
54454W        W27522  22.779  28.131  11.895
54455W        W27523  21.796  25.264   0.103
54456W        W27524  11.110  24.902   1.301
54457W        W27525  12.337   9.833  10.707
54458W        W27526  42.338   7.327  11.459
54459W        W27527   8.384  32.547  10.653
54460W        W27528  23.193   6.671  13.601
54461W        W27529  42.108   4.997   3.147
54462W        W27530  38.540  41.367   0.539
54463W        W27531   8.583  27.433   4.232
54464W        W27532  12.570  32.624   2.313
54465W        W27533  44.728  24.042   4.543
54466W        W27534  32.065   1.209   2.784
54467W        W27535   4.347  13.644   4.840
54468W        W27536  44.167  17.559  14.277
54469W        W27537  15.479  15.468  14.088
54470W        W27538  12.394  24.430   2.616
54471W        W27539  11.328  31.387  12.009
54472W        W27540  18.269  33.886   4.089
54473W        W27541  20.228  40.390   4.554
54474W        W27542  13.335  22.939   3.346
54475W        W27543   3.496  19.270   2.471
54476W        W27544  30.631  44.310   0.307
54477W        W27545   5.649  22.059   4.873
54478W        W27546  31.885  44.824  12.295
54479W        W27547  41.345  38.427  13.128
54480W        W27548  35.366  29.412  14.168
54481W        W27549   0.193  35.779   3.861
54482W        W27550  19.260   8.547   0.822
54483W        W27551  35.923  15.093   4.238
54484W        W27552   9.636  22.480   1.281
54485W        W27553   7.743  29.970   4.928
54486W        W27554  18.596  23.792   0.974
54487W        W27555  40.974  17.824  14.552
54488W        W27556  11.381  21.650   2.392
54489W        W27557   0.007  36.309   3.698
54490W        W27558  25.162  39.297   2.275
54491W        W27559  18.581  14.150  13.751
54492W        W27560   6.021  31.969   4.532
54493W        W27561  42.516  34.140  13.528
54494W        W27562  21.050  33.513   3.583
54495W        W27563  25.724  22.257  11.570
54496W        W27564  10.282  26.561   0.101
54497W        W27565  17.769  12.152   4.758
54498W        W27566  44.039  33.931  11.397
54499W        W27567  18.752   5.650  14.980
54500W        W27568  21.635  10.700  12.296
54501W        W27569  29.362  10.676   4.904
54502W        W27570  24.245  16.651  11.013
54503W        W27571  17.508   7.431  13.938
54504W        W27572  34.580  11.161  14.028
54505W        W27573  24.492   9.871  14.480
54506W        W27574  34.395  19.185  11.224
54507W        W27575  14.917  18.713   0.250
54508W        W27576  10.917  15.586   1.339
54509W        W27577   9.073  23.080  13.396
54510W        W27578  22.012   9.335   4.539
54511W        W27579   0.202   5.238  13.188
54512W        W27580  18.569  40.071  13.985
54513W        W27581  17.268  17.548   2.320
54514W        W27582  15.666   0.912   0.023
54515W        W27583  33.598  44.935  10.269
54516W        W27584   8.610  33.873  11.498
54517W        W27585  24.298  12.518  12.124
54518W        W27586  40.261   7.601   1.449
54519W        W27587  43.558  27.365  11.470
54520W        W27588  25.943  27.628   2.712
54521W        W27589  18.203  39.384   4.271
54522W        W27590   8.269  27.850  14.571
54523W        W27591  19.710  31.067  10.755
54524W        W27592  21.269  24.590  14.092
54525W        W27593  23.992  38.055   9.823
54526W        W27594  44.472  12.852  10.278
54527W        W27595   1.515  24.691   2.193
54528W        W27596  35.902  36.011  12.435
54529W        W27597  36.346  38.483  13.196
54530W        W27598  14.807  18.043   3.669
54531W        W27599  28.038  37.831   1.166
54532W        W27600   1.770  31.498  13.545
54533W        W27601  19.703  37.318   0.993
54534W        W27602  11.816  25.243   3.345
54535W        W27603  37.407   8.700   4.625
54536W        W27604  28.075  21.193  13.762
54537W        W27605  22.938  10.798  14.345
54538W        W27606  43.788  35.588  13.568
54539W        W27607  16.089  13.111  12.160
54540W        W27608  32.986  27.656  11.105
54541W        W27609  29.665  25.990  10.927
54542W        W27610  30.791  20.789  13.281
54543W        W27611   0.977   7.064   4.549
54544W        W27612  10.201  24.944   1.386
54545W        W27613   0.226   9.542  13.844
54546W        W27614  44.325  30.830  10.693
54547W        W27615  38.406  21.606  12.572
54548W        W27616   3.863  30.643   0.477
54549W        W27617  26.076   9.463  13.361
54550W        W27618  30.499  16.598   0.858
54551W        W27619  38.442   2.835  12.880
54552W        W27620  41.336  15.110  11.109
54553W        W27621   1.447  17.132   0.359
54554W        W27622  27.759  24.621  12.952
54555W        W27623  44.915   6.247  12.621
54556W        W27624   4.897  17.665   4.744
54557W        W27625  43.116  15.756  14.900
54558W        W27626  20.971  24.750  12.534
54559W        W27627  39.458   2.509   1.928
54560W        W27628  24.759  32.752  14.403
54561W        W27629  10.875  23.921  11.931
54562W        W27630   4.266  43.296   4.740
54563W        W27631  20.248   2.954  13.600
54564W        W27632  26.392  38.232  10.969
54565W        W27633  30.863  35.926  13.932
54566W        W27634  35.812  33.817  13.844
54567W        W27635   7.954   9.764  10.552
54568W        W27636  25.421  34.787   0.189
54569W        W27637  34.053  42.001   3.582
54570W        W27638  27.760   6.171   2.656
54571W        W27639  18.836  40.497  13.989
54572W        W27640  17.771  24.601  11.947
54573W        W27641  41.819  27.628   4.364
54574W        W27642  34.571   0.749  13.093
54575W        W27643   3.301  28.675  12.000
54576W        W27644   7.955  10.569   4.892
54577W        W27645  31.349  26.669   4.805
54578W        W27646  38.416  41.911   1.338
54579W        W27647  21.168  35.112  12.771
54580W        W27648  33.701  30.376   1.090
54581W        W27649   2.115  38.028   2.171
54582W        W27650  18.629  42.551   0.370
54583W        W27651  36.959  18.621  11.180
54584W        W27652  21.332  34.096  11.475
54585W        W27653   2.839  18.335  14.751
54586W        W27654  10.533   9.212   0.296
54587W        W27655  41.003  40.626  13.544
54588W        W27656  37.770  13.758  14.901
54589W        W27657  18.575  17.727   1.704
54590W        W27658  26.044  26.727   0.908
54591W        W27659  40.988  25.791   0.381
54592W        W27660  16.750  15.310  11.009
54593W        W27661  27.482  43.900  13.406
54594W        W27662   4.313  39.824   0.350
54595W        W27663  32.353  41.345  13.779
54596W        W27664  40.923  39.307  10.687
54597W        W27665  34.888  32.062  14.911
54598W        W27666   3.487   1.259   2.368
54599W        W27667   3.963   4.221   1.211
54600W        W27668  10.902  44.694   4.332
54601W        W27669  31.030  26.037  14.864
54602W        W27670   6.985  22.697   4.243
54603W        W27671  41.010  25.190  12.882
54604W        W27672  22.645   7.742  12.490
54605W        W27673   1.877  29.607  13.916
54606W        W27674  41.482  26.728   0.723
54607W        W27675   2.990  26.484  11.946
54608W        W27676   1.665  30.651  14.034
54609W        W27677   3.688  28.696  11.080
54610W        W27678   3.938  30.978  11.947
54611W        W27679  30.991  24.094   0.450
54612W        W27680  23.706  28.969   4.607
54613W        W27681  17.975  43.303   4.683
54614W        W27682   5.398  28.469   0.113
54615W        W27683   4.300  10.626   3.659
54616W        W27684  27.028   4.759   1.626
54617W        W27685  17.225   4.315  10.705
54618W        W27686  33.410  20.748   4.168
54619W        W27687   2.029  38.851   2.558
54620W        W27688  24.986  39.484  12.966
54621W        W27689   1.939  28.588  14.931
54622W        W27690  44.780   3.210  11.691
54623W        W27691  27.716  13.828   3.711
54624W        W27692  17.829  41.268   2.695
54625W        W27693  18.183   0.399  12.490
54626W        W27694  40.587   1.653   0.868
54627W        W27695  17.734   4.790   2.269
54628W        W27696  40.520  37.638   3.732
54629W        W27697  21.403   8.850  12.981
54630W        W27698  10.526  12.414   4.525
54631W        W27699  13.848  38.737   0.768
54632W        W27700  25.523  25.650   0.403
54633W        W27701  24.723  27.524  12.616
54634W        W27702  31.655  32.610   1.268
54635W        W27703  23.176   4.130   0.327
54636W        W27704  18.804   9.377  11.634
54637W        W27705  41.019   4.723  13.086
54638W        W27706  14.234  11.879  11.094
54639W        W27707   0.372  28.360  13.869
54640W        W27708   1.760  34.400  12.861
54641W        W27709  14.584   9.648   3.675
54642W        W27710  22.589  22.588  13.724
54643W        W27711  30.019  24.030   3.926
54644W        W27712   3.386  11.544  10.453
54645W        W27713  19.810  25.722   0.921
54646W        W27714  43.921  36.355  13.999
54647W        W27715  14.519  20.799   2.697
54648W        W27716  19.103  10.254  14.286
54649W        W27717  42.457   5.977   1.854
54650W        W27718  43.900  41.555   2.001
54651W        W27719  34.513  37.881  13.693
54652W        W27720  17.575  31.090   0.422
54653W        W27721  24.192  41.978   4.017
54654W        W27722  10.819  41.935  11.864
54655W        W27723  13.917  44.884   0.347
54656W        W27724   6.843  10.411   0.897
54657W        W27725   3.250   6.792   4.408
54658W        W27726  18.076  21.603  10.453
54659W        W27727  35.349  14.266  11.597
54660W        W27728  17.170  34.970  13.140
54661W        W27729  40.362   5.194   4.615
54662W        W27730  14.803  38.581  13.410
54663W        W27731   4.711   8.191   2.828
54664W        W27732   3.423  31.302   0.909
54665W        W27733  32.359  19.539  14.147
54666W        W27734  41.715   5.832  13.308
54667W        W27735  18.739  31.854  13.397
54668W        W27736  44.199   8.292   0.497
54669W        W27737   9.633  40.040  14.524
54670W        W27738  10.166  13.085   2.753
54671W        W27739  30.601  29.663  11.133
54672W        W27740  18.620  23.011  14.821
54673W        W27741  36.635  40.556   1.516
54674W        W27742  36.950  19.306   3.260
54675W        W27743  21.712  17.780   2.390
54676W        W27744  38.472  22.509   3.778
54677W        W27745  28.512  26.658   1.483
54678W        W27746  19.039  15.137  14.349
54679W        W27747  28.141  23.764   3.191
54680W        W27748   9.696   0.297   3.740
54681W        W27749   8.917  16.572  10.415
54682W        W27750  40.044   2.466   0.275
54683W        W27751  32.846  28.728  13.586
54684W        W27752   6.901  38.595  13.553
54685W        W27753  43.866  29.996  12.894
54686W        W27754  14.918  32.191   2.633
54687W        W27755   0.935  31.657  14.726
54688W        W27756  13.065  12.343  12.374
54689W        W27757  25.116  28.699  14.507
54690W        W27758   0.835   8.121  10.729
54691W        W27759  15.851  27.439  10.144
54692W        W27760  12.761  26.666  14.926
54693W        W27761  21.130  19.274  11.084
54694W        W27762  22.531  24.067  14.752
54695W        W27763   6.847   8.466   4.673
54696W        W27764  39.383  39.516   0.373
54697W        W27765   3.933  31.045  11.430
54698W        W27766  44.424  30.623  12.921
54699W        W27767  14.123  13.736   4.612
54700W        W27768  32.526  28.747  11.916
54701W        W27769  30.226  31.886   1.377
54702W        W27770   2.831  27.212  12.060
54703W        W27771  34.514  27.500   3.934
54704W        W27772  11.519  12.670   2.312
54705W        W27773   0.773  24.368  11.365
54706W        W27774  40.778   1.466   1.306
54707W        W27775  41.804   0.858   4.600
54708W        W27776  25.533  25.453   1.680
54709W        W27777  18.209  37.691  13.029
54710W        W27778  42.574  26.474   3.238
54711W        W27779   3.313   2.343   2.510
54712W        W27780  15.417  14.776   3.387
54713W        W27781   0.629  44.169   0.422
54714W        W27782  44.245  23.493   2.301
54715W        W27783  16.680   4.448   2.840
54716W        W27784   4.862  15.171  11.363
54717W        W27785  27.219  16.739   0.733
54718W        W27786  21.170  43.998   0.665
54719W        W27787  33.506   2.853   3.849
54720W        W27788   8.307  18.358  14.311
54721W        W27789  42.259  21.487  14.549
54722W        W27790  29.406  35.674  12.289
54723W        W27791  13.345   3.178   1.122
54724W        W27792  34.949  35.967   4.642
54725W        W27793  13.337   0.832   3.283
54726W        W27794  19.570  34.728   5.056
54727W        W27795  40.819  30.633  10.693
54728W        W27796  30.356  27.590  14.803
54729W        W27797  14.962  21.751   2.383
54730W        W27798   3.257  11.675   4.625
54731W        W27799  35.807  36.857   1.667
54732W        W27800  25.375  42.732  11.511
54733W        W27801  23.964  13.266  11.596
54734W        W27802  23.715  15.574   1.845
54735W        W27803  33.513  10.435  13.942
54736W        W27804  38.964  18.685  10.045
54737W        W27805   1.757  42.306  14.115
54738W        W27806  44.118  12.819  14.086
54739W        W27807   7.678  43.890   3.333
54740W        W27808  22.517  14.010   0.927
54741W        W27809  42.236  15.647  14.513
54742W        W27810  39.584  24.690   1.753
54743W        W27811   7.206   1.650  11.630
54744W        W27812   5.678  35.132  12.100
54745W        W27813  39.934   2.692  11.282
54746W        W27814  42.948  27.559   4.215
54747W        W27815  29.329   2.372  12.941
54748W        W27816  44.676  20.960   0.047
54749W        W27817  23.042  17.261   2.372
54750W        W27818   0.855  19.011   3.632
54751W        W27819   9.252   6.697   3.448
54752W        W27820  41.318  20.480  11.124
54753W        W27821   0.759  40.392  12.672
54754W        W27822  42.047   9.803  12.529
54755W        W27823  26.202  41.811   4.228
54756W        W27824  25.301  20.218   2.771
54757W        W27825  33.301  11.048  12.451
54758W        W27826  38.001  34.373   3.181
54759W        W27827   3.884  36.562   0.912
54760W        W27828  25.259  31.104   1.715
54761W        W27829   2.238  43.475   0.388
54762W        W27830  22.925   5.416   3.766
54763W        W27831  18.634  10.447   4.762
54764W        W27832  31.281  19.604  10.057
54765W        W27833  31.087   1.683   1.964
54766W        W27834  21.496  39.465   1.206
54767W        W27835   1.267  42.475   0.190
54768W        W27836   0.018  35.333   1.290
54769W        W27837  14.118   4.519   0.704
54770W        W27838  33.385  30.979  12.129
54771W        W27839  12.461  41.318  13.967
54772W        W27840   1.814  27.048  12.532
54773W        W27841  23.586  12.239  11.071
54774W        W27842  44.825   4.332   1.278
54775W        W27843  16.824  40.124  12.440
54776W        W27844  19.331  16.639   4.367
54777W        W27845  11.151  44.296   4.636
54778W        W27846  27.161  34.408  12.211
54779W        W27847  34.997  39.591  13.957
54780W        W27848  22.049   7.430   2.761
54781W        W27849   6.280  22.139   4.300
54782W        W27850  37.076   4.128   3.770
54783W        W27851  12.752  35.666  14.794
54784W        W27852  25.053  35.515  11.554
54785W        W27853  24.438   7.808  10.917
54786W        W27854  23.518   1.995   2.130
54787W        W27855  29.970   3.758  12.018
54788W        W27856   2.874  16.038  14.063
54789W        W27857  11.802   7.429  14.605
54790W        W27858  11.623  22.694   1.739
54791W        W27859  18.676  26.147   0.023
54792W        W27860  18.171  31.839   0.074
54793W        W27861  29.652  30.490  10.661
54794W        W27862   3.164  25.142  14.560
54795W        W27863  16.954  27.781   2.432
54796W        W27864  19.080  28.500  11.460
54797W        W27865  30.194  33.070  11.652
54798W        W27866  14.924  31.339  12.157
54799W        W27867  42.912  10.431   1.743
54800W        W27868  34.556  39.358  14.716
54801W        W27869   0.895   5.701   3.938
54802W        W27870  24.244  11.288  14.904
54803W        W27871  43.271  13.301  10.835
54804W        W27872  39.931  37.709   1.890
54805W        W27873   4.842   7.416  13.267
54806W        W27874  11.131  23.924  10.629
54807W        W27875  15.038  35.329   1.366
54808W        W27876  12.783  26.891   3.315
54809W        W27877  10.689  37.047  10.629
54810W        W27878  17.463  25.333   1.773
54811W        W27879  21.439  44.494  14.200
54812W        W27880  15.918  34.470  12.923
54813W        W27881   8.674  33.869  13.931
54814W        W27882  28.986   4.792   4.437
54815W        W27883   1.483  42.685   2.704
54816W        W27884  42.399  43.593  12.558
54817W        W27885  10.084  15.582  12.498
54818W        W27886  19.170  35.813  11.176
54819W        W27887  15.715  42.416  14.317
54820W        W27888  24.236  24.638  13.623
54821W        W27889  21.025  11.232   2.789
54822W        W27890  29.458  37.523  12.006
54823W        W27891   3.812  19.655   1.726
54824W        W27892   7.933   0.814   1.568
54825W        W27893  34.098  24.659   1.802
54826W        W27894  10.899  42.714   4.227
54827W        W27895  16.082   7.618  11.034
54828W        W27896  35.710  41.776   1.866
54829W        W27897  16.287  10.044  10.173
54830W        W27898  30.458  20.274   4.390
54831W        W27899  26.546  40.272   1.151
54832W        W27900   3.614   4.418   0.266
54833W        W27901  20.682  42.812   3.064
54834W        W27902   7.927   4.121  10.543
54835W        W27903   8.640  18.093  13.071
54836W        W27904   4.408  11.114  14.765
54837W        W27905   8.532  40.381  10.745
54838W        W27906  16.237  26.673   3.150
54839W        W27907  41.534  41.290   3.400
54840W        W27908  40.052  42.476   3.858
54841W        W27909  16.836  14.883   0.288
54842W        W27910  30.843  35.996  12.398
54843W        W27911   3.106  11.235  14.856
54844W        W27912  43.874  40.084  13.508
54845W        W27913  37.508   4.401   0.795
54846W        W27914  25.154  35.908  14.808
54847W        W27915   5.805  19.664   3.320
54848W        W27916  14.123  32.332  14.281
54849W        W27917  13.191  16.272   1.253
54850W        W27918   6.933  20.829   4.616
54851W        W27919  13.608  29.016  10.824
54852W        W27920  43.127  31.606   0.010
54853W        W27921  25.220   0.747  11.974
54854W        W27922  33.715  14.614   3.780
54855W        W27923  32.358  21.168  11.853
54856W        W27924  40.861  21.338   0.956
54857W        W27925  27.245  10.805   1.583
54858W        W27926  36.478  34.503   1.307
54859W        W27927  12.568  35.493   4.670
54860W        W27928  38.654  13.171   1.341
54861W        W27929  31.630  21.395   1.450
54862W        W27930  39.832  21.174   0.925
54863W        W27931  39.318  44.466  10.184
54864W        W27932  33.700   6.819   2.785
54865W        W27933   3.294  26.503   2.796
54866W        W27934  34.861  35.831  10.603
54867W        W27935   6.245  26.957  14.125
54868W        W27936  30.472   8.885   4.428
54869W        W27937  12.134  37.498   1.788
54870W        W27938  24.316   8.850   3.307
54871W        W27939  28.868  31.095   0.310
54872W        W27940  37.660   4.924  14.641
54873W        W27941  39.306   5.465  13.979
54874W        W27942  35.578  36.456  11.722
54875W        W27943  41.949   9.011  11.873
54876W        W27944  29.147  23.937   2.392
54877W        W27945   0.722  36.559   4.099
54878W        W27946  30.633  40.287   1.679
54879W        W27947   5.912  14.136   3.974
54880W        W27948  12.145   8.800   0.658
54881W        W27949  44.846  17.175  11.438
54882W        W27950  20.314  26.185   1.690
54883W        W27951  13.231   0.647  11.358
54884W        W27952  28.485  21.612   3.413
54885W        W27953  42.992  31.984   1.342
54886W        W27954  12.575  25.607  12.050
54887W        W27955  15.440  15.137   0.817
54888W        W27956  23.727  17.292   0.900
54889W        W27957  17.181   2.542  13.972
54890W        W27958  10.066  18.600  12.091
54891W        W27959  26.662  40.423   2.144
54892W        W27960   7.165  10.679  10.624
54893W        W27961  11.105  38.859   4.667
54894W        W27962   4.269  14.084   4.540
54895W        W27963  29.340  13.927  11.106
54896W        W27964   1.105   9.613  11.635
54897W        W27965  20.334  17.654  11.127
54898W        W27966   1.675   8.808  11.453
54899W        W27967  16.340  23.015  13.470
54900W        W27968  28.629  24.450   1.769
54901W        W27969   0.812  44.333   5.165
54902W        W27970  10.370  10.090   2.157
54903W        W27971   9.281  29.470  12.146
54904W        W27972  32.675  28.097  11.127
54905W        W27973  17.237  33.458  11.719
54906W        W27974  22.448  32.127   3.440
54907W        W27975  27.260  38.449   4.206
54908W        W27976  21.183  16.440   4.121
54909W        W27977   0.389   4.974  12.099
54910W        W27978  22.528  26.470   2.212
54911W        W27979  27.455   7.623   1.330
54912W        W27980  15.239   4.438  11.250
54913W        W27981  42.478   0.313  14.683
54914W        W27982   8.353  33.140   3.316
54915W        W27983  12.160  14.436   3.843
54916W        W27984  14.871  13.398  14.254
54917W        W27985   9.731   4.790   0.001
54918W        W27986  14.226  14.379   1.599
54919W        W27987  24.053  25.735   0.043
54920W        W27988  18.617  28.720   4.420
54921W        W27989   1.198  41.202  14.329
54922W        W27990   0.898   3.389  13.081
54923W        W27991  28.470   7.498  12.088
54924W        W27992  32.895  10.992  10.491
54925W        W27993  38.140   9.871  11.947
54926W        W27994   5.394  13.804   0.850
54927W        W27995  24.634   0.121  11.373
54928W        W27996  40.026  16.017  13.233
54929W        W27997  24.718  14.808   0.533
54930W        W27998  34.514  39.468  13.795
54931W        W27999  42.405  12.358   4.673
54932W        W28000  31.078  15.268  11.673
54933W        W28001   2.510  11.631  11.205
54934W        W28002  20.545  34.072  12.826
54935W        W28003   5.731  38.246  14.692
54936W        W28004   2.388  23.123  12.106
54937W        W28005  29.967  13.858  11.118
54938W        W28006   9.211   0.796   0.413
54939W        W28007  34.771   5.759   2.228
54940W        W28008  39.828  34.350   2.682
54941W        W28009  33.507  44.190   3.559
54942W        W28010   0.530  22.563   3.325
54943W        W28011  30.166  31.620   2.268
54944W        W28012  28.899  41.610  11.455
54945W        W28013  17.560  37.256   4.989
54946W        W28014  40.503  43.291   4.064
54947W        W28015   4.762  32.133  13.881
54948W        W28016  14.731   3.484   0.839
54949W        W28017  12.328  16.639   3.657
54950W        W28018  13.659  18.664   2.148
54951W        W28019  32.631  21.345  12.894
54952W        W28020   8.701  12.909   5.357
54953W        W28021  42.810  43.667  14.809
54954W        W28022   1.404  28.717  11.697
54955W        W28023   1.180   8.276   4.064
54956W        W28024  17.805  43.232   1.936
54957W        W28025  43.947   7.003   0.298
54958W        W28026   3.822  29.963   3.171
54959W        W28027   6.187   3.823  14.248
54960W        W28028  24.199  14.386   4.595
54961W        W28029  10.102  25.065   2.263
54962W        W28030  23.004  27.110   2.837
54963W        W28031  10.725   6.870   0.882
54964W        W28032  38.962  24.548  11.132
54965W        W28033  42.810  37.529   4.308
54966W        W28034  40.807  11.254   2.167
54967W        W28035  11.246  17.255   5.443
54968W        W28036  43.804  44.820  12.988
54969W        W28037  26.181   3.853   0.412
54970W        W28038  40.515  20.539   2.591
54971W        W28039  36.649  15.486  10.032
54972W        W28040  28.252  39.750   1.458
54973W        W28041  12.184  27.495   3.112
54974W        W28042   2.021  41.531   0.385
54975W        W28043   4.369  22.909  12.466
54976W        W28044  32.682   9.326   4.071
54977W        W28045  38.402   4.628   2.613
54978W        W28046  16.458   3.807   3.593
54979W        W28047  31.183  40.340  13.043
54980W        W28048   0.574  31.496   4.148
54981W        W28049  17.353  44.329   2.664
54982W        W28050  39.496  16.270   4.438
54983W        W28051  30.740  25.202   3.271
54984W        W28052   5.380  24.499   0.333
54985W        W28053  42.983  31.536  11.467
54986W        W28054  26.464   8.164   3.657
54987W        W28055  33.716  12.104  11.118
54988W        W28056   0.819  14.456   4.175
54989W        W28057  38.539   0.739   2.359
54990W        W28058  27.155  29.304  10.287
54991W        W28059  42.909  33.849  12.417
54992W        W28060  15.253  35.364   3.472
54993W        W28061  26.851  18.708  14.792
54994W        W28062  42.372  23.322  12.364
54995W        W28063  22.931  11.155  12.199
54996W        W28064  29.186  27.943   3.739
54997W        W28065  14.797  36.541   2.182
54998W        W28066  42.410   2.226   0.970
54999W        W28067  12.267  44.832   4.181
55000W        W28068  32.387  25.586  11.540
55001W        W28069  24.195  18.441  12.338
55002W        W28070  38.066  20.056   4.318
55003W        W28071  29.679  38.911  12.830
55004W        W28072   4.961  37.933  12.508
55005W        W28073  33.434  29.523  10.188
55006W        W28074  12.085  36.528   1.774
55007W        W28075  25.061  32.589   3.160
55008W        W28076   1.850  37.760  12.868
55009W        W28077  44.954  15.190  14.567
55010W        W28078   3.222   5.220  13.545
55011W        W28079  13.854  35.506   3.716
55012W        W28080  20.245   8.436   3.184
55013W        W28081  18.763  23.712   2.237
55014W        W28082  43.271  29.544  11.574
55015W        W28083  32.557  23.044   4.429
55016W        W28084  18.787  39.098  13.848
55017W        W28085   2.354  44.049   4.687
55018W        W28086  38.265  18.211  13.533
55019W        W28087  31.176  10.263   3.255
55020W        W28088  21.735  19.027   1.774
55021W        W28089  23.561  11.342   4.257
55022W        W28090  29.577  25.974   0.424
55023W        W28091  19.751  11.202  11.579
55024W        W28092   7.774  29.965   4.427
55025W        W28093  13.924  37.175   0.004
55026W        W28094   0.199   1.494  11.132
55027W        W28095  33.046   2.283   4.379
55028W        W28096  43.754  18.144   1.445
55029W        W28097  39.373  21.458   3.569
55030W        W28098  43.850   3.022   1.791
55031W        W28099   2.856  13.858   4.803
55032W        W28100  41.191  16.095   2.285
55033W        W28101  17.841  32.869   4.046
55034W        W28102  23.351  37.459  12.535
55035W        W28103   6.228  26.988   0.431
55036W        W28104   3.016  32.723   3.041
55037W        W28105  13.801  29.502   2.174
55038W        W28106  44.388  11.291  10.375
55039W        W28107   4.804   4.385   1.429
55040W        W28108  39.802  24.545   0.937
55041W        W28109   0.456   3.854  11.962
55042W        W28110  22.257   0.008   3.176
55043W        W28111  21.888  35.937  13.149
55044W        W28112  39.380  25.467  11.007
55045W        W28113   6.646  31.129  11.126
55046W        W28114  41.739  44.325   0.985
55047W        W28115   9.784  21.254  11.857
55048W        W28116  38.002  12.225   0.422
55049W        W28117  31.067  19.022  11.593
55050W        W28118  34.939  33.125  10.645
55051W        W28119  23.961   0.246   1.844
55052W        W28120  23.115  23.661   2.829
55053W        W28121  42.798  22.522   4.242
55054W        W28122  35.893  13.341   2.759
55055W        W28123  43.236  39.360  11.439
55056W        W28124  44.762   5.774   4.195
55057W        W28125  18.163  16.487  11.654
55058W        W28126   6.864  41.971  10.266
55059W        W28127   9.849  17.985   1.864
55060W        W28128  44.938  25.644   2.196
55061W        W28129  17.416   6.339  11.443
55062W        W28130  42.290   3.875   2.172
55063W        W28131  16.180  34.337  13.748
55064W        W28132  25.161  43.558  12.026
55065W        W28133   0.046  39.083  11.578
55066W        W28134   7.140  28.648  14.468
55067W        W28135   4.835  18.321  12.912
55068W        W28136  15.643  18.445   2.277
55069W        W28137  19.083  23.293  13.010
55070W        W28138  18.563  14.580  12.128
55071W        W28139  25.184  21.947   0.805
55072W        W28140  40.311  38.553  11.139
55073W        W28141   1.740   5.515  12.540
55074W        W28142   2.226  30.240  11.569
55075W        W28143  15.604  25.678   1.611
55076W        W28144  42.513   9.970  12.380
55077W        W28145  18.494  32.001   4.965
55078W        W28146  21.698  10.451  11.847
55079W        W28147  12.376   7.500   1.840
55080W        W28148  37.631   9.847  12.345
55081W        W28149   9.805  22.652   2.683
55082W        W28150   6.766  24.604  13.215
55083W        W28151  44.768  18.277  12.488
55084W        W28152  40.540  39.851   3.271
55085W        W28153  37.686  32.063   4.063
55086W        W28154  32.568  40.793  10.354
55087W        W28155  12.378  18.980   0.434
55088W        W28156  10.167  35.749  14.027
55089W        W28157  44.670  20.138  13.433
55090W        W28158   4.413   9.753  11.457
55091W        W28159  33.264   2.939  14.314
55092W        W28160  42.166  38.555  13.859
55093W        W28161  23.779  21.128   2.841
55094W        W28162   5.833  28.493  13.638
55095W        W28163  42.130   3.442  11.191
55096W        W28164  11.437  30.192  11.413
55097W        W28165  35.959  39.108  10.588
55098W        W28166  12.998  32.962   2.224
55099W        W28167  44.836  36.138   5.024
55100W        W28168  39.307   3.456   2.823
55101W        W28169  42.576  17.888   2.037
55102W        W28170  43.319  36.281   1.393
55103W        W28171   9.699  34.460  12.851
55104W        W28172  40.396  36.497   4.140
55105W        W28173  18.666   5.152   1.724
55106W        W28174  13.812  27.724  11.161
55107W        W28175  33.150   4.040   2.214
55108W        W28176  12.250  42.494  14.479
55109W        W28177  32.026  41.541  12.847
55110W        W28178   6.228  40.387   3.765
55111W        W28179  28.270  33.343   3.185
55112W        W28180   5.873  25.352  12.522
55113W        W28181  24.642  11.673  13.790
55114W        W28182  28.617  23.988   3.175
55115W        W28183  29.978  22.780  12.684
55116W        W28184  10.015  34.529   2.785
55117W        W28185  40.134   0.369  12.473
55118W        W28186  24.763  39.463  14.012
55119W        W28187   1.238  25.113   2.148
55120W        W28188  27.482  18.019  11.985
55121W        W28189  37.695  14.521   3.599
55122W        W28190  32.401  21.683  11.920
55123W        W28191  25.555  22.812   1.482
55124W        W28192  35.279  11.162  13.406
55125W        W28193   3.490  16.612  11.070
55126W        W28194  22.734   4.848  12.943
55127W        W28195  31.582  28.572   0.275
55128W        W28196  16.711   2.617  11.007
55129W        W28197  11.152  18.534  10.300
55130W        W28198  36.023   2.451  10.723
55131W        W28199  37.550   4.731   2.406
55132W        W28200  29.163   9.968  13.423
55133W        W28201  34.803  38.621  14.003
55134W        W28202  33.077  41.474  10.880
55135W        W28203   0.749  36.290  13.372
55136W        W28204  38.423  30.193  10.868
55137W        W28205  24.121  32.027   2.290
55138W        W28206   5.312   1.023   1.618
55139W        W28207  28.324  22.979   5.033
55140W        W28208  28.093  28.883   3.039
55141W        W28209  24.460   3.435   4.230
55142W        W28210  14.694  13.038  10.758
55143W        W28211  18.279  18.465   2.839
55144W        W28212   2.125  28.629  12.913
55145W        W28213  14.324  20.943  10.670
55146W        W28214  36.799   9.292   1.706
55147W        W28215  19.844   5.445  14.250
55148W        W28216  22.790  17.710  10.750
55149W        W28217  40.614  36.573   1.478
55150W        W28218  20.287   3.000   1.115
55151W        W28219  18.036  22.056   1.510
55152W        W28220  15.019  13.728  13.051
55153W        W28221  23.253   2.482   1.442
55154W        W28222  37.251  16.084  13.509
55155W        W28223  10.657  40.562   2.819
55156W        W28224  20.072  44.517  11.100
55157W        W28225   8.333  16.229   2.500
55158W        W28226   2.412   4.752  12.300
55159W        W28227  24.411  34.185  11.139
55160W        W28228   4.710  41.839  11.905
55161W        W28229  44.246  29.901   1.841
55162W        W28230  32.569   1.715   2.391
55163W        W28231  15.001  19.476   0.816
55164W        W28232  37.103  16.940  13.340
55165W        W28233  24.520  23.566   4.600
55166W        W28234   3.138  15.715   0.848
55167W        W28235   9.028  33.713  14.506
55168W        W28236  23.211  31.023   3.110
55169W        W28237  33.368  22.012   1.967
55170W        W28238  42.510  43.448   4.645
55171W        W28239   9.200   7.499  11.030
55172W        W28240  21.369  22.796   0.086
55173W        W28241  18.097  29.874   0.489
55174W        W28242  34.584   0.050   1.398
55175W        W28243  26.113  15.776  11.973
55176W        W28244   0.446   0.979   1.357
55177W        W28245  19.672  26.349   2.321
55178W        W28246   1.554  43.351   3.741
55179W        W28247  41.334   9.911  13.762
55180W        W28248  29.450  26.654   2.373
55181W        W28249  41.853  43.831  11.813
55182W        W28250   6.617  28.208  12.899
55183W        W28251   7.449   1.457  12.026
55184W        W28252  35.044   4.823  12.153
55185W        W28253   5.332  34.871  13.995
55186W        W28254   1.830  11.871   5.131
55187W        W28255  35.125  31.586   2.618
55188W        W28256  14.581  23.404   3.757
55189W        W28257  29.412  18.439  11.813
55190W        W28258  40.317  23.810  10.263
55191W        W28259  25.121  11.255   1.201
55192W        W28260  27.583  14.031  11.627
55193W        W28261  28.595  35.604   2.700
55194W        W28262  37.053  41.082   3.292
55195W        W28263   2.393  42.960  13.125
55196W        W28264  11.470  20.736   1.830
55197W        W28265  24.766  23.526   3.190
55198W        W28266  37.887  35.483  12.948
55199W        W28267  44.828  37.357  13.583
55200W        W28268  30.528  32.594  14.723
55201W        W28269   3.867  11.717   0.328
55202W        W28270  24.514  32.567  10.407
55203W        W28271   1.262   3.359   4.934
55204W        W28272  27.748  15.238  13.865
55205W        W28273  15.740   9.697  12.949
55206W        W28274   0.691  35.721   3.769
55207W        W28275   6.771   4.839  13.042
55208W        W28276  18.534   0.233  14.887
55209W        W28277  38.119  28.974  13.870
55210W        W28278  34.936  30.467   2.837
55211W        W28279  32.699  32.789   3.628
55212W        W28280  10.141  39.216   0.387
55213W        W28281  15.119  18.272   2.213
55214W        W28282  26.361  24.099   2.776
55215W        W28283   9.518  44.958   2.665
55216W        W28284  12.127  24.076  10.720
55217W        W28285  34.941   7.308   3.891
55218W        W28286  19.578  18.279   3.620
55219W        W28287  24.675  42.862   4.059
55220W        W28288  29.417  15.877   0.348
55221W        W28289  41.825   1.675  12.082
55222W        W28290   3.326  30.959   2.787
55223W        W28291  31.626  34.946   2.210
55224W        W28292  19.132  41.083   0.984
55225W        W28293  14.864   9.797   1.870
55226W        W28294  42.091  28.608  13.546
55227W        W28295  43.709  35.842  14.002
55228W        W28296  34.001  16.287  12.944
55229W        W28297  29.909  23.676  13.052
55230W        W28298  41.368  40.648   4.025
55231W        W28299  23.719  23.468  14.404
55232W        W28300  31.432  33.337  13.991
55233W        W28301   2.499  38.987  14.194
55234W        W28302  40.345  24.979  13.959
55235W        W28303  12.740  17.949  12.265
55236W        W28304  10.796  40.169   4.153
55237W        W28305  35.643   2.710  12.528
55238W        W28306  10.236  44.355  14.492
55239W        W28307  25.396   9.086   3.192
55240W        W28308  15.865  16.272  13.463
55241W        W28309  35.787  38.129   0.296
55242W        W28310   4.513  37.904  14.582
55243W        W28311  25.920  30.585   1.526
55244W        W28312   9.896  37.871   2.676
55245W        W28313  40.817  20.295  11.100
55246W        W28314   5.283  27.974  11.189
55247W        W28315  29.441  14.663   0.809
55248W        W28316  35.621  10.242   5.008
55249W        W28317  19.082  21.079  13.519
55250W        W28318  37.754   0.610   4.094
55251W        W28319  29.025  37.476   1.793
55252W        W28320  10.611   8.304   4.332
55253W        W28321  12.433  18.629  11.643
55254W        W28322   2.228  25.212   0.022
55255W        W28323  11.241   2.940  12.795
55256W        W28324  33.311  33.865  10.588
55257W        W28325  22.397  14.118  10.416
55258W        W28326  18.489   4.682  12.493
55259W        W28327  43.402  14.345   3.943
55260W        W28328   8.410   2.745   1.988
55261W        W28329  20.531  42.395   1.308
55262W        W28330  26.283  19.086   3.287
55263W        W28331  32.705   7.364   3.567
55264W        W28332  29.159  34.871   2.792
55265W        W28333  30.941  43.916   0.810
55266W        W28334   9.708  27.457  11.617
55267W        W28335   8.512  29.171  13.847
55268W        W28336  37.163  17.850   4.158
55269W        W28337   1.684  12.683  12.414
55270W        W28338  10.183   0.610   3.264
55271W        W28339  38.806   8.560   5.074
55272W        W28340  13.347  41.456  11.502
55273W        W28341  24.342   3.674  13.309
55274W        W28342  38.328  30.171   4.585
55275W        W28343  30.658  16.223  11.954
55276W        W28344  26.162  21.831   3.391
55277W        W28345  16.534  29.692  13.340
55278W        W28346  13.250  28.367  13.872
55279W        W28347  37.105  20.794  13.997
55280W        W28348   0.404  17.634   0.355
55281W        W28349  14.258   8.343  13.010
55282W        W28350  11.872  30.778  13.069
55283W        W28351  25.681  25.154  14.968
55284W        W28352   5.289  15.204   1.269
55285W        W28353  38.680   0.833   1.817
55286W        W28354  17.513   8.339  13.845
55287W        W28355  25.481  36.942   2.955
55288W        W28356  23.975  36.463   0.148
55289W        W28357  12.643   5.056   1.680
55290W        W28358   1.751  14.143   0.263
55291W        W28359  25.219  31.645   1.511
55292W        W28360  14.820   3.403   3.110
55293W        W28361   4.757  18.231  14.820
55294W        W28362  38.911   5.392   0.858
55295W        W28363  19.736  34.539  11.614
55296W        W28364   4.864   5.349  12.876
55297W        W28365  22.653   0.241   0.992
55298W        W28366  40.574  38.453  10.714
55299W        W28367  19.262   4.759  10.131
55300W        W28368  21.311  38.059   4.041
55301W        W28369  14.239   7.769   1.623
55302W        W28370   3.540  38.207  11.164
55303W        W28371  30.027  11.036  10.767
55304W        W28372  37.256   1.836  14.463
55305W        W28373  22.139  26.805  14.545
55306W        W28374  40.345  31.385  13.044
55307W        W28375  17.120  11.324  12.547
55308W        W28376   9.005  37.680  11.424
55309W        W28377  37.749  34.976  14.755
55310W        W28378  20.621  23.713  13.565
55311W        W28379   8.227   7.683  12.914
55312W        W28380  42.736  43.213   4.231
55313W        W28381  17.465  36.052  11.966
55314W        W28382  20.616  12.872   0.680
55315W        W28383   4.396   5.772  14.663
55316W        W28384  15.750  13.552  10.502
55317W        W28385  25.162  10.322   5.089
55318W        W28386  39.051  37.604  10.132
55319W        W28387  20.040   8.903   3.194
55320W        W28388  15.164  24.488  11.504
55321W        W28389  15.731  15.120  12.580
55322W        W28390   4.247   2.554   0.251
55323W        W28391  19.986  42.917  11.723
55324W        W28392  22.670   7.951   0.331
55325W        W28393  35.914  30.985   2.427
55326W        W28394  30.060   0.724   2.879
55327W        W28395  26.192  39.325  13.438
55328W        W28396  11.409   8.873   1.243
55329W        W28397  25.182  10.538   1.926
55330W        W28398  23.318  27.081  13.796
55331W        W28399  21.558  42.010   3.687
55332W        W28400  42.035  22.238   4.521
55333W        W28401  36.826  41.692  10.503
55334W        W28402  38.351  30.968  14.326
55335W        W28403  40.519  24.757  13.387
55336W        W28404   1.561  38.005  14.389
55337W        W28405  27.080  42.904   3.195
55338W        W28406  29.261  12.684   3.410
55339W        W28407  20.111  14.799   3.305
55340W        W28408  25.756   4.356   3.680
55341W        W28409   3.893  37.931   3.593
55342W        W28410  43.422   6.240  14.079
55343W        W28411  12.963  17.032  10.424
55344W        W28412  35.654  38.943   2.317
55345W        W28413   7.562  34.401  10.118
55346W        W28414  34.489  15.593  14.940
55347W        W28415  13.753  41.933   0.795
55348W        W28416  22.159  36.892   2.331
55349W        W28417  23.157  40.268   3.634
55350W        W28418  28.360   7.883   4.200
55351W        W28419  31.381   2.932   1.923
55352W        W28420  23.155  23.942  12.459
55353W        W28421  34.452   8.866   0.580
55354W        W28422  14.180   5.123  10.294
55355W        W28423  28.521  37.621   3.341
55356W        W28424  20.618  34.091   2.340
55357W        W28425  19.130  35.996  12.193
55358W        W28426   5.412  43.750   0.867
55359W        W28427   8.966  37.656  10.914
55360W        W28428   8.819  26.462   1.757
55361W        W28429   2.758  17.093  11.569
55362W        W28430  15.635  36.005  10.656
55363W        W28431  23.447   2.739  13.043
55364W        W28432  12.118  13.176   4.822
55365W        W28433  36.040  16.124  11.391
55366W        W28434  15.145  11.730  13.896
55367W        W28435  29.075  27.140  10.703
55368W        W28436  37.179  18.998   2.853
55369W        W28437  40.341  33.511   4.153
55370W        W28438   0.891  26.152  14.056
55371W        W28439  11.054  24.159  12.394
55372W        W28440  30.163  14.851   3.157
55373W        W28441  44.935  31.322   0.343
55374W        W28442  40.465  42.785   1.221
55375W        W28443  35.445   8.530   0.179
55376W        W28444  28.175  17.819  14.401
55377W        W28445  37.268  24.044   4.049
55378W        W28446   1.356  20.963   1.297
55379W        W28447   9.923  17.478   1.699
55380W        W28448   8.846   6.759  13.539
55381W        W28449  21.680   6.872  12.098
55382W        W28450  19.010  19.503  10.570
55383W        W28451  29.054  38.437   3.718
55384W        W28452  27.202  11.680  13.748
55385W        W28453  17.660   8.823  14.011
55386W        W28454  24.471  21.166  10.738
55387W        W28455  42.007   5.513   2.550
55388W        W28456  42.095  14.884  13.495
55389W        W28457  20.784  42.943   4.670
55390W        W28458  13.600  24.132   1.869
55391W        W28459  16.700  27.250  12.898
55392W        W28460  36.544  27.513   1.208
55393W        W28461   9.250   7.305   4.167
55394W        W28462  44.739   1.444  14.360
55395W        W28463  23.920   9.924   2.724
55396W        W28464  25.174  34.152  12.503
55397W        W28465   2.282  14.584   3.355
55398W        W28466  27.876  27.973   0.307
55399W        W28467  25.272  35.205   3.455
55400W        W28468  32.373  37.841  11.005
55401W        W28469   2.899  17.850   2.681
55402W        W28470  33.950  34.103  12.156
55403W        W28471  40.173  26.195  12.597
55404W        W28472  40.430  42.760   4.954
55405W        W28473  42.408   3.974  13.460
55406W        W28474  29.038  11.213  10.143
55407W        W28475   0.682   2.775   4.618
55408W        W28476   6.236  29.839  10.157
55409W        W28477  40.789  34.539   3.391
55410W        W28478  24.144  28.389   2.656
55411W        W28479  16.652  12.693  13.174
55412W        W28480  31.516  33.563  14.744
55413W        W28481  32.039  40.129  11.553
55414W        W28482  14.759  35.261   3.196
55415W        W28483   2.109  35.504  10.603
55416W        W28484  10.932  41.586   2.502
55417W        W28485  11.107  19.609   0.488
55418W        W28486   8.729  22.276  13.406
55419W        W28487   0.281  39.814  13.869
55420W        W28488  27.882  32.659  11.087
55421W        W28489  29.143   5.450  11.572
55422W        W28490   6.357   3.628  12.069
55423W        W28491  44.761  15.896  13.835
55424W        W28492  26.643   2.394   4.679
55425W        W28493  20.359  41.901   1.365
55426W        W28494  32.572  17.794   3.756
55427W        W28495  18.250  43.858  12.583
55428W        W28496  44.385  19.833  12.853
55429W        W28497  10.703  13.002   2.153
55430W        W28498  34.340  43.841   0.529
55431W        W28499  22.628  44.999  12.496
55432W        W28500   4.464  19.084  10.693
55433W        W28501   1.801  23.506   0.420
55434W        W28502  37.896   7.416   0.843
55435W        W28503   8.200   5.813  10.805
55436W        W28504  10.547   6.847   1.367
55437W        W28505  36.188  36.044  10.261
55438W        W28506  44.935  36.846   3.836
55439W        W28507   9.865  22.662  14.444
55440W        W28508   9.579  23.090   3.949
55441W        W28509  28.013  26.508  13.504
55442W        W28510  32.906  27.402  14.049
55443W        W28511  17.985  24.169  12.156
55444W        W28512  29.012   0.350  14.039
55445W        W28513   8.913  13.556  12.942
55446W        W28514  39.908  20.287   3.958
55447W        W28515   6.335  33.307   0.329
55448W        W28516  30.574  16.213  13.958
55449W        W28517  25.738  22.171  10.628
55450W        W28518   3.841  24.456   3.307
55451W        W28519  34.113  39.879   4.536
55452W        W28520  37.862  20.754  14.346
55453W        W28521  23.080  18.139   0.726
55454W        W28522  28.526  17.131   3.665
55455W        W28523  19.756   4.884   2.424
55456W        W28524  34.504   2.924   2.804
55457W        W28525  34.910   4.774   4.566
55458W        W28526  12.730  31.532   3.792
55459W        W28527  21.630   4.662  13.368
55460W        W28528  36.960  29.999  11.658
55461W        W28529   3.420  14.677  14.835
55462W        W28530   6.748   4.607   2.969
55463W        W28531  41.872  11.106  14.423
55464W        W28532  18.843   7.230  14.543
55465W        W28533  40.288   2.043  13.976
55466W        W28534  28.153  17.706  11.502
55467W        W28535  19.792  29.550  14.273
55468W        W28536  30.120   7.028  12.056
55469W        W28537   9.600  26.153  12.768
55470W        W28538  38.960   7.934   4.281
55471W        W28539  17.690  16.318   4.215
55472W        W28540  41.253  38.600  14.100
55473W        W28541  32.138  40.608  11.377
55474W        W28542  28.912  29.376   1.867
55475W        W28543   1.466  14.135   4.031
55476W        W28544  33.882  36.793   3.731
55477W        W28545  11.910  11.877   4.605
55478W        W28546  20.814   1.013  10.744
55479W        W28547  26.074  37.025  13.091
55480W        W28548  27.231  33.606   2.908
55481W        W28549   9.781  32.204   4.442
55482W        W28550  43.773   5.135   3.553
55483W        W28551  21.187  19.475  11.577
55484W        W28552  19.178  23.619  10.638
55485W        W28553  17.029  19.717   0.168
55486W        W28554   2.633  39.952  14.271
55487W        W28555  25.951  40.856   1.317
55488W        W28556  39.408  13.946   1.139
55489W        W28557   8.974  36.338  11.730
55490W        W28558   6.722  11.430  13.346
55491W        W28559  30.259  16.621   1.315
55492W        W28560  33.865  28.508  11.713
55493W        W28561  15.797  38.329   0.479
55494W        W28562  42.906  41.047   1.785
55495W        W28563  11.665   6.369   3.631
55496W        W28564  30.137  16.718  14.503
55497W        W28565  27.674  23.226   1.002
55498W        W28566  28.075  26.915  14.349
55499W        W28567  21.232  19.176   1.799
55500W        W28568   4.971  10.166  13.001
55501W        W28569  18.266  29.820  11.164
55502W        W28570  20.693   6.420   4.723
55503W        W28571   2.477  25.486  12.913
55504W        W28572  40.576  34.115   4.531
55505W        W28573  34.060  12.883  13.413
55506W        W28574  23.028  14.707   2.956
55507W        W28575  35.471  20.064   0.776
55508W        W28576   5.487  37.014   0.736
55509W        W28577  32.972  10.410  14.667
55510W        W28578  30.146  36.623   2.598
55511W        W28579  44.178  26.618   4.161
55512W        W28580  17.895  37.624  10.636
55513W        W28581  23.429  14.714  11.148
55514W        W28582  26.143  35.498   0.269
55515W        W28583  32.881  15.171  10.360
55516W        W28584  14.425  33.382   3.362
55517W        W28585   5.396  22.152  11.708
55518W        W28586  29.823  40.574   2.942
55519W        W28587   2.021  43.327   2.364
55520W        W28588  14.817  23.794   2.061
55521W        W28589  16.308  19.240  12.163
55522W        W28590   4.308  35.859  14.552
55523W        W28591  27.512  34.243  10.746
55524W        W28592   8.837  29.372   3.361
55525W        W28593  35.875  28.443  12.846
55526W        W28594  35.281  43.953   0.440
55527W        W28595  24.189   3.550  11.599
55528W        W28596  22.870  41.358  11.400
55529W        W28597   0.885  30.842   3.397
55530W        W28598  10.281  35.336  11.645
55531W        W28599  41.291  33.001   2.202
55532W        W28600  41.493  28.253  11.549
55533W        W28601  14.958  12.406  12.571
55534W        W28602  27.332  13.070  12.547
55535W        W28603  12.791   4.207  10.958
55536W        W28604  44.757  34.881  14.479
55537W        W28605  24.876  19.563   0.999
55538W        W28606   8.759   4.760  12.807
55539W        W28607  16.840  16.233   1.302
55540W        W28608   8.063  27.192   0.837
55541W        W28609   0.969  25.522   2.345
55542W        W28610  44.698  23.285   4.075
55543W        W28611  32.935  43.832   3.641
55544W        W28612  25.035  37.901   5.072
55545W        W28613  20.437   8.250  12.444
55546W        W28614  21.769  12.664  11.453
55547W        W28615  31.675  25.966   4.250
55548W        W28616   6.764  43.805  11.983
55549W        W28617  18.306  43.412   1.824
55550W        W28618   6.782  18.200   0.349
55551W        W28619  17.064  13.248   0.870
55552W        W28620  28.653  15.310   0.975
55553W        W28621  27.176   3.341  10.931
55554W        W28622  23.695   7.557   2.178
55555W        W28623  18.632  30.047   1.233
55556W        W28624   2.442   9.097  11.178
55557W        W28625  22.562  19.790  13.015
55558W        W28626  41.175  38.756   3.569
55559W        W28627  26.658   2.673   4.196
55560W        W28628  39.946  29.641  12.020
55561W        W28629  10.901   4.706  10.902
55562W        W28630   7.627  30.925  12.712
55563W        W28631  35.580  40.864   4.760
55564W        W28632  22.220  20.638  11.239
55565W        W28633  25.553  37.990  14.880
55566W        W28634  20.796  24.652  13.830
55567W        W28635  24.731   6.213   2.527
55568W        W28636  22.232  26.221   1.845
55569W        W28637  26.357  27.324  13.762
55570W        W28638  29.648  25.977  13.064
55571W        W28639  44.471  21.187  14.310
55572W        W28640  24.296  44.156  11.949
55573W        W28641  10.333  37.295   2.175
55574W        W28642  11.891  38.445  14.804
55575W        W28643   2.036  21.759   1.886
55576W        W28644  37.965   4.432   2.327
55577W        W28645  27.963   2.698  13.067
55578W        W28646  40.365  24.707   2.795
55579W        W28647  34.497  34.634  14.902
55580W        W28648  27.946  30.955  11.948
55581W        W28649   6.345  40.040  12.823
55582W        W28650  41.430  30.518   2.336
55583W        W28651  21.253  22.026   1.938
55584W        W28652   0.896  23.093  12.131
55585W        W28653  25.402  23.516   0.796
55586W        W28654  35.559   9.672  14.131
55587W        W28655   4.842   3.008  13.394
55588W        W28656  36.854  17.556   0.973
55589W        W28657  14.361  39.340   0.260
55590W        W28658  18.022  15.735  12.424
55591W        W28659  31.116  26.932  13.529
55592W        W28660  28.585  41.451   2.439
55593W        W28661   2.378  20.009  14.764
55594W        W28662  15.831  18.120  14.999
55595W        W28663  19.329   3.797   0.754
55596W        W28664  10.722  27.841  12.133
55597W        W28665  44.298  30.158   3.228
55598W        W28666  14.773  37.404   1.720
55599W        W28667  12.668  33.082   3.418
55600W        W28668  26.603  25.630   0.517
55601W        W28669  37.348   5.758   3.718
55602W        W28670  33.903  16.645  11.316
55603W        W28671   7.242  21.821   0.608
55604W        W28672   6.438  18.611  11.448
55605W        W28673  43.165  40.506   5.065
55606W        W28674  24.910   8.361   1.463
55607W        W28675  25.336  43.373  12.909
55608W        W28676  29.556   7.178   1.802
55609W        W28677  19.833  39.098  14.518
55610W        W28678  17.583  26.223   1.805
55611W        W28679  23.813  42.088  11.105
55612W        W28680  37.370  30.486   4.147
55613W        W28681  29.479  14.635  14.932
55614W        W28682   2.801  27.460   2.218
55615W        W28683  11.897  12.172   3.350
55616W        W28684   2.272  21.751   0.985
55617W        W28685  16.247  10.726   4.482
55618W        W28686  37.695  23.993   5.045
55619W        W28687  14.334  26.080  14.409
55620W        W28688  32.881  27.711   3.336
55621W        W28689   3.374  29.210  10.566
55622W        W28690  36.837  15.087  11.561
55623W        W28691  22.089  22.194   0.293
55624W        W28692  22.081  35.042   4.765
55625W        W28693   6.553  14.689   4.639
55626W        W28694   8.726  33.295   1.622
55627W        W28695  17.618  18.737  13.386
55628W        W28696  42.257  19.560  13.086
55629W        W28697  27.452  33.985  14.366
55630W        W28698  11.016  35.986  13.535
55631W        W28699  40.878   5.084   4.651
55632W        W28700  11.312  27.230  12.134
55633W        W28701  38.891  40.941   0.522
55634W        W28702  19.068  26.159  13.281
55635W        W28703   0.082  17.718   1.732
55636W        W28704   5.651  38.996   0.412
55637W        W28705  40.511  43.928  13.156
55638W        W28706  22.679  28.917  12.864
55639W        W28707  36.037  44.443  14.409
55640W        W28708  35.070  30.911   2.105
55641W        W28709  40.575   6.312   3.342
55642W        W28710  36.187  28.884  12.008
55643W        W28711   3.773  43.237   2.487
55644W        W28712  29.167   6.456  13.458
55645W        W28713  13.563  35.076   3.712
55646W        W28714  32.605   1.417   1.282
55647W        W28715   6.801  44.502   2.267
55648W        W28716  16.161   2.916   3.656
55649W        W28717  27.179  16.752  14.823
55650W        W28718  42.497  36.063  12.488
55651W        W28719   1.461  26.452  11.120
55652W        W28720  38.345  20.076  13.920
55653W        W28721   7.950  21.095   3.970
55654W        W28722   1.938  25.396  14.323
55655W        W28723  25.842  13.675  12.565
55656W        W28724   7.838   5.431  10.820
55657W        W28725  19.800  14.746  13.286
55658W        W28726  27.937  19.228   1.750
55659W        W28727   6.393  22.019   0.719
55660W        W28728  41.248   0.518   2.514
55661W        W28729  44.166  12.190   0.496
55662W        W28730   3.906  41.828   1.398
55663W        W28731  25.962  41.333   2.606
55664W        W28732  38.948  39.141   2.471
55665W        W28733   7.872  34.451  10.570
55666W        W28734  39.454  22.049   0.010
55667W        W28735   8.614   7.999  11.657
55668W        W28736  23.935  11.194  13.829
55669W        W28737  42.574  21.261   3.691
55670W        W28738  27.076  26.649   1.252
55671W        W28739   5.666  25.211  10.997
55672W        W28740  19.634   9.189  12.597
55673W        W28741  13.371  22.461   3.725
55674W        W28742  18.116  22.694  13.326
55675W        W28743  16.795   0.399  10.641
55676W        W28744  18.315   0.352  14.393
55677W        W28745  40.309  22.668   0.729
55678W        W28746  27.448  43.288   3.267
55679W        W28747  25.467   7.772   2.469
55680W        W28748  25.692  34.411  13.330
55681W        W28749  23.487  26.946   1.838
55682W        W28750  12.698  34.950  12.005
55683W        W28751  18.958  40.957  13.362
55684W        W28752   5.245  22.482  13.371
55685W        W28753  27.995   3.672  13.008
55686W        W28754   6.427  14.309  10.801
55687W        W28755  34.419  32.776   0.509
55688W        W28756   1.690  39.445  14.091
55689W        W28757  17.181  12.289  10.711
55690W        W28758  21.061   9.055  10.622
55691W        W28759  15.824  14.324  14.697
55692W        W28760  13.266   8.566  14.416
55693W        W28761   3.183  28.674  13.381
55694W        W28762  19.774  31.570  13.347
55695W        W28763  24.160  15.813  10.936
55696W        W28764  20.240  44.698   0.943
55697W        W28765  11.580  43.472  10.360
55698W        W28766   3.474  22.032   0.525
55699W        W28767  33.967  15.768  14.836
55700W        W28768  17.342  15.770   0.608
55701W        W28769  21.676   7.730   1.395
55702W        W28770  38.440  40.443  14.371
55703W        W28771  42.561  40.515   2.593
55704W        W28772  34.385  32.630  12.496
55705W        W28773  21.110  41.852   4.467
55706W        W28774  40.237  25.224   5.050
55707W        W28775  16.184   1.375   2.212
55708W        W28776  15.183  26.022   1.501
55709W        W28777   3.805  44.234   1.921
55710W        W28778  32.708  14.340   4.582
55711W        W28779  34.651  18.785  14.016
55712W        W28780  28.202  10.306  14.423
55713W        W28781  44.173  44.969  12.638
55714W        W28782  39.552  19.261  11.169
55715W        W28783  34.883  26.107  12.911
55716W        W28784  44.738  16.741  14.378
55717W        W28785  42.866  32.385  13.468
55718W        W28786  42.383  33.919  12.398
55719W        W28787  13.120  26.949  10.271
55720W        W28788  39.534  42.484  11.176
55721W        W28789  12.242  18.585   4.714
55722W        W28790  31.803   3.905   0.376
55723W        W28791  17.954  39.298  12.488
55724W        W28792   2.304  14.342  11.198
55725W        W28793  34.745   8.100   0.488
55726W        W28794  26.424  34.025   1.464
55727W        W28795  35.283  12.819   3.206
55728W        W28796  23.965  12.100  12.045
55729W        W28797  43.856  25.924   3.809
55730W        W28798  24.755  23.967   3.649
55731W        W28799   6.425  20.192   0.392
55732W        W28800  39.463  36.507   3.583
55733W        W28801  35.601  10.787  13.572
55734W        W28802  15.086  17.412   0.864
55735W        W28803  28.345  31.635   0.439
55736W        W28804  13.516  16.834  11.276
55737W        W28805  14.778  22.557   0.778
55738W        W28806  31.700  14.241  12.497
55739W        W28807  36.143  43.157  13.233
55740W        W28808   4.803   5.035   4.722
55741W        W28809  33.739  25.128   2.612
55742W        W28810  30.646  41.757   0.796
55743W        W28811  32.331  25.637   0.265
55744W        W28812  43.233  30.293   1.780
55745W        W28813  12.696  26.927   1.975
55746W        W28814  28.566  33.867  12.662
55747W        W28815  24.511  24.808  12.123
55748W        W28816  19.990  43.439  11.975
55749W        W28817  31.399  22.548  14.724
55750W        W28818  19.541  25.678  14.455
55751W        W28819   3.167  19.231  11.909
55752W        W28820  33.632  35.440   1.791
55753W        W28821  17.132  19.655   4.075
55754W        W28822  38.973  19.378   2.309
55755W        W28823  37.385  31.871   9.839
55756W        W28824  39.298  22.182  11.026
55757W        W28825  44.044  31.938  11.392
55758W        W28826   0.282   3.426   1.714
55759W        W28827  40.587  25.478  14.113
55760W        W28828  14.732  37.442  12.064
55761W        W28829  10.372   7.799  13.753
55762W        W28830   0.968  23.611   3.708
55763W        W28831   9.414   2.003   3.789
55764W        W28832  38.221   6.004   3.184
55765W        W28833  36.548  32.704   0.342
55766W        W28834  40.024   9.488   3.204
55767W        W28835  32.376   8.229   1.201
55768W        W28836  30.769  37.920   1.538
55769W        W28837  34.513  29.684   2.703
55770W        W28838   1.372  31.458   1.819
55771W        W28839   7.123  24.499  11.901
55772W        W28840  25.414  42.528   2.194
55773W        W28841  18.699  29.607   0.382
55774W        W28842  28.603   3.986   0.698
55775W        W28843  35.061  44.557  11.380
55776W        W28844  38.508  28.540   2.245
55777W        W28845   0.981   9.974  14.326
55778W        W28846   8.872  42.349   3.853
55779W        W28847  44.265   0.412   4.462
55780W        W28848  16.527  25.086   3.386
55781W        W28849   2.367   5.049  11.870
55782W        W28850   5.406  35.863  13.374
55783W        W28851  17.148  32.028  10.831
55784W        W28852  16.736  11.328   4.601
55785W        W28853  30.048  19.800   3.346
55786W        W28854  30.441  40.271  13.755
55787W        W28855   2.780  15.740  10.316
55788W        W28856  32.021  33.846   1.002
55789W        W28857  26.663  18.005   1.807
55790W        W28858  42.343  34.441  12.574
55791W        W28859  38.503  14.326  11.594
55792W        W28860  27.485   9.619  12.013
55793W        W28861   7.318   5.251  10.833
55794W        W28862   3.318  21.698   0.877
55795W        W28863  15.626  26.021  12.978
55796W        W28864  23.616  16.112  10.948
55797W        W28865  14.256  29.432   2.403
55798W        W28866  11.771   0.388  11.508
55799W        W28867  44.376  25.223   3.275
55800W        W28868  26.981  38.115   0.501
55801W        W28869  44.400  33.869  11.001
55802W        W28870  22.442  40.809  12.907
55803W        W28871   4.822  28.834   0.951
55804W        W28872  40.322  13.676  10.980
55805W        W28873   9.416   1.823  11.015
55806W        W28874  39.456  16.655  12.616
55807W        W28875  30.428  44.373  11.193
55808W        W28876  19.205  40.418   0.460
55809W        W28877   6.846   8.763   4.244
55810W        W28878  19.741  39.248   2.831
55811W        W28879  21.542  43.236   2.502
55812W        W28880  35.385  25.566  12.470
55813W        W28881  23.456  11.617   2.931
55814W        W28882  27.645  13.667   1.265
55815W        W28883  26.726  11.206  11.518
55816W        W28884  18.356  17.266   2.369
55817W        W28885  17.991  43.995   2.190
55818W        W28886  42.130   0.372  12.505
55819W        W28887   4.941  30.255   1.771
55820W        W28888  14.588  34.612  11.179
55821W        W28889  36.021  11.030   3.136
55822W        W28890  26.921  25.545   3.678
55823W        W28891  41.796  33.283   0.795
55824W        W28892  30.671  39.593  10.769
55825W        W28893  11.516  29.138  14.986
55826W        W28894  40.140  16.890  12.856
55827W        W28895  13.930   8.779   4.610
55828W        W28896  24.257  17.470  12.085
55829W        W28897  18.396   5.181  13.861
55830W        W28898  40.437  20.992   2.260
55831W        W28899   7.127  18.733  13.378
55832W        W28900  44.966  21.669   3.191
55833W        W28901  27.419   0.308   3.096
55834W        W28902  33.129  19.053  13.118
55835W        W28903  28.880  10.862  10.556
55836W        W28904   1.759  30.914  11.558
55837W        W28905  22.869  32.553   0.423
55838W        W28906  23.961  38.652   2.727
55839W        W28907  38.535   1.258  13.392
55840W        W28908  17.179  24.530   3.819
55841W        W28909  30.707  43.632  13.280
55842W        W28910  42.585  39.027   0.830
55843W        W28911  33.294  42.038   4.980
55844W        W28912  38.943  25.288  12.049
55845W        W28913   0.756  31.678   2.136
55846W        W28914   1.126  44.900  10.423
55847W        W28915   2.008  39.342   1.807
55848W        W28916  35.451   5.181  11.877
55849W        W28917  14.500  36.084  12.902
55850W        W28918  33.983  18.993  11.464
55851W        W28919  36.813   2.682   4.031
55852W        W28920  21.588  20.503  13.900
55853W        W28921  37.934   3.315  13.515
55854W        W28922  36.947  21.485  13.442
55855W        W28923  23.246  13.829   2.442
55856W        W28924  37.391  28.990  12.525
55857W        W28925  37.597   5.843  11.222
55858W        W28926  44.937  23.237  13.479
55859W        W28927  27.065   6.471   4.267
55860W        W28928  33.497  36.900   4.851
55861W        W28929  42.889  19.238  12.102
55862W        W28930  23.144   0.736   4.291
55863W        W28931  31.527   0.924  10.862
55864W        W28932  39.259  41.249  14.797
55865W        W28933  16.313  23.680   2.775
55866W        W28934  27.070  39.510   0.861
55867W        W28935   9.376  33.423  14.827
55868W        W28936  16.708  29.348  11.977
55869W        W28937  37.357  20.238  13.797
55870W        W28938  33.658   0.258   3.647
55871W        W28939   9.611   0.562  11.598
55872W        W28940   6.947  33.149  11.998
55873W        W28941  18.638  43.678   4.731
55874W        W28942  27.236  27.941  10.101
55875W        W28943  36.414  34.354   4.252
55876W        W28944   6.706   5.960  11.187
55877W        W28945  42.488  26.060  11.559
55878W        W28946  10.848   9.837  10.501
55879W        W28947  28.160  30.657   3.663
55880W        W28948  43.806  24.428   3.762
55881W        W28949  31.955  14.013   5.001
55882W        W28950  41.701  32.251   0.849
55883W        W28951  41.669  28.033  10.236
55884W        W28952  37.036   9.007   2.202
55885W        W28953  32.335  32.980  13.958
55886W        W28954  26.427  43.989   0.259
55887W        W28955  36.775   1.451   0.924
55888W        W28956  30.735  24.174  14.997
55889W        W28957   9.745  23.138  11.647
55890W        W28958  36.497   3.628   1.414
55891W        W28959  30.144  25.434   0.732
55892W        W28960  29.767   2.992   3.524
55893W        W28961  43.051  11.407   0.344
55894W        W28962  21.693   6.307   2.997
55895W        W28963   1.383  39.846  11.176
55896W        W28964  26.029  31.122  14.771
55897W        W28965   2.312  39.747   1.645
55898W        W28966  17.633  32.927   2.680
55899W        W28967  19.246  27.012  10.708
55900W        W28968  34.084  15.725  13.887
55901W        W28969  15.161   9.201   4.398
55902W        W28970  32.011  31.794   1.424
55903W        W28971  36.078  32.427  11.066
55904W        W28972  27.130  19.194   4.113
55905W        W28973  21.200  41.603  12.321
55906W        W28974  40.036  13.773   3.302
55907W        W28975  25.796   9.887  11.108
55908W        W28976  34.640  40.462   0.424
55909W        W28977  14.865  34.101  14.000
55910W        W28978  29.472   1.939   0.026
55911W        W28979   6.627   8.237   2.213
55912W        W28980   0.504  22.655   3.831
55913W        W28981   8.617  44.639   3.843
55914W        W28982  37.428  39.372  10.334
55915W        W28983  24.796  13.817  14.983
55916W        W28984   4.325  26.921   1.304
55917W        W28985  25.035  15.739   3.414
55918W        W28986   4.617  18.887   2.196
55919W        W28987  44.972  35.851   1.429
55920W        W28988  44.730  34.058  10.602
55921W        W28989  12.411  16.003  12.320
55922W        W28990  15.191  38.120   3.358
55923W        W28991  24.671   5.912  12.210
55924W        W28992  21.106   3.654   4.234
55925W        W28993  39.074  19.769  13.547
55926W        W28994  34.911  15.793   2.141
55927W        W28995  34.012  15.799   4.022
55928W        W28996   3.464  12.935   1.872
55929W        W28997  35.730  17.449   2.378
55930W        W28998  14.578  15.604   2.883
55931W        W28999  10.291  39.606   0.720
55932W        W29000   8.802  24.621   0.897
55933W        W29001  24.142  20.261   1.351
55934W        W29002  26.454   4.432   2.236
55935W        W29003  38.964  42.428   5.000
55936W        W29004  22.661  32.888   4.291
55937W        W29005  21.048  32.057  14.286
55938W        W29006  29.401  44.827  10.865
55939W        W29007   4.734  38.967   3.231
55940W        W29008  14.955   4.906  14.007
55941W        W29009  35.550   0.776  13.071
55942W        W29010   2.265  32.431   2.917
55943W        W29011  32.225  27.631  14.363
55944W        W29012  34.664  31.797   5.414
55945W        W29013  16.806  36.993   2.706
55946W        W29014  17.967  27.819  11.469
55947W        W29015  33.564   9.348   3.592
55948W        W29016  13.740  35.944   2.503
55949W        W29017   5.410   6.341   4.151
55950W        W29018  35.568  28.679  14.837
55951W        W29019  41.433   8.737  14.903
55952W        W29020  41.528   4.012   3.673
55953W        W29021  20.057  44.954   0.551
55954W        W29022   3.389  31.421  14.419
55955W        W29023  16.784   9.343   3.665
55956W        W29024  21.476  20.012   3.809
55957W        W29025  40.110   4.337  13.999
55958W        W29026  11.783   1.871  10.540
55959W        W29027  13.845  13.194  13.074
55960W        W29028  35.355   9.358   2.878
55961W        W29029  18.044  17.661   1.794
55962W        W29030  15.995  13.729   1.465
55963W        W29031   3.733  39.457  13.914
55964W        W29032   8.880  36.916  12.990
55965W        W29033  25.038  23.651  10.978
55966W        W29034  37.575   4.674  13.814
55967W        W29035   0.953  13.665  13.143
55968W        W29036   9.662  44.330   4.609
55969W        W29037  14.769  28.539   1.951
55970W        W29038  38.772  26.069  14.257
55971W        W29039  37.202   4.963  14.392
55972W        W29040   2.602   4.309   0.508
55973W        W29041  21.077  17.907   0.012
55974W        W29042  16.924  25.749   3.716
55975W        W29043  22.526  29.565  14.897
55976W        W29044  34.535  31.759   4.638
55977W        W29045   0.843  37.771  10.665
55978W        W29046  42.966  16.059   1.394
55979W        W29047  15.470  11.729  10.742
55980W        W29048  27.825  22.145  12.686
55981W        W29049   5.211  32.991  12.442
55982W        W29050  43.339   8.688  13.134
55983W        W29051  30.858  28.203  11.088
55984W        W29052  29.423  10.880  10.614
55985W        W29053  37.999  43.007   4.048
55986W        W29054  24.133  19.563  11.763
55987W        W29055  11.725  28.916  14.317
55988W        W29056   9.273  43.420   1.012
55989W        W29057  34.837  25.978   3.345
55990W        W29058   9.382   6.304  13.048
55991W        W29059  29.498   4.437  13.136
55992W        W29060  20.573  23.945   1.857
55993W        W29061  17.975  31.628  11.452
55994W        W29062   9.237   5.209  14.382
55995W        W29063  34.990  29.214   4.254
55996W        W29064  26.502  18.190   1.326
55997W        W29065  33.007  26.325  11.673
55998W        W29066   8.306  15.158  11.274
55999W        W29067  34.605  18.085  10.638
56000W        W29068  23.268  34.508   2.924
56001W        W29069   8.316  39.818   1.424
56002W        W29070   8.882  39.440  11.510
56003W        W29071  18.662  23.283  12.672
56004W        W29072   9.973  17.592   2.217
56005W        W29073  10.709  43.856   1.141
56006W        W29074   8.598  10.289  10.756
56007W        W29075  27.487  28.043  12.036
56008W        W29076  44.627  15.445  11.438
56009W        W29077  21.724  11.269   4.970
56010W        W29078  39.150  17.726  11.451
56011W        W29079   0.030   1.909  13.428
56012W        W29080  26.352  11.739  10.183
56013W        W29081   4.663  28.001   0.435
56014W        W29082  22.105   4.406   4.797
56015W        W29083  12.269  32.040   3.211
56016W        W29084  15.345  13.854   3.771
56017W        W29085  23.447  20.567  11.488
56018W        W29086   3.720  38.104  14.840
56019W        W29087  24.709  12.862   1.938
56020W        W29088   0.859   4.252   4.188
56021W        W29089  40.538  34.447  12.634
56022W        W29090  10.222  44.945  13.378
56023W        W29091  25.000   4.451   4.273
56024W        W29092  38.874  10.706   0.386
56025W        W29093   5.219  40.530  13.422
56026W        W29094  43.434  41.351   5.051
56027W        W29095   4.945  27.281  13.514
56028W        W29096  35.954  14.927  13.494
56029W        W29097   6.206   2.127  13.481
56030W        W29098  36.662   0.486  11.907
56031W        W29099  29.213  17.983   0.756
56032W        W29100   8.696  28.387   4.197
56033W        W29101  14.827  40.504  14.232
56034W        W29102  21.636  36.073  14.091
56035W        W29103   2.336  12.036  10.886
56036W        W29104  35.802  29.170  12.191
56037W        W29105  13.329  23.124   0.933
56038W        W29106   8.201  38.956  11.337
56039W        W29107  12.244  33.980   3.168
56040W        W29108  37.870  30.467  14.780
56041W        W29109  42.709  36.347   1.001
56042W        W29110  16.311  10.624  12.473
56043W        W29111  44.735  20.032  14.933
56044W        W29112  21.752  11.818  10.908
56045W        W29113   9.814  10.124   0.721
56046W        W29114   9.765  18.795   2.576
56047W        W29115  19.710   6.352   4.827
56048W        W29116  23.356  16.366   2.762
56049W        W29117   0.049   7.192  11.128
56050W        W29118  21.257  44.858   4.120
56051W        W29119  17.735  20.839  13.400
56052W        W29120   1.392  35.898   0.298
56053W        W29121  22.756  33.673   3.815
56054W        W29122  23.078  37.937   0.737
56055W        W29123   5.180  44.582  10.765
56056W        W29124  12.254  24.069  14.640
56057W        W29125   6.220   3.810   3.438
56058W        W29126  33.305  29.609   4.550
56059W        W29127  14.149  11.674  14.450
56060W        W29128  37.593  27.621   3.373
56061W        W29129  44.319   6.180   4.524
56062W        W29130  39.788  41.450   2.891
56063W        W29131  24.985  11.721  10.521
56064W        W29132  26.306  43.820  11.568
56065W        W29133  18.349   6.799   4.990
56066W        W29134  15.901  17.028   5.245
56067W        W29135  14.142  41.026   3.185
56068W        W29136  24.211  14.466  13.180
56069W        W29137  39.988  37.243   4.501
56070W        W29138   2.289  18.311   2.920
56071W        W29139  25.931  22.026   3.817
56072W        W29140  33.913  16.516   0.873
56073W        W29141   0.963  36.993  14.803
56074W        W29142   0.783  21.353   2.376
56075W        W29143  13.355  28.656  12.443
56076W        W29144  42.468   4.194   1.369
56077W        W29145   1.248  21.694  14.961
56078W        W29146  37.042  39.075   2.305
56079W        W29147  10.259  21.180   3.620
56080W        W29148  10.088  39.357  11.993
56081W        W29149  26.763  42.964  11.641
56082W        W29150  14.186  23.489  10.715
56083W        W29151  33.545  40.382   4.207
56084W        W29152   3.918  32.609  14.494
56085W        W29153  18.660   2.818   0.233
56086W        W29154   1.722  16.808  10.411
56087W        W29155  26.415  12.281  11.150
56088W        W29156  18.182  39.856  13.743
56089W        W29157   3.342  32.649   2.117
56090W        W29158   9.622  12.826   1.611
56091W        W29159  26.955  25.918   0.273
56092W        W29160  32.567  11.655  12.057
56093W        W29161  19.324  10.781   0.521
56094W        W29162  30.585   9.774   4.909
56095W        W29163  35.190  41.406  12.329
56096W        W29164  40.039  34.665  14.987
56097W        W29165   7.100  31.406   2.738
56098W        W29166  19.703  34.277   2.638
56099W        W29167   6.638   1.535  11.584
56100W        W29168  17.620  40.522  11.036
56101W        W29169   2.038  23.960  13.528
56102W        W29170   1.760  11.359   4.439
56103W        W29171  44.383  37.569   4.742
56104W        W29172  36.789  10.625   1.341
56105W        W29173   3.699   9.321   0.820
56106W        W29174  17.616  44.178   1.802
56107W        W29175  20.113   7.613  13.804
56108W        W29176   6.298   9.332  12.903
56109W        W29177  26.923   3.217  14.294
56110W        W29178   8.527  10.674  13.159
56111W        W29179  19.595  36.872   0.733
56112W        W29180  17.763  33.437   1.294
56113W        W29181   0.249  28.560   0.438
56114W        W29182  27.962  18.806   1.426
56115W        W29183  19.185   3.322   4.286
56116W        W29184   5.283  29.416  12.526
56117W        W29185   9.832  14.586  13.783
56118W        W29186  20.241  41.040   0.845
56119W        W29187  41.154  36.763   4.580
56120W        W29188  14.298  35.328  11.758
56121W        W29189  40.548  11.551   0.975
56122W        W29190  25.347  39.293   3.279
56123W        W29191  14.170  30.714  14.871
56124W        W29192  31.502   8.451   3.861
56125W        W29193  38.756   8.313   1.567
56126W        W29194   7.746  17.073   3.201
56127W        W29195  17.576  37.937   1.814
56128W        W29196  42.400  12.888   3.228
56129W        W29197  39.279   1.524   0.789
56130W        W29198  26.083  42.902   2.102
56131W        W29199   9.419  39.385  13.076
56132W        W29200  18.639  39.430   4.594
56133W        W29201  19.268  15.741   4.181
56134W        W29202  25.970  28.055   1.370
56135W        W29203  39.872  20.796  13.058
56136W        W29204  32.041  19.160  12.108
56137W        W29205  44.547  41.557   2.530
56138W        W29206   2.353   8.133  12.995
56139W        W29207  16.106  30.068   4.596
56140W        W29208  34.366  23.158   0.019
56141W        W29209  17.137  12.191   1.469
56142W        W29210  21.561   1.436  11.912
56143W        W29211   1.283  41.968   3.177
56144W        W29212  17.232  40.273  11.323
56145W        W29213  33.905  25.132   1.739
56146W        W29214  42.067  24.775   4.045
56147W        W29215   7.850  37.053  14.577
56148W        W29216   9.888   7.305  12.537
56149W        W29217  33.411   9.655  12.854
56150W        W29218  28.184  41.237   3.266
56151W        W29219  42.323  17.908   3.975
56152W        W29220  19.205  26.228  11.179
56153W        W29221  28.895  39.466   2.901
56154W        W29222   8.840  40.992  11.602
56155W        W29223  24.151  43.382   2.866
56156W        W29224  34.358  30.480  13.862
56157W        W29225  18.470  26.493   0.399
56158W        W29226   5.371  40.537  14.843
56159W        W29227   8.324  26.095  10.660
56160W        W29228  15.544  30.008  12.411
56161W        W29229  29.694  18.528  10.958
56162W        W29230  30.055  39.929   2.338
56163W        W29231  11.388   7.638  10.573
56164W        W29232   8.443  13.342   3.231
56165W        W29233  22.976   2.444   2.406
56166W        W29234  29.001   4.610  13.344
56167W        W29235  42.291  30.101  14.347
56168W        W29236  29.532  32.050  11.577
56169W        W29237   3.221   5.970  12.105
56170W        W29238  35.821  34.492   0.051
56171W        W29239  22.547  32.963   0.465
56172W        W29240  11.059  44.886  14.589
56173W        W29241  30.676  20.223  12.510
56174W        W29242  40.948   7.107  11.960
56175W        W29243  34.631  11.172  11.562
56176W        W29244  31.422  14.480  13.773
56177W        W29245  17.435   6.771   3.907
56178W        W29246  44.013  15.337   3.749
56179W        W29247  28.143   8.842  13.790
56180W        W29248  14.552  34.028  13.521
56181W        W29249  34.841  32.456   4.996
56182W        W29250  33.640  19.565   1.216
56183W        W29251  32.449  43.237   4.627
56184W        W29252  25.888   5.404  11.118
56185W        W29253  27.947  27.202  11.493
56186W        W29254  15.065  25.525   1.647
56187W        W29255  43.252  28.180  12.013
56188W        W29256  11.996  32.118  13.767
56189W        W29257  16.015  37.671   4.019
56190W        W29258  18.530  32.338  11.566
56191W        W29259  31.772  28.883   3.677
56192W        W29260   2.230  25.567   2.776
56193W        W29261  11.924  26.487  14.350
56194W        W29262   4.624  44.348   1.711
56195W        W29263  14.394  11.127   0.454
56196W        W29264  35.895   6.862  11.994
56197W        W29265  44.957  37.165   3.436
56198W        W29266  38.507  14.843  13.158
56199W        W29267   7.759   3.318  10.170
56200W        W29268  33.296  33.103  10.979
56201W        W29269  14.586   0.852   2.863
56202W        W29270  37.117  18.277   1.596
56203W        W29271   1.274  43.905  14.696
56204W        W29272  42.923  32.141  10.713
56205W        W29273  40.086  38.338  11.558
56206W        W29274  35.263  13.007   0.818
56207W        W29275  26.068  25.006   1.525
56208W        W29276  12.735  42.548   1.998
56209W        W29277  29.530  24.708   0.880
56210W        W29278  13.683   0.858  12.615
56211W        W29279  18.202  20.700  13.583
56212W        W29280  44.943   3.448   1.237
56213W        W29281  21.749  28.038   2.570
56214W        W29282   0.576  30.661  12.803
56215W        W29283  44.220  23.751  13.868
56216W        W29284  25.222   9.387  11.945
56217W        W29285   9.456   6.840  14.340
56218W        W29286  35.439  15.577  14.546
56219W        W29287  10.352  25.052  12.904
56220W        W29288  12.039  19.547   1.133
56221W        W29289  42.992   1.920  11.467
56222W        W29290  32.092  35.908  12.385
56223W        W29291  24.981  27.171   2.657
56224W        W29292  16.599   5.483  10.628
56225W        W29293   0.380   9.230   3.864
56226W        W29294   3.241  26.926  11.919
56227W        W29295  27.720  34.464   1.774
56228W        W29296  19.095  44.263   5.163
56229W        W29297  27.238   4.771  11.018
56230W        W29298  31.571  21.025   0.712
56231W        W29299  34.409  30.982   3.231
56232W        W29300  42.357  21.147  10.636
56233W        W29301  17.995  14.957  11.017
56234W        W29302  34.561  44.883  12.899
56235W        W29303  10.178   0.697  10.627
56236W        W29304  35.081  38.522  13.157
56237W        W29305  25.995  18.521  10.681
56238W        W29306   3.199  14.033  11.143
56239W        W29307  30.615  10.702   2.727
56240W        W29308  18.295  22.765  11.980
56241W        W29309  31.014  33.896   1.874
56242W        W29310   9.977  36.042  13.144
56243W        W29311  21.592  16.814  11.804
56244W        W29312   5.669   5.730  14.630
56245W        W29313  23.602  28.843  11.182
56246W        W29314   6.604  12.262   2.261
56247W        W29315  32.858   4.158   4.081
56248W        W29316   1.930  13.429   1.217
56249W        W29317  18.323   3.721  12.927
56250W        W29318  24.025   8.394   0.228
56251W        W29319  28.016  25.639  12.344
56252W        W29320   3.171  44.907  13.336
56253W        W29321   0.162   9.282  12.558
56254W        W29322  13.097  20.015  13.460
56255W        W29323  12.243   9.950   4.802
56256W        W29324  22.305  21.204  10.228
56257W        W29325  15.074  32.486   3.371
56258W        W29326  32.817   3.236  14.376
56259W        W29327  18.753   6.758   2.316
56260W        W29328  32.976  30.414  12.583
56261W        W29329  25.541  37.350   1.586
56262W        W29330  10.913  10.694  14.391
56263W        W29331   3.190  26.160  12.688
56264W        W29332   4.311  41.302   0.048
56265W        W29333  27.218  16.717   2.259
56266W        W29334  24.147  11.609  12.043
56267W        W29335  32.709  37.397   0.751
56268W        W29336  43.570  19.269   4.646
56269W        W29337   7.796  16.723  11.369
56270W        W29338  22.612   1.962  13.077
56271W        W29339  29.039  31.464  10.410
56272W        W29340  14.792  40.232   4.133
56273W        W29341   5.593   8.391   0.316
56274W        W29342  39.464  18.091  12.383
56275W        W29343  27.720  15.621  14.517
56276W        W29344  11.110   2.872  13.398
56277W        W29345  16.655  20.580  14.782
56278W        W29346   1.505  18.438   2.832
56279W        W29347  16.718   7.149   3.916
56280W        W29348  40.038  15.373  10.266
56281W        W29349   3.271  23.226  11.776
56282W        W29350  41.444  27.382  11.001
56283W        W29351  37.977  41.400   4.392
56284W        W29352   1.533   7.337  13.239
56285W        W29353  42.280  28.221  11.186
56286W        W29354  26.198  36.211   2.719
56287W        W29355  43.052   1.720  14.827
56288W        W29356  33.122   7.803  11.988
56289W        W29357  11.072  23.005  11.633
56290W        W29358   9.600  32.843  12.132
56291W        W29359  22.289  36.910   4.871
56292W        W29360  21.837  35.047   0.797
56293W        W29361  12.917  10.843   0.939
56294W        W29362  16.073  36.043  13.971
56295W        W29363   5.942  15.892   1.395
56296W        W29364  22.078  24.076  10.659
56297W        W29365  25.212  30.605   4.733
56298W        W29366  25.656  16.224   4.471
56299W        W29367   7.895  42.937   3.266
56300W        W29368  44.188   4.250  12.003
56301W        W29369  21.679  31.125  10.677
56302W        W29370  39.788   4.879   0.310
56303W        W29371  13.946  23.202  13.395
56304W        W29372   6.704  25.038   1.324
56305W        W29373   4.889  39.763  14.823
56306W        W29374   8.083  16.758   4.637
56307W        W29375  12.265  11.900  12.985
56308W        W29376  22.046   8.573  12.202
56309W        W29377  42.983  22.053  11.583
56310W        W29378   9.729  24.900  14.712
56311W        W29379   3.726  35.115   1.087
56312W        W29380   8.718  26.056  13.206
56313W        W29381  43.669  28.157   1.405
56314W        W29382  18.637  28.606  12.658
56315W        W29383  18.770  30.917  14.831
56316W        W29384  44.462  31.098  14.956
56317W        W29385  35.833   9.786   4.900
56318W        W29386   0.016  37.311   0.346
56319W        W29387  24.099   6.804  13.769
56320W        W29388  28.028   5.244  14.302
56321W        W29389  19.213  24.365  13.322
56322W        W29390  44.639  18.034   0.881
56323W        W29391   4.504  41.524  12.891
56324W        W29392  10.187  18.623   4.086
56325W        W29393  15.782  33.497  11.142
56326W        W29394  10.316  27.489  14.258
56327W        W29395  27.998  17.750  10.676
56328W        W29396   9.548  39.792  10.204
56329W        W29397  21.574   6.794   1.868
56330W        W29398  24.640  16.984   5.091
56331W        W29399  37.533  39.533  11.362
56332W        W29400   9.628   2.325  10.967
56333W        W29401   9.352  12.074  13.735
56334W        W29402  22.360  44.870   4.561
56335W        W29403  10.837  24.140  14.512
56336W        W29404  22.520  43.315  12.838
56337W        W29405  38.606   7.379   1.756
56338W        W29406  44.494  18.717  12.407
56339W        W29407  18.688  19.773   1.462
56340W        W29408   0.297   1.055  13.796
56341W        W29409  16.685  23.282   0.704
56342W        W29410  19.491   0.671   1.694
56343W        W29411  33.962  32.537   4.408
56344W        W29412  30.175  38.338   3.290
56345W        W29413   1.333  39.478  11.778
56346W        W29414  35.378   9.765   3.214
56347W        W29415  15.112  15.806   2.675
56348W        W29416  31.241  32.061   4.135
56349W        W29417  20.575  27.581  12.427
56350W        W29418  26.130  36.356  13.953
56351W        W29419  27.012  15.845   1.262
56352W        W29420  10.325  30.617  11.136
56353W        W29421   4.054  23.311   4.224
56354W        W29422  42.432  25.436  10.801
56355W        W29423  33.463  40.051   0.229
56356W        W29424   8.465  40.281  11.851
56357W        W29425  34.612  39.718   4.635
56358W        W29426  44.625   8.948  11.343
56359W        W29427  17.136  11.249   0.016
56360W        W29428  15.108   2.898  11.088
56361W        W29429  19.672  40.539   3.284
56362W        W29430   8.130  41.472   1.972
56363W        W29431  24.272  38.604   2.296
56364W        W29432  29.517  17.146   0.883
56365W        W29433   0.663  23.064  14.306
56366W        W29434  27.774   9.143  14.022
56367W        W29435  42.843  20.541   2.354
56368W        W29436  31.390   1.760   3.033
56369W        W29437  32.523   3.864  11.357
56370W        W29438  14.672  15.766  13.620
56371W        W29439  11.144   8.016  10.870
56372W        W29440  30.195   9.798  13.001
56373W        W29441  41.472  22.947   2.109
56374W        W29442   7.181   7.145   0.048
56375W        W29443  37.555  44.500  11.116
56376W        W29444  43.279   1.783  11.878
56377W        W29445  14.725  35.993   1.325
56378W        W29446   9.877  12.365  11.923
56379W        W29447  39.416  22.195   1.460
56380W        W29448  24.088  10.393   0.899
56381W        W29449  20.364   1.473  12.625
56382W        W29450   9.316  22.796   3.575
56383W        W29451  13.483   6.448   2.544
56384W        W29452   8.664  23.423  12.126
56385W        W29453  37.595  15.158   2.200
56386W        W29454  18.345   7.315   0.276
56387W        W29455  25.990  44.985  11.478
56388W        W29456  31.986  13.206  12.021
56389W        W29457  15.962  17.897  10.383
56390W        W29458  25.680  13.908   1.994
56391W        W29459   3.044  41.360   1.207
56392W        W29460   4.983  24.931   2.247
56393W        W29461  26.070  15.892  11.490
56394W        W29462  20.564  25.530   2.949
56395W        W29463  34.942  44.358   9.870
56396W        W29464  19.407  42.638   5.062
56397W        W29465  19.810   3.249   2.798
56398W        W29466  14.373  29.156   1.290
56399W        W29467  32.199  32.893   3.328
56400W        W29468  32.547   4.732   3.680
56401W        W29469  32.489   9.854  13.403
56402W        W29470  30.239  28.785   3.951
56403W        W29471  30.138  10.432   1.851
56404W        W29472  39.730  22.072  13.272
56405W        W29473  35.957  31.995   0.022
56406W        W29474  37.721  14.768  10.654
56407W        W29475  30.903   2.954  11.189
56408W        W29476   7.707  36.337   1.936
56409W        W29477  12.192   2.714   2.910
56410W        W29478  13.971   0.264  11.119
56411W        W29479   1.250   4.951   0.502
56412W        W29480  29.999  14.635   1.845
56413W        W29481  15.544  42.804  12.477
56414W        W29482   6.853   6.628   0.418
56415W        W29483  18.618  41.193   1.263
56416W        W29484  41.832  18.402   4.545
56417W        W29485  28.246   7.713   4.709
56418W        W29486  21.119  31.499   2.209
56419W        W29487  40.021  28.090   3.772
56420W        W29488   8.084  15.292   1.093
56421W        W29489  40.781   2.510  12.427
56422W        W29490  22.178  39.554  11.494
56423W        W29491  35.574  30.444  10.573
56424W        W29492  18.034  42.382  11.034
56425W        W29493  34.337  37.981  10.677
56426W        W29494  10.112  34.734   4.946
56427W        W29495  15.034   3.378  13.837
56428W        W29496  10.259  22.342  11.599
56429W        W29497  12.022  12.824   3.101
56430W        W29498  37.472  40.996   3.795
56431W        W29499  42.821  35.909  12.941
56432W        W29500   9.194  13.548  10.659
56433W        W29501  12.855  25.972   3.430
56434W        W29502  18.569   9.269  14.887
56435W        W29503  35.187  14.811   3.555
56436W        W29504  34.972  18.098  12.952
56437W        W29505  43.705  16.058  12.067
56438W        W29506   7.786  26.732  11.126
56439W        W29507  17.348  22.419  12.436
56440W        W29508   7.285  14.346   4.119
56441W        W29509   4.269  35.304  13.886
56442W        W29510  42.371  42.259   3.233
56443W        W29511  15.737   2.221   2.878
56444W        W29512  23.135   8.118   3.940
56445W        W29513  17.493  15.013   0.164
56446W        W29514  36.948  30.700   1.082
56447W        W29515   0.855  42.212   0.003
56448W        W29516  44.346  27.936  12.499
56449W        W29517   8.427  37.070  13.900
56450W        W29518  39.549  39.874   2.379
56451W        W29519  34.427  19.769  14.952
56452W        W29520  36.836  33.355  10.581
56453W        W29521  33.033   1.737   1.256
56454W        W29522  30.422  38.912  14.812
56455W        W29523   8.113   5.163   4.098
56456W        W29524  10.123  22.980   3.766
56457W        W29525   0.862  18.737  12.916
56458W        W29526  22.078  42.755   1.457
56459W        W29527  12.653  38.119  12.030
56460W        W29528  44.368  38.072  13.862
56461W        W29529  16.361  38.808  10.264
56462W        W29530  21.134  33.926   2.071
56463W        W29531   0.922  22.604  14.449
56464W        W29532   0.933   9.417   9.860
56465W        W29533  14.432  20.223  14.294
56466W        W29534  21.728  34.017   4.618
56467W        W29535  41.366  32.959  13.379
56468W        W29536  12.149   4.525   3.631
56469W        W29537  37.963  36.572   4.926
56470W        W29538  14.367  31.146   1.696
56471W        W29539  16.811   8.128  13.563
56472W        W29540  11.364  18.896  11.221
56473W        W29541  35.532   2.710  10.776
56474W        W29542  42.242  32.179   3.821
56475W        W29543   5.866  23.534  11.985
56476W        W29544  16.864   0.932  11.115
56477W        W29545  34.955  36.622   1.195
56478W        W29546   0.185  11.226   3.097
56479W        W29547  30.470   6.620   1.670
56480W        W29548  42.672  43.605  11.799
56481W        W29549  24.067  23.055   3.308
56482W        W29550  18.948  12.201   0.227
56483W        W29551  10.080  38.014   3.678
56484W        W29552   3.583   2.875  12.865
56485W        W29553   5.659  39.956  11.884
56486W        W29554  24.000  13.569   4.514
56487W        W29555  42.474  41.691  10.460
56488W        W29556  19.378  18.415  12.882
56489W        W29557  43.052  28.553  11.028
56490W        W29558   4.486  21.177   0.408
56491W        W29559  24.548   6.155  13.106
56492W        W29560  25.576  28.381   0.059
56493W        W29561  22.067  22.237   1.412
56494W        W29562  21.538  37.041  14.907
56495W        W29563  13.207  18.783   4.587
56496W        W29564  17.267   2.522   4.995
56497W        W29565  11.111   6.281  13.371
56498W        W29566  31.827   5.413   3.734
56499W        W29567  21.185  41.413   0.525
56500W        W29568  24.734   3.661   1.689
56501W        W29569  23.716   5.879   0.723
56502W        W29570  14.931  22.781   0.337
56503W        W29571   9.716   1.777   2.421
56504W        W29572  29.113  22.642   2.841
56505W        W29573  24.435  35.426   2.927
56506W        W29574  41.989  29.105  11.650
56507W        W29575  17.682  16.728  12.147
56508W        W29576  22.128  19.119   0.325
56509W        W29577   8.234  28.807  11.033
56510W        W29578  22.435  16.155   1.646
56511W        W29579   3.480  23.216   0.742
56512W        W29580  38.872   8.635  14.372
56513W        W29581   0.179  19.631  13.272
56514W        W29582  22.118  36.056   2.764
56515W        W29583   1.039  34.095  14.425
56516W        W29584  19.306  21.268  13.961
56517W        W29585  42.442  19.003  11.443
56518W        W29586  34.322  31.587   5.076
56519W        W29587  13.734  13.793   0.418
56520W        W29588  33.757  21.711  12.120
56521W        W29589   4.674  18.022   1.298
56522W        W29590  38.365  26.210   3.094
56523W        W29591   4.691  22.966  11.951
56524W        W29592  35.501  42.873  10.717
56525W        W29593  31.520  19.728  11.726
56526W        W29594   0.882  22.263   3.873
56527W        W29595  24.287  21.319   3.692
56528W        W29596   9.333   9.688  12.597
56529W        W29597  20.985  36.564  10.787
56530W        W29598  11.727  29.183   1.961
56531W        W29599   8.989   8.868   5.216
56532W        W29600  12.933  28.091   0.579
56533W        W29601  25.400  41.585   4.595
56534W        W29602  27.690  19.549   0.847
56535W        W29603  13.068  31.490  13.838
56536W        W29604  38.968  14.963  13.387
56537W        W29605  44.737  33.385   1.937
56538W        W29606  16.652   3.308   3.692
56539W        W29607   4.836  30.430   1.278
56540W        W29608  39.997  32.642   1.666
56541W        W29609  31.581  36.944  14.318
56542W        W29610  20.721  11.822  10.800
56543W        W29611   6.635   6.951   3.639
56544W        W29612  31.358  29.148   2.584
56545W        W29613  21.179  38.353  13.600
56546W        W29614  31.589  44.553  14.514
56547W        W29615  37.090  10.194   3.365
56548W        W29616  42.776  13.368  14.495
56549W        W29617  17.247   5.585   0.830
56550W        W29618   3.303  39.441   3.895
56551W        W29619  27.346  24.090   3.951
56552W        W29620  13.969  42.809   4.249
56553W        W29621  36.472  22.781   1.423
56554W        W29622  38.398  22.188  13.288
56555W        W29623   3.449  10.366  14.940
56556W        W29624   7.159  16.580   4.584
56557W        W29625  44.790  28.966   2.284
56558W        W29626   8.486  17.986  11.278
56559W        W29627   6.262  12.849   5.079
56560W        W29628  32.941  35.995   1.956
56561W        W29629  36.841   4.176  13.464
56562W        W29630  14.640   4.873  10.221
56563W        W29631  38.480  40.070  11.447
56564W        W29632  23.180   8.731   2.755
56565W        W29633  19.659   1.520  13.585
56566W        W29634  34.418  11.184   0.956
56567W        W29635  29.355  17.219   3.957
56568W        W29636  39.993   5.930  10.185
56569W        W29637  10.295  44.303  10.584
56570W        W29638  27.396  11.055  11.990
56571W        W29639   4.006   8.972  13.061
56572W        W29640  28.529  20.502   3.906
56573W        W29641  14.137  29.249   0.826
56574W        W29642  33.684  15.163  12.636
56575W        W29643   2.477  24.511   2.358
56576W        W29644  37.524  21.468   0.172
56577W        W29645   0.403  14.362  14.340
56578W        W29646  17.619  11.145   2.987
56579W        W29647  37.414  30.614  11.969
56580W        W29648  28.597  23.717  13.276
56581W        W29649   2.722  27.938  13.992
56582W        W29650  32.825  26.731   1.330
56583W        W29651  41.730  40.432  12.839
56584W        W29652  40.783   2.865   4.290
56585W        W29653  35.109  34.087  10.685
56586W        W29654   8.635  17.031  14.006
56587W        W29655  13.479   1.846   0.667
56588W        W29656  34.136  27.178  10.973
56589W        W29657  23.637  33.422   1.345
56590W        W29658  37.861   2.834  10.458
56591W        W29659  44.734  27.770  11.040
56592W        W29660  30.708  24.025  12.882
56593W        W29661  23.100  35.925  13.893
56594W        W29662   8.748  17.082   0.275
56595W        W29663  36.605   2.226   4.723
56596W        W29664  40.047  33.521  11.097
56597W        W29665  11.880  11.072   3.249
56598W        W29666  33.919   3.496   4.196
56599W        W29667   2.229  14.798   1.381
56600W        W29668  32.580   1.921   1.473
56601W        W29669  14.240   9.367   3.417
56602W        W29670  42.761   5.752  10.635
56603W        W29671  23.104  25.384  13.976
56604W        W29672  27.946  17.625   2.730
56605W        W29673  33.981   2.827  12.857
56606W        W29674  39.690   0.759   4.177
56607W        W29675   3.149  38.822  10.568
56608W        W29676  39.403  26.795   0.801
56609W        W29677  43.772  36.787  14.925
56610W        W29678  29.487  30.225  12.006
56611W        W29679  34.612  20.521  11.112
56612W        W29680  15.280  32.038  11.925
56613W        W29681   7.175  44.312   2.641
56614W        W29682  30.946   3.968  13.558
56615W        W29683  32.958  26.485   2.671
56616W        W29684  41.194  16.089  11.516
56617W        W29685  28.599  26.636   4.824
56618W        W29686  40.788  42.565   4.572
56619W        W29687  29.649   3.872   1.430
56620W        W29688   2.725  21.157   4.674
56621W        W29689   8.961  29.395  11.329
56622W        W29690  42.917  38.458  10.924
56623W        W29691   2.070  17.648  14.729
56624W        W29692  39.290  39.973   1.931
56625W        W29693   6.258  41.500   0.005
56626W        W29694  41.025   2.859  14.852
56627W        W29695  44.517  29.979   3.640
56628W        W29696  43.813  27.907   4.883
56629W        W29697  24.114   5.910  11.504
56630W        W29698  30.038  41.934  13.799
56631W        W29699  24.033  41.036  11.001
56632W        W29700  10.586  23.225   3.752
56633W        W29701  24.222  21.627  14.493
56634W        W29702  25.338  14.097   4.678
56635W        W29703  17.055  27.851   4.189
56636W        W29704   9.631  17.145   1.365
56637W        W29705  39.944   8.625   1.819
56638W        W29706  13.878  37.442  12.465
56639W        W29707  39.086  28.646  13.506
56640W        W29708   3.248  19.467  10.599
56641W        W29709   0.973   0.831   1.431
56642W        W29710  32.604   7.601  12.856
56643W        W29711  35.113  12.791  12.893
56644W        W29712  41.278   3.338  11.662
56645W        W29713   7.664  43.849   2.336
56646W        W29714  11.744  27.913  11.517
56647W        W29715  29.062  25.412  11.001
56648W        W29716  43.217  33.128  12.861
56649W        W29717  38.514  44.076  12.196
56650W        W29718  40.990  40.135   3.149
56651W        W29719  17.634   1.469  12.978
56652W        W29720  25.818  17.024  13.841
56653W        W29721  39.525  13.595   0.235
56654W        W29722  34.921   8.536   2.858
56655W        W29723  23.157  27.209  14.591
56656W        W29724  12.767  18.455  14.887
56657W        W29725   4.172  26.806   4.128
56658W        W29726  22.728  40.060   2.263
56659W        W29727   0.640  31.729  11.929
56660W        W29728  28.541  26.451  12.040
56661W        W29729  23.027  16.212   4.018
56662W        W29730   4.434  42.881  13.037
56663W        W29731  27.441  39.910  10.496
56664W        W29732  35.393  36.151  12.496
56665W        W29733   9.300  21.508   1.453
56666W        W29734  31.062  21.005   2.713
56667W        W29735  42.448  30.588  14.507
56668W        W29736  30.423  14.665  12.357
56669W        W29737  24.013  16.631   1.837
56670W        W29738  14.737  39.331   3.784
56671W        W29739  28.929  40.221   1.677
56672W        W29740  39.590   6.363   1.767
56673W        W29741  19.549  20.025  13.790
56674W        W29742  40.814  17.069  14.052
56675W        W29743  26.693  28.539  12.904
56676W        W29744   1.324   7.814   4.804
56677W        W29745  25.382  35.595  13.490
56678W        W29746  29.212  38.352  13.333
56679W        W29747  25.721  27.970  14.298
56680W        W29748  23.504   9.132  11.119
56681W        W29749   1.936  22.098   3.832
56682W        W29750   1.436  31.203   0.321
56683W        W29751  33.765  20.339   2.288
56684W        W29752  30.620  25.147  12.082
56685W        W29753  18.308  39.854  13.252
56686W        W29754  19.523  13.537  13.554
56687W        W29755  11.664  25.765  10.325
56688W        W29756  15.613   9.419  13.808
56689W        W29757  17.852  40.762   2.910
56690W        W29758  18.131  18.972   2.761
56691W        W29759  36.540  32.631  11.173
56692W        W29760  12.059  11.518  12.367
56693W        W29761   0.342  43.244   0.151
56694W        W29762  16.598  42.174   1.796
56695W        W29763  36.058  29.951   0.353
56696W        W29764  38.846   3.493  10.721
56697W        W29765  24.709   5.243   0.737
56698W        W29766  33.156  17.557  12.109
56699W        W29767  42.220  42.042   2.337
56700W        W29768   1.865  21.924  10.586
56701W        W29769   5.770  25.482   1.662
56702W        W29770   5.798   6.767   4.108
56703W        W29771  19.005  27.932   3.419
56704W        W29772  18.762  27.718  11.081
56705W        W29773  17.544  24.431   1.311
56706W        W29774   0.227  31.348   2.962
56707W        W29775  21.930  21.276   2.876
56708W        W29776   7.348  32.122   1.166
56709W        W29777   9.576  20.551  13.899
56710W        W29778  12.629   1.957  11.212
56711W        W29779  15.300  14.366  10.617
56712W        W29780   5.189  38.069  12.059
56713W        W29781  17.653  36.714  13.383
56714W        W29782  33.516  20.179  13.100
56715W        W29783  21.257  37.460   5.351
56716W        W29784  43.955  15.224  14.051
56717W        W29785  18.195   3.862  13.460
56718W        W29786  44.959  39.824   0.308
56719W        W29787  29.062   4.748  10.255
56720W        W29788  44.781  33.565  11.202
56721W        W29789  32.085  18.675   1.861
56722W        W29790  40.881   1.560  12.821
56723W        W29791   6.821  17.190   3.715
56724W        W29792  33.933  28.528  10.630
56725W        W29793  13.796   8.879  10.487
56726W        W29794  15.391   3.889  10.055
56727W        W29795  28.059  41.971   4.543
56728W        W29796  12.646   5.721   0.006
56729W        W29797  18.558  33.149  11.453
56730W        W29798  37.015  13.305  12.934
56731W        W29799  33.104  24.623   1.858
56732W        W29800   2.774  34.869  14.500
56733W        W29801  37.489  44.580  14.072
56734W        W29802  11.891  31.456   4.309
56735W        W29803   3.721  15.767  10.509
56736W        W29804   0.217   7.740  14.962
56737W        W29805   0.994  13.586   4.520
56738W        W29806   0.337   5.211   0.689
56739W        W29807  21.519  19.511  10.659
56740W        W29808  22.688   7.720  14.869
56741W        W29809  38.566   3.874  14.882
56742W        W29810  35.537  34.147   0.868
56743W        W29811  11.710  33.685  12.561
56744W        W29812  10.914  18.148  14.243
56745W        W29813  33.188  43.209   1.836
56746W        W29814  44.137   8.307   3.203
56747W        W29815   6.351  37.545  13.864
56748W        W29816  24.488   4.744   3.026
56749W        W29817  16.362  40.153  11.575
56750W        W29818  38.038   1.646  14.729
56751W        W29819  11.749   1.378  14.397
56752W        W29820  42.621  37.801   0.458
56753W        W29821   5.676  28.100  12.487
56754W        W29822  37.951  32.455  10.806
56755W        W29823  13.292  18.077  11.515
56756W        W29824  31.541  24.532  14.354
56757W        W29825  32.237  25.120  14.839
56758W        W29826  17.235  44.684   2.311
56759W        W29827  35.391  20.025  12.562
56760W        W29828  39.350  21.950   3.711
56761W        W29829  44.522   7.429   4.258
56762W        W29830  32.498  14.801  14.472
56763W        W29831  42.579  16.094  10.732
56764W        W29832   9.975  29.020   0.214
56765W        W29833   7.807  11.170  11.651
56766W        W29834  29.667  17.768   1.349
56767W        W29835   5.255   8.713   3.161
56768W        W29836   9.231  43.579   4.753
56769W        W29837  29.537  42.846   1.915
56770W        W29838  24.171  18.734  12.751
56771W        W29839  30.553  14.194  13.435
56772W        W29840  31.071  27.360   4.251
56773W        W29841  44.650  25.228  14.974
56774W        W29842  27.371  18.180  13.490
56775W        W29843  29.622  41.979   1.389
56776W        W29844  41.245  44.236  10.735
56777W        W29845  23.075  42.431  13.560
56778W        W29846  44.335  30.233  11.983
56779W        W29847   7.852  22.259  14.923
56780W        W29848  42.779  18.549  10.758
56781W        W29849  42.495   9.628   2.249
56782W        W29850  21.988   0.207   2.223
56783W        W29851  22.246   5.319  11.550
56784W        W29852  18.932   6.985  14.065
56785W        W29853  41.990  21.265  12.979
56786W        W29854   5.186  12.634  12.108
56787W        W29855   1.716  43.497  14.369
56788W        W29856  34.044  42.900   0.897
56789W        W29857  37.826  32.153  12.977
56790W        W29858  37.941  39.598  11.049
56791W        W29859  17.068  29.606   1.319
56792W        W29860  30.126  25.947   4.856
56793W        W29861  14.991  44.449  12.310
56794W        W29862  34.122  11.196  11.419
56795W        W29863  12.660  16.999  14.943
56796W        W29864  35.844  37.878   3.802
56797W        W29865  12.756  36.177  14.826
56798W        W29866  20.841  13.606   2.500
56799W        W29867   6.207  23.520   1.032
56800W        W29868  22.320  38.768   2.135
56801W        W29869  43.476  41.787   1.828
56802W        W29870  11.211  34.862  13.985
56803W        W29871   8.848  33.170  11.125
56804W        W29872   5.157   3.870   3.595
56805W        W29873   7.395  29.626   0.434
56806W        W29874  10.931  44.007   3.561
56807W        W29875   1.918  26.441  13.353
56808W        W29876  14.263  24.541   4.185
56809W        W29877  16.671  27.239   1.799
56810W        W29878   4.464  37.446  11.443
56811W        W29879  12.173   8.813   4.538
56812W        W29880  40.967   4.060  12.380
56813W        W29881  11.190  35.445  12.607
56814W        W29882  24.833  17.218  11.221
56815W        W29883  34.640  23.413   4.686
56816W        W29884   9.572  38.402  11.476
56817W        W29885  23.227  19.083   3.284
56818W        W29886   7.314  21.045  13.909
56819W        W29887  30.411  13.009  11.916
56820W        W29888  24.315  30.090   2.276
56821W        W29889   4.541  28.996   1.365
56822W        W29890   3.192   9.741   4.881
56823W        W29891  41.934   4.824   0.040
56824W        W29892  19.224  18.905  11.221
56825W        W29893  21.779  31.090   3.702
56826W        W29894  21.029  35.166   0.356
56827W        W29895  29.197   1.249   1.942
56828W        W29896  18.672  35.663   4.076
56829W        W29897  11.865  31.127   3.570
56830W        W29898   1.368  33.913  13.074
56831W        W29899  28.061   5.689  10.563
56832W        W29900  30.525   2.702   2.351
56833W        W29901  10.378  39.429  12.460
56834W        W29902  43.530  12.365  11.049
56835W        W29903  20.572   1.565  13.876
56836W        W29904   9.718  24.699   4.592
56837W        W29905  33.946  17.600   2.808
56838W        W29906  31.890  26.747  14.239
56839W        W29907   8.926  43.931   2.726
56840W        W29908  41.868  36.348   0.999
56841W        W29909  28.192  35.755  12.035
56842W        W29910  18.987   1.867   1.930
56843W        W29911  26.529  23.036  10.745
56844W        W29912  10.671   4.408  12.456
56845W        W29913  14.670  28.151  11.387
56846W        W29914  24.020  44.921  12.458
56847W        W29915  17.668  13.492  13.259
56848W        W29916  11.865  17.262  13.352
56849W        W29917  39.022  14.409   3.788
56850W        W29918  38.054  10.589   3.291
56851W        W29919  36.606   3.314   5.016
56852W        W29920  34.187  26.757   2.314
56853W        W29921  37.408  37.888   4.723
56854W        W29922  22.798  28.529  11.535
56855W        W29923  22.104  11.159  10.483
56856W        W29924  27.507  38.799   2.620
56857W        W29925  14.218  42.181  13.369
56858W        W29926  17.681  18.730   0.712
56859W        W29927   4.229  40.723  14.158
56860W        W29928  21.152   5.638  10.603
56861W        W29929  11.234  27.462  12.593
56862W        W29930  17.331  19.552  11.027
56863W        W29931  16.352  21.220  13.959
56864W        W29932  38.073  18.761  13.340
56865W        W29933  34.909  40.475   5.110
56866W        W29934  28.130   6.227  14.749
56867W        W29935  39.425  15.754  13.293
56868W        W29936  21.979  26.305  12.104
56869W        W29937  20.645   9.910   2.685
56870W        W29938  15.316  18.394   3.746
56871W        W29939  41.889  16.582   4.116
56872W        W29940  37.896   8.915   1.884
56873W        W29941   5.871  37.303  14.925
56874W        W29942  28.868  32.489  13.756
56875W        W29943  19.620  42.536   2.805
56876W        W29944  44.563  31.002  12.471
56877W        W29945  29.187   3.926   1.192
56878W        W29946   3.010  36.048  11.590
56879W        W29947   9.122  22.685   9.939
56880W        W29948   6.249  18.746  12.929
56881W        W29949  44.738  12.386  14.895
56882W        W29950   9.243  19.587  10.377
56883W        W29951   1.756  27.480   4.067
56884W        W29952  25.701  21.878   1.672
56885W        W29953  23.002  31.702   0.682
56886W        W29954  33.840   0.250   0.413
56887W        W29955  37.020  10.001   0.920
56888W        W29956   6.777  19.649  12.678
56889W        W29957  37.970   6.051  11.590
56890W        W29958  43.993  15.169  14.984
56891W        W29959  39.917  44.945   2.832
56892W        W29960  40.322   7.926   4.174
56893W        W29961  34.560  17.714  14.178
56894W        W29962  18.793  30.954   4.608
56895W        W29963   3.594  18.558   0.246
56896W        W29964  34.654  39.483   1.285
56897W        W29965   8.153  37.972  13.952
56898W        W29966  44.483  37.282   0.338
56899W        W29967  19.762  44.720  10.675
56900W        W29968  38.380  29.245   4.993
56901W        W29969  18.719  24.448   2.766
56902W        W29970  15.616  30.007   0.466
56903W        W29971  26.600  20.887  14.112
56904W        W29972  38.344  16.345  12.862
56905W        W29973  32.638  42.858  12.936
56906W        W29974   9.311  10.848  10.681
56907W        W29975  21.520  15.752   2.439
56908W        W29976  16.494  30.964   2.781
56909W        W29977  41.450  44.601  14.433
56910W        W29978  39.301   1.510   3.135
56911W        W29979  32.371  34.883  11.861
56912W        W29980   4.671   7.437   1.226
56913W        W29981  35.417  16.279   1.405
56914W        W29982  22.805  25.722   3.741
56915W        W29983   3.278  15.022   1.234
56916W        W29984  28.480  29.412   0.351
56917W        W29985  33.764  12.201   0.195
56918W        W29986   0.968   0.623   2.808
56919W        W29987  14.127   4.319   3.637
56920W        W29988   1.496  39.306   1.928
56921W        W29989   3.739  20.506   2.704
56922W        W29990  21.969  44.374  13.997
56923W        W29991  22.979  25.614  12.028
56924W        W29992  35.378  20.227  14.450
56925W        W29993  16.288  10.616  11.933
56926W        W29994  23.993   9.962   3.586
56927W        W29995  24.108   6.870   0.260
56928W        W29996   3.618  27.078   0.340
56929W        W29997  16.066  37.497   1.476
56930W        W29998  35.360  39.031  11.458
56931W        W29999  36.033  39.328   2.735
56932W        W30000   1.883  17.679  10.988
56933W        W30001  10.152  34.083   3.326
56934W        W30002  12.118  30.525  10.460
56935W        W30003  42.282   7.327   3.324
56936W        W30004  21.106   8.110   2.524
56937W        W30005  27.978  34.025   1.960
56938W        W30006   1.499  30.685   0.334
56939W        W30007  23.121  20.800   0.784
56940W        W30008   5.318  39.022  12.046
56941W        W30009   7.431  28.911  12.849
56942W        W30010  32.674  34.304   1.762
56943W        W30011  24.555  13.799  11.121
56944W        W30012  42.364  34.337   4.699
56945W        W30013  25.659   1.948  13.043
56946W        W30014   5.668  16.936  14.329
56947W        W30015  39.720   7.243  12.964
56948W        W30016  38.088  31.552  12.495
56949W        W30017  28.677  10.847   1.687
56950W        W30018  15.098   9.613   3.643
56951W        W30019  13.201  28.178  14.742
56952W        W30020   5.879  13.297   4.878
56953W        W30021  22.179  29.926   4.291
56954W        W30022  42.370  32.053   4.828
56955W        W30023  14.598   8.097   4.635
56956W        W30024   3.721  11.862  11.672
56957W        W30025  30.402   6.130   1.842
56958W        W30026  44.774   6.167  14.031
56959W        W30027  19.617   0.032  14.199
56960W        W30028  11.229  35.777  13.995
56961W        W30029  35.295   1.666   3.694
56962W        W30030   7.405  17.989   3.816
56963W        W30031  28.909  41.061   3.686
56964W        W30032  12.249   5.924  13.953
56965W        W30033  16.310  41.873  14.608
56966W        W30034  44.923  10.012   2.395
56967W        W30035  36.989  21.464   4.160
56968W        W30036  42.896  15.635  12.891
56969W        W30037   1.984  38.919  14.159
56970W        W30038   8.377  27.962   2.356
56971W        W30039  36.120   3.307  14.461
56972W        W30040  12.770  41.976   2.800
56973W        W30041   9.764  25.841  10.632
56974W        W30042  26.761   4.666  11.909
56975W        W30043  11.785  12.573  14.098
56976W        W30044  39.017   5.286   2.380
56977W        W30045   9.828  23.551  10.982
56978W        W30046  28.618   2.613  11.560
56979W        W30047  30.151  34.103  12.006
56980W        W30048   1.920  21.581  12.501
56981W        W30049   4.819  16.614  10.453
56982W        W30050  38.309   7.061  10.796
56983W        W30051  14.312  31.370  11.551
56984W        W30052   6.127  13.852  13.945
56985W        W30053  10.124  32.495  11.300
56986W        W30054  17.084  23.491   5.335
56987W        W30055  35.155  38.683   2.295
56988W        W30056   4.652  31.436  14.905
56989W        W30057  35.990  28.518   4.741
56990W        W30058  10.836  17.127   4.765
56991W        W30059  15.727   5.689  11.331
56992W        W30060  22.668  29.834  14.471
56993W        W30061  27.573  26.934   3.264
56994W        W30062   1.399  44.775   2.081
56995W        W30063  29.387  23.793   5.239
56996W        W30064  43.157  43.607  13.533
56997W        W30065  10.540  22.670  12.594
56998W        W30066   4.241   2.281  14.351
56999W        W30067  34.373  37.909   3.877
57000W        W30068   0.953  24.142  14.782
57001W        W30069   3.849   6.239  14.341
57002W        W30070  11.125  37.103  11.437
57003W        W30071  10.394  17.564   1.453
57004W        W30072  29.073  28.822  14.228
57005W        W30073  29.396   2.451   1.283
57006W        W30074  44.144  16.244  14.732
57007W        W30075  35.616  17.841   4.797
57008W        W30076  22.072  29.618  12.021
57009W        W30077  18.633   9.761  13.408
57010W        W30078  44.569  17.827   4.655
57011W        W30079  35.209  40.388   4.081
57012W        W30080  23.495   3.476  11.838
57013W        W30081  42.405  11.356   1.815
57014W        W30082  34.227  34.319  11.561
57015W        W30083   7.719   1.459  11.075
57016W        W30084  10.181  13.603   1.952
57017W        W30085  18.223  14.526   0.363
57018W        W30086  26.534  34.446   3.710
57019W        W30087  40.845  28.116  11.912
57020W        W30088   5.665  32.692  13.790
57021W        W30089  33.438  40.498  11.479
57022W        W30090  37.692  40.944   4.586
57023W        W30091   5.216  19.885  14.532
57024W        W30092   0.355  25.974  12.804
57025W        W30093  29.005  22.440  14.426
57026W        W30094  31.864   9.284   1.593
57027W        W30095  36.522   3.313   4.458
57028W        W30096  37.475  37.504  13.337
57029W        W30097  11.350  24.981   0.304
57030W        W30098  17.730  21.134  14.362
57031W        W30099  27.393   4.910  10.544
57032W        W30100  43.161   2.531   1.425
57033W        W30101  18.354  22.559   2.692
57034W        W30102   8.569   7.274  12.552
57035W        W30103  10.540  19.171  14.565
57036W        W30104  10.621  42.133  13.084
57037W        W30105  13.602  44.714  14.945
57038W        W30106   4.460  17.403   0.415
57039W        W30107  13.704  10.657  12.999
57040W        W30108  34.947  21.802   0.987
57041W        W30109  28.129  43.240  14.844
57042W        W30110  18.961  39.377  10.594
57043W        W30111   6.825  22.517   2.823
57044W        W30112  12.175  20.059  11.965
57045W        W30113  20.199  16.070  12.188
57046W        W30114  40.732  41.394  12.415
57047W        W30115   4.691  37.560   5.151
57048W        W30116  34.411   1.883  13.550
57049W        W30117   3.762   6.967  14.887
57050W        W30118   1.033   9.130   0.989
57051W        W30119  19.536  10.071  12.495
57052W        W30120  21.950  38.939  12.941
57053W        W30121  26.621  22.907  13.607
57054W        W30122  10.413  28.636   3.881
57055W        W30123  29.955  38.530   1.904
57056W        W30124  13.353  40.542  14.675
57057W        W30125  20.482  28.918   1.969
57058W        W30126  39.102  14.373  10.803
57059W        W30127  16.388   9.145   2.149
57060W        W30128  19.024  20.227  11.063
57061W        W30129  23.666   9.144   1.387
57062W        W30130  31.614  16.915  13.579
57063W        W30131   0.394  24.560  14.368
57064W        W30132  19.754  29.684   0.897
57065W        W30133  39.457  44.727   2.790
57066W        W30134   2.730  27.975   0.827
57067W        W30135  27.260   9.475  11.151
57068W        W30136  39.833  28.466   1.389
57069W        W30137   6.650   2.442   3.278
57070W        W30138  22.567  29.446  11.968
57071W        W30139  10.983  32.653  10.757
57072W        W30140  23.540  44.739  12.406
57073W        W30141   6.240  34.384   2.932
57074W        W30142  34.109  22.218  11.097
57075W        W30143  14.907   2.443   4.331
57076W        W30144  33.635  22.476   3.623
57077W        W30145  20.270  33.565  13.794
57078W        W30146  15.137  33.390  14.713
57079W        W30147  42.338  27.430  13.517
57080W        W30148   0.939   8.851  14.772
57081W        W30149   6.412  41.467   3.104
57082W        W30150  41.757  18.295  11.585
57083W        W30151  12.580  23.404  12.921
57084W        W30152  43.292   8.207   2.751
57085W        W30153  35.101   4.044  10.768
57086W        W30154   6.407  15.280   1.938
57087W        W30155  19.280  40.994  14.997
57088W        W30156  25.462  39.831  14.490
57089W        W30157  38.141  43.722  12.109
57090W        W30158  15.991  18.426   4.150
57091W        W30159  16.946  22.000   4.256
57092W        W30160  31.094   2.893  11.668
57093W        W30161  44.542  12.393   0.885
57094W        W30162   1.482  24.695   1.295
57095W        W30163   1.474  28.693  11.194
57096W        W30164  32.878  22.184  11.525
57097W        W30165   0.738  19.594  10.063
57098W        W30166  20.319  35.906   4.097
57099W        W30167  16.404  32.250  11.025
57100W        W30168   5.693  39.728   0.018
57101W        W30169  31.878  14.698  13.404
57102W        W30170  19.317  20.041   4.126
57103W        W30171  20.607  36.928   1.196
57104W        W30172  15.753  21.690  11.852
57105W        W30173   7.858   7.232   2.314
57106W        W30174  16.607  22.475   3.246
57107W        W30175  34.979  43.475   4.825
57108W        W30176  33.041  27.160   4.641
57109W        W30177  33.262   6.193   4.170
57110W        W30178  14.820  31.378   0.495
57111W        W30179  14.312   0.308  10.682
57112W        W30180   6.259  43.753  12.679
57113W        W30181   5.706  14.203   4.953
57114W        W30182   5.744  13.747   3.679
57115W        W30183  40.819  25.227   3.255
57116W        W30184   9.213  13.062   0.031
57117W        W30185  25.567  14.954  14.813
57118W        W30186   2.362  28.679   4.491
57119W        W30187  37.903  23.225   4.675
57120W        W30188  21.315   7.673   5.357
57121W        W30189   4.537  17.267  11.012
57122W        W30190   1.051  16.248  10.695
57123W        W30191  33.853  42.681  10.104
57124W        W30192  42.211  25.934   3.648
57125W        W30193  33.955   1.480   4.681
57126W        W30194   7.723  42.449   0.424
57127W        W30195  35.490  26.887  14.140
57128W        W30196  23.173  20.551   2.435
57129W        W30197  44.084  32.147   2.770
57130W        W30198  38.729   7.773  10.932
57131W        W30199  19.141  26.145   2.870
57132W        W30200  34.919  20.834   3.196
57133W        W30201  21.722  14.047  13.968
57134W        W30202  21.543  44.779   3.643
57135W        W30203  27.769   9.786  14.879
57136W        W30204  17.272  19.979   1.428
57137W        W30205  15.729  13.070  14.595
57138W        W30206  27.658  16.204   0.307
57139W        W30207  16.565  19.491   1.357
57140W        W30208  44.018  20.184   4.254
57141W        W30209  34.560  39.032   1.536
57142W        W30210   2.443  27.130  11.358
57143W        W30211   6.263  22.880   9.981
57144W        W30212  18.020  41.726   3.637
57145W        W30213  14.339  10.318   1.388
57146W        W30214  19.573  18.100   4.111
57147W        W30215  28.180   7.786  11.171
57148W        W30216  34.515  42.545   3.817
57149W        W30217  31.310  38.516  14.411
57150W        W30218   3.642  40.472   0.961
57151W        W30219  25.594   9.614   3.123
57152W        W30220   6.013  33.014   3.899
57153W        W30221  26.672   1.641  13.583
57154W        W30222   1.484   6.174   2.832
57155W        W30223  15.638  10.268  13.591
57156W        W30224  12.800  35.855  14.283
57157W        W30225   4.956  29.510   3.320
57158W        W30226  15.207  18.845   4.571
57159W        W30227  25.219  38.306  11.647
57160W        W30228  21.807  32.904   1.761
57161W        W30229  26.123  29.249   1.790
57162W        W30230   9.717  10.821   1.855
57163W        W30231  44.886  20.635  12.883
57164W        W30232  22.190  22.592   3.749
57165W        W30233  30.820  15.725   4.275
57166W        W30234  42.444  29.967   0.819
57167W        W30235   7.755  10.509   0.804
57168W        W30236  32.894  31.943  14.798
57169W        W30237  37.289  14.442  12.123
57170W        W30238  16.751  26.491  11.254
57171W        W30239   8.788   8.946  10.861
57172W        W30240  44.821  39.447  12.453
57173W        W30241  18.820  11.419   5.027
57174W        W30242  21.691  33.510   1.284
57175W        W30243  12.469  40.312   0.090
57176W        W30244  13.275  33.546   0.103
57177W        W30245   8.155   6.123  13.012
57178W        W30246  23.643  11.385  13.392
57179W        W30247  30.866  18.987  12.677
57180W        W30248   3.777  15.286  14.038
57181W        W30249  14.661  11.763  13.059
57182W        W30250  24.508  38.414  13.387
57183W        W30251  36.964  22.724  11.066
57184W        W30252  38.387  35.834  11.956
57185W        W30253  20.472  13.650  10.984
57186W        W30254  18.176  37.665  14.449
57187W        W30255  35.345   5.320  13.289
57188W        W30256   4.333  18.056   2.226
57189W        W30257  12.764   6.895   4.632
57190W        W30258  24.698  12.056   0.340
57191W        W30259   7.237  32.454   0.747
57192W        W30260  24.157  34.589   0.637
57193W        W30261  20.156  18.817   2.383
57194W        W30262  42.000  29.322   3.033
57195W        W30263  37.975  19.766  14.387
57196W        W30264  27.197  24.529   3.749
57197W        W30265  32.958   8.328   0.944
57198W        W30266  15.337  44.165   2.272
57199W        W30267  34.161   7.565  12.029
57200W        W30268  30.298  35.432   4.944
57201W        W30269  33.207   5.649  13.759
57202W        W30270   4.726  25.240   0.280
57203W        W30271  43.030  34.377  10.685
57204W        W30272  34.665  15.713   4.719
57205W        W30273  15.184  11.927   1.728
57206W        W30274   3.416  34.959   2.738
57207W        W30275  39.915  30.565   4.927
57208W        W30276  39.212  34.689   4.472
57209W        W30277  26.203   3.967   2.324
57210W        W30278   6.000   6.236  12.822
57211W        W30279  37.979  35.921  12.625
57212W        W30280  30.517  34.538  14.211
57213W        W30281   6.806  26.315   3.511
57214W        W30282  31.683  44.910  13.327
57215W        W30283  36.229  33.416   3.879
57216W        W30284  16.523  29.149   1.948
57217W        W30285  43.369  24.144  12.815
57218W        W30286  38.671  18.795   3.206
57219W        W30287   8.091  26.460   4.583
57220W        W30288   4.475  39.887   3.257
57221W        W30289  31.025  43.804   3.265
57222W        W30290  20.210   2.902  13.099
57223W        W30291  21.598   6.234   2.361
57224W        W30292  18.071  14.788  14.121
57225W        W30293  11.608  21.411   4.638
57226W        W30294  42.284  28.706   0.479
57227W        W30295   9.190  37.315   0.822
57228W        W30296  21.132  40.978  12.914
57229W        W30297  16.441  24.679  11.612
57230W        W30298  43.534  23.106  12.010
57231W        W30299  36.480  34.629  11.507
57232W        W30300  41.299  18.212   4.176
57233W        W30301  21.429  13.732   1.349
57234W        W30302   9.449  44.834   3.487
57235W        W30303  14.739  28.617  13.937
57236W        W30304  42.222   4.145   0.353
57237W        W30305  21.717  22.798   2.794
57238W        W30306   8.475  25.677   1.404
57239W        W30307  19.350  37.081  11.623
57240W        W30308  27.939  19.889   2.633
57241W        W30309  29.372  11.685   3.548
57242W        W30310  25.251  36.026   4.638
57243W        W30311   7.225   9.828  12.239
57244W        W30312  19.588  35.615  14.588
57245W        W30313  22.713   1.380  12.418
57246W        W30314  39.237  36.555  14.914
57247W        W30315  35.808  44.555  12.054
57248W        W30316  11.824  18.484  14.796
57249W        W30317  38.027  10.521   4.698
57250W        W30318  12.926   5.846   3.750
57251W        W30319  10.710  14.191  14.469
57252W        W30320  36.492   9.795   1.548
57253W        W30321  30.904   9.812  11.479
57254W        W30322   8.617   1.236  11.091
57255W        W30323  20.100  10.746   4.651
57256W        W30324  43.059  39.904   0.349
57257W        W30325   3.846  12.110  12.740
57258W        W30326  15.123  33.531   4.050
57259W        W30327   3.828   5.005  11.454
57260W        W30328   0.542  40.600  13.528
57261W        W30329  26.626   5.829   2.170
57262W        W30330  25.180  35.581   1.252
57263W        W30331   8.638  23.394   4.415
57264W        W30332   2.837  39.625  11.207
57265W        W30333  33.141   6.861  10.654
57266W        W30334  43.495  42.430   4.416
57267W        W30335  33.447  37.377  12.446
57268W        W30336  43.287  35.042   1.781
57269W        W30337  38.820  27.048   3.220
57270W        W30338  36.830  35.578   4.251
57271W        W30339  40.913  32.964   2.989
57272W        W30340   1.730   5.869   2.256
57273W        W30341  32.534  32.796  13.498
57274W        W30342  13.044  20.753   0.366
57275W        W30343  13.956   2.551  12.020
57276W        W30344  24.483   7.496  10.524
57277W        W30345  27.800  23.177   4.965
57278W        W30346  37.272  26.044  13.366
57279W        W30347  10.394  43.855   4.664
57280W        W30348   8.930  13.205   2.307
57281W        W30349  42.756  12.437  10.642
57282W        W30350  32.123   8.326  10.570
57283W        W30351  20.210  42.271   4.654
57284W        W30352   2.432  42.919  10.244
57285W        W30353  11.401   0.441  12.960
57286W        W30354  25.591  15.130  14.005
57287W        W30355  44.800   4.476  13.522
57288W        W30356  34.920  25.326   2.470
57289W        W30357  21.635  32.606  14.840
57290W        W30358  37.063  10.732   0.116
57291W        W30359  42.098   0.329   3.660
57292W        W30360  12.788  42.232   4.432
57293W        W30361  27.903  39.278   0.730
57294W        W30362  30.015  23.325   2.417
57295W        W30363   4.329  23.955   3.727
57296W        W30364   4.167   6.262   4.463
57297W        W30365  19.550  43.199  14.378
57298W        W30366  43.901  40.555   0.118
57299W        W30367  10.785  28.772  14.609
57300W        W30368  11.059  42.123   2.635
57301W        W30369  16.067   3.670   4.944
57302W        W30370  29.956   4.492   0.924
57303W        W30371   2.006  36.378  13.969
57304W        W30372  36.985  17.082  13.822
57305W        W30373  30.155  13.487  11.963
57306W        W30374   9.716   0.052  11.466
57307W        W30375  36.039  34.133  10.709
57308W        W30376   3.741  24.631   1.056
57309W        W30377  16.205  24.144   3.467
57310W        W30378  15.368  20.705  11.496
57311W        W30379  44.622  44.020   4.199
57312W        W30380  27.463  19.225  11.312
57313W        W30381  29.065  34.539   4.467
57314W        W30382  28.382  22.811  12.129
57315W        W30383  40.551  44.198   4.096
57316W        W30384  28.948  34.065   2.082
57317W        W30385   2.971  14.348   3.700
57318W        W30386  38.866  22.305   2.851
57319W        W30387  24.703  16.058   4.720
57320W        W30388  25.701   3.989  12.888
57321W        W30389   8.205  23.600   4.651
57322W        W30390  35.337  34.534  12.389
57323W        W30391  20.677  38.438  13.498
57324W        W30392   3.691  13.939  10.518
57325W        W30393  40.411  35.547   2.322
57326W        W30394  31.383  11.138   4.215
57327W        W30395   6.228  25.053  11.612
57328W        W30396   0.384  40.408  13.047
57329W        W30397  42.728  17.387   2.032
57330W        W30398   4.933   0.552  10.618
57331W        W30399  23.810  18.814  10.571
57332W        W30400  43.243  37.476  11.914
57333W        W30401  36.451  36.546  11.306
57334W        W30402  39.931  34.159   1.764
57335W        W30403  44.277  42.653  12.141
57336W        W30404  31.171  12.300   4.903
57337W        W30405  42.466  39.938  11.008
57338W        W30406  43.222   8.152   2.192
57339W        W30407   8.213  10.611  10.609
57340W        W30408  33.172  28.621  12.626
57341W        W30409   7.641   5.080   0.486
57342W        W30410  30.816   9.449  13.681
57343W        W30411   6.625  12.826   4.717
57344W        W30412  12.752   2.250  14.023
57345W        W30413  32.159  39.290   1.196
57346W        W30414   3.229  22.226   0.959
57347W        W30415  25.459  15.343   4.431
57348W        W30416  30.908  11.083  11.971
57349W        W30417  33.769  43.392  11.216
57350W        W30418  28.087  22.947   4.259
57351W        W30419  28.925  42.962   4.722
57352W        W30420   4.821  39.114   0.635
57353W        W30421   3.268  32.109  11.531
57354W        W30422  12.224  34.991   3.626
57355W        W30423  28.102  32.932   2.279
57356W        W30424  18.637   7.519   3.783
57357W        W30425  21.815  40.354   3.699
57358W        W30426  16.852  35.851   0.303
57359W        W30427  12.115  19.121   1.817
57360W        W30428  35.613  15.180  11.162
57361W        W30429  16.862  19.798  13.498
57362W        W30430  28.451  43.795   4.259
57363W        W30431  23.355  32.647   0.282
57364W        W30432  28.893  20.541   2.960
57365W        W30433  17.485  12.232  14.710
57366W        W30434  36.936   7.242  11.989
57367W        W30435   7.231  11.425   2.455
57368W        W30436  32.007  23.216  12.427
57369W        W30437  16.201  29.535  12.839
57370W        W30438   4.842   3.135  11.459
57371W        W30439  37.017  42.990   4.120
57372W        W30440   5.666   8.116   3.908
57373W        W30441  11.587   5.806  11.560
57374W        W30442  43.078  33.004  13.886
57375W        W30443  39.496  31.768   0.749
57376W        W30444  38.342   0.050  13.770
57377W        W30445  25.524  27.838  11.824
57378W        W30446  28.205  18.431   2.935
57379W        W30447  16.361  30.475   0.385
57380W        W30448  39.322  30.470  12.099
57381W        W30449   3.510   0.366   2.187
57382W        W30450  12.565  31.131  11.985
57383W        W30451  12.845  11.841  14.801
57384W        W30452  13.430  18.787   0.428
57385W        W30453  31.437  42.064   3.285
57386W        W30454  13.071  33.053  11.480
57387W        W30455  29.380   8.152  12.042
57388W        W30456   0.428  19.031   1.316
57389W        W30457  43.502  12.091  13.039
57390W        W30458  31.379  40.027  14.873
57391W        W30459  12.581   4.211  12.850
57392W        W30460  31.461  13.372   3.685
57393W        W30461   3.213  17.259   4.591
57394W        W30462  25.525  33.092  14.853
57395W        W30463  37.608  17.203   1.356
57396W        W30464   2.443  28.150   1.287
57397W        W30465   7.319  14.819   0.381
57398W        W30466  39.352  28.841   3.771
57399W        W30467  35.403  33.647   5.043
57400W        W30468   9.708  11.283  14.316
57401W        W30469  10.187  13.370   4.741
57402W        W30470  40.296   7.119   2.252
57403W        W30471  44.273   2.465  11.531
57404W        W30472  23.610   8.729  13.617
57405W        W30473  21.307  33.477   4.035
57406W        W30474  33.049  29.028   2.952
57407W        W30475  24.141  35.559   1.202
57408W        W30476  36.828   9.785   3.201
57409W        W30477  19.124   9.979   1.207
57410W        W30478  24.089   4.866   1.181
57411W        W30479  24.497  27.042  12.546
57412W        W30480  28.873  24.469   3.219
57413W        W30481   7.038  40.896  14.800
57414W        W30482  23.052  24.572   3.243
57415W        W30483   8.320  13.710  13.921
57416W        W30484  44.222  17.730  10.960
57417W        W30485  10.812   3.311  11.487
57418W        W30486  15.126  40.824   0.523
57419W        W30487  15.433  11.661  13.425
57420W        W30488  27.979  18.327  14.452
57421W        W30489  10.734  11.790  11.179
57422W        W30490  12.627  39.099   4.815
57423W        W30491   2.741   0.235  12.209
57424W        W30492   7.956  30.611  13.913
57425W        W30493  36.053   3.443  13.791
57426W        W30494  14.890  10.086   2.297
57427W        W30495  17.281   2.294   2.864
57428W        W30496  17.035  16.805  11.620
57429W        W30497  41.550  38.203   2.809
57430W        W30498  36.822   6.234  12.791
57431W        W30499  39.379   9.913  10.656
57432W        W30500  19.457   4.340  14.910
57433W        W30501   0.023  12.674   0.195
57434W        W30502  24.642  40.475   2.308
57435W        W30503  22.946   4.406   2.807
57436W        W30504  32.645  32.263   3.600
57437W        W30505  15.659   9.878   2.247
57438W        W30506   5.251  20.070   0.624
57439W        W30507   3.971   9.674   0.595
57440W        W30508  18.604   1.856  12.430
57441W        W30509  36.241   4.748   5.336
57442W        W30510  40.015   8.943   4.100
57443W        W30511  24.167  12.726   0.574
57444W        W30512  31.122  35.455   4.733
57445W        W30513  31.090  22.187   3.185
57446W        W30514  22.626  30.515   3.663
57447W        W30515  30.145  14.877  13.420
57448W        W30516  12.898  12.756   0.781
57449W        W30517   5.648  22.783   2.235
57450W        W30518  24.730   0.915  14.530
57451W        W30519   9.672  11.365   1.936
57452W        W30520  12.808  42.917   0.502
57453W        W30521  17.194  33.508   4.146
57454W        W30522  15.375  38.773  12.569
57455W        W30523  16.790  16.695  11.015
57456W        W30524  23.009  11.815  13.848
57457W        W30525  25.129  38.002  12.911
57458W        W30526  33.236  18.240  11.423
57459W        W30527  10.685  23.697   0.224
57460W        W30528  44.380  20.745   1.839
57461W        W30529  30.465  17.704  14.873
57462W        W30530  36.101  11.850   4.590
57463W        W30531  40.742  15.867   2.117
57464W        W30532  42.105  29.515  11.937
57465W        W30533  41.494  21.552   4.587
57466W        W30534  42.531  16.567  11.471
57467W        W30535  38.359  35.104   1.965
57468W        W30536   3.249  28.489   1.984
57469W        W30537  16.591   6.355  11.150
57470W        W30538  24.153  24.579  10.750
57471W        W30539  31.006  43.926   3.785
57472W        W30540  28.697  28.614   4.237
57473W        W30541  19.564   8.472  12.899
57474W        W30542  29.162  34.307  13.766
57475W        W30543   7.045  40.310  10.344
57476W        W30544  20.138  43.495  10.350
57477W        W30545  26.647  41.065  13.927
57478W        W30546  21.000   5.383   2.125
57479W        W30547  30.984  40.582  12.603
57480W        W30548  12.038  35.116   2.642
57481W        W30549  38.526   0.236  11.446
57482W        W30550   9.708  33.379   1.302
57483W        W30551   8.900  39.558   2.411
57484W        W30552   9.380  23.580  10.684
57485W        W30553  38.152  18.310  12.808
57486W        W30554  27.809  10.221  13.764
57487W        W30555  15.368   0.756   2.423
57488W        W30556  35.870  11.097  12.323
57489W        W30557   6.409  35.421   1.790
57490W        W30558  28.102  36.108  10.136
57491W        W30559  12.901  11.206  13.595
57492W        W30560  44.682  35.657   1.031
57493W        W30561  22.576  21.955   1.420
57494W        W30562  11.363  13.880  13.052
57495W        W30563  38.128   1.316  14.323
57496W        W30564  19.661  43.777  11.201
57497W        W30565  32.927  16.256   4.610
57498W        W30566   1.456  14.597   1.808
57499W        W30567  41.127   2.886   3.900
57500W        W30568  44.191   0.882  11.637
57501W        W30569  43.073  25.048  14.219
57502W        W30570  19.618  44.794   1.792
57503W        W30571  13.651  23.484  14.712
57504W        W30572  29.051  44.823  14.032
57505W        W30573  41.915  34.874   0.891
57506W        W30574  43.655  23.072  14.938
57507W        W30575  36.207  24.090   2.272
57508W        W30576  13.157   2.358   3.730
57509W        W30577  15.383  23.903   3.285
57510W        W30578  24.518  42.691   3.567
57511W        W30579  14.200  31.694  13.390
57512W        W30580  28.477  19.094  11.545
57513W        W30581  13.453   0.232  11.102
57514W        W30582  44.403  38.805  13.281
57515W        W30583  27.481  24.524  14.824
57516W        W30584  38.789   2.226   4.097
57517W        W30585  40.074  38.600   1.338
57518W        W30586  42.466  18.377   1.873
57519W        W30587  22.180  40.948   0.465
57520W        W30588  13.380  31.089   0.845
57521W        W30589  25.951  35.382  13.859
57522W        W30590  30.071  17.956   1.006
57523W        W30591  14.356   4.950  12.639
57524W        W30592  44.467  12.039  11.135
57525W        W30593  25.596  25.233   4.607
57526W        W30594   3.386  32.529  10.360
57527W        W30595  15.059   4.807   0.999
57528W        W30596  29.657  40.862   0.872
57529W        W30597   3.411  34.387   1.435
57530W        W30598  17.456  43.573   2.850
57531W        W30599  15.348   7.406  11.999
57532W        W30600  36.297  13.626   3.720
57533W        W30601  21.788  13.579   2.224
57534W        W30602  37.206  24.799   1.791
57535W        W30603  44.918  44.839   0.112
57536W        W30604  26.908   0.280   3.268
57537W        W30605   6.630  44.598  13.799
57538W        W30606  13.055  25.638  14.354
57539W        W30607  35.508  12.297  10.661
57540W        W30608  21.526  39.460  10.396
57541W        W30609  24.001  21.554  10.513
57542W        W30610  27.989  14.717  14.916
57543W        W30611  37.899  12.906  14.008
57544W        W30612  30.710  17.743   1.285
57545W        W30613   2.469  14.322  12.517
57546W        W30614  10.382  14.685   5.110
57547W        W30615   8.761  24.865  14.043
57548W        W30616   6.360  27.252  11.146
57549W        W30617  22.089  12.384  14.899
57550W        W30618   6.911  32.419  14.325
57551W        W30619  13.821   5.296  13.453
57552W        W30620  39.215  36.039  14.782
57553W        W30621  34.796   2.023  14.799
57554W        W30622  25.153  31.705   0.047
57555W        W30623  26.101  12.460  14.899
57556W        W30624  40.580  41.797   3.567
57557W        W30625  28.157  29.000   2.525
57558W        W30626  27.892  24.030  14.050
57559W        W30627   4.868   5.070   0.903
57560W        W30628   2.257   9.239  12.204
57561W        W30629  17.553  38.351  10.997
57562W        W30630  20.089  29.906  10.646
57563W        W30631  39.042  35.071  11.138
57564W        W30632  30.937  41.426  11.647
57565W        W30633  31.504   0.778  13.273
57566W        W30634  31.834  37.281   1.908
57567W        W30635  32.313  38.872   0.909
57568W        W30636  19.091  43.454   1.271
57569W        W30637  16.120  19.728  13.878
57570W        W30638  11.758  13.533  10.053
57571W        W30639  19.755  38.887   0.384
57572W        W30640  19.007  36.302  10.984
57573W        W30641  40.378  13.678  13.807
57574W        W30642  18.180   0.000  10.698
57575W        W30643   3.578   4.187  11.916
57576W        W30644  34.105  20.191   0.971
57577W        W30645  18.204  35.372   4.137
57578W        W30646  27.102   0.557  10.783
57579W        W30647  32.856  30.027   0.922
57580W        W30648  39.270  28.893   0.710
57581W        W30649  36.964  29.503   3.800
57582W        W30650  21.170  10.756   1.962
57583W        W30651  35.349   5.720   3.903
57584W        W30652  24.762  19.137  14.360
57585W        W30653   3.907  13.406   2.861
57586W        W30654   3.354   9.558  13.512
57587W        W30655  42.720  13.692   0.355
57588W        W30656  20.722   9.679  11.037
57589W        W30657  26.388  27.561   1.830
57590W        W30658  42.744   1.735  11.070
57591W        W30659  35.320   8.050  14.268
57592W        W30660   5.385  30.855   0.243
57593W        W30661  11.355  12.189   2.182
57594W        W30662  12.323  21.726   1.065
57595W        W30663  43.811   4.674   2.261
57596W        W30664  16.702  42.014   0.908
57597W        W30665   8.924   7.860   0.495
57598W        W30666  25.751  21.683  13.979
57599W        W30667  13.530  20.494   0.961
57600W        W30668  43.822  30.331   3.117
57601W        W30669  29.593  28.165  14.773
57602W        W30670   6.270  13.698   2.425
57603W        W30671  21.003  27.108   3.201
57604W        W30672  43.071  12.712  10.276
57605W        W30673   5.929  23.154  11.574
57606W        W30674  40.064  36.541   0.569
57607W        W30675  35.622  16.176   3.841
57608W        W30676  40.797   5.093  12.087
57609W        W30677  10.905  10.143   4.690
57610W        W30678  10.347  36.736   4.088
57611W        W30679  11.207  44.752  10.533
57612W        W30680  29.123   5.352   1.199
57613W        W30681  11.723  37.107   4.669
57614W        W30682  42.630   2.250   2.217
57615W        W30683  18.655   7.874  11.924
57616W        W30684  37.322   3.873   4.515
57617W        W30685   8.461  44.330  11.673
57618W        W30686  13.615   8.838   2.322
57619W        W30687   9.248  12.646  10.299
57620W        W30688   1.480  39.011  11.580
57621W        W30689  37.896  20.265   1.916
57622W        W30690  37.896   4.494   1.270
57623W        W30691   3.917  39.810  13.010
57624W        W30692   0.328  36.058  10.503
57625W        W30693  19.234   9.786  10.576
57626W        W30694  31.912  10.749   0.911
57627W        W30695   5.834   8.892   2.390
57628W        W30696  24.574   1.022   4.270
57629W        W30697   0.194   9.895   1.751
57630W        W30698  27.420  37.273  11.154
57631W        W30699  30.104  24.446   3.631
57632W        W30700   2.488  23.982  14.404
57633W        W30701  43.230  15.597  10.966
57634W        W30702  35.524  32.084  13.570
57635W        W30703  25.947  22.530   4.005
57636W        W30704   1.315  23.024  10.653
57637W        W30705  25.907   0.254  14.341
57638W        W30706  22.166   0.678   4.290
57639W        W30707  14.869   9.059   0.906
57640W        W30708  18.380  15.880  11.129
57641W        W30709  38.126  41.568  11.572
57642W        W30710   6.424  14.731  11.083
57643W        W30711  33.049  36.770   4.547
57644W        W30712  38.983  19.633   2.765
57645W        W30713   6.247   3.044  11.993
57646W        W30714  15.184  31.311   2.717
57647W        W30715  16.150  26.692   2.217
57648W        W30716  29.941  44.894   1.693
57649W        W30717  29.279  11.782  10.686
57650W        W30718  23.860  27.249   3.655
57651W        W30719  14.743   5.781   2.751
57652W        W30720   4.813  35.896  14.447
57653W        W30721  22.745  43.848  14.347
57654W        W30722  29.238  34.441  12.205
57655W        W30723  37.069  25.773  12.977
57656W        W30724  13.644  10.510   4.071
57657W        W30725   1.404  34.039  13.583
57658W        W30726  36.032  22.277   3.753
57659W        W30727  23.289  38.370   4.644
57660W        W30728  28.186   8.570  14.756
57661W        W30729   4.076   8.684  11.155
57662W        W30730  10.871  33.255  12.907
57663W        W30731  22.027  26.745   3.042
57664W        W30732  43.036  31.394   0.777
57665W        W30733   5.280  15.788   3.743
57666W        W30734  29.150  12.057   4.698
57667W        W30735  42.375   5.963   0.063
57668W        W30736   6.558  15.217   9.906
57669W        W30737  27.158  38.061   1.574
57670W        W30738  32.033  25.827  14.393
57671W        W30739  14.693  10.600  11.699
57672W        W30740   4.755  27.110  10.102
57673W        W30741  28.926  19.243  12.767
57674W        W30742  44.214  21.118   1.423
57675W        W30743  28.506  33.968   0.457
57676W        W30744  16.619  21.125   4.456
57677W        W30745  16.709  30.614   1.402
57678W        W30746  34.841  11.462  14.958
57679W        W30747   7.405  22.744  13.525
57680W        W30748  17.850  34.872   3.680
57681W        W30749  19.157  33.308  10.836
57682W        W30750  20.614  15.359   2.314
57683W        W30751  27.072  22.398   0.722
57684W        W30752  42.721   1.048   4.574
57685W        W30753   0.871   4.859  13.415
57686W        W30754  30.465  39.304  14.479
57687W        W30755   1.238  21.126  12.772
57688W        W30756  42.727  18.226   2.391
57689W        W30757   9.748  40.408   5.027
57690W        W30758   5.267  24.617   1.763
57691W        W30759  34.989  13.882  11.542
57692W        W30760  36.534   2.701  11.457
57693W        W30761  11.777   6.866   4.899
57694W        W30762  42.808  23.078  14.451
57695W        W30763   2.685  17.160   4.590
57696W        W30764  25.964   8.266  12.764
57697W        W30765  28.239  39.282  12.829
57698W        W30766  13.085  16.552   3.164
57699W        W30767   7.616  36.926  10.665
57700W        W30768   5.698  26.236  11.170
57701W        W30769   9.767  13.566  13.986
57702W        W30770  31.083  25.522  13.314
57703W        W30771  28.058   8.298  12.086
57704W        W30772  34.099  13.098   1.752
57705W        W30773  42.294  22.550   4.129
57706W        W30774  34.283   3.924   3.646
57707W        W30775  33.506  30.902   3.687
57708W        W30776   4.260  20.076  12.975
57709W        W30777  23.269  27.184   0.100
57710W        W30778  33.427  41.086  10.994
57711W        W30779   1.452  18.828  10.639
57712W        W30780  18.324  12.340  14.013
57713W        W30781   1.796  32.137   4.265
57714W        W30782   5.114  23.558  14.111
57715W        W30783  29.400  18.570  12.866
57716W        W30784   8.372  40.023   0.360
57717W        W30785  29.987   7.116   4.079
57718W        W30786   2.888  37.352  10.857
57719W        W30787  13.749  44.422   1.882
57720W        W30788  44.963   0.982  11.009
57721W        W30789  20.145  31.981   4.337
57722W        W30790   4.982  24.615  11.503
57723W        W30791   8.130  13.697  12.378
57724W        W30792  23.703   4.539   0.279
57725W        W30793  31.327   8.150  14.362
57726W        W30794  29.495  19.630  10.774
57727W        W30795  29.054  13.658  12.852
57728W        W30796  44.346  20.047   4.946
57729W        W30797  17.858   8.091  13.501
57730W        W30798  42.924  17.547  11.663
57731W        W30799  15.705   1.348   0.310
57732W        W30800  42.250  41.439   2.778
57733W        W30801   5.671  44.365  13.783
57734W        W30802  42.768  32.588  14.910
57735W        W30803  36.819   5.636   0.280
57736W        W30804  36.943  17.883   0.605
57737W        W30805   3.739  19.373  11.464
57738W        W30806  12.046  18.704   2.458
57739W        W30807   3.426  21.423   3.630
57740W        W30808   0.699  37.641   4.551
57741W        W30809   4.259  11.184   2.820
57742W        W30810  20.271   4.451   3.310
57743W        W30811  42.821  14.282  12.721
57744W        W30812  35.084  36.564  11.557
57745W        W30813   7.029   8.798   2.628
57746W        W30814  44.292  25.403   1.490
57747W        W30815   9.389  22.905  13.857
57748W        W30816  43.263  38.968   3.845
57749W        W30817  17.540  19.646   0.242
57750W        W30818  21.088  10.443  10.938
57751W        W30819  18.675  13.037   0.779
57752W        W30820  44.540  16.714  12.916
57753W        W30821  23.729   6.798  14.864
57754W        W30822  13.403  40.076   3.592
57755W        W30823   8.720  34.054   4.277
57756W        W30824  28.934  29.961   3.640
57757W        W30825  22.631   7.412   0.318
57758W        W30826  15.314  25.204  12.724
57759W        W30827  27.223   2.767  10.413
57760W        W30828  22.217  10.524   0.851
57761W        W30829  43.604   2.881  12.051
57762W        W30830  44.854  35.604  10.934
57763W        W30831  20.761  25.036   2.199
57764W        W30832  31.097  41.411   4.588
57765W        W30833   2.498  26.607   3.218
57766W        W30834  34.885  31.361   0.282
57767W        W30835  27.130  35.956   5.029
57768W        W30836   7.422  37.568  10.601
57769W        W30837  23.910  21.002   4.987
57770W        W30838  26.657   8.548   2.295
57771W        W30839   2.880  32.114   0.393
57772W        W30840  41.037  44.553   3.416
57773W        W30841  10.278  27.694   1.910
57774W        W30842   9.753  22.132  11.395
57775W        W30843  17.658  39.946   3.638
57776W        W30844   7.670   3.438  12.201
57777W        W30845  22.950  12.202  12.150
57778W        W30846   4.725  41.344   0.714
57779W        W30847  29.080  33.637   3.466
57780W        W30848  31.515   3.430  10.588
57781W        W30849  24.628  37.144   2.667
57782W        W30850   0.904  21.072  13.459
57783W        W30851  30.095  30.535  13.554
57784W        W30852  32.637  37.044  12.426
57785W        W30853  17.781  12.108  13.228
57786W        W30854  22.183  12.353  11.560
57787W        W30855  26.616   3.642  14.461
57788W        W30856  33.876  14.076  11.974
57789W        W30857  12.441  17.262   1.425
57790W        W30858  30.128  21.545   0.550
57791W        W30859  26.559   1.132   4.139
57792W        W30860   1.514  35.513  14.356
57793W        W30861  38.211  35.045   2.459
57794W        W30862  27.163   9.887  13.119
57795W        W30863  18.439  27.496   2.295
57796W        W30864  24.265  27.644   0.355
57797W        W30865  35.065  16.281   2.211
57798W        W30866   9.210  42.998  13.972
57799W        W30867  43.769  22.188   4.385
57800W        W30868  10.370  38.455   3.727
57801W        W30869  22.978  15.302   1.189
57802W        W30870   7.456  41.268  10.529
57803W        W30871  41.790   3.234  12.183
57804W        W30872  44.709   7.156   0.915
57805W        W30873   2.324   3.645  10.342
57806W        W30874  20.988  40.155   0.273
57807W        W30875   1.927  31.048   2.735
57808W        W30876  25.680  15.884   4.057
57809W        W30877  12.184  14.094   4.219
57810W        W30878   0.463  11.136   4.669
57811W        W30879  31.833  27.889   1.320
57812W        W30880  26.023  32.998  12.967
57813W        W30881  10.856  38.409   4.087
57814W        W30882   6.736  37.586  13.483
57815W        W30883   4.685  16.642   2.732
57816W        W30884  20.448  44.168  13.342
57817W        W30885  40.892  11.218  14.290
57818W        W30886   1.822   2.563  14.218
57819W        W30887  35.976  25.780  10.738
57820W        W30888  16.821  31.938  13.354
57821W        W30889  14.418  33.803  13.968
57822W        W30890  31.164  44.820  12.098
57823W        W30891  40.473  33.529  10.811
57824W        W30892   5.727  27.647  13.839
57825W        W30893  43.987  19.571   1.893
57826W        W30894  11.780  41.727  12.558
57827W        W30895  37.839  16.538  12.872
57828W        W30896   9.389   5.796   0.924
57829W        W30897  42.993   3.409   2.587
57830W        W30898  32.390  20.706   3.778
57831W        W30899  16.060  21.636  12.468
57832W        W30900   6.134  14.235  14.345
57833W        W30901  20.812  23.063   1.892
57834W        W30902  22.090  17.331  14.396
57835W        W30903  19.016  32.398  10.381
57836W        W30904   0.635  33.657  14.211
57837W        W30905   3.747  23.411   3.434
57838W        W30906  35.888  17.563  13.575
57839W        W30907  27.540  15.303   3.103
57840W        W30908  18.793  25.518  14.881
57841W        W30909  24.983  14.604   0.981
57842W        W30910  18.018  10.858  13.731
57843W        W30911  24.934   6.878   4.505
57844W        W30912  26.887  44.821   0.761
57845W        W30913   0.143  11.140  11.624
57846W        W30914  44.922  42.187   1.470
57847W        W30915  26.476   4.170   0.085
57848W        W30916  34.493  24.034  11.027
57849W        W30917  35.240   5.455  14.914
57850W        W30918  20.791  26.037   1.848
57851W        W30919  23.701   5.254   0.992
57852W        W30920  12.104  28.520  12.473
57853W        W30921  20.026  38.580   2.219
57854W        W30922  25.166  15.009   1.265
57855W        W30923  38.749  12.383   3.593
57856W        W30924  40.101  41.935  14.290
57857W        W30925   7.360  18.139  12.529
57858W        W30926  35.632   3.047  14.445
57859W        W30927  28.538  15.131  12.230
57860W        W30928  34.333  25.915  14.817
57861W        W30929   2.809  25.179   1.435
57862W        W30930  25.498  38.946  13.814
57863W        W30931  22.760  36.917   4.114
57864W        W30932  12.782   8.417  14.959
57865W        W30933  28.253   3.567   0.431
57866W        W30934  18.769  23.153   3.512
57867W        W30935   1.357  36.329   0.610
57868W        W30936  30.144  41.307   1.378
57869W        W30937  42.267   7.703  14.020
57870W        W30938  38.893  11.026   2.197
57871W        W30939   8.445   0.714  11.420
57872W        W30940  24.165  39.838   3.235
57873W        W30941  42.778  25.319   4.496
57874W        W30942  20.262  33.633   2.346
57875W        W30943  31.696  40.798   4.144
57876W        W30944  12.636  21.965   2.798
57877W        W30945  42.955  34.546   0.338
57878W        W30946   7.451  27.409  13.618
57879W        W30947   5.402  25.737  14.441
57880W        W30948  23.534  12.315   0.590
57881W        W30949  43.868  43.549   1.942
57882W        W30950  27.141  27.213   3.309
57883W        W30951   7.904  35.179  14.815
57884W        W30952  20.830  22.980  13.480
57885W        W30953  19.505  37.381   0.528
57886W        W30954  13.054  40.371  11.741
57887W        W30955  14.900  22.253  12.887
57888W        W30956   5.794   5.206  13.804
57889W        W30957  20.421  40.484  14.847
57890W        W30958   7.232  34.508   1.469
57891W        W30959  38.580  15.054   1.996
57892W        W30960  32.811  14.641   5.020
57893W        W30961  27.926  28.510  10.301
57894W        W30962  22.497  34.960  14.873
57895W        W30963  36.898   7.549   2.378
57896W        W30964  34.142  16.742   3.609
57897W        W30965  12.903  13.979   3.606
57898W        W30966   8.786   3.775  11.852
57899W        W30967  16.543  40.092  14.951
57900W        W30968  24.191  13.337   3.523
57901W        W30969  11.457  20.281   5.012
57902W        W30970  36.509   7.334  10.304
57903W        W30971  11.779  20.591   3.247
57904W        W30972  35.514  35.585   2.608
57905W        W30973  42.762  26.561   1.763
57906W        W30974  18.646  27.652  14.295
57907W        W30975   2.795  24.895  14.256
57908W        W30976   0.235  39.426   4.941
57909W        W30977  40.629  41.989  14.195
57910W        W30978  40.563  35.662   3.839
57911W        W30979  26.349  18.643   4.025
57912W        W30980  36.908  24.733   0.464
57913W        W30981   5.200  24.103  12.449
57914W        W30982  10.487  18.459   3.711
57915W        W30983  14.284  37.383   1.944
57916W        W30984  17.710   1.243   3.153
57917W        W30985  20.724   7.271  12.466
57918W        W30986   2.869  23.092  14.988
57919W        W30987  20.115   6.906  10.593
57920W        W30988  21.603  10.259  12.586
57921W        W30989  39.659  24.701  13.967
57922W        W30990  24.272  31.281  11.137
57923W        W30991  18.234  29.948   3.146
57924W        W30992  34.087  18.196   3.363
57925W        W30993  32.521  35.896   1.660
57926W        W30994   5.734  39.002  13.458
57927W        W30995  41.853  43.488  10.615
57928W        W30996   8.176   3.441   4.067
57929W        W30997  17.957  35.908  11.950
57930W        W30998  29.614  14.881   2.843
57931W        W30999   0.884  33.915   2.347
57932W        W31000  29.645  39.896   0.806
57933W        W31001  26.617  44.396   3.309
57934W        W31002  34.925  41.558  11.792
57935W        W31003  29.546  38.404  14.574
57936W        W31004   1.489  18.343   1.951
57937W        W31005   7.033  15.366  11.300
57938W        W31006  18.273  44.445   1.139
57939W        W31007  25.662  12.208  14.719
57940W        W31008  16.632  42.417  11.946
57941W        W31009  14.591   7.683  13.848
57942W        W31010  35.532  25.599  11.569
57943W        W31011   6.631  32.517  14.956
57944W        W31012  18.645  34.606   4.249
57945W        W31013  12.617  25.739  12.561
57946W        W31014   4.346  18.638   3.808
57947W        W31015   9.141   9.716   1.183
57948W        W31016  19.002  12.206   0.733
57949W        W31017  28.826  18.331   0.025
57950W        W31018   4.128  43.918   3.329
57951W        W31019  23.406  13.687   4.547
57952W        W31020  12.220   0.235  10.658
57953W        W31021  31.805  21.529  11.937
57954W        W31022  29.409  42.483  12.931
57955W        W31023  32.097   8.753  11.587
57956W        W31024  12.355  15.976   3.270
57957W        W31025  12.419  23.211   3.143
57958W        W31026  21.237  41.958  11.088
57959W        W31027  21.119  39.884  10.259
57960W        W31028  26.151  27.695  13.443
57961W        W31029  16.670   6.941   4.456
57962W        W31030  21.112  21.020  13.454
57963W        W31031  34.616  24.490   0.683
57964W        W31032  17.581  29.995  14.799
57965W        W31033  14.337   0.822   2.383
57966W        W31034  27.216  39.477   2.910
57967W        W31035   9.754  11.787  13.550
57968W        W31036   8.929  28.176  12.011
57969W        W31037   1.249   1.495   2.872
57970W        W31038  32.894  25.032   0.769
57971W        W31039  26.697  40.820   3.135
57972W        W31040  14.298   3.222   3.244
57973W        W31041  22.327  33.418   0.299
57974W        W31042  33.577   5.991   3.415
57975W        W31043  36.527   3.340   0.979
57976W        W31044   8.741  10.841  14.966
57977W        W31045  11.920  28.498   0.742
57978W        W31046   9.113  42.956   1.215
57979W        W31047  44.780  37.989  10.504
57980W        W31048  21.296  20.727  11.120
57981W        W31049  31.666  38.967   0.477
57982W        W31050  16.664  43.501  10.656
57983W        W31051  33.051  19.094   1.940
57984W        W31052  21.586  19.784   2.272
57985W        W31053  36.047  27.861   3.735
57986W        W31054  32.397  25.996   3.529
57987W        W31055   7.049  41.068   2.518
57988W        W31056  33.179   3.646   0.029
57989W        W31057  36.818   8.103  11.720
57990W        W31058   4.986  42.076  11.502
57991W        W31059  29.087  17.978   3.877
57992W        W31060   3.119  42.454  13.069
57993W        W31061  16.035  22.336   1.151
57994W        W31062  27.188  17.181  11.672
57995W        W31063   2.958   3.198   2.203
57996W        W31064  20.804  37.416  11.702
57997W        W31065  30.786  17.434   5.054
57998W        W31066  26.472  21.431  14.748
57999W        W31067  25.124  33.372   4.358
58000W        W31068  32.346   6.679   2.377
58001W        W31069  30.452   5.513   4.188
58002W        W31070  27.951  10.417   3.745
58003W        W31071   8.236   7.733   3.200
58004W        W31072   9.063  33.537   1.946
58005W        W31073  41.549  38.001  10.601
58006W        W31074  25.160  38.126  10.191
58007W        W31075   6.673  35.112  10.819
58008W        W31076  28.078   0.191  10.638
58009W        W31077  38.943   6.960  10.412
58010W        W31078   9.612  27.066   1.520
58011W        W31079  29.615   4.011   0.246
58012W        W31080  20.077  41.480  13.957
58013W        W31081  23.144  31.442   1.132
58014W        W31082  33.474   4.280   3.818
58015W        W31083  37.038  44.531  13.835
58016W        W31084  11.759  26.472   1.670
58017W        W31085  16.696  20.643   4.223
58018W        W31086  44.856  11.647   3.166
58019W        W31087  30.678  17.564   3.046
58020W        W31088  26.215  17.216   1.249
58021W        W31089  38.307  10.652  11.508
58022W        W31090   1.391  20.317  14.350
58023W        W31091  26.474  26.517   3.263
58024W        W31092  35.566   4.232  12.562
58025W        W31093   6.458  43.486   2.309
58026W        W31094  19.724  25.692  13.359
58027W        W31095   5.407  17.976   0.847
58028W        W31096  37.933  41.774   4.765
58029W        W31097  41.737  13.377   0.211
58030W        W31098   3.243  13.204   0.853
58031W        W31099  33.060   3.947   0.951
58032W        W31100  12.775  12.112  12.005
58033W        W31101  18.803  27.513   1.337
58034W        W31102  40.559  39.776   0.276
58035W        W31103  12.343  29.366  13.759
58036W        W31104  37.605  27.338  12.191
58037W        W31105  40.357  33.451  12.485
58038W        W31106  44.853  23.669  11.348
58039W        W31107  21.604  20.107  12.107
58040W        W31108  26.632  12.697   5.699
58041W        W31109  12.604  25.293   4.187
58042W        W31110  35.791  21.174  11.208
58043W        W31111  16.584  22.410  10.563
58044W        W31112  21.159  20.501   1.859
58045W        W31113  31.111  19.759  11.038
58046W        W31114   4.886  21.356  11.422
58047W        W31115  17.175  38.169   4.069
58048W        W31116  20.970  43.388   4.457
58049W        W31117  11.891   2.984   2.173
58050W        W31118  22.503   7.669   2.690
58051W        W31119  18.154  16.082   4.285
58052W        W31120   5.780  18.767  12.113
58053W        W31121   6.964  42.159   3.820
58054W        W31122  12.711  11.272  14.091
58055W        W31123  44.328   3.900   4.238
58056W        W31124  40.026  26.974  10.651
58057W        W31125   8.525  33.590   1.974
58058W        W31126  22.676  43.256  11.350
58059W        W31127  16.303   1.319  11.637
58060W        W31128  19.558  28.361   1.361
58061W        W31129   1.191  23.736  13.903
58062W        W31130  22.535  41.247   3.169
58063W        W31131  28.149  27.543  13.494
58064W        W31132   8.335   1.453   3.743
58065W        W31133  30.911  11.076   3.133
58066W        W31134  12.737   7.907   1.737
58067W        W31135  11.207  18.596   3.579
58068W        W31136  43.863  17.545  14.705
58069W        W31137  13.932  23.562   0.983
58070W        W31138  32.107  44.145  13.101
58071W        W31139  35.051  23.275  11.195
58072W        W31140   6.737  13.926   0.125
58073W        W31141  34.775  19.202   3.279
58074W        W31142   6.301  38.245  12.419
58075W        W31143   4.749  23.221  11.134
58076W        W31144  29.401  11.724  11.589
58077W        W31145  27.544   5.922  12.300
58078W        W31146   4.464   4.429  11.605
58079W        W31147  35.398   7.590   0.437
58080W        W31148   1.837  33.451   1.236
58081W        W31149   9.389  24.800  11.164
58082W        W31150  14.159  34.942   2.295
58083W        W31151   6.702  28.145   2.901
58084W        W31152  12.957  16.789  12.088
58085W        W31153  27.210  26.958   3.822
58086W        W31154  33.343   6.417  11.580
58087W        W31155   0.453  22.150   2.690
58088W        W31156  10.409  15.145   0.828
58089W        W31157  16.995  34.892  12.139
58090W        W31158  43.875  39.581  11.172
58091W        W31159  24.070  22.217   1.275
58092W        W31160  44.007  30.208  14.992
58093W        W31161  33.511  42.293   4.594
58094W        W31162  31.679  34.916  10.568
58095W        W31163  11.118   9.375   2.855
58096W        W31164  12.585  43.609   0.005
58097W        W31165  36.852  23.141   0.703
58098W        W31166  15.253  28.555   3.846
58099W        W31167  41.669   6.740   3.080
58100W        W31168  24.410  30.176  13.418
58101W        W31169   7.716  27.376   4.034
58102W        W31170   3.613   5.950  11.736
58103W        W31171  43.560  37.113  12.046
58104W        W31172   0.255  28.114   1.229
58105W        W31173  33.512   2.253   2.285
58106W        W31174  21.420  33.846   2.494
58107W        W31175   7.136  31.160  12.942
58108W        W31176   7.216  26.168  11.596
58109W        W31177  17.026  41.433   4.428
58110W        W31178   0.678  23.735  12.909
58111W        W31179   9.854  20.092   4.362
58112W        W31180   4.223  12.348  13.005
58113W        W31181  12.179  16.877  12.423
58114W        W31182  31.703  30.550  11.892
58115W        W31183  19.161  33.932   0.511
58116W        W31184  19.508  27.481  10.664
58117W        W31185  22.454  22.531   2.337
58118W        W31186  27.105   3.895  11.720
58119W        W31187  23.904  27.099  12.953
58120W        W31188  34.606  35.515  12.666
58121W        W31189  18.490   3.507   2.300
58122W        W31190   2.839  29.839  14.296
58123W        W31191   1.940  33.829   4.577
58124W        W31192  43.453  27.613   4.506
58125W        W31193   0.429   5.955   3.247
58126W        W31194  35.518  37.403  12.969
58127W        W31195  27.925  19.555   1.318
58128W        W31196  30.960   5.717   4.365
58129W        W31197  22.979  38.363  11.573
58130W        W31198  24.188   7.383   4.195
58131W        W31199  20.141  32.053  12.882
58132W        W31200  29.614  31.381   4.584
58133W        W31201   3.306  34.891  13.879
58134W        W31202  39.072  22.636  12.788
58135W        W31203  31.124  29.991  12.904
58136W        W31204   3.751  29.023  11.466
58137W        W31205  36.572  13.249   1.535
58138W        W31206  32.631   5.009  13.930
58139W        W31207  15.078  36.139  11.293
58140W        W31208  11.024  12.594   2.160
58141W        W31209  14.868  19.662  12.113
58142W        W31210  17.600  38.937  12.616
58143W        W31211  26.844  15.854  12.366
58144W        W31212  40.564  27.067  12.623
58145W        W31213  36.483  39.345  11.167
58146W        W31214  42.932  26.575  13.770
58147W        W31215  19.802  43.805   4.292
58148W        W31216  18.650  27.044  14.077
58149W        W31217  17.056  29.881   1.952
58150W        W31218   0.236   6.457  14.858
58151W        W31219   6.671  20.658  10.710
58152W        W31220  30.326  38.466   4.584
58153W        W31221  20.894   2.866   4.703
58154W        W31222  19.055  29.915  12.393
58155W        W31223  19.346   2.706  14.013
58156W        W31224  16.870  35.914   4.335
58157W        W31225   7.774  15.877  13.137
58158W        W31226  26.400   5.338   2.182
58159W        W31227  12.571  24.660   0.367
58160W        W31228   6.637   4.687   4.434
58161W        W31229  22.620  29.444  12.868
58162W        W31230  13.901  17.525   3.596
58163W        W31231  26.535  32.371   0.245
58164W        W31232  27.656  29.439  11.177
58165W        W31233  28.163  31.410   2.364
58166W        W31234  20.243  22.055  14.454
58167W        W31235   7.181  25.037   3.452
58168W        W31236   2.502  30.119  11.991
58169W        W31237  25.646  11.185  12.512
58170W        W31238  13.632  19.710  14.628
58171W        W31239   1.868  12.164  12.974
58172W        W31240  13.054  17.245  12.868
58173W        W31241  22.159  10.531   2.907
58174W        W31242  22.063  12.728   3.130
58175W        W31243   6.957   6.116   1.251
58176W        W31244  42.033   9.341   3.249
58177W        W31245  10.811   5.781   0.558
58178W        W31246  24.048  32.094  12.081
58179W        W31247  12.302   7.737   4.717
58180W        W31248  21.251  31.366   0.105
58181W        W31249  35.074  34.898  13.780
58182W        W31250  42.043   9.299   0.727
58183W        W31251  18.990  41.362  13.033
58184W        W31252   6.286  28.080  10.816
58185W        W31253  39.059  10.072  14.187
58186W        W31254  32.390   6.937   2.856
58187W        W31255  24.028  22.804  13.279
58188W        W31256  33.586  42.517   3.605
58189W        W31257  32.994  44.465   1.930
58190W        W31258   6.849   3.843   4.100
58191W        W31259  29.881  28.606  14.772
58192W        W31260  20.755  28.138   3.741
58193W        W31261   8.820  10.856   4.530
58194W        W31262   1.086  29.503  11.067
58195W        W31263  21.320  24.176  12.097
58196W        W31264  35.015   7.461   1.751
58197W        W31265   7.255  40.329  10.889
58198W        W31266  44.461  30.519  14.344
58199W        W31267   4.814   4.237  13.880
58200W        W31268  19.110   9.370   2.100
58201W        W31269   1.196  42.199  10.558
58202W        W31270  38.859  41.767   0.413
58203W        W31271  25.086  12.606   1.697
58204W        W31272  24.690  36.777   3.536
58205W        W31273  26.991   6.859   4.592
58206W        W31274  19.487  27.107   3.187
58207W        W31275  17.484   9.280  12.821
58208W        W31276  20.645  12.758  10.747
58209W        W31277  14.377  34.557   1.524
58210W        W31278  16.154  15.664   2.123
58211W        W31279  29.184  32.572  12.377
58212W        W31280  43.377  17.289   1.389
58213W        W31281  11.508  38.249   2.458
58214W        W31282   1.987  29.729   1.934
58215W        W31283  33.773  12.894  13.849
58216W        W31284  30.914  12.618   3.634
58217W        W31285  11.888  34.287  13.820
58218W        W31286  44.519  37.091  12.281
58219W        W31287  27.883  43.213   2.276
58220W        W31288   6.916  16.754  10.711
58221W        W31289  25.205  37.648  13.525
58222W        W31290  30.617  44.646   4.216
58223W        W31291   0.723  25.744  11.061
58224W        W31292  33.441  40.496  12.469
58225W        W31293  13.650  19.013  14.847
58226W        W31294  36.843  11.466   1.263
58227W        W31295   9.326  24.044  12.604
58228W        W31296  31.578  28.128   0.558
58229W        W31297  12.402  29.537  13.241
58230W        W31298  13.692  37.036  11.172
58231W        W31299  19.131  32.902   4.624
58232W        W31300   8.264  13.804   0.841
58233W        W31301   2.428   1.256  11.527
58234W        W31302  11.077  28.066   0.882
58235W        W31303  39.411   0.017   0.536
58236W        W31304  18.149  12.789  12.759
58237W        W31305   1.438  35.834  14.778
58238W        W31306  20.687   9.140  12.914
58239W        W31307  14.683   9.856   4.473
58240W        W31308  23.705  27.432   1.769
58241W        W31309  42.743  42.986   4.697
58242W        W31310  36.570  31.451  12.930
58243W        W31311  14.066  13.563  12.804
58244W        W31312   2.816  30.340  10.733
58245W        W31313  27.067  42.451  12.962
58246W        W31314  17.100  44.947   4.842
58247W        W31315  38.616  14.323   0.830
58248W        W31316  39.092  16.126  10.552
58249W        W31317  34.604  40.564   2.203
58250W        W31318   0.407   5.927   4.173
58251W        W31319  15.174  34.564  14.009
58252W        W31320  24.449  41.365  12.553
58253W        W31321  27.941  17.940   2.245
58254W        W31322  22.492  33.090  10.664
58255W        W31323   7.302  15.186   3.155
58256W        W31324  31.613  33.405  11.603
58257W        W31325  39.429  32.967  14.430
58258W        W31326   2.834  12.292  10.602
58259W        W31327  21.494  27.773   2.208
58260W        W31328  41.026   5.905   4.188
58261W        W31329  19.710  38.561  12.657
58262W        W31330  19.986  27.162   3.283
58263W        W31331  11.182  12.077  12.512
58264W        W31332   6.115  11.501  12.560
58265W        W31333  16.066  25.201   3.170
58266W        W31334  43.244  27.651  11.873
58267W        W31335  22.429   5.954  11.145
58268W        W31336  40.115  16.611  11.467
58269W        W31337  30.855  29.336  10.832
58270W        W31338  16.336  24.984  11.219
58271W        W31339  42.728  36.414   4.100
58272W        W31340  44.410  15.698   9.865
58273W        W31341  11.619  25.939  13.565
58274W        W31342  22.269  23.776   4.889
58275W        W31343  10.267  17.081  12.559
58276W        W31344  19.789  32.155   0.502
58277W        W31345   4.715   1.038   4.578
58278W        W31346  35.108   6.573  11.796
58279W        W31347   6.971  30.007   0.392
58280W        W31348   4.085  35.662   2.874
58281W        W31349  36.212  15.121   1.795
58282W        W31350   4.890   2.271   4.946
58283W        W31351  37.026  42.847  11.093
58284W        W31352  24.003  21.577   2.536
58285W        W31353  25.458  24.719  13.064
58286W        W31354  34.276  44.891  14.707
58287W        W31355  32.529  33.922   4.648
58288W        W31356  22.615  12.576  11.745
58289W        W31357  12.613   4.597  13.989
58290W        W31358  29.676  15.762   3.189
58291W        W31359   3.089  27.165   0.257
58292W        W31360  33.475  20.341  14.117
58293W        W31361  32.097   1.832  13.393
58294W        W31362   1.330  16.127   2.659
58295W        W31363   6.382  13.293   4.747
58296W        W31364  36.599  37.340  11.741
58297W        W31365  12.852  24.168   3.162
58298W        W31366  30.696  12.790  14.961
58299W        W31367  14.234  33.164  12.310
58300W        W31368  16.296  41.735   1.150
58301W        W31369  23.495  24.311  12.701
58302W        W31370   0.803   0.279  12.671
58303W        W31371  21.668  30.356   1.158
58304W        W31372   4.921  16.168  14.107
58305W        W31373  38.887  27.118  10.914
58306W        W31374  18.507  22.171  12.082
58307W        W31375  30.536  23.025  14.031
58308W        W31376  19.991  28.077  13.009
58309W        W31377  24.998  12.620  13.385
58310W        W31378  35.373  11.093   4.254
58311W        W31379  25.636  28.150  11.434
58312W        W31380   9.774  25.621   4.474
58313W        W31381  22.209  43.582   3.181
58314W        W31382  28.662  10.330  14.755
58315W        W31383   0.906   2.317   1.421
58316W        W31384  34.592   3.893  12.604
58317W        W31385  40.069  20.175  14.972
58318W        W31386  24.574   9.614   0.234
58319W        W31387   8.453  32.367   1.716
58320W        W31388  40.250  24.847   4.340
58321W        W31389  17.539  18.143  13.984
58322W        W31390  33.176  34.603   3.681
58323W        W31391  20.210  34.461  12.841
58324W        W31392  22.024  35.455   0.536
58325W        W31393  32.018   9.793   3.868
58326W        W31394  16.001  16.431   4.095
58327W        W31395  13.129  23.143  11.401
58328W        W31396  41.034   0.085  14.839
58329W        W31397  15.509  43.754  12.854
58330W        W31398  10.478  30.897  12.885
58331W        W31399  31.674   2.468   1.302
58332W        W31400  33.369  15.497   0.378
58333W        W31401  17.558  42.829  12.565
58334W        W31402  31.617  20.048   4.245
58335W        W31403  33.362   1.303  12.345
58336W        W31404   3.917  40.087   0.680
58337W        W31405  42.796  26.200  10.670
58338W        W31406  20.041  22.758   1.887
58339W        W31407  17.622  44.969   1.263
58340W        W31408  11.396  15.643   2.136
58341W        W31409  32.479  42.718   4.589
58342W        W31410  26.503  34.651   4.703
58343W        W31411  36.230  32.609  14.874
58344W        W31412  35.403   3.144   4.071
58345W        W31413  38.990  31.801   1.885
58346W        W31414  21.112   9.168   2.665
58347W        W31415   4.881   4.198   3.273
58348W        W31416  34.246   3.512  11.047
58349W        W31417  36.782  32.910  14.912
58350W        W31418  36.382  35.383  13.023
58351W        W31419  36.237  22.946   2.793
58352W        W31420  44.775  15.827   1.716
58353W        W31421   1.335   5.292  13.681
58354W        W31422  32.419  33.137   0.919
58355W        W31423  18.063  24.463   2.281
58356W        W31424  14.233  16.059   2.409
58357W        W31425  12.692   3.627  11.812
58358W        W31426   9.510   8.882   4.984
58359W        W31427  21.078  30.202   1.588
58360W        W31428  38.293  29.375   3.343
58361W        W31429  41.296  42.896   0.933
58362W        W31430  30.721  32.677   3.678
58363W        W31431  15.111  39.525  14.300
58364W        W31432  36.769  12.355  14.557
58365W        W31433   3.200  22.180  11.759
58366W        W31434  27.930  37.251  12.888
58367W        W31435  33.186  11.895  12.843
58368W        W31436  24.189   0.313  14.805
58369W        W31437  11.719  42.437   1.282
58370W        W31438   0.917   9.208  13.517
58371W        W31439  36.657  15.623   1.263
58372W        W31440  39.857  44.937   0.210
58373W        W31441  37.947   7.329  11.123
58374W        W31442  24.559  11.837   0.834
58375W        W31443  32.199  31.087   0.698
58376W        W31444  25.921  27.750  12.978
58377W        W31445  14.563  36.838  11.151
58378W        W31446  17.208   5.175   4.874
58379W        W31447  33.400  26.695  11.673
58380W        W31448  11.811  28.453   3.841
58381W        W31449  33.388  27.984   2.658
58382W        W31450  36.924  34.917   0.214
58383W        W31451  15.835  38.546   4.538
58384W        W31452  29.052  34.673   3.638
58385W        W31453   6.438   2.143   0.340
58386W        W31454  20.552  11.851   4.583
58387W        W31455  36.532  21.529  12.777
58388W        W31456   7.208   3.867  12.085
58389W        W31457  37.109  21.314  13.947
58390W        W31458  28.187  19.038  14.973
58391W        W31459  40.524  10.558   2.801
58392W        W31460  18.725   9.432   4.668
58393W        W31461  40.287   4.831   2.452
58394W        W31462  13.174  25.024   4.985
58395W        W31463  17.297  35.576   0.330
58396W        W31464  19.736   6.149   2.758
58397W        W31465  11.217  44.966  13.561
58398W        W31466  11.609   7.099   0.385
58399W        W31467   4.753  24.183  11.650
58400W        W31468   9.393  28.395   0.767
58401W        W31469  19.271  18.605  12.168
58402W        W31470  21.577  21.515   0.549
58403W        W31471   9.941  10.093  11.480
58404W        W31472  38.187  34.510   4.621
58405W        W31473  38.077   4.310   3.679
58406W        W31474  24.990  15.219   3.078
58407W        W31475  14.670  14.434  12.605
58408W        W31476  32.763  41.804  13.063
58409W        W31477  28.537  22.057  13.770
58410W        W31478  32.576  38.361  14.956
58411W        W31479  13.820   2.831   4.622
58412W        W31480  33.987  33.036   4.215
58413W        W31481  20.188  34.881   4.319
58414W        W31482  32.507  27.604  11.305
58415W        W31483  30.243  27.190  13.416
58416W        W31484  10.817  31.853   3.175
58417W        W31485   5.922  16.812   0.202
58418W        W31486  14.618   6.759   2.778
58419W        W31487   6.726   9.747   1.877
58420W        W31488   6.710  10.559  10.386
58421W        W31489   4.392  16.643  12.024
58422W        W31490  38.402  29.773   4.159
58423W        W31491  41.722  17.877  13.438
58424W        W31492  14.802  43.145   5.193
58425W        W31493  34.551  23.575   0.693
58426W        W31494   9.692  12.835   3.084
58427W        W31495  41.603  36.970  14.927
58428W        W31496  31.627  41.933  11.547
58429W        W31497  13.322  19.302  10.698
58430W        W31498  17.267  24.049   3.633
58431W        W31499  20.494  31.688   2.795
58432W        W31500   2.927  37.440  14.359
58433W        W31501   0.298  24.535  11.449
58434W        W31502  19.369  44.372  10.600
58435W        W31503  21.747  14.536   2.916
58436W        W31504  32.061  13.807   0.762
58437W        W31505  39.892  21.622   1.166
58438W        W31506  11.321  26.068  12.911
58439W        W31507  33.657   2.836  14.724
58440W        W31508  25.241   8.173  10.829
58441W        W31509  41.254  33.895   2.258
58442W        W31510   5.071  20.119   3.554
58443W        W31511  32.277  31.957  12.838
58444W        W31512  15.526   7.911   3.503
58445W        W31513  29.847   9.903   2.567
58446W        W31514   3.398   2.505  13.553
58447W        W31515  24.788  26.969  13.020
58448W        W31516  27.441  12.980   0.360
58449W        W31517   4.637  22.186   1.787
58450W        W31518  18.767  32.576  12.871
58451W        W31519  16.780  31.035  15.000
58452W        W31520  32.252  10.127   0.204
58453W        W31521   3.900  15.312  10.760
58454W        W31522  29.506  33.971  12.408
58455W        W31523  33.602  11.190   3.135
58456W        W31524  12.060   6.861   0.378
58457W        W31525  14.716  44.922  11.004
58458W        W31526   4.676   1.532   0.998
58459W        W31527  30.987  42.630   0.779
58460W        W31528  28.676  37.562  11.593
58461W        W31529  39.548  27.144   0.088
58462W        W31530  25.218  32.831   0.706
58463W        W31531  16.747   4.030   3.161
58464W        W31532  25.239  18.883   0.328
58465W        W31533  17.208  11.877   2.206
58466W        W31534  36.071   6.239   0.507
58467W        W31535  41.001  21.211   0.044
58468W        W31536  12.396   2.759  11.783
58469W        W31537  14.580  29.326  13.335
58470W        W31538  13.244  39.854   3.147
58471W        W31539   6.171  44.794  12.485
58472W        W31540  10.079  11.812  11.500
58473W        W31541  22.139  18.073   2.339
58474W        W31542   5.693   4.364   1.420
58475W        W31543  44.422  42.218   1.658
58476W        W31544  27.624  16.335  14.800
58477W        W31545   6.113   4.538  11.933
58478W        W31546  34.972  31.507   4.602
58479W        W31547  19.982  26.643   3.687
58480W        W31548   9.928   4.476   0.378
58481W        W31549  37.101   4.642  12.566
58482W        W31550   5.887  38.373   4.228
58483W        W31551  14.354  13.725   3.739
58484W        W31552  19.794  18.855   2.823
58485W        W31553  32.330  20.554  13.268
58486W        W31554  44.408  27.575  11.378
58487W        W31555  15.780  24.662   0.698
58488W        W31556  35.448   3.443  12.090
58489W        W31557   4.477  22.722   0.652
58490W        W31558  32.300   9.603   0.195
58491W        W31559  18.630  38.980  10.601
58492W        W31560  39.792  24.487  14.458
58493W        W31561  27.936   6.170  13.031
58494W        W31562  14.650  18.266  13.442
58495W        W31563  15.311  44.911  14.885
58496W        W31564  14.553   7.018   3.712
58497W        W31565  13.117  37.641  12.971
58498W        W31566  26.996  10.912  13.513
58499W        W31567  28.931  23.482  11.838
58500W        W31568   1.755  40.110   1.804
58501W        W31569  44.469   2.354  13.794
58502W        W31570  25.607  13.162   0.059
58503W        W31571  41.794  13.020  10.743
58504W        W31572  26.028  14.539   4.557
58505W        W31573   0.365  34.498  13.710
58506W        W31574  30.039   2.810   2.157
58507W        W31575  39.875  24.490   3.684
58508W        W31576  38.924   1.428  10.685
58509W        W31577  13.320   7.152  13.384
58510W        W31578   0.944  16.122   4.835
58511W        W31579  23.807  38.090  13.472
58512W        W31580  14.606   5.493   3.142
58513W        W31581  25.621  31.868   1.233
58514W        W31582  10.840  33.613   3.729
58515W        W31583  13.595  13.783   3.287
58516W        W31584  13.334  22.547   0.598
58517W        W31585   3.737  38.322   2.651
58518W        W31586   3.231  21.753  10.425
58519W        W31587  26.170   7.420  13.342
58520W        W31588  31.558  43.755   4.578
58521W        W31589   7.901  11.684   1.408
58522W        W31590  42.561  14.662  12.006
58523W        W31591  41.884  24.257  14.188
58524W        W31592   8.408  36.232   1.329
58525W        W31593  28.993  35.344  14.831
58526W        W31594  38.581  14.247   2.655
58527W        W31595  20.511  39.994  11.113
58528W        W31596  27.641  15.587   1.266
58529W        W31597  21.711  34.293   3.618
58530W        W31598   3.017  26.614   3.244
58531W        W31599  23.148  30.207  13.828
58532W        W31600  42.371  35.350  11.571
58533W        W31601  31.306  41.960   0.649
58534W        W31602  27.708  12.639   1.304
58535W        W31603  16.274  34.482   2.559
58536W        W31604  40.693  26.364   2.186
58537W        W31605  36.872  39.526  14.881
58538W        W31606  41.534  29.027   2.945
58539W        W31607   2.736  26.654  10.664
58540W        W31608   3.339  18.041   2.856
58541W        W31609   5.487  25.380   5.011
58542W        W31610  36.769  17.225   0.239
58543W        W31611   7.523  19.546   0.231
58544W        W31612  22.801  39.838   1.474
58545W        W31613  28.740  43.652   1.363
58546W        W31614  11.754  10.697   1.940
58547W        W31615  31.243  10.689   3.974
58548W        W31616  28.160  19.778   0.821
58549W        W31617  19.675  32.253  12.961
58550W        W31618  31.762  33.143  12.036
58551W        W31619  26.786  39.641   2.694
58552W        W31620  38.730  25.560   3.567
58553W        W31621  24.144  11.963   1.946
58554W        W31622  30.162  11.861  13.312
58555W        W31623  23.986  17.438  12.526
58556W        W31624  42.747  43.706   4.124
58557W        W31625  21.273  43.300  14.765
58558W        W31626  41.003  26.232   0.668
58559W        W31627   1.752  20.569   1.219
58560W        W31628   6.298  25.367  10.376
58561W        W31629  26.474   5.446  10.710
58562W        W31630  34.374  35.908   4.821
58563W        W31631  25.725  19.120  14.444
58564W        W31632  31.177  32.526  12.004
58565W        W31633  43.883   0.338  10.378
58566W        W31634  36.015  38.327   1.853
58567W        W31635  17.428  14.405   3.711
58568W        W31636  14.313   1.600  11.950
58569W        W31637  40.763  23.193   1.500
58570W        W31638  30.467  17.107   0.699
58571W        W31639  30.160   4.378   2.788
58572W        W31640  19.207  21.011  11.480
58573W        W31641  13.738  10.665   3.243
58574W        W31642  24.704  37.551  13.372
58575W        W31643  14.770  40.560  12.118
58576W        W31644   3.001   3.897   1.812
58577W        W31645  37.014  29.546   0.618
58578W        W31646  17.243  18.815  14.268
58579W        W31647  27.042  24.072  11.623
58580W        W31648   5.861  13.102  12.048
58581W        W31649  19.136  27.529   3.737
58582W        W31650   5.374  32.627   4.347
58583W        W31651  37.130  28.514   3.108
58584W        W31652  27.618  15.634  10.298
58585W        W31653  29.700  18.832   4.233
58586W        W31654   6.676  29.123   3.697
58587W        W31655  26.467  36.017   3.142
58588W        W31656   5.631  20.593  10.753
58589W        W31657   6.263  28.491  13.951
58590W        W31658   5.708  37.432  12.010
58591W        W31659   1.844  15.139   1.399
58592W        W31660  11.984  22.461   0.838
58593W        W31661  37.518  35.673  14.245
58594W        W31662  23.646  38.326  13.952
58595W        W31663  41.495  26.806   2.822
58596W        W31664   4.155  40.463   0.964
58597W        W31665  42.105  39.588  11.178
58598W        W31666  44.376  13.743   4.173
58599W        W31667  19.202  35.874   2.314
58600W        W31668  36.873  37.454  11.151
58601W        W31669  32.113  18.464   0.140
58602W        W31670  21.576  36.571   3.369
58603W        W31671  30.844  39.565   0.389
58604W        W31672   3.361  35.533   2.261
58605W        W31673  16.195  23.193  14.479
58606W        W31674  39.804  20.563  14.257
58607W        W31675  43.427  16.756  14.820
58608W        W31676  35.574  24.978  13.341
58609W        W31677   8.125   3.823  12.337
58610W        W31678  38.431  18.036   1.924
58611W        W31679   9.947  35.197   1.293
58612W        W31680  20.589  33.554  11.565
58613W        W31681  28.998   1.905   3.093
58614W        W31682  41.496  36.290   1.355
58615W        W31683  29.591  32.878   3.766
58616W        W31684  12.119  31.518   0.816
58617W        W31685  41.636  21.032   4.645
58618W        W31686  42.798  12.349  14.370
58619W        W31687  43.047  42.146  14.741
58620W        W31688   6.437   2.274   3.727
58621W        W31689  17.552   2.879   4.594
58622W        W31690   5.926   0.409   1.250
58623W        W31691  19.468  27.077   0.999
58624W        W31692  17.736  43.293  11.207
58625W        W31693  27.986  25.803  14.586
58626W        W31694  12.070   8.147   2.257
58627W        W31695  28.650  17.871   4.140
58628W        W31696  25.980  14.677   2.118
58629W        W31697  14.402  44.516  11.696
58630W        W31698   9.324  22.098  10.609
58631W        W31699   8.964  27.819   3.360
58632W        W31700  43.288  37.498   0.998
58633W        W31701  38.276  44.821  11.574
58634W        W31702  40.511  38.283  13.510
58635W        W31703  21.602  33.513   4.814
58636W        W31704   1.526  26.391   3.753
58637W        W31705   0.713   3.080  10.824
58638W        W31706  13.088   4.478   2.776
58639W        W31707  13.882  39.516  13.283
58640W        W31708   6.302   9.556   2.080
58641W        W31709  13.362  16.210  13.349
58642W        W31710   3.542  36.591   2.939
58643W        W31711  25.693  42.706  14.351
58644W        W31712  28.961  43.572   0.247
58645W        W31713  27.164  33.935  14.860
58646W        W31714   2.426  20.688  11.735
58647W        W31715   4.548  32.430   3.328
58648W        W31716   3.594  16.498   2.862
58649W        W31717  39.386  16.755  11.943
58650W        W31718   9.926  43.952  10.826
58651W        W31719  34.242  26.639   3.841
58652W        W31720  24.066  36.476  11.968
58653W        W31721  40.335   6.515   4.316
58654W        W31722   9.397  44.133   2.910
58655W        W31723   9.459  43.478  13.825
58656W        W31724   3.257  20.517   0.277
58657W        W31725  22.122  14.439   0.297
58658W        W31726  20.580   5.578   2.862
58659W        W31727  19.126   0.344   1.491
58660W        W31728  17.026  41.960  13.049
58661W        W31729  37.353  20.655  14.441
58662W        W31730  36.338  17.411  12.482
58663W        W31731  32.072  34.066  10.890
58664W        W31732  37.254  16.631   0.719
58665W        W31733   0.262  10.824   2.761
58666W        W31734  13.247  12.930   4.125
58667W        W31735  34.556  13.146  10.779
58668W        W31736   3.375  31.425   4.612
58669W        W31737  19.015   8.780  12.473
58670W        W31738  24.957  31.003   2.156
58671W        W31739  10.421  14.843   1.307
58672W        W31740  20.776   0.261   2.906
58673W        W31741   6.360  26.031  13.863
58674W        W31742  42.979  39.219  13.829
58675W        W31743  21.806  34.859  13.654
58676W        W31744  18.443   5.359   0.315
58677W        W31745  29.830  10.014   1.965
58678W        W31746  25.273  23.957   1.856
58679W        W31747  34.777  12.211   2.286
58680W        W31748  22.067  38.285   4.604
58681W        W31749   0.382  28.184  12.920
58682W        W31750  43.994   6.961  14.226
58683W        W31751  28.639  27.926   3.719
58684W        W31752  28.505  26.644  14.364
58685W        W31753  24.617  14.260   3.987
58686W        W31754  21.063  29.543   4.683
58687W        W31755  41.088   8.949  13.961
58688W        W31756   4.970   8.121  10.161
58689W        W31757  43.938  17.549   3.292
58690W        W31758  29.482   2.029   2.877
58691W        W31759  14.502  42.445  10.903
58692W        W31760  43.533   0.341  11.607
58693W        W31761  40.954  23.767  12.884
58694W        W31762  30.952  38.358   0.334
58695W        W31763  18.070   7.189   4.597
58696W        W31764  42.335  26.204   4.443
58697W        W31765   6.315  27.586  12.492
58698W        W31766  15.663  12.106   2.103
58699W        W31767  26.545  28.435  14.579
58700W        W31768  26.139  17.795  14.289
58701W        W31769   2.147  17.127  12.157
58702W        W31770   7.678  31.388   0.352
58703W        W31771  38.541  25.064  13.011
58704W        W31772  32.660  38.030  12.310
58705W        W31773  39.896  13.370  11.061
58706W        W31774  26.935  31.792   0.893
58707W        W31775  21.053  29.286  10.738
58708W        W31776  11.655   2.903   3.163
58709W        W31777   4.711   2.979   1.071
58710W        W31778  39.611  22.973  10.611
58711W        W31779  13.765  33.758  14.704
58712W        W31780  15.722  31.951   4.647
58713W        W31781  16.733  24.704  13.460
58714W        W31782  21.044  34.139   0.110
58715W        W31783  24.139  11.789   1.432
58716W        W31784  12.201   2.721  14.503
58717W        W31785  37.539  32.896   3.557
58718W        W31786  38.004  12.075  12.972
58719W        W31787  21.620  15.055  10.928
58720W        W31788  37.981  41.929   1.636
58721W        W31789  42.430  39.313  14.253
58722W        W31790   7.741  13.736  13.940
58723W        W31791  38.789  15.325  12.436
58724W        W31792  28.517   2.846   1.252
58725W        W31793  15.623  36.871   0.796
58726W        W31794  22.584  43.332  14.326
58727W        W31795   6.938  14.187   2.431
58728W        W31796  34.684  42.989  14.882
58729W        W31797  31.363  18.128   3.634
58730W        W31798  35.026  17.101  13.133
58731W        W31799  21.605  13.272  14.548
58732W        W31800   8.363  28.522  11.952
58733W        W31801  13.774  33.887  13.101
58734W        W31802  44.931   2.432  13.528
58735W        W31803   6.232   3.425  11.602
58736W        W31804  16.626  40.381   3.699
58737W        W31805  18.199  37.284   0.820
58738W        W31806  44.743  14.918  10.724
58739W        W31807  44.013   0.559  14.912
58740W        W31808  38.514  20.669  12.670
58741W        W31809  17.809  28.717  13.231
58742W        W31810  12.692   8.841  13.023
58743W        W31811  25.419  22.455  12.435
58744W        W31812  14.603   2.876   4.160
58745W        W31813  44.722  35.153   0.882
58746W        W31814   1.289  19.756   3.245
58747W        W31815  15.291  32.984  10.679
58748W        W31816  17.151  44.064   4.287
58749W        W31817  33.690   5.298  10.766
58750W        W31818   8.939  10.697   1.442
58751W        W31819  31.705  27.111  10.984
58752W        W31820  13.622  33.163  11.249
58753W        W31821  29.771   3.488   3.719
58754W        W31822   3.668  20.041  13.197
58755W        W31823  16.118  40.951   0.955
58756W        W31824  41.348  27.631  14.464
58757W        W31825  41.515  42.669   3.248
58758W        W31826  18.401   0.746   3.153
58759W        W31827  31.440  44.312  11.550
58760W        W31828  24.706   5.817   2.182
58761W        W31829  12.921  12.865  14.053
58762W        W31830  31.258  15.106   2.272
58763W        W31831  12.216  20.077  11.450
58764W        W31832  11.153  29.560   2.711
58765W        W31833  18.824  25.562   3.432
58766W        W31834   9.560  24.735  11.646
58767W        W31835  35.996  23.285   0.298
58768W        W31836  28.550  30.262   0.869
58769W        W31837  19.218   6.763   1.392
58770W        W31838   8.409  34.567   4.601
58771W        W31839   7.035  20.645  12.962
58772W        W31840  25.191  33.417   3.292
58773W        W31841  34.959  32.932   4.112
58774W        W31842  15.637  34.551  14.346
58775W        W31843   4.234  33.937   2.390
58776W        W31844  39.535  10.449   1.871
58777W        W31845  24.548   4.325  14.874
58778W        W31846  35.086  37.808   4.551
58779W        W31847   9.753   8.756  14.816
58780W        W31848  39.333  38.257  14.549
58781W        W31849  42.957   4.980  12.787
58782W        W31850  31.032  33.455   1.004
58783W        W31851  27.699   4.800   4.297
58784W        W31852  37.283  36.330   3.690
58785W        W31853  11.233  35.639  11.462
58786W        W31854  30.067  13.536   0.257
58787W        W31855  31.028  24.445   2.638
58788W        W31856  10.296  38.496   4.722
58789W        W31857  37.801  30.548   5.003
58790W        W31858  36.154  13.180   4.680
58791W        W31859  40.061  27.726  13.564
58792W        W31860  28.587  36.037  12.554
58793W        W31861  33.803  19.333  14.939
58794W        W31862  40.955  41.720   4.169
58795W        W31863   2.863  21.155  13.320
58796W        W31864  35.607   1.168  11.680
58797W        W31865  40.428  21.773   3.675
58798W        W31866  14.491  38.535  13.863
58799W        W31867  23.781   5.142   1.902
58800W        W31868  30.463  38.612   4.109
58801W        W31869  39.608  37.882  14.804
58802W        W31870  20.248   6.971   3.170
58803W        W31871  22.744  12.731   0.489
58804W        W31872  25.421  16.343  11.058
58805W        W31873   7.722  26.098   4.596
58806W        W31874  25.142  18.797  12.852
58807W        W31875  35.258  11.650  11.999
58808W        W31876  18.859   6.306  13.014
58809W        W31877  26.671  26.474   1.581
58810W        W31878  28.040  32.149  13.786
58811W        W31879  14.122  44.511   0.892
58812W        W31880  19.287  25.307  13.444
58813W        W31881  23.697  21.443  11.610
58814W        W31882  22.484  24.025   2.292
58815W        W31883  20.677   7.757  10.732
58816W        W31884  20.687  27.658   3.956
58817W        W31885  41.116   6.122   1.883
58818W        W31886  18.034  35.493   2.184
58819W        W31887  31.195  10.221   2.312
58820W        W31888  24.702   5.652  13.182
58821W        W31889  24.936  26.417  14.423
58822W        W31890   3.876  10.678  11.561
58823W        W31891  29.741  28.591   4.053
58824W        W31892  42.725   9.356  11.542
58825W        W31893  27.703  39.435  10.639
58826W        W31894  15.045  40.006   0.871
58827W        W31895  33.601   6.741  14.492
58828W        W31896  40.921  11.816   4.895
58829W        W31897  24.652  19.686  11.537
58830W        W31898  41.573  23.516  14.390
58831W        W31899   4.142  13.995   2.151
58832W        W31900  27.632  43.523   1.933
58833W        W31901   3.878  42.322   2.464
58834W        W31902  32.884  21.884  11.987
58835W        W31903   0.389  22.918  14.711
58836W        W31904  42.399  10.335   1.736
58837W        W31905  17.287  16.626   0.739
58838W        W31906  28.113   4.751  10.629
58839W        W31907  33.591  24.284  11.551
58840W        W31908  35.423  34.364   0.362
58841W        W31909  33.457   0.660   0.903
58842W        W31910  37.961  11.204   0.281
58843W        W31911  37.466   3.458   2.688
58844W        W31912  13.811  29.514  10.779
58845W        W31913   5.788  37.023  13.383
58846W        W31914  29.069  37.599  14.957
58847W        W31915  17.517  19.421   3.681
58848W        W31916  32.194  29.836  13.513
58849W        W31917  15.452  13.427   5.140
58850W        W31918  27.766  39.003   2.193
58851W        W31919   3.722  37.801  10.928
58852W        W31920  24.038  19.224  12.610
58853W        W31921  41.327  43.940   4.948
58854W        W31922  15.186  39.260   1.248
58855W        W31923  43.016  28.433   4.082
58856W        W31924  10.399  43.338   0.995
58857W        W31925  20.812  14.856  13.392
58858W        W31926  39.418   8.264   3.015
58859W        W31927  36.573  30.878   1.395
58860W        W31928  16.893  37.052  12.988
58861W        W31929  30.511  35.583   0.528
58862W        W31930  34.536  29.434   4.122
58863W        W31931  23.543  40.917   3.720
58864W        W31932   0.294  33.819   1.784
58865W        W31933   2.465  11.643  14.762
58866W        W31934  11.277   5.915   1.732
58867W        W31935  10.977   8.290  14.669
58868W        W31936  24.068  21.287   1.154
58869W        W31937   6.034   1.647  12.070
58870W        W31938  43.760   4.718   0.761
58871W        W31939  24.709  44.562   1.799
58872W        W31940  36.389  42.201   1.908
58873W        W31941   0.053  30.651  12.036
58874W        W31942  36.058  20.875   0.437
58875W        W31943  41.370   6.674   4.793
58876W        W31944   6.672  13.770   3.183
58877W        W31945   0.476   1.174   4.441
58878W        W31946  13.138   5.039   4.489
58879W        W31947   3.799   0.946   3.750
58880W        W31948  30.695  37.296   0.791
58881W        W31949   0.979  12.751  10.837
58882W        W31950   2.023  41.486   1.187
58883W        W31951   6.415  29.424   4.698
58884W        W31952  10.722  32.975   2.356
58885W        W31953  34.028  34.854  14.867
58886W        W31954  32.414  41.867   1.837
58887W        W31955  13.818   9.188   3.813
58888W        W31956  26.035  27.737   4.812
58889W        W31957  19.632   3.981   1.723
58890W        W31958   6.587  21.800  13.835
58891W        W31959   5.663   9.312   2.782
58892W        W31960   4.019  28.537  11.497
58893W        W31961  14.059  15.537  10.181
58894W        W31962  36.502   0.442  11.435
58895W        W31963   9.640  40.785  11.976
58896W        W31964   5.787  27.210   2.369
58897W        W31965   8.478  27.789   5.014
58898W        W31966  33.694  12.927   5.037
58899W        W31967  17.148   7.894  14.831
58900W        W31968  43.418   0.466   4.012
58901W        W31969  27.500  30.488  13.472
58902W        W31970  19.107  32.437  11.877
58903W        W31971  39.393   5.326  14.471
58904W        W31972  33.526  19.775   3.320
58905W        W31973  15.791  35.490  14.799
58906W        W31974  42.451  19.550   0.998
58907W        W31975  15.914  34.607  12.033
58908W        W31976  29.967   7.336   2.758
58909W        W31977  38.893  29.574   4.881
58910W        W31978  21.901  17.833  13.416
58911W        W31979  44.703  31.920   1.037
58912W        W31980  29.709  38.875  11.126
58913W        W31981  29.943   2.539   3.355
58914W        W31982  17.731   8.431   4.356
58915W        W31983   0.970  43.862  13.577
58916W        W31984  10.628  21.697   4.044
58917W        W31985  19.778  35.718   4.041
58918W        W31986  30.569  44.229   1.296
58919W        W31987   0.090  30.583   0.767
58920W        W31988   9.708  12.734  10.588
58921W        W31989  44.533  12.015   3.812
58922W        W31990   7.863  37.061   2.316
58923W        W31991   3.383   9.860  14.869
58924W        W31992  22.510  17.338  14.104
58925W        W31993  40.510  14.195   3.657
58926W        W31994   9.502   7.707  11.422
58927W        W31995  20.695  13.412   0.479
58928W        W31996  34.829   7.711   3.574
58929W        W31997  41.781  39.819   2.659
58930W        W31998  33.381  43.278  12.165
58931W        W31999   8.395  18.520   3.158
58932W        W32000   2.036  20.750  13.271
58933W        W32001  41.438  33.907  11.166
58934W        W32002  25.789  33.048  13.456
58935W        W32003  28.790   1.040  13.319
58936W        W32004   7.234  10.960  12.901
58937W        W32005  37.556  41.924  12.035
58938W        W32006  21.983   6.446   0.892
58939W        W32007  38.103  24.659   0.032
58940W        W32008  14.167  10.582   4.552
58941W        W32009  33.898  11.850   0.899
58942W        W32010  40.615  13.698   9.525
58943W        W32011  29.971  11.792   1.173
58944W        W32012  34.775   5.745  11.942
58945W        W32013  33.112  43.381   3.820
58946W        W32014  35.861  16.721  13.423
58947W        W32015  32.974  23.541   4.745
58948W        W32016  30.046  30.866  11.618
58949W        W32017  26.656  14.695   3.760
58950W        W32018  14.284  35.462   4.510
58951W        W32019   7.260  31.115   3.656
58952W        W32020   4.311  25.834   0.400
58953W        W32021  24.975  33.011  13.966
58954W        W32022  41.928  34.291  11.062
58955W        W32023   6.951  39.750  14.369
58956W        W32024  36.975   1.050   3.135
58957W        W32025  27.204  14.198   2.394
58958W        W32026  34.868  12.644   2.938
58959W        W32027  26.630  11.011   3.264
58960W        W32028   0.259   6.232   4.920
58961W        W32029   4.698  39.046  14.348
58962W        W32030  17.311  18.968  10.956
58963W        W32031   2.546   9.183   4.671
58964W        W32032   1.237  21.551   2.635
58965W        W32033  21.284  21.693  11.878
58966W        W32034  15.208  38.078   1.952
58967W        W32035  25.079   6.219  10.656
58968W        W32036  32.661   0.495  11.928
58969W        W32037  39.427  44.702  13.424
58970W        W32038  43.401  35.363  13.330
58971W        W32039  36.836  42.980   3.269
58972W        W32040  10.306  13.885   0.950
58973W        W32041  30.129  10.064  12.533
58974W        W32042  34.582  44.474  10.665
58975W        W32043  25.014  25.125  10.569
58976W        W32044  22.273  34.850  11.524
58977W        W32045  35.423  21.000  11.517
58978W        W32046  20.531  37.695  14.381
58979W        W32047  11.509   1.758  12.065
58980W        W32048   4.293   1.559  13.527
58981W        W32049  33.142  25.502   1.813
58982W        W32050  32.095  33.094  13.437
58983W        W32051  41.492   0.459  14.132
58984W        W32052  40.083   9.756  11.973
58985W        W32053  11.510  41.358   2.246
58986W        W32054   1.919  31.485   0.026
58987W        W32055   1.597  41.358   4.921
58988W        W32056  37.967  21.614  11.686
58989W        W32057  18.185  40.358  11.605
58990W        W32058  34.131  23.641   3.803
58991W        W32059  20.171  10.212   1.883
58992W        W32060  42.920  20.592   1.297
58993W        W32061  22.033  39.978   1.759
58994W        W32062   2.959  25.392   2.381
58995W        W32063  13.992  26.151  14.802
58996W        W32064  24.428  41.342  13.550
58997W        W32065  42.249  26.341   3.978
58998W        W32066  14.253  17.231  11.530
58999W        W32067   5.932   0.132  14.003
59000W        W32068  29.516  23.253  14.259
59001W        W32069  29.944  25.694  10.598
59002W        W32070  34.116   1.569  14.450
59003W        W32071  34.524  42.830  11.701
59004W        W32072  33.329  40.815   1.405
59005W        W32073  24.209  43.747   1.872
59006W        W32074  29.867  33.861   4.605
59007W        W32075   4.636   5.938   0.848
59008W        W32076  22.718  37.190   5.067
59009W        W32077  17.704  36.158  14.031
59010W        W32078  27.305   3.122   5.082
59011W        W32079  42.992   1.053   1.306
59012W        W32080  28.895   4.234  12.947
59013W        W32081   5.837  19.062  13.255
59014W        W32082  30.988   0.937  13.422
59015W        W32083  16.600   6.709   0.346
59016W        W32084   0.720  24.756  12.460
59017W        W32085  26.913  42.060   0.345
59018W        W32086   7.316  16.250   4.127
59019W        W32087   4.396  20.230   2.125
59020W        W32088  29.760  12.619   4.286
59021W        W32089  31.878   6.847   0.303
59022W        W32090   2.152  28.592  13.996
59023W        W32091  43.086  10.837   0.753
59024W        W32092  43.009  28.935  14.807
59025W        W32093  33.896  18.344   0.396
59026W        W32094   9.193  12.930  10.748
59027W        W32095  41.758   0.760   0.806
59028W        W32096  27.156  32.438   1.485
59029W        W32097  40.160   5.784  14.449
59030W        W32098  38.881  27.920  14.329
59031W        W32099  22.068   3.030  13.969
59032W        W32100  17.887   5.338   3.789
59033W        W32101  29.619  19.655  11.753
59034W        W32102  13.074  17.867  10.726
59035W        W32103   9.375  20.622   2.911
59036W        W32104  17.798  37.024   1.750
59037W        W32105  22.680  19.283   3.699
59038W        W32106  24.058  25.288  14.791
59039W        W32107  17.023   9.495  14.295
59040W        W32108  43.016  26.947  14.804
59041W        W32109  41.922  22.196   1.560
59042W        W32110  23.803  40.173  12.124
59043W        W32111  30.850  43.008   0.478
59044W        W32112   1.765  40.919   2.869
59045W        W32113  17.137   2.724   0.436
59046W        W32114   9.330   7.668   5.093
59047W        W32115  22.086  28.966   2.379
59048W        W32116  21.168   4.697  13.567
59049W        W32117   6.285  29.086  14.345
59050W        W32118   4.592  20.817   5.082
59051W        W32119  26.005  41.748   3.765
59052W        W32120  15.912   4.940   3.116
59053W        W32121  23.194  27.937  12.628
59054W        W32122  31.913  18.682  10.682
59055W        W32123   4.922  18.576   3.105
59056W        W32124   5.836  28.719   0.359
59057W        W32125  22.297  40.580  13.750
59058W        W32126  18.205  41.939  13.801
59059W        W32127  30.490  38.542   0.461
59060W        W32128   4.929   5.661  11.491
59061W        W32129  38.449   6.096   2.275
59062W        W32130  22.006  43.862   3.593
59063W        W32131   8.910  10.904  14.472
59064W        W32132  11.098   4.208  12.038
59065W        W32133  36.058   9.834  11.964
59066W        W32134  36.289  40.471  14.913
59067W        W32135   0.509   8.720   2.284
59068W        W32136   6.189  21.791   2.656
59069W        W32137  11.701   2.603   2.748
59070W        W32138  24.561   9.586  14.062
59071W        W32139  33.133  11.309   0.821
59072W        W32140  16.878  19.988  13.968
59073W        W32141  31.710  34.026   3.068
59074W        W32142  33.357  22.065  12.073
59075W        W32143  25.654  22.725  12.925
59076W        W32144  22.668  12.048   3.250
59077W        W32145  11.419  11.194  12.554
59078W        W32146   9.390   6.676   0.746
59079W        W32147   0.286  31.341   1.486
59080W        W32148  14.700  36.067   2.914
59081W        W32149  26.528   8.197  11.016
59082W        W32150  41.875  41.755   4.167
59083W        W32151  23.190  33.507   4.076
59084W        W32152  40.521  22.987   2.125
59085W        W32153  26.959  11.449  14.721
59086W        W32154  21.896  23.228   2.594
59087W        W32155   2.808   2.732  13.587
59088W        W32156  17.726  10.272   2.737
59089W        W32157  31.087  42.276   2.287
59090W        W32158   2.669  38.295  11.791
59091W        W32159  34.173  44.945  11.006
59092W        W32160  43.490  11.486  10.703
59093W        W32161  13.177  22.272  11.405
59094W        W32162  14.841  32.635   0.017
59095W        W32163   4.198  29.487  14.196
59096W        W32164   7.699  22.695   2.279
59097W        W32165  10.684  12.645   2.535
59098W        W32166  44.681   8.725   1.946
59099W        W32167  14.294  15.297   3.383
59100W        W32168  33.478  16.326   2.781
59101W        W32169  31.940  16.343  12.348
59102W        W32170   5.320  31.554  11.075
59103W        W32171  10.184  23.480   2.838
59104W        W32172  41.512   7.222   4.289
59105W        W32173  19.790  22.293   1.835
59106W        W32174   0.232  35.573  11.249
59107W        W32175   0.479  12.111  13.729
59108W        W32176  38.855  10.124   3.196
59109W        W32177  14.229  16.546  14.742
59110W        W32178   6.286  33.316   4.998
59111W        W32179  16.153  18.631  14.359
59112W        W32180  37.525  19.874   2.733
59113W        W32181  13.306  23.165   4.382
59114W        W32182   8.903  21.943   4.385
59115W        W32183   4.838  13.496   4.105
59116W        W32184  32.019  27.165  14.577
59117W        W32185   9.895  40.947  12.380
59118W        W32186   8.410  14.649  13.956
59119W        W32187   6.371  14.125   4.216
59120W        W32188   4.173   1.243  12.632
59121W        W32189  32.491  37.811   4.376
59122W        W32190  18.651  26.868   4.775
59123W        W32191  42.693   7.030   3.391
59124W        W32192  22.709  33.779  11.915
59125W        W32193  11.277  31.328  13.294
59126W        W32194   2.247  35.787   3.668
59127W        W32195  37.364   6.728  10.710
59128W        W32196  25.101   2.395  11.546
59129W        W32197  13.868  32.939   4.108
59130W        W32198  16.679  12.379  11.965
59131W        W32199  30.001  38.049  12.844
59132W        W32200  20.645  29.993  14.181
59133W        W32201  20.143  37.166   1.295
59134W        W32202  33.827   1.318  12.146
59135W        W32203  18.652  44.986   3.700
59136W        W32204   1.785  22.339  13.936
59137W        W32205  13.860  32.697  11.551
59138W        W32206  26.534  15.367   3.199
59139W        W32207  11.358  33.939   3.804
59140W        W32208  44.781  38.417   3.784
59141W        W32209  37.302  20.331   4.082
59142W        W32210  24.717   2.154  14.921
59143W        W32211  38.772  10.850  10.392
59144W        W32212  10.241  24.235  10.994
59145W        W32213   0.935  39.791  14.497
59146W        W32214  41.096  25.142   2.786
59147W        W32215  26.712  14.790  12.438
59148W        W32216  29.671  40.269   2.152
59149W        W32217   2.398  21.407   1.843
59150W        W32218  38.712  11.516   3.067
59151W        W32219  34.327  30.501  12.879
59152W        W32220  40.156  21.605   2.204
59153W        W32221  10.845  43.351   1.231
59154W        W32222   5.215  12.403   3.283
59155W        W32223  33.909   2.257  11.635
59156W        W32224  41.466  36.355  13.013
59157W        W32225  11.734  22.412  11.889
59158W        W32226  42.086  43.678   1.645
59159W        W32227  39.802  44.476  12.926
59160W        W32228  43.046  37.300   1.826
59161W        W32229  38.713  30.937   3.950
59162W        W32230  39.979  21.001  14.483
59163W        W32231  25.286  12.127  10.664
59164W        W32232  38.619  12.921  14.411
59165W        W32233  31.199  13.706  10.467
59166W        W32234  15.122  43.794   1.994
59167W        W32235  26.986  43.331   4.770
59168W        W32236  28.243   2.949  14.419
59169W        W32237   1.602   7.391   2.777
59170W        W32238  13.889  17.101  14.435
59171W        W32239  40.322  25.032   2.365
59172W        W32240  12.770  44.044  14.786
59173W        W32241  18.290  44.399   2.065
59174W        W32242  44.035  15.222  10.776
59175W        W32243  21.496  39.515   4.640
59176W        W32244   6.969  15.630  14.680
59177W        W32245  14.806  39.928  12.869
59178W        W32246   3.274  14.274  12.977
59179W        W32247  15.105  30.891   3.057
59180W        W32248  43.967  24.774  14.643
59181W        W32249  22.927  15.627  14.522
59182W        W32250  37.030   8.490   4.298
59183W        W32251  14.827  10.201   1.442
59184W        W32252  13.497  22.726   1.452
59185W        W32253  37.580  44.921   0.922
59186W        W32254  17.208  41.319   4.904
59187W        W32255   6.643  42.876  12.937
59188W        W32256  42.525  32.483   3.295
59189W        W32257  12.927  32.110   1.497
59190W        W32258   3.641  31.466   1.378
59191W        W32259  33.871   8.306   0.215
59192W        W32260  38.820  16.218   1.437
59193W        W32261   5.956  39.503  14.616
59194W        W32262  13.832  20.468  13.947
59195W        W32263  22.021  12.237   1.867
59196W        W32264  24.170   8.213  13.797
59197W        W32265  37.507  42.820   4.032
59198W        W32266  34.456  15.162   3.489
59199W        W32267  26.266  34.375  11.159
59200W        W32268  27.648  29.659   1.367
59201W        W32269   8.639   3.824  12.332
59202W        W32270  10.944  11.580   4.044
59203W        W32271  28.271  30.944  14.475
59204W        W32272  12.214   4.232   4.569
59205W        W32273  42.532  13.825  13.934
59206W        W32274  14.820  31.489  10.449
59207W        W32275  36.143  27.936  11.125
59208W        W32276   0.008  34.435   1.680
59209W        W32277   1.998   8.618   5.159
59210W        W32278  35.141  43.117   3.362
59211W        W32279  13.794  44.282  13.131
59212W        W32280  23.928  11.417  11.120
59213W        W32281  38.221   0.248   2.941
59214W        W32282  37.941  41.973   1.132
59215W        W32283   8.702   2.981  10.631
59216W        W32284  42.319  14.226  11.876
59217W        W32285  11.274  30.481  14.373
59218W        W32286  21.503  43.033   3.814
59219W        W32287   9.772  15.238  14.455
59220W        W32288  39.415  33.282  14.917
59221W        W32289  21.144  21.592   4.435
59222W        W32290   3.042  14.226  10.667
59223W        W32291  18.665   7.658  13.359
59224W        W32292  10.890  39.800  13.852
59225W        W32293   5.874  35.938   2.704
59226W        W32294   9.191   9.611  11.196
59227W        W32295   7.013   1.019   3.394
59228W        W32296  25.108  13.629   4.493
59229W        W32297  24.674  44.416  14.787
59230W        W32298  34.260  31.470   2.307
59231W        W32299  27.180  14.710   0.429
59232W        W32300  16.016  27.728  11.454
59233W        W32301  26.486  39.876   0.293
59234W        W32302   8.338  23.461  14.079
59235W        W32303  40.181   4.757   4.229
59236W        W32304  15.702   6.912   1.245
59237W        W32305  16.107  25.134  10.789
59238W        W32306  42.473  15.152   4.585
59239W        W32307  12.672   9.357  12.940
59240W        W32308   8.105  44.346  12.520
59241W        W32309  23.684  11.343  11.566
59242W        W32310  17.445  39.094   1.357
59243W        W32311  37.458  25.260   1.729
59244W        W32312   8.321  33.030   4.639
59245W        W32313  20.064   5.568  12.465
59246W        W32314  31.901  12.642   2.439
59247W        W32315  30.244  21.275  12.465
59248W        W32316  43.871  40.411  13.928
59249W        W32317   1.363  10.346   4.198
59250W        W32318  10.072   8.480  13.484
59251W        W32319   7.912  31.104   1.713
59252W        W32320  22.521   1.898   3.259
59253W        W32321  14.084  30.220  14.921
59254W        W32322   4.763  40.757  13.262
59255W        W32323  16.178  31.135  14.207
59256W        W32324   0.824  19.024  13.533
59257W        W32325  30.540   6.019   5.088
59258W        W32326  40.325  24.549  14.529
59259W        W32327  20.464  16.317   4.547
59260W        W32328  42.755  20.680   4.238
59261W        W32329  41.822   7.921   3.775
59262W        W32330  25.087  21.399   0.096
59263W        W32331  40.068  18.107   1.820
59264W        W32332  44.395  28.546   3.306
59265W        W32333  24.258  34.987  14.049
59266W        W32334  11.106  31.204  13.775
59267W        W32335  30.133   4.966  13.849
59268W        W32336  34.410  12.200   3.736
59269W        W32337  43.494   4.835   1.883
59270W        W32338  35.578   1.924  12.099
59271W        W32339  22.538  32.931   2.254
59272W        W32340   2.317   6.960   1.767
59273W        W32341  17.603   5.794  14.489
59274W        W32342  15.861   1.880   2.028
59275W        W32343  19.076  13.319  13.390
59276W        W32344   6.892  20.970   4.102
59277W        W32345  21.946  11.900  11.540
59278W        W32346   3.371  34.138   4.460
59279W        W32347  41.676  27.214   2.571
59280W        W32348  28.228  30.518   5.119
59281W        W32349  25.634   8.910   4.570
59282W        W32350  13.253  28.000   2.212
59283W        W32351  22.708  31.103   3.866
59284W        W32352  44.865   5.958   0.382
59285W        W32353  31.566   2.249   0.825
59286W        W32354  37.639  21.630   3.159
59287W        W32355   7.223  30.624   3.903
59288W        W32356  30.850  27.965  11.547
59289W        W32357   8.415  43.659   1.905
59290W        W32358  38.467   1.009  13.858
59291W        W32359  34.015  32.605  14.074
59292W        W32360   2.993   5.370   3.238
59293W        W32361  22.744  15.264   4.639
59294W        W32362  38.830  28.534  13.048
59295W        W32363  14.248   4.254   0.284
59296W        W32364  35.454  36.427   2.795
59297W        W32365  34.356   7.763   3.790
59298W        W32366  21.590   7.411  11.521
59299W        W32367  20.021  13.058  11.798
59300W        W32368  22.052   0.875  14.960
59301W        W32369  33.122  41.801   0.777
59302W        W32370   5.239   0.983   4.631
59303W        W32371  13.721  44.846   0.862
59304W        W32372  16.532  23.559  10.807
59305W        W32373  39.803  39.833  13.408
59306W        W32374  23.893  20.087  10.690
59307W        W32375  44.232  26.913  11.945
59308W        W32376  43.789  37.301  14.918
59309W        W32377  44.321  40.767   2.829
59310W        W32378  25.119  41.780   2.245
59311W        W32379   9.766  12.197  10.605
59312W        W32380   7.774   7.425  12.940
59313W        W32381  12.826  16.065  12.602
59314W        W32382  21.595  23.135  11.278
59315W        W32383  33.179  32.932  14.374
59316W        W32384  29.582  25.083  12.684
59317W        W32385  17.784  43.515  13.667
59318W        W32386  22.486  27.678  12.200
59319W        W32387  39.507   5.359  13.204
59320W        W32388  39.609  29.927   3.345
59321W        W32389  31.968  30.713   4.694
59322W        W32390   0.746  21.084  12.572
59323W        W32391  22.399  10.762   4.939
59324W        W32392   4.878  29.740   1.862
59325W        W32393  31.689  36.397  11.472
59326W        W32394  20.124  15.300   2.140
59327W        W32395  34.397  38.713  14.286
59328W        W32396  34.914   4.761  14.221
59329W        W32397  42.581  10.836   1.832
59330W        W32398  28.089  23.156   0.718
59331W        W32399   8.768   0.367   3.397
59332W        W32400  11.619   0.905  13.124
59333W        W32401  30.509  16.775   4.904
59334W        W32402  18.253   0.887  13.515
59335W        W32403  13.148  16.036  13.828
59336W        W32404  12.077  12.029  12.475
59337W        W32405  34.461   0.885   0.493
59338W        W32406  21.177   9.113  13.693
59339W        W32407  30.605  40.805   1.644
59340W        W32408  12.644  43.403   4.611
59341W        W32409   8.442  28.033  11.835
59342W        W32410   0.278  26.563  10.365
59343W        W32411   0.527  34.932   3.261
59344W        W32412   3.174  10.115   2.282
59345W        W32413  32.445   9.728   3.191
59346W        W32414  43.866   6.915  11.302
59347W        W32415  17.046  40.895  13.269
59348W        W32416  10.244  43.553   2.873
59349W        W32417  19.043  31.017   1.756
59350W        W32418   8.429  43.277  12.502
59351W        W32419   8.751  18.636   4.182
59352W        W32420   6.189  27.490   2.179
59353W        W32421  12.136  40.960  14.489
59354W        W32422   8.178  18.215   4.666
59355W        W32423  13.710   7.621   0.366
59356W        W32424   2.883   8.295   2.979
59357W        W32425  28.634   7.129  14.883
59358W        W32426  33.426  24.276  13.434
59359W        W32427  34.418   4.782   2.143
59360W        W32428  35.673   5.940  12.089
59361W        W32429  26.390  42.871  11.308
59362W        W32430  40.781  23.619  14.896
59363W        W32431  20.904  32.980   4.703
59364W        W32432  18.575   6.814  14.399
59365W        W32433   9.077  11.783  14.088
59366W        W32434   2.304   4.780   1.493
59367W        W32435  42.483  23.101   1.755
59368W        W32436   5.390  11.122  11.066
59369W        W32437  21.577  23.417  10.451
59370W        W32438  17.314   9.392  14.939
59371W        W32439   3.500   7.353  13.978
59372W        W32440   4.342   3.341  14.527
59373W        W32441  39.983  27.635  14.079
59374W        W32442  21.768   9.912  10.739
59375W        W32443  13.747  36.791  10.727
59376W        W32444  31.919  12.811  13.620
59377W        W32445  43.940  37.811  13.987
59378W        W32446  17.273  41.354   1.258
59379W        W32447   6.798  10.139  11.175
59380W        W32448   4.478  11.623  12.073
59381W        W32449  30.041  14.823  12.036
59382W        W32450  35.148   2.278  14.189
59383W        W32451  21.658  19.126  14.389
59384W        W32452  25.891  22.711   4.473
59385W        W32453  36.386  19.717  12.880
59386W        W32454   5.881  25.658   0.343
59387W        W32455  10.641  33.867   4.182
59388W        W32456  44.408  10.823   1.444
59389W        W32457  20.109  14.610   3.767
59390W        W32458   3.662   8.202   4.646
59391W        W32459  17.598  41.998   3.342
59392W        W32460  15.209  14.741   1.008
59393W        W32461  28.593   4.933   2.679
59394W        W32462  44.366  40.076   1.646
59395W        W32463  22.831  24.667  10.579
59396W        W32464  20.167  36.199  12.439
59397W        W32465  40.814  16.247  11.833
59398W        W32466  20.755  38.542   2.741
59399W        W32467  18.150   1.756   2.321
59400W        W32468  26.599  15.195   1.030
59401W        W32469  23.179  36.629   1.042
59402W        W32470  15.664  18.519   1.373
59403W        W32471  39.030  33.942   5.024
59404W        W32472  40.692   4.765   1.382
59405W        W32473  14.707  24.521  12.947
59406W        W32474   6.710   2.153   4.143
59407W        W32475  29.967  28.999  10.936
59408W        W32476  30.792  33.844  11.216
59409W        W32477  18.382  30.590   3.760
59410W        W32478  25.149   0.690  14.880
59411W        W32479   2.168  44.185  11.489
59412W        W32480   0.868  21.358  13.030
59413W        W32481  34.183  26.677  11.990
59414W        W32482  34.308  20.560   2.286
59415W        W32483  17.369  13.712  14.559
59416W        W32484  16.128  32.527  13.470
59417W        W32485  10.240  43.427  12.140
59418W        W32486  10.169  42.884   4.670
59419W        W32487  43.538  36.623  13.747
59420W        W32488  18.154  12.104  13.580
59421W        W32489  20.727  10.767  14.918
59422W        W32490  31.039   8.380   4.322
59423W        W32491   7.467  29.103   0.243
59424W        W32492  38.692  27.374  13.398
59425W        W32493  11.657  19.594  12.382
59426W        W32494  23.054   7.380   0.011
59427W        W32495  44.051   2.908  10.244
59428W        W32496  40.588  20.801   1.675
59429W        W32497  18.196  34.985   1.393
59430W        W32498  39.992  16.647  14.143
59431W        W32499  31.408  22.829  11.848
59432W        W32500  16.666  35.056   1.041
59433W        W32501  26.914  28.941   0.312
59434W        W32502  20.405  22.751   1.138
59435W        W32503  28.731   6.734   4.764
59436W        W32504  25.743  38.510   2.306
59437W        W32505  11.851   0.473   4.813
59438W        W32506   8.539   1.020   0.957
59439W        W32507   1.290   9.330  10.673
59440W        W32508  41.364  34.543   4.925
59441W        W32509  11.288   9.574  11.083
59442W        W32510   4.803  19.486  10.699
59443W        W32511  30.886  38.020   3.573
59444W        W32512  44.864  16.155   1.308
59445W        W32513  42.337  43.199   5.069
59446W        W32514  28.204  12.792  13.051
59447W        W32515  38.055   0.842   9.659
59448W        W32516   0.506  41.069  12.550
59449W        W32517   2.859  19.093  11.480
59450W        W32518  15.624  39.246  11.624
59451W        W32519  17.996  14.275  12.874
59452W        W32520   2.504  15.758  14.931
59453W        W32521  39.831  34.972  12.554
59454W        W32522  41.760  43.290   1.802
59455W        W32523  33.187  32.655  11.171
59456W        W32524  40.530  24.338  12.067
59457W        W32525   6.203   4.711  10.258
59458W        W32526  24.176  32.483  10.813
59459W        W32527  32.895  36.545   4.110
59460W        W32528  41.475  31.080   1.343
59461W        W32529  14.670  40.119  13.321
59462W        W32530   1.110  39.818  10.744
59463W        W32531  43.495  37.046  14.529
59464W        W32532  19.224  29.433  12.579
59465W        W32533  18.736  40.095   3.189
59466W        W32534   4.728  19.990  10.663
59467W        W32535  29.921   4.808  12.464
59468W        W32536  35.485  39.536   4.660
59469W        W32537  35.558  13.718   2.627
59470W        W32538  16.357   1.302   1.340
59471W        W32539  34.666  10.627  12.351
59472W        W32540  24.742  17.318  12.995
59473W        W32541   5.670  43.493   1.817
59474W        W32542   2.791  26.856  13.012
59475W        W32543  20.299  42.202   3.611
59476W        W32544  25.300  22.651   5.276
59477W        W32545  13.490  16.572   2.324
59478W        W32546  26.350  10.558   3.267
59479W        W32547   2.692  43.455  11.175
59480W        W32548   1.289  14.859  12.955
59481W        W32549   6.886  23.443   1.760
59482W        W32550  33.717   7.785   0.173
59483W        W32551  37.358  44.731   0.466
59484W        W32552  19.556  34.729   2.903
59485W        W32553  26.222   6.234   1.936
59486W        W32554   8.435  29.018  12.010
59487W        W32555  31.141  11.140  11.125
59488W        W32556  18.550  38.862  13.443
59489W        W32557  44.791  43.284   3.199
59490W        W32558  20.222  24.989  11.175
59491W        W32559  21.004  25.792   3.232
59492W        W32560  19.329  11.155  11.932
59493W        W32561  34.143  16.623  13.301
59494W        W32562  23.145  26.626   0.815
59495W        W32563  29.137   2.480   4.728
59496W        W32564  11.263   6.230   1.247
59497W        W32565   7.279  36.261   0.670
59498W        W32566  28.411  13.619   1.822
59499W        W32567  30.473  14.808  10.697
59500W        W32568  23.177  30.877  14.737
59501W        W32569   1.333  42.531  13.189
59502W        W32570  38.778  31.355   2.735
59503W        W32571   3.174  43.945   3.926
59504W        W32572  29.857  12.443  14.066
59505W        W32573  30.622   0.701   3.224
59506W        W32574  10.341   7.465   0.521
59507W        W32575   9.723  18.656  12.864
59508W        W32576  41.395  28.008   2.010
59509W        W32577  42.353  22.398   1.011
59510W        W32578   1.897  17.068   4.249
59511W        W32579  43.157  21.052   1.373
59512W        W32580  41.868   5.726   0.173
59513W        W32581  41.624   9.240  12.483
59514W        W32582   1.245  20.681   2.987
59515W        W32583  18.725  39.232   2.840
59516W        W32584  14.768  24.951   3.599
59517W        W32585  35.971   3.166  14.940
59518W        W32586  30.940  11.800  12.402
59519W        W32587  40.231  43.251  14.392
59520W        W32588   2.530  30.163   0.965
59521W        W32589  31.512  34.941  13.427
59522W        W32590  11.974  42.687  10.919
59523W        W32591   1.812  11.447  12.575
59524W        W32592   7.823  44.717   4.287
59525W        W32593  14.247  36.798   4.835
59526W        W32594  11.249  42.495  12.319
59527W        W32595  38.970  35.330  12.930
59528W        W32596  12.296   2.279  12.524
59529W        W32597  23.075  20.215   4.071
59530W        W32598  37.460  39.000  11.978
59531W        W32599   2.620  12.360   2.863
59532W        W32600   3.006   4.068  13.481
59533W        W32601  12.621  21.380  13.936
59534W        W32602  12.365  32.195   2.744
59535W        W32603   9.195  39.268   5.259
59536W        W32604  21.802  26.078  14.070
59537W        W32605  19.743  22.950   3.693
59538W        W32606   5.763  41.813  11.291
59539W        W32607  43.030  19.201   2.839
59540W        W32608   6.470  40.966  13.972
59541W        W32609  27.672  15.711   0.418
59542W        W32610  19.553  15.530  10.716
59543W        W32611  10.885   5.256  11.223
59544W        W32612  17.027  27.685  14.023
59545W        W32613   7.637  22.551  13.983
59546W        W32614  13.084  38.174  12.941
59547W        W32615  18.981  15.698  12.889
59548W        W32616  40.665  17.364  11.100
59549W        W32617  33.786   8.866   3.534
59550W        W32618  20.050  13.327   0.913
59551W        W32619  21.460  14.228  13.531
59552W        W32620   8.228   6.725   2.724
59553W        W32621  24.200  17.069   0.995
59554W        W32622  15.609  32.609   0.756
59555W        W32623   4.847  12.611   1.396
59556W        W32624  26.982  35.969   2.245
59557W        W32625   4.288  25.491   2.659
59558W        W32626  36.415  35.865   4.411
59559W        W32627  39.443  37.808  14.304
59560W        W32628  39.548  20.652   4.140
59561W        W32629  18.230   0.039  12.060
59562W        W32630  34.737  19.492   1.078
59563W        W32631  16.822  10.138   2.805
59564W        W32632  44.631   5.843  12.803
59565W        W32633  42.543  20.781  13.848
59566W        W32634  22.353  24.641  11.463
59567W        W32635   0.389  22.170   3.700
59568W        W32636  35.899   6.473  11.119
59569W        W32637  39.965   0.324  12.951
59570W        W32638  16.790  35.651  13.941
59571W        W32639  38.824  28.197  13.460
59572W        W32640  24.672  36.265   3.517
59573W        W32641   9.805   4.442   3.099
59574W        W32642   6.187  44.466   3.389
59575W        W32643  27.527   0.661   3.686
59576W        W32644  38.549  17.247   2.431
59577W        W32645  16.126  17.834  11.688
59578W        W32646   9.937  32.036   0.232
59579W        W32647   9.513  34.384  12.244
59580W        W32648  39.317  22.726  10.246
59581W        W32649  24.985   5.728  11.434
59582W        W32650   5.501   9.711   0.824
59583W        W32651  15.619  40.147   0.060
59584W        W32652   9.268  16.275   4.254
59585W        W32653  32.636   8.460   2.913
59586W        W32654  20.938  38.430  10.184
59587W        W32655  24.199  27.468   2.884
59588W        W32656  19.569  28.923  13.086
59589W        W32657  26.409   0.349  14.315
59590W        W32658   7.493  32.866  11.556
59591W        W32659  31.257  25.156   4.636
59592W        W32660  31.623  38.005   0.450
59593W        W32661   9.229   2.228  11.280
59594W        W32662  20.452  32.535   2.941
59595W        W32663  27.570  26.743   1.416
59596W        W32664   5.938   4.561   0.441
59597W        W32665   7.075  39.974  14.925
59598W        W32666  11.778  28.077   1.215
59599W        W32667   6.766  39.575   1.326
59600W        W32668  14.497  38.284   2.241
59601W        W32669   9.886  21.643   4.793
59602W        W32670   6.511  25.960   0.060
59603W        W32671  35.434   7.983  10.616
59604W        W32672   9.233  25.961   0.377
59605W        W32673  20.564  13.874   0.264
59606W        W32674   5.480  27.686   3.081
59607W        W32675  20.691   6.852   3.395
59608W        W32676  28.357  30.413   2.116
59609W        W32677  16.619  34.463   2.959
59610W        W32678  11.770  28.951  13.310
59611W        W32679  15.348  19.314   2.245
59612W        W32680   1.379   7.671  12.880
59613W        W32681  11.209  10.744   0.743
59614W        W32682  24.486  18.820  12.009
59615W        W32683   9.122  23.423  14.679
59616W        W32684  13.359  24.163   3.328
59617W        W32685   4.485   8.668  12.075
59618W        W32686  25.166   3.987  13.608
59619W        W32687  36.869  24.567  14.487
59620W        W32688   6.812  23.425  10.725
59621W        W32689   6.663  26.458  12.463
59622W        W32690   3.391  31.470   3.660
59623W        W32691  39.963  38.300  13.852
59624W        W32692  31.497   6.296  14.476
59625W        W32693   2.484  40.348  11.635
59626W        W32694  12.944  10.209  11.067
59627W        W32695  29.233   8.348   1.486
59628W        W32696  35.467  36.936  14.497
59629W        W32697  25.486  11.346   4.453
59630W        W32698  41.451  18.687   5.112
59631W        W32699   4.474  39.507  14.398
59632W        W32700  43.828  29.487  12.993
59633W        W32701  20.451  31.174   2.768
59634W        W32702  19.272  11.358   4.194
59635W        W32703  28.249  38.960   1.243
59636W        W32704   1.691  38.600  13.272
59637W        W32705  33.548  15.908  13.001
59638W        W32706   9.767  42.917  13.240
59639W        W32707   5.817  25.698  11.092
59640W        W32708   3.966  14.592   3.727
59641W        W32709  19.010  14.773  14.928
59642W        W32710  44.405   5.177  14.860
59643W        W32711  37.297   4.531  10.983
59644W        W32712   3.438  40.062   2.244
59645W        W32713  22.725  11.810  10.632
59646W        W32714   8.638   7.557  14.433
59647W        W32715   4.380   8.621   2.848
59648W        W32716   5.816   6.702  11.483
59649W        W32717  33.819  35.891   1.616
59650W        W32718   0.342  17.475   4.109
59651W        W32719  40.374  14.019   4.368
59652W        W32720  44.064  17.683  11.615
59653W        W32721   2.470  37.350  10.567
59654W        W32722  37.642  21.492  12.100
59655W        W32723  22.739   5.711  12.038
59656W        W32724   7.286  42.613  12.267
59657W        W32725  41.848  15.032   4.070
59658W        W32726  32.467  37.568  14.322
59659W        W32727  15.044   0.386   2.697
59660W        W32728  15.278  41.256   3.144
59661W        W32729  28.684  13.810   2.759
59662W        W32730  44.327  27.916  10.459
59663W        W32731  16.604  38.502   4.114
59664W        W32732  39.225  23.133  12.446
59665W        W32733  30.117   2.362  10.738
59666W        W32734  32.941  11.599   1.793
59667W        W32735   7.400  24.684  14.427
59668W        W32736   6.257  32.549   3.794
59669W        W32737  32.944  14.984   1.359
59670W        W32738  25.054  22.953  12.789
59671W        W32739   7.284  13.864  12.339
59672W        W32740  15.304  44.201   0.235
59673W        W32741  26.124  24.551  12.543
59674W        W32742  27.162  27.877   0.090
59675W        W32743  38.935  25.117   1.882
59676W        W32744  40.689  10.322  11.628
59677W        W32745  36.372  28.647   2.190
59678W        W32746  21.940  24.628   1.447
59679W        W32747  36.202  15.773  10.100
59680W        W32748  33.352  15.264  10.562
59681W        W32749  28.037  18.007  14.855
59682W        W32750  12.714  23.577   4.565
59683W        W32751  37.433   0.006   2.668
59684W        W32752  32.668  38.131  11.306
59685W        W32753   7.552  12.556   3.797
59686W        W32754  23.077   9.507   3.081
59687W        W32755  29.707  33.388   0.955
59688W        W32756   5.126  30.894   1.348
59689W        W32757  13.033  19.718   3.697
59690W        W32758  33.909  25.952   4.006
59691W        W32759  35.413  34.576  11.039
59692W        W32760  18.538  19.570  11.686
59693W        W32761   9.918  30.217  14.188
59694W        W32762  40.853  20.613   3.744
59695W        W32763  26.204  42.346   3.291
59696W        W32764  25.028  41.292   0.332
59697W        W32765  13.348  35.742  14.181
59698W        W32766  35.320  10.820   1.617
59699W        W32767  30.472  44.265   0.780
59700W        W32768   0.537  20.248  14.440
59701W        W32769  10.245  40.275  12.205
59702W        W32770  12.672  12.153   4.146
59703W        W32771  42.295  36.312   1.329
59704W        W32772  11.756  10.094  13.581
59705W        W32773  12.103  22.001   3.673
59706W        W32774   4.633  38.409   3.622
59707W        W32775  40.536  20.227  14.049
59708W        W32776   4.459  43.984  13.069
59709W        W32777   7.473  39.468   9.948
59710W        W32778  40.392  24.506  10.632
59711W        W32779  32.543  35.490  14.301
59712W        W32780  43.647  14.277   3.021
59713W        W32781  29.439  36.427  13.842
59714W        W32782  21.217  20.219   4.617
59715W        W32783   2.527  42.848   4.053
59716W        W32784  12.522   9.191   2.814
59717W        W32785  40.766  17.671   0.818
59718W        W32786  44.864  18.779  14.390
59719W        W32787   8.525  34.595   0.276
59720W        W32788  10.065  32.514  13.834
59721W        W32789  36.929   0.939   0.904
59722W        W32790  21.156  14.498  13.043
59723W        W32791   4.985  27.588  10.099
59724W        W32792  24.071  29.542  13.919
59725W        W32793   8.092   4.835   0.405
59726W        W32794   0.484  32.294   0.943
59727W        W32795   0.922  23.985  10.295
59728W        W32796  17.079  43.649  11.457
59729W        W32797  10.275   3.083   4.293
59730W        W32798  11.380  41.799   4.136
59731W        W32799  42.910   5.821  11.910
59732W        W32800   7.505  16.125   3.677
59733W        W32801  43.306  37.533  13.434
59734W        W32802  32.468  19.433  10.331
59735W        W32803  35.836   0.251   0.548
59736W        W32804  31.387  31.360   1.179
59737W        W32805  14.788  36.303  14.857
59738W        W32806  23.112  38.843   3.361
59739W        W32807  22.176  15.852  13.012
59740W        W32808  28.429   9.157  12.662
59741W        W32809  39.820  16.990   0.457
59742W        W32810  42.034   7.455   3.759
59743W        W32811  21.166  21.594   0.239
59744W        W32812  28.460  14.173   5.224
59745W        W32813  44.664   3.858   1.413
59746W        W32814  19.893   2.749   2.692
59747W        W32815  38.877  11.072  13.123
59748W        W32816   4.229  19.441   5.033
59749W        W32817   5.912   1.948  14.835
59750W        W32818  17.978   5.922  12.342
59751W        W32819   5.375  24.967   4.648
59752W        W32820  35.306  42.947   5.011
59753W        W32821   5.174  36.077  10.897
59754W        W32822  18.819  42.872   4.998
59755W        W32823  16.389  21.112  13.033
59756W        W32824  11.706  31.444   1.955
59757W        W32825  40.063  20.982  14.995
59758W        W32826  38.088  27.173  14.718
59759W        W32827  14.361  17.259  13.486
59760W        W32828  31.886   7.466   3.229
59761W        W32829   5.225  24.202   3.270
59762W        W32830  17.881  19.490  11.091
59763W        W32831  41.386  11.252   4.059
59764W        W32832  20.322  41.531   1.017
59765W        W32833  11.414  34.392  13.036
59766W        W32834  27.460  32.908   2.840
59767W        W32835  39.018  36.122  13.484
59768W        W32836  24.219  14.100   1.275
59769W        W32837  14.766  17.114  10.557
59770W        W32838  33.672  40.880   3.318
59771W        W32839   0.003   8.178   3.202
59772W        W32840  36.206  26.186   0.423
59773W        W32841   7.472  28.743  14.066
59774W        W32842   8.342  43.953  13.119
59775W        W32843  39.946   8.176  14.382
59776W        W32844   6.350  16.844   2.255
59777W        W32845  11.770  26.247   0.207
59778W        W32846  15.196  37.446  12.993
59779W        W32847  32.690  40.031  12.025
59780W        W32848  21.792  43.808  11.983
59781W        W32849  21.962   3.894   3.685
59782W        W32850  23.947  41.343  13.757
59783W        W32851  13.053  32.476   2.323
59784W        W32852   6.286  38.581   0.693
59785W        W32853  15.061  32.067  13.832
59786W        W32854  24.018  22.384  11.519
59787W        W32855   2.618   9.651  11.913
59788W        W32856  30.757  31.938   1.318
59789W        W32857   1.722  30.644   0.919
59790W        W32858  41.870  12.332   3.594
59791W        W32859  10.375  38.304   4.240
59792W        W32860   0.199  10.235   2.786
59793W        W32861   3.277  15.014   0.441
59794W        W32862  14.593  41.126   5.134
59795W        W32863  16.646   2.236   3.709
59796W        W32864  42.229  44.952   0.883
59797W        W32865  14.661  11.881   1.687
59798W        W32866  10.266  37.873  14.518
59799W        W32867   0.377  16.094   0.310
59800W        W32868   4.719  11.095  10.464
59801W        W32869  18.806  39.397   1.342
59802W        W32870  16.107  22.742  13.828
59803W        W32871  36.117   1.353  14.845
59804W        W32872  14.115  43.361  14.157
59805W        W32873  16.499  31.913   0.256
59806W        W32874   8.680  17.304   2.728
59807W        W32875  28.574  20.617   0.247
59808W        W32876  33.051  31.527   2.709
59809W        W32877  13.661  33.810   3.735
59810W        W32878   4.712  19.775   1.822
59811W        W32879  26.443  31.468  14.987
59812W        W32880   5.402  42.254   1.336
59813W        W32881   8.377  35.405   0.151
59814W        W32882  28.648   3.208   2.962
59815W        W32883  15.176  43.253  11.515
59816W        W32884   3.355   3.833   0.480
59817W        W32885  29.432   5.272   2.195
59818W        W32886  14.241  34.072   2.796
59819W        W32887   3.624  15.586  13.651
59820W        W32888  36.879  30.246   1.889
59821W        W32889   0.333  44.676  13.823
59822W        W32890  10.091  29.652   2.216
59823W        W32891  34.354  19.070   2.372
59824W        W32892   9.866   1.982   0.270
59825W        W32893   3.983  24.204  14.776
59826W        W32894   9.397  11.508  10.347
59827W        W32895  22.018  11.427  12.464
59828W        W32896   8.810  10.431  13.776
59829W        W32897  19.696  35.029   4.578
59830W        W32898  42.383   2.763  11.705
59831W        W32899   6.873  18.746   3.393
59832W        W32900  32.568  33.278  11.626
59833W        W32901  12.050  22.258   3.229
59834W        W32902  36.963  39.896   4.231
59835W        W32903  29.957   4.485   3.265
59836W        W32904   0.306  21.596  13.872
59837W        W32905  35.467  38.768   1.835
59838W        W32906  18.265  26.445   0.877
59839W        W32907   9.482  30.573  13.016
59840W        W32908   8.626  31.980  13.759
59841W        W32909   5.189  23.511  11.171
59842W        W32910  20.203  35.402   4.160
59843W        W32911  32.715  19.240   4.947
59844W        W32912  40.241   1.556  11.478
59845W        W32913  15.690  28.890  12.900
59846W        W32914  14.731   6.254  12.353
59847W        W32915  35.056  16.761  10.671
59848W        W32916  34.446  14.444  11.876
59849W        W32917  26.248   8.380  10.597
59850W        W32918  24.385  14.287   1.804
59851W        W32919  27.550   0.513   4.566
59852W        W32920  29.582  44.366   4.614
59853W        W32921   3.721  40.381  12.200
59854W        W32922  29.172  17.034  13.291
59855W        W32923  14.383   2.844   4.646
59856W        W32924  33.347  40.839  14.576
59857W        W32925  41.297  14.320  12.495
59858W        W32926  39.677  22.010   0.488
59859W        W32927  37.828  10.078   2.410
59860W        W32928   3.281  44.452   4.704
59861W        W32929  21.736  36.616   2.194
59862W        W32930  31.060  23.152   0.834
59863W        W32931  36.624  34.589   2.860
59864W        W32932  37.641  19.847  11.140
59865W        W32933  19.457   5.948   4.616
59866W        W32934  17.873  38.520  12.805
59867W        W32935  23.943   9.411   1.782
59868W        W32936  34.051  37.535   4.316
59869W        W32937  11.984  13.679   4.781
59870W        W32938  40.031  37.515  14.534
59871W        W32939   9.634  34.956  14.770
59872W        W32940  19.129  27.466   3.210
59873W        W32941  13.591  39.539   1.940
59874W        W32942   2.301  44.539   2.197
59875W        W32943   0.948  19.497  11.102
59876W        W32944  13.668  28.635   0.271
59877W        W32945   0.744   0.705  10.688
59878W        W32946  27.466  14.266  11.179
59879W        W32947  26.694  34.835   0.361
59880W        W32948  34.282   8.306   1.280
59881W        W32949  13.156  23.925  10.774
59882W        W32950  18.035  25.531  13.934
59883W        W32951  25.144  21.155  11.309
59884W        W32952  18.752  35.936  10.699
59885W        W32953  25.197  29.961  10.686
59886W        W32954  17.355  15.804  11.092
59887W        W32955  30.972   0.905   4.003
59888W        W32956  36.567  42.357   3.252
59889W        W32957  24.033  41.548   4.594
59890W        W32958  21.588  42.515   3.872
59891W        W32959  18.164  34.919   1.900
59892W        W32960  34.031  11.714   0.176
59893W        W32961  24.569  25.564  13.776
59894W        W32962   9.891  36.662  12.029
59895W        W32963  29.551   8.974   2.376
59896W        W32964  37.930  10.291   0.158
59897W        W32965  36.285  44.246   4.629
59898W        W32966  31.887  36.585   0.009
59899W        W32967  23.080  10.307   1.130
59900W        W32968   2.211   1.174  10.674
59901W        W32969  26.160   9.301   3.791
59902W        W32970  11.236  21.509  12.938
59903W        W32971  23.029  19.143   2.202
59904W        W32972   4.801  41.490   0.208
59905W        W32973  40.403  17.011   2.145
59906W        W32974   4.848  32.520   0.499
59907W        W32975  42.962   6.133  11.526
59908W        W32976  38.800  42.736   0.295
59909W        W32977  26.604  24.199   2.267
59910W        W32978  34.852  33.194   4.569
59911W        W32979  39.237   4.396   0.088
59912W        W32980  26.636  20.953  13.524
59913W        W32981  27.157   6.929   4.043
59914W        W32982   5.256  16.099  14.790
59915W        W32983  20.309  40.897   3.802
59916W        W32984  34.860  15.212   3.785
59917W        W32985  40.842  14.438  12.067
59918W        W32986  28.933  26.661   1.174
59919W        W32987  36.567  44.012  14.999
59920W        W32988   8.754   8.152  13.475
59921W        W32989   2.414  21.033  10.919
59922W        W32990   8.924  22.216   9.850
59923W        W32991  32.346  13.235  11.592
59924W        W32992  43.832  32.046   4.505
59925W        W32993  24.981  29.611   3.722
59926W        W32994  22.146  20.138   4.980
59927W        W32995   2.582  25.583  13.756
59928W        W32996   6.383  40.968  12.032
59929W        W32997   8.206   0.267  11.440
59930W        W32998   9.290  34.124  14.641
59931W        W32999  20.304   7.382   1.795
59932W        W33000  17.084  20.211  10.746
59933W        W33001  44.854  28.539  10.631
59934W        W33002  31.605  21.279  12.939
59935W        W33003  20.661  34.391  12.437
59936W        W33004  27.201  29.078   3.643
59937W        W33005  33.955  43.720  11.538
59938W        W33006   2.310  33.329   1.396
59939W        W33007  25.502  12.324  11.116
59940W        W33008  11.754  21.484   0.378
59941W        W33009  38.485  23.114  13.805
59942W        W33010  20.419  16.112   3.681
59943W        W33011  20.243  27.486  14.252
59944W        W33012  38.700   7.590   0.904
59945W        W33013  15.650  42.798   4.726
59946W        W33014  44.433  12.115  14.092
59947W        W33015  36.478  35.238  10.406
59948W        W33016  43.150  44.903   0.739
59949W        W33017  23.926  29.777  11.098
59950W        W33018  17.183  36.306   0.819
59951W        W33019  21.049  22.506  14.787
59952W        W33020  13.628  10.746  13.541
59953W        W33021  41.877  27.658   3.375
59954W        W33022  14.807   8.238   3.034
59955W        W33023  16.184  31.548  12.642
59956W        W33024  34.099  29.945  10.707
59957W        W33025  12.030  14.635  13.856
59958W        W33026  30.463  13.338  13.015
59959W        W33027   9.281  18.181   0.880
59960W        W33028  27.912   0.316  14.770
59961W        W33029  39.403  28.340   3.748
59962W        W33030   2.438  33.514  13.925
59963W        W33031  14.411   4.848  13.991
59964W        W33032  40.251  29.326  11.047
59965W        W33033  43.315  36.511   2.777
59966W        W33034  30.960  15.589   3.775
59967W        W33035  40.722  33.203  14.890
59968W        W33036  31.376  22.684   3.269
59969W        W33037   4.488  12.811   0.728
59970W        W33038  10.388  15.670  12.044
59971W        W33039  20.971  18.105  13.982
59972W        W33040  32.525   6.809   1.009
59973W        W33041   8.629  31.447  10.201
59974W        W33042  22.793  11.444  10.262
59975W        W33043  42.921  40.011   0.864
59976W        W33044  16.587  30.395   0.871
59977W        W33045  20.030  37.844  14.498
59978W        W33046  27.271   2.357  11.872
59979W        W33047  24.018  25.112   0.317
59980W        W33048  14.833  24.316   2.251
59981W        W33049  35.107  26.913   5.225
59982W        W33050  21.304  32.421   4.234
59983W        W33051  20.311  43.311   1.365
59984W        W33052  17.687   6.022   1.289
59985W        W33053   8.753  21.459  13.038
59986W        W33054  23.991  41.067   4.456
59987W        W33055  40.051  22.039   0.891
59988W        W33056  11.304   7.343  11.623
59989W        W33057  27.723   8.872   0.900
59990W        W33058  39.003  22.494   4.143
59991W        W33059  10.721   7.864  12.538
59992W        W33060  11.110  34.960   2.282
59993W        W33061  18.438  10.053  14.380
59994W        W33062   6.859   4.787   0.729
59995W        W33063  24.658  37.453  12.838
59996W        W33064  16.170  28.589   4.141
59997W        W33065  41.133   4.386  11.586
59998W        W33066  33.347  11.389  14.004
59999W        W33067  24.608   3.511   0.433
60000W        W33068  22.292  43.254   2.776
60001W        W33069  12.418  14.770   0.182
60002W        W33070  40.326  27.023  12.156
60003W        W33071  20.140  40.373   3.133
60004W        W33072  40.582  35.882  12.847
60005W        W33073   7.239   5.816  11.996
60006W        W33074  14.360   0.955  14.844
60007W        W33075  14.277   4.797  12.140
60008W        W33076  18.782   4.731  13.854
60009W        W33077  21.101   4.152  11.967
60010W        W33078  13.122  43.431  14.926
60011W        W33079  19.220  42.064  13.936
60012W        W33080  10.280  35.842  10.565
60013W        W33081  29.921  28.703  12.556
60014W        W33082  42.375  13.450   1.425
60015W        W33083   4.704  34.084  10.020
60016W        W33084  18.938   5.391   0.445
60017W        W33085  41.293  36.057   3.152
60018W        W33086  21.490  17.594   0.839
60019W        W33087  21.841  43.041   2.875
60020W        W33088  34.972  32.082   2.776
60021W        W33089  33.570  16.082  12.364
60022W        W33090   0.005   4.845  10.303
60023W        W33091   0.832  44.014   2.710
60024W        W33092  14.787  37.826   3.462
60025W        W33093  40.526  10.510  10.326
60026W        W33094   2.502  41.400   4.661
60027W        W33095  28.122  27.579  12.199
60028W        W33096  39.314   7.263  12.604
60029W        W33097  39.914   6.631   0.142
60030W        W33098   2.534  25.195   3.178
60031W        W33099  44.863  25.444   0.767
60032W        W33100  38.823  33.600   0.825
60033W        W33101  42.900  30.516   3.780
60034W        W33102  10.082  44.221  12.744
60035W        W33103  43.965  19.495   0.944
60036W        W33104   6.526  27.518   2.837
60037W        W33105  31.814  44.919  12.832
60038W        W33106  14.281  22.992  10.607
60039W        W33107  15.568   6.959  10.706
60040W        W33108  37.120  17.662  11.593
60041W        W33109   0.013  26.140   4.484
60042W        W33110  15.532  14.718  14.818
60043W        W33111  34.746  37.935  11.396
60044W        W33112  17.228  27.451   2.745
60045W        W33113  30.929   3.674   2.622
60046W        W33114  44.042  37.125  14.506
60047W        W33115  37.035  29.345   3.274
60048W        W33116  34.885  41.871   1.435
60049W        W33117  21.503  10.790  10.922
60050W        W33118  26.889  22.265   4.210
60051W        W33119  28.384  29.458  14.798
60052W        W33120  22.965  13.592  14.448
60053W        W33121   5.261  19.371  12.386
60054W        W33122   4.769  12.592   2.237
60055W        W33123  21.164  25.473  12.022
60056W        W33124   1.142  39.429   4.846
60057W        W33125  21.036  14.071  10.381
60058W        W33126  21.314  16.653   0.338
60059W        W33127  11.521  12.604  14.543
60060W        W33128  19.228  42.566  11.520
60061W        W33129  13.101   7.951   0.578
60062W        W33130  11.733  22.754  12.858
60063W        W33131  34.915   4.884   0.632
60064W        W33132   4.011   5.492   3.059
60065W        W33133   1.015  20.288   0.374
60066W        W33134  32.350  31.078   4.628
60067W        W33135  34.105  39.563  13.011
60068W        W33136  30.096  42.857   3.895
60069W        W33137  10.458  39.853   1.146
60070W        W33138  25.598  33.905   1.630
60071W        W33139   5.712  10.246   0.200
60072W        W33140  44.870   8.911  11.804
60073W        W33141  17.477   5.867  12.244
60074W        W33142  38.858  41.226  13.913
60075W        W33143  14.846  19.457   5.266
60076W        W33144  21.995  22.425  14.813
60077W        W33145   0.790   9.089   4.176
60078W        W33146  36.791  29.961   4.050
60079W        W33147  15.871  32.714  12.090
60080W        W33148   1.042  21.095   2.747
60081W        W33149  44.390  16.780  12.004
60082W        W33150  33.080  18.180  11.894
60083W        W33151   6.253  14.728   3.381
60084W        W33152  11.273   0.920  13.514
60085W        W33153  34.498   5.684   4.902
60086W        W33154  12.077  41.844   4.602
60087W        W33155  24.139  44.605   4.143
60088W        W33156  10.386   1.174  11.594
60089W        W33157  22.714  20.850   0.184
60090W        W33158   4.778  32.008  10.492
60091W        W33159  32.493  31.943   4.403
60092W        W33160  20.132  14.873  13.948
60093W        W33161   1.829   4.331  11.445
60094W        W33162  37.188   7.752   0.380
60095W        W33163  43.044  33.146   4.224
60096W        W33164  41.712  28.935   1.962
60097W        W33165   3.906  37.590   3.970
60098W        W33166  43.818  38.393  10.672
60099W        W33167   7.188   7.984  13.514
60100W        W33168   2.739  38.279  12.298
60101W        W33169   7.200  38.240  11.926
60102W        W33170  30.284   7.646   0.770
60103W        W33171  19.551   8.179   1.957
60104W        W33172  44.375  43.780   1.704
60105W        W33173  37.939  35.442  14.915
60106W        W33174  30.538  42.410   2.203
60107W        W33175  31.339  30.075   1.916
60108W        W33176   6.869   9.684  11.400
60109W        W33177  44.955   2.738   2.475
60110W        W33178  25.629  30.480   2.204
60111W        W33179  13.079  34.264  12.136
60112W        W33180  16.678  29.842  12.089
60113W        W33181  20.338  16.713  10.479
60114W        W33182   9.169  21.316   0.826
60115W        W33183  33.500  11.736   4.563
60116W        W33184  12.207  22.641  12.590
60117W        W33185  29.238  15.209  11.404
60118W        W33186  39.587  17.224   1.798
60119W        W33187   5.682  17.702   1.273
60120W        W33188  36.899  31.235   0.338
60121W        W33189   6.314  31.040  14.283
60122W        W33190   2.785   7.285   0.797
60123W        W33191  41.762  17.080  13.849
60124W        W33192  21.012  27.631  12.108
60125W        W33193  15.270  37.423  12.087
60126W        W33194  34.478  33.887   2.349
60127W        W33195  14.933  19.498   3.552
60128W        W33196  19.167  11.879   2.450
60129W        W33197  22.121   1.261  10.654
60130W        W33198  42.833  17.275  13.021
60131W        W33199  11.830  34.707  12.276
60132W        W33200   0.372  31.435  14.015
60133W        W33201  27.688   8.601   3.853
60134W        W33202  27.545   4.988  12.411
60135W        W33203  36.126  18.210   3.177
60136W        W33204   7.252  11.842   2.762
60137W        W33205  29.155   9.811  12.125
60138W        W33206  32.687  16.544  13.772
60139W        W33207  41.112  17.294  12.471
60140W        W33208  29.988  10.907   1.092
60141W        W33209  14.314   0.988   0.815
60142W        W33210  18.253  39.377   1.638
60143W        W33211  15.671   6.132   1.813
60144W        W33212   1.921  39.870  12.962
60145W        W33213  12.921  14.543  12.402
60146W        W33214   9.426  19.116  10.501
60147W        W33215   7.654   2.750   0.366
60148W        W33216  11.936   0.219  12.016
60149W        W33217  43.226  43.448  12.453
60150W        W33218   0.860  30.163   1.290
60151W        W33219  15.042  26.025   2.911
60152W        W33220  43.342   5.240  11.347
60153W        W33221  13.993  34.496  12.386
60154W        W33222  31.467   8.384  14.795
60155W        W33223   7.435  19.664   2.848
60156W        W33224   3.845  32.389  10.578
60157W        W33225  38.126   9.135  12.419
60158W        W33226   7.398  17.342   2.382
60159W        W33227  35.187  33.142  11.102
60160W        W33228  41.761  23.807  11.108
60161W        W33229   9.303  16.160  12.276
60162W        W33230  18.950  27.210  11.111
60163W        W33231  24.014  15.073   3.169
60164W        W33232  28.732  10.317   1.729
60165W        W33233  23.523  24.789  12.967
60166W        W33234  14.038  12.296  10.510
60167W        W33235  40.022  10.986   3.270
60168W        W33236  23.573  25.087  14.837
60169W        W33237  11.171  42.424   3.532
60170W        W33238   3.204  33.196   4.632
60171W        W33239  19.169  32.522   1.477
60172W        W33240  27.476  19.624  12.049
60173W        W33241  41.994  16.555   2.687
60174W        W33242  21.752  32.781   3.677
60175W        W33243  23.942  11.960  14.909
60176W        W33244  20.032  34.402   4.139
60177W        W33245  19.726  37.104  11.270
60178W        W33246   0.805  10.422  14.021
60179W        W33247  28.674  32.595  11.313
60180W        W33248  18.478  18.755  14.915
60181W        W33249  30.568  17.067   3.186
60182W        W33250  29.732   1.244   0.585
60183W        W33251   3.882  34.435   3.242
60184W        W33252  39.951  44.308  11.367
60185W        W33253  38.100   7.915   3.806
60186W        W33254  31.969  24.537   2.046
60187W        W33255  41.927  13.124   3.177
60188W        W33256  44.513   7.816  14.342
60189W        W33257   0.027  44.825  11.992
60190W        W33258  19.649  29.963   0.414
60191W        W33259  13.182  13.187   0.812
60192W        W33260   4.824   0.488   4.270
60193W        W33261  38.765  10.878  14.044
60194W        W33262  26.025  11.965   0.021
60195W        W33263  19.516   3.915  10.675
60196W        W33264  23.467  16.850  12.904
60197W        W33265   1.052  16.555  11.460
60198W        W33266   1.862  34.665  14.406
60199W        W33267  29.155  33.630   1.807
60200W        W33268   9.993  30.398  10.274
60201W        W33269  37.769  39.874   4.542
60202W        W33270  25.010  34.335   4.602
60203W        W33271  39.573  15.622   0.546
60204W        W33272  36.339   8.735  10.578
60205W        W33273  41.002  44.434  11.898
60206W        W33274  38.896   9.215  13.118
60207W        W33275   1.513  36.948  12.573
60208W        W33276  39.091  38.043   0.863
60209W        W33277   9.378  19.344  12.644
60210W        W33278  13.295  25.941   1.771
60211W        W33279  18.698  30.422  11.568
60212W        W33280  34.045  40.805   2.306
60213W        W33281   3.345  14.292  12.446
60214W        W33282  41.028  19.504   0.565
60215W        W33283   9.810  35.897   2.394
60216W        W33284  26.154   7.395  10.654
60217W        W33285   7.706  33.969  10.389
60218W        W33286  44.738   7.220   3.307
60219W        W33287  17.582   7.289  10.775
60220W        W33288  15.863  20.963  14.826
60221W        W33289  23.571  17.730   3.185
60222W        W33290   0.333  22.076   1.268
60223W        W33291  37.035  19.019  14.091
60224W        W33292  19.987  44.999   3.708
60225W        W33293  43.755  19.743  13.319
60226W        W33294  43.793  42.410  10.533
60227W        W33295  21.612  42.770  11.011
60228W        W33296   9.429  36.965  13.814
60229W        W33297  20.672  11.138  12.020
60230W        W33298   9.581  40.141  14.022
60231W        W33299  34.723  29.142   1.755
60232W        W33300  24.583   8.111  12.998
60233W        W33301  44.494  38.455   4.241
60234W        W33302  31.648   9.457  12.562
60235W        W33303  43.286  24.221   4.622
60236W        W33304  13.742  14.341   0.372
60237W        W33305   4.958  18.937  10.637
60238W        W33306   6.767   0.565  11.190
60239W        W33307  17.855   8.178  12.621
60240W        W33308  25.892  42.297  12.990
60241W        W33309  33.753  19.709   2.783
60242W        W33310  42.792  27.945  14.943
60243W        W33311  19.735  15.046  12.881
60244W        W33312   6.818   7.952   0.805
60245W        W33313  23.645  23.510   3.609
60246W        W33314  17.687   1.451  10.398
60247W        W33315  21.954   8.912   3.079
60248W        W33316  40.404  33.552  10.303
60249W        W33317  24.172  10.183   1.382
60250W        W33318  22.525  28.040  10.846
60251W        W33319  12.843  40.125   2.300
60252W        W33320  20.093  14.381  13.064
60253W        W33321  16.305   2.959  11.698
60254W        W33322   8.965  10.153   4.162
60255W        W33323  33.020  38.281   0.322
60256W        W33324   3.235  40.486   1.817
60257W        W33325  18.110  34.420  12.958
60258W        W33326  36.964  19.560  12.146
60259W        W33327  43.972  16.495  11.977
60260W        W33328   0.350  19.206  13.534
60261W        W33329  43.382   3.795   0.996
60262W        W33330  33.652  32.137  11.497
60263W        W33331  10.173  29.862   3.655
60264W        W33332   8.127  10.131  10.894
60265W        W33333   0.249  36.445  14.773
60266W        W33334  28.096  19.229  13.970
60267W        W33335  16.625   8.687  12.889
60268W        W33336  21.008  41.726  10.666
60269W        W33337  19.551  22.448   0.670
60270W        W33338   0.747  17.538   0.733
60271W        W33339  10.120  28.519  14.376
60272W        W33340  13.146  28.568  14.353
60273W        W33341   8.537  10.042  12.034
60274W        W33342  14.284   7.602  13.442
60275W        W33343  24.181  11.425   3.669
60276W        W33344  11.298  36.651  11.268
60277W        W33345  25.610   8.321   4.594
60278W        W33346  31.612  19.035  14.324
60279W        W33347  11.551   1.455   2.270
60280W        W33348  29.590  21.053   1.605
60281W        W33349  21.542   2.148   0.220
60282W        W33350  16.674  11.913  11.153
60283W        W33351  40.024  38.772  14.560
60284W        W33352   2.879   5.111   0.296
60285W        W33353   6.828  21.020   1.503
60286W        W33354  26.082  44.508  13.803
60287W        W33355  28.438  40.386   3.439
60288W        W33356  29.657  23.955   3.228
60289W        W33357  42.222  28.033   0.811
60290W        W33358  17.049  11.227  13.938
60291W        W33359   8.372   8.654   1.755
60292W        W33360  18.606  38.488   2.448
60293W        W33361   4.370  13.632   4.320
60294W        W33362   9.733  19.189   1.109
60295W        W33363  35.058  41.735   0.969
60296W        W33364  20.905  13.736  14.436
60297W        W33365  34.811  25.090   4.402
60298W        W33366   6.468  42.820   0.915
60299W        W33367   6.680   3.294  11.048
60300W        W33368  36.766   5.890   4.735
60301W        W33369   4.169  16.558   0.754
60302W        W33370  13.688  42.861   0.450
60303W        W33371  25.091  13.875  11.850
60304W        W33372  23.473  12.728   2.706
60305W        W33373  28.951  34.779  12.490
60306W        W33374  31.902  42.850   4.068
60307W        W33375  21.668  43.661   9.789
60308W        W33376  26.444  10.629  14.995
60309W        W33377  31.890  19.675  12.088
60310W        W33378  22.366   8.362  11.434
60311W        W33379  31.491   9.138  13.930
60312W        W33380  16.390   3.784  11.572
60313W        W33381  32.007  20.603   2.280
60314W        W33382  17.770  43.556   0.196
60315W        W33383   9.434   7.219   0.842
60316W        W33384  31.648  36.291  13.706
60317W        W33385  44.515  42.658  13.010
60318W        W33386  17.299  30.886  14.962
60319W        W33387  34.900  33.321  14.945
60320W        W33388  16.859  15.111  11.484
60321W        W33389  35.010  26.619  10.202
60322W        W33390  12.755   7.097  11.573
60323W        W33391  24.440  40.237   3.554
60324W        W33392  25.516  36.093   3.451
60325W        W33393  18.032  27.755  10.738
60326W        W33394  25.040  18.648   0.731
60327W        W33395  10.747  29.437   1.390
60328W        W33396  42.455  28.766   3.261
60329W        W33397  43.750  11.685   4.123
60330W        W33398  20.213  24.066   3.185
60331W        W33399  13.611  37.801  13.728
60332W        W33400  27.173  12.900   0.966
60333W        W33401  34.872  16.091  13.858
60334W        W33402  30.221  22.432  13.409
60335W        W33403  30.453   0.833  12.341
60336W        W33404   9.556  12.939  11.091
60337W        W33405  27.935  31.100  10.596
60338W        W33406  37.940  40.816   3.633
60339W        W33407  35.013  11.823   1.073
60340W        W33408  17.631  13.086  11.560
60341W        W33409   3.327  15.252  13.413
60342W        W33410   9.866  34.017  14.545
60343W        W33411  35.901  36.115   1.269
60344W        W33412  24.585  23.053   3.229
60345W        W33413  20.733  31.137   0.959
60346W        W33414  21.097  24.960  14.993
60347W        W33415  20.239   4.691  10.690
60348W        W33416  38.811  17.336  12.413
60349W        W33417  18.279   4.258   4.550
60350W        W33418  34.083   8.345   3.753
60351W        W33419  33.582   4.912  12.536
60352W        W33420  37.745   3.357  13.016
60353W        W33421   5.069  18.186   4.019
60354W        W33422   5.255  10.636   2.821
60355W        W33423  30.592  12.693  10.614
60356W        W33424   2.369  15.343  11.500
60357W        W33425  25.572  31.752   3.242
60358W        W33426   4.714  17.063  12.493
60359W        W33427  43.714  15.088   1.832
60360W        W33428  24.399  43.394   2.265
60361W        W33429  33.077  24.719  10.832
60362W        W33430  38.034   8.652  13.330
60363W        W33431   2.774  14.133   3.194
60364W        W33432   0.894  12.894  14.047
60365W        W33433  26.476  33.376   2.230
60366W        W33434  21.248   2.396  13.924
60367W        W33435  20.332  39.923   3.309
60368W        W33436  43.181  44.381  11.035
60369W        W33437   7.609  25.532  12.097
60370W        W33438  40.818  10.823   3.386
60371W        W33439  26.423  13.232   4.663
60372W        W33440  37.067  20.548   3.660
60373W        W33441  38.837  39.339  10.449
60374W        W33442  15.079  41.968   3.645
60375W        W33443  11.903  35.954   4.708
60376W        W33444   3.289  17.934   2.340
60377W        W33445  28.766  16.026  12.897
60378W        W33446  41.996  15.602   2.287
60379W        W33447   3.999  23.092  10.482
60380W        W33448   6.181  36.221   4.640
60381W        W33449  39.087  32.856  11.632
60382W        W33450   5.871  10.117   0.886
60383W        W33451   2.286   2.211   4.968
60384W        W33452  28.643   7.967   3.233
60385W        W33453  31.893  16.195  11.469
60386W        W33454  11.316  38.523   1.762
60387W        W33455  14.747  22.741  10.690
60388W        W33456  31.008  39.999   1.910
60389W        W33457  37.185  20.991  12.896
60390W        W33458  40.850  26.367  14.240
60391W        W33459   8.318  31.786   9.983
60392W        W33460  13.850  16.850  11.671
60393W        W33461  21.980  17.145   1.291
60394W        W33462  24.252  21.705  14.995
60395W        W33463  43.522  18.279   0.992
60396W        W33464  22.433  36.534   4.547
60397W        W33465  23.018  18.292   2.693
60398W        W33466  30.903  28.976  12.863
60399W        W33467  36.065  35.777  11.105
60400W        W33468  19.506  34.972   1.976
60401W        W33469  29.105  15.555   3.869
60402W        W33470  12.542  29.708   2.328
60403W        W33471  10.193  17.360  12.994
60404W        W33472  26.855  25.173  14.370
60405W        W33473  25.786  26.565  11.474
60406W        W33474  44.894   7.335   3.802
60407W        W33475   4.965  42.125   3.131
60408W        W33476  11.329  17.166   4.556
60409W        W33477  31.552  27.196  13.442
60410W        W33478  42.399  17.369   4.018
60411W        W33479  19.841   4.397   1.429
60412W        W33480  36.327  11.224  14.674
60413W        W33481   1.648  35.748   1.825
60414W        W33482   5.010   4.738  10.952
60415W        W33483  43.394   4.719  12.861
60416W        W33484  32.865   7.306  10.754
60417W        W33485  18.120  25.275  13.496
60418W        W33486   2.194  20.117   2.454
60419W        W33487  13.597   9.641  13.848
60420W        W33488  20.448  18.721  14.953
60421W        W33489   7.254  31.648   5.002
60422W        W33490  25.788  37.071  12.626
60423W        W33491  37.853  34.876  14.215
60424W        W33492  14.873   7.224  12.111
60425W        W33493  12.055  13.858  10.335
60426W        W33494  34.994   3.584   2.475
60427W        W33495   5.780  21.790  11.705
60428W        W33496   2.875   2.401  12.404
60429W        W33497  44.850   6.852  11.983
60430W        W33498  13.658  11.418   0.815
60431W        W33499  42.615  41.855  11.405
60432W        W33500  26.059  44.906   3.371
60433W        W33501  12.166  25.980  12.454
60434W        W33502   5.173  43.189   0.166
60435W        W33503   5.726  34.411   2.811
60436W        W33504  11.788  30.380  14.392
60437W        W33505  28.223  39.420   3.464
60438W        W33506  32.473  17.850   1.839
60439W        W33507  25.425   1.252  12.026
60440W        W33508  39.895  37.832  12.367
60441W        W33509  36.610  39.344   2.118
60442W        W33510  35.947  28.035   1.726
60443W        W33511  42.787  24.294   4.738
60444W        W33512   9.340  21.602   0.409
60445W        W33513  32.015  22.733  10.528
60446W        W33514  15.250  15.092  13.810
60447W        W33515  15.230  24.890  10.854
60448W        W33516   4.436   4.852  13.316
60449W        W33517  22.037   5.785  11.560
60450W        W33518  14.440  23.527   5.040
60451W        W33519  39.002  34.601  14.217
60452W        W33520  42.959   7.224   1.467
60453W        W33521  27.693  18.010   4.025
60454W        W33522  24.928  21.681   1.610
60455W        W33523   7.924  29.022   3.627
60456W        W33524  24.107   1.824  12.310
60457W        W33525  34.569  13.425   3.359
60458W        W33526  20.308  16.161  13.971
60459W        W33527   4.026   3.352   3.682
60460W        W33528  14.038  29.963   3.304
60461W        W33529  29.611  23.038  12.406
60462W        W33530  38.955  13.188   3.321
60463W        W33531  15.817  28.997   1.022
60464W        W33532  37.155  30.123  12.127
60465W        W33533  41.350  13.767   0.435
60466W        W33534  28.138   8.825   4.612
60467W        W33535  40.782   6.945   2.123
60468W        W33536  37.988  42.232  12.164
60469W        W33537  20.511  22.733   3.271
60470W        W33538   9.379  20.661  12.575
60471W        W33539  10.754  23.505  12.349
60472W        W33540   1.029  35.411   1.000
60473W        W33541  13.102  17.228  12.353
60474W        W33542  32.079  20.428   4.099
60475W        W33543  43.439  25.231   5.008
60476W        W33544   5.330   3.846   0.775
60477W        W33545  27.153  42.845  14.744
60478W        W33546   9.469  38.330  14.494
60479W        W33547  10.458  17.426  10.714
60480W        W33548   5.854  26.234   3.315
60481W        W33549  18.762  36.956  12.882
60482W        W33550  32.461  27.132  13.438
60483W        W33551  42.891   8.895   4.674
60484W        W33552  44.873  34.961   1.817
60485W        W33553  27.171  44.413   1.477
60486W        W33554  25.521  42.490   4.145
60487W        W33555  12.183   3.882  12.536
60488W        W33556   5.960  35.561   4.120
60489W        W33557  35.788  12.245   0.726
60490W        W33558  31.694  19.142  13.065
60491W        W33559   9.623  32.130   3.971
60492W        W33560  13.714   5.457  13.953
60493W        W33561  31.295  39.792  10.700
60494W        W33562  44.662  29.321   4.324
60495W        W33563   9.390  27.870  12.171
60496W        W33564   2.899   0.708  12.032
60497W        W33565  12.677  16.280  13.967
60498W        W33566  34.877  14.718  12.544
60499W        W33567  38.931   0.305   0.679
60500W        W33568  40.587   7.367   3.238
60501W        W33569  38.419   0.787  11.035
60502W        W33570  13.191   0.396   1.300
60503W        W33571  38.561  34.113   0.288
60504W        W33572  25.841  30.284   5.007
60505W        W33573   0.090  21.448  11.541
60506W        W33574  44.446  41.606  12.283
60507W        W33575  30.552  43.638   4.484
60508W        W33576   0.802  39.204   4.519
60509W        W33577  29.650  11.946  14.088
60510W        W33578  24.655  44.742   2.720
60511W        W33579  35.925  22.525   4.275
60512W        W33580  12.005  32.475   3.070
60513W        W33581  33.088  15.300  11.010
60514W        W33582   3.804  36.336  11.159
60515W        W33583  13.592   3.772  12.596
60516W        W33584  36.761  44.094  13.928
60517W        W33585  17.201  39.039  13.899
60518W        W33586   6.273   4.892   4.127
60519W        W33587  38.909  38.232  13.627
60520W        W33588  17.693  21.572   2.118
60521W        W33589  14.226  38.428   1.795
60522W        W33590   4.743  26.025   4.103
60523W        W33591   2.237   8.355   4.137
60524W        W33592  26.422   7.238   0.011
60525W        W33593  33.359  19.783   4.665
60526W        W33594  14.803  18.551   3.726
60527W        W33595  33.932  24.171   1.790
60528W        W33596   7.723  31.074  12.205
60529W        W33597  38.419  16.612  14.562
60530W        W33598  44.898  11.067   0.926
60531W        W33599  24.494  32.927  11.129
60532W        W33600  25.267  26.504  11.467
60533W        W33601  29.921   5.796  10.368
60534W        W33602  22.657  12.295   3.707
60535W        W33603  17.283  18.188   2.799
60536W        W33604  15.653  40.006   3.757
60537W        W33605   8.364  21.163  14.015
60538W        W33606  14.258   8.893   3.611
60539W        W33607  21.200  19.105  10.594
60540W        W33608  23.514  17.210   3.179
60541W        W33609  32.377   1.295  13.748
60542W        W33610  38.472  31.073   4.794
60543W        W33611  41.126   3.267  11.164
60544W        W33612  43.768   4.658   3.772
60545W        W33613  12.776  27.590  14.964
60546W        W33614  37.726   2.843   4.312
60547W        W33615  16.614  35.350  12.517
60548W        W33616   5.173   0.517  14.270
60549W        W33617  22.725   6.110  13.396
60550W        W33618   1.409  32.506   4.897
60551W        W33619   6.894  34.569   0.489
60552W        W33620  19.571  26.999   1.501
60553W        W33621  16.587  26.228   1.798
60554W        W33622  20.261  29.542  11.569
60555W        W33623  10.892  18.817   1.775
60556W        W33624  25.151  13.124  14.778
60557W        W33625  17.956   7.628   4.175
60558W        W33626  32.340  37.370   1.894
60559W        W33627   5.792  10.408  13.328
60560W        W33628  17.436  42.204   2.886
60561W        W33629  40.490  13.582   0.245
60562W        W33630  30.065  38.560  10.909
60563W        W33631  41.454  26.853  14.915
60564W        W33632   8.730  26.839   3.153
60565W        W33633  19.882   0.264  10.183
60566W        W33634  43.305  37.457  14.805
60567W        W33635  18.825  30.416  12.489
60568W        W33636  26.366  34.446  11.797
60569W        W33637   1.811  12.594  14.907
60570W        W33638  22.507  25.995   4.090
60571W        W33639  35.672  14.691  13.902
60572W        W33640  20.251   6.063   2.880
60573W        W33641  43.313  33.452  13.279
60574W        W33642  21.505  32.225   0.634
60575W        W33643   2.009  20.176   1.486
60576W        W33644  39.080  33.806  14.282
60577W        W33645   5.268  15.027  13.066
60578W        W33646   9.209  15.405  11.089
60579W        W33647  25.614  17.081  14.302
60580W        W33648  35.146  29.500   1.979
60581W        W33649   4.436   5.987  10.711
60582W        W33650   0.004  33.477   1.497
60583W        W33651   4.459  27.205   0.890
60584W        W33652  39.344  18.656   1.748
60585W        W33653  34.011  29.021  13.081
60586W        W33654  23.134  25.698   0.485
60587W        W33655  25.928  44.476  11.401
60588W        W33656  29.628  19.573   3.120
60589W        W33657  29.635  11.434  13.859
60590W        W33658   4.747  20.778  14.633
60591W        W33659  31.304  43.678   1.083
60592W        W33660  43.872  25.504  13.875
60593W        W33661  25.002  32.154   1.952
60594W        W33662   5.758  28.992  14.383
60595W        W33663  38.333   0.283   2.455
60596W        W33664  14.679  11.397  12.421
60597W        W33665   2.398  24.619  10.717
60598W        W33666  26.991  22.597   1.182
60599W        W33667  40.419  14.627   2.569
60600W        W33668  27.750  10.880   0.742
60601W        W33669  18.871  23.700  11.037
60602W        W33670  38.213  41.500  12.520
60603W        W33671  29.090   4.971   2.909
60604W        W33672  36.184   9.748  14.801
60605W        W33673  26.825   2.030   5.039
60606W        W33674  36.522  25.557   3.823
60607W        W33675  25.273  25.410   0.841
60608W        W33676  44.106   4.644  13.938
60609W        W33677  20.599  17.802   0.828
60610W        W33678  30.458   5.295   3.720
60611W        W33679   7.368  28.919   3.814
60612W        W33680  35.147  43.910   1.363
60613W        W33681  20.307   8.705   2.183
60614W        W33682  12.863  21.128  11.624
60615W        W33683  12.843  11.682   0.967
60616W        W33684  11.298  30.645  14.883
60617W        W33685  22.913  35.963  12.451
60618W        W33686  37.131  27.355  12.383
60619W        W33687  11.819  10.557   4.143
60620W        W33688  24.706  14.747   4.207
60621W        W33689  44.206  32.209  12.134
60622W        W33690   1.252   9.318   1.440
60623W        W33691  36.155   4.403  11.261
60624W        W33692  28.624  17.525  11.670
60625W        W33693   7.594  34.023   4.270
60626W        W33694  18.783  16.391   1.393
60627W        W33695  19.141   8.069  11.970
60628W        W33696  13.276  11.633   4.492
60629W        W33697  19.682   3.678  12.439
60630W        W33698   5.347   5.861  12.301
60631W        W33699  40.910  20.366   1.494
60632W        W33700   4.506   1.808  14.347
60633W        W33701  42.251   0.805   3.790
60634W        W33702  18.060  41.284  11.923
60635W        W33703   8.619  43.766  14.386
60636W        W33704   6.391   8.700  12.102
60637W        W33705  35.913  12.751   1.787
60638W        W33706  38.846  21.483   4.227
60639W        W33707  29.950  30.473   0.891
60640W        W33708  36.356  10.634   3.148
60641W        W33709  19.535  41.030  12.530
60642W        W33710   0.268  44.566   0.409
60643W        W33711  16.654   4.284  12.686
60644W        W33712  44.134   2.116   4.985
60645W        W33713  20.338  13.176   1.862
60646W        W33714  14.739  39.387  12.816
60647W        W33715   9.369  21.109   4.228
60648W        W33716   8.765  10.738  12.068
60649W        W33717   6.700  14.595   3.139
60650W        W33718  34.917   3.362   3.331
60651W        W33719  42.359  27.192   0.212
60652W        W33720  28.362  34.856   2.510
60653W        W33721  34.132  24.447  10.433
60654W        W33722  41.351  18.153   0.288
60655W        W33723  36.801  28.886   3.231
60656W        W33724  19.213  12.453  13.902
60657W        W33725  19.082  32.924  12.082
60658W        W33726  14.405  33.011   4.170
60659W        W33727   9.057  31.444  11.627
60660W        W33728  19.303  24.156   1.745
60661W        W33729  20.725   1.081  13.008
60662W        W33730  18.204  36.873   4.565
60663W        W33731  24.732   4.006   0.277
60664W        W33732  33.200  31.887  13.036
60665W        W33733  44.564  25.951  11.062
60666W        W33734   8.235  33.037  13.239
60667W        W33735  21.907  15.781   3.253
60668W        W33736   0.132   4.709  13.949
60669W        W33737  15.984  29.416   1.258
60670W        W33738  23.242  26.148  11.191
60671W        W33739  16.758  42.014   2.295
60672W        W33740   3.158  21.674   2.188
60673W        W33741  44.779  18.875  12.017
60674W        W33742  41.021   8.831   4.960
60675W        W33743   2.233   6.176   4.650
60676W        W33744  38.459   8.437   2.703
60677W        W33745   5.397  14.132  13.945
60678W        W33746  41.703   7.041  14.851
60679W        W33747   5.576  42.976  14.848
60680W        W33748  24.473  35.130   4.575
60681W        W33749  23.447   2.310   3.313
60682W        W33750   4.839  22.403  14.794
60683W        W33751  39.092  26.607  13.898
60684W        W33752  38.607  21.351  13.325
60685W        W33753  24.690  29.918   1.427
60686W        W33754  23.104   0.233   4.161
60687W        W33755  18.455  35.783   1.946
60688W        W33756  36.327  28.829   3.759
60689W        W33757  39.762  43.764   0.266
60690W        W33758  24.188  42.594  12.922
60691W        W33759   2.748  37.305   4.359
60692W        W33760  33.059  10.877  14.918
60693W        W33761  14.102  15.130   2.371
60694W        W33762  13.018  33.141  13.768
60695W        W33763  26.664  35.011  13.512
60696W        W33764  25.723   1.346   3.655
60697W        W33765  14.823  36.782   4.301
60698W        W33766   1.008  27.169  12.142
60699W        W33767  40.826  14.752   1.637
60700W        W33768   7.314  32.466   2.286
60701W        W33769   9.329   3.452   1.277
60702W        W33770  19.137  38.400  10.684
60703W        W33771  35.351   2.636   1.983
60704W        W33772  40.851  10.679   3.898
60705W        W33773  31.549   4.854   2.914
60706W        W33774   4.818  33.357   3.140
60707W        W33775  23.921   3.489   2.979
60708W        W33776   2.692   6.569   1.780
60709W        W33777  14.394  37.345  14.084
60710W        W33778  22.555  28.486   3.615
60711W        W33779  28.422  42.851   4.796
60712W        W33780  42.285  16.947  14.678
60713W        W33781   4.442  15.723  10.879
60714W        W33782  37.035   9.435  10.551
60715W        W33783  25.369  28.172  12.944
60716W        W33784  38.082  13.344  14.853
60717W        W33785  17.913  38.847   0.497
60718W        W33786  26.712  17.189   1.352
60719W        W33787  44.660   0.921  11.413
60720W        W33788  27.597  28.080  11.520
60721W        W33789  11.398  36.758   0.492
60722W        W33790  30.517  17.692   3.984
60723W        W33791  42.482  16.115  13.495
60724W        W33792  15.564  43.461   0.762
60725W        W33793  35.765  10.601  14.774
60726W        W33794  32.190  24.597   3.241
60727W        W33795   9.614  36.881   4.742
60728W        W33796  17.431  10.537   3.569
60729W        W33797   9.031   9.636   4.350
60730W        W33798   1.237  18.065   3.786
60731W        W33799  23.561  12.318   4.295
60732W        W33800   2.409  33.884   3.608
60733W        W33801   8.197  22.897  12.848
60734W        W33802  20.269   6.857  13.106
60735W        W33803  26.727   6.339   1.891
60736W        W33804  43.304  13.669   2.867
60737W        W33805  29.139  40.836  11.467
60738W        W33806   0.429   2.502  14.293
60739W        W33807  25.111  28.256   0.844
60740W        W33808  12.305  34.815  11.060
60741W        W33809  29.389  30.739  12.764
60742W        W33810   8.235  26.039  12.545
60743W        W33811  34.548  31.591  14.559
60744W        W33812  31.593  17.764   4.946
60745W        W33813  16.714  42.351  14.003
60746W        W33814  11.376  38.454  11.999
60747W        W33815  28.484  31.815   4.726
60748W        W33816   7.179  43.970  12.595
60749W        W33817  37.590  20.677  13.915
60750W        W33818  40.556  22.231   4.595
60751W        W33819  16.177   8.214  11.103
60752W        W33820  41.398  19.900  12.020
60753W        W33821  11.231  14.040  14.588
60754W        W33822  36.764  15.550   3.835
60755W        W33823   1.399   3.861  13.376
60756W        W33824  29.386  27.010  11.559
60757W        W33825  37.110  23.731   3.566
60758W        W33826  32.432  37.693  11.498
60759W        W33827  37.682  15.549   3.602
60760W        W33828  18.643  21.641   0.740
60761W        W33829  26.660   4.764   2.831
60762W        W33830  40.417   1.442  11.994
60763W        W33831  16.239   8.994  10.398
60764W        W33832  28.898   3.188   1.393
60765W        W33833   9.780  24.373  14.797
60766W        W33834  22.082  13.352  12.899
60767W        W33835  35.883   4.060  11.529
60768W        W33836  33.418  37.378  14.390
60769W        W33837  19.324   4.417   3.287
60770W        W33838  38.996   8.562   3.302
60771W        W33839  25.575  24.053   2.293
60772W        W33840  14.144  17.059  14.880
60773W        W33841  35.064  10.149  11.050
60774W        W33842  21.291  18.754   1.320
60775W        W33843  40.908   1.656   5.315
60776W        W33844  25.520  10.702   0.390
60777W        W33845  39.957   8.656   1.297
60778W        W33846  29.381  43.513  10.624
60779W        W33847  31.074  39.833   2.963
60780W        W33848  37.565   4.433  13.215
60781W        W33849   7.547  17.716  10.468
60782W        W33850  18.983  17.301   1.012
60783W        W33851  33.674  43.062   4.247
60784W        W33852   2.042   6.389   3.615
60785W        W33853   9.922  29.857   1.196
60786W        W33854  13.018  37.063  14.739
60787W        W33855  23.527  35.257  11.467
60788W        W33856  10.260  15.526  14.426
60789W        W33857  23.962  27.650  12.975
60790W        W33858  23.702  14.181   4.569
60791W        W33859  17.500  24.945   1.215
60792W        W33860   7.346  10.506  14.859
60793W        W33861  38.777  28.009   3.365
60794W        W33862  35.674  18.055  11.571
60795W        W33863   4.829   9.351  11.022
60796W        W33864  13.093   2.009   1.836
60797W        W33865  40.549  13.435  14.735
60798W        W33866  29.673   5.291  14.441
60799W        W33867   4.114  33.567   2.739
60800W        W33868  37.372   3.186   5.253
60801W        W33869  21.145   8.545  10.792
60802W        W33870  33.684  40.568   4.656
60803W        W33871  33.419   5.453   2.764
60804W        W33872  26.592  17.772  13.896
60805W        W33873  28.417  37.872   1.509
60806W        W33874  16.670  10.814  13.908
60807W        W33875  30.557   8.414   4.628
60808W        W33876  36.781  40.422   2.433
60809W        W33877  26.105   0.760   3.360
60810W        W33878  27.026  37.999   2.113
60811W        W33879  30.551  28.186  12.072
60812W        W33880  43.521   7.267  14.815
60813W        W33881  17.896  19.209   3.380
60814W        W33882  44.914   6.392   1.349
60815W        W33883  10.705  22.583   1.738
60816W        W33884   6.238   8.125  11.074
60817W        W33885  26.057  38.049  12.201
60818W        W33886   0.752  25.224   1.238
60819W        W33887  16.363   2.498  11.432
60820W        W33888  14.285  40.426   4.136
60821W        W33889  10.900   6.755   4.557
60822W        W33890   0.938   7.696  11.575
60823W        W33891  37.663   5.385  14.366
60824W        W33892  15.572  25.201   2.424
60825W        W33893  22.644  11.282   0.061
60826W        W33894  27.303  15.188  11.084
60827W        W33895  25.007  36.310  11.165
60828W        W33896  15.632  19.043   1.379
60829W        W33897  27.440  38.024   2.447
60830W        W33898  40.357  32.389   0.885
60831W        W33899  15.917  41.695  13.835
60832W        W33900   9.491  27.992  10.962
60833W        W33901   1.392  24.378  14.499
60834W        W33902   6.008  16.163  11.009
60835W        W33903  27.734   5.202  12.944
60836W        W33904  35.830  27.039  13.617
60837W        W33905  34.502  18.557   4.607
60838W        W33906  25.218  26.899   3.998
60839W        W33907   7.388  36.960  14.322
60840W        W33908  34.435  39.949  12.915
60841W        W33909   2.384  38.084   4.337
60842W        W33910  24.176  27.572   3.379
60843W        W33911   4.554  40.438  11.167
60844W        W33912  41.124   7.990   4.526
60845W        W33913   1.510   4.794  11.500
60846W        W33914   5.594  17.581   4.194
60847W        W33915  12.712   2.879   2.173
60848W        W33916  18.663   8.964   0.312
60849W        W33917  29.480  33.782  12.884
60850W        W33918  32.097  10.194  14.349
60851W        W33919  15.781  20.585   3.733
60852W        W33920   9.444  30.284  12.570
60853W        W33921  42.041  41.313   3.315
60854W        W33922   7.570  40.882  14.683
60855W        W33923  27.507   5.006  13.386
60856W        W33924  15.722  22.486  12.171
60857W        W33925   8.477  39.932  12.383
60858W        W33926   3.217  23.739   1.610
60859W        W33927  16.596  20.648  12.891
60860W        W33928  38.896   2.904   3.213
60861W        W33929  35.634  11.586  12.368
60862W        W33930  15.135  11.756   2.742
60863W        W33931  15.848  22.920  14.232
60864W        W33932  15.655   3.924  11.854
60865W        W33933  14.924  26.949   4.408
60866W        W33934  18.671   2.165  10.727
60867W        W33935  18.061  11.211  12.437
60868W        W33936  43.931  18.523  12.166
60869W        W33937  19.517  32.511   1.095
60870W        W33938   4.399  39.132   0.950
60871W        W33939   7.388   3.359  10.536
60872W        W33940  39.683  24.984   1.262
60873W        W33941  40.760   9.275   0.801
60874W        W33942  38.883   6.844  14.431
60875W        W33943  37.136  11.157  14.751
60876W        W33944  16.353  12.606   3.812
60877W        W33945  19.505  41.377  14.320
60878W        W33946  18.639  33.431   1.608
60879W        W33947   0.109  15.751   3.654
60880W        W33948   0.447  15.726  11.598
60881W        W33949  31.594  29.585   1.827
60882W        W33950  42.938  38.607   1.395
60883W        W33951  44.790  31.408   3.635
60884W        W33952   4.327  34.400   2.579
60885W        W33953  24.727  14.565  13.845
60886W        W33954  33.711  43.910   3.120
60887W        W33955  40.529  15.723   0.892
60888W        W33956  18.297  40.367   3.158
60889W        W33957  32.163  26.031  11.111
60890W        W33958  17.833  12.229   3.581
60891W        W33959   8.860  38.977  10.593
60892W        W33960  24.551  43.447  14.938
60893W        W33961  43.203  28.191   3.653
60894W        W33962  24.210  12.627   1.088
60895W        W33963  33.510  36.478  12.321
60896W        W33964  42.713  16.171   3.282
60897W        W33965   9.358  23.414   3.206
60898W        W33966  18.128  21.616   2.399
60899W        W33967  31.439  13.193  10.795
60900W        W33968  31.509   8.812   0.752
60901W        W33969  21.472  39.154  14.089
60902W        W33970   7.063  37.937   2.345
60903W        W33971  10.117   4.859   2.248
60904W        W33972  17.268   2.295   1.217
60905W        W33973  25.886   0.900   0.468
60906W        W33974   3.312  28.383  13.799
60907W        W33975  43.438  44.816   1.274
60908W        W33976   7.579   8.597  10.032
60909W        W33977   5.707   2.967   0.675
60910W        W33978  39.421  30.130   2.280
60911W        W33979  26.227   5.780  11.165
60912W        W33980  42.840  22.507  10.683
60913W        W33981  32.480  40.056  12.877
60914W        W33982   2.377   1.546  14.722
60915W        W33983  15.879  16.579  10.605
60916W        W33984   4.362  25.765   1.695
60917W        W33985  10.207  19.057  11.351
60918W        W33986  18.358   2.170   0.687
60919W        W33987  38.903  10.690   2.600
60920W        W33988  39.574  13.229  13.170
60921W        W33989  27.609   8.041   2.241
60922W        W33990   7.635  13.551   4.624
60923W        W33991  17.617  41.399   3.759
60924W        W33992  23.681  33.478  13.925
60925W        W33993  39.589  15.071  14.742
60926W        W33994  11.627  35.323  11.485
60927W        W33995  42.535   3.478   2.822
60928W        W33996   6.997  18.218   3.366
60929W        W33997  29.761  26.052   1.253
60930W        W33998  31.557  31.448  13.978
60931W        W33999  44.199  33.340  10.291
60932W        W34000  41.176   4.769   3.255
60933W        W34001   9.575   5.740   2.302
60934W        W34002   2.855   2.383   3.252
60935W        W34003  22.496  42.607   0.474
60936W        W34004  30.119  41.084   0.914
60937W        W34005   2.219  34.527  10.589
60938W        W34006  37.267  33.560   5.068
60939W        W34007  14.751  23.689  10.149
60940W        W34008  44.370  17.574  12.531
60941W        W34009  25.155  22.910  13.840
60942W        W34010   8.805   1.550  14.251
60943W        W34011  36.871  22.716   4.771
60944W        W34012   4.724  14.780   4.177
60945W        W34013  29.120  44.343  11.451
60946W        W34014   8.860   5.736  14.404
60947W        W34015  43.365   4.722   4.133
60948W        W34016  17.156   3.802   2.379
60949W        W34017  13.239  42.262  13.423
60950W        W34018  43.932  36.918   4.312
60951W        W34019  10.837  39.644  11.620
60952W        W34020  17.726   3.835  14.821
60953W        W34021  38.944  36.344   3.684
60954W        W34022  21.516  26.549   1.278
60955W        W34023  34.542   7.577   0.497
60956W        W34024  12.329   3.673   0.862
60957W        W34025  17.143  18.892   3.843
60958W        W34026  15.483  42.539  12.007
60959W        W34027  39.378  17.077   0.815
60960W        W34028  14.549  39.820   1.805
60961W        W34029  33.010  27.621   0.331
60962W        W34030  24.543   6.823   4.845
60963W        W34031  10.840  24.249   2.573
60964W        W34032  16.331   6.746  14.059
60965W        W34033  34.153  39.099  14.522
60966W        W34034  36.370  25.596  13.458
60967W        W34035  16.560   7.943   4.460
60968W        W34036  32.055  17.206  13.456
60969W        W34037  25.395  26.675   2.254
60970W        W34038  31.124  36.983  11.068
60971W        W34039  15.786  21.012  11.658
60972W        W34040  14.574  44.451   9.938
60973W        W34041  10.231  18.522  14.266
60974W        W34042  17.628  20.055  11.212
60975W        W34043  35.376  43.051  11.183
60976W        W34044  37.619  37.360  12.364
60977W        W34045  37.637  41.250   1.261
60978W        W34046  38.419  29.610   2.888
60979W        W34047  39.485   0.473  13.009
60980W        W34048   0.933   5.656  14.383
60981W        W34049  44.553  23.067   2.885
60982W        W34050   6.919  33.986  12.045
60983W        W34051  21.264  14.286  10.799
60984W        W34052  41.499  38.434   2.349
60985W        W34053  37.343  24.665  13.563
60986W        W34054   1.123  21.243  12.273
60987W        W34055  30.124  19.062   2.631
60988W        W34056   1.389  29.706  12.900
60989W        W34057  34.531  17.811  11.062
60990W        W34058  27.907  22.742   0.981
60991W        W34059  38.370  37.287   4.329
60992W        W34060  18.698  44.995  10.636
60993W        W34061  31.823   8.440  14.073
60994W        W34062  29.679  28.509   1.706
60995W        W34063   8.460   1.590  14.962
60996W        W34064  37.246  40.936   1.959
60997W        W34065  20.545   1.392   0.538
60998W        W34066  20.588   4.302   0.712
60999W        W34067  44.659  11.108  11.146
61000W        W34068  38.253  22.166  10.686
61001W        W34069  35.581   1.679   0.333
61002W        W34070  18.050  30.376   0.469
61003W        W34071  44.714  10.032   1.003
61004W        W34072  43.367  18.780  11.952
61005W        W34073   2.511  23.239   3.322
61006W        W34074   3.080  35.710   2.761
61007W        W34075  18.783  10.001   0.411
61008W        W34076  12.821  11.088   0.502
61009W        W34077  20.126  31.210  13.177
61010W        W34078  44.490  19.562   2.068
61011W        W34079  17.869  28.137  11.039
61012W        W34080   0.327  41.081  14.471
61013W        W34081  16.083  43.467  10.539
61014W        W34082  24.453  21.678   2.788
61015W        W34083  41.860   6.194   3.758
61016W        W34084  14.651  37.618   4.710
61017W        W34085   0.345   8.059  14.532
61018W        W34086   5.215  33.477   1.690
61019W        W34087  36.183   4.412   3.618
61020W        W34088  18.234  38.512  13.230
61021W        W34089  39.263  23.009  14.385
61022W        W34090   0.354  22.173  11.480
61023W        W34091  40.951  25.268   2.307
61024W        W34092  11.249  44.070  14.943
61025W        W34093  43.278  32.446  14.896
61026W        W34094  44.434  13.192   1.217
61027W        W34095  24.238   9.324   0.581
61028W        W34096  11.733  36.551  13.886
61029W        W34097  31.081  35.620  14.325
61030W        W34098  35.499   3.804   2.329
61031W        W34099   2.799  19.234  14.718
61032W        W34100   9.358  33.402   2.348
61033W        W34101  26.244  20.659  12.957
61034W        W34102  29.181  23.742  11.494
61035W        W34103  11.862  34.148  11.049
61036W        W34104  40.952   9.375  11.603
61037W        W34105  44.490  18.247   4.069
61038W        W34106   6.330  28.637  12.928
61039W        W34107  25.474  25.376  13.301
61040W        W34108  15.015  23.199   2.838
61041W        W34109  17.489   3.626  14.372
61042W        W34110  27.755   7.189   2.697
61043W        W34111  35.795  41.235  12.120
61044W        W34112  39.964  36.461   3.824
61045W        W34113  28.255  19.655   1.703
61046W        W34114  11.821   3.083   3.617
61047W        W34115  17.774  33.134   1.807
61048W        W34116  20.269  35.423  13.020
61049W        W34117  20.006  29.761  13.440
61050W        W34118   3.639  30.003   4.579
61051W        W34119  28.044  22.247   0.914
61052W        W34120   4.321  29.483  10.774
61053W        W34121   0.545  42.937   4.271
61054W        W34122  16.411  13.782  14.392
61055W        W34123  33.945  24.942   0.000
61056W        W34124  22.130   0.362   2.769
61057W        W34125   2.495  13.739  13.477
61058W        W34126   7.444  37.887   1.997
61059W        W34127  28.209   7.924  12.438
61060W        W34128  31.534   8.302   0.811
61061W        W34129  37.972   2.710   2.920
61062W        W34130  15.933  11.771  13.465
61063W        W34131  21.004  10.106   3.713
61064W        W34132   0.948  15.443   4.254
61065W        W34133  42.965  16.593   2.340
61066W        W34134   1.328  20.450  12.023
61067W        W34135  37.119  42.787   2.896
61068W        W34136  13.257   5.640   4.586
61069W        W34137  18.836  18.117   1.966
61070W        W34138  10.703   2.803  10.657
61071W        W34139   4.694  35.541  14.053
61072W        W34140  30.698  32.941  11.669
61073W        W34141  17.066  25.114  14.304
61074W        W34142  43.886  40.474  12.515
61075W        W34143  36.582  16.881   3.235
61076W        W34144  38.294  30.051   3.701
61077W        W34145  38.436  22.648  14.069
61078W        W34146  32.550  23.919   4.597
61079W        W34147  30.873  19.425  14.326
61080W        W34148  30.880  22.444   4.187
61081W        W34149  17.838  42.269  10.538
61082W        W34150  25.911  43.802   3.740
61083W        W34151  15.517   5.209  12.065
61084W        W34152   4.467   0.807   1.385
61085W        W34153  33.870  10.669  11.609
61086W        W34154  42.239  36.156   2.128
61087W        W34155   2.953  23.110  11.368
61088W        W34156  36.133  44.118   3.377
61089W        W34157  18.443   3.257  12.605
61090W        W34158  36.145  17.642   1.554
61091W        W34159   0.898  20.325  13.905
61092W        W34160  25.362  33.974  14.493
61093W        W34161   6.108  24.938  14.443
61094W        W34162   5.570  42.609   1.881
61095W        W34163   1.500  39.456  10.508
61096W        W34164  30.664  24.187  10.989
61097W        W34165  26.516  28.378   2.772
61098W        W34166  21.293  37.947  13.305
61099W        W34167   3.254  19.854  14.732
61100W        W34168  25.389  15.629  10.386
61101W        W34169  23.756   9.947  12.493
61102W        W34170   2.652  33.993   1.357
61103W        W34171  17.068  35.550  11.302
61104W        W34172  32.017  37.573   3.765
61105W        W34173  23.546  10.797   3.561
61106W        W34174  42.829  40.916  11.609
61107W        W34175  16.564  10.072   4.039
61108W        W34176  41.449  24.389  13.898
61109W        W34177  17.712  42.503   1.438
61110W        W34178   3.234  37.784  11.204
61111W        W34179  37.562  22.233  11.416
61112W        W34180  29.793  34.478   2.094
61113W        W34181  13.870  24.162   3.331
61114W        W34182  22.268  21.187  13.789
61115W        W34183  24.658  14.324   5.010
61116W        W34184   1.902  15.692  12.920
61117W        W34185  39.865  33.076  14.757
61118W        W34186   7.622   6.255  10.184
61119W        W34187  17.163   2.085   4.538
61120W        W34188  38.551  44.829  11.144
61121W        W34189  36.629  12.248   2.385
61122W        W34190  15.327   0.240  10.773
61123W        W34191   3.720  12.184   2.144
61124W        W34192   4.508  35.373  14.534
61125W        W34193   2.758  42.382   3.313
61126W        W34194  25.772  30.948  12.486
61127W        W34195  30.732  41.772   4.558
61128W        W34196  19.067   3.790   4.053
61129W        W34197  12.749  27.167   2.428
61130W        W34198  30.562  31.142  14.003
61131W        W34199  39.873  22.952   0.881
61132W        W34200  26.671   0.072   1.162
61133W        W34201  33.381  29.120   0.923
61134W        W34202   8.682  35.693  12.674
61135W        W34203  37.976   5.481  11.417
61136W        W34204  30.395  27.899  13.298
61137W        W34205  15.715  11.173  11.545
61138W        W34206  16.393  36.930  13.945
61139W        W34207   7.685  24.165   4.600
61140W        W34208   1.235   9.625  10.254
61141W        W34209  40.552  40.284  13.486
61142W        W34210  25.472  18.387  12.835
61143W        W34211   3.979   3.064   5.151
61144W        W34212  42.357  40.830   4.818
61145W        W34213   3.335   7.213  13.491
61146W        W34214   2.414  13.264   1.356
61147W        W34215  10.555  42.979   0.649
61148W        W34216  31.672  34.428  11.706
61149W        W34217   9.931   3.058   3.175
61150W        W34218  43.659  28.694   2.654
61151W        W34219   8.706  38.592  13.858
61152W        W34220  16.108  30.977   0.388
61153W        W34221  32.493  11.591  11.556
61154W        W34222  40.417  37.360   0.923
61155W        W34223  24.494  35.341  11.506
61156W        W34224  42.924  35.675   2.955
61157W        W34225  27.941   8.834  11.133
61158W        W34226  29.692  37.867   4.145
61159W        W34227  44.701   5.978  11.431
61160W        W34228  27.874  23.647   2.756
61161W        W34229  23.632  25.135   2.610
61162W        W34230  28.703  15.381  14.777
61163W        W34231  43.646   4.327  14.812
61164W        W34232   0.997   6.689   3.714
61165W        W34233  19.581  19.347  11.974
61166W        W34234  27.486  32.941  10.845
61167W        W34235  29.137  42.188   0.851
61168W        W34236  36.818  38.899  10.753
61169W        W34237  24.940  17.358   0.416
61170W        W34238  38.735  34.989  13.999
61171W        W34239  10.467  18.249  12.076
61172W        W34240  40.521  27.183  10.703
61173W        W34241   6.225  34.423   1.775
61174W        W34242  20.840  17.128  12.864
61175W        W34243  38.234  30.592  11.572
61176W        W34244   7.713  26.544   3.625
61177W        W34245  15.324  19.808   3.681
61178W        W34246  37.345  29.184  11.182
61179W        W34247  25.197   1.905  10.559
61180W        W34248  32.363  38.043   2.298
61181W        W34249  42.149  10.264  13.974
61182W        W34250  21.374  27.173   1.903
61183W        W34251  44.061  40.821  12.955
61184W        W34252  39.893  30.118   2.478
61185W        W34253  26.519  36.422   1.832
61186W        W34254  29.347  18.280   2.182
61187W        W34255  44.112  21.812  12.391
61188W        W34256  10.247  13.093   1.911
61189W        W34257  27.660  15.070   2.328
61190W        W34258  28.780  25.632  12.972
61191W        W34259  18.136  12.180  12.290
61192W        W34260   2.863  13.751   2.346
61193W        W34261  22.584  20.669   4.792
61194W        W34262   5.149  32.210  10.830
61195W        W34263  37.404   0.957  12.590
61196W        W34264  13.626  23.548  11.982
61197W        W34265  26.357  15.577   1.773
61198W        W34266  22.932   7.366   2.610
61199W        W34267  23.179  21.966  14.017
61200W        W34268   8.834   1.228  11.990
61201W        W34269   2.291  11.750  13.492
61202W        W34270  44.634  22.797  13.328
61203W        W34271  44.732  28.182   1.291
61204W        W34272  24.603  15.277  12.084
61205W        W34273  24.652  31.586  14.895
61206W        W34274   7.293  26.072  13.870
61207W        W34275   3.162  24.517  11.144
61208W        W34276  20.590  20.513  11.898
61209W        W34277  24.054  12.233   4.147
61210W        W34278  38.429   0.131   3.714
61211W        W34279  24.503  42.332  12.307
61212W        W34280  26.792   3.824  12.111
61213W        W34281  14.255  19.093   1.389
61214W        W34282  38.403  14.284   0.309
61215W        W34283  14.803  34.897   0.972
61216W        W34284  39.929  17.532   2.884
61217W        W34285  20.524  40.766   1.436
61218W        W34286  26.553  42.760  10.299
61219W        W34287  16.564   6.307  13.366
61220W        W34288  29.069  42.010   1.331
61221W        W34289   4.207  17.505  13.872
61222W        W34290  12.932  35.380  10.897
61223W        W34291  10.456  40.259   4.508
61224W        W34292  24.193  25.122  12.365
61225W        W34293  22.334  40.704   1.253
61226W        W34294   1.968  41.770  13.320
61227W        W34295  41.285   5.948   0.877
61228W        W34296  32.850  23.678   2.276
61229W        W34297  38.580   7.818  14.933
61230W        W34298  13.322  23.088  14.825
61231W        W34299  24.194  20.816   3.857
61232W        W34300  25.431  13.617  14.131
61233W        W34301  32.543  43.890  13.393
61234W        W34302  19.699  10.831   2.949
61235W        W34303  32.163  40.291   1.827
61236W        W34304  39.570  36.565   0.474
61237W        W34305  15.507  29.128  10.652
61238W        W34306  28.221  36.924   3.681
61239W        W34307  32.107  29.495   1.620
61240W        W34308  28.275  13.818   2.317
61241W        W34309  29.152  42.894  14.134
61242W        W34310   4.365  36.186  10.544
61243W        W34311  15.839   2.856  14.776
61244W        W34312  16.974  35.914  14.416
61245W        W34313  41.608  43.585  13.502
61246W        W34314  31.346  34.185  14.667
61247W        W34315   0.746  10.632   0.985
61248W        W34316  26.136  23.126  11.920
61249W        W34317  19.511  12.478  11.722
61250W        W34318  21.226  26.158  11.508
61251W        W34319  31.862  23.294   1.397
61252W        W34320  42.426   6.972   2.727
61253W        W34321  16.361   6.157   1.377
61254W        W34322  35.356   9.144  12.911
61255W        W34323   4.647  35.583  12.918
61256W        W34324  21.980   4.372  13.605
61257W        W34325  10.517  13.457   0.692
61258W        W34326  19.606  23.762   1.953
61259W        W34327  33.083   6.399   1.735
61260W        W34328  10.793   5.146  12.137
61261W        W34329   3.668  12.382   0.843
61262W        W34330  42.119   8.296  12.974
61263W        W34331   6.221  16.200   4.550
61264W        W34332  26.017  19.714  12.029
61265W        W34333   6.267  17.171   1.526
61266W        W34334  18.690  16.508   3.693
61267W        W34335   2.741  38.569  13.771
61268W        W34336  43.421   7.413   2.147
61269W        W34337  40.936   7.745   5.559
61270W        W34338  42.910  28.457   0.039
61271W        W34339  22.086   8.472  14.870
61272W        W34340  18.800  15.101  13.028
61273W        W34341  33.639   6.164  11.115
61274W        W34342  40.538  25.127  13.030
61275W        W34343  33.351  25.680   3.592
61276W        W34344  13.707  27.766  14.513
61277W        W34345  23.983  40.777   0.241
61278W        W34346  44.855  44.814   4.896
61279W        W34347  11.566  23.209   4.071
61280W        W34348  27.542  22.087  14.012
61281W        W34349   0.960  19.738  12.923
61282W        W34350  22.613  20.891  14.083
61283W        W34351   5.016   3.654  14.849
61284W        W34352  36.936  38.381   1.048
61285W        W34353   7.712  20.127  14.344
61286W        W34354  14.888   9.071  11.505
61287W        W34355  17.733  10.838  14.577
61288W        W34356  13.818   0.397  10.662
61289W        W34357  33.472  41.837   0.363
61290W        W34358   9.883  39.793   1.973
61291W        W34359  34.328  39.224  13.374
61292W        W34360  11.792   5.740   4.629
61293W        W34361  24.931  15.285  14.347
61294W        W34362  21.531  24.660   2.797
61295W        W34363  37.593  39.785   1.288
61296W        W34364  19.763  21.997   0.355
61297W        W34365  29.240  18.158   4.883
61298W        W34366   1.259  25.171  14.048
61299W        W34367  23.115  22.629   1.942
61300W        W34368  13.954  19.450  14.935
61301W        W34369  14.835   2.006  13.004
61302W        W34370  19.621  32.653  14.369
61303W        W34371   3.427  14.728   1.962
61304W        W34372  41.497   6.443   1.780
61305W        W34373  36.453  40.505  12.913
61306W        W34374   1.750   7.704   3.159
61307W        W34375  20.182  17.975  10.733
61308W        W34376  40.978  31.379   2.183
61309W        W34377   2.445  11.655   3.298
61310W        W34378   0.337  29.628  14.810
61311W        W34379  24.787   6.160   0.275
61312W        W34380  36.334  25.473  14.333
61313W        W34381  35.661   9.970  13.162
61314W        W34382  25.768  37.819   4.677
61315W        W34383  27.604  33.286   4.356
61316W        W34384  13.541  42.149   1.625
61317W        W34385   3.480  22.441  11.123
61318W        W34386  12.208   8.723  13.239
61319W        W34387   7.177  20.521  14.910
61320W        W34388  42.739   6.784   1.293
61321W        W34389  22.390  19.990  14.827
61322W        W34390  27.492  34.447   3.618
61323W        W34391  21.937   9.615  12.030
61324W        W34392  23.746  16.609   4.048
61325W        W34393  39.923  31.995  12.840
61326W        W34394  26.362   1.764   0.890
61327W        W34395  34.923   7.337  14.881
61328W        W34396  41.080   6.406   3.305
61329W        W34397  33.382  35.044  11.872
61330W        W34398  14.819   5.288  12.858
61331W        W34399  43.416  30.730  13.878
61332W        W34400  33.792   4.001   3.449
61333W        W34401  14.230  35.010  13.139
61334W        W34402  35.630  42.707   4.099
61335W        W34403  12.602  21.672   4.510
61336W        W34404  30.001  23.703  11.421
61337W        W34405  17.311  25.432   0.876
61338W        W34406   1.181  31.240  10.953
61339W        W34407  30.102   1.965   0.794
61340W        W34408  21.069  43.759  12.424
61341W        W34409  31.390  22.173  14.308
61342W        W34410  19.394  25.159  14.408
61343W        W34411  11.593  30.497  10.540
61344W        W34412  33.965  37.320  10.159
61345W        W34413  19.469  41.485   3.649
61346W        W34414  29.073  21.669   4.141
61347W        W34415   6.345  39.489   2.388
61348W        W34416  36.102  16.211   3.652
61349W        W34417  24.692  21.151  11.557
61350W        W34418  40.064  16.761   4.100
61351W        W34419  43.440   1.381   3.478
61352W        W34420  39.502   1.967  11.579
61353W        W34421   0.358  15.127   4.109
61354W        W34422   3.931  37.106  11.968
61355W        W34423  40.070  29.064  14.031
61356W        W34424  43.766  20.116   2.363
61357W        W34425  37.890  44.742  13.005
61358W        W34426  22.520  21.590  10.526
61359W        W34427   5.718  30.485  12.887
61360W        W34428  21.833  16.709   0.465
61361W        W34429  44.461  19.090  14.424
61362W        W34430  32.355  39.297  13.485
61363W        W34431  42.386   2.956  13.928
61364W        W34432  40.186  39.817  11.030
61365W        W34433  32.414  12.349  13.909
61366W        W34434   5.668  22.122   1.847
61367W        W34435  30.907  14.708   3.719
61368W        W34436  21.752  43.518  10.633
61369W        W34437  28.646  39.523  13.071
61370W        W34438  35.391  12.050  12.418
61371W        W34439  32.900  18.222  11.047
61372W        W34440   1.375   6.926  14.538
61373W        W34441  27.952  19.504  13.462
61374W        W34442  12.257  30.495  12.864
61375W        W34443  23.766  25.146  12.093
61376W        W34444   6.368  18.619   4.647
61377W        W34445   6.382  36.779   3.967
61378W        W34446  31.341  26.055   2.364
61379W        W34447  39.544  41.145  12.362
61380W        W34448  23.012   1.749   0.970
61381W        W34449  18.774  17.271  11.579
61382W        W34450  35.078  37.286  10.954
61383W        W34451  20.155  42.786   2.268
61384W        W34452  35.747  14.054   1.822
61385W        W34453  16.143  43.208  12.366
61386W        W34454  40.463  27.036   2.203
61387W        W34455  22.328   3.117  10.806
61388W        W34456  15.541  22.047   4.070
61389W        W34457  21.715   7.311   0.215
61390W        W34458   8.461  30.255   1.136
61391W        W34459  13.483  11.757  10.802
61392W        W34460  22.732  28.781   1.217
61393W        W34461  27.557  20.808  14.974
61394W        W34462   5.166   2.898  12.988
61395W        W34463  42.737  20.820   2.788
61396W        W34464  36.494   2.976  11.896
61397W        W34465  13.415  12.111   1.331
61398W        W34466  33.012   1.598  10.563
61399W        W34467  39.926  32.605  11.538
61400W        W34468  30.458  24.062   1.327
61401W        W34469   3.559  14.265   5.036
61402W        W34470   4.531  34.400  13.554
61403W        W34471  33.097  41.799  14.893
61404W        W34472  25.918  10.361  11.330
61405W        W34473  40.372  23.708  11.569
61406W        W34474  15.386  18.680  11.197
61407W        W34475  39.223  17.644  12.430
61408W        W34476  36.978   0.860   4.684
61409W        W34477  35.661  34.264   1.380
61410W        W34478  28.121   4.588   4.642
61411W        W34479   7.870  14.321  10.653
61412W        W34480   7.274  18.186   1.670
61413W        W34481  43.312  12.857   1.896
61414W        W34482  34.091   5.230  10.428
61415W        W34483  13.835  38.755   3.676
61416W        W34484  24.999   3.245  11.924
61417W        W34485  15.080   0.758   1.404
61418W        W34486   9.834  36.653  13.987
61419W        W34487  22.711  35.791  12.011
61420W        W34488  34.066  12.506  11.970
61421W        W34489  19.085  39.273   3.213
61422W        W34490   9.687  12.274   4.288
61423W        W34491  28.571  41.819   1.368
61424W        W34492  43.620   1.384   0.387
61425W        W34493  18.691  10.918  13.182
61426W        W34494  29.547  35.879  10.709
61427W        W34495  42.082   6.181  13.391
61428W        W34496  11.199   5.474  11.582
61429W        W34497   3.834  10.669   0.424
61430W        W34498   2.342  37.409  11.572
61431W        W34499  35.704   8.047  11.967
61432W        W34500  20.597   9.729   0.293
61433W        W34501  21.524  10.905  13.241
61434W        W34502  30.179  22.190   4.376
61435W        W34503  25.527  39.070  11.705
61436W        W34504  17.452  27.702   2.322
61437W        W34505  40.162  20.136   2.659
61438W        W34506  31.233  32.907   0.344
61439W        W34507   8.902  36.907   2.294
61440W        W34508  17.761  37.376  14.417
61441W        W34509   4.846  23.595  13.066
61442W        W34510  37.268  11.635  14.346
61443W        W34511  44.451  17.372   3.295
61444W        W34512  41.617   2.543   2.308
61445W        W34513  27.157  13.238  13.942
61446W        W34514   7.803  18.335   3.694
61447W        W34515   7.637  15.044   3.567
61448W        W34516   3.405  10.742  14.038
61449W        W34517  34.789   9.700  12.954
61450W        W34518  23.895   4.352   2.415
61451W        W34519  22.986  19.548   0.533
61452W        W34520  43.941  22.906   3.601
61453W        W34521  11.083  27.183  14.789
61454W        W34522  15.664   4.730  14.671
61455W        W34523  44.905  26.617  13.726
61456W        W34524   4.666   6.226   0.424
61457W        W34525  28.519   0.919  14.309
61458W        W34526  12.826  18.074   0.943
61459W        W34527  39.617  40.445   0.791
61460W        W34528   8.480  30.658   0.411
61461W        W34529   6.237   9.743   2.692
61462W        W34530  35.676  44.917   2.226
61463W        W34531  21.671  29.827  12.973
61464W        W34532   9.818  18.248  13.325
61465W        W34533   9.136  38.839  13.349
61466W        W34534   9.774  23.263  13.867
61467W        W34535   0.388  10.960  12.094
61468W        W34536  15.768  18.220   2.756
61469W        W34537   8.149  20.513  11.822
61470W        W34538  41.904  19.342   9.851
61471W        W34539  29.948  42.779   2.836
61472W        W34540  41.550  34.827  14.570
61473W        W34541  37.079   5.844  11.151
61474W        W34542   8.086  34.062  11.436
61475W        W34543  17.535  13.334   2.290
61476W        W34544  40.570  29.493   4.814
61477W        W34545  10.921  40.433   4.671
61478W        W34546   2.019  40.287  14.911
61479W        W34547  10.565   8.273   1.442
61480W        W34548  34.914   9.276  11.992
61481W        W34549  38.053  29.651   0.663
61482W        W34550  35.130  13.718  13.875
61483W        W34551   3.947  16.102   2.879
61484W        W34552  19.254  14.839   1.645
61485W        W34553  18.580  34.100  10.590
61486W        W34554  22.303  25.548  12.845
61487W        W34555  31.673  41.270  11.118
61488W        W34556  38.984  34.168  13.929
61489W        W34557  36.455  39.058  12.567
61490W        W34558  21.994  26.000   2.288
61491W        W34559  20.013  28.729  14.854
61492W        W34560  33.881  18.004   3.789
61493W        W34561   0.390  14.546  11.208
61494W        W34562  23.144  44.224  14.322
61495W        W34563  12.788  40.875   1.772
61496W        W34564  18.118  25.530  12.912
61497W        W34565  36.948  14.626   1.906
61498W        W34566  13.035  22.062   3.635
61499W        W34567  26.205  34.990   0.453
61500W        W34568  39.261  18.279   1.361
61501W        W34569  21.867  43.550   2.751
61502W        W34570  41.828  43.930   4.717
61503W        W34571  18.709  13.692   1.046
61504W        W34572   2.236  21.154  11.626
61505W        W34573   4.833   9.561   0.323
61506W        W34574  22.018  32.654   0.662
61507W        W34575  20.944   9.840   3.251
61508W        W34576  14.181  19.579   3.187
61509W        W34577   4.488  11.582  10.651
61510W        W34578  26.333  32.820  12.487
61511W        W34579  15.315   5.666   0.920
61512W        W34580   0.018   5.026  11.539
61513W        W34581  44.871   6.442  13.602
61514W        W34582  17.670  43.773   1.196
61515W        W34583  35.031  20.099   1.811
61516W        W34584  19.548  18.699  14.927
61517W        W34585  20.358  44.669   1.438
61518W        W34586  16.613  10.283   1.969
61519W        W34587  40.510   9.362   3.835
61520W        W34588  27.147   3.691   3.800
61521W        W34589  37.003  14.808  12.908
61522W        W34590  41.008   9.895   2.930
61523W        W34591  41.300  10.913   3.659
61524W        W34592   0.418   9.661   1.351
61525W        W34593   5.524  42.235  11.460
61526W        W34594  15.630  44.499   1.878
61527W        W34595   3.347  33.455   1.308
61528W        W34596  30.545  19.345   2.678
61529W        W34597  41.225   5.936  13.466
61530W        W34598  21.221  24.483  13.594
61531W        W34599  34.158  25.412   2.790
61532W        W34600   7.447  30.515  11.538
61533W        W34601   7.970   7.824   4.557
61534W        W34602   3.344  44.245  14.352
61535W        W34603   8.386   9.814  14.529
61536W        W34604  40.981   6.614  11.105
61537W        W34605  33.648   8.869   1.752
61538W        W34606  22.524  42.039  12.476
61539W        W34607   7.860  10.621  11.908
61540W        W34608  17.204  33.559   0.327
61541W        W34609   8.572  27.122   2.722
61542W        W34610  22.501   3.977   2.798
61543W        W34611  32.364  19.019  13.247
61544W        W34612  44.971   8.076  11.244
61545W        W34613  12.253  27.012   3.241
61546W        W34614  16.748  25.598   4.166
61547W        W34615  23.791  44.002  11.929
61548W        W34616   0.380  26.402  14.668
61549W        W34617   4.562   3.629  12.457
61550W        W34618  28.417  20.193   2.843
61551W        W34619   7.356   3.263  13.827
61552W        W34620  31.655  30.432   2.361
61553W        W34621   3.756  23.525   2.939
61554W        W34622   5.098   6.194  11.444
61555W        W34623  38.866  16.017  11.435
61556W        W34624  23.991  14.561  12.482
61557W        W34625  15.640  41.462   1.836
61558W        W34626  29.193   9.719   3.554
61559W        W34627  21.742   2.529  11.989
61560W        W34628   4.429  31.584   0.800
61561W        W34629  44.585  17.647  13.022
61562W        W34630  18.074  37.286   4.918
61563W        W34631  22.098   1.891   1.150
61564W        W34632  34.852  15.551   2.591
61565W        W34633   2.537  27.738  11.371
61566W        W34634  23.368  40.900   1.275
61567W        W34635  34.340  40.352  14.954
61568W        W34636  39.090   8.977   4.168
61569W        W34637   6.695   5.406  11.092
61570W        W34638   2.703  15.658   2.718
61571W        W34639  14.526  28.437  14.501
61572W        W34640   9.243   1.014   1.867
61573W        W34641   9.894  14.738   3.716
61574W        W34642   4.778  36.920   0.398
61575W        W34643  37.041  13.353  14.193
61576W        W34644   9.301  13.115  14.530
61577W        W34645   3.321  30.060   0.570
61578W        W34646  41.481  13.795  10.869
61579W        W34647  38.321  18.250   0.493
61580W        W34648   0.003  18.822  10.671
61581W        W34649   1.997   1.706  11.539
61582W        W34650  24.575  33.592   3.730
61583W        W34651  16.570  27.557   0.221
61584W        W34652  26.432  17.284  14.837
61585W        W34653   4.855  41.733  13.464
61586W        W34654  18.014  31.556   3.861
61587W        W34655   8.236  15.463  12.655
61588W        W34656  33.511  36.665   1.793
61589W        W34657  22.373   3.729  11.298
61590W        W34658  17.780   5.329   1.918
61591W        W34659  28.572   4.153  12.549
61592W        W34660  21.695  13.156   1.879
61593W        W34661  24.775  22.233   1.764
61594W        W34662  24.183  17.043  11.787
61595W        W34663  34.988  39.990   3.375
61596W        W34664  22.667  44.807   2.252
61597W        W34665  22.146  25.049  12.055
61598W        W34666  19.070  42.262  13.478
61599W        W34667  40.035  34.385   1.293
61600W        W34668   3.640  37.934  10.443
61601W        W34669  42.175  27.780  12.825
61602W        W34670  32.100  11.773  11.867
61603W        W34671  33.876  34.504  11.148
61604W        W34672  38.846  34.477  10.212
61605W        W34673  24.266  17.312   2.838
61606W        W34674   7.292  35.981   2.105
61607W        W34675  23.554  10.424  12.540
61608W        W34676  38.632  38.296  11.927
61609W        W34677  28.886  19.682  13.050
61610W        W34678  32.432  39.300   1.753
61611W        W34679  44.238  14.303  14.987
61612W        W34680  41.739  33.484   3.321
61613W        W34681  19.514  42.167  12.016
61614W        W34682  27.076  24.435   2.412
61615W        W34683  10.705  34.843  13.955
61616W        W34684   7.397  34.949   1.729
61617W        W34685  40.753   8.301   0.982
61618W        W34686   6.925  13.218   1.948
61619W        W34687  34.330  19.137   1.165
61620W        W34688  39.670  42.313  13.402
61621W        W34689  12.637  31.472   0.691
61622W        W34690   4.932  17.625   0.468
61623W        W34691  40.327  12.458   2.705
61624W        W34692  38.024  41.652  14.878
61625W        W34693  16.519  29.912   1.949
61626W        W34694  16.787  41.496  12.376
61627W        W34695  23.700  12.274  11.584
61628W        W34696  37.506   0.953  14.082
61629W        W34697  35.842  26.464   1.364
61630W        W34698  30.937  37.840  12.532
61631W        W34699  17.860  22.567  11.397
61632W        W34700  42.393   6.470  14.964
61633W        W34701   0.489  42.517  14.813
61634W        W34702  31.457  22.086  10.707
61635W        W34703  28.531  11.674  11.803
61636W        W34704  25.530   2.889   0.875
61637W        W34705  14.792  30.396  14.463
61638W        W34706  27.406  14.210   4.596
61639W        W34707   5.285  16.139   0.337
61640W        W34708  39.349  23.331  14.905
61641W        W34709  22.562  14.509   2.828
61642W        W34710  41.209  14.827   4.082
61643W        W34711  36.495  37.653  13.142
61644W        W34712  42.203  34.944  12.465
61645W        W34713  20.145  24.563   1.517
61646W        W34714  37.678  29.661   1.657
61647W        W34715  44.270  19.309   3.204
61648W        W34716  34.024  31.714  11.016
61649W        W34717   7.437   0.949   3.700
61650W        W34718  10.897  15.565   3.553
61651W        W34719  16.752   3.952  11.882
61652W        W34720  15.899  11.188   3.643
61653W        W34721   8.696   9.864   1.379
61654W        W34722  12.796   5.202  11.391
61655W        W34723  32.165  41.941  11.580
61656W        W34724  11.165  20.796   4.087
61657W        W34725  43.277   8.209  12.431
61658W        W34726  39.883  43.459  13.771
61659W        W34727  15.906  38.038   1.460
61660W        W34728  34.418  29.393   0.182
61661W        W34729  26.713  30.168  11.577
61662W        W34730  12.725   5.688  13.320
61663W        W34731  34.365  21.510   2.686
61664W        W34732  15.086   2.428  14.785
61665W        W34733   2.426  31.095  13.456
61666W        W34734  21.146  36.002  11.602
61667W        W34735  34.882   0.421   3.581
61668W        W34736   3.362  41.058   2.479
61669W        W34737  31.313   1.146  10.441
61670W        W34738  38.664  43.052  14.918
61671W        W34739   2.741   8.968  10.769
61672W        W34740  41.021  21.770  12.017
61673W        W34741  40.946  16.667  13.779
61674W        W34742   8.465  30.751  13.948
61675W        W34743   2.738   4.350  12.139
61676W        W34744  18.819   6.087  12.056
61677W        W34745   9.080  33.205  13.570
61678W        W34746  21.248  21.122   3.657
61679W        W34747  31.413  16.138  13.490
61680W        W34748  17.748  26.709   4.299
61681W        W34749  27.936  42.485  14.457
61682W        W34750  24.113  26.080   3.356
61683W        W34751  31.118   5.530  13.341
61684W        W34752  28.902  27.616  10.816
61685W        W34753  41.420  22.240  11.509
61686W        W34754  37.265  40.783  12.924
61687W        W34755  26.346  15.618   4.584
61688W        W34756  20.624  14.632  12.052
61689W        W34757  14.946  26.699   4.875
61690W        W34758   8.878   5.750   0.801
61691W        W34759   7.357  21.721  14.434
61692W        W34760  41.421  17.465  11.625
61693W        W34761  18.855  13.626   2.011
61694W        W34762   7.758  12.332  11.233
61695W        W34763  34.092  33.688  13.996
61696W        W34764   8.976  19.283  10.726
61697W        W34765  21.260   8.928  11.093
61698W        W34766  21.246  30.661  12.337
61699W        W34767  32.607  18.299  14.717
61700W        W34768  23.492  35.623   1.978
61701W        W34769  41.780  39.401  11.531
61702W        W34770  12.894  25.149   0.343
61703W        W34771   4.867   2.917   2.366
61704W        W34772  25.277   1.204   2.259
61705W        W34773  41.730  33.140   1.696
61706W        W34774   9.257  14.269  11.693
61707W        W34775  14.035  24.116  12.607
61708W        W34776  30.479  43.331   1.764
61709W        W34777  14.882  32.517  14.030
61710W        W34778  40.795   4.977  12.592
61711W        W34779  17.711  33.899   4.255
61712W        W34780  15.771  14.648   3.779
61713W        W34781   8.257  18.282  10.918
61714W        W34782  35.130  14.515   2.764
61715W        W34783  25.710   3.760   1.291
61716W        W34784  26.149  15.264   1.356
61717W        W34785  40.647  35.013  14.011
61718W        W34786  26.510   3.031  13.061
61719W        W34787  13.186  35.005  13.850
61720W        W34788  39.095  18.880   2.368
61721W        W34789   6.364  16.510  14.396
61722W        W34790  24.852  10.701  10.000
61723W        W34791  10.678  43.298   0.157
61724W        W34792  14.668   0.172  11.624
61725W        W34793  12.417  17.248   2.889
61726W        W34794   4.862  19.911   3.972
61727W        W34795   0.898  29.638   4.091
61728W        W34796  33.314  43.036   0.470
61729W        W34797  41.947  20.974  12.540
61730W        W34798   1.372   9.139   4.979
61731W        W34799  33.193  37.268   4.538
61732W        W34800   7.333  19.643  11.945
61733W        W34801   5.666   0.892  13.506
61734W        W34802  22.616  22.627   4.049
61735W        W34803  30.550  21.938  10.774
61736W        W34804  25.413  16.513  12.681
61737W        W34805  14.159   0.748   1.885
61738W        W34806   3.876  18.174  11.580
61739W        W34807   7.875  17.830  14.772
61740W        W34808  10.908  38.404  13.512
61741W        W34809  16.118  36.927   0.656
61742W        W34810   0.804  39.716   3.204
61743W        W34811  28.877  22.339  10.659
61744W        W34812  41.210  28.219  13.780
61745W        W34813  36.374   0.396   1.253
61746W        W34814  17.706  20.827  10.588
61747W        W34815  33.131  19.096  10.911
61748W        W34816   5.410   0.667   0.671
61749W        W34817   8.259   3.152  10.887
61750W        W34818  17.124  32.369  13.299
61751W        W34819  16.489  18.866   0.904
61752W        W34820  30.154  23.277  13.419
61753W        W34821  41.802  18.722   3.097
61754W        W34822  37.661  22.091   3.412
61755W        W34823  40.922  42.784   2.802
61756W        W34824  30.683   0.336   1.285
61757W        W34825  44.911  44.889   2.346
61758W        W34826  19.186  24.985  12.493
61759W        W34827   0.718   0.331   4.612
61760W        W34828   7.672  22.790  12.749
61761W        W34829  28.022  39.969  13.416
61762W        W34830   0.328  35.877   0.446
61763W        W34831   4.472  34.495   3.606
61764W        W34832  28.695   0.204  13.617
61765W        W34833  22.541  40.962  11.078
61766W        W34834  32.070  36.319  14.042
61767W        W34835  43.326  20.277  12.372
61768W        W34836   4.746  40.357  13.585
61769W        W34837   1.805  20.160  10.757
61770W        W34838  22.332  39.895  10.335
61771W        W34839  10.237  41.021   2.980
61772W        W34840  37.212  38.819  11.102
61773W        W34841  30.427  33.125  12.103
61774W        W34842  17.572  28.001   4.244
61775W        W34843  38.547  40.617  11.565
61776W        W34844   7.660  43.326   4.058
61777W        W34845  11.167  16.553  14.478
61778W        W34846   8.121  25.035   3.628
61779W        W34847  27.440  31.909   4.345
61780W        W34848   5.430  35.891   3.472
61781W        W34849  26.207  34.308  12.565
61782W        W34850   9.591  15.611   0.808
61783W        W34851  43.488  21.947  11.500
61784W        W34852  15.818  16.637   4.531
61785W        W34853  23.746  31.647   2.296
61786W        W34854  44.871  27.173   0.086
61787W        W34855  29.112  16.107   2.667
61788W        W34856   0.443  17.900  13.981
61789W        W34857   5.416  17.644   1.724
61790W        W34858  20.578  24.553   2.408
61791W        W34859  27.947   5.700   1.547
61792W        W34860  28.969   6.656   2.436
61793W        W34861   8.562  22.464  13.910
61794W        W34862  22.597  40.906  10.187
61795W        W34863  39.044   7.385  11.158
61796W        W34864   3.057  28.884  13.907
61797W        W34865  19.942  43.378   0.961
61798W        W34866  20.286  40.114  14.412
61799W        W34867  26.030  30.380   4.177
61800W        W34868  26.980  22.328  11.098
61801W        W34869  22.576  42.518   1.348
61802W        W34870  40.461  28.939  13.132
61803W        W34871  34.300  19.283  14.885
61804W        W34872  27.166  14.057   4.144
61805W        W34873   1.382  43.023   3.102
61806W        W34874  40.013  33.063  14.253
61807W        W34875  27.555  10.867   2.954
61808W        W34876  23.732  41.330  10.643
61809W        W34877  18.703  38.432   5.045
61810W        W34878   9.834  44.338   1.349
61811W        W34879  24.608  15.723   2.231
61812W        W34880   2.665   0.781   0.307
61813W        W34881  42.004  43.441   4.652
61814W        W34882  21.479  33.635  13.673
61815W        W34883   5.794  33.049   3.423
61816W        W34884   4.677  36.683   2.628
61817W        W34885  21.175   0.090   2.407
61818W        W34886  34.591  18.560   1.679
61819W        W34887  19.163  21.665   0.886
61820W        W34888   4.900   9.620   4.525
61821W        W34889  24.859  34.963  13.940
61822W        W34890  41.378   4.955  10.632
61823W        W34891  22.971  23.674   1.756
61824W        W34892  11.167  39.561   3.936
61825W        W34893  26.464  11.227   1.537
61826W        W34894  37.037  35.618  11.646
61827W        W34895  24.690  14.305   0.673
61828W        W34896  14.039  20.600   0.938
61829W        W34897  41.753   9.812   4.386
61830W        W34898   2.342  22.668  14.881
61831W        W34899  40.795   9.378  12.541
61832W        W34900   9.439  15.095   2.964
61833W        W34901  28.088  14.845  10.805
61834W        W34902   4.628  10.236   2.375
61835W        W34903   6.942  17.560  11.526
61836W        W34904  31.093  30.518   0.671
61837W        W34905   7.702  44.953  14.593
61838W        W34906  18.324  35.598  14.509
61839W        W34907   6.204  34.995  11.489
61840W        W34908  39.526  21.274   1.361
61841W        W34909   6.238   0.312  12.327
61842W        W34910   8.612   4.804  14.961
61843W        W34911  37.543  43.332   0.333
61844W        W34912  40.349  11.900   0.070
61845W        W34913  10.312  17.786  11.046
61846W        W34914  42.440  11.292   4.281
61847W        W34915  30.297  12.374   2.801
61848W        W34916  16.341  30.943  10.927
61849W        W34917  31.955  17.318   3.419
61850W        W34918  15.157  27.318  14.564
61851W        W34919  15.778  19.795   4.840
61852W        W34920  10.681  38.220   0.877
61853W        W34921  15.558  27.908   2.292
61854W        W34922  19.706  29.949   4.759
61855W        W34923   4.712  25.600   0.676
61856W        W34924   7.245  32.963  11.122
61857W        W34925  20.779  12.465   0.376
61858W        W34926  30.524   7.325   1.378
61859W        W34927  42.548   1.908   1.792
61860W        W34928  33.542   8.617  14.946
61861W        W34929  25.528  24.902  12.048
61862W        W34930  17.627  30.513   3.136
61863W        W34931  32.641  36.410   4.549
61864W        W34932   8.723  17.034   4.292
61865W        W34933  43.193  44.355   1.935
61866W        W34934  15.201  20.335   2.305
61867W        W34935  22.143  15.644   0.897
61868W        W34936  15.576  28.492   1.423
61869W        W34937   6.202  33.072  11.212
61870W        W34938   2.400  10.359   2.638
61871W        W34939   9.395  35.397  11.914
61872W        W34940  40.852  27.499   1.278
61873W        W34941  13.513  21.261   1.411
61874W        W34942  12.070  43.313   0.855
61875W        W34943   8.291  38.740   4.132
61876W        W34944  23.403  21.046  13.826
61877W        W34945  39.376  17.877  14.011
61878W        W34946  36.801   8.319  12.202
61879W        W34947  19.730  14.220  11.014
61880W        W34948   6.875  32.934  14.773
61881W        W34949   4.470  11.373  14.279
61882W        W34950  10.806  16.633   5.031
61883W        W34951  22.602  42.494  14.975
61884W        W34952  31.394  21.069  11.145
61885W        W34953  14.997  36.101   4.163
61886W        W34954  11.835   7.312  11.590
61887W        W34955   8.247  43.498   1.411
61888W        W34956   5.167  42.445   4.329
61889W        W34957  22.663  28.702  13.344
61890W        W34958  38.101  41.355   3.396
61891W        W34959  29.568  30.253   9.874
61892W        W34960   7.646  28.614   0.823
61893W        W34961  31.328   5.247   3.716
61894W        W34962  43.198  40.448  10.802
61895W        W34963   0.294   4.317  13.622
61896W        W34964  28.425  37.971   4.822
61897W        W34965  38.322  15.243  11.456
61898W        W34966  35.550  33.122   0.830
61899W        W34967   5.980  20.505   3.812
61900W        W34968   8.438  31.482   2.728
61901W        W34969  33.435   2.682  12.908
61902W        W34970  12.061  16.388  12.375
61903W        W34971  20.193  20.551   4.296
61904W        W34972  16.286  17.777   3.756
61905W        W34973   6.919   7.327   2.313
61906W        W34974  13.665  10.839   4.456
61907W        W34975  13.161   3.645   1.262
61908W        W34976  16.697  22.866   4.831
61909W        W34977   4.878  29.282  12.803
61910W        W34978  23.683   8.118  12.022
61911W        W34979  31.045  22.217  14.922
61912W        W34980  22.802  17.046   4.183
61913W        W34981   1.328  14.106   1.619
61914W        W34982  31.164  10.136   0.744
61915W        W34983  14.880  19.046  14.867
61916W        W34984  31.918  36.944   4.778
61917W        W34985  35.585  24.707  14.915
61918W        W34986  34.984  43.273   3.829
61919W        W34987   6.231  34.630   1.256
61920W        W34988   5.333  26.016   1.728
61921W        W34989  41.317  19.229  10.417
61922W        W34990  11.753  11.749  11.004
61923W        W34991  40.096  40.325  12.106
61924W        W34992  44.991  33.479   0.780
61925W        W34993  35.973  43.893  14.297
61926W        W34994   2.246  34.027  11.149
61927W        W34995  24.576   2.138   3.152
61928W        W34996  26.922  16.710   0.283
61929W        W34997   1.483  12.167  14.302
61930W        W34998  26.720  36.429   3.330
61931W        W34999  30.181  16.552   2.792
61932W        W35000  36.851   6.296  10.404
61933W        W35001   9.774  18.474   4.412
61934W        W35002  32.612   6.201  11.158
61935W        W35003  18.946  29.622   4.862
61936W        W35004  27.408  14.704  13.022
61937W        W35005   6.751  38.828   2.022
61938W        W35006  22.636  33.574   1.763
61939W        W35007   6.518  37.042   4.822
61940W        W35008  28.675   9.575  14.969
61941W        W35009  18.306  13.303  14.990
61942W        W35010  36.983  42.470   4.185
61943W        W35011  19.330  20.430  11.418
61944W        W35012  37.358  26.996  11.806
61945W        W35013  32.611  38.002   3.330
61946W        W35014   3.380  15.520  11.865
61947W        W35015  27.463  43.513   4.868
61948W        W35016  22.494  20.094   4.075
61949W        W35017  28.279  30.429  11.131
61950W        W35018  40.829  10.638   1.494
61951W        W35019  40.245   8.389   5.369
61952W        W35020   0.037  40.563  13.784
61953W        W35021  34.916   6.351  13.733
61954W        W35022  43.587  19.823  11.976
61955W        W35023  30.962  30.943   0.334
61956W        W35024   7.298  27.527  12.635
61957W        W35025  38.850  15.253   4.573
61958W        W35026  14.276   8.892   0.504
61959W        W35027  29.642  22.972   1.655
61960W        W35028  17.193  44.977   3.826
61961W        W35029  23.619  43.785  12.476
61962W        W35030  17.093  35.811   0.761
61963W        W35031  30.684  26.204  12.017
61964W        W35032  13.292  35.122   3.294
61965W        W35033  10.228  21.093  13.547
61966W        W35034  12.835   3.972   2.212
61967W        W35035  40.870  25.536  11.692
61968W        W35036  20.562  17.084   2.669
61969W        W35037  10.348  38.474  12.056
61970W        W35038   6.906  18.589  10.759
61971W        W35039  36.857  34.114   9.718
61972W        W35040   9.113  26.562  10.555
61973W        W35041  37.331  15.792  11.157
61974W        W35042  14.775  29.499  14.630
61975W        W35043  36.058  35.549  10.405
61976W        W35044  34.052  33.557   2.352
61977W        W35045  19.542  44.761   3.699
61978W        W35046   2.501   8.736  13.067
61979W        W35047  34.164  36.099  13.096
61980W        W35048  29.083  44.268   4.616
61981W        W35049   0.754  44.315  13.358
61982W        W35050  37.743  22.209  12.451
61983W        W35051  28.594  21.251  13.903
61984W        W35052  37.547  28.223   2.775
61985W        W35053  39.316  30.998  13.281
61986W        W35054  34.828  29.038   0.136
61987W        W35055  41.063  40.374  14.875
61988W        W35056  37.883  19.248  11.529
61989W        W35057  42.779  44.371   5.214
61990W        W35058  22.976  32.521  12.640
61991W        W35059  43.969  35.964  13.277
61992W        W35060  44.205   1.729   2.501
61993W        W35061  31.380  37.473   4.109
61994W        W35062  34.397  14.792  12.295
61995W        W35063  13.912  27.887   0.862
61996W        W35064  17.456  13.436  12.320
61997W        W35065  10.324  42.888  14.683
61998W        W35066  28.559  10.970   4.032
61999W        W35067  43.844  39.721   4.349
62000W        W35068  41.805  18.112  13.887
62001W        W35069   4.736  30.385   4.235
62002W        W35070  23.276  34.400  10.689
62003W        W35071  20.843  37.895   4.147
62004W        W35072  13.002  25.505   1.835
62005W        W35073  27.285   1.399  14.292
62006W        W35074  10.324  12.990  13.610
62007W        W35075   6.416  44.389  10.723
62008W        W35076  34.681  10.154   3.663
62009W        W35077  19.128  31.384  12.065
62010W        W35078   6.382  44.990  11.931
62011W        W35079  37.462  36.219   0.394
62012W        W35080  24.030   8.889   0.371
62013W        W35081   9.382  19.902  11.965
62014W        W35082  41.415   6.664   4.263
62015W        W35083  19.959  24.115  13.905
62016W        W35084   9.065  22.511  13.789
62017W        W35085  17.668  29.053  10.451
62018W        W35086  13.438  41.616   3.307
62019W        W35087  37.496   6.897  13.057
62020W        W35088  14.119  33.438   0.751
62021W        W35089  17.263   9.669   2.418
62022W        W35090  29.565  30.449  11.545
62023W        W35091   4.227  42.580   0.616
62024W        W35092   6.484   6.215  10.365
62025W        W35093  10.232   2.428  13.348
62026W        W35094  28.294  28.753  11.628
62027W        W35095  22.126  13.352   3.996
62028W        W35096  32.406  44.766   1.789
62029W        W35097  16.031   0.483   3.174
62030W        W35098  18.178  38.333   1.629
62031W        W35099  31.435  21.420   4.599
62032W        W35100  23.510   8.299  10.808
62033W        W35101   3.162   0.619   0.414
62034W        W35102  18.565  42.396   2.686
62035W        W35103  35.016  28.686   4.291
62036W        W35104  33.185  40.901   4.242
62037W        W35105  43.864  22.234   4.897
62038W        W35106  25.573  37.091   0.044
62039W        W35107  42.002   1.296  14.240
62040W        W35108  18.415  16.052   0.388
62041W        W35109  40.869  18.334  14.739
62042W        W35110   9.100  12.826   3.717
62043W        W35111  41.861  43.180   4.233
62044W        W35112  39.320   7.949  13.156
62045W        W35113  33.118  42.794   4.275
62046W        W35114   0.146  13.684   0.375
62047W        W35115  36.452  20.680  14.793
62048W        W35116   1.811  41.314  13.046
62049W        W35117  36.794  33.085  13.010
62050W        W35118  19.642  35.468  13.976
62051W        W35119  31.998   3.228  11.598
62052W        W35120  23.597   6.916  14.389
62053W        W35121  10.616  25.134   5.163
62054W        W35122  32.873  11.597   3.240
62055W        W35123   9.656  36.419   3.011
62056W        W35124  44.980  38.383   2.842
62057W        W35125  27.876  12.894   9.984
62058W        W35126  16.154  29.657   0.807
62059W        W35127  35.535  37.513  11.092
62060W        W35128  14.318  10.288  12.467
62061W        W35129  16.226   0.271   0.961
62062W        W35130  40.570  43.772   3.823
62063W        W35131   2.853  30.928  12.879
62064W        W35132  42.798  15.726  14.486
62065W        W35133  10.818  18.839   3.838
62066W        W35134  20.212   8.719  14.294
62067W        W35135   2.573  39.487  11.637
62068W        W35136  25.900  33.877   0.761
62069W        W35137  11.249  38.871  11.314
62070W        W35138  16.189  18.363  11.707
62071W        W35139  13.646   3.470   4.604
62072W        W35140  39.904  33.946  12.747
62073W        W35141  15.268  22.842   1.411
62074W        W35142   8.395  41.333   1.544
62075W        W35143  29.427  40.362   0.893
62076W        W35144  35.506   1.002  13.547
62077W        W35145  23.436   2.321  13.340
62078W        W35146  21.964  28.449   1.359
62079W        W35147   5.283  19.713   2.393
62080W        W35148  29.034  29.831  11.188
62081W        W35149  23.857  30.528   4.143
62082W        W35150  20.952   3.343  12.538
62083W        W35151   8.833  11.756  10.680
62084W        W35152  34.943  21.121   3.681
62085W        W35153  26.389  42.282   4.132
62086W        W35154  15.735  27.422   0.797
62087W        W35155  38.243  34.143  14.355
62088W        W35156  19.571   3.706  13.963
62089W        W35157   9.287   2.617  11.693
62090W        W35158  29.458  34.219   0.750
62091W        W35159   0.400  44.890  12.847
62092W        W35160  11.137  30.619  11.529
62093W        W35161  29.961  24.001  14.480
62094W        W35162   2.201  39.434  11.257
62095W        W35163  35.006  44.276   3.708
62096W        W35164  40.343  26.532  14.284
62097W        W35165   0.508  29.917   2.807
62098W        W35166   8.442   2.177  13.880
62099W        W35167  27.287  40.550   4.380
62100W        W35168  44.776  40.564  12.355
62101W        W35169  31.578   2.822  13.776
62102W        W35170  16.586  21.472  14.880
62103W        W35171  38.584   5.193   4.862
62104W        W35172  34.147  40.806  14.779
62105W        W35173  20.515   3.733  11.622
62106W        W35174  34.035  12.531   0.760
62107W        W35175  20.093  38.822  11.607
62108W        W35176  38.905  16.049   4.151
62109W        W35177  42.381  32.638  13.516
62110W        W35178  25.474  23.954  13.467
62111W        W35179   9.432  39.300  10.112
62112W        W35180  35.513  13.908  14.939
62113W        W35181  17.838  21.323  14.834
62114W        W35182  17.238  33.072   2.331
62115W        W35183  11.255  12.185   0.439
62116W        W35184  10.760  33.485   2.207
62117W        W35185  28.902  31.020  13.595
62118W        W35186  31.615  31.614   2.696
62119W        W35187   4.971  32.499  13.081
62120W        W35188  19.719  44.536  14.309
62121W        W35189  39.179  25.914   9.728
62122W        W35190  15.599  12.690  13.094
62123W        W35191  43.542  19.048   1.711
62124W        W35192  42.998  38.537   0.220
62125W        W35193   0.831  13.398  14.075
62126W        W35194  37.393   7.412  12.235
62127W        W35195   4.787  24.563   1.587
62128W        W35196  15.630  13.704   4.635
62129W        W35197  39.362  39.630   2.803
62130W        W35198  31.362  40.871   3.775
62131W        W35199   7.319  12.746  11.594
62132W        W35200  41.054  35.572  14.851
62133W        W35201  19.663  21.301  14.881
62134W        W35202   2.868  13.395  13.454
62135W        W35203   0.745  24.545  13.472
62136W        W35204  37.341  10.545   5.069
62137W        W35205  39.147  12.126   1.319
62138W        W35206  25.509  31.157  12.923
62139W        W35207  29.037  26.505   0.698
62140W        W35208  35.967  35.081   2.368
62141W        W35209   7.804  29.680  11.991
62142W        W35210   5.394   7.409   1.669
62143W        W35211  39.596  28.675  13.468
62144W        W35212  12.395   5.261   2.971
62145W        W35213  10.117   8.625  12.600
62146W        W35214  17.380   1.396   2.758
62147W        W35215  20.203  23.096   1.475
62148W        W35216  26.982  31.172   3.820
62149W        W35217  16.769  38.613   0.924
62150W        W35218  33.678  29.609  11.144
62151W        W35219  15.055   5.848  13.451
62152W        W35220  27.378  16.583   3.293
62153W        W35221  42.403  19.254   1.543
62154W        W35222   2.508  26.114  11.135
62155W        W35223  25.302  31.328  12.408
62156W        W35224  34.343  40.830   1.240
62157W        W35225  22.040  26.820  12.889
62158W        W35226  34.410  36.537  12.386
62159W        W35227   3.859  19.793   5.030
62160W        W35228  34.474  24.615  14.839
62161W        W35229  38.858  42.013   1.897
62162W        W35230   2.366  34.963  13.343
62163W        W35231  32.136  32.919   1.916
62164W        W35232  30.523  26.509  10.735
62165W        W35233  18.335  41.774  12.609
62166W        W35234   3.817   1.995  11.598
62167W        W35235  37.971  33.855   2.257
62168W        W35236  16.712  38.093   0.909
62169W        W35237  20.746  35.065   4.037
62170W        W35238  44.004  22.630   2.327
62171W        W35239  14.692   8.622  12.967
62172W        W35240  29.024  28.085   3.265
62173W        W35241  14.107  39.883  13.587
62174W        W35242  38.434  17.625   2.775
62175W        W35243  32.531  11.083   1.263
62176W        W35244  39.247  36.646   0.865
62177W        W35245  14.751  15.630   0.797
62178W        W35246  23.815  10.635   1.269
62179W        W35247   8.657  37.934   2.380
62180W        W35248  18.336  37.184  13.069
62181W        W35249  10.739  16.137  11.434
62182W        W35250  16.690   2.299   4.643
62183W        W35251  44.863  30.964  14.010
62184W        W35252   6.072   0.947   2.834
62185W        W35253   3.455  37.365  14.347
62186W        W35254  27.470  24.569   0.753
62187W        W35255  16.566  18.673  11.924
62188W        W35256  18.502  20.765  12.252
62189W        W35257   6.862   6.882   4.524
62190W        W35258  41.141  30.086   0.442
62191W        W35259  19.619  39.751   2.711
62192W        W35260  30.078  30.339  11.494
62193W        W35261  14.745  34.746   3.276
62194W        W35262   7.657  38.239   3.702
62195W        W35263  21.728   6.748  14.564
62196W        W35264  36.848  30.580  10.997
62197W        W35265  43.487  39.867   3.197
62198W        W35266  29.720   7.959   4.948
62199W        W35267  20.084  39.544  13.549
62200W        W35268  37.542  20.160  10.744
62201W        W35269   5.399  23.969  14.030
62202W        W35270  32.813  31.606   3.587
62203W        W35271  37.575  44.391   1.783
62204W        W35272   5.456  44.897  12.077
62205W        W35273  24.440  13.083   2.377
62206W        W35274  23.056  24.668  12.165
62207W        W35275   4.735  16.517  11.645
62208W        W35276   5.335  29.600   1.682
62209W        W35277  29.833  36.275   4.720
62210W        W35278  18.038   1.734  10.667
62211W        W35279  28.733  17.049  10.782
62212W        W35280   9.073  32.621   0.935
62213W        W35281   4.161   6.869   0.739
62214W        W35282  35.361  37.584  12.479
62215W        W35283   7.719  16.086   3.224
62216W        W35284  27.072  37.902   4.194
62217W        W35285  14.210  10.864   3.249
62218W        W35286  30.537   9.888  13.792
62219W        W35287  37.799  33.397   1.047
62220W        W35288   5.290   3.370   1.842
62221W        W35289  22.146  41.778   2.319
62222W        W35290   9.217  17.637   0.869
62223W        W35291  39.614   1.539   1.811
62224W        W35292  38.929   8.777   1.893
62225W        W35293  41.305  16.706   2.889
62226W        W35294  18.205  10.320   2.336
62227W        W35295  23.040  29.860   2.647
62228W        W35296  35.673  19.770   2.752
62229W        W35297  31.092  36.573  12.973
62230W        W35298  41.007   5.426  10.860
62231W        W35299  25.828   6.308  14.914
62232W        W35300   1.695  27.594   2.812
62233W        W35301  41.206  30.689   1.888
62234W        W35302  39.065  32.690  10.581
62235W        W35303  33.142   5.627   1.285
62236W        W35304   3.970  12.310  14.361
62237W        W35305  39.438   5.084   2.872
62238W        W35306  20.171  28.076  10.753
62239W        W35307   9.790  29.920  12.384
62240W        W35308  21.502  21.290   1.472
62241W        W35309  18.596  21.167   1.225
62242W        W35310  32.522  31.481  11.212
62243W        W35311   5.351  32.089  14.871
62244W        W35312  44.583   6.007   3.666
62245W        W35313  16.395   9.645   2.233
62246W        W35314  42.354  27.491   2.267
62247W        W35315  41.239  15.295  14.440
62248W        W35316  42.946  17.052  10.721
62249W        W35317  35.809  42.076  14.872
62250W        W35318  26.101  26.231   4.552
62251W        W35319  27.995   7.507   4.076
62252W        W35320  28.036  22.311   0.390
62253W        W35321   2.381   3.049  13.450
62254W        W35322   8.214  40.785   3.226
62255W        W35323  15.309  30.493   1.298
62256W        W35324  34.433  40.800  10.605
62257W        W35325  24.743  40.364  10.222
62258W        W35326  13.912  21.558   3.373
62259W        W35327  27.525  36.766  11.166
62260W        W35328  23.235  21.075   3.197
62261W        W35329  39.923  11.264  14.364
62262W        W35330  31.856  40.488  14.028
62263W        W35331  23.206  15.108  12.051
62264W        W35332  34.441  41.776  11.674
62265W        W35333  22.575  13.186   4.891
62266W        W35334  22.107  30.025   1.190
62267W        W35335   4.611  16.744   0.954
62268W        W35336   5.310  27.187   2.154
62269W        W35337   9.352   6.744  13.447
62270W        W35338   8.781  32.185   2.407
62271W        W35339  24.429  34.545   1.439
62272W        W35340  15.696   7.382   1.445
62273W        W35341   1.687  32.549  12.557
62274W        W35342  28.531  21.994  13.265
62275W        W35343  28.076  24.684  13.413
62276W        W35344  34.988  10.166   4.502
62277W        W35345  19.940  35.792  10.988
62278W        W35346  43.113   3.851   1.547
62279W        W35347  22.241  26.735   1.762
62280W        W35348  12.337   8.359   3.295
62281W        W35349  35.625  30.932  13.928
62282W        W35350  28.384  40.962  11.144
62283W        W35351  28.915   2.310  14.364
62284W        W35352   4.887  20.499   2.806
62285W        W35353  39.153  12.373   2.691
62286W        W35354   8.655  35.135  14.336
62287W        W35355  23.258  39.431  12.374
62288W        W35356  36.385  33.960  14.377
62289W        W35357  22.080   8.647   1.717
62290W        W35358  28.225  11.157  11.569
62291W        W35359  15.851  32.646  14.911
62292W        W35360  16.352   4.190   1.864
62293W        W35361  44.847  17.955  14.829
62294W        W35362  17.585  31.579   3.144
62295W        W35363  19.277  40.039   1.822
62296W        W35364  15.068   3.972  11.151
62297W        W35365  28.460  22.527   4.853
62298W        W35366  38.840  10.518   2.097
62299W        W35367  24.237  38.114  10.282
62300W        W35368   0.776  16.142  11.664
62301W        W35369   9.173  40.476   3.672
62302W        W35370  11.178  38.721   3.332
62303W        W35371  35.882   4.893   2.236
62304W        W35372  31.851  34.523  12.549
62305W        W35373   6.880  12.653   2.671
62306W        W35374  32.047  25.194   3.237
62307W        W35375  40.333   0.680  12.948
62308W        W35376  36.057   7.197   3.631
62309W        W35377   4.493  14.763   1.871
62310W        W35378  37.795  32.609  13.567
62311W        W35379   1.592  26.245  14.833
62312W        W35380  44.383  16.349   4.295
62313W        W35381  22.385  29.001  12.115
62314W        W35382   3.628   2.874  13.962
62315W        W35383  17.823  27.590   4.412
62316W        W35384  19.233  43.343  11.907
62317W        W35385   1.503  30.390   3.227
62318W        W35386  17.783  21.143  12.961
62319W        W35387  34.975   2.275   3.190
62320W        W35388   7.705  11.546  12.366
62321W        W35389   9.706  18.121   0.334
62322W        W35390   0.488  38.647   1.357
62323W        W35391  26.042  35.919   2.321
62324W        W35392  14.856   6.367  10.735
62325W        W35393  15.391  12.417   1.766
62326W        W35394  25.662   3.214   3.201
62327W        W35395  15.974  27.577   2.289
62328W        W35396  42.207  40.498   4.081
62329W        W35397   2.135   8.870  14.936
62330W        W35398  44.188  13.695  11.573
62331W        W35399   3.984  11.558  12.905
62332W        W35400   2.481  10.046  11.571
62333W        W35401   9.834   6.929   0.975
62334W        W35402   4.736  27.020  10.629
62335W        W35403  11.369   2.058  11.222
62336W        W35404  33.482  42.783   1.746
62337W        W35405  40.001  13.553   0.461
62338W        W35406  40.604   8.006   1.400
62339W        W35407  24.230  31.552   3.307
62340W        W35408  40.057   2.095   3.879
62341W        W35409  13.310  21.267   2.617
62342W        W35410   1.808  12.210  13.859
62343W        W35411  36.134   5.679  11.592
62344W        W35412  41.005   4.623  14.881
62345W        W35413  36.901   5.343  13.988
62346W        W35414  40.318  37.647  10.545
62347W        W35415   3.461  39.543  14.348
62348W        W35416   6.232  24.364   2.684
62349W        W35417  24.655  33.135   0.772
62350W        W35418  20.195  41.798   4.851
62351W        W35419  32.839   6.860   2.279
62352W        W35420  29.681   8.603   1.363
62353W        W35421  42.034  41.517   0.273
62354W        W35422  17.853  37.527   1.711
62355W        W35423   9.098  41.982  12.233
62356W        W35424   0.025  26.227   2.710
62357W        W35425  25.747  20.037  14.394
62358W        W35426   0.154  43.920   4.154
62359W        W35427  20.732  22.079   0.429
62360W        W35428  17.257   4.859  13.271
62361W        W35429  27.046   2.695   4.548
62362W        W35430  23.042   0.744   2.826
62363W        W35431  25.488  36.485  10.413
62364W        W35432  17.735  43.308   1.409
62365W        W35433  41.402  22.530   2.400
62366W        W35434  34.031  14.415   5.100
62367W        W35435   0.886   6.990   1.922
62368W        W35436   6.809   3.331   1.206
62369W        W35437  22.542  28.992  10.660
62370W        W35438  18.188  17.734   3.235
62371W        W35439   5.994  16.811   1.824
62372W        W35440  32.865  44.372   4.187
62373W        W35441  38.444  39.540  14.026
62374W        W35442   9.252   8.830  10.626
62375W        W35443   8.408  22.233   2.261
62376W        W35444  30.677   8.823   4.983
62377W        W35445   6.679   1.784   0.026
62378W        W35446  26.678  39.440   3.149
62379W        W35447  10.236  13.509  14.436
62380W        W35448  21.673   8.423   3.733
62381W        W35449  21.668  38.276  11.855
62382W        W35450  28.398  35.849   2.265
62383W        W35451  41.867  32.056   1.374
62384W        W35452  38.555  33.291   1.771
62385W        W35453  37.236   7.744   0.946
62386W        W35454  24.110  32.150   4.504
62387W        W35455  18.822  22.555  13.595
62388W        W35456  41.804   1.459  13.374
62389W        W35457  42.083  10.751  13.035
62390W        W35458   1.439  18.017  11.896
62391W        W35459   6.376  22.494   3.274
62392W        W35460   5.498   2.479  12.065
62393W        W35461  36.718  32.401  14.796
62394W        W35462  29.372  32.524  11.852
62395W        W35463  12.399   8.238  13.393
62396W        W35464  12.634   2.452   1.904
62397W        W35465   0.035  34.498   2.816
62398W        W35466  41.802   6.854   4.543
62399W        W35467  39.461  40.543  10.493
62400W        W35468  33.474  18.787  10.676
62401W        W35469   4.490  33.122  14.349
62402W        W35470   2.292  26.096   1.358
62403W        W35471  21.199  19.407  13.256
62404W        W35472   8.755  39.914  10.883
62405W        W35473  14.753   2.769   0.469
62406W        W35474  35.657  19.117   1.274
62407W        W35475  24.071  11.086  13.310
62408W        W35476  31.401  37.428   3.061
62409W        W35477  28.289   2.303   2.554
62410W        W35478   0.786  12.056   1.287
62411W        W35479  38.584   5.381  10.575
62412W        W35480  14.825  42.147  10.654
62413W        W35481  37.384  37.142   3.474
62414W        W35482  38.510  30.364  13.163
62415W        W35483  14.438   3.337  13.372
62416W        W35484  18.105  20.980  11.212
62417W        W35485  13.252  34.005   0.382
62418W        W35486  22.464  31.888   0.759
62419W        W35487  28.991  40.006   4.580
62420W        W35488  29.249  18.116  14.843
62421W        W35489   0.495   0.842   3.772
62422W        W35490  33.928   4.318  10.599
62423W        W35491  28.027  13.760  11.491
62424W        W35492  21.571  11.133   2.890
62425W        W35493  13.627  24.617   3.269
62426W        W35494  11.692  13.294   4.560
62427W        W35495   7.023  24.985  11.963
62428W        W35496  14.112  26.108  12.531
62429W        W35497   2.502  40.959  12.412
62430W        W35498  10.746  43.396  11.980
62431W        W35499  42.233  27.488  11.587
62432W        W35500   6.457   1.048   2.294
62433W        W35501  36.591  11.547  14.972
62434W        W35502  43.406  18.963  14.271
62435W        W35503  40.931   9.125  11.145
62436W        W35504  24.547  40.209  12.327
62437W        W35505  21.143  20.270   2.777
62438W        W35506  37.852  26.939  11.932
62439W        W35507   0.453   0.586  11.836
62440W        W35508  27.709  13.161   2.162
62441W        W35509   0.286  12.394   0.650
62442W        W35510  18.309  29.072   1.445
62443W        W35511   0.351   6.117   0.254
62444W        W35512   7.267  27.383  11.004
62445W        W35513  28.880  32.369  11.919
62446W        W35514  26.001  37.540  13.104
62447W        W35515  11.511  36.158   3.884
62448W        W35516  14.112  40.790   1.295
62449W        W35517  13.288  39.573   3.686
62450W        W35518  40.893  36.962  14.383
62451W        W35519  27.049  41.342   1.342
62452W        W35520  14.101   7.929  13.813
62453W        W35521  13.209  12.865  14.496
62454W        W35522  28.970  11.830   0.196
62455W        W35523  31.382   1.423  14.892
62456W        W35524   2.387  22.740   1.404
62457W        W35525  44.339  28.489  11.670
62458W        W35526  39.505  37.000  14.916
62459W        W35527  34.986  29.086  12.908
62460W        W35528  42.720  31.643   3.072
62461W        W35529  12.577   7.645  13.883
62462W        W35530  14.269  10.342  11.593
62463W        W35531  29.138  41.818  12.619
62464W        W35532   1.353  38.847   0.329
62465W        W35533  17.702  19.939   4.592
62466W        W35534   7.800   4.504   1.813
62467W        W35535  27.358  33.805  10.954
62468W        W35536  34.283  13.201   1.266
62469W        W35537   0.705  40.235   3.236
62470W        W35538   6.805  12.351   4.706
62471W        W35539   7.343  40.464  13.021
62472W        W35540  33.021  11.884   2.272
62473W        W35541  11.370  24.191   2.650
62474W        W35542  28.152  13.460   4.591
62475W        W35543  30.079  10.855  12.983
62476W        W35544   9.751   4.872  12.850
62477W        W35545   8.388  12.168  13.366
62478W        W35546   0.858  19.794  13.870
62479W        W35547  12.181  34.657   1.780
62480W        W35548  10.186   3.496   3.296
62481W        W35549  36.477  39.614   3.558
62482W        W35550  22.031  37.061   0.876
62483W        W35551   5.197   4.319  11.165
62484W        W35552  43.011  36.099   4.475
62485W        W35553  16.713  29.497   0.730
62486W        W35554  28.750   8.105   4.682
62487W        W35555  32.474   4.929  12.907
62488W        W35556  20.190   7.701  14.361
62489W        W35557   2.954  22.257  13.545
62490W        W35558   4.437   2.695  12.508
62491W        W35559  44.345   7.685   1.467
62492W        W35560  12.157  13.982  11.667
62493W        W35561  41.775  26.069   3.326
62494W        W35562   5.758  44.141   0.798
62495W        W35563   0.584  40.264   4.566
62496W        W35564  42.708  16.326  13.939
62497W        W35565  29.010   9.113   4.880
62498W        W35566  40.100  30.510   2.744
62499W        W35567  38.090  34.966   1.232
62500W        W35568  25.659  24.424  13.525
62501W        W35569  42.774   0.879  11.511
62502W        W35570  16.729  41.648   3.327
62503W        W35571  14.304  39.339  11.927
62504W        W35572   4.691  41.778   1.851
62505W        W35573  16.361  41.372   3.027
62506W        W35574  10.670   5.857   3.177
62507W        W35575  28.085   4.854   1.017
62508W        W35576  19.195  31.430  14.240
62509W        W35577  10.185   5.090   4.328
62510W        W35578  31.375  44.913   1.715
62511W        W35579  31.127  30.063   1.438
62512W        W35580  29.497  21.035  10.704
62513W        W35581  41.399  34.458   1.419
62514W        W35582  42.234  13.527   0.373
62515W        W35583  37.599  39.827   2.266
62516W        W35584   7.929   2.183   3.968
62517W        W35585  24.725  17.213   9.921
62518W        W35586  40.433   0.050   1.511
62519W        W35587   6.343  40.672   1.814
62520W        W35588   1.253  41.596   0.734
62521W        W35589  30.289  33.884   1.428
62522W        W35590  40.836  15.046   0.294
62523W        W35591  11.950  41.254  14.082
62524W        W35592  33.950  10.749  11.113
62525W        W35593  24.580  14.291  14.262
62526W        W35594  26.672   8.920  11.544
62527W        W35595  39.162   3.778   4.096
62528W        W35596  31.004  44.941   0.785
62529W        W35597   7.714  19.210  11.480
62530W        W35598  44.748  42.331  14.442
62531W        W35599  43.003   4.660   3.327
62532W        W35600  18.839  21.200  12.820
62533W        W35601  24.921  36.400   0.641
62534W        W35602  13.045  37.833   0.976
62535W        W35603  13.208  35.986   1.161
62536W        W35604  15.117   2.771  12.385
62537W        W35605   1.509  42.950   4.064
62538W        W35606  37.485  20.114   1.590
62539W        W35607  18.752   8.359  12.166
62540W        W35608   1.760   5.269  13.992
62541W        W35609  29.895  23.142   2.888
62542W        W35610  40.074  15.402  13.892
62543W        W35611   1.549  37.924  12.449
62544W        W35612   3.379  30.821  12.884
62545W        W35613  10.793  15.576   0.024
62546W        W35614  29.612  28.231   3.710
62547W        W35615   2.787  32.911   4.413
62548W        W35616   9.908  25.774   3.700
62549W        W35617  36.386  31.655   3.759
62550W        W35618  22.838  42.127   1.659
62551W        W35619   9.246  21.105  14.444
62552W        W35620  42.213   9.256  10.577
62553W        W35621  35.169   4.677   1.568
62554W        W35622  38.554  43.086   3.329
62555W        W35623  42.428   3.991   2.846
62556W        W35624   3.830  44.998  10.974
62557W        W35625  44.672  30.208   1.863
62558W        W35626  32.933   3.101  11.519
62559W        W35627  14.134  17.345   1.659
62560W        W35628   3.960  25.136   1.273
62561W        W35629  17.569  18.690   4.078
62562W        W35630  17.290  13.303   3.800
62563W        W35631   7.890  21.300   4.464
62564W        W35632   7.119  29.914  12.872
62565W        W35633  10.555  17.988  12.498
62566W        W35634  16.072  10.261   0.799
62567W        W35635  40.507  11.358   4.183
62568W        W35636  31.538  16.077   1.672
62569W        W35637  24.469  25.889   0.806
62570W        W35638  35.366  35.998  10.536
62571W        W35639  37.803  23.403   3.870
62572W        W35640  34.506  37.253  14.304
62573W        W35641  13.004  10.669  12.535
62574W        W35642   9.934  14.404  12.974
62575W        W35643   3.794  14.427   0.083
62576W        W35644  44.286  15.125   0.971
62577W        W35645  19.476  11.993  11.618
62578W        W35646  23.706  15.597  10.962
62579W        W35647  37.122  38.834   1.227
62580W        W35648  41.353  15.760   0.418
62581W        W35649  34.741  22.283   0.932
62582W        W35650  31.035  25.993   3.692
62583W        W35651  39.906  12.246  10.355
62584W        W35652   3.000  32.640  14.342
62585W        W35653   3.769   8.147   2.822
62586W        W35654  37.165  43.856  12.129
62587W        W35655  41.799  17.084   0.819
62588W        W35656  30.069  11.295   1.950
62589W        W35657   8.378  14.251  11.326
62590W        W35658  32.468   9.000  13.866
62591W        W35659  13.532  34.432   3.250
62592W        W35660   8.235  23.576  10.638
62593W        W35661   0.307  18.109   1.418
62594W        W35662   7.353  21.745  11.984
62595W        W35663   2.566  27.259   2.776
62596W        W35664  40.875   6.114   3.731
62597W        W35665  31.158   5.287   1.228
62598W        W35666  40.105  21.829  12.001
62599W        W35667   7.421  19.088   2.034
62600W        W35668  23.448  28.059   0.489
62601W        W35669  13.097   5.410  12.731
62602W        W35670  10.492  27.681   9.881
62603W        W35671  24.809  32.493  12.842
62604W        W35672  41.468  35.168   2.253
62605W        W35673  25.568  26.089  11.429
62606W        W35674  36.348  39.242  11.862
62607W        W35675  27.918  38.347  11.154
62608W        W35676  29.482  24.125  14.023
62609W        W35677  39.363  14.702   3.495
62610W        W35678  39.595   9.301   2.187
62611W        W35679  21.812  10.192  13.569
62612W        W35680   9.329  40.517   2.327
62613W        W35681   5.946   2.372   2.602
62614W        W35682  20.739  26.599   4.927
62615W        W35683   0.464  36.170  12.567
62616W        W35684   8.654  23.152   0.353
62617W        W35685  42.486  18.303  11.961
62618W        W35686  27.955  11.792  14.504
62619W        W35687  18.295  27.631   4.261
62620W        W35688  23.875   7.460   3.330
62621W        W35689   5.917  43.467  11.475
62622W        W35690   6.221  15.898   4.135
62623W        W35691  22.797   0.178   1.501
62624W        W35692  29.233  22.516  13.362
62625W        W35693  24.089  43.898   2.751
62626W        W35694   8.869  26.414  12.888
62627W        W35695  28.106   2.855   4.339
62628W        W35696  26.567  31.191  13.118
62629W        W35697  11.621  10.557  13.416
62630W        W35698   1.033  13.742  12.273
62631W        W35699   2.916   8.720  11.891
62632W        W35700  42.329  21.997   2.308
62633W        W35701  29.120   8.269   3.895
62634W        W35702  40.333  24.454   3.991
62635W        W35703  31.872   4.278   3.115
62636W        W35704  19.775  31.091   4.687
62637W        W35705   7.158  44.487   4.441
62638W        W35706  15.276  11.096   1.431
62639W        W35707  22.995  38.064   1.250
62640W        W35708  26.618  34.969   1.391
62641W        W35709  42.254   6.838  11.572
62642W        W35710  30.171  43.820   2.990
62643W        W35711  17.115  11.843   3.138
62644W        W35712   5.265   7.328  11.198
62645W        W35713  30.002  32.413   1.652
62646W        W35714  15.274  22.079   0.931
62647W        W35715  28.128  26.169  14.920
62648W        W35716   5.675   5.788   0.905
62649W        W35717  31.528  33.635   0.981
62650W        W35718   1.440   1.507  13.939
62651W        W35719   3.474  40.071  13.140
62652W        W35720  11.255  37.979   4.359
62653W        W35721  13.900  31.058   0.841
62654W        W35722  40.410  32.615  12.516
62655W        W35723  39.817   8.267  11.131
62656W        W35724  11.772  24.281  13.947
62657W        W35725  29.308  43.053  10.274
62658W        W35726   0.356  10.544  13.808
62659W        W35727  19.795   3.179   3.829
62660W        W35728  43.265  25.415  12.408
62661W        W35729   5.324  39.975   2.960
62662W        W35730  26.846   9.313   2.719
62663W        W35731  12.301  27.905  14.311
62664W        W35732  21.349   7.194  10.310
62665W        W35733  34.059   6.258  13.769
62666W        W35734   9.732  43.340  10.999
62667W        W35735   3.018   8.832  12.859
62668W        W35736  19.798  20.612   3.064
62669W        W35737   9.306  33.605  11.596
62670W        W35738  14.552  22.691   4.916
62671W        W35739   1.621  39.926  10.720
62672W        W35740  20.150  18.884  14.538
62673W        W35741  29.354  17.276   2.128
62674W        W35742  30.509  12.836   0.438
62675W        W35743  25.939  29.598  14.503
62676W        W35744  43.424   0.473  12.102
62677W        W35745  16.552  22.709  10.985
62678W        W35746  20.531  24.981  11.623
62679W        W35747   3.062   5.832   1.010
62680W        W35748   3.722  41.055   1.846
62681W        W35749  35.097  29.000   2.077
62682W        W35750  16.220   8.900  11.820
62683W        W35751  40.509  39.410   4.623
62684W        W35752  40.932   9.194   1.775
62685W        W35753   7.824  30.936   2.925
62686W        W35754   7.118  31.111  12.395
62687W        W35755  37.148  12.246   2.274
62688W        W35756  22.424  19.249   1.242
62689W        W35757  17.749   4.033   3.336
62690W        W35758  24.427  31.967   4.116
62691W        W35759  21.597   3.291   0.771
62692W        W35760  37.341  24.116  11.691
62693W        W35761   8.193  35.616  11.071
62694W        W35762  38.434  40.743   0.647
62695W        W35763  31.081  44.484   1.756
62696W        W35764  20.751  21.586   3.052
62697W        W35765  19.343  24.160  11.405
62698W        W35766  13.220  16.783  14.977
62699W        W35767  23.376  43.851  12.958
62700W        W35768  40.341  42.856  14.086
62701W        W35769  26.629   4.639  14.945
62702W        W35770  20.913  44.977  12.647
62703W        W35771   1.245   3.994   0.290
62704W        W35772  42.547  20.981   2.341
62705W        W35773  26.663  41.832   2.160
62706W        W35774  21.057   8.255   0.335
62707W        W35775  32.581  38.796   4.634
62708W        W35776  24.366  27.140   3.611
62709W        W35777   4.186   1.160   4.569
62710W        W35778  18.536  24.627   4.478
62711W        W35779  10.460  18.248   3.248
62712W        W35780  34.228  27.132   3.633
62713W        W35781   3.687  20.183   3.298
62714W        W35782  38.465   1.159  10.645
62715W        W35783   0.831  33.646  14.691
62716W        W35784  26.912   3.715  13.533
62717W        W35785   9.162  34.545   1.606
62718W        W35786  25.921  43.348   1.905
62719W        W35787  36.520  11.117   0.978
62720W        W35788   6.978   0.869   1.951
62721W        W35789  17.373  38.724  14.289
62722W        W35790  26.564  26.070  10.624
62723W        W35791  43.729  42.001   3.212
62724W        W35792  19.632  28.235   2.327
62725W        W35793  13.114   5.237  14.416
62726W        W35794   8.687  20.337  11.597
62727W        W35795  11.078  11.114   2.853
62728W        W35796   6.371   0.455  12.803
62729W        W35797   8.744  15.584   1.919
62730W        W35798  35.803  32.497   5.295
62731W        W35799   0.762  43.020   4.742
62732W        W35800  23.944  13.673   2.631
62733W        W35801   2.898  26.206   4.568
62734W        W35802  34.503   2.223   3.407
62735W        W35803  13.139  27.457   0.928
62736W        W35804  43.196   8.709  14.038
62737W        W35805  20.818   9.140  14.602
62738W        W35806  33.990  35.312   4.300
62739W        W35807  33.984  24.432  14.755
62740W        W35808  17.307  32.913  10.944
62741W        W35809  11.372  24.906   3.256
62742W        W35810  11.712  27.178   2.305
62743W        W35811   7.658  22.662   3.647
62744W        W35812  44.733  23.793  13.821
62745W        W35813  22.853  34.453   0.243
62746W        W35814   3.881  36.581  10.706
62747W        W35815  20.751   6.383   0.532
62748W        W35816  40.324  11.194   3.704
62749W        W35817  21.869  44.747   4.526
62750W        W35818  21.449   2.711   3.279
62751W        W35819  26.420   1.250  11.190
62752W        W35820  19.555  25.420   1.284
62753W        W35821   8.642  15.643   4.644
62754W        W35822   3.823  26.243   3.883
62755W        W35823   2.696  37.121  13.953
62756W        W35824  16.577  36.583  11.207
62757W        W35825   4.457   5.215  11.934
62758W        W35826  14.108  29.141  13.416
62759W        W35827  20.523  33.082  11.969
62760W        W35828  32.127  29.454  11.156
62761W        W35829  27.699  24.214  11.997
62762W        W35830   0.819  20.134   3.633
62763W        W35831   2.426  42.531  11.947
62764W        W35832  20.762  12.870   1.891
62765W        W35833  36.072  24.547  14.025
62766W        W35834  30.279  42.122  12.030
62767W        W35835  16.490   7.239  13.844
62768W        W35836  19.740  37.019  14.380
62769W        W35837  25.869  19.898   0.715
62770W        W35838  34.151  16.629  13.806
62771W        W35839   2.386  35.916  12.375
62772W        W35840   1.036   5.707  10.314
62773W        W35841  18.658  13.148   2.810
62774W        W35842  29.518  28.753  12.187
62775W        W35843  15.229  40.360   3.289
62776W        W35844   3.886  16.812   2.584
62777W        W35845  44.546  26.288   0.016
62778W        W35846   0.741  42.271  12.560
62779W        W35847   9.336  31.833   9.978
62780W        W35848  29.638  41.050   3.249
62781W        W35849  39.871  11.283   2.316
62782W        W35850  36.082  37.379   0.817
62783W        W35851  39.664  33.823  14.066
62784W        W35852   7.222  37.453   3.626
62785W        W35853  24.044   9.309  14.587
62786W        W35854   6.590  33.850  11.673
62787W        W35855  24.426   1.446  11.958
62788W        W35856  33.366   3.928  10.751
62789W        W35857  11.836  34.058   2.692
62790W        W35858  16.624  39.098   1.879
62791W        W35859  31.961  20.607  10.807
62792W        W35860  39.405  25.440  11.868
62793W        W35861  18.264  15.154   4.861
62794W        W35862  39.585  42.554  12.946
62795W        W35863  40.531  40.755   4.578
62796W        W35864  10.579  34.170  14.824
62797W        W35865  11.812   0.901   1.798
62798W        W35866  24.249  40.951   1.200
62799W        W35867   1.786  13.637   3.323
62800W        W35868  41.139  29.590  13.598
62801W        W35869  16.201  43.847  13.591
62802W        W35870  39.259   7.354  10.656
62803W        W35871  21.642  28.482  13.755
62804W        W35872  32.442  24.653  10.787
62805W        W35873   5.138  33.994  11.478
62806W        W35874  19.693  31.225   2.388
62807W        W35875  23.628  33.582  10.535
62808W        W35876  18.722  12.712  13.955
62809W        W35877  34.579  36.453  13.803
62810W        W35878   8.262   6.608  14.551
62811W        W35879  34.368   7.844   2.446
62812W        W35880  15.248  15.220  12.372
62813W        W35881  24.532  28.021   4.382
62814W        W35882  35.198  29.490  11.137
62815W        W35883  38.020  28.458   2.894
62816W        W35884   8.444  44.137   2.837
62817W        W35885  22.591  16.901   0.812
62818W        W35886  22.285  16.868  13.472
62819W        W35887  28.691  13.317   3.121
62820W        W35888  22.545  22.460   1.480
62821W        W35889  11.263   8.416   1.836
62822W        W35890   0.459  37.935  14.125
62823W        W35891  24.093  10.913   2.710
62824W        W35892  21.629  27.021   3.987
62825W        W35893  24.713  14.131  12.886
62826W        W35894  27.256  16.712  11.876
62827W        W35895  34.045   7.962  14.315
62828W        W35896  20.005  35.515   1.718
62829W        W35897  44.395  23.687   1.288
62830W        W35898  22.278  29.955   2.284
62831W        W35899  27.595  38.418   4.640
62832W        W35900  44.181   6.401   1.910
62833W        W35901  29.659  20.585   2.308
62834W        W35902  11.445   9.708  13.443
62835W        W35903  34.189  24.683   3.255
62836W        W35904  32.613   5.805   4.669
62837W        W35905  38.880  37.119   4.141
62838W        W35906  25.394  17.677  11.575
62839W        W35907   8.860  38.023  13.502
62840W        W35908  30.747  32.302  13.337
62841W        W35909  41.250  15.766  10.468
62842W        W35910  28.259  29.364  14.303
62843W        W35911  24.696  28.007   4.872
62844W        W35912  15.911  22.701   0.502
62845W        W35913  28.558  10.047   1.291
62846W        W35914  16.747  38.089   3.785
62847W        W35915  30.266  43.300   3.705
62848W        W35916  24.655   3.770  10.995
62849W        W35917  25.966  32.810  14.777
62850W        W35918  23.019   2.323   4.957
62851W        W35919  39.488  35.842   3.252
62852W        W35920  42.395  26.970  14.433
62853W        W35921  39.124  15.312  14.849
62854W        W35922   1.924  43.812   1.060
62855W        W35923  38.088  31.578   4.945
62856W        W35924  35.201  12.166   1.983
62857W        W35925   6.911   6.333  12.825
62858W        W35926  38.323   5.919  12.676
62859W        W35927  40.367  17.509  13.457
62860W        W35928  25.691   2.671  12.554
62861W        W35929  11.251  38.256   0.379
62862W        W35930  11.288  27.977   2.297
62863W        W35931  25.534  26.173   0.407
62864W        W35932   8.721   8.137  12.142
62865W        W35933  31.693  20.538   1.556
62866W        W35934  17.608  36.476   4.558
62867W        W35935  19.038  12.807   4.593
62868W        W35936  34.651  35.950   2.847
62869W        W35937  30.456  34.429   2.696
62870W        W35938  39.928  13.707   4.802
62871W        W35939  44.974   0.157  12.953
62872W        W35940  28.413  26.149  14.493
62873W        W35941   9.740  16.381   0.052
62874W        W35942  11.565   8.047   4.554
62875W        W35943  23.667  18.236   3.236
62876W        W35944  18.094   4.282  10.675
62877W        W35945   7.506  18.862  12.591
62878W        W35946   7.909   3.344   1.083
62879W        W35947  28.776  42.274   1.857
62880W        W35948  38.467   1.966   3.162
62881W        W35949  41.812  14.542  10.791
62882W        W35950  43.787  41.913  10.725
62883W        W35951  27.796  18.179  10.134
62884W        W35952  10.932  42.582  13.039
62885W        W35953  35.086  25.065  14.488
62886W        W35954  41.336  39.371   1.952
62887W        W35955  25.558  40.369   0.742
62888W        W35956   8.924  42.763   1.661
62889W        W35957   8.223   3.278  10.402
62890W        W35958  44.970  11.875   3.619
62891W        W35959  14.885  32.340  11.944
62892W        W35960  23.201  29.448  12.405
62893W        W35961  12.376   4.219   2.179
62894W        W35962  30.857  20.203  11.109
62895W        W35963  26.182  20.395   2.231
62896W        W35964  24.474  27.758   2.133
62897W        W35965   6.343  32.337  13.025
62898W        W35966  10.676   0.855   0.488
62899W        W35967   5.178  26.491  13.405
62900W        W35968  41.181  28.049   0.704
62901W        W35969   3.400  23.196   3.121
62902W        W35970  13.735  36.735  13.066
62903W        W35971  36.121   8.870  11.997
62904W        W35972  41.785  16.022   0.251
62905W        W35973  40.817  33.964   2.780
62906W        W35974  14.998  33.830  10.742
62907W        W35975  34.599  32.567  12.006
62908W        W35976  37.592  18.727  14.921
62909W        W35977  17.181  13.604   4.278
62910W        W35978  39.986   6.413  10.369
62911W        W35979  19.302  29.187  13.450
62912W        W35980  18.896   0.404  11.389
62913W        W35981  21.919  19.249   5.032
62914W        W35982  22.730  25.873  10.184
62915W        W35983  23.521  27.971  13.039
62916W        W35984  13.113   0.927   4.646
62917W        W35985  11.766  25.772  14.975
62918W        W35986  10.653  22.668  11.605
62919W        W35987   4.790   7.430  11.344
62920W        W35988   1.610  21.182  12.398
62921W        W35989   9.364  28.440  12.070
62922W        W35990   5.276  30.706  12.104
62923W        W35991  30.854   1.288  11.636
62924W        W35992  25.477  38.616  11.933
62925W        W35993  16.972  30.033  14.719
62926W        W35994  34.084   2.445  10.709
62927W        W35995  12.972  13.351  11.047
62928W        W35996   0.930  13.376  11.936
62929W        W35997  32.785  37.514   3.230
62930W        W35998  42.903   7.818   2.839
62931W        W35999  10.755  36.476  12.577
62932W        W36000  39.642  28.014  12.392
62933W        W36001  30.998  10.858  11.514
62934W        W36002  28.056  31.988  14.702
62935W        W36003  10.760  36.503  13.922
62936W        W36004  39.998  20.576   3.370
62937W        W36005  40.116  43.743  14.345
62938W        W36006   8.292  18.381   4.143
62939W        W36007  37.474  31.689  10.334
62940W        W36008  29.172  13.405   5.065
62941W        W36009  28.903  39.991  14.731
62942W        W36010  23.570  35.043   4.386
62943W        W36011   8.819  37.529   4.194
62944W        W36012  43.536  12.784  14.960
62945W        W36013   8.365   1.937  14.564
62946W        W36014   9.002  18.335  10.738
62947W        W36015   9.163  44.418  10.314
62948W        W36016  25.987   2.972   2.235
62949W        W36017  44.248  10.901  12.419
62950W        W36018  37.152  33.489  10.171
62951W        W36019  10.239  24.213   3.944
62952W        W36020  36.552   0.718  12.662
62953W        W36021   0.956  31.872   4.131
62954W        W36022   9.278   2.783  14.003
62955W        W36023  19.064  37.800   4.839
62956W        W36024  43.304   4.863  13.351
62957W        W36025  12.356  30.225   4.897
62958W        W36026  18.544  18.619   4.656
62959W        W36027  10.868  33.852  11.056
62960W        W36028  14.496  28.029   3.143
62961W        W36029   5.351  14.860  14.350
62962W        W36030   1.727  40.453   2.658
62963W        W36031  14.132  17.830  12.147
62964W        W36032  20.327  35.412  11.774
62965W        W36033  22.159  43.722   4.990
62966W        W36034   0.357  26.193  10.718
62967W        W36035  37.621  14.503  10.221
62968W        W36036  40.921  32.338  11.854
62969W        W36037  37.517  22.366  14.856
62970W        W36038  11.675  29.719   3.323
62971W        W36039  44.710  21.072  10.680
62972W        W36040  25.999   6.049  12.423
62973W        W36041  37.980  14.065   3.443
62974W        W36042   4.161  27.055   0.437
62975W        W36043  41.033   0.691  10.192
62976W        W36044  27.205  34.675   4.231
62977W        W36045  44.887  31.120   2.637
62978W        W36046   9.697  34.978   1.887
62979W        W36047  42.171  41.974  14.992
62980W        W36048  18.837   7.652  14.255
62981W        W36049  16.584   0.954   0.429
62982W        W36050  20.304  21.250   2.925
62983W        W36051  12.888  36.133  11.625
62984W        W36052  26.124  15.755  12.897
62985W        W36053   5.747  18.009  13.088
62986W        W36054  29.188  25.732   2.818
62987W        W36055  24.472  11.300   4.155
62988W        W36056   0.219  27.938  11.932
62989W        W36057  44.803  17.759  13.486
62990W        W36058  19.165  12.469  14.828
62991W        W36059  15.578  13.102   3.765
62992W        W36060  34.872  39.071   4.215
62993W        W36061   7.878  37.572  12.854
62994W        W36062  21.268  17.620   2.200
62995W        W36063  41.477  38.682   1.195
62996W        W36064  41.875  43.551   3.275
62997W        W36065  28.134   9.853  10.098
62998W        W36066   1.760  32.446   0.326
62999W        W36067  38.505  17.383   4.264
63000W        W36068  42.653  16.054   1.854
63001W        W36069  38.505  13.202  11.986
63002W        W36070  43.164  34.156   1.719
63003W        W36071   7.620  38.028  12.959
63004W        W36072  43.830   9.906  13.736
63005W        W36073  44.979  42.371  13.978
63006W        W36074   5.740   3.025   4.413
63007W        W36075  41.864  25.915  12.981
63008W        W36076   6.875  19.311  13.117
63009W        W36077   4.316   1.653   2.797
63010W        W36078  22.085   0.551  13.955
63011W        W36079  13.800  16.229   0.112
63012W        W36080  38.644  26.660  11.040
63013W        W36081  33.810  14.020   0.759
63014W        W36082  24.078  33.139   1.471
63015W        W36083  29.848  21.557  11.134
63016W        W36084   2.460   4.177  12.524
63017W        W36085  31.968  16.088  10.653
63018W        W36086   0.456   6.394   4.466
63019W        W36087  19.671   4.006  12.007
63020W        W36088  41.082  12.182   0.321
63021W        W36089  33.333  37.838  10.668
63022W        W36090  38.009  38.458   2.868
63023W        W36091  24.265  35.341   5.029
63024W        W36092  16.049   6.478  12.479
63025W        W36093   4.212  17.801   1.366
63026W        W36094  31.192  34.312  11.982
63027W        W36095   8.956   5.197   3.803
63028W        W36096  16.304  18.577   0.490
63029W        W36097  28.891  17.437   1.951
63030W        W36098  40.477   2.547   2.059
63031W        W36099   1.183  10.448   0.751
63032W        W36100  23.087  19.183   9.955
63033W        W36101  41.547   3.219   3.199
63034W        W36102   8.295  23.066  12.343
63035W        W36103  26.505  15.671   1.267
63036W        W36104  31.018  13.095   3.837
63037W        W36105  10.636  20.411  12.160
63038W        W36106  31.197  16.344  13.926
63039W        W36107  30.886   8.803   1.251
63040W        W36108   8.654  42.925  10.077
63041W        W36109   2.746  37.397  13.454
63042W        W36110  18.192  38.034   2.894
63043W        W36111  12.877   7.319   0.971
63044W        W36112  15.923  35.204  13.564
63045W        W36113  15.713   0.750   4.550
63046W        W36114  24.480  32.319  14.459
63047W        W36115  28.810   9.889  10.766
63048W        W36116  32.550  34.631   1.252
63049W        W36117  30.711  37.966   3.014
63050W        W36118   0.371  19.700  13.747
63051W        W36119  22.595   4.667   2.138
63052W        W36120   0.937   6.331  12.475
63053W        W36121   5.212  43.393  12.834
63054W        W36122   1.463  40.822  14.082
63055W        W36123  39.449  44.181   1.890
63056W        W36124  11.881  14.185   1.805
63057W        W36125  20.595   0.777  11.138
63058W        W36126  27.157  14.347  14.843
63059W        W36127  17.240   1.918  14.374
63060W        W36128   2.031  42.045  14.525
63061W        W36129   6.886  19.258   3.303
63062W        W36130  33.631  11.120  11.594
63063W        W36131   7.584  13.142   0.789
63064W        W36132  19.297  15.272  13.919
63065W        W36133  37.585  20.051   3.705
63066W        W36134  30.218  10.138  14.751
63067W        W36135  17.069   6.886   1.395
63068W        W36136  42.904   4.855   1.208
63069W        W36137  44.207  21.800   1.819
63070W        W36138  10.386  20.869   3.232
63071W        W36139  17.233  30.312   5.016
63072W        W36140  21.011   9.649   0.619
63073W        W36141  44.928   4.356   3.627
63074W        W36142  36.512   9.902  12.341
63075W        W36143   4.319  44.050   2.355
63076W        W36144  32.176   3.415   0.779
63077W        W36145  40.049  18.615   1.396
63078W        W36146  16.560   7.383  10.784
63079W        W36147   1.717   3.966   1.284
63080W        W36148  13.518  17.539   0.215
63081W        W36149   5.260  34.003  12.305
63082W        W36150   0.347  21.602   2.266
63083W        W36151  43.524  37.461  11.471
63084W        W36152  41.552   2.933  11.853
63085W        W36153  38.260  31.143   0.892
63086W        W36154  39.064  28.414  14.379
63087W        W36155  29.516  23.967   2.029
63088W        W36156  23.461   2.752   4.086
63089W        W36157  39.059  26.973  12.521
63090W        W36158  14.899   4.403  11.969
63091W        W36159  32.388  28.195   4.069
63092W        W36160   3.582  36.364  14.281
63093W        W36161  25.028   6.021   3.386
63094W        W36162  10.229  24.957  11.554
63095W        W36163   6.175  33.951  11.389
63096W        W36164   0.500  11.782  12.838
63097W        W36165  13.157  42.767   2.377
63098W        W36166   0.253  34.181  11.953
63099W        W36167  35.544  11.599  13.337
63100W        W36168   2.434   5.767  13.782
63101W        W36169  20.340  43.998  10.695
63102W        W36170  32.962  14.308   2.237
63103W        W36171  23.505  26.075  12.184
63104W        W36172  37.476   0.073  10.111
63105W        W36173  26.838  33.748  12.905
63106W        W36174  24.958   5.243  12.887
63107W        W36175  17.280  15.382  10.303
63108W        W36176  17.911   7.689  12.519
63109W        W36177  30.295  26.106   2.403
63110W        W36178  20.138  39.506   1.665
63111W        W36179  29.560  37.862  12.436
63112W        W36180  17.711  44.417   2.270
63113W        W36181  35.011   0.027  11.170
63114W        W36182  11.073  31.757  10.671
63115W        W36183  22.759  36.936   4.626
63116W        W36184  16.860  22.940   3.205
63117W        W36185  23.034  44.261   9.836
63118W        W36186  11.862  44.768  13.569
63119W        W36187  26.689  30.450  11.142
63120W        W36188  34.174   0.295  10.631
63121W        W36189   1.762  12.939   2.223
63122W        W36190  16.307  11.900  11.527
63123W        W36191   8.450  24.998   3.241
63124W        W36192  29.507  32.796  13.166
63125W        W36193  31.060  24.359  10.721
63126W        W36194  18.452   2.833  13.548
63127W        W36195  26.586  16.183   4.524
63128W        W36196  34.844   9.252  13.760
63129W        W36197  28.035  42.579  13.546
63130W        W36198  35.823  27.505  11.133
63131W        W36199  39.358  35.728  14.403
63132W        W36200  28.064   8.080  11.609
63133W        W36201  42.499   7.889   1.803
63134W        W36202  27.175  11.821  11.237
63135W        W36203  19.613   6.225  14.924
63136W        W36204  23.652  33.882   2.356
63137W        W36205  20.644  20.792   4.181
63138W        W36206  42.056   8.414   4.679
63139W        W36207  11.688  11.716  13.351
63140W        W36208   3.410  23.363  14.326
63141W        W36209  19.691  12.956  10.466
63142W        W36210  29.550   9.764  13.101
63143W        W36211  34.976   9.631   0.242
63144W        W36212  13.236  10.081   1.256
63145W        W36213  42.273  34.927   1.917
63146W        W36214  25.109  44.242   3.353
63147W        W36215   6.869  22.804  13.103
63148W        W36216  11.243  17.642   3.657
63149W        W36217  23.257  35.126   3.638
63150W        W36218   8.334   4.676  13.937
63151W        W36219  41.236  31.141   3.133
63152W        W36220  11.715  33.438   0.306
63153W        W36221  13.886   2.263  12.572
63154W        W36222  33.854  32.070  14.962
63155W        W36223  14.188   2.305   0.513
63156W        W36224  26.956  17.082   3.185
63157W        W36225  13.412  17.143  13.224
63158W        W36226  14.804  43.470   2.235
63159W        W36227  26.060  41.179  12.108
63160W        W36228  36.591  34.769  14.044
63161W        W36229  35.856   3.869  13.407
63162W        W36230   8.779  10.923  13.955
63163W        W36231  37.655   5.906   5.464
63164W        W36232   5.492   3.468   3.600
63165W        W36233  16.072  43.234   0.802
63166W        W36234  27.459   5.834   0.803
63167W        W36235  25.262  12.681   2.186
63168W        W36236   3.976  18.288   4.351
63169W        W36237   6.723  32.454  10.718
63170W        W36238   0.835  18.136   1.284
63171W        W36239   1.202   0.730  11.445
63172W        W36240   9.805  22.169  10.381
63173W        W36241  25.693  31.358  12.079
63174W        W36242   9.620  25.217   4.798
63175W        W36243  40.252   7.228   9.849
63176W        W36244   8.603  40.328   2.828
63177W        W36245  11.121  39.386  12.047
63178W        W36246  24.666  42.771   4.574
63179W        W36247  32.627  42.215  12.328
63180W        W36248  10.768  37.800  11.133
63181W        W36249  44.030  14.390  14.493
63182W        W36250  31.135  44.295  11.996
63183W        W36251  39.587  22.121   4.544
63184W        W36252  44.452  37.804   0.281
63185W        W36253  40.875  15.329   0.751
63186W        W36254   8.187   3.453   3.558
63187W        W36255  41.472   8.060   4.882
63188W        W36256  33.871  41.429  12.254
63189W        W36257   9.852  24.782  13.790
63190W        W36258  38.245   5.633   3.565
63191W        W36259  39.729  44.535   3.180
63192W        W36260   2.297  41.203  13.858
63193W        W36261  36.537   1.319  10.653
63194W        W36262   5.425   2.246   3.809
63195W        W36263  14.680  33.078   3.714
63196W        W36264  43.383  44.320  11.497
63197W        W36265  16.890  41.810   3.978
63198W        W36266  22.655   9.602  10.994
63199W        W36267  24.669  28.728  14.797
63200W        W36268   8.834  28.563   0.021
63201W        W36269   6.830  18.041   1.409
63202W        W36270  32.265  41.989   4.934
63203W        W36271  33.877  11.634   1.789
63204W        W36272  10.633   8.722  10.613
63205W        W36273  11.683  43.069  10.679
63206W        W36274   8.266  16.614  10.571
63207W        W36275   3.802  43.050   0.117
63208W        W36276   1.429  28.357   1.296
63209W        W36277  19.578  28.484  14.940
63210W        W36278  42.992  31.593  14.514
63211W        W36279  25.707  14.612  10.637
63212W        W36280  38.475  20.514  11.181
63213W        W36281   9.346  29.719  11.134
63214W        W36282   5.154   8.571  10.353
63215W        W36283  28.176   1.275  14.468
63216W        W36284  16.134   2.820   3.139
63217W        W36285  42.922  15.183  13.103
63218W        W36286  37.259  15.381  14.343
63219W        W36287   1.377   8.181  12.986
63220W        W36288  37.914   3.355   1.881
63221W        W36289  33.596  32.603  14.375
63222W        W36290  25.544  19.301   3.757
63223W        W36291   1.409  16.958   3.051
63224W        W36292  16.057  39.567  12.477
63225W        W36293  44.346  16.334   3.241
63226W        W36294  27.869  12.370   3.253
63227W        W36295   6.602  15.103   1.473
63228W        W36296   6.769  36.493  12.903
63229W        W36297  25.210  12.998   1.365
63230W        W36298  39.476   7.109  11.058
63231W        W36299   8.334  13.334  12.019
63232W        W36300  32.459   9.212   0.516
63233W        W36301  37.857  25.751   3.668
63234W        W36302  41.535   0.025   1.770
63235W        W36303  16.333  34.946  13.324
63236W        W36304  15.963  16.217  11.127
63237W        W36305  27.132  42.864  12.035
63238W        W36306   0.871  25.568   3.848
63239W        W36307  38.743   5.480   3.649
63240W        W36308  18.278  16.498   1.338
63241W        W36309  28.413  30.947  13.419
63242W        W36310  17.747   8.968   2.259
63243W        W36311  43.319  30.187  14.389
63244W        W36312  14.528   0.195   4.059
63245W        W36313  29.616  12.149  11.414
63246W        W36314  23.174  28.150  14.557
63247W        W36315  43.499  42.142  11.657
63248W        W36316  21.440  17.971  13.819
63249W        W36317  36.489   7.183  11.608
63250W        W36318  38.289   9.460   1.150
63251W        W36319   6.401  41.035   4.223
63252W        W36320  29.992   9.196   4.207
63253W        W36321  31.393   6.358  10.727
63254W        W36322  19.538   6.356   1.314
63255W        W36323   0.216  33.411  13.461
63256W        W36324  17.324  27.252  13.922
63257W        W36325  33.159  14.735   0.949
63258W        W36326  30.031   8.649   4.350
63259W        W36327   1.368  37.387   2.229
63260W        W36328   2.240  43.907  12.203
63261W        W36329  27.377  32.537  13.103
63262W        W36330  37.099  44.927   3.703
63263W        W36331  32.283  37.503   3.343
63264W        W36332  28.508  26.727  10.669
63265W        W36333  37.549  22.574   3.753
63266W        W36334  28.985  23.099   4.198
63267W        W36335  28.469  35.989   4.520
63268W        W36336  24.732  35.959   1.690
63269W        W36337  16.439  38.541  12.214
63270W        W36338  12.996   9.706  12.562
63271W        W36339   8.843   3.186   2.907
63272W        W36340   2.315  23.535   1.985
63273W        W36341   1.874  33.208   3.324
63274W        W36342  17.046  10.807   0.785
63275W        W36343   6.937   8.803   1.708
63276W        W36344   1.534  28.824   4.101
63277W        W36345  18.652  23.307   3.047
63278W        W36346  42.359  16.112  11.189
63279W        W36347  15.252  33.986   4.283
63280W        W36348  34.888  18.765  11.573
63281W        W36349  28.772  25.465  13.470
63282W        W36350  27.982  39.433  11.911
63283W        W36351  40.552  20.288  13.400
63284W        W36352  35.139  23.720  12.031
63285W        W36353   5.205  30.067  11.670
63286W        W36354  14.480  40.408   1.136
63287W        W36355  14.677  43.447  12.977
63288W        W36356   7.754  44.014  14.920
63289W        W36357  33.717  25.699   5.201
63290W        W36358  33.627  20.747   3.094
63291W        W36359  33.515   8.406  10.936
63292W        W36360  43.034  15.660   2.236
63293W        W36361   5.926  27.467  10.997
63294W        W36362   6.800  12.451  11.583
63295W        W36363  25.396  32.663   3.878
63296W        W36364  33.441  43.037  12.614
63297W        W36365   0.905  26.272   4.591
63298W        W36366  12.679  13.262  10.601
63299W        W36367  30.074  27.335   3.606
63300W        W36368  24.607   2.386  11.719
63301W        W36369  12.311   5.215   2.051
63302W        W36370  34.513   2.178   0.631
63303W        W36371   3.426  28.883  12.472
63304W        W36372   9.276  29.579   3.139
63305W        W36373  22.247  18.611   0.284
63306W        W36374   2.305  18.102  12.123
63307W        W36375  32.117  41.012  11.664
63308W        W36376  38.625   0.909  12.181
63309W        W36377  32.141  20.475   0.432
63310W        W36378  31.513   3.332  13.882
63311W        W36379   5.673  33.438   1.411
63312W        W36380  31.034  24.618   3.956
63313W        W36381   2.866   9.238  11.578
63314W        W36382   5.735   8.223  14.032
63315W        W36383   0.544   8.863   4.593
63316W        W36384  34.029  25.904   2.679
63317W        W36385  27.503  38.843   3.251
63318W        W36386   9.312   8.643  14.071
63319W        W36387   0.989  25.395   0.410
63320W        W36388  21.020   1.792   0.762
63321W        W36389  18.116  28.604   1.194
63322W        W36390   8.181  32.078  13.506
63323W        W36391  12.857  43.541  11.181
63324W        W36392   3.054  20.678   4.827
63325W        W36393   4.175   1.188  13.913
63326W        W36394  15.867  32.146   0.671
63327W        W36395  27.616  11.850  14.123
63328W        W36396  19.563  43.608  12.197
63329W        W36397  18.228  42.831   4.463
63330W        W36398  18.587  14.636  13.944
63331W        W36399  28.542   0.300  11.691
63332W        W36400  23.976  19.640   5.515
63333W        W36401  22.585  10.239   2.159
63334W        W36402  10.208  26.256  10.991
63335W        W36403  41.758  44.957  10.806
63336W        W36404   1.037  14.987  13.676
63337W        W36405   9.787  32.696   4.265
63338W        W36406  13.693  23.466   2.863
63339W        W36407  17.100  16.029   3.568
63340W        W36408  19.742  13.981  13.396
63341W        W36409   7.931  15.872  14.400
63342W        W36410  43.740  44.204  12.480
63343W        W36411  39.552   9.157   4.060
63344W        W36412  37.403  38.863  10.151
63345W        W36413  42.437  29.548  13.185
63346W        W36414  44.955   9.629   4.079
63347W        W36415  13.066  37.830  12.098
63348W        W36416  17.527  28.995  12.888
63349W        W36417  33.641   7.260  14.396
63350W        W36418  33.326  22.784   3.249
63351W        W36419  14.054   6.660   0.495
63352W        W36420  13.213  34.379   4.508
63353W        W36421  10.844  34.131   3.755
63354W        W36422  32.863   0.439   3.284
63355W        W36423  38.932   5.597   4.749
63356W        W36424  43.542   5.401  11.966
63357W        W36425  23.604  19.524   3.716
63358W        W36426  15.621   7.530  13.648
63359W        W36427  21.146   2.117  10.259
63360W        W36428  30.591  18.625   0.756
63361W        W36429  15.078  39.219  10.456
63362W        W36430  22.788  39.013  11.092
63363W        W36431  37.821   7.119   4.162
63364W        W36432  35.909  33.469  11.537
63365W        W36433  15.323  41.012  12.390
63366W        W36434   6.207  24.610  14.905
63367W        W36435  42.396  35.049   0.861
63368W        W36436  23.526  34.916   3.236
63369W        W36437  39.014  38.387  14.107
63370W        W36438  25.243   7.638   3.234
63371W        W36439  43.013  43.848   1.203
63372W        W36440  32.392  19.640   2.461
63373W        W36441   8.433  15.943  14.331
63374W        W36442  35.837  21.190   3.358
63375W        W36443  10.870  11.852  12.070
63376W        W36444  41.781  19.708  12.911
63377W        W36445  25.589  43.029   0.672
63378W        W36446  44.003  13.731  14.900
63379W        W36447  11.582  20.579   2.761
63380W        W36448  10.272  22.164  13.824
63381W        W36449   7.616  42.956  12.480
63382W        W36450  38.821  30.214   0.905
63383W        W36451  12.044   3.533   0.428
63384W        W36452  18.562  38.882   3.754
63385W        W36453  18.142   4.408  11.187
63386W        W36454  13.679   0.019   2.827
63387W        W36455  22.833  41.345   1.063
63388W        W36456   9.362  39.050   1.325
63389W        W36457  44.959  21.249   0.403
63390W        W36458  22.762  10.829  10.748
63391W        W36459  24.047  35.057  11.265
63392W        W36460  39.420  13.863   0.651
63393W        W36461  36.189  26.043   1.298
63394W        W36462  10.242   5.121  12.966
63395W        W36463  22.769  30.954   4.883
63396W        W36464  36.512  17.628   1.906
63397W        W36465  18.156   0.729  11.403
63398W        W36466   4.814  28.083  10.959
63399W        W36467  30.760  31.388  12.688
63400W        W36468  25.558  14.781   1.837
63401W        W36469  11.688   0.306   3.414
63402W        W36470  19.697  23.201   1.363
63403W        W36471  26.935   1.985  13.864
63404W        W36472  18.124  15.142  11.816
63405W        W36473  31.440  12.761  13.775
63406W        W36474   8.343  34.929  14.874
63407W        W36475  24.006  26.979   1.873
63408W        W36476  23.627  21.485  13.650
63409W        W36477   3.100  19.679  14.267
63410W        W36478  17.598  42.694   2.781
63411W        W36479  31.972  42.463   3.723
63412W        W36480  23.801  28.381   3.133
63413W        W36481  39.859   0.223   2.391
63414W        W36482  35.619   3.917  10.794
63415W        W36483  44.899   5.343   1.001
63416W        W36484   3.455  18.805   1.818
63417W        W36485  10.874  35.507  14.900
63418W        W36486  10.476  21.868   3.558
63419W        W36487  37.873   3.971   1.231
63420W        W36488  38.973  24.742   1.133
63421W        W36489  28.749  13.628   0.448
63422W        W36490   8.348  37.505   0.681
63423W        W36491  28.057  36.405   3.685
63424W        W36492  22.193  36.804   1.812
63425W        W36493  22.193   7.720   0.408
63426W        W36494  23.594  36.883   3.567
63427W        W36495   5.496  36.110  12.910
63428W        W36496  18.516  31.021  11.512
63429W        W36497  14.263  44.863  13.289
63430W        W36498   8.442  44.175   0.377
63431W        W36499  31.655  41.096  14.891
63432W        W36500  44.583  18.417   2.773
63433W        W36501  40.357  44.249   0.868
63434W        W36502  44.741  34.101   3.202
63435W        W36503  24.211   8.391   3.590
63436W        W36504  38.471  19.137   3.620
63437W        W36505  33.345  25.802  12.334
63438W        W36506  14.712  21.261  10.519
63439W        W36507  14.754  12.620   0.733
63440W        W36508  26.811  38.352   3.961
63441W        W36509  28.586  24.643  13.313
63442W        W36510  23.034  30.084   4.055
63443W        W36511  29.546   5.179   0.847
63444W        W36512   5.703   3.624  11.097
63445W        W36513  22.182  22.980   1.700
63446W        W36514  24.938   0.930   3.909
63447W        W36515  12.207   0.483   2.490
63448W        W36516  21.255  13.410  12.579
63449W        W36517   6.675  37.512   3.304
63450W        W36518  35.002  37.542   3.606
63451W        W36519   4.295   8.972  10.766
63452W        W36520  20.072  39.824   3.735
63453W        W36521  42.502  11.317   3.223
63454W        W36522  38.286  25.701   3.368
63455W        W36523  16.652  32.860   3.794
63456W        W36524  43.532  31.448  14.728
63457W        W36525   5.314  26.379   2.694
63458W        W36526  12.428  26.034   3.849
63459W        W36527  38.881   4.841   2.131
63460W        W36528  39.374   2.534   5.326
63461W        W36529  39.554  20.016  13.597
63462W        W36530  39.870  37.866  11.551
63463W        W36531  41.738   9.264   1.145
63464W        W36532  32.862  38.103   4.077
63465W        W36533  14.998   2.443  12.005
63466W        W36534  41.745  41.415  12.891
63467W        W36535  17.563  27.964  14.528
63468W        W36536  41.858  14.618   0.830
63469W        W36537  24.736  18.143  13.337
63470W        W36538  28.647   2.498   0.916
63471W        W36539  30.477  12.080  11.346
63472W        W36540  19.719  31.729   2.335
63473W        W36541   9.328  26.032  13.434
63474W        W36542  37.784  39.922   3.174
63475W        W36543  15.635   7.767  11.715
63476W        W36544  21.480  39.120  11.705
63477W        W36545  22.498  18.730  13.481
63478W        W36546  29.128  40.389  10.213
63479W        W36547  29.560   0.279   1.059
63480W        W36548  15.672  10.746   0.749
63481W        W36549  23.739  26.192  14.928
63482W        W36550  43.337  20.861  14.183
63483W        W36551  24.561  34.618   4.651
63484W        W36552  32.938  27.958  13.928
63485W        W36553  21.944  16.293   0.757
63486W        W36554  44.974  34.673  13.995
63487W        W36555  35.550  29.125   2.717
63488W        W36556  30.151  31.052   0.755
63489W        W36557  28.041  33.198   0.848
63490W        W36558  26.964  38.328  13.985
63491W        W36559  40.978  18.252  14.251
63492W        W36560  25.486  13.223  13.810
63493W        W36561  41.145  36.431  12.327
63494W        W36562   1.823  33.883  12.817
63495W        W36563   0.226  34.074   1.334
63496W        W36564  39.033  38.918   0.027
63497W        W36565   3.290  28.532   2.489
63498W        W36566  23.933  37.700  10.232
63499W        W36567   5.943  34.842  14.920
63500W        W36568  13.747  28.928   0.686
63501W        W36569   6.615  20.181   0.915
63502W        W36570   1.904   2.282   2.144
63503W        W36571  13.286  28.112   1.546
63504W        W36572  38.884  26.532  12.340
63505W        W36573  12.785   0.727   1.291
63506W        W36574  12.700  15.813  11.945
63507W        W36575  14.237  38.353  14.309
63508W        W36576  23.443  20.906  10.771
63509W        W36577  41.765  14.652  13.161
63510W        W36578  20.640   7.843   2.541
63511W        W36579  41.726  41.939   0.907
63512W        W36580  34.996  43.631  10.557
63513W        W36581   7.665  27.018   2.667
63514W        W36582  44.442  35.100  13.252
63515W        W36583  21.032  41.465   3.689
63516W        W36584  22.969  38.475   4.260
63517W        W36585  22.694  38.172  10.999
63518W        W36586  20.577  10.905   4.873
63519W        W36587  16.234  39.716   1.189
63520W        W36588  37.035   6.654  11.228
63521W        W36589  37.483  20.335  12.484
63522W        W36590  36.993   6.672   3.703
63523W        W36591  22.261  33.205   4.394
63524W        W36592  19.614  34.230   2.107
63525W        W36593  15.261  42.080  14.345
63526W        W36594   6.193  32.363  11.603
63527W        W36595   4.393  32.202   4.139
63528W        W36596   5.885  39.467  13.675
63529W        W36597  38.503  38.274   2.773
63530W        W36598   9.233   6.845   2.945
63531W        W36599  30.861  19.327   3.844
63532W        W36600  30.197   6.277   2.727
63533W        W36601  43.797   8.839  12.970
63534W        W36602   3.462  15.215   3.065
63535W        W36603  12.229  35.750  12.961
63536W        W36604  12.363   4.976  10.220
63537W        W36605  12.100  17.346   3.281
63538W        W36606  34.370  15.825  12.162
63539W        W36607  16.112  31.620   0.054
63540W        W36608  24.658  30.499   3.744
63541W        W36609  42.884  19.229   4.099
63542W        W36610  19.999  30.106  12.468
63543W        W36611  21.092  29.670  14.456
63544W        W36612  31.894  43.344   4.275
63545W        W36613  32.455  19.612   4.681
63546W        W36614   7.778  24.551  13.558
63547W        W36615  34.960  18.981   3.735
63548W        W36616   0.476  21.010   0.284
63549W        W36617  10.031  32.800   1.970
63550W        W36618  22.233  26.744   0.857
63551W        W36619  30.012  17.737  14.007
63552W        W36620  30.730  42.674   4.325
63553W        W36621  34.856  11.763  11.655
63554W        W36622  34.016   1.729   2.762
63555W        W36623  18.792  33.481  10.061
63556W        W36624  15.283  33.074   2.253
63557W        W36625  36.359  40.043  13.864
63558W        W36626  35.859   5.944   4.125
63559W        W36627  22.189  17.515  11.219
63560W        W36628  19.175  24.190  10.908
63561W        W36629   4.789  28.922   2.483
63562W        W36630  23.012  17.064   2.856
63563W        W36631  23.019  10.752   1.765
63564W        W36632   7.424  22.080   1.318
63565W        W36633  39.257   9.284  14.908
63566W        W36634  19.237  18.129  13.826
63567W        W36635   0.056  41.500   2.580
63568W        W36636   3.366  37.492  10.722
63569W        W36637  31.607  35.433  13.310
63570W        W36638  30.528  11.365   1.718
63571W        W36639  28.069   4.154  12.025
63572W        W36640  18.281  22.573   3.686
63573W        W36641   9.347  43.367  14.335
63574W        W36642  20.783  19.717   2.344
63575W        W36643  30.898   1.685  10.710
63576W        W36644  12.092  33.056  14.170
63577W        W36645  36.554  31.856  13.276
63578W        W36646  30.621  43.015  13.342
63579W        W36647  10.145  23.634  13.909
63580W        W36648   8.879  21.765   0.226
63581W        W36649  21.562  10.275  11.027
63582W        W36650  35.084  24.833   2.617
63583W        W36651  27.684   8.809  12.374
63584W        W36652   6.069  41.658   1.682
63585W        W36653  17.236  25.076   3.539
63586W        W36654   2.236   7.648  12.047
63587W        W36655  32.892   9.762   3.937
63588W        W36656  25.125  29.125   1.364
63589W        W36657  37.297  37.147  14.288
63590W        W36658   7.457  31.494  12.344
63591W        W36659  31.856  16.772   4.273
63592W        W36660   1.079  17.457   4.644
63593W        W36661  30.173  31.372   0.311
63594W        W36662  39.010  20.493  10.625
63595W        W36663   2.657   7.348   4.885
63596W        W36664  10.256   3.487   1.801
63597W        W36665  28.873  21.008  13.011
63598W        W36666   5.726  39.923  14.482
63599W        W36667   4.553  13.311  11.193
63600W        W36668  16.340  29.508   0.349
63601W        W36669  20.702  27.492   2.894
63602W        W36670  31.630  30.512  13.423
63603W        W36671  21.212  41.413  14.534
63604W        W36672  21.404  37.510   3.250
63605W        W36673   8.850  14.086  11.178
63606W        W36674   4.980  27.172   2.560
63607W        W36675  10.318  39.898   4.137
63608W        W36676   8.710   9.024  11.945
63609W        W36677  13.632  18.313  13.126
63610W        W36678   9.317  43.843   2.361
63611W        W36679   5.535  44.732   2.747
63612W        W36680  33.993   1.299  10.663
63613W        W36681  25.603  27.376  14.853
63614W        W36682   4.658   1.051   3.531
63615W        W36683   9.552  26.296   2.275
63616W        W36684  39.358  44.643   4.522
63617W        W36685  17.541  11.797  14.396
63618W        W36686  43.359  27.066   3.088
63619W        W36687   2.817  31.102  13.880
63620W        W36688  25.709   8.804  13.907
63621W        W36689  31.348   9.840  12.373
63622W        W36690  36.847  41.316  12.004
63623W        W36691  10.296  26.512  14.576
63624W        W36692   6.663  28.633   0.959
63625W        W36693  12.861  31.577  11.962
63626W        W36694  35.963  26.211  11.504
63627W        W36695   8.731  23.533  14.996
63628W        W36696  44.988  25.157  13.615
63629W        W36697  33.938  17.982   1.703
63630W        W36698  11.220   0.501   2.410
63631W        W36699  32.432   6.972   1.965
63632W        W36700  13.513  41.509  11.022
63633W        W36701   1.788  15.239  13.946
63634W        W36702   7.662   2.337  11.222
63635W        W36703   2.315  31.692   0.801
63636W        W36704  35.077  41.553   3.115
63637W        W36705   5.998  25.124   2.071
63638W        W36706  11.751   6.848   3.403
63639W        W36707   2.231   4.361  13.823
63640W        W36708  25.095  21.080   3.346
63641W        W36709  31.527  39.921  12.383
63642W        W36710  33.540  43.019   2.725
63643W        W36711   7.361  16.987  10.906
63644W        W36712  35.263   4.769  11.564
63645W        W36713  12.009   7.192   2.096
63646W        W36714  13.262  12.179  14.880
63647W        W36715  43.539  16.733  11.802
63648W        W36716  29.687  25.149  12.167
63649W        W36717  43.034  22.083   4.423
63650W        W36718  20.459   1.345  10.910
63651W        W36719   5.757  30.267   2.294
63652W        W36720  38.912  10.218  10.214
63653W        W36721  22.471  31.470  14.800
63654W        W36722   1.386  19.253  12.501
63655W        W36723   9.728  12.853   4.336
63656W        W36724  14.441  24.508   0.428
63657W        W36725  36.073   7.181  14.156
63658W        W36726  36.613  43.054  12.051
63659W        W36727  29.035  10.069  11.695
63660W        W36728   2.688  23.123   0.530
63661W        W36729  11.726  21.710  12.725
63662W        W36730  25.506  35.608   3.706
63663W        W36731  27.110   6.459  10.663
63664W        W36732   9.438   6.988  11.046
63665W        W36733  23.684  34.428   3.246
63666W        W36734  24.767  31.238   1.706
63667W        W36735  18.038   0.963  12.299
63668W        W36736   5.409  11.130   0.683
63669W        W36737  13.540  44.303   3.219
63670W        W36738  39.467  33.558   0.363
63671W        W36739  40.952   9.666  11.186
63672W        W36740  25.163  11.770  11.003
63673W        W36741  39.332  44.988   2.381
63674W        W36742   0.819  11.702   3.207
63675W        W36743  30.141  18.000   4.673
63676W        W36744  44.168  17.754  10.429
63677W        W36745  43.983  40.808  14.243
63678W        W36746  41.046  42.042   1.457
63679W        W36747  26.287   0.374  13.386
63680W        W36748   8.266  43.868   2.385
63681W        W36749  15.353   0.527  12.972
63682W        W36750  10.284  44.684  12.642
63683W        W36751   2.133  28.208  11.993
63684W        W36752  38.393  25.766   0.776
63685W        W36753  44.260   4.737   4.661
63686W        W36754  43.945  34.413   4.244
63687W        W36755   4.333  42.937   2.885
63688W        W36756  11.897  16.641  11.076
63689W        W36757  18.313   9.118  13.469
63690W        W36758  26.550  20.292   0.412
63691W        W36759  42.179  22.652   1.803
63692W        W36760  32.662   0.779  14.975
63693W        W36761   4.525   8.836  12.548
63694W        W36762  16.591  36.500   2.707
63695W        W36763   8.272  17.185  12.289
63696W        W36764  25.409  39.429   0.240
63697W        W36765  38.070   7.366   2.220
63698W        W36766  25.582  34.886   3.149
63699W        W36767   9.684  17.760  12.530
63700W        W36768  44.802  22.566  12.500
63701W        W36769  22.174  27.143  13.735
63702W        W36770  11.029  35.892  11.855
63703W        W36771  44.061  19.068   1.769
63704W        W36772  18.807  17.349  12.480
63705W        W36773  14.693   2.270  11.622
63706W        W36774  39.817  30.875   4.499
63707W        W36775  13.124  33.486  10.697
63708W        W36776  23.765  11.414  10.462
63709W        W36777   5.512  22.069   0.382
63710W        W36778  33.455  13.567  10.640
63711W        W36779  36.883  33.665   0.421
63712W        W36780  20.546  34.276  11.056
63713W        W36781  41.526  21.659  10.671
63714W        W36782  45.000  30.100   0.945
63715W        W36783   7.838  36.455  10.566
63716W        W36784  43.633  30.721   0.984
63717W        W36785   2.742  27.055  12.543
63718W        W36786  21.034  28.065   2.236
63719W        W36787   0.281  13.713   4.274
63720W        W36788  31.573  24.068  10.325
63721W        W36789  20.712  19.600  12.969
63722W        W36790  18.865  30.104   1.720
63723W        W36791  38.301   4.441  10.941
63724W        W36792  14.294  12.104   0.249
63725W        W36793  38.201  12.339   4.123
63726W        W36794   0.883  18.109   2.255
63727W        W36795  22.752  30.955   3.391
63728W        W36796   7.651  24.449  12.595
63729W        W36797  25.635   3.863   3.703
63730W        W36798  10.187   5.960  14.988
63731W        W36799  40.822  36.534   2.139
63732W        W36800  25.676  43.189  10.271
63733W        W36801  33.858  21.634   2.617
63734W        W36802  37.619  37.562  14.235
63735W        W36803   8.084  33.943  14.888
63736W        W36804  13.059  40.877  14.416
63737W        W36805  24.510   5.338  12.008
63738W        W36806   4.223  14.586  11.513
63739W        W36807  39.503  21.617   0.790
63740W        W36808  20.324   9.684  12.605
63741W        W36809  32.074  30.189   2.205
63742W        W36810  41.369  24.519  14.394
63743W        W36811  38.711  30.912  11.846
63744W        W36812  44.733  17.793   0.378
63745W        W36813   1.510  15.124   4.860
63746W        W36814  33.659  37.983   2.677
63747W        W36815  16.202  43.438  11.915
63748W        W36816  11.791  15.022   1.375
63749W        W36817  18.954  28.223   1.663
63750W        W36818  28.647  40.825   0.733
63751W        W36819  39.834  28.633  14.816
63752W        W36820  25.699  36.089  14.158
63753W        W36821  36.660   5.518  14.476
63754W        W36822  13.197  22.668  10.671
63755W        W36823  22.600   7.474   5.020
63756W        W36824  35.479  36.807   0.393
63757W        W36825  17.197  43.852   0.273
63758W        W36826  21.126  36.935  11.649
63759W        W36827  30.448  24.065   2.039
63760W        W36828  29.893  35.526  14.869
63761W        W36829  34.976  29.010  11.979
63762W        W36830  27.126   9.218   0.669
63763W        W36831  42.995  11.355   9.931
63764W        W36832   0.285  30.080  14.509
63765W        W36833   8.937  22.439  12.829
63766W        W36834  13.872   4.725   0.291
63767W        W36835  29.948  24.534  12.025
63768W        W36836  13.028  12.671   2.016
63769W        W36837   5.397  40.859  12.233
63770W        W36838  12.188  20.226  13.052
63771W        W36839  33.083  19.437   4.039
63772W        W36840  37.036  14.246   2.892
63773W        W36841  28.024   6.340   2.151
63774W        W36842  15.830  42.905  12.081
63775W        W36843  44.785  39.866   1.826
63776W        W36844   6.636  33.308  11.608
63777W        W36845  15.155  22.637  14.902
63778W        W36846  16.903  32.434  11.070
63779W        W36847   6.685   2.615   1.886
63780W        W36848  42.364  39.283   0.425
63781W        W36849  41.477  31.989   2.284
63782W        W36850  11.729  40.688  10.543
63783W        W36851  39.302  27.138   3.285
63784W        W36852  42.108  41.314   2.221
63785W        W36853   2.045  30.948   3.639
63786W        W36854  38.011  20.098   4.834
63787W        W36855   8.784  10.777  10.649
63788W        W36856  43.786  27.624   0.304
63789W        W36857  16.092  12.153   4.551
63790W        W36858   9.311  13.672  11.976
63791W        W36859   9.282   0.022  13.435
63792W        W36860  36.297   1.274   4.151
63793W        W36861  22.196  13.269   2.656
63794W        W36862  43.738  38.935  11.996
63795W        W36863   7.343  19.970   1.814
63796W        W36864  26.398  12.294   0.320
63797W        W36865  32.862   1.266  14.910
63798W        W36866  37.808   9.368   0.865
63799W        W36867   4.844  14.089   0.043
63800W        W36868  43.465  16.683   3.344
63801W        W36869  15.972  15.924   1.650
63802W        W36870   9.399  24.108   4.244
63803W        W36871  39.426  22.648  12.409
63804W        W36872  12.140  32.608  13.039
63805W        W36873  33.512  27.099  13.582
63806W        W36874  14.675  24.219   4.206
63807W        W36875  10.383  31.968   0.942
63808W        W36876   5.411  32.609   0.766
63809W        W36877  23.793  18.699  14.778
63810W        W36878   9.554  36.381   2.506
63811W        W36879  18.142   3.346   4.078
63812W        W36880   1.063   5.357   3.529
63813W        W36881   9.423  22.544  14.194
63814W        W36882  40.113  23.254  10.984
63815W        W36883  15.434   4.624   1.821
63816W        W36884  44.862  33.998   4.160
63817W        W36885   4.726   5.556   9.935
63818W        W36886  32.396  35.803  10.099
63819W        W36887  20.006  16.231   3.183
63820W        W36888  35.994  19.982   4.356
63821W        W36889  17.237  40.254   0.397
63822W        W36890  37.384   6.703  11.607
63823W        W36891  19.189  22.201   1.010
63824W        W36892  44.945  20.739  11.015
63825W        W36893  20.136  38.435   4.863
63826W        W36894  27.247  28.424   4.492
63827W        W36895  19.326   2.947   1.263
63828W        W36896  21.131  12.893   1.520
63829W        W36897  27.101  30.401  12.890
63830W        W36898  39.381  32.076   4.708
63831W        W36899   6.536  32.047  14.301
63832W        W36900  11.597  44.534  12.816
63833W        W36901  15.462  38.515   0.834
63834W        W36902  16.716  20.455   0.280
63835W        W36903  37.105   9.512   2.262
63836W        W36904  44.190   9.228   2.399
63837W        W36905   2.371  11.152   4.658
63838W        W36906   2.796  15.277   3.493
63839W        W36907  41.980  27.016   1.128
63840W        W36908  34.405  27.121   1.038
63841W        W36909  11.730  40.470  13.321
63842W        W36910  23.191  43.360  13.001
63843W        W36911  14.814  19.112   1.844
63844W        W36912  23.622   3.352   2.575
63845W        W36913  23.073  17.777   1.526
63846W        W36914  21.134   7.861   4.854
63847W        W36915  24.144  21.202   1.668
63848W        W36916  11.948  20.090   2.702
63849W        W36917  11.682  42.034   3.766
63850W        W36918  43.233  19.140   0.977
63851W        W36919  17.501  40.034  10.964
63852W        W36920  36.133  31.716  12.998
63853W        W36921  29.516  43.428   3.248
63854W        W36922  32.106  19.251   1.136
63855W        W36923   0.920   2.414  14.418
63856W        W36924  39.960   8.759  11.021
63857W        W36925  14.746  39.586  13.300
63858W        W36926  24.016  16.755  10.522
63859W        W36927  21.950  13.577  14.292
63860W        W36928   9.800  14.731   0.286
63861W        W36929  23.453  14.610   0.869
63862W        W36930  19.035  29.390  14.910
63863W        W36931  39.057  28.659  12.175
63864W        W36932  33.474   4.177  14.337
63865W        W36933  32.991  18.312   1.408
63866W        W36934   8.983  40.240   1.998
63867W        W36935  20.599  11.839   5.095
63868W        W36936   4.016  24.670  12.913
63869W        W36937  32.618  28.154   1.678
63870W        W36938  26.626  41.975  13.803
63871W        W36939  35.543  15.328   0.079
63872W        W36940   4.671  21.833   0.855
63873W        W36941  19.519   2.763  10.900
63874W        W36942  31.923   7.581   0.786
63875W        W36943   8.941  43.990   0.389
63876W        W36944  29.045  25.247  13.846
63877W        W36945  36.369  22.284   1.310
63878W        W36946  33.897  31.405  12.600
63879W        W36947  14.526   3.390  13.970
63880W        W36948  44.057  32.033   3.620
63881W        W36949  14.728  14.545   1.706
63882W        W36950   9.154  41.902  12.747
63883W        W36951  39.596  14.242  14.911
63884W        W36952  34.974   2.762  13.297
63885W        W36953  28.524   5.420  14.283
63886W        W36954  38.917  17.114   0.148
63887W        W36955  41.270  17.253   4.657
63888W        W36956  18.317  10.912   0.254
63889W        W36957  29.947  18.263  13.860
63890W        W36958   1.716   4.234   0.104
63891W        W36959  29.050  33.641  13.171
63892W        W36960  32.655   4.051  14.263
63893W        W36961  19.759  29.628  11.748
63894W        W36962   7.264   2.393   4.178
63895W        W36963  10.327  28.149  12.307
63896W        W36964  21.179  16.936   1.064
63897W        W36965  24.384  30.560  14.301
63898W        W36966  40.871  11.393  10.716
63899W        W36967  31.126  31.983   1.690
63900W        W36968   5.748  40.856  10.731
63901W        W36969  20.463   1.449   4.614
63902W        W36970  11.369  42.432  14.297
63903W        W36971  12.591  10.480   1.061
63904W        W36972   6.648  40.757   2.644
63905W        W36973  25.291   8.171  11.486
63906W        W36974  36.472   4.639   3.124
63907W        W36975  37.968  14.830   2.350
63908W        W36976   4.378   9.336   0.496
63909W        W36977  10.243  39.395   4.909
63910W        W36978   4.241  25.961   4.645
63911W        W36979   0.057  16.108  10.800
63912W        W36980   4.333  21.721  11.110
63913W        W36981  34.363  40.398   0.884
63914W        W36982  25.931  14.688   2.633
63915W        W36983   6.159  38.096  10.195
63916W        W36984  13.296  23.520   0.563
63917W        W36985  19.650  27.990   5.013
63918W        W36986  15.604  39.837   1.760
63919W        W36987   2.182  22.682  10.208
63920W        W36988  22.259  35.009  12.016
63921W        W36989  35.638   7.345   3.348
63922W        W36990  22.996   2.268  10.656
63923W        W36991  22.620  28.117  13.971
63924W        W36992   4.523  21.158   2.245
63925W        W36993   2.403  28.379   0.802
63926W        W36994  25.443   2.878  14.903
63927W        W36995  36.900  29.389   1.484
63928W        W36996  44.026  33.389   4.134
63929W        W36997  31.466  22.201  11.206
63930W        W36998  19.527  31.675  10.465
63931W        W36999  41.404   9.612  11.551
63932W        W37000  22.833  25.722   2.645
63933W        W37001  19.780  16.615   4.100
63934W        W37002  37.934  23.766  12.993
63935W        W37003  17.656  25.253   4.270
63936W        W37004  17.370  35.471  13.236
63937W        W37005  23.956  25.037  13.846
63938W        W37006  37.268  25.114   0.393
63939W        W37007  18.062  42.442  13.870
63940W        W37008  10.789   3.282   4.260
63941W        W37009   0.190  12.367  11.565
63942W        W37010  24.600  13.507  10.706
63943W        W37011   4.523  33.047   2.818
63944W        W37012   2.016  30.046   3.534
63945W        W37013  42.184  24.240  14.610
63946W        W37014  23.713  40.868  13.696
63947W        W37015  36.303   7.221   0.781
63948W        W37016  35.995   7.416  13.161
63949W        W37017  27.939   3.698   4.484
63950W        W37018  21.012  31.693  14.705
63951W        W37019  13.623  11.737   4.098
63952W        W37020  22.545   2.947   0.642
63953W        W37021  23.772  10.131  13.569
63954W        W37022  34.335  41.245  12.547
63955W        W37023  35.415  22.988  14.582
63956W        W37024  33.021  38.053   4.585
63957W        W37025  44.559   5.167   4.571
63958W        W37026  16.300  26.207   2.242
63959W        W37027   7.179   1.240   1.320
63960W        W37028   8.445   1.740  11.039
63961W        W37029  20.835   7.506   4.607
63962W        W37030   4.539  24.705  14.132
63963W        W37031  32.208  12.268   4.748
63964W        W37032  33.019  12.997   4.378
63965W        W37033  33.512   3.785   4.291
63966W        W37034  11.348  17.732  13.961
63967W        W37035   8.617  29.565   2.947
63968W        W37036   1.213   0.942  10.563
63969W        W37037  30.509   7.832   1.296
63970W        W37038  26.878  37.411   4.290
63971W        W37039  37.531  20.017  12.912
63972W        W37040  15.817   2.907  11.868
63973W        W37041  15.730   7.647  14.513
63974W        W37042  12.283  44.315   4.141
63975W        W37043  13.710   8.330   1.341
63976W        W37044   0.255  14.619  14.786
63977W        W37045  11.549  29.540   0.745
63978W        W37046  22.185  43.248   1.555
63979W        W37047  21.740  25.998   2.811
63980W        W37048  21.214   9.390   3.151
63981W        W37049  38.630  25.712  13.902
63982W        W37050  15.657  21.496  14.319
63983W        W37051  35.054  30.513   1.762
63984W        W37052  41.424  23.464   2.209
63985W        W37053  33.300  25.775  11.743
63986W        W37054  14.139  18.805  14.870
63987W        W37055   0.013  25.166   4.535
63988W        W37056   4.923   5.440  13.756
63989W        W37057  15.744   1.001  12.434
63990W        W37058  13.358   3.441   4.171
63991W        W37059  13.366   3.477  10.776
63992W        W37060  20.847  33.290  11.195
63993W        W37061   6.872  14.363  11.436
63994W        W37062  21.797  21.078   4.862
63995W        W37063  32.071  40.775  14.954
63996W        W37064  37.402  38.853   3.497
63997W        W37065  44.968   4.160   3.151
63998W        W37066  31.224   4.976  10.546
63999W        W37067   9.809  14.305   1.979
64000W        W37068  16.240   8.178   2.301
64001W        W37069  40.493   7.387  11.934
64002W        W37070  25.510  19.149  11.584
64003W        W37071  36.151   2.668   1.780
64004W        W37072   2.510  27.542   3.205
64005W        W37073   5.757  11.237   0.282
64006W        W37074   0.944  37.397   4.967
64007W        W37075  17.114   0.926   0.386
64008W        W37076  24.402   3.947   2.626
64009W        W37077   4.378   9.452   4.527
64010W        W37078  17.020  39.951   2.250
64011W        W37079   9.845  40.017  11.371
64012W        W37080  34.535  42.915   0.804
64013W        W37081   5.715  44.226  12.116
64014W        W37082  29.505  10.928   3.282
64015W        W37083  15.530  26.053  14.385
64016W        W37084  40.507  27.558  13.353
64017W        W37085   7.332   6.361  10.618
64018W        W37086  12.047   2.402  11.635
64019W        W37087  43.290  36.169  12.021
64020W        W37088  23.683  26.898  10.720
64021W        W37089  23.061   4.318   4.843
64022W        W37090   0.032  39.050  10.768
64023W        W37091  40.445  21.257   3.170
64024W        W37092  28.581   5.640   2.375
64025W        W37093  40.311   3.841  14.047
64026W        W37094   8.391  43.399  14.766
64027W        W37095  37.657  19.362   2.687
64028W        W37096  22.258  15.142   4.467
64029W        W37097  23.825  25.297  13.052
64030W        W37098  20.945   8.132  12.531
64031W        W37099  30.655  27.203  14.640
64032W        W37100  35.835  24.974  13.806
64033W        W37101  19.795   8.537  14.583
64034W        W37102   1.035  20.558  13.437
64035W        W37103  36.274  25.778   0.850
64036W        W37104  23.198  16.673   4.147
64037W        W37105  26.686  43.043   2.795
64038W        W37106  13.379  16.299  14.817
64039W        W37107  29.135   5.274   4.072
64040W        W37108   5.370   6.042  10.817
64041W        W37109  34.855  33.522   4.973
64042W        W37110  39.419  11.942  14.891
64043W        W37111   4.273   6.788   4.414
64044W        W37112  39.894  32.372  12.048
64045W        W37113   6.251  33.641   3.180
64046W        W37114  25.093  13.203   1.865
64047W        W37115   6.417  31.599  13.538
64048W        W37116  12.952  25.193  13.602
64049W        W37117  15.829  16.174   2.348
64050W        W37118  30.685  10.185   2.312
64051W        W37119  17.890  35.556   0.798
64052W        W37120   8.021  40.999  13.857
64053W        W37121   9.928   4.439  10.921
64054W        W37122  18.912  30.389   2.848
64055W        W37123  13.353  39.477   0.474
64056W        W37124  29.188  42.525   4.809
64057W        W37125   9.807  34.828   2.395
64058W        W37126   3.363  20.302   1.800
64059W        W37127  35.823  32.059   4.553
64060W        W37128  31.965  25.132   4.729
64061W        W37129  19.789  22.803  13.359
64062W        W37130  30.166  41.555   1.814
64063W        W37131  29.950  15.564   4.031
64064W        W37132  14.755   6.662  11.426
64065W        W37133  21.496  26.752  10.927
64066W        W37134  38.287  40.544   0.196
64067W        W37135   9.412  42.938   0.241
64068W        W37136  16.273  19.944   0.927
64069W        W37137  13.628  23.724  10.917
64070W        W37138  16.594  14.134  11.588
64071W        W37139  25.100  16.334   1.265
64072W        W37140  41.527  25.481   2.812
64073W        W37141   3.377  40.924   4.245
64074W        W37142  25.746  40.020  10.678
64075W        W37143  36.647  33.690   3.773
64076W        W37144  44.269  37.492  12.541
64077W        W37145   5.755  30.461  12.014
64078W        W37146  35.889  39.998  11.625
64079W        W37147   4.856  10.312   2.843
64080W        W37148  29.662  15.138  13.564
64081W        W37149  28.210  23.924   4.231
64082W        W37150  32.778  27.124  11.961
64083W        W37151  38.270   4.008  11.198
64084W        W37152  19.247  31.979  11.199
64085W        W37153  29.409  35.598   2.287
64086W        W37154  44.385  37.924   3.140
64087W        W37155  38.394  27.098  11.131
64088W        W37156  23.189  37.897   3.302
64089W        W37157  25.584   8.619  13.418
64090W        W37158   0.679  16.462   4.113
64091W        W37159  19.114  42.267   2.829
64092W        W37160  11.401  35.482  14.811
64093W        W37161  14.421  27.047  14.328
64094W        W37162  43.794   8.865  13.945
64095W        W37163   3.843  22.650  10.213
64096W        W37164  11.482  42.684  11.603
64097W        W37165  40.447  35.363  12.910
64098W        W37166  37.124  41.839  12.850
64099W        W37167  10.419   4.814  14.138
64100W        W37168  16.819  12.816   1.107
64101W        W37169  38.474   2.189  10.758
64102W        W37170  21.766   4.431  11.486
64103W        W37171  18.591  40.657   4.159
64104W        W37172  30.334  44.849   2.845
64105W        W37173  15.794   5.305  14.529
64106W        W37174   1.761  26.848   4.087
64107W        W37175  19.539  23.233  10.725
64108W        W37176  28.041  36.951   4.476
64109W        W37177  23.121  28.798   2.729
64110W        W37178  40.275  30.993   4.290
64111W        W37179  12.194   5.736  13.476
64112W        W37180  35.266   2.012  13.746
64113W        W37181  11.398  39.919  13.943
64114W        W37182   6.677   0.408   4.622
64115W        W37183  35.380  24.401   1.342
64116W        W37184   2.475  40.566   2.140
64117W        W37185  17.103  40.265   3.217
64118W        W37186  43.800   8.205   1.884
64119W        W37187  29.837  38.579   4.664
64120W        W37188  11.373  10.831   3.931
64121W        W37189   5.436  12.512  11.351
64122W        W37190  43.835  41.160  14.977
64123W        W37191   3.873  13.152   0.458
64124W        W37192   1.272  18.767   1.777
64125W        W37193   5.903  19.110   3.231
64126W        W37194  11.696  17.029   0.170
64127W        W37195  25.185  31.879  11.672
64128W        W37196  44.947  14.273  11.640
64129W        W37197   4.971  26.406   1.818
64130W        W37198  10.582  30.559   1.777
64131W        W37199  34.160   5.284  12.561
64132W        W37200  20.774  36.682  14.382
64133W        W37201  44.427  37.053  12.805
64134W        W37202  11.871  11.152  11.100
64135W        W37203   9.995   6.317  11.545
64136W        W37204  18.328  24.709   3.224
64137W        W37205  25.892   0.874   3.809
64138W        W37206   4.294  11.409   0.353
64139W        W37207  13.613   1.809  12.523
64140W        W37208   5.725  27.702   4.889
64141W        W37209   1.979   3.816   2.798
64142W        W37210  29.175  15.216   1.871
64143W        W37211  16.128  30.157   3.619
64144W        W37212  22.050  23.554  10.608
64145W        W37213   5.782   6.295   1.062
64146W        W37214  36.567   1.847   3.140
64147W        W37215  27.475  39.588  12.983
64148W        W37216  41.468   8.735   1.657
64149W        W37217  15.633  21.664   3.101
64150W        W37218  24.140  39.692   0.178
64151W        W37219  26.693  34.221  11.409
64152W        W37220  20.004   9.330  14.873
64153W        W37221  29.034  14.590  14.014
64154W        W37222   9.298   2.167   1.107
64155W        W37223  24.202  29.173   2.347
64156W        W37224   2.626  19.704  14.008
64157W        W37225  12.417  28.593  12.906
64158W        W37226  41.303   2.080  10.507
64159W        W37227   0.070  19.180  13.016
64160W        W37228  25.132  23.072   1.640
64161W        W37229  24.097  40.992  13.340
64162W        W37230  11.461  16.658   9.924
64163W        W37231   9.659   1.840   2.953
64164W        W37232   2.880  11.152  11.840
64165W        W37233   9.886  26.107   3.269
64166W        W37234   5.817  18.220   2.427
64167W        W37235   7.703  29.887  10.690
64168W        W37236  11.541  34.951  13.018
64169W        W37237  39.540   8.704   2.741
64170W        W37238  11.253  10.106  14.882
64171W        W37239  29.412  40.981   3.711
64172W        W37240  21.635  30.960  12.974
64173W        W37241   7.435  28.003   2.689
64174W        W37242  12.157  24.786  13.054
64175W        W37243  25.617  27.370  12.113
64176W        W37244   0.498  26.072   1.792
64177W        W37245  37.087   3.857   0.004
64178W        W37246  40.340  26.662  11.442
64179W        W37247  34.877   1.999   1.313
64180W        W37248  35.802   8.281  13.146
64181W        W37249   8.856  16.036  11.634
64182W        W37250  34.389  32.621   5.230
64183W        W37251  21.805   8.779   2.595
64184W        W37252  14.161  41.360   4.897
64185W        W37253  35.409  15.827   2.339
64186W        W37254  20.707  44.489   0.912
64187W        W37255  15.678  37.405   0.805
64188W        W37256   0.779  18.367   9.909
64189W        W37257  41.977   9.393   2.324
64190W        W37258  34.889  40.395   0.884
64191W        W37259   4.800   2.736  14.587
64192W        W37260  18.515  14.993  10.869
64193W        W37261  24.974  13.507  11.067
64194W        W37262   9.183  24.753   3.867
64195W        W37263  11.259   4.883   0.209
64196W        W37264   7.270  43.930   4.617
64197W        W37265  39.389   9.243  14.005
64198W        W37266  44.354  28.061  13.954
64199W        W37267  30.125  27.600  13.817
64200W        W37268  36.947  35.620   2.134
64201W        W37269  20.560   9.018   1.409
64202W        W37270  20.192  44.249  10.248
64203W        W37271  33.945  28.394  13.192
64204W        W37272  23.505  20.593   1.972
64205W        W37273  41.023  18.636   4.804
64206W        W37274  15.819  44.461  12.692
64207W        W37275  25.633  23.552   3.292
64208W        W37276  39.949   0.853   3.289
64209W        W37277  35.555  20.302  11.026
64210W        W37278   8.366   4.097  12.705
64211W        W37279   2.950   6.144  13.365
64212W        W37280  19.319  37.488  10.696
64213W        W37281  20.759  29.487   4.264
64214W        W37282  19.765  29.537   4.037
64215W        W37283  25.040  29.033  11.094
64216W        W37284   6.379  26.746  11.082
64217W        W37285   6.250  13.314   0.673
64218W        W37286  28.688  41.014   2.173
64219W        W37287  23.090   9.826   4.045
64220W        W37288  23.841  16.161   4.365
64221W        W37289  18.771  21.649   4.634
64222W        W37290  41.241   8.286   0.071
64223W        W37291  40.830  18.025  13.802
64224W        W37292  15.246  25.577   3.085
64225W        W37293  19.159  26.561   4.057
64226W        W37294   5.378  13.391  14.476
64227W        W37295  43.443  25.627   4.668
64228W        W37296   0.213  14.726   2.772
64229W        W37297   0.539  18.199   2.634
64230W        W37298  12.310  23.091   2.186
64231W        W37299  36.729  28.791   0.161
64232W        W37300   2.615  24.937   1.874
64233W        W37301  27.222  39.083  12.909
64234W        W37302   1.420  39.699  13.136
64235W        W37303  17.744  38.922   4.306
64236W        W37304  33.549  35.209   2.304
64237W        W37305  27.469  10.358   2.814
64238W        W37306   8.876   1.368  12.834
64239W        W37307  40.470   9.135  10.421
64240W        W37308  26.411  25.440   3.970
64241W        W37309  16.696  27.467  10.366
64242W        W37310  38.099  17.261   1.525
64243W        W37311  13.494   8.785  11.258
64244W        W37312  41.450  20.192   1.273
64245W        W37313   4.973  12.350  12.514
64246W        W37314  38.882  23.992  11.580
64247W        W37315  13.520  13.924  10.703
64248W        W37316  19.617  38.362  11.086
64249W        W37317  39.537   7.250  12.071
64250W        W37318  28.738   6.784  13.062
64251W        W37319  28.476  35.378  14.960
64252W        W37320  38.482  20.498  12.143
64253W        W37321  42.433  42.770  14.989
64254W        W37322  28.849  25.955  13.392
64255W        W37323  43.295  41.790  10.825
64256W        W37324  20.378   0.741   3.153
64257W        W37325   0.221  23.551  11.684
64258W        W37326  42.020  15.047   2.738
64259W        W37327   6.869  44.065  11.067
64260W        W37328  37.176   3.791  10.451
64261W        W37329  24.394  10.245   2.795
64262W        W37330  25.523   3.285   2.419
64263W        W37331  11.399  30.156  10.882
64264W        W37332   2.232   9.320   1.160
64265W        W37333  12.798  24.480  11.476
64266W        W37334  40.295  34.526   3.280
64267W        W37335  13.184  33.756  10.245
64268W        W37336  14.920   7.123  12.982
64269W        W37337  34.872   9.138   2.773
64270W        W37338  15.276   9.396  11.565
64271W        W37339  16.216  25.490   2.755
64272W        W37340  32.440   4.245  10.667
64273W        W37341  23.070  16.651   3.201
64274W        W37342  35.160  36.932   4.286
64275W        W37343  36.032  18.079   4.567
64276W        W37344  40.136  23.901  13.205
64277W        W37345  35.881   2.877   4.128
64278W        W37346   2.373  20.181  12.033
64279W        W37347  33.205  23.659   3.448
64280W        W37348  25.942  20.237  11.391
64281W        W37349   7.339  11.676   4.211
64282W        W37350  26.639  15.940   4.073
64283W        W37351  20.921  40.536  14.935
64284W        W37352  31.051  24.385  14.278
64285W        W37353  23.730  21.267  12.740
64286W        W37354   9.969  18.484   3.549
64287W        W37355  17.554  25.595  13.779
64288W        W37356  41.615   6.721  12.157
64289W        W37357  39.281   9.804   1.437
64290W        W37358  42.874   6.760  13.486
64291W        W37359  40.708  16.037  11.382
64292W        W37360  19.675  17.338   4.584
64293W        W37361   3.138  39.953  14.330
64294W        W37362  41.523  32.145  14.824
64295W        W37363  21.205  30.587   2.613
64296W        W37364  13.780  16.347   2.742
64297W        W37365  15.093  36.857  11.196
64298W        W37366   6.436  16.109   1.424
64299W        W37367  37.955  39.002   3.604
64300W        W37368  41.566  42.344  11.136
64301W        W37369  14.262  22.491  10.698
64302W        W37370   4.201   3.887  12.919
64303W        W37371  31.972  27.363   4.747
64304W        W37372   5.886   7.183   0.211
64305W        W37373  18.080   3.188  10.756
64306W        W37374  34.495  16.498  10.660
64307W        W37375  14.830  40.372  11.648
64308W        W37376   3.910  22.505   3.945
64309W        W37377   8.596   2.121   4.044
64310W        W37378   9.830  11.679  10.585
64311W        W37379   4.514   0.968   0.319
64312W        W37380  18.396  37.533   1.232
64313W        W37381   8.207  42.415   4.188
64314W        W37382  15.138  39.069  11.681
64315W        W37383   4.451  37.349   0.379
64316W        W37384   4.182  18.835   1.302
64317W        W37385   7.913  14.641  13.753
64318W        W37386  40.252  39.569  12.316
64319W        W37387  14.253  43.908   2.378
64320W        W37388  30.881   5.737   2.451
64321W        W37389  37.137  24.626  11.690
64322W        W37390   9.629  16.188  10.793
64323W        W37391  17.992  34.821  14.563
64324W        W37392   1.412  20.483   4.169
64325W        W37393  14.687  41.427  13.774
64326W        W37394  38.552  20.111   3.539
64327W        W37395   1.701   0.724  11.376
64328W        W37396   2.160  24.628  11.607
64329W        W37397  39.118   2.946  11.557
64330W        W37398  14.503  42.506   0.874
64331W        W37399  16.887   2.290  14.315
64332W        W37400  27.076  37.297  13.821
64333W        W37401  24.210  20.045  14.398
64334W        W37402   5.730  34.622   1.400
64335W        W37403   7.708  15.971   2.708
64336W        W37404   3.501  26.392   5.139
64337W        W37405   9.155  24.566  10.743
64338W        W37406   9.171  38.252  14.059
64339W        W37407  30.931  18.814   1.581
64340W        W37408  28.954  36.976   2.424
64341W        W37409  17.130  44.203  11.567
64342W        W37410  25.270  28.587  11.187
64343W        W37411   1.921  14.584   0.010
64344W        W37412  22.206  32.598  12.179
64345W        W37413   3.025  18.173  11.502
64346W        W37414  10.638  15.987   3.455
64347W        W37415   4.632  19.166   5.232
64348W        W37416  33.900  35.688  11.813
64349W        W37417  19.168  39.018  12.558
64350W        W37418  25.472  27.349   3.815
64351W        W37419   5.455   0.292  11.715
64352W        W37420  36.542  11.646  10.239
64353W        W37421  16.155  14.758  13.802
64354W        W37422   2.952   9.343   3.315
64355W        W37423  33.467  32.602  11.604
64356W        W37424  25.025  15.343  10.627
64357W        W37425   8.397  21.653   4.566
64358W        W37426  26.554   7.169  13.070
64359W        W37427  24.066  10.903   3.632
64360W        W37428  14.035   5.774  14.933
64361W        W37429  10.862   9.877   3.713
64362W        W37430  11.068  13.220  12.033
64363W        W37431   4.797  37.545   0.832
64364W        W37432  27.544  22.191   0.827
64365W        W37433  31.531  10.677  11.523
64366W        W37434  44.866  32.912   3.921
64367W        W37435  34.045   0.759   4.321
64368W        W37436  32.456  26.709  10.681
64369W        W37437  40.034  34.119   3.114
64370W        W37438  19.074   7.768   2.323
64371W        W37439   3.207   4.380   4.115
64372W        W37440  24.005   1.745  11.818
64373W        W37441   5.279  26.173  13.012
64374W        W37442  36.456  33.981  10.944
64375W        W37443  42.254  27.908   3.694
64376W        W37444  12.340  20.228   0.483
64377W        W37445  12.750  22.047  11.589
64378W        W37446  15.285  20.701   4.691
64379W        W37447  17.240  30.310  12.866
64380W        W37448  34.766  17.258  13.553
64381W        W37449  42.599  39.913   4.857
64382W        W37450  24.676  44.195   1.270
64383W        W37451  13.808   2.311   3.119
64384W        W37452  25.574   3.750  11.445
64385W        W37453   6.273  25.947   2.346
64386W        W37454  34.323  33.618  10.605
64387W        W37455  42.492  40.467  11.643
64388W        W37456   6.700   2.778  11.980
64389W        W37457  22.599   2.971  13.906
64390W        W37458  31.808  26.063  13.136
64391W        W37459  12.404  28.701   0.826
64392W        W37460  31.362  15.406  13.855
64393W        W37461  43.691  24.654  10.757
64394W        W37462  14.634   1.480  11.199
64395W        W37463  39.852   5.919   4.652
64396W        W37464  10.321   5.615   4.436
64397W        W37465   1.846  20.148  14.030
64398W        W37466  23.003  10.453  11.088
64399W        W37467  10.431   1.251  13.467
64400W        W37468  21.981  44.883   2.728
64401W        W37469   9.362  17.695  14.895
64402W        W37470  22.581   9.659  12.564
64403W        W37471  13.846  43.431  12.361
64404W        W37472   5.460  30.188  10.851
64405W        W37473  42.511  42.274  14.734
64406W        W37474   5.561  43.736   3.149
64407W        W37475  11.319  13.522   3.249
64408W        W37476  20.008   9.027   0.673
64409W        W37477   8.860  43.315  14.567
64410W        W37478  24.289  31.951  12.528
64411W        W37479  20.575  32.248  14.160
64412W        W37480  40.242  11.827  10.659
64413W        W37481  32.993  13.248   2.780
64414W        W37482  21.583  44.875  11.375
64415W        W37483  37.925   9.843   1.069
64416W        W37484  21.765   0.870   1.222
64417W        W37485  40.471  30.421  14.389
64418W        W37486  31.127  30.519   1.692
64419W        W37487  34.372   3.462   1.363
64420W        W37488   8.320   8.932  13.474
64421W        W37489   8.119   5.336   0.509
64422W        W37490  11.281  38.485   4.360
64423W        W37491  20.665  41.999   4.714
64424W        W37492   2.905  37.956   2.577
64425W        W37493  19.445  11.003  14.497
64426W        W37494   8.318  14.132   0.252
64427W        W37495   9.842  28.652  12.041
64428W        W37496  12.547  12.791   3.371
64429W        W37497   6.501  40.873  14.814
64430W        W37498  43.212  37.087   0.642
64431W        W37499  23.793  37.143  11.598
64432W        W37500  41.139  13.079  14.534
64433W        W37501  38.524  25.286  11.639
64434W        W37502  30.412  36.706  14.912
64435W        W37503   8.220  43.911   3.273
64436W        W37504  30.577   8.677  14.073
64437W        W37505   9.635  11.571   3.700
64438W        W37506  42.997   0.203  12.907
64439W        W37507  12.162  14.141   3.206
64440W        W37508  32.069  31.581  14.023
64441W        W37509   5.142  18.317   1.190
64442W        W37510  33.200   5.552   0.426
64443W        W37511  38.961  16.583   3.250
64444W        W37512   5.659  41.358   1.888
64445W        W37513   0.296  14.113  13.900
64446W        W37514  38.974  29.771  12.533
64447W        W37515  15.218  23.456   2.083
64448W        W37516  31.862   3.908  13.556
64449W        W37517  11.256  24.948  13.068
64450W        W37518   6.353  42.840   3.598
64451W        W37519  26.105   3.292   0.411
64452W        W37520   5.657  10.405  11.601
64453W        W37521  20.399  13.764  12.049
64454W        W37522  26.502  22.617  11.069
64455W        W37523  39.248  30.898  12.746
64456W        W37524  14.446  18.704   4.062
64457W        W37525  36.007   3.952  13.899
64458W        W37526  21.790   7.330   4.638
64459W        W37527  15.766  44.271   0.425
64460W        W37528   8.696   5.533   2.812
64461W        W37529  29.947  10.237   3.783
64462W        W37530  28.929  38.019  11.595
64463W        W37531  11.799  41.538   2.701
64464W        W37532  13.236  29.435  13.884
64465W        W37533  18.766  19.677   0.902
64466W        W37534  10.225   9.308  14.047
64467W        W37535  17.744   0.280   4.643
64468W        W37536  17.034   6.713  10.527
64469W        W37537  19.592  35.071   0.347
64470W        W37538   0.902  24.500  12.035
64471W        W37539  14.729  29.544   3.564
64472W        W37540  17.220   7.744  11.979
64473W        W37541  38.109  15.566  11.945
64474W        W37542  20.085  20.552  11.945
64475W        W37543   8.674  22.782  13.538
64476W        W37544  21.620  16.887   4.768
64477W        W37545   7.822  41.790  13.136
64478W        W37546  20.304   3.344  11.935
64479W        W37547  38.888   9.705   4.581
64480W        W37548   9.497  25.116  12.040
64481W        W37549  34.585  16.508  12.489
64482W        W37550   0.721  13.608  10.636
64483W        W37551  17.287   9.153   2.419
64484W        W37552  18.524  29.554   1.378
64485W        W37553  20.758  31.336  12.543
64486W        W37554  36.053  30.120  13.954
64487W        W37555  32.916  25.790   4.145
64488W        W37556  33.776  10.852  12.098
64489W        W37557  20.941  33.391  12.502
64490W        W37558  21.804  40.320   0.086
64491W        W37559  13.268  12.724   0.013
64492W        W37560  13.118   2.883   2.960
64493W        W37561  13.443   9.377   4.183
64494W        W37562  22.829  11.069   0.914
64495W        W37563  35.408   5.138   0.786
64496W        W37564  43.855  13.634   2.869
64497W        W37565  26.167  17.117   3.734
64498W        W37566  10.236  19.805   4.104
64499W        W37567  36.447  17.784  14.319
64500W        W37568   6.106  42.580   1.853
64501W        W37569  34.796  31.925  11.927
64502W        W37570   8.566  36.026   3.906
64503W        W37571  17.853  33.279  12.492
64504W        W37572  17.290   3.204   2.790
64505W        W37573  29.550  20.691  13.297
64506W        W37574  25.038  41.962   4.654
64507W        W37575  37.851   7.252  14.958
64508W        W37576   0.957  34.502   3.289
64509W        W37577   2.994  35.231  11.563
64510W        W37578  36.022  35.165   3.319
64511W        W37579  39.566  30.016  11.959
64512W        W37580  31.611  38.776  12.047
64513W        W37581   5.481  40.355  14.328
64514W        W37582   1.280  26.027  12.982
64515W        W37583  24.974  11.733   2.057
64516W        W37584  31.671  34.029   0.050
64517W        W37585   8.945  36.480   5.119
64518W        W37586   5.638   0.823   3.758
64519W        W37587  29.581  32.827   3.259
64520W        W37588  39.646   1.586   4.655
64521W        W37589   3.014  27.687  11.956
64522W        W37590  22.518  28.548  11.967
64523W        W37591  17.405  39.820   3.187
64524W        W37592  28.017   3.181   2.298
64525W        W37593  42.853  41.552   4.568
64526W        W37594  15.209  28.431   2.742
64527W        W37595   8.950  39.521  14.843
64528W        W37596  16.256   7.261  13.364
64529W        W37597  14.520   5.367  11.857
64530W        W37598  35.464  44.803  11.177
64531W        W37599   6.879  16.516   0.407
64532W        W37600  25.632  39.564   2.963
64533W        W37601  44.276   7.152  10.195
64534W        W37602   6.242  30.157  14.509
64535W        W37603  43.028  19.755   2.772
64536W        W37604  25.306  15.843   4.444
64537W        W37605  42.950  24.991  12.434
64538W        W37606  31.470  13.148   3.211
64539W        W37607  42.292  24.586  14.231
64540W        W37608  40.345  23.191   3.595
64541W        W37609  31.454  16.338  10.657
64542W        W37610  43.363  11.492  11.526
64543W        W37611  44.823  24.109  11.126
64544W        W37612  36.672   0.804   1.348
64545W        W37613  20.092  14.754  12.144
64546W        W37614  19.865  16.751  11.166
64547W        W37615  19.184   7.281   0.686
64548W        W37616  32.908  38.506   4.943
64549W        W37617   1.436  14.214  13.408
64550W        W37618  10.193  34.613  12.896
64551W        W37619  34.694  27.937  14.322
64552W        W37620   4.677  43.852   5.298
64553W        W37621  26.975   4.541   4.154
64554W        W37622  28.158  38.478  11.592
64555W        W37623  12.540  21.275   1.222
64556W        W37624  19.247  27.117   4.040
64557W        W37625  29.052  24.177   1.919
64558W        W37626  34.142  17.584   3.663
64559W        W37627   8.560   7.194  13.515
64560W        W37628  32.532  23.562   2.711
64561W        W37629  41.824  37.438   2.185
64562W        W37630  11.689  14.072   0.380
64563W        W37631   8.750  36.663  10.672
64564W        W37632  20.976  17.904  14.488
64565W        W37633  14.705  29.629   2.594
64566W        W37634  39.410  20.774  10.391
64567W        W37635  44.964  32.842  12.130
64568W        W37636  13.203  39.471  10.629
64569W        W37637  22.949   0.265  13.351
64570W        W37638  21.556  24.644  12.002
64571W        W37639   5.520   6.300  14.217
64572W        W37640   5.814  44.744   3.176
64573W        W37641  33.604  41.049   1.002
64574W        W37642  10.715  21.172   1.816
64575W        W37643   2.910  24.688  10.734
64576W        W37644  36.970  44.348  10.418
64577W        W37645  16.138  24.222   1.259
64578W        W37646  12.948   0.434  10.965
64579W        W37647  37.575  37.924  11.192
64580W        W37648  28.542  31.867   2.901
64581W        W37649  13.791  23.109   4.098
64582W        W37650   8.626  25.501   4.207
64583W        W37651  43.885   2.777  11.640
64584W        W37652  22.138  34.467   3.387
64585W        W37653   0.864   5.980  12.053
64586W        W37654  42.798  23.097  11.518
64587W        W37655  18.237  39.620  14.209
64588W        W37656  32.301  41.435  11.891
64589W        W37657  12.911  40.169   4.258
64590W        W37658  22.181  26.965   3.829
64591W        W37659  33.770  44.209   4.077
64592W        W37660  37.010  30.914  12.507
64593W        W37661  27.476  13.652  13.955
64594W        W37662  14.609  21.841   0.248
64595W        W37663  41.806   3.854   0.381
64596W        W37664  30.603  23.009   4.209
64597W        W37665  14.316  44.617   4.985
64598W        W37666  44.992  30.354   2.279
64599W        W37667  26.468  36.093  10.727
64600W        W37668  17.193   7.239   3.174
64601W        W37669  17.116  10.413  14.567
64602W        W37670  13.919   4.429  12.023
64603W        W37671   5.165  24.563  13.404
64604W        W37672  44.349  15.539  13.828
64605W        W37673   5.709  19.067   1.447
64606W        W37674  30.493  14.791   2.743
64607W        W37675   9.661   1.505  14.227
64608W        W37676   1.539  20.644  11.598
64609W        W37677   7.317  41.755   3.649
64610W        W37678  44.080  43.878   0.232
64611W        W37679  33.357   2.839  11.443
64612W        W37680   8.235  26.626  14.990
64613W        W37681  43.907  30.407   1.356
64614W        W37682  17.475  26.972  13.432
64615W        W37683  29.956  40.965  11.354
64616W        W37684  22.660  18.287   3.801
64617W        W37685  19.095  35.503   1.918
64618W        W37686  34.509  38.773  12.482
64619W        W37687   8.204  28.594   3.652
64620W        W37688  12.129  17.231   1.011
64621W        W37689  14.840   4.437  13.530
64622W        W37690  36.009   3.938   3.192
64623W        W37691   6.244   7.638  10.649
64624W        W37692   8.105  44.284   0.764
64625W        W37693  37.540  41.765   1.394
64626W        W37694  13.737  44.798  13.983
64627W        W37695   3.146  38.423   3.451
64628W        W37696   2.785  23.260  13.566
64629W        W37697  20.691  35.576   3.262
64630W        W37698   9.799  38.560   4.534
64631W        W37699  12.009   4.837  12.540
64632W        W37700  41.539  43.482   0.264
64633W        W37701  36.484  32.867   2.653
64634W        W37702  12.371  17.750  13.929
64635W        W37703  34.246   0.818  14.924
64636W        W37704  31.058  37.807   2.294
64637W        W37705  10.909   9.814   2.673
64638W        W37706  17.766  43.531  14.171
64639W        W37707  42.875  30.922   2.380
64640W        W37708  37.772   3.111  13.971
64641W        W37709  23.762  32.486   0.897
64642W        W37710  25.555  27.668  10.821
64643W        W37711   2.344  21.627  12.168
64644W        W37712  15.088   4.092   3.758
64645W        W37713   8.896  13.142   0.715
64646W        W37714   3.524  39.466  10.759
64647W        W37715  18.084  40.871   2.433
64648W        W37716  10.721  42.433  11.610
64649W        W37717  27.169  36.689   2.649
64650W        W37718   6.453  20.969  12.428
64651W        W37719  33.190  16.151  10.112
64652W        W37720  11.648  17.639   2.964
64653W        W37721  13.715  17.181   3.220
64654W        W37722  28.619  43.744   3.763
64655W        W37723  10.314  39.823  11.524
64656W        W37724  15.778  16.398  14.959
64657W        W37725  14.718  32.853   0.704
64658W        W37726  21.117   3.672   5.003
64659W        W37727  10.121  16.342  13.019
64660W        W37728   1.883  13.951  13.610
64661W        W37729  38.575  24.475   1.877
64662W        W37730  13.125  23.710   1.469
64663W        W37731   8.439  39.326   2.401
64664W        W37732  38.104  38.834  11.270
64665W        W37733   2.362  19.737   3.170
64666W        W37734   3.343   7.163  11.214
64667W        W37735  31.716  36.516   0.487
64668W        W37736  40.101  34.164  10.951
64669W        W37737   0.780  18.110  10.577
64670W        W37738  43.452  20.725   3.197
64671W        W37739   3.326  22.735  11.505
64672W        W37740  35.542  42.293  14.482
64673W        W37741  38.085  20.506  13.923
64674W        W37742   3.694   8.225  12.013
64675W        W37743  10.700   3.077  12.894
64676W        W37744  20.497   2.892  10.625
64677W        W37745  25.334   6.080  10.216
64678W        W37746  12.040   1.339   2.198
64679W        W37747  26.991  23.799  11.041
64680W        W37748  26.022  29.125  11.126
64681W        W37749  20.751  12.963   0.179
64682W        W37750   2.732   9.452   2.875
64683W        W37751  19.191  41.148  11.536
64684W        W37752  37.513  18.147   1.996
64685W        W37753   1.256   3.908  12.006
64686W        W37754   4.391  36.884  13.898
64687W        W37755  32.472   0.576  13.272
64688W        W37756  11.684  44.478   1.860
64689W        W37757   0.905  33.546   4.793
64690W        W37758  32.197  26.613   0.897
64691W        W37759   1.831  15.696   4.195
64692W        W37760  12.894  36.515  13.826
64693W        W37761   9.273  16.166   3.281
64694W        W37762   4.934  30.150   0.860
64695W        W37763   8.451  42.384  11.540
64696W        W37764  21.513   4.156   1.790
64697W        W37765  37.885  24.644  14.552
64698W        W37766  37.368   0.385   3.542
64699W        W37767  22.185  38.800   4.698
64700W        W37768  11.101   4.916   4.815
64701W        W37769  28.692  39.222  13.490
64702W        W37770  30.131  29.593   3.321
64703W        W37771  28.051  25.178  12.564
64704W        W37772   7.452   5.105   2.663
64705W        W37773  18.004  12.410   3.110
64706W        W37774  38.821  28.529  11.189
64707W        W37775  44.824  34.849   4.614
64708W        W37776  34.200  44.678  11.434
64709W        W37777   6.351  33.110   3.241
64710W        W37778  36.578  23.627  13.274
64711W        W37779  37.562  13.799   3.220
64712W        W37780  25.256  14.623   2.353
64713W        W37781  39.613  32.188  13.951
64714W        W37782  38.758  34.169  14.421
64715W        W37783  40.322  12.994   1.601
64716W        W37784  31.261  10.218   4.160
64717W        W37785  21.782  17.751   2.895
64718W        W37786  32.177  22.834   1.483
64719W        W37787  35.396  43.002   0.468
64720W        W37788   6.910  17.167  11.091
64721W        W37789  41.646   1.319  13.871
64722W        W37790  24.303  15.484  12.941
64723W        W37791  17.482   5.314  10.611
64724W        W37792  30.467  36.021  10.741
64725W        W37793  39.989  32.314   3.587
64726W        W37794  31.026  40.553  14.462
64727W        W37795   3.052  37.932  14.451
64728W        W37796  12.062   5.828  11.777
64729W        W37797  15.570  32.704  14.453
64730W        W37798   8.246   1.278  13.512
64731W        W37799  22.027  15.989  11.070
64732W        W37800  31.503  17.120   2.166
64733W        W37801  23.256  26.076  14.039
64734W        W37802  43.953  42.413  12.546
64735W        W37803  25.174  11.204  14.212
64736W        W37804  33.073  39.481  14.708
64737W        W37805  10.545   1.792   0.884
64738W        W37806   0.455  39.443   2.401
64739W        W37807   2.307  26.374   0.878
64740W        W37808  34.003  32.667   0.915
64741W        W37809   2.256  31.394   2.360
64742W        W37810  37.050  37.040  14.791
64743W        W37811  37.512  13.293   4.309
64744W        W37812  10.288  38.048   0.012
64745W        W37813  38.715  22.483   3.328
64746W        W37814  12.230  15.863  13.246
64747W        W37815  19.648  16.587   3.236
64748W        W37816  35.440  44.486  14.745
64749W        W37817  27.866  41.706  10.863
64750W        W37818  28.955  14.799   1.625
64751W        W37819  41.243  39.546   0.690
64752W        W37820  38.471  20.831  14.045
64753W        W37821  11.385  34.994   1.146
64754W        W37822  17.067  24.672   1.298
64755W        W37823  18.776   4.908   0.254
64756W        W37824  37.533   9.973   0.333
64757W        W37825  12.504  32.150  13.940
64758W        W37826  13.150  15.085  14.059
64759W        W37827  19.880  28.878  11.081
64760W        W37828  23.034  22.017   2.236
64761W        W37829   9.653  28.731  14.477
64762W        W37830  17.728  13.868   2.998
64763W        W37831  38.041   7.275   3.211
64764W        W37832  22.757  26.576  13.467
64765W        W37833   0.879   5.283   1.405
64766W        W37834   8.711  37.124   0.917
64767W        W37835  15.206  36.593   0.913
64768W        W37836   4.288  26.941  11.335
64769W        W37837  28.976   8.409  12.251
64770W        W37838  31.707  38.068   1.918
64771W        W37839  10.793  25.645  14.379
64772W        W37840   7.858   3.198   3.227
64773W        W37841  12.144  29.937  14.865
64774W        W37842   5.765  31.731  12.594
64775W        W37843  28.492  39.479   2.179
64776W        W37844  22.478  27.140  12.892
64777W        W37845  25.596  25.601  12.846
64778W        W37846  38.957  21.974   0.940
64779W        W37847  13.080  13.353   3.739
64780W        W37848   5.003  18.657  11.465
64781W        W37849  33.719   3.956   1.419
64782W        W37850  36.666  23.242  12.634
64783W        W37851  43.751   9.970   0.873
64784W        W37852  14.553  19.197   0.921
64785W        W37853  10.602   4.856   5.073
64786W        W37854  44.314  11.718   1.168
64787W        W37855  26.896   6.864   0.676
64788W        W37856  40.498  20.118   4.216
64789W        W37857  32.389  20.614  10.516
64790W        W37858  13.764   3.778   0.803
64791W        W37859  39.408  30.647  10.756
64792W        W37860   6.425  23.088  13.111
64793W        W37861  25.968   5.312  12.005
64794W        W37862  41.154  10.348  13.996
64795W        W37863  26.928  26.545   4.026
64796W        W37864  25.006  30.987  10.660
64797W        W37865  21.226  18.584   4.593
64798W        W37866  29.531  31.786  14.739
64799W        W37867  24.384  32.008  10.926
64800W        W37868   4.140  13.083  14.990
64801W        W37869  36.562  16.207  12.977
64802W        W37870  15.003   1.983   4.073
64803W        W37871  20.158   8.924  11.899
64804W        W37872   6.191  26.099   0.496
64805W        W37873  41.396  17.764  10.668
64806W        W37874  28.761  34.411  11.993
64807W        W37875  33.328  26.807  10.479
64808W        W37876  17.850  12.771   4.252
64809W        W37877   6.587   1.834  10.833
64810W        W37878  18.649  25.645  12.911
64811W        W37879  15.333  43.438  11.054
64812W        W37880  39.407  16.300   0.355
64813W        W37881  43.845  43.987   2.265
64814W        W37882  37.854  16.203  14.144
64815W        W37883  11.244  17.036   2.224
64816W        W37884  27.989  34.121  14.203
64817W        W37885   5.820  30.121  13.886
64818W        W37886  30.553  38.413  14.931
64819W        W37887  41.738  16.142   9.763
64820W        W37888  35.625  10.227  10.392
64821W        W37889  25.129  16.597  13.090
64822W        W37890  21.975  25.492  12.353
64823W        W37891  27.447  26.557  14.330
64824W        W37892  35.592  12.098   0.243
64825W        W37893   1.836  32.177  10.656
64826W        W37894  30.610  33.436  14.259
64827W        W37895  39.301  31.524  12.072
64828W        W37896  40.079   7.374   3.387
64829W        W37897  43.365   3.957   4.041
64830W        W37898  10.589  10.348  12.095
64831W        W37899  36.156  36.039   3.698
64832W        W37900  44.343  35.500   3.622
64833W        W37901   5.871   0.620  11.119
64834W        W37902  21.526  26.276  10.694
64835W        W37903  31.176  21.208   2.233
64836W        W37904  39.374  36.972   4.159
64837W        W37905   0.470   9.830  11.477
64838W        W37906   4.006  28.536   2.094
64839W        W37907   0.865  43.347   4.238
64840W        W37908   2.938  44.032  14.855
64841W        W37909  36.979  29.535  12.868
64842W        W37910  44.815   5.010  12.874
64843W        W37911  15.772  32.487   1.740
64844W        W37912  19.244   1.411   2.877
64845W        W37913  27.057  36.459   4.824
64846W        W37914  33.356  28.638  13.441
64847W        W37915  33.509  38.290  14.807
64848W        W37916  26.485  12.606   2.599
64849W        W37917  40.054  22.764   3.763
64850W        W37918  19.097  43.540  10.570
64851W        W37919  19.250  32.040   2.239
64852W        W37920  28.465  32.658  11.808
64853W        W37921  44.824   2.819  10.744
64854W        W37922   3.455  12.741   0.505
64855W        W37923  29.142   1.346   2.882
64856W        W37924   0.956  41.505   2.772
64857W        W37925  22.174  22.011   2.710
64858W        W37926  40.386   8.147  12.391
64859W        W37927   3.322  16.293  13.347
64860W        W37928  44.915  25.924  10.673
64861W        W37929  42.471  21.440   4.784
64862W        W37930   4.037  15.210  14.468
64863W        W37931  31.569   8.368   4.414
64864W        W37932   7.172  22.232   4.155
64865W        W37933   8.858   8.399  13.978
64866W        W37934  40.813  34.811   0.804
64867W        W37935   3.264  35.415  13.917
64868W        W37936   2.488  22.723   3.360
64869W        W37937  34.462  31.943  11.131
64870W        W37938  15.137  28.217  12.164
64871W        W37939   1.250  23.218   4.665
64872W        W37940  34.524  40.970  12.974
64873W        W37941  36.136   6.501  13.616
64874W        W37942   8.945  32.893  13.991
64875W        W37943   1.714  14.644  10.706
64876W        W37944   0.514  32.328   1.870
64877W        W37945  30.002  37.557  14.016
64878W        W37946   0.743  14.101  12.037
64879W        W37947  28.552  38.471   0.659
64880W        W37948   4.230  27.240  10.851
64881W        W37949  22.206  15.709   1.410
64882W        W37950  36.831   4.438   4.165
64883W        W37951  23.527  32.923  12.107
64884W        W37952  14.055  44.924  10.396
64885W        W37953  15.167  33.462  13.818
64886W        W37954  37.414   4.212   1.275
64887W        W37955  40.533   9.529   4.362
64888W        W37956  39.111  33.195   2.846
64889W        W37957   3.727  17.762   2.598
64890W        W37958  18.380  19.119   3.177
64891W        W37959  12.105  38.468  11.578
64892W        W37960  44.097  25.023   2.887
64893W        W37961  12.630  15.817   1.725
64894W        W37962   3.811  13.154  12.117
64895W        W37963   0.033   5.168  14.913
64896W        W37964   1.983  32.033  11.977
64897W        W37965   8.805  26.974   1.822
64898W        W37966  31.915  25.619   1.177
64899W        W37967  29.855   2.662   1.691
64900W        W37968  14.340   9.342  11.527
64901W        W37969  34.779  12.160  14.913
64902W        W37970   7.209  41.723   0.788
64903W        W37971  42.599   3.888   4.784
64904W        W37972  17.908  22.152   3.344
64905W        W37973  16.841   6.617   3.179
64906W        W37974  31.872  23.224   4.737
64907W        W37975  25.113  40.499   4.539
64908W        W37976  23.580  11.851  12.966
64909W        W37977  27.540  38.482   2.210
64910W        W37978  15.689  18.729   2.725
64911W        W37979  20.223  13.229   4.631
64912W        W37980  11.399  23.737  11.082
64913W        W37981  28.904  39.310   0.218
64914W        W37982  12.546  12.788   2.112
64915W        W37983  42.898  27.998  13.864
64916W        W37984  29.372  21.774  11.198
64917W        W37985  26.437  24.637  14.815
64918W        W37986   7.670  31.191  11.028
64919W        W37987  34.911   9.928   3.209
64920W        W37988  10.403  14.065   2.680
64921W        W37989  11.214   4.361  12.532
64922W        W37990  19.232  16.511   1.664
64923W        W37991  35.039   0.479  13.802
64924W        W37992   2.276  42.523  11.075
64925W        W37993  43.767   4.790   4.819
64926W        W37994  12.425  33.409  11.377
64927W        W37995  41.854  28.539   4.290
64928W        W37996  32.908   0.059  13.906
64929W        W37997   4.034  39.319  10.774
64930W        W37998   6.221  17.055  14.357
64931W        W37999  18.248  40.735   0.712
64932W        W38000  11.215  43.758  13.488
64933W        W38001  29.404  38.817  13.454
64934W        W38002   8.282  22.554  13.259
64935W        W38003  25.705  40.361   2.715
64936W        W38004  19.112   2.497  10.713
64937W        W38005  39.781   8.794   0.791
64938W        W38006  19.305  39.058   0.826
64939W        W38007  27.459  32.119  10.542
64940W        W38008   1.987   6.981   0.875
64941W        W38009   3.835  26.717   3.704
64942W        W38010  42.837  43.375  10.551
64943W        W38011  13.799   3.416   3.223
64944W        W38012  21.270  23.094  14.355
64945W        W38013   6.029  19.213  12.803
64946W        W38014  43.368  40.870  12.455
64947W        W38015  25.615  23.758   3.752
64948W        W38016   6.412  32.901  13.952
64949W        W38017   4.457  41.821  13.869
64950W        W38018   9.401   5.957  14.053
64951W        W38019  41.033  39.839  10.692
64952W        W38020  24.140  27.227   4.106
64953W        W38021  15.943  43.004  10.750
64954W        W38022  33.683  43.360  13.035
64955W        W38023  26.149  22.971  10.396
64956W        W38024  31.126  38.816   2.173
64957W        W38025   5.202  29.868  11.198
64958W        W38026  21.331  18.162  12.521
64959W        W38027  11.257  25.756  11.950
64960W        W38028  31.959  41.704   3.026
64961W        W38029  43.506   0.747   2.861
64962W        W38030  36.870   6.225   3.120
64963W        W38031  12.553  23.621   2.363
64964W        W38032   2.880  43.050   2.643
64965W        W38033  10.236   4.877  11.454
64966W        W38034  31.548  31.594  14.884
64967W        W38035   6.767  40.805   2.105
64968W        W38036   1.596  39.355   0.874
64969W        W38037  36.284  20.743   4.224
64970W        W38038  15.801  35.820   1.796
64971W        W38039   6.771  24.482   2.170
64972W        W38040   7.329  27.010  11.911
64973W        W38041  36.482  16.401   1.042
64974W        W38042   2.428  23.165  13.961
64975W        W38043  19.025   3.872   3.546
64976W        W38044  12.693   5.932  14.285
64977W        W38045  42.586  23.365  11.899
64978W        W38046   2.372  23.243   4.609
64979W        W38047  11.851  42.852   0.186
64980W        W38048  21.028  44.181   4.835
64981W        W38049   6.137  25.178   0.379
64982W        W38050   3.297  13.593  13.634
64983W        W38051   3.287  12.662  14.053
64984W        W38052  36.522  16.318   0.019
64985W        W38053   8.034  25.202  14.841
64986W        W38054  28.601   6.525   1.680
64987W        W38055  36.079   1.979  11.480
64988W        W38056  29.933   9.126  11.561
64989W        W38057  14.578  31.035  10.931
64990W        W38058  40.879  25.168  13.855
64991W        W38059  26.744  33.577   4.879
64992W        W38060  28.258  36.097  11.545
64993W        W38061  27.898  22.523  13.932
64994W        W38062   8.710   6.465   1.314
64995W        W38063   8.281  26.830  13.339
64996W        W38064  39.498   3.463   1.001
64997W        W38065  34.771  16.649  11.507
64998W        W38066  40.979  34.520  12.363
64999W        W38067   6.400   3.898   2.973
65000W        W38068  11.121   2.397   1.100
65001W        W38069   4.670  40.761   2.781
65002W        W38070   4.650  22.524  10.545
65003W        W38071  38.544  28.960   3.471
65004W        W38072  11.609  19.734   3.630
65005W        W38073  44.328  11.798  10.275
65006W        W38074  26.944  20.078  11.178
65007W        W38075  12.421   1.835  14.019
65008W        W38076   7.116  44.566   0.869
65009W        W38077  23.471  42.119  11.830
65010W        W38078   9.445  20.789   1.982
65011W        W38079  16.675  19.522   2.823
65012W        W38080  44.681  25.687   3.763
65013W        W38081   1.889  30.547  14.969
65014W        W38082   3.782  12.663   3.582
65015W        W38083  42.034  43.058  10.187
65016W        W38084  34.085  28.668   1.469
65017W        W38085  31.434  41.465  13.390
65018W        W38086  36.629  11.965   1.238
65019W        W38087  15.684  17.904  11.138
65020W        W38088   3.738  12.543   4.938
65021W        W38089  30.294   3.663  14.003
65022W        W38090  14.388   3.716   3.286
65023W        W38091  37.791  36.368   0.816
65024W        W38092  21.719   5.938  14.760
65025W        W38093  19.764  24.766  11.117
65026W        W38094  44.654  23.775   2.627
65027W        W38095  12.450  18.494   0.301
65028W        W38096   3.231  40.920   1.493
65029W        W38097  32.435  11.831  14.953
65030W        W38098  43.742  37.577  11.955
65031W        W38099  26.948  13.233  11.838
65032W        W38100  31.037  17.668  10.587
65033W        W38101  10.721  40.267  12.460
65034W        W38102   4.757   2.300  11.630
65035W        W38103  40.850   6.338   2.311
65036W        W38104  36.004  34.050   2.522
65037W        W38105  20.918   5.947   4.621
65038W        W38106   5.916  30.929   0.281
65039W        W38107  43.922  37.231  12.868
65040W        W38108  11.268  44.859  11.036
65041W        W38109  33.918  32.635   3.899
65042W        W38110   2.682   2.012  12.132
65043W        W38111  28.892  43.517  14.437
65044W        W38112  41.325  43.425   2.077
65045W        W38113  36.147  12.045   2.398
65046W        W38114   0.481  16.353  14.872
65047W        W38115  39.829  39.508   0.014
65048W        W38116  17.690  42.455  13.483
65049W        W38117  32.968  17.868  10.686
65050W        W38118  22.463  30.173  11.176
65051W        W38119  43.292  37.017  14.017
65052W        W38120  10.840  11.801   2.718
65053W        W38121  13.618  43.182  14.929
65054W        W38122   3.306  20.279   4.141
65055W        W38123  30.904   9.210  12.042
65056W        W38124  38.013   7.783   3.326
65057W        W38125  34.813   4.425  12.423
65058W        W38126   0.713   0.850  11.475
65059W        W38127  21.629   7.713   4.948
65060W        W38128   5.118  42.300  12.369
65061W        W38129  41.593   5.705  14.207
65062W        W38130  12.177   7.067   1.627
65063W        W38131  41.551  25.255   0.842
65064W        W38132   0.994  22.612  12.421
65065W        W38133   5.316  36.639   3.816
65066W        W38134   9.232  11.901   2.759
65067W        W38135  38.550  14.899  13.673
65068W        W38136  25.727  40.407  11.010
65069W        W38137  35.187  35.502  12.657
65070W        W38138  38.582  32.890   1.460
65071W        W38139  24.374  15.225  13.397
65072W        W38140   5.027   9.836   3.221
65073W        W38141   6.653  35.255  11.501
65074W        W38142  24.957  34.666   1.425
65075W        W38143  34.901  34.342  14.775
65076W        W38144  14.366  20.745   3.636
65077W        W38145  15.819  32.337   2.704
65078W        W38146  31.610  10.372   4.528
65079W        W38147  36.955  32.235   0.250
65080W        W38148  17.289  36.409  12.818
65081W        W38149  28.899  40.229  12.124
65082W        W38150  21.061  39.468   1.465
65083W        W38151   6.837  25.505  11.563
65084W        W38152  22.571  26.358  14.786
65085W        W38153  34.377  10.874   1.822
65086W        W38154  39.319  20.199  11.645
65087W        W38155   6.460  23.079   1.098
65088W        W38156  40.317  44.588  11.589
65089W        W38157  43.514  10.910   2.142
65090W        W38158  40.449  30.984  14.931
65091W        W38159  21.463  15.687  14.292
65092W        W38160  37.381  31.169   4.005
65093W        W38161  38.472  33.141   3.928
65094W        W38162  19.792  21.069   1.859
65095W        W38163  30.209   1.982  11.409
65096W        W38164   9.757  41.767   1.416
65097W        W38165   4.238   2.328   2.675
65098W        W38166  32.365  17.104  11.767
65099W        W38167  11.744  14.616  13.091
65100W        W38168  16.768   6.822  10.962
65101W        W38169  21.200   7.639   2.288
65102W        W38170   8.321  42.095  10.282
65103W        W38171  31.208  26.621  11.354
65104W        W38172  32.422  41.812  10.683
65105W        W38173  41.849   8.502  10.951
65106W        W38174  29.555  22.775  13.907
65107W        W38175   7.798  23.175   3.660
65108W        W38176  14.812  35.436  13.344
65109W        W38177  10.801   2.420   3.419
65110W        W38178  35.571  44.047   0.011
65111W        W38179  36.405   0.629  13.971
65112W        W38180  22.801   7.341  11.338
65113W        W38181  35.603  28.206   0.952
65114W        W38182  17.334  43.979  11.161
65115W        W38183  22.564  43.222  13.826
65116W        W38184  17.221  43.105   2.794
65117W        W38185  21.068  16.010  14.390
65118W        W38186   5.444  38.034  11.080
65119W        W38187  10.712  41.070  14.710
65120W        W38188  19.759   0.455  12.457
65121W        W38189   4.248  29.028  14.525
65122W        W38190  24.658   9.124   3.761
65123W        W38191   4.409  14.958   2.338
65124W        W38192  11.222  17.386  11.107
65125W        W38193  31.601  12.391   0.712
65126W        W38194  38.482  24.942  14.555
65127W        W38195  20.192  22.530  13.239
65128W        W38196   4.322  44.233  14.846
65129W        W38197  17.664  16.821   3.039
65130W        W38198  20.167  19.114  12.389
65131W        W38199  29.053  22.134   4.324
65132W        W38200  18.526  37.960   1.603
65133W        W38201  44.989  17.340   0.413
65134W        W38202  15.105   8.514   0.977
65135W        W38203  29.187  40.728   3.186
65136W        W38204  13.220  24.985  14.477
65137W        W38205   0.720   1.804   4.670
65138W        W38206  36.421  32.613   1.693
65139W        W38207  22.192  32.675   4.399
65140W        W38208  36.089  13.238   1.715
65141W        W38209   1.664  22.985  14.464
65142W        W38210   0.408   4.703   0.787
65143W        W38211   0.920  25.479  10.662
65144W        W38212  27.722  18.351  13.860
65145W        W38213  34.492  36.278   3.852
65146W        W38214  38.639   3.720   4.134
65147W        W38215  25.150  20.108   0.428
65148W        W38216  20.642  35.930   1.445
65149W        W38217  34.040  18.296  14.878
65150W        W38218  24.236  30.549   1.584
65151W        W38219  26.024   4.081  13.278
65152W        W38220  37.487   1.733   2.226
65153W        W38221  34.497  38.004   3.283
65154W        W38222  36.804   5.255   3.109
65155W        W38223  25.458  17.008  12.568
65156W        W38224  11.879  12.318  14.874
65157W        W38225  44.641  17.643   3.701
65158W        W38226  33.942  40.082  10.691
65159W        W38227  38.815  26.105  12.616
65160W        W38228   4.820  36.516  13.705
65161W        W38229  32.199  32.332  11.073
65162W        W38230  32.982   4.986   3.776
65163W        W38231  24.244  34.653  10.918
65164W        W38232   9.309   8.634  12.519
65165W        W38233  26.752   6.209   2.931
65166W        W38234  22.077   3.703  13.303
65167W        W38235  38.540  12.988  11.523
65168W        W38236  25.824  15.388  12.124
65169W        W38237  35.026  29.958   0.308
65170W        W38238  19.347   6.414  11.276
65171W        W38239  22.604  35.136   1.835
65172W        W38240   7.970  37.662  11.058
65173W        W38241  25.697  40.309   0.252
65174W        W38242   4.879  15.959  11.709
65175W        W38243  20.310  30.992   0.723
65176W        W38244  10.266  32.162   2.271
65177W        W38245   6.881  29.038  10.909
65178W        W38246  41.364  23.409  13.907
65179W        W38247  15.087  35.865   2.633
65180W        W38248  17.541  42.286   4.616
65181W        W38249  12.700  35.441  12.184
65182W        W38250  14.400  23.918  14.318
65183W        W38251  28.860  36.100   2.193
65184W        W38252  24.665  30.415  13.869
65185W        W38253  35.539  38.815  10.521
65186W        W38254  24.904  25.715  11.969
65187W        W38255  30.947   2.755   4.934
65188W        W38256   2.034  20.494   4.656
65189W        W38257  37.558  35.901   3.791
65190W        W38258  20.314  44.015   1.681
65191W        W38259  31.772  42.813   2.819
65192W        W38260  26.032  30.460  12.525
65193W        W38261  27.617   7.900  14.668
65194W        W38262  43.159  33.528  11.215
65195W        W38263  23.194  18.041  11.965
65196W        W38264  15.606   6.685   0.318
65197W        W38265   0.310  34.101   4.391
65198W        W38266  11.192   0.301   1.021
65199W        W38267  28.878  30.089  12.492
65200W        W38268  18.034  30.813   3.110
65201W        W38269  36.052  19.256  10.937
65202W        W38270  30.875   2.907  13.347
65203W        W38271  39.299  43.775   2.668
65204W        W38272  38.468   1.835  13.088
65205W        W38273  37.841  18.759  11.446
65206W        W38274  28.115  19.221   0.965
65207W        W38275  32.589  31.450   0.720
65208W        W38276  23.429  22.564  12.551
65209W        W38277  24.130  37.960  11.997
65210W        W38278   0.012  22.276   1.868
65211W        W38279   9.945   7.016  14.391
65212W        W38280  39.819  15.073   4.140
65213W        W38281   3.322  22.657  13.619
65214W        W38282  42.568  35.887   4.286
65215W        W38283  21.829  19.178  11.462
65216W        W38284  38.409  10.872  14.409
65217W        W38285  43.507  10.596   1.696
65218W        W38286   7.748  27.910   0.247
65219W        W38287  39.347  23.634   0.790
65220W        W38288  36.303  24.182   5.069
65221W        W38289   9.791  39.124   3.193
65222W        W38290   9.270   8.742   2.271
65223W        W38291  22.149  42.298   2.243
65224W        W38292  13.703   1.397   1.929
65225W        W38293  15.293  24.472   1.988
65226W        W38294  25.461  34.999  11.505
65227W        W38295  32.705  43.717  14.327
65228W        W38296  44.408  21.063   2.230
65229W        W38297   2.161  26.907  13.353
65230W        W38298  35.477  11.258   2.916
65231W        W38299  16.639  36.553  14.986
65232W        W38300   8.162  11.716   0.037
65233W        W38301  29.313  14.463  11.044
65234W        W38302  25.706  41.444  13.087
65235W        W38303   0.003   4.399   0.810
65236W        W38304  21.929  22.240  13.717
65237W        W38305  33.930  41.094  10.617
65238W        W38306  40.011  41.240   0.149
65239W        W38307  26.876   6.157  10.989
65240W        W38308   7.637  40.801  12.477
65241W        W38309  11.317  36.039  14.527
65242W        W38310  24.508   5.759   4.389
65243W        W38311  18.221  23.656   0.278
65244W        W38312   0.858   6.596  11.169
65245W        W38313  18.013  35.917  12.910
65246W        W38314   5.200  39.277  12.480
65247W        W38315  40.351   6.204   3.803
65248W        W38316   5.775  17.167  10.589
65249W        W38317  36.603  31.789  11.546
65250W        W38318  22.710  29.124   2.710
65251W        W38319  36.124  42.280   4.616
65252W        W38320  22.373  26.047  12.914
65253W        W38321  34.039  12.405  13.796
65254W        W38322  29.008   7.362   4.142
65255W        W38323  32.659  40.098   2.430
65256W        W38324   6.960  34.101   1.321
65257W        W38325   5.295  36.535  10.673
65258W        W38326  36.383   3.839  11.546
65259W        W38327  29.372  27.685  14.876
65260W        W38328  12.683  25.462  12.983
65261W        W38329  21.152  18.523   2.133
65262W        W38330  33.532  21.598   4.592
65263W        W38331  43.017   5.423   1.420
65264W        W38332  17.016  13.670  12.124
65265W        W38333  44.455  15.115   3.717
65266W        W38334  23.629  15.277   4.546
65267W        W38335  31.196  35.143  12.944
65268W        W38336  25.971  37.853  10.153
65269W        W38337   0.509   2.416  12.879
65270W        W38338  38.575  20.689   3.363
65271W        W38339  10.431   9.703  14.356
65272W        W38340  11.118  18.069   1.339
65273W        W38341  16.835   9.100   1.360
65274W        W38342   9.885  15.176   0.902
65275W        W38343  33.523  27.579  13.400
65276W        W38344  18.096   7.947  14.423
65277W        W38345  37.947  30.344   3.345
65278W        W38346  10.115  21.122  12.584
65279W        W38347   4.906  34.903   0.820
65280W        W38348  33.655  44.588  12.542
65281W        W38349   1.501   9.799  11.356
65282W        W38350  16.626   8.612   0.348
65283W        W38351  39.794   2.223  14.884
65284W        W38352  24.070   9.302  14.046
65285W        W38353   5.440  10.204  10.339
65286W        W38354   1.348  28.158   0.806
65287W        W38355  38.550  43.417  10.354
65288W        W38356  37.919  19.716   0.556
65289W        W38357  41.335  34.037   2.751
65290W        W38358   0.787  24.099   1.882
65291W        W38359   9.275  34.109  13.592
65292W        W38360  35.595  34.143  10.465
65293W        W38361  13.675  25.182  12.492
65294W        W38362  29.657  27.680   1.170
65295W        W38363   3.156  41.544  11.058
65296W        W38364   3.808  42.780  14.243
65297W        W38365   5.915  11.145  11.133
65298W        W38366   7.420  13.275   2.212
65299W        W38367  42.046  32.346   3.232
65300W        W38368   7.288  43.605   3.746
65301W        W38369   3.824  29.217  12.407
65302W        W38370   6.899  35.425   0.988
65303W        W38371  18.730   5.575  12.076
65304W        W38372   5.665  12.552  12.971
65305W        W38373  43.161  13.337   2.058
65306W        W38374  19.341  10.116  11.163
65307W        W38375  31.200  19.139  14.004
65308W        W38376  43.199  33.956   0.783
65309W        W38377  43.983  10.567   1.917
65310W        W38378  14.835   5.027   3.802
65311W        W38379  25.227  11.680   2.913
65312W        W38380  11.984   5.719  14.343
65313W        W38381  10.149  35.845   5.110
65314W        W38382  39.820  32.314  10.565
65315W        W38383  38.941  35.381  10.701
65316W        W38384   7.635  16.837  12.870
65317W        W38385  36.834   5.186  14.851
65318W        W38386  27.079  36.086   3.544
65319W        W38387  35.596  36.044  12.016
65320W        W38388  42.921  12.715  14.750
65321W        W38389  11.302  38.170   1.402
65322W        W38390  25.889   4.635   3.289
65323W        W38391  18.057   2.504  13.574
65324W        W38392  15.875  11.391   4.107
65325W        W38393  43.212  25.747  11.131
65326W        W38394  26.043  35.866  14.905
65327W        W38395  36.010  29.178  14.085
65328W        W38396   4.802  10.084   0.342
65329W        W38397  27.752   5.361   0.832
65330W        W38398  14.795  28.622   2.455
65331W        W38399  41.890  22.773  12.044
65332W        W38400   6.923   8.305  11.612
65333W        W38401   7.809  34.977  12.170
65334W        W38402  26.568  23.937   4.386
65335W        W38403   6.460  32.260  12.044
65336W        W38404  19.703  11.258  13.035
65337W        W38405  10.275   3.396  14.316
65338W        W38406  12.652  25.956  13.128
65339W        W38407  38.538   7.768  12.385
65340W        W38408  38.867   2.228  11.105
65341W        W38409  42.410   5.473   3.767
65342W        W38410  30.903   1.791   2.852
65343W        W38411  12.004  35.627   1.782
65344W        W38412  14.748  24.992   2.860
65345W        W38413  21.606  14.356   0.954
65346W        W38414  42.799  32.337   4.991
65347W        W38415  32.983   1.016   2.091
65348W        W38416  32.209  30.387  10.525
65349W        W38417  12.228  25.110  14.040
65350W        W38418  12.261  12.345   1.304
65351W        W38419  27.712  17.586  11.833
65352W        W38420  33.990   6.886   3.855
65353W        W38421  36.419   6.489  11.162
65354W        W38422  29.016   4.879   1.521
65355W        W38423  34.065  31.094   4.921
65356W        W38424  25.062   2.410  14.419
65357W        W38425  32.441  38.606   2.397
65358W        W38426   9.769  16.429   4.199
65359W        W38427  41.910  35.382  11.905
65360W        W38428  37.305   5.308   1.149
65361W        W38429  39.007  38.826   2.060
65362W        W38430   3.194  41.777   1.917
65363W        W38431   6.147  42.536   3.980
65364W        W38432  19.555  42.980  13.499
65365W        W38433  16.076   9.383   4.440
65366W        W38434   0.771  43.929  11.653
65367W        W38435   2.870  33.492   3.135
65368W        W38436  17.256  13.087   4.676
65369W        W38437  22.340  19.661  12.169
65370W        W38438  39.475  24.100   0.567
65371W        W38439  11.794  37.124   0.426
65372W        W38440   2.974  14.034  14.387
65373W        W38441  13.455  25.164   0.455
65374W        W38442  20.936  34.910  12.357
65375W        W38443  20.607  19.644   3.780
65376W        W38444  35.576  41.979   0.344
65377W        W38445  24.112  23.579   3.300
65378W        W38446  25.964  29.608   0.048
65379W        W38447  20.093  37.485  11.256
65380W        W38448  19.185  12.189   4.687
65381W        W38449  20.130  27.084   0.895
65382W        W38450  14.953  21.935  12.066
65383W        W38451   3.680  29.663   0.603
65384W        W38452  26.489  37.651  13.042
65385W        W38453  34.980  39.941   4.947
65386W        W38454  40.547  43.355   3.535
65387W        W38455  14.711  29.185  11.017
65388W        W38456  19.160   3.262   0.896
65389W        W38457  22.601  14.360   1.915
65390W        W38458  39.614  25.098  13.393
65391W        W38459  12.941  26.319   0.845
65392W        W38460   0.802   0.265   3.173
65393W        W38461  25.756  18.095   4.244
65394W        W38462   5.662  10.960   2.879
65395W        W38463  32.086  18.963   0.112
65396W        W38464  35.031  27.198   2.167
65397W        W38465  22.946  17.188   1.250
65398W        W38466  21.640  31.338  14.321
65399W        W38467  28.751  33.254   3.354
65400W        W38468  36.524   7.531  11.984
65401W        W38469  10.078  10.251  11.962
65402W        W38470   1.260  31.492  13.545
65403W        W38471   8.866   5.672   4.514
65404W        W38472  16.220  43.704  13.101
65405W        W38473  42.200   0.980   3.326
65406W        W38474   8.345  14.145   1.721
65407W        W38475  12.809  39.838  12.990
65408W        W38476  15.204  28.969   3.078
65409W        W38477  14.519  36.610   0.167
65410W        W38478  37.641   5.284  12.489
65411W        W38479  26.638   9.882  10.997
65412W        W38480  22.471  37.878   3.810
65413W        W38481  34.951   9.843  10.573
65414W        W38482  44.729  25.255  14.116
65415W        W38483  41.139  44.930  11.913
65416W        W38484   7.454   8.430  13.612
65417W        W38485  22.745  29.185  12.432
65418W        W38486  28.466  37.404  13.873
65419W        W38487  27.524   5.225  14.056
65420W        W38488  16.130  13.383  11.157
65421W        W38489  12.396  31.938   0.862
65422W        W38490  14.253  19.863  13.937
65423W        W38491  38.833  37.336  14.130
65424W        W38492  10.220  15.336  11.615
65425W        W38493  11.189   3.311   1.410
65426W        W38494  24.096  42.090   2.179
65427W        W38495   0.555  30.411  11.983
65428W        W38496   7.499  37.286  11.030
65429W        W38497   1.700  36.464  14.789
65430W        W38498  36.994   5.902   4.257
65431W        W38499  37.163  22.211   3.694
65432W        W38500  44.985  24.161  12.557
65433W        W38501  42.332  29.703  14.032
65434W        W38502   2.750   6.362   0.874
65435W        W38503  30.913  24.704  14.748
65436W        W38504  30.618  31.809  12.418
65437W        W38505  43.770  43.916   0.657
65438W        W38506  27.882  27.522  13.919
65439W        W38507  35.339  34.058   1.757
65440W        W38508  33.743  19.714  10.962
65441W        W38509  37.175  26.738  12.989
65442W        W38510  40.433  42.248   4.790
65443W        W38511   8.217  32.509   1.237
65444W        W38512  22.241   1.310   2.431
65445W        W38513  32.537  19.628  11.569
65446W        W38514  29.698  10.520  11.591
65447W        W38515   4.918  44.360  11.666
65448W        W38516   3.999  23.465  13.281
65449W        W38517   8.174  27.343  13.406
65450W        W38518  43.497  10.437   0.791
65451W        W38519   9.243  41.033   3.785
65452W        W38520  19.456  32.408   2.744
65453W        W38521  40.019  13.875  14.298
65454W        W38522  20.356   9.528   1.390
65455W        W38523  29.119  34.817  14.819
65456W        W38524  15.531  24.398  10.953
65457W        W38525  11.568  35.833   4.293
65458W        W38526  40.357   5.746   4.783
65459W        W38527  21.138  24.023   4.399
65460W        W38528  37.724   8.456   2.822
65461W        W38529  11.131  32.523  12.929
65462W        W38530  44.243  40.900   3.689
65463W        W38531   8.206   7.293   0.196
65464W        W38532   8.110  29.146  13.519
65465W        W38533  10.062  18.900   4.501
65466W        W38534   9.610  38.947  12.555
65467W        W38535  14.700   9.025   4.211
65468W        W38536   7.172  39.644  13.360
65469W        W38537  17.915   0.283  11.675
65470W        W38538  27.477  28.690  14.111
65471W        W38539  42.425   7.902   4.541
65472W        W38540  27.488  28.057   1.494
65473W        W38541  43.032  27.104  10.625
65474W        W38542  24.546  44.970   4.154
65475W        W38543  43.974   0.500  11.376
65476W        W38544  25.075  35.915   3.675
65477W        W38545   8.769  43.727   2.286
65478W        W38546  31.997  15.345   3.131
65479W        W38547  37.545  37.506   5.071
65480W        W38548  39.255  29.168  11.025
65481W        W38549  15.308  13.843   0.934
65482W        W38550   4.840  18.049  13.371
65483W        W38551  40.945  36.842  11.434
65484W        W38552  28.622  29.669  13.400
65485W        W38553  18.785  40.719   5.052
65486W        W38554  18.035  29.135  11.976
65487W        W38555  40.348  11.496   2.324
65488W        W38556  44.423  24.279   3.334
65489W        W38557  21.922  15.351   0.445
65490W        W38558  24.705  23.173  11.593
65491W        W38559  10.174  43.989   1.169
65492W        W38560  26.839  20.102   1.978
65493W        W38561   9.067   3.900   1.221
65494W        W38562  37.902  11.287   3.712
65495W        W38563   1.399  30.253   1.007
65496W        W38564  42.012  19.121  14.029
65497W        W38565  16.783  44.980   2.335
65498W        W38566  17.862   7.400  12.950
65499W        W38567  21.786  35.412  11.120
65500W        W38568  30.653  28.410   1.829
65501W        W38569  37.013   9.401  13.528
65502W        W38570  12.471   0.506   2.993
65503W        W38571  15.144  24.032   0.655
65504W        W38572  35.083   4.723   0.157
65505W        W38573  26.171  20.150  13.166
65506W        W38574  18.813   9.748   1.887
65507W        W38575  35.734  20.387  12.885
65508W        W38576  33.895   1.927   2.300
65509W        W38577  12.909  17.928   3.289
65510W        W38578  33.520  18.281  13.087
65511W        W38579   6.243  19.472   3.100
65512W        W38580   8.231   2.292   2.209
65513W        W38581   0.402  20.763  12.266
65514W        W38582  19.741  12.665  13.797
65515W        W38583  23.594  23.322  12.899
65516W        W38584  17.644  30.971   1.358
65517W        W38585  19.570  14.653   4.528
65518W        W38586   0.707  42.835   0.136
65519W        W38587  31.854  19.234   3.696
65520W        W38588  15.148  28.788   1.706
65521W        W38589  12.398  11.335  13.677
65522W        W38590  39.580   2.043   1.727
65523W        W38591  41.834  14.208   2.313
65524W        W38592   9.253  17.744   4.133
65525W        W38593  11.991  40.314  14.832
65526W        W38594  44.282  40.369   3.190
65527W        W38595  32.563   1.280  12.489
65528W        W38596  17.010  27.207  13.514
65529W        W38597   7.336  38.382   0.282
65530W        W38598  24.143   7.125   0.839
65531W        W38599   9.975  18.775   5.406
65532W        W38600  16.113  18.782   1.309
65533W        W38601  26.546  41.298   3.231
65534W        W38602   0.090  39.289  13.398
65535W        W38603  11.879   7.400  10.815
65536W        W38604  26.754   0.539  13.464
65537W        W38605  12.110  17.812   2.888
65538W        W38606  20.805  31.131  14.933
65539W        W38607   4.438  16.001  13.849
65540W        W38608  14.213   2.442   0.010
65541W        W38609  24.955  10.849  13.425
65542W        W38610   3.316  26.160  11.680
65543W        W38611  44.502   1.507   0.270
65544W        W38612  24.182  44.542  14.605
65545W        W38613  29.417   4.870  12.426
65546W        W38614  41.906  32.088  11.245
65547W        W38615   9.122  10.199  13.397
65548W        W38616  18.204  31.940  14.062
65549W        W38617  30.985  23.228  12.304
65550W        W38618  39.310  13.561   2.848
65551W        W38619  39.552  21.286   3.120
65552W        W38620  35.132  29.726  12.453
65553W        W38621  20.347  43.421  12.834
65554W        W38622  28.728   0.797   3.784
65555W        W38623  25.926  35.807  12.566
65556W        W38624  13.437   4.303  12.103
65557W        W38625  37.907   3.669  14.401
65558W        W38626   5.082  17.201   4.946
65559W        W38627   7.932  26.286   3.203
65560W        W38628   1.401   0.548   1.667
65561W        W38629  41.356  26.413   3.330
65562W        W38630  43.260  21.672  13.765
65563W        W38631   5.289  24.157  10.754
65564W        W38632  28.631  39.602  11.650
65565W        W38633  21.219  15.334  11.058
65566W        W38634  25.488  21.567   2.683
65567W        W38635  39.045  22.570  11.404
65568W        W38636  24.705  34.617  11.171
65569W        W38637  43.185  27.932   1.385
65570W        W38638  23.123  24.201   2.880
65571W        W38639   7.220  29.502   2.607
65572W        W38640   3.338  39.288   3.386
65573W        W38641  16.294  23.446   3.275
65574W        W38642  17.334  31.340  10.255
65575W        W38643  21.715  33.522  14.110
65576W        W38644  43.440   6.354   3.370
65577W        W38645  14.387  22.507   1.883
65578W        W38646   7.185   3.341   1.967
65579W        W38647   0.297  21.200   1.276
65580W        W38648  41.424  22.011   1.237
65581W        W38649  37.640  26.041   2.763
65582W        W38650   5.415  28.730  11.938
65583W        W38651  14.201  20.178   2.147
65584W        W38652   7.248  27.000   3.424
65585W        W38653  17.289  28.536  12.592
65586W        W38654  29.573   3.847  10.717
65587W        W38655  19.499  14.355   1.582
65588W        W38656   9.745  39.036   4.274
65589W        W38657   5.309  23.401   4.575
65590W        W38658   3.666  35.011  12.009
65591W        W38659  14.263  15.528  14.901
65592W        W38660   6.111  42.870  12.987
65593W        W38661   1.375  44.010  10.924
65594W        W38662  43.347  22.617   0.478
65595W        W38663  37.080  42.356  11.229
65596W        W38664  24.025  39.470  13.301
65597W        W38665  19.027  30.826   0.276
65598W        W38666   3.813   5.212   2.669
65599W        W38667   2.516  27.012  10.353
65600W        W38668   2.914  22.230  13.039
65601W        W38669   2.186   0.648  10.782
65602W        W38670  18.000  20.107  12.561
65603W        W38671  32.603   2.493   1.339
65604W        W38672  21.754  32.091  14.818
65605W        W38673  30.330  36.066  11.738
65606W        W38674  25.504  20.499  14.266
65607W        W38675  18.233  21.482   4.323
65608W        W38676  14.203  13.808  11.508
65609W        W38677   5.149  22.128   1.762
65610W        W38678  38.825  20.768  14.466
65611W        W38679  35.568   8.330   3.723
65612W        W38680   6.442   1.344   3.903
65613W        W38681  29.853   4.801  14.279
65614W        W38682  34.875  15.338   4.398
65615W        W38683  23.102  19.620  14.355
65616W        W38684   0.095   9.037  13.806
65617W        W38685  15.741   5.189  12.538
65618W        W38686   1.171   3.302  14.443
65619W        W38687  37.172   5.269   2.686
65620W        W38688   1.737  35.540  11.364
65621W        W38689  43.488  36.840  11.156
65622W        W38690   1.982  32.124   1.752
65623W        W38691  42.500  28.915   3.807
65624W        W38692  31.949   6.408   4.538
65625W        W38693  36.423  30.283   0.222
65626W        W38694  24.426  32.058  13.557
65627W        W38695  16.800   7.904   1.870
65628W        W38696  32.943  15.631  13.841
65629W        W38697  11.942   1.327  13.249
65630W        W38698  18.675  17.570  14.287
65631W        W38699  19.157  31.828   0.158
65632W        W38700  44.586  16.092  14.960
65633W        W38701  33.698  32.655  11.143
65634W        W38702  10.627  35.699   3.754
65635W        W38703   2.821  37.448  11.341
65636W        W38704  29.436  12.318   2.713
65637W        W38705  22.401  31.998   4.810
65638W        W38706  43.671  28.590  14.214
65639W        W38707   3.510  41.581   1.148
65640W        W38708  14.979  42.692   2.350
65641W        W38709  24.810  43.819  14.207
65642W        W38710  26.884  14.060  12.121
65643W        W38711  17.373  41.751   4.659
65644W        W38712  28.415  43.414  12.121
65645W        W38713  17.864  23.482  13.897
65646W        W38714  34.010  20.871  14.711
65647W        W38715  39.330  39.790  10.993
65648W        W38716   4.904  11.971  12.104
65649W        W38717  11.669   5.482   2.315
65650W        W38718   0.243  41.576  14.564
65651W        W38719  31.721   6.967  13.039
65652W        W38720  32.826  18.839   2.411
65653W        W38721  23.229  25.646   4.091
65654W        W38722  20.051  19.730   4.561
65655W        W38723  22.958  35.921  14.420
65656W        W38724  33.352  38.990   2.471
65657W        W38725  17.456  44.482  14.392
65658W        W38726  15.749  40.809   2.309
65659W        W38727  43.372  15.324  12.854
65660W        W38728  20.297  10.124  11.181
65661W        W38729  14.014  15.012  14.988
65662W        W38730  13.380   2.281  12.574
65663W        W38731  33.174  28.062  11.938
65664W        W38732  25.464  38.542   0.546
65665W        W38733  19.298   6.116  12.777
65666W        W38734  35.920   0.411   1.516
65667W        W38735  42.476  33.615  13.568
65668W        W38736  42.918  12.093  12.949
65669W        W38737  25.076  42.439   2.884
65670W        W38738  14.503  41.377  11.145
65671W        W38739  24.674  22.309  12.059
65672W        W38740  25.548  26.270   4.634
65673W        W38741   9.829  33.321   2.161
65674W        W38742  19.616   1.730   0.784
65675W        W38743  13.734  18.509   0.001
65676W        W38744  24.251  19.752  10.856
65677W        W38745   5.710  39.556  11.053
65678W        W38746  11.179  16.047  14.396
65679W        W38747  17.138  32.692   3.707
65680W        W38748  37.074  37.052   0.783
65681W        W38749  27.423  17.659   4.595
65682W        W38750  36.797  38.910   1.881
65683W        W38751  43.507  26.177  11.961
65684W        W38752  31.673  40.457   4.559
65685W        W38753  15.552  43.364  10.604
65686W        W38754   4.475  44.403   0.317
65687W        W38755  27.023  32.423  13.466
65688W        W38756  28.938   9.405  10.567
65689W        W38757  41.719  20.202   3.275
65690W        W38758   8.725  32.029  14.245
65691W        W38759   6.812  24.918   3.117
65692W        W38760  20.713  28.933  14.985
65693W        W38761   8.813   7.249  11.709
65694W        W38762  44.799  38.988  12.029
65695W        W38763  20.018  26.548  14.047
65696W        W38764   5.783  35.956  13.749
65697W        W38765  17.003  14.780  11.121
65698W        W38766   8.723  23.512   3.907
65699W        W38767  39.633  31.437  13.943
65700W        W38768   5.431  10.114  13.923
65701W        W38769  26.483  25.076  13.590
65702W        W38770  31.597  12.664  10.698
65703W        W38771  18.992  23.518   2.737
65704W        W38772  35.524   2.442   3.874
65705W        W38773  39.997   9.947  11.241
65706W        W38774  29.560  12.639   1.737
65707W        W38775  18.333  31.526   4.818
65708W        W38776  36.668  33.035  14.015
65709W        W38777  44.948  16.072   4.495
65710W        W38778  28.192  23.425  12.822
65711W        W38779   1.389  13.562   4.865
65712W        W38780   2.639   4.449  13.452
65713W        W38781  13.621  23.462  13.752
65714W        W38782  23.100  16.594  14.471
65715W        W38783  32.219  36.551   0.423
65716W        W38784  38.743  13.110   0.418
65717W        W38785  28.541  30.559   0.437
65718W        W38786  41.126  38.319  10.771
65719W        W38787  38.394  30.429  14.023
65720W        W38788  14.356  37.693   2.388
65721W        W38789  38.576  33.878   3.138
65722W        W38790   8.876  10.383   0.633
65723W        W38791  26.110  22.197  14.235
65724W        W38792   9.849   5.439   4.148
65725W        W38793  36.551  15.674   4.854
65726W        W38794  14.357  11.255   4.147
65727W        W38795  26.641  35.213   2.155
65728W        W38796  44.088  29.620  13.419
65729W        W38797  14.995  14.075   2.140
65730W        W38798   7.399  32.478   2.799
65731W        W38799   6.492   3.409   0.730
65732W        W38800  13.696  19.688   1.262
65733W        W38801  42.730  35.727  11.553
65734W        W38802  11.341  36.093  10.564
65735W        W38803   4.011  34.052  14.361
65736W        W38804  10.027  44.835  14.618
65737W        W38805  27.712  26.800  12.786
65738W        W38806  41.957  23.022  10.709
65739W        W38807  19.303  25.665   0.820
65740W        W38808  14.183  33.412   1.291
65741W        W38809  13.588  12.242   3.941
65742W        W38810  23.608  23.590   4.638
65743W        W38811  17.845  44.955   0.199
65744W        W38812   2.852  30.584   2.131
65745W        W38813  14.055   9.667   2.736
65746W        W38814  34.513   1.438  11.544
65747W        W38815  11.237  18.636   1.342
65748W        W38816  16.231   2.352  10.616
65749W        W38817  14.129   2.012  14.167
65750W        W38818  13.575  28.210   1.121
65751W        W38819  27.199   2.482  14.710
65752W        W38820   5.512   8.659   4.582
65753W        W38821  11.377  26.678   2.700
65754W        W38822  18.803   2.374   0.462
65755W        W38823  29.366  29.594  10.568
65756W        W38824  40.677  28.195  12.392
65757W        W38825   2.431  11.243  13.629
65758W        W38826  24.022  20.683   2.853
65759W        W38827  34.408   6.383   1.306
65760W        W38828  15.522  27.975   1.484
65761W        W38829  36.169  17.320   4.123
65762W        W38830  24.074  10.320  12.638
65763W        W38831  16.653  29.759  11.048
65764W        W38832  20.131  41.987   1.819
65765W        W38833  37.410  32.600  11.213
65766W        W38834  31.938  35.896  14.325
65767W        W38835  43.411  16.624   1.241
65768W        W38836  23.077  26.592   3.731
65769W        W38837  17.640  15.168   2.256
65770W        W38838  39.579  13.113   2.757
65771W        W38839  27.967   1.978   3.346
65772W        W38840  24.654   0.768   4.705
65773W        W38841  39.052  33.755   3.862
65774W        W38842   7.357  18.691   1.714
65775W        W38843  18.020   0.254   3.258
65776W        W38844  23.419  26.224  14.520
65777W        W38845  39.135   0.905  11.031
65778W        W38846   6.171   2.128  12.167
65779W        W38847  29.858   0.609  11.642
65780W        W38848  37.331  32.909  11.983
65781W        W38849  17.508   9.700  14.334
65782W        W38850  44.189   2.829  13.819
65783W        W38851  16.522  23.347  14.906
65784W        W38852  34.673   4.729   1.693
65785W        W38853  24.283   5.759   1.592
65786W        W38854   2.170  11.339  14.421
65787W        W38855  34.114  40.348   1.382
65788W        W38856   5.239  42.738  13.157
65789W        W38857  38.563  30.754   2.697
65790W        W38858  30.458  25.447   4.156
65791W        W38859  22.867   6.175   0.408
65792W        W38860   4.884  32.051  13.353
65793W        W38861   9.656   0.289  13.803
65794W        W38862  24.591  16.237  14.340
65795W        W38863  20.024   4.443   2.297
65796W        W38864   8.172  34.112   0.720
65797W        W38865  27.675  42.592   1.989
65798W        W38866  20.010  43.748   1.329
65799W        W38867  27.054  24.647   1.928
65800W        W38868  14.255  12.756  12.563
65801W        W38869   1.660  24.694  12.548
65802W        W38870   9.136  18.144  14.919
65803W        W38871   2.902   4.932  13.849
65804W        W38872   8.881   9.733  14.325
65805W        W38873   3.208   7.888   3.612
65806W        W38874   2.355   0.707  13.690
65807W        W38875  30.372  11.835  14.789
65808W        W38876  18.197  22.838   4.720
65809W        W38877  12.122  17.157  11.990
65810W        W38878   6.429  29.309  14.808
65811W        W38879  11.190  41.458   3.378
65812W        W38880   6.509   9.580   1.085
65813W        W38881   5.166  11.336  13.517
65814W        W38882   3.258  19.301   4.172
65815W        W38883  22.622   4.873  10.280
65816W        W38884  43.122   2.258   0.498
65817W        W38885  23.233  19.147   1.733
65818W        W38886   2.400  16.003  14.296
65819W        W38887  44.282  37.407   2.335
65820W        W38888  41.246  19.089  14.413
65821W        W38889  21.969  30.494   3.357
65822W        W38890   8.262  27.564  11.615
65823W        W38891  41.132   8.334  11.574
65824W        W38892   7.315  39.092  11.648
65825W        W38893  15.121  13.149   4.402
65826W        W38894  34.831  43.453  14.778
65827W        W38895  14.697  33.429  14.984
65828W        W38896  19.563  41.199  10.686
65829W        W38897  26.310   7.323   5.219
65830W        W38898   2.539  27.577   4.075
65831W        W38899  23.561  15.724   4.280
65832W        W38900  24.753   1.129   2.144
65833W        W38901   0.998  26.637  12.868
65834W        W38902  43.837  20.256  14.563
65835W        W38903  42.516  43.235   0.186
65836W        W38904   8.624  30.042  12.896
65837W        W38905  44.779  33.152   0.429
65838W        W38906  33.179   2.068  12.281
65839W        W38907  15.632  37.131  13.442
65840W        W38908  24.548  22.905  13.268
65841W        W38909  24.604   6.973   1.951
65842W        W38910  34.206  13.718   3.125
65843W        W38911  23.709  44.184  11.442
65844W        W38912  24.623  18.471  10.676
65845W        W38913   9.635  41.541  10.670
65846W        W38914   6.980  29.052   3.237
65847W        W38915  34.623  26.447   2.292
65848W        W38916  44.908   9.126   4.043
65849W        W38917  43.772  39.002   3.730
65850W        W38918  17.027  15.565  13.070
65851W        W38919  44.229  13.413   1.976
65852W        W38920  21.766  43.348   3.283
65853W        W38921  37.885  35.985  14.054
65854W        W38922  24.972  17.865   0.220
65855W        W38923   7.865  19.589  11.177
65856W        W38924  13.014  32.754   3.128
65857W        W38925   3.344  22.078  10.803
65858W        W38926  38.992  40.305  10.308
65859W        W38927  28.812  15.061  13.924
65860W        W38928  44.015  25.790   1.755
65861W        W38929  13.110  25.159   3.997
65862W        W38930  42.732  24.717  14.466
65863W        W38931  36.535  25.142   2.482
65864W        W38932  10.073  29.567   2.824
65865W        W38933  34.818  39.394  13.378
65866W        W38934  11.962  13.890   0.948
65867W        W38935  25.665  22.716   0.979
65868W        W38936   4.791  38.942  12.119
65869W        W38937  42.744  23.616   1.940
65870W        W38938  32.918  21.216   2.711
65871W        W38939  28.501  40.792  10.658
65872W        W38940  30.528  23.099   4.750
65873W        W38941  17.650  19.252  13.395
65874W        W38942  41.861  28.953   3.367
65875W        W38943  25.133  30.550   2.386
65876W        W38944  19.712  26.865   2.736
65877W        W38945  39.709   2.211   4.240
65878W        W38946  29.550  23.137   1.160
65879W        W38947  34.116  38.475   1.887
65880W        W38948  26.358  34.895   1.857
65881W        W38949  22.495  13.542   3.661
65882W        W38950  24.188  39.204   0.411
65883W        W38951  43.054  43.962  10.267
65884W        W38952  16.298  36.564  14.292
65885W        W38953   2.820  12.833   3.672
65886W        W38954  30.375  29.473  13.939
65887W        W38955  20.380  38.327  11.606
65888W        W38956  23.689  30.890   4.851
65889W        W38957  23.447   4.930  11.542
65890W        W38958   3.722  17.575  10.746
65891W        W38959  15.629  33.155  12.043
65892W        W38960  20.139  17.585   4.579
65893W        W38961  16.686   9.654  13.325
65894W        W38962  23.207  31.109   4.628
65895W        W38963   1.287   0.735   2.335
65896W        W38964  10.640   4.883   1.488
65897W        W38965  44.430   4.402   4.269
65898W        W38966  17.693  35.653  14.033
65899W        W38967   3.524   5.438   3.255
65900W        W38968  21.074  18.405  14.397
65901W        W38969   2.725  35.201   3.183
65902W        W38970  17.332  31.901   2.406
65903W        W38971  36.446  22.239   2.373
65904W        W38972   8.100  15.596   4.567
65905W        W38973  27.176  14.875   2.296
65906W        W38974  36.753  14.057  12.476
65907W        W38975  18.062  21.574  10.956
65908W        W38976   3.096  25.549  13.736
65909W        W38977  36.563  20.193   1.021
65910W        W38978  20.598  20.323   3.965
65911W        W38979   4.352  26.717   2.171
65912W        W38980  15.576  37.624  10.667
65913W        W38981  25.998  19.588   2.096
65914W        W38982   6.914  14.181   2.937
65915W        W38983  19.817   1.010  12.069
65916W        W38984  42.796  24.067  12.402
65917W        W38985  37.039   9.880  11.592
65918W        W38986  44.313  31.390  14.073
65919W        W38987  37.311  32.044   2.382
65920W        W38988  23.951   8.302  12.431
65921W        W38989  23.012  29.562   3.295
65922W        W38990  15.133  41.974   4.574
65923W        W38991  27.581  15.071   1.204
65924W        W38992  42.793  25.142  10.572
65925W        W38993  43.829  42.557  11.025
65926W        W38994  39.767  10.873  10.692
65927W        W38995  30.840  42.353  12.910
65928W        W38996   2.531   6.309   2.235
65929W        W38997  28.894  27.586   3.437
65930W        W38998  39.371   1.016  13.931
65931W        W38999  43.490  14.678   2.075
65932W        W39000  33.720  26.897  11.093
65933W        W39001  18.067  37.288  10.212
65934W        W39002  19.166  37.120  13.166
65935W        W39003  12.680  16.116   2.358
65936W        W39004   7.354   2.397   2.696
65937W        W39005  31.624  25.541   4.617
65938W        W39006   8.237  39.500   4.588
65939W        W39007   6.623   3.346  13.425
65940W        W39008  10.229  12.224  14.970
65941W        W39009  22.237  12.300   3.385
65942W        W39010  24.008  37.159   4.249
65943W        W39011  20.070  40.610  11.596
65944W        W39012  43.006  32.569   3.427
65945W        W39013  15.628  42.796   1.284
65946W        W39014  25.584  21.234  10.626
65947W        W39015  39.250  19.783   0.850
65948W        W39016  41.589  25.744  13.384
65949W        W39017   5.735  35.937   4.585
65950W        W39018  43.156  23.922   0.726
65951W        W39019  10.906  15.937   0.973
65952W        W39020  11.206   5.773  13.489
65953W        W39021   3.562  17.188  10.434
65954W        W39022  19.199  16.170  12.996
65955W        W39023   1.431  44.517  13.937
65956W        W39024  39.104  26.194   0.375
65957W        W39025   3.368  13.972   2.393
65958W        W39026  29.216  19.117   4.289
65959W        W39027  11.737  20.277   1.829
65960W        W39028  26.865  29.079   3.222
65961W        W39029  41.970  35.046  11.507
65962W        W39030  13.324   6.424  13.851
65963W        W39031  39.448   6.695   0.343
65964W        W39032  23.613  21.908   2.747
65965W        W39033  38.804  16.108  12.934
65966W        W39034  32.546  34.849   4.428
65967W        W39035  32.518  44.494  11.720
65968W        W39036  43.731   4.467   2.773
65969W        W39037  30.402  28.950  12.547
65970W        W39038  26.152   2.306   0.007
65971W        W39039   4.987  40.356   1.335
65972W        W39040  10.239  20.809   0.010
65973W        W39041   1.389  13.364  13.107
65974W        W39042  42.449  11.668   4.642
65975W        W39043  18.064  29.289  10.716
65976W        W39044  32.960  12.761  12.527
65977W        W39045  16.280  39.456   3.165
65978W        W39046   3.204  43.861   2.881
65979W        W39047  40.340  35.636   1.101
65980W        W39048  31.833  27.596   3.287
65981W        W39049  36.026  23.412   4.636
65982W        W39050  44.377  32.066   5.281
65983W        W39051  41.678  42.994  10.589
65984W        W39052   6.273  27.936   2.645
65985W        W39053  14.564  26.234   2.305
65986W        W39054   6.977  10.703   4.126
65987W        W39055  42.236  27.600   0.509
65988W        W39056  29.709   6.274  13.511
65989W        W39057  31.141  16.759  13.314
65990W        W39058  39.459   2.371  10.041
65991W        W39059  24.515  24.800   4.055
65992W        W39060  30.542  17.470   3.527
65993W        W39061  11.636  43.258  12.377
65994W        W39062  23.501  29.041  13.144
65995W        W39063   1.956   2.711  13.714
65996W        W39064  12.302  10.266   4.201
65997W        W39065  32.552  35.147   3.242
65998W        W39066  15.676  31.629   2.316
65999W        W39067   8.440  28.976   0.761
66000W        W39068  22.593  44.020  14.804
66001W        W39069  39.767  35.384   3.332
66002W        W39070  33.371   4.810  13.435
66003W        W39071  27.934  35.625   2.361
66004W        W39072   9.895  37.094  14.287
66005W        W39073  18.634  38.474   1.433
66006W        W39074  16.565  12.100   0.791
66007W        W39075  25.913  39.083  14.787
66008W        W39076   2.588  26.755  12.114
66009W        W39077   7.863  32.190   4.190
66010W        W39078  25.026  16.027   0.866
66011W        W39079   1.285  21.344   0.931
66012W        W39080  22.537  20.038  12.520
66013W        W39081   4.525  14.156  11.525
66014W        W39082  30.454  15.151   1.376
66015W        W39083   1.349  43.551   4.173
66016W        W39084  43.452  12.649   5.011
66017W        W39085   5.420   1.363  10.533
66018W        W39086   0.490  24.112  12.487
66019W        W39087  40.760   3.855   1.473
66020W        W39088  15.330  19.004   1.813
66021W        W39089   0.896  21.247  14.998
66022W        W39090  25.470  21.706   0.378
66023W        W39091  38.555   8.288   3.206
66024W        W39092  33.900  20.843  10.846
66025W        W39093   5.212  25.134   3.078
66026W        W39094  42.447  28.095   0.331
66027W        W39095   4.051  18.770   0.370
66028W        W39096   0.770  15.372   2.395
66029W        W39097  33.313   5.332  14.979
66030W        W39098   8.803  25.540  12.987
66031W        W39099  41.538  39.888   3.751
66032W        W39100   3.185  37.498  13.163
66033W        W39101  36.255  29.892  14.396
66034W        W39102  38.001   2.370  10.652
66035W        W39103   9.815  42.283   1.364
66036W        W39104  28.746  25.661   0.192
66037W        W39105  34.027  34.300  13.045
66038W        W39106  11.173  13.365   4.561
66039W        W39107  18.245  27.566  13.491
66040W        W39108  32.926  44.441  11.363
66041W        W39109  21.530   3.383   4.223
66042W        W39110  24.521  28.374  12.060
66043W        W39111  19.585   8.324  14.159
66044W        W39112  32.718  17.229   0.545
66045W        W39113  24.222  41.547  12.089
66046W        W39114   2.038  29.056   1.260
66047W        W39115  23.997   3.841  14.288
66048W        W39116  39.815  34.585  10.903
66049W        W39117  36.889  35.244  14.820
66050W        W39118  38.759   3.834   3.179
66051W        W39119   8.369  21.179   4.283
66052W        W39120   4.463  17.685  14.307
66053W        W39121   7.182  21.783  11.121
66054W        W39122   2.404  28.493   1.686
66055W        W39123  37.059  13.045   3.162
66056W        W39124  27.001  17.628   0.223
66057W        W39125  34.085  18.115   0.832
66058W        W39126  32.581   2.597  12.401
66059W        W39127   3.353   9.057  13.577
66060W        W39128  27.490  28.634   4.082
66061W        W39129  36.405  15.410   0.857
66062W        W39130  29.209  10.291  13.822
66063W        W39131  30.136   2.846  12.827
66064W        W39132  33.943  35.407  10.935
66065W        W39133  20.716   1.209  11.900
66066W        W39134  21.707  17.194  11.471
66067W        W39135   0.289   9.274   4.379
66068W        W39136  28.622  37.549   0.781
66069W        W39137  42.870  10.669   4.717
66070W        W39138   8.842   1.382   0.688
66071W        W39139  16.535  42.142   3.115
66072W        W39140  27.702  22.587   2.229
66073W        W39141   9.330  27.345  12.947
66074W        W39142  17.130  37.646   4.052
66075W        W39143  11.688  35.967   2.439
66076W        W39144  23.018  13.720  12.116
66077W        W39145  17.741  26.285  10.434
66078W        W39146  12.155  20.192  10.487
66079W        W39147  12.628  27.984  11.088
66080W        W39148  22.702  35.284  12.175
66081W        W39149  33.989  23.216   4.081
66082W        W39150  16.162  23.979  13.319
66083W        W39151  38.049  21.442  14.086
66084W        W39152  20.032  15.409   0.324
66085W        W39153  29.188  44.338  13.894
66086W        W39154   9.783  23.590  14.281
66087W        W39155  20.762   4.254  14.505
66088W        W39156  19.182  39.286  12.997
66089W        W39157  41.570   6.462  10.442
66090W        W39158  14.138  22.687   2.816
66091W        W39159  34.529  19.677  10.617
66092W        W39160  15.319  43.259   2.790
66093W        W39161  32.879  38.578  10.605
66094W        W39162  33.631  31.873   3.648
66095W        W39163  16.805   0.498   2.283
66096W        W39164  17.569  10.956   1.306
66097W        W39165  10.566  31.930  12.519
66098W        W39166  12.372  18.081   0.663
66099W        W39167  17.623  35.585  12.146
66100W        W39168   9.576  16.401   2.930
66101W        W39169  25.227  19.679  12.413
66102W        W39170  38.410  28.972   1.997
66103W        W39171  37.271  17.614   1.281
66104W        W39172  30.944  41.530  14.058
66105W        W39173  44.998  43.830  12.008
66106W        W39174  29.993  42.461  11.762
66107W        W39175   3.879  22.026   2.699
66108W        W39176   6.459  17.751   3.267
66109W        W39177   2.262  22.583   2.035
66110W        W39178  32.174  11.710   2.445
66111W        W39179  41.517  40.040   3.242
66112W        W39180  10.119  36.522  13.091
66113W        W39181  35.903   0.832   1.833
66114W        W39182  17.757  32.079  14.303
66115W        W39183  30.565  39.513   3.757
66116W        W39184   7.837  39.537   4.118
66117W        W39185  15.160  40.068  14.382
66118W        W39186  11.620  10.321  12.153
66119W        W39187  24.814   1.313  13.720
66120W        W39188  43.044  11.389   4.024
66121W        W39189  33.907  27.067   1.215
66122W        W39190  15.173  14.196   4.145
66123W        W39191  30.986  30.861  13.928
66124W        W39192  21.222  41.871  13.135
66125W        W39193  12.602   2.292  10.758
66126W        W39194  39.337  12.831   0.877
66127W        W39195  21.637  21.944   3.721
66128W        W39196  29.039  12.577  12.004
66129W        W39197  18.904  37.818  12.214
66130W        W39198   2.211   2.484   2.964
66131W        W39199  43.685  19.119   0.659
66132W        W39200  21.389  26.332  12.006
66133W        W39201   8.227  16.104   1.980
66134W        W39202  34.445  19.846   3.791
66135W        W39203  32.845  26.906  13.880
66136W        W39204  20.211  29.621  12.514
66137W        W39205  17.504   1.742   3.144
66138W        W39206  33.092  32.666   1.384
66139W        W39207  21.566  18.788   4.145
66140W        W39208  30.124  29.567  14.404
66141W        W39209  22.634  32.569   1.847
66142W        W39210  15.232   4.776   4.056
66143W        W39211   6.427  34.380   0.254
66144W        W39212  34.453  21.861   0.857
66145W        W39213  14.607   9.766  14.428
66146W        W39214  44.696  21.130  11.605
66147W        W39215  14.379   2.538   5.129
66148W        W39216   8.933   7.897  13.889
66149W        W39217  24.377  33.918   4.150
66150W        W39218  39.769  17.233  12.522
66151W        W39219  34.326  18.995   1.688
66152W        W39220   2.301  42.859   2.301
66153W        W39221  11.878   2.273   0.746
66154W        W39222  16.799  15.159  12.904
66155W        W39223  23.474  33.991   0.031
66156W        W39224  24.436  14.602  12.731
66157W        W39225  21.488  37.201  10.187
66158W        W39226  43.776  18.075  13.025
66159W        W39227  31.393  30.631  10.951
66160W        W39228  13.275  40.274  13.711
66161W        W39229  43.407  29.157  11.229
66162W        W39230   3.084  26.017   1.157
66163W        W39231   5.694  42.534  12.971
66164W        W39232  29.599  14.870   1.261
66165W        W39233  26.145  31.412   4.202
66166W        W39234  13.592  35.134   1.387
66167W        W39235  34.828  18.070  14.490
66168W        W39236  18.582   1.541  14.311
66169W        W39237   3.894   4.868  12.424
66170W        W39238   9.559  32.452   0.943
66171W        W39239  34.770  26.633  11.158
66172W        W39240  28.088   4.875  14.978
66173W        W39241  24.716  24.500   3.647
66174W        W39242   0.693  40.547  10.206
66175W        W39243   8.250  44.884  12.553
66176W        W39244  10.253  35.696   4.292
66177W        W39245  36.550   5.962   3.462
66178W        W39246  29.050  10.749   1.159
66179W        W39247  43.246   8.572   0.526
66180W        W39248   9.897  40.443  12.538
66181W        W39249  13.568  21.569   2.994
66182W        W39250   5.225  13.685   4.432
66183W        W39251  44.486  18.766   4.066
66184W        W39252   9.575  29.618   2.722
66185W        W39253  38.968  32.324  11.620
66186W        W39254   4.954  44.707   1.940
66187W        W39255  11.347  31.089   3.602
66188W        W39256  28.544  30.313   3.768
66189W        W39257  43.876  34.409   0.713
66190W        W39258  12.559  29.416   0.351
66191W        W39259  31.128  34.946   1.389
66192W        W39260  18.877   1.486   0.103
66193W        W39261   3.634  18.056  12.121
66194W        W39262   3.260  44.219  11.960
66195W        W39263  43.158  22.130   0.963
66196W        W39264   2.379  43.912  10.684
66197W        W39265  37.775  42.677   3.628
66198W        W39266  12.899   8.825  10.618
66199W        W39267  43.468  29.682   4.579
66200W        W39268  13.176   1.733  10.715
66201W        W39269  11.614  40.898  14.239
66202W        W39270  11.549  19.493   4.096
66203W        W39271  37.351  37.302  10.969
66204W        W39272  33.467   6.494   4.531
66205W        W39273  39.782  32.120   2.207
66206W        W39274  42.976  40.434   2.859
66207W        W39275   0.399   2.205   0.881
66208W        W39276  26.138  41.742  10.681
66209W        W39277  25.454   1.202  11.044
66210W        W39278   2.806  29.992   0.409
66211W        W39279  38.534  35.056   3.795
66212W        W39280  42.009  12.547   4.068
66213W        W39281  28.447  18.677   1.310
66214W        W39282  30.510   3.775  13.354
66215W        W39283  43.721   0.733   2.360
66216W        W39284   9.911   9.304   1.100
66217W        W39285  25.307  33.640  12.765
66218W        W39286  25.609  21.168   3.238
66219W        W39287  32.731  35.424   1.723
66220W        W39288  17.056  31.215   1.863
66221W        W39289  42.778  34.067   0.394
66222W        W39290  12.592  41.565  14.824
66223W        W39291  16.603  33.906   1.705
66224W        W39292  37.125  29.121   4.154
66225W        W39293   0.481  26.413   0.850
66226W        W39294   7.860  11.372  14.806
66227W        W39295  15.820  27.121  10.646
66228W        W39296  14.210   3.833  13.385
66229W        W39297  40.799  34.512   4.220
66230W        W39298  37.376  42.733   5.029
66231W        W39299  27.359  28.184   1.971
66232W        W39300  26.734  37.355  14.365
66233W        W39301  22.705   8.433   0.534
66234W        W39302  24.275  43.916   4.751
66235W        W39303  11.212  25.404   4.567
66236W        W39304  32.125  40.018  14.522
66237W        W39305  40.000  37.825  13.679
66238W        W39306  22.288  13.852  14.825
66239W        W39307  13.832  37.979  12.513
66240W        W39308  17.319  16.690  14.340
66241W        W39309   6.605  37.788   0.489
66242W        W39310  11.723  22.334   3.758
66243W        W39311   4.166  22.927  11.947
66244W        W39312  36.477  42.583  14.837
66245W        W39313  15.231  35.349  12.541
66246W        W39314   8.706   2.450  10.581
66247W        W39315  20.975  24.239   2.602
66248W        W39316   9.298  35.157  12.399
66249W        W39317  33.669  21.227   3.275
66250W        W39318  20.665  29.011  10.924
66251W        W39319  36.423  33.382   2.176
66252W        W39320  30.685  41.925   2.284
66253W        W39321   2.729  42.878  10.666
66254W        W39322  33.802  39.853   0.558
66255W        W39323  35.876  12.648  12.505
66256W        W39324  15.222  34.290  11.620
66257W        W39325  43.528   5.876   2.603
66258W        W39326  28.977  29.582  12.499
66259W        W39327  18.582  18.566   1.912
66260W        W39328  14.460   6.171  11.928
66261W        W39329  34.427  31.842   0.942
66262W        W39330   1.823  37.119  14.140
66263W        W39331  20.768  42.424   0.098
66264W        W39332  31.665   2.644   2.344
66265W        W39333  35.459  43.322  10.365
66266W        W39334   6.975  10.514  14.246
66267W        W39335   0.070  40.971  12.811
66268W        W39336  23.230  44.343   4.650
66269W        W39337  18.128  13.608   3.771
66270W        W39338  43.227  35.862   4.050
66271W        W39339   2.992  27.192  14.751
66272W        W39340   9.680   6.498   2.742
66273W        W39341  27.741  11.362   4.552
66274W        W39342  31.386  19.783   2.063
66275W        W39343  39.492  33.569  11.945
66276W        W39344   5.352  31.599   2.349
66277W        W39345   6.279   0.608  14.927
66278W        W39346  21.573   3.881  12.031
66279W        W39347  38.871  21.711  12.982
66280W        W39348   7.622  41.624   1.914
66281W        W39349  33.179  23.271   2.212
66282W        W39350  15.784  25.379  13.706
66283W        W39351  11.599  30.625   0.901
66284W        W39352  23.328  25.785   2.505
66285W        W39353  31.822  26.229   2.338
66286W        W39354  12.586  13.647  10.947
66287W        W39355   4.358   5.479  10.677
66288W        W39356  17.234  23.482   0.713
66289W        W39357  23.126   9.239  12.568
66290W        W39358   2.920  42.882  11.268
66291W        W39359   1.865   5.214  12.958
66292W        W39360  13.612  31.496  13.784
66293W        W39361   2.343  27.439   1.848
66294W        W39362  42.486  12.823  10.883
66295W        W39363   9.916  42.023  12.601
66296W        W39364  43.040  38.273  12.105
66297W        W39365  43.885  26.910  14.928
66298W        W39366  14.612  28.083   1.177
66299W        W39367  24.580  16.970   3.828
66300W        W39368  13.714  12.709  10.799
66301W        W39369   6.446  29.142   1.896
66302W        W39370   7.320   7.243  13.099
66303W        W39371  39.037  14.827  13.887
66304W        W39372  13.220  11.427  12.067
66305W        W39373   6.872  38.760  14.432
66306W        W39374  18.995  27.491  10.673
66307W        W39375   9.927   8.153  12.889
66308W        W39376  26.639  33.205  11.613
66309W        W39377  17.606  40.835  10.633
66310W        W39378  19.039  33.752  11.049
66311W        W39379   3.884  22.159  13.577
66312W        W39380  19.964  16.570  13.898
66313W        W39381  22.233  18.882   2.691
66314W        W39382   2.214   8.795   9.897
66315W        W39383  40.257  16.017   2.267
66316W        W39384  25.667   3.788   1.839
66317W        W39385   6.913  24.794  14.130
66318W        W39386  32.576  11.836  11.103
66319W        W39387  18.846  18.119  11.026
66320W        W39388  10.869  36.770   1.807
66321W        W39389   5.714  24.134   1.398
66322W        W39390  20.691  24.213  12.121
66323W        W39391  37.097  39.569  12.194
66324W        W39392  27.344  13.877   1.625
66325W        W39393  24.457  12.199   4.499
66326W        W39394   0.753  17.626  13.318
66327W        W39395  14.547  21.608   0.790
66328W        W39396  13.324   3.018   0.589
66329W        W39397   4.209  22.425   2.191
66330W        W39398  27.889   7.451  13.899
66331W        W39399  32.157  34.632   2.247
66332W        W39400  30.550  42.273   4.578
66333W        W39401   1.923   5.671  11.507
66334W        W39402   8.728   5.051  11.526
66335W        W39403   1.731  14.765   2.646
66336W        W39404  32.321   3.309  13.472
66337W        W39405  42.283  26.339   1.162
66338W        W39406  36.617  29.087  13.059
66339W        W39407  25.269   8.812  14.193
66340W        W39408  23.715  26.575   2.890
66341W        W39409   7.446  30.225   3.159
66342W        W39410  33.069  20.509   1.863
66343W        W39411  33.098  16.048  14.127
66344W        W39412  32.099  35.497   4.864
66345W        W39413   4.333  13.670   0.815
66346W        W39414  10.197  17.129   2.351
66347W        W39415  16.792  20.603   3.713
66348W        W39416  24.026  19.927   5.075
66349W        W39417  41.548   9.113   3.410
66350W        W39418   3.230  26.706  10.502
66351W        W39419   0.232   1.849   4.851
66352W        W39420   9.475   9.735  10.727
66353W        W39421  42.942  23.012  10.674
66354W        W39422  25.725  37.065   4.876
66355W        W39423   0.255  24.584  13.318
66356W        W39424  36.101  19.132   4.380
66357W        W39425  36.464  21.984   1.891
66358W        W39426   5.336  44.164  12.473
66359W        W39427   6.647  41.205   3.812
66360W        W39428  10.476  17.677   2.386
66361W        W39429  14.228   9.631   0.699
66362W        W39430   9.659  40.504   4.140
66363W        W39431   4.250  28.158  12.205
66364W        W39432  44.970   8.098   0.904
66365W        W39433   6.863  36.012   2.405
66366W        W39434  30.193  20.208  12.689
66367W        W39435  33.189  10.160  11.995
66368W        W39436   3.280   9.847  10.616
66369W        W39437   0.655  23.824  13.944
66370W        W39438  32.517  11.807   4.089
66371W        W39439  28.094  25.004  13.889
66372W        W39440  26.753  35.998   0.926
66373W        W39441   6.412  24.467   4.310
66374W        W39442  41.370  41.084   0.868
66375W        W39443  10.420  24.056   4.410
66376W        W39444  42.435  24.992  12.474
66377W        W39445  10.818   2.000   0.258
66378W        W39446  35.645  19.557   2.268
66379W        W39447  16.458  34.163  12.819
66380W        W39448  38.903  21.778   2.822
66381W        W39449  10.100  44.304   2.353
66382W        W39450  15.788   8.164  14.456
66383W        W39451   9.374  30.926  14.529
66384W        W39452  22.680  31.463   2.328
66385W        W39453  37.363  35.965  11.446
66386W        W39454  33.256  10.327  11.491
66387W        W39455  32.959  24.034   1.898
66388W        W39456  33.903  36.756   1.369
66389W        W39457  26.551  10.209   9.845
66390W        W39458  22.536   8.227  14.765
66391W        W39459  14.699   6.665   4.059
66392W        W39460  39.503  18.562   2.251
66393W        W39461  21.088  20.466  13.432
66394W        W39462  20.550  42.277  11.146
66395W        W39463  28.988   2.989   1.923
66396W        W39464  19.156  23.953  12.349
66397W        W39465   8.822   7.907  11.037
66398W        W39466   7.415   8.886   1.241
66399W        W39467  29.588   7.258   2.386
66400W        W39468  11.308  19.955  13.375
66401W        W39469  12.313  30.568  12.367
66402W        W39470  40.498  42.265  12.933
66403W        W39471  18.598  14.315   1.610
66404W        W39472  23.332  33.509   0.367
66405W        W39473  31.003  38.295  12.297
66406W        W39474  17.706   3.621   4.245
66407W        W39475  29.478  13.854  11.599
66408W        W39476   5.361  44.798   1.017
66409W        W39477  29.794  22.417   4.612
66410W        W39478  41.767  28.423   1.810
66411W        W39479  16.235  10.385  14.380
66412W        W39480  15.316  29.713  13.976
66413W        W39481  29.541  26.717  14.865
66414W        W39482  26.691  30.141  13.011
66415W        W39483  20.962   1.438  11.029
66416W        W39484   5.986  10.525   1.759
66417W        W39485   3.322  35.430   3.986
66418W        W39486  42.435  24.482   3.817
66419W        W39487  44.172   6.314   3.743
66420W        W39488  12.066   0.040   0.289
66421W        W39489   8.910  38.593  14.343
66422W        W39490  32.608  23.674   1.791
66423W        W39491   2.859  21.612  12.917
66424W        W39492  29.474   2.466   2.590
66425W        W39493  19.760  21.527   1.573
66426W        W39494   0.975  19.307   0.268
66427W        W39495   3.750   4.792  10.589
66428W        W39496   4.406  16.168   2.655
66429W        W39497  28.677   5.388  12.934
66430W        W39498  36.926   7.215  12.956
66431W        W39499  28.558  26.211  12.493
66432W        W39500  43.390  24.688   3.903
66433W        W39501   5.650  33.414   1.934
66434W        W39502  40.668  38.795  10.315
66435W        W39503  11.352  18.051  10.282
66436W        W39504  25.083  28.463  14.952
66437W        W39505  36.260  31.991   1.006
66438W        W39506   9.857  35.061   2.861
66439W        W39507  35.775  33.800   5.404
66440W        W39508  24.739   1.346  14.229
66441W        W39509  34.920  44.437  12.477
66442W        W39510  41.753  11.331   2.193
66443W        W39511   7.833  44.449   0.298
66444W        W39512  13.152   0.170  11.525
66445W        W39513  33.895  22.146   0.283
66446W        W39514  24.777  12.858  14.961
66447W        W39515  28.633  24.425  11.557
66448W        W39516   0.931  16.275  12.660
66449W        W39517   8.445   2.015  12.431
66450W        W39518  31.901  18.780   1.199
66451W        W39519   3.429   2.842   4.360
66452W        W39520  38.954  11.248   4.616
66453W        W39521   7.263   1.914   2.964
66454W        W39522  28.533   9.205   4.702
66455W        W39523  30.981  41.365   3.210
66456W        W39524   5.698   8.738  14.944
66457W        W39525   8.809  40.516   2.392
66458W        W39526  24.158  13.506  13.011
66459W        W39527  18.222  22.470  12.385
66460W        W39528  40.790  36.308  10.913
66461W        W39529  37.617   5.340   4.886
66462W        W39530   3.799  39.268  13.023
66463W        W39531  39.472   7.790  11.379
66464W        W39532   2.545  11.424  10.212
66465W        W39533  37.335  27.743  13.248
66466W        W39534  38.114  41.817   3.115
66467W        W39535  42.765   9.755   2.898
66468W        W39536  31.924  27.716  13.908
66469W        W39537  39.983   3.633   0.830
66470W        W39538   7.838   6.978   1.356
66471W        W39539  34.135  38.045   2.458
66472W        W39540  12.706  37.297  12.892
66473W        W39541   4.473  12.169   3.746
66474W        W39542  11.533  36.979  14.125
66475W        W39543  38.078  32.983   0.881
66476W        W39544  11.606  43.502  10.937
66477W        W39545  20.334  24.774   1.981
66478W        W39546  10.622  16.183   2.150
66479W        W39547  14.197  32.100   2.175
66480W        W39548   1.800   8.484  14.807
66481W        W39549  10.344  34.607   2.382
66482W        W39550  28.994  20.933   0.460
66483W        W39551   9.322  12.125  14.936
66484W        W39552  10.653  35.854   0.321
66485W        W39553  37.573  30.965  11.169
66486W        W39554  44.880  41.216  13.380
66487W        W39555  12.257  40.429  10.651
66488W        W39556  27.903  31.232   0.409
66489W        W39557   4.664  29.832   2.879
66490W        W39558  28.468  37.050  11.167
66491W        W39559  35.414  14.274   2.389
66492W        W39560  27.158  44.842   3.270
66493W        W39561  23.241   1.475   3.694
66494W        W39562  15.545   2.057   2.407
66495W        W39563  27.522  44.764   3.993
66496W        W39564   3.414  26.910  14.863
66497W        W39565   5.907   2.497   0.792
66498W        W39566   0.915   6.351   2.179
66499W        W39567   1.332  44.719   0.284
66500W        W39568   3.524  39.397  14.836
66501W        W39569  23.115  16.307   0.318
66502W        W39570  40.870  23.620  11.403
66503W        W39571  30.967  40.917   3.462
66504W        W39572  11.086  26.888   1.412
66505W        W39573  31.542  10.839  12.880
66506W        W39574  25.006  28.354  11.594
66507W        W39575   1.923  19.500  11.524
66508W        W39576   6.215  36.524  12.055
66509W        W39577  25.016  16.396  10.728
66510W        W39578  22.225  28.902  12.594
66511W        W39579  23.746  39.499  14.301
66512W        W39580  38.993  14.336   1.682
66513W        W39581  20.021  27.101  11.998
66514W        W39582  33.951  38.458   0.042
66515W        W39583  36.402  26.559  10.412
66516W        W39584  24.782  41.407   4.249
66517W        W39585  23.086   0.523   5.144
66518W        W39586  34.029  19.019   2.859
66519W        W39587  22.295  17.936   3.889
66520W        W39588  10.374  39.258  13.049
66521W        W39589  31.516   1.238  12.576
66522W        W39590   2.174   3.516   4.562
66523W        W39591   1.599   6.176   0.953
66524W        W39592  10.765   8.584   2.389
66525W        W39593  23.417  33.409  14.398
66526W        W39594  31.884  30.048  11.795
66527W        W39595  12.932  26.557   0.386
66528W        W39596  41.519  44.005   0.290
66529W        W39597  16.257  29.567  11.312
66530W        W39598  40.560  29.550   1.263
66531W        W39599  28.041  33.017  12.108
66532W        W39600  21.625  18.264  14.248
66533W        W39601  13.711  18.431   1.352
66534W        W39602   6.438  23.972   0.882
66535W        W39603   0.605  32.655  12.131
66536W        W39604  25.283  23.612   2.274
66537W        W39605  36.803  14.660   0.981
66538W        W39606  13.776  15.066  11.317
66539W        W39607  11.441  16.323   1.766
66540W        W39608  19.142  41.032  13.893
66541W        W39609  11.672  15.135  13.025
66542W        W39610  30.995  18.528  12.475
66543W        W39611  32.484  10.735  11.505
66544W        W39612   3.968  41.816   2.305
66545W        W39613  37.676  32.711   0.031
66546W        W39614  29.428  15.063  11.908
66547W        W39615  32.396   0.385   2.676
66548W        W39616  36.343  20.594   2.817
66549W        W39617   2.342  10.314  12.955
66550W        W39618   7.629  21.896   4.123
66551W        W39619  36.837  17.563  13.936
66552W        W39620  29.596  35.169  12.979
66553W        W39621  19.607  19.865  13.319
66554W        W39622   4.683  32.530   2.841
66555W        W39623  26.438  27.840  13.857
66556W        W39624  18.001   3.922  11.039
66557W        W39625  22.717  31.532  13.803
66558W        W39626  37.880  28.889  12.041
66559W        W39627   2.504   8.507   2.742
66560W        W39628  34.445  32.708   4.713
66561W        W39629  30.663  40.402   4.701
66562W        W39630  29.220  20.209   2.112
66563W        W39631  40.469   8.494   1.375
66564W        W39632  20.309   8.308  13.445
66565W        W39633  41.857  26.597  12.484
66566W        W39634   1.837   8.248   1.663
66567W        W39635  21.712  16.196   4.150
66568W        W39636  24.703  25.097   1.496
66569W        W39637  20.282  18.181  11.386
66570W        W39638  37.753  14.659  13.444
66571W        W39639  40.981  35.822  13.526
66572W        W39640  11.280  15.894   5.048
66573W        W39641   4.883  16.809  12.071
66574W        W39642  37.725  40.803  12.063
66575W        W39643  38.570   8.805   3.063
66576W        W39644   0.422  10.906  12.964
66577W        W39645  42.017  30.906  13.855
66578W        W39646  41.942  40.565   5.058
66579W        W39647  23.903  25.447   1.717
66580W        W39648  38.365  42.836   5.074
66581W        W39649   5.329  11.114   4.537
66582W        W39650  31.375  36.324   3.584
66583W        W39651  25.632  37.483   5.608
66584W        W39652  22.329  10.699  12.948
66585W        W39653  27.134  25.438   2.256
66586W        W39654  22.979  39.432   1.164
66587W        W39655   9.335  21.768   0.982
66588W        W39656  22.451  34.440  10.247
66589W        W39657  18.323   5.841  11.968
66590W        W39658   5.409  18.544   3.380
66591W        W39659  24.981   0.442  12.307
66592W        W39660  18.453  11.941  11.641
66593W        W39661  34.985  21.427  10.304
66594W        W39662  28.723  25.606   4.155
66595W        W39663   3.033  21.735   3.834
66596W        W39664  14.727  16.349   1.451
66597W        W39665  26.449  29.880   3.800
66598W        W39666  16.870  18.784   1.756
66599W        W39667  44.582  22.480  12.044
66600W        W39668   5.316   4.384   1.769
66601W        W39669  40.100   8.142   1.279
66602W        W39670  25.984  40.078  11.503
66603W        W39671  15.720  22.180  12.564
66604W        W39672  18.315   2.466  13.056
66605W        W39673  25.567  10.585   2.293
66606W        W39674  32.102  15.579   3.673
66607W        W39675   1.196  27.967  12.201
66608W        W39676  44.235  29.394  10.446
66609W        W39677  39.425  35.641  10.589
66610W        W39678  26.606   1.308  13.210
66611W        W39679  33.535  42.678  10.533
66612W        W39680   0.405  19.580  14.294
66613W        W39681   9.844  20.353  10.692
66614W        W39682  30.784  18.374  12.028
66615W        W39683  32.438  38.779  13.613
66616W        W39684  11.595  33.840  13.987
66617W        W39685   4.759  35.593   1.880
66618W        W39686   4.199  20.542  11.814
66619W        W39687  30.171   5.404   0.340
66620W        W39688   6.221   4.249  13.335
66621W        W39689  30.551  13.102  14.044
66622W        W39690  41.393   6.177   1.333
66623W        W39691   8.471  28.509   1.170
66624W        W39692  14.879  14.925  12.581
66625W        W39693  32.087   0.936   3.223
66626W        W39694   4.423  25.401   1.349
66627W        W39695  31.865   1.204  11.645
66628W        W39696  27.714  17.315  10.603
66629W        W39697  29.415  34.666   2.404
66630W        W39698  31.683  37.678   1.582
66631W        W39699  32.530  30.897  13.431
66632W        W39700   1.235  38.929  14.833
66633W        W39701  36.019  18.644   2.413
66634W        W39702  12.540  17.805   5.022
66635W        W39703   0.487  20.668  10.496
66636W        W39704  17.782  35.955   4.530
66637W        W39705   0.330  30.260  13.493
66638W        W39706  28.652   5.350   4.874
66639W        W39707  21.832   2.916  13.510
66640W        W39708  28.124  31.912   1.428
66641W        W39709  34.539  12.371  12.137
66642W        W39710   4.711  37.477  10.999
66643W        W39711  41.383  40.803  13.916
66644W        W39712  38.993  42.146   1.378
66645W        W39713  43.818  38.411  12.517
66646W        W39714   7.846  26.953  13.617
66647W        W39715  19.330  14.752  14.537
66648W        W39716  30.855  27.641   3.601
66649W        W39717  12.985  15.182  12.895
66650W        W39718  25.455  18.042  11.079
66651W        W39719  22.083  16.554   1.379
66652W        W39720  38.263   9.164   0.718
66653W        W39721  10.215  10.699   0.913
66654W        W39722  11.778  30.025   2.657
66655W        W39723  36.930  15.127  10.710
66656W        W39724  16.092  31.626  11.594
66657W        W39725  25.188  24.002  14.397
66658W        W39726  37.569   7.856   3.674
66659W        W39727  26.435  18.842  13.016
66660W        W39728   6.404  28.515  14.838
66661W        W39729  29.015   8.173   0.719
66662W        W39730  38.887  38.521  13.146
66663W        W39731  17.736  26.754   0.910
66664W        W39732  44.428  10.486   4.082
66665W        W39733  17.738  26.169  10.930
66666W        W39734  18.605  20.741  12.750
66667W        W39735  20.396  35.923  12.952
66668W        W39736  11.881   4.968   3.614
66669W        W39737  15.667  34.972   4.741
66670W        W39738   8.663  44.767  12.869
66671W        W39739   1.708  24.394  11.705
66672W        W39740   2.344  43.485  12.613
66673W        W39741   2.585  24.642  13.855
66674W        W39742  17.101  43.732   2.468
66675W        W39743  32.982  27.376   0.796
66676W        W39744  23.441   6.316  11.186
66677W        W39745  30.462  26.537   2.204
66678W        W39746  21.747  39.990  14.652
66679W        W39747  24.215  29.653  13.393
66680W        W39748   3.356  36.698   0.883
66681W        W39749   6.774  14.023  10.528
66682W        W39750  18.346  24.285  11.209
66683W        W39751   4.202  28.554  13.637
66684W        W39752  24.182  11.634  10.742
66685W        W39753   1.845  21.719  11.049
66686W        W39754   7.631  36.545   2.444
66687W        W39755   3.713  17.131   4.589
66688W        W39756  12.330   9.657   0.325
66689W        W39757  15.265  33.940   1.812
66690W        W39758   8.420  14.726   2.632
66691W        W39759   7.684  13.097   2.676
66692W        W39760  43.508  13.529   2.381
66693W        W39761  17.598   2.307  12.120
66694W        W39762  12.074  15.130  10.520
66695W        W39763  31.918  44.478   5.071
66696W        W39764  32.163  10.664   0.273
66697W        W39765  43.902  28.153  10.617
66698W        W39766  28.236  25.061  12.109
66699W        W39767   6.363  34.951  11.963
66700W        W39768  44.055  11.319   5.056
66701W        W39769  37.225  41.458  11.056
66702W        W39770  43.447   4.562   0.356
66703W        W39771   0.744  19.096  12.178
66704W        W39772   2.485  29.081   0.319
66705W        W39773  13.623   9.649  11.148
66706W        W39774   6.927  24.561   1.308
66707W        W39775  23.775  25.959  13.992
66708W        W39776  11.755  15.542  10.287
66709W        W39777  41.949   4.293   3.801
66710W        W39778  23.002   6.206   1.843
66711W        W39779  12.201   2.252   4.635
66712W        W39780  13.222   4.823   3.327
66713W        W39781  29.128  33.001   3.077
66714W        W39782  10.057  33.669   4.137
66715W        W39783  36.783  36.940  11.435
66716W        W39784  38.786  14.145   4.609
66717W        W39785  41.990  24.765   3.515
66718W        W39786  12.668   3.204   2.942
66719W        W39787  11.335   3.519   1.859
66720W        W39788  27.417  12.734  10.405
66721W        W39789   6.911  27.436   0.801
66722W        W39790  21.623   6.501  13.069
66723W        W39791  33.703  14.683  11.355
66724W        W39792  43.843  12.718  14.499
66725W        W39793  17.062  15.127  13.395
66726W        W39794  37.699  41.340  13.156
66727W        W39795  21.575  18.654   0.890
66728W        W39796  18.571  29.192  14.991
66729W        W39797   7.561  27.986   3.678
66730W        W39798   7.879  10.330   1.844
66731W        W39799  24.182  10.017  11.688
66732W        W39800  10.777  15.300  12.078
66733W        W39801  35.528  33.885  10.894
66734W        W39802  40.676  27.498   4.705
66735W        W39803   4.035  41.968   3.190
66736W        W39804  23.641   0.873   0.238
66737W        W39805  10.216  16.202   3.271
66738W        W39806  27.507  44.631  14.707
66739W        W39807  36.471  40.901   3.845
66740W        W39808  13.785   7.312   3.088
66741W        W39809  17.746   1.393   0.931
66742W        W39810  17.269  28.722   3.384
66743W        W39811  16.652  43.573   3.698
66744W        W39812  12.691  25.918   2.937
66745W        W39813  24.924   3.504   1.245
66746W        W39814  24.478  36.963   4.181
66747W        W39815  26.173   1.465  10.723
66748W        W39816   8.441  37.272  10.505
66749W        W39817  19.021  13.352   2.463
66750W        W39818  39.612  38.000  11.099
66751W        W39819  27.721  14.056   2.356
66752W        W39820   8.842  17.610  11.198
66753W        W39821  23.577   1.453   2.725
66754W        W39822  29.068  18.759   3.288
66755W        W39823  42.821  41.586  10.815
66756W        W39824  29.848  10.594  10.564
66757W        W39825  12.780   9.648   1.405
66758W        W39826  25.919  38.989   4.998
66759W        W39827  10.309  29.481  13.353
66760W        W39828   2.249  31.857   1.384
66761W        W39829  26.176  10.593  12.763
66762W        W39830  29.499   8.174  14.074
66763W        W39831  12.271   3.431  13.354
66764W        W39832  12.667  24.944  12.864
66765W        W39833   5.053  32.663   1.382
66766W        W39834  24.111   0.926  10.907
66767W        W39835   8.154  28.528   0.749
66768W        W39836   1.491   8.885   1.127
66769W        W39837   4.839  38.056  13.729
66770W        W39838  23.219  29.408  13.461
66771W        W39839  22.869  10.596  12.969
66772W        W39840  34.546  39.475   0.226
66773W        W39841  26.727   8.647   3.219
66774W        W39842  10.353   7.079  12.634
66775W        W39843  30.441  24.218  14.558
66776W        W39844  44.507  21.026  13.777
66777W        W39845  17.217  40.869  11.869
66778W        W39846  24.008  37.978   5.060
66779W        W39847  31.655  12.709   4.302
66780W        W39848   9.660  15.106   4.692
66781W        W39849   5.683   7.811   2.379
66782W        W39850  16.579  29.996  11.539
66783W        W39851   0.704   2.552   3.411
66784W        W39852  16.948  21.484   0.324
66785W        W39853   7.112  10.674  11.497
66786W        W39854  25.213  35.991   0.786
66787W        W39855  24.484   4.451   4.064
66788W        W39856  44.190  31.952   1.772
66789W        W39857   1.017  23.959  11.581
66790W        W39858  43.701  40.941  13.814
66791W        W39859  23.767  25.074   1.391
66792W        W39860  39.946  30.920   2.430
66793W        W39861  15.665  16.121  10.726
66794W        W39862   7.646  42.491   3.344
66795W        W39863   4.786  43.901   1.493
66796W        W39864  43.787  21.812  11.933
66797W        W39865  28.990   8.265  11.249
66798W        W39866  32.039   4.768  11.139
66799W        W39867  26.139  32.953   3.405
66800W        W39868  33.517  24.067   3.292
66801W        W39869  16.933  42.854  10.553
66802W        W39870  16.888  42.307   4.124
66803W        W39871   8.464  29.874   0.753
66804W        W39872  19.072  44.917   1.808
66805W        W39873  21.180   9.293  12.850
66806W        W39874  23.595  16.352   0.517
66807W        W39875   3.419  28.093   4.797
66808W        W39876  32.425  15.819   1.992
66809W        W39877  44.743  40.607   3.064
66810W        W39878  42.521  10.801  14.928
66811W        W39879   4.918   1.806   1.363
66812W        W39880   1.235  34.898  13.474
66813W        W39881  31.912  19.644  10.764
66814W        W39882  23.554  40.730  14.929
66815W        W39883  25.910  38.270  11.100
66816W        W39884  11.374  20.092   1.373
66817W        W39885   7.243  20.225  12.628
66818W        W39886  14.147  16.062   0.938
66819W        W39887  14.045  43.377   3.313
66820W        W39888  13.577  31.394   2.590
66821W        W39889  16.533  20.015  11.468
66822W        W39890   6.375   4.212  14.529
66823W        W39891   7.613  19.357   3.750
66824W        W39892   4.389  28.561   1.123
66825W        W39893   1.747  30.020  11.272
66826W        W39894  22.166  38.573   3.733
66827W        W39895  44.553  10.002   4.633
66828W        W39896   1.765  23.642   0.935
66829W        W39897  23.681  35.591   1.492
66830W        W39898   0.371   6.014  14.043
66831W        W39899  16.496  11.349  13.948
66832W        W39900  25.197   7.468  14.088
66833W        W39901   7.301  28.768   1.797
66834W        W39902  13.779   1.049   1.535
66835W        W39903  35.116  25.215  11.058
66836W        W39904  12.804  19.287   0.445
66837W        W39905  17.562   4.372   4.731
66838W        W39906  20.297  19.396  10.370
66839W        W39907   0.708  16.645  12.344
66840W        W39908  41.863  39.474   1.251
66841W        W39909  17.577  14.355   1.693
66842W        W39910  24.763  21.576  13.786
66843W        W39911  34.324  18.604   4.115
66844W        W39912  31.579  21.186   4.148
66845W        W39913   9.792  29.655  12.854
66846W        W39914  16.185  31.684   4.598
66847W        W39915  43.210  27.183   3.581
66848W        W39916  43.245  40.088  11.175
66849W        W39917  42.479   0.381  13.834
66850W        W39918  35.266  21.065  14.985
66851W        W39919  22.027  44.276   3.268
66852W        W39920  31.503  24.142   1.374
66853W        W39921  29.990  36.893   1.237
66854W        W39922  39.292  44.212  13.394
66855W        W39923  33.891  14.686  12.526
66856W        W39924  36.068  24.161  14.469
66857W        W39925  32.106  29.934  14.939
66858W        W39926  30.649  39.489  14.921
66859W        W39927  44.072   6.909   2.043
66860W        W39928  29.957   0.846  13.776
66861W        W39929  14.932  39.052  11.222
66862W        W39930  24.477   8.607  14.458
66863W        W39931  24.658  43.466   0.945
66864W        W39932   7.479   3.136  11.426
66865W        W39933  40.753   5.171   3.715
66866W        W39934   4.269  24.956  12.547
66867W        W39935  12.739  39.864   1.835
66868W        W39936  37.108  10.752   4.287
66869W        W39937  14.295   4.347   1.157
66870W        W39938  13.720  33.071   0.826
66871W        W39939  43.885  12.438  13.024
66872W        W39940   5.835  14.178  14.764
66873W        W39941   3.885  28.422   1.192
66874W        W39942  24.888  41.482  14.886
66875W        W39943  35.310  17.956  13.296
66876W        W39944  18.338  32.865   4.102
66877W        W39945  25.533  15.827   1.834
66878W        W39946  42.893   9.412  12.047
66879W        W39947   3.969  39.595  14.386
66880W        W39948  35.891  37.530  10.692
66881W        W39949  27.454  39.927  12.536
66882W        W39950  25.976  29.061  13.035
66883W        W39951  31.510  42.404   0.422
66884W        W39952  12.647  27.904   4.686
66885W        W39953  17.082  28.176   5.054
66886W        W39954  37.529  34.573   1.857
66887W        W39955  30.376  44.314  14.859
66888W        W39956  34.832  35.953   2.248
66889W        W39957  24.918  20.206  10.717
66890W        W39958  36.981  25.238   2.730
66891W        W39959  10.224  33.852  10.745
66892W        W39960   3.039   4.806   2.737
66893W        W39961  20.004  33.495   3.620
66894W        W39962  33.462  34.201  12.324
66895W        W39963   7.925  22.180   1.376
66896W        W39964  24.498  28.503   3.605
66897W        W39965  23.166   4.425   3.304
66898W        W39966   5.728  31.671  13.961
66899W        W39967   2.280  35.122  14.645
66900W        W39968  31.527   2.699  12.520
66901W        W39969   2.512  30.474   4.143
66902W        W39970  30.699  31.659   2.819
66903W        W39971  14.662   7.728  12.101
66904W        W39972  37.790  25.057  12.364
66905W        W39973  44.553  17.526  11.645
66906W        W39974  32.029  31.952   0.924
66907W        W39975  43.775  36.277  14.915
66908W        W39976  42.662  27.562  12.957
66909W        W39977   3.451  24.636   1.812
66910W        W39978  44.954   7.773   4.608
66911W        W39979  30.292  30.102   1.724
66912W        W39980   6.149   8.075   2.397
66913W        W39981  35.289  34.310   2.215
66914W        W39982  42.489  15.296  12.823
66915W        W39983  24.759   2.844   3.682
66916W        W39984  42.537  29.887  11.667
66917W        W39985  30.487  40.462  11.111
66918W        W39986  41.623  42.204  14.080
66919W        W39987  21.714  34.340  14.466
66920W        W39988  26.076  42.260   0.906
66921W        W39989   5.735  40.406  11.602
66922W        W39990  15.355  17.359   3.613
66923W        W39991  38.516   0.505  12.938
66924W        W39992  41.339  26.843   4.707
66925W        W39993  31.722   8.896  11.921
66926W        W39994  39.049  18.487  11.345
66927W        W39995  43.029  16.200   4.778
66928W        W39996  25.956   6.349  11.088
66929W        W39997  30.544   1.737  13.870
66930W        W39998  11.322   9.860  11.504
66931W        W39999  23.714  22.734  11.183
66932W        W40000  11.689   4.596   2.556
66933W        W40001  31.224  24.253  12.996
66934W        W40002  14.257   0.014   0.786
66935W        W40003   2.408  15.228   2.725
66936W        W40004   3.804  42.563   0.280
66937W        W40005  13.354  10.349  12.076
66938W        W40006  43.511  37.880   0.706
66939W        W40007  13.618  33.323  10.735
66940W        W40008   6.993  21.501   0.263
66941W        W40009  41.344  26.266   5.368
66942W        W40010  42.386   7.423   0.749
66943W        W40011  29.919  36.491  14.820
66944W        W40012  37.033  29.070  11.699
66945W        W40013  33.507  44.359   1.759
66946W        W40014  33.115  27.739   2.269
66947W        W40015  28.508  35.438   4.464
66948W        W40016  21.586  43.951  11.535
66949W        W40017  36.382  24.143  12.628
66950W        W40018  44.490  19.528   3.624
66951W        W40019  28.596  23.468   3.244
66952W        W40020  11.607  12.281   4.368
66953W        W40021  43.454   8.138   3.875
66954W        W40022  10.166  21.476   1.427
66955W        W40023  37.096  30.395  12.554
66956W        W40024  35.879  14.438  12.461
66957W        W40025  31.790   1.286  11.121
66958W        W40026  44.727  40.906  10.613
66959W        W40027  40.520   1.039   1.691
66960W        W40028  15.615  17.961   3.258
66961W        W40029  28.514  28.987  13.024
66962W        W40030  30.997   5.298  14.804
66963W        W40031  39.350  33.394   0.845
66964W        W40032  37.404   5.157  13.938
66965W        W40033  27.432  23.485   1.389
66966W        W40034   7.631   9.153  11.606
66967W        W40035  26.331   6.249  12.089
66968W        W40036  24.968  12.938   3.634
66969W        W40037  22.472  21.330   0.044
66970W        W40038  29.069  15.983   2.179
66971W        W40039  38.650  41.549  11.479
66972W        W40040  10.309  16.291   4.901
66973W        W40041  14.444  36.404  10.855
66974W        W40042  28.996  12.967   0.893
66975W        W40043  18.951  26.038  11.612
66976W        W40044   2.801  23.129  12.494
66977W        W40045  40.750   2.233  13.825
66978W        W40046  41.695  19.209  11.215
66979W        W40047  18.069  39.492  10.715
66980W        W40048   2.211  35.998   2.659
66981W        W40049   4.268   3.135   0.806
66982W        W40050  26.205  41.446  14.334
66983W        W40051  13.404  18.271   3.824
66984W        W40052  39.560   6.273   4.233
66985W        W40053  30.213  39.380  12.153
66986W        W40054   1.838  29.716   2.904
66987W        W40055  33.158   4.852  14.831
66988W        W40056   2.085  38.101   1.463
66989W        W40057   8.263   5.243   3.129
66990W        W40058  19.876  29.167  11.514
66991W        W40059  16.652  14.138  13.442
66992W        W40060  25.736  28.424  14.079
66993W        W40061  25.625  42.396  11.151
66994W        W40062  40.254  19.773   0.891
66995W        W40063   7.199   9.194  12.903
66996W        W40064  34.581  10.579  13.908
66997W        W40065  37.943  12.731   0.438
66998W        W40066  30.517  14.700   1.702
66999W        W40067   0.910  10.237   2.335
67000W        W40068  25.138  40.722  13.966
67001W        W40069   4.728  14.395  12.485
67002W        W40070  13.775  23.121  10.608
67003W        W40071  34.782  36.931  11.220
67004W        W40072  38.617  28.957  13.929
67005W        W40073   6.655  16.685  13.000
67006W        W40074   7.228  11.381   0.020
67007W        W40075  12.577  43.228  14.007
67008W        W40076  19.613  40.050   0.316
67009W        W40077  35.471  22.032   1.622
67010W        W40078  21.286  27.255  13.422
67011W        W40079  22.801  11.931   1.832
67012W        W40080   1.146  26.752  10.733
67013W        W40081  37.384  36.957  13.384
67014W        W40082  18.731  37.414   0.874
67015W        W40083  41.688  10.450  10.472
67016W        W40084  17.177  18.260   0.987
67017W        W40085  25.495  28.611  12.674
67018W        W40086  25.706   2.167  12.379
67019W        W40087  23.379  40.097  13.561
67020W        W40088  40.001  14.199   3.586
67021W        W40089  12.130   1.949  11.402
67022W        W40090   1.407  17.238  13.588
67023W        W40091  23.721  33.502   4.770
67024W        W40092  39.949   7.270  13.427
67025W        W40093  33.755   6.373   3.113
67026W        W40094  32.585  44.042   3.332
67027W        W40095  35.164  20.522  13.935
67028W        W40096  39.230  16.239  13.898
67029W        W40097  35.397   9.026   2.227
67030W        W40098  39.604  32.117  10.980
67031W        W40099   7.613  38.600  11.995
67032W        W40100  33.601   5.387   1.330
67033W        W40101  40.289  35.298  13.778
67034W        W40102  28.699  19.701   3.047
67035W        W40103   1.363   9.421  12.047
67036W        W40104  10.419  34.114  11.150
67037W        W40105   4.783  23.765   3.885
67038W        W40106  15.828   1.198  11.820
67039W        W40107  12.976  22.907  13.522
67040W        W40108   7.701  13.057   3.830
67041W        W40109   8.730   1.798   1.765
67042W        W40110  39.093  11.852   1.798
67043W        W40111  23.566   8.618   1.340
67044W        W40112  29.624   1.502   1.481
67045W        W40113  38.746   9.336  14.821
67046W        W40114  25.149  15.767   3.942
67047W        W40115  23.204   1.806   2.732
67048W        W40116  32.614  15.915  12.521
67049W        W40117  18.820  34.207  12.094
67050W        W40118   0.258  32.434  13.617
67051W        W40119  21.803   1.900  14.361
67052W        W40120  32.962  19.046  14.820
67053W        W40121  27.199  39.781  11.980
67054W        W40122  16.087  39.911  12.009
67055W        W40123  40.540   4.910  11.282
67056W        W40124  41.121  24.597   1.274
67057W        W40125  42.398  23.552   4.275
67058W        W40126  24.879  30.891  12.984
67059W        W40127   1.817   6.668   4.124
67060W        W40128  30.657  41.970  13.422
67061W        W40129  43.010   9.751   4.364
67062W        W40130   4.450  24.601  11.531
67063W        W40131  43.949   3.288  13.814
67064W        W40132  24.005  28.139   1.310
67065W        W40133  18.278   4.394   1.300
67066W        W40134   7.670  37.740   2.886
67067W        W40135  19.874   9.713   1.411
67068W        W40136  28.710  26.596   3.759
67069W        W40137  31.228  25.457   2.847
67070W        W40138  36.416  32.287  10.257
67071W        W40139   8.384  12.082  10.622
67072W        W40140  33.987   7.792  11.583
67073W        W40141   5.796  39.778   3.111
67074W        W40142   9.386   3.985   3.678
67075W        W40143  29.402  43.568  14.339
67076W        W40144  10.867  29.966  13.988
67077W        W40145  17.619   2.033  13.404
67078W        W40146  25.141  11.594   1.581
67079W        W40147   4.186  37.742   3.206
67080W        W40148   9.858   5.651   3.647
67081W        W40149  38.916  19.494  10.663
67082W        W40150  26.602  19.105   1.458
67083W        W40151  42.845  15.277   4.245
67084W        W40152  33.310  23.737  11.045
67085W        W40153  16.732   4.344   4.142
67086W        W40154  38.866  34.481   3.624
67087W        W40155  20.907  12.989  12.438
67088W        W40156  41.864  25.889   2.842
67089W        W40157  25.551  25.954   1.730
67090W        W40158  29.682   9.820   4.785
67091W        W40159   3.664  17.693  14.727
67092W        W40160  30.428  20.528  14.871
67093W        W40161  27.400  38.354  11.123
67094W        W40162  38.374  38.849  13.391
67095W        W40163  26.719  18.123  12.559
67096W        W40164  17.038  18.855   2.235
67097W        W40165   4.051  12.436  12.375
67098W        W40166   6.935  25.665   2.686
67099W        W40167   5.805  44.161  10.795
67100W        W40168  38.488  25.364  13.523
67101W        W40169  12.318   7.522  13.449
67102W        W40170  30.457   0.826  13.527
67103W        W40171  34.384   8.835   1.137
67104W        W40172  23.030  22.663   1.435
67105W        W40173  10.892   1.455   2.789
67106W        W40174  30.836   1.294  14.792
67107W        W40175  28.418   8.145  14.950
67108W        W40176  23.203  13.180   4.596
67109W        W40177   8.849  37.570  10.415
67110W        W40178  32.154  38.833  11.128
67111W        W40179  32.446  10.374  13.505
67112W        W40180  43.881  32.105  14.874
67113W        W40181  16.207   7.700   0.329
67114W        W40182  31.863  32.509   1.739
67115W        W40183  25.227  11.117   2.863
67116W        W40184  27.725  14.647  13.545
67117W        W40185  44.509  44.425   9.844
67118W        W40186  31.149  35.592  10.038
67119W        W40187  14.549  41.575   1.037
67120W        W40188  15.291  33.591   0.465
67121W        W40189  39.076  11.633  14.510
67122W        W40190   5.010  38.633   2.302
67123W        W40191   5.400   7.351   0.002
67124W        W40192  42.306  39.607   0.009
67125W        W40193   7.358   4.342  13.358
67126W        W40194  27.232  12.197  12.424
67127W        W40195  30.559  40.518   1.191
67128W        W40196   5.804  13.725   2.162
67129W        W40197  34.949   5.419   3.189
67130W        W40198  11.286  37.254   0.494
67131W        W40199  26.634  29.721   0.269
67132W        W40200  23.978  22.551  10.652
67133W        W40201  19.701  16.886   1.208
67134W        W40202  40.553  12.541  14.503
67135W        W40203  34.990  17.617  13.881
67136W        W40204   6.130  42.004  14.967
67137W        W40205  40.001  41.394  14.665
67138W        W40206  15.690  39.750  13.525
67139W        W40207  39.419  31.139   3.732
67140W        W40208  34.650  26.529  14.092
67141W        W40209  21.294  43.571  11.314
67142W        W40210  38.788  43.239  12.588
67143W        W40211  28.898  43.611  13.504
67144W        W40212  43.930  13.778  10.997
67145W        W40213  21.803  40.982   2.133
67146W        W40214  38.414   1.969  14.966
67147W        W40215  14.132  13.266   3.688
67148W        W40216  17.915   3.342  11.964
67149W        W40217  16.309   4.594  11.151
67150W        W40218   3.442  44.312  10.942
67151W        W40219  36.410  26.650   0.470
67152W        W40220  16.362  41.717   2.190
67153W        W40221  28.364  26.025   0.368
67154W        W40222  28.873  34.705   2.336
67155W        W40223  16.517  42.032  13.114
67156W        W40224  44.239  10.048   5.065
67157W        W40225  18.044  27.563  14.477
67158W        W40226  11.364  43.865   4.854
67159W        W40227  28.039  23.457   4.114
67160W        W40228   3.787  33.848   4.575
67161W        W40229  26.909  22.674  10.730
67162W        W40230  31.368  12.250   1.436
67163W        W40231   2.758  13.172   4.096
67164W        W40232  29.444   1.747   3.311
67165W        W40233  41.741  31.159  14.669
67166W        W40234   8.747  38.521  11.315
67167W        W40235   8.926  16.650  13.819
67168W        W40236  23.636  39.472  11.588
67169W        W40237  28.340   3.437   4.198
67170W        W40238  30.112  12.142  10.610
67171W        W40239  15.140  29.415   2.810
67172W        W40240  39.336  21.733   1.262
67173W        W40241   4.233  12.429  10.729
67174W        W40242  33.535  17.587  11.338
67175W        W40243  10.476  33.581  12.941
67176W        W40244  43.922  43.330  11.571
67177W        W40245   1.459  17.669   0.961
67178W        W40246  18.183  24.513  12.962
67179W        W40247  36.425  14.311  13.568
67180W        W40248  31.448  26.026   1.061
67181W        W40249  36.959  17.851   3.223
67182W        W40250   6.156  39.585   0.528
67183W        W40251  27.945  37.368   1.470
67184W        W40252   5.157  17.600  12.600
67185W        W40253  29.193  30.240   4.155
67186W        W40254  32.143   6.153   0.778
67187W        W40255  32.891   7.287  11.253
67188W        W40256  21.497  22.949  12.555
67189W        W40257  30.521  11.227   3.427
67190W        W40258  18.772  37.041   0.399
67191W        W40259  19.262  14.347   2.754
67192W        W40260   1.943  26.264  10.501
67193W        W40261   3.668  21.482  10.554
67194W        W40262  40.489  14.654  14.231
67195W        W40263  23.790  44.961  10.729
67196W        W40264  21.788  15.113  12.610
67197W        W40265  31.926  44.470   4.554
67198W        W40266  38.741   8.278  14.722
67199W        W40267   3.468  42.008   3.948
67200W        W40268  29.028  33.326  13.578
67201W        W40269   7.443   6.049   1.478
67202W        W40270  23.777   7.216  11.144
67203W        W40271  19.248  14.558  12.473
67204W        W40272  34.333  43.526  14.816
67205W        W40273  26.488   5.911   1.123
67206W        W40274  12.621  23.657  12.444
67207W        W40275   3.151  35.757  13.520
67208W        W40276  37.500  18.215  14.013
67209W        W40277   2.518   0.679  12.391
67210W        W40278  16.638  20.265   0.759
67211W        W40279  18.060  26.109  13.326
67212W        W40280  32.054   3.913   2.122
67213W        W40281  39.427  44.864   4.071
67214W        W40282  38.963  41.990  11.193
67215W        W40283  33.666  12.774   0.496
67216W        W40284  32.385  14.302   1.217
67217W        W40285  18.186  14.056   1.341
67218W        W40286  24.041  17.765   0.274
67219W        W40287  36.540  20.853   3.804
67220W        W40288  38.570  19.771   1.331
67221W        W40289  22.747  41.766   0.129
67222W        W40290  11.700  22.651  12.347
67223W        W40291  18.720  23.679  12.312
67224W        W40292   2.852  31.073   1.914
67225W        W40293  29.996  11.758   2.402
67226W        W40294  18.084  24.587  11.552
67227W        W40295  11.793  33.017  13.221
67228W        W40296   7.964  36.386  11.459
67229W        W40297  15.818  23.843  14.527
67230W        W40298  31.745  11.276   2.094
67231W        W40299  44.081   9.897   3.748
67232W        W40300  22.003  25.661   4.921
67233W        W40301  23.285  23.773  14.323
67234W        W40302  39.007  35.930   1.301
67235W        W40303   1.921  29.230   4.559
67236W        W40304   9.940  18.500   1.688
67237W        W40305  28.871  39.938  10.367
67238W        W40306  38.924  38.680  10.184
67239W        W40307  34.619  34.674  11.705
67240W        W40308  18.837  12.292   3.672
67241W        W40309   6.019  10.252  12.833
67242W        W40310  43.309  43.171  10.399
67243W        W40311  12.306  27.555   0.708
67244W        W40312  10.201  18.792  12.877
67245W        W40313  19.725  28.825   2.963
67246W        W40314  29.653  22.257   0.276
67247W        W40315  37.394  35.995   4.280
67248W        W40316  15.732  24.284   3.210
67249W        W40317  14.898  14.078  10.837
67250W        W40318  30.874   3.397   1.301
67251W        W40319  12.691  26.268  11.257
67252W        W40320  29.990  19.125   3.902
67253W        W40321   1.539  43.488   2.418
67254W        W40322  24.008  18.217   3.670
67255W        W40323  28.563  29.094   4.128
67256W        W40324  29.440  42.822   3.868
67257W        W40325  41.949  17.116   4.116
67258W        W40326  21.088   8.741   3.273
67259W        W40327  12.590  37.540   0.773
67260W        W40328  35.999  23.507  11.073
67261W        W40329  32.046  33.682   0.263
67262W        W40330  44.833  16.579   4.351
67263W        W40331  11.804  13.625  11.607
67264W        W40332  15.986  30.873  13.305
67265W        W40333  15.604   2.185  10.689
67266W        W40334  28.910  34.779  10.580
67267W        W40335   2.781   7.960   4.602
67268W        W40336  15.708   7.818   1.717
67269W        W40337  17.271  40.530  14.102
67270W        W40338  30.657  15.171   1.868
67271W        W40339  41.106   0.543  12.578
67272W        W40340  33.336   5.063  12.989
67273W        W40341  41.954   8.664   4.232
67274W        W40342  11.882  38.870   0.765
67275W        W40343  27.391  22.568  13.796
67276W        W40344  39.382  41.592   4.099
67277W        W40345  22.211  34.474  14.606
67278W        W40346   0.873   3.173   2.147
67279W        W40347  20.080  16.295  11.199
67280W        W40348  38.440  27.129  13.837
67281W        W40349  12.177  16.883   4.100
67282W        W40350  28.890   6.096   1.719
67283W        W40351  21.333  23.742   0.360
67284W        W40352  17.562   8.138   1.746
67285W        W40353  39.461  29.508  12.066
67286W        W40354  20.149  42.792   1.326
67287W        W40355  28.049  15.640  11.144
67288W        W40356  39.016  38.321  12.662
67289W        W40357  11.741  25.480   3.809
67290W        W40358  41.238  24.586   2.629
67291W        W40359  43.525  28.661  11.167
67292W        W40360  14.478  41.347   3.428
67293W        W40361  12.220  43.495  11.737
67294W        W40362   7.413  35.100  14.840
67295W        W40363  37.559   2.291   3.745
67296W        W40364  17.692  44.932   2.287
67297W        W40365  15.299  20.565  12.337
67298W        W40366  16.688  28.217   2.344
67299W        W40367   1.479  11.122  13.358
67300W        W40368   0.084   4.769  11.120
67301W        W40369  35.428  40.411   0.912
67302W        W40370  27.227  23.638   0.355
67303W        W40371   7.355  17.890   2.418
67304W        W40372  37.904  26.767  14.420
67305W        W40373  37.915  22.938   3.702
67306W        W40374  18.328   4.878   0.525
67307W        W40375  44.703  29.977   0.530
67308W        W40376  13.021  39.665   4.189
67309W        W40377   0.556  26.748   3.279
67310W        W40378  33.685  32.041  12.946
67311W        W40379  41.936  11.096   1.715
67312W        W40380  19.338  36.465   0.501
67313W        W40381  31.685  23.782  11.943
67314W        W40382  25.523  35.154  14.857
67315W        W40383  30.394  23.523  11.715
67316W        W40384  40.792  25.426  14.603
67317W        W40385  28.687  44.441   1.998
67318W        W40386  31.637   9.027   2.776
67319W        W40387  17.217  22.873  14.854
67320W        W40388   9.443   7.374  12.285
67321W        W40389   9.228   5.300   0.786
67322W        W40390  30.187  29.880  10.449
67323W        W40391   7.137  26.659   4.261
67324W        W40392  29.682  44.699   2.401
67325W        W40393   1.341  17.458   3.088
67326W        W40394  13.862  32.311   2.907
67327W        W40395   2.566   8.103  10.928
67328W        W40396   0.216   4.351   2.722
67329W        W40397  39.266  18.736  10.908
67330W        W40398   0.443  33.851   0.027
67331W        W40399  28.519   8.502  11.938
67332W        W40400  41.292  11.053   2.225
67333W        W40401  10.079   0.742   4.604
67334W        W40402  35.335  16.501   3.565
67335W        W40403  40.141  42.570   3.354
67336W        W40404  13.406   6.360  12.930
67337W        W40405  27.610  12.395  14.229
67338W        W40406  25.555   0.729  10.506
67339W        W40407  36.305  16.476  12.630
67340W        W40408  42.446  16.301   0.816
67341W        W40409  37.045  26.966   0.371
67342W        W40410  26.639   8.870  12.454
67343W        W40411  20.230  33.604  11.949
67344W        W40412  23.303  21.551  11.239
67345W        W40413  44.202  27.965   3.549
67346W        W40414   6.677  17.615  12.433
67347W        W40415  31.202  15.138   3.693
67348W        W40416   6.689  22.988   1.933
67349W        W40417  26.619  44.867   3.097
67350W        W40418   6.179   3.141  13.283
67351W        W40419  13.484   6.451  12.012
67352W        W40420  16.236  32.975  12.667
67353W        W40421   9.958  10.186   4.996
67354W        W40422   6.175  24.418   0.835
67355W        W40423  26.051  41.836   0.138
67356W        W40424   4.492  23.406  12.525
67357W        W40425  19.423   6.316   1.854
67358W        W40426  43.799  28.183   1.907
67359W        W40427  31.926  42.804  13.515
67360W        W40428   0.832  21.104   3.218
67361W        W40429  23.181   2.352   1.937
67362W        W40430  42.527   4.300   4.154
67363W        W40431  43.518  15.054  14.724
67364W        W40432  35.065   7.643  11.289
67365W        W40433   3.703  18.670   1.374
67366W        W40434  28.962  38.429   3.156
67367W        W40435  36.146  38.001  14.418
67368W        W40436  19.789  39.994   3.285
67369W        W40437  13.260   7.478   0.641
67370W        W40438  25.510  31.341  14.779
67371W        W40439  44.539  18.974   1.341
67372W        W40440   1.332  15.069   4.351
67373W        W40441  14.374  26.672   2.867
67374W        W40442  30.357  26.853  12.385
67375W        W40443  39.881  22.774  11.018
67376W        W40444  38.154  18.719  14.214
67377W        W40445   3.915  12.362   2.620
67378W        W40446  18.059  15.169   1.841
67379W        W40447  11.758  16.090  10.176
67380W        W40448   3.314   0.845   4.542
67381W        W40449  13.942  13.084   1.830
67382W        W40450  22.030  20.227  13.264
67383W        W40451   2.856  10.722  11.570
67384W        W40452   6.709  24.614  12.205
67385W        W40453  29.166   0.720  11.119
67386W        W40454  18.993  37.382  13.569
67387W        W40455   1.834  20.588   3.278
67388W        W40456  32.369  42.134   3.237
67389W        W40457   8.307  16.596   2.146
67390W        W40458  13.082  25.095   2.699
67391W        W40459  34.453   0.790   4.713
67392W        W40460  16.262   7.281  14.785
67393W        W40461  26.546  37.767   2.251
67394W        W40462  43.789   7.434   4.781
67395W        W40463  15.565  35.909  14.455
67396W        W40464  28.572  11.216  12.074
67397W        W40465  34.175  36.323   1.301
67398W        W40466  22.009  11.416  13.884
67399W        W40467  22.144   3.880   2.280
67400W        W40468  18.722   6.564   0.155
67401W        W40469  12.340   0.046   2.735
67402W        W40470  21.571  29.048   0.477
67403W        W40471  23.685  29.508   2.908
67404W        W40472  21.435  40.964   3.084
67405W        W40473  42.703  10.127   1.376
67406W        W40474  32.959  31.994   4.180
67407W        W40475  23.227   9.198  12.034
67408W        W40476  25.492  43.502   1.676
67409W        W40477  34.018  29.606   3.453
67410W        W40478  44.986  11.280  13.500
67411W        W40479  15.148  13.618  14.995
67412W        W40480   1.528  37.415   3.503
67413W        W40481  28.127  16.176   1.877
67414W        W40482  30.611  13.539   3.143
67415W        W40483  22.869   0.168   3.645
67416W        W40484  31.961  37.979   0.849
67417W        W40485  36.798  16.166   3.715
67418W        W40486  15.536  28.610  14.377
67419W        W40487  41.284  13.717   2.868
67420W        W40488  18.245  38.880   4.518
67421W        W40489  18.222  25.881  14.267
67422W        W40490  21.987  11.315   3.194
67423W        W40491  43.871  31.641  13.929
67424W        W40492  23.756   7.835   4.516
67425W        W40493  18.315   0.949  10.335
67426W        W40494  16.677  37.844   1.387
67427W        W40495   5.227  15.387  11.668
67428W        W40496  13.402  43.067   1.673
67429W        W40497  25.801  40.927  10.615
67430W        W40498   0.330  30.979  14.300
67431W        W40499  35.544  37.906   1.265
67432W        W40500  20.593  16.621  14.790
67433W        W40501   8.412   2.670  10.925
67434W        W40502   7.972   3.728  11.412
67435W        W40503   9.726  40.075  10.575
67436W        W40504  40.413  18.061   4.151
67437W        W40505  25.008  16.395  12.376
67438W        W40506  34.911  43.278  14.000
67439W        W40507  19.073  12.605  12.986
67440W        W40508  21.680   6.386  12.224
67441W        W40509  11.665   1.295   4.299
67442W        W40510  41.932  39.922  13.872
67443W        W40511  43.547  41.301  13.438
67444W        W40512  40.518   1.637  14.492
67445W        W40513  14.616  25.468   3.703
67446W        W40514  14.503  20.337  11.469
67447W        W40515  20.530  22.505  14.407
67448W        W40516  43.021  41.472   1.054
67449W        W40517  14.670  23.657   4.215
67450W        W40518   0.169   3.609   5.149
67451W        W40519  38.979  19.188  14.340
67452W        W40520  34.491   7.716  10.648
67453W        W40521  39.594  37.442   0.450
67454W        W40522  24.113  40.073   4.561
67455W        W40523   4.882  18.562  12.453
67456W        W40524  22.395  26.433  14.300
67457W        W40525  12.734  11.707  12.765
67458W        W40526  18.664  15.497   2.366
67459W        W40527  40.195  27.932  11.096
67460W        W40528  30.448  26.056  14.118
67461W        W40529   5.356  39.001   4.624
67462W        W40530  29.889  30.894   0.338
67463W        W40531  20.085   9.992   1.030
67464W        W40532  22.221  18.741   3.218
67465W        W40533   1.354  13.751   2.505
67466W        W40534  22.683   6.888  12.957
67467W        W40535   0.945  13.306   3.605
67468W        W40536  23.319  40.199  11.898
67469W        W40537  21.260  12.149  12.078
67470W        W40538  32.128   9.249  10.711
67471W        W40539  44.354  15.615  12.819
67472W        W40540  37.308  43.471   3.526
67473W        W40541  17.754  12.576  12.483
67474W        W40542  33.111  41.309   2.359
67475W        W40543  43.381   2.904  14.322
67476W        W40544  17.883  15.673   1.838
67477W        W40545  31.551   0.490  12.076
67478W        W40546  20.067  15.636  10.748
67479W        W40547   3.960   9.768  10.549
67480W        W40548  26.505  17.668   1.216
67481W        W40549   8.353  12.604  10.669
67482W        W40550   9.428  11.128   3.210
67483W        W40551  25.110  34.339  11.043
67484W        W40552  21.075  14.779  13.848
67485W        W40553  32.827  26.188   2.216
67486W        W40554  35.652   7.126  12.487
67487W        W40555  34.397  23.926   2.872
67488W        W40556  29.221   3.847  11.603
67489W        W40557   5.296  38.224  13.946
67490W        W40558  11.613  34.084  10.099
67491W        W40559  26.024  13.868   0.425
67492W        W40560   6.949   5.389  12.058
67493W        W40561   9.407  20.004  10.655
67494W        W40562  29.247  43.776  14.873
67495W        W40563  17.476  33.010  11.529
67496W        W40564  11.676  19.001   4.149
67497W        W40565  10.255  18.864   9.962
67498W        W40566  33.682  14.340   2.778
67499W        W40567  37.309  29.642   2.505
67500W        W40568  10.551  28.866  10.549
67501W        W40569  40.088  43.464  11.489
67502W        W40570  15.529   4.983  14.205
67503W        W40571  29.148  21.252  12.565
67504W        W40572  32.818   6.360   3.961
67505W        W40573  30.497  30.086   0.612
67506W        W40574  12.788  31.052   2.006
67507W        W40575  17.041  25.582  12.895
67508W        W40576  23.696  27.499   4.629
67509W        W40577   3.109   5.405  11.095
67510W        W40578   6.880  19.712  14.098
67511W        W40579  18.014   6.265   4.191
67512W        W40580  34.434   4.984  14.256
67513W        W40581   1.753   0.092  13.568
67514W        W40582  25.738   6.340   0.434
67515W        W40583   1.121  17.011  10.315
67516W        W40584  24.002  43.510   1.380
67517W        W40585  26.670   4.956  13.812
67518W        W40586   5.733   8.312   2.663
67519W        W40587  21.678  17.053   1.705
67520W        W40588   1.090  36.979   4.214
67521W        W40589  23.175  35.999  14.904
67522W        W40590  37.511  19.021   3.665
67523W        W40591  23.349  34.364   0.368
67524W        W40592   1.927  33.022   4.125
67525W        W40593   9.441  22.934   1.422
67526W        W40594   5.898   0.483   0.728
67527W        W40595   5.402   0.532  10.888
67528W        W40596  35.996   4.857  11.986
67529W        W40597  27.689  18.098   4.533
67530W        W40598  41.846   8.904   4.671
67531W        W40599  20.252  37.271   2.610
67532W        W40600  18.697  34.668   1.149
67533W        W40601   6.791  30.051   2.231
67534W        W40602  42.296  31.529  12.452
67535W        W40603  37.510  17.464  12.896
67536W        W40604  42.975  23.545   1.488
67537W        W40605   7.846  42.180  14.448
67538W        W40606  30.995  21.644   2.445
67539W        W40607   2.540  37.864  12.057
67540W        W40608   6.689  30.419   0.279
67541W        W40609  24.957  20.283  14.899
67542W        W40610  26.191   8.146   4.146
67543W        W40611  19.090  34.010  12.576
67544W        W40612  34.350   6.432  12.408
67545W        W40613   1.195   6.978   1.211
67546W        W40614   8.281  24.507  11.620
67547W        W40615  32.006  42.938   4.575
67548W        W40616  27.670  13.887   2.840
67549W        W40617  43.285   5.724  11.523
67550W        W40618  39.273  17.178   3.690
67551W        W40619   9.648  23.760  13.797
67552W        W40620  11.840  39.047   0.249
67553W        W40621   1.263   3.153   3.469
67554W        W40622   5.135  10.438  11.657
67555W        W40623  30.595  39.999   1.228
67556W        W40624  17.734   5.734  14.983
67557W        W40625  21.204  17.741   1.351
67558W        W40626  15.753  44.741  11.907
67559W        W40627  17.305  38.205  13.349
67560W        W40628  12.940  26.534   4.289
67561W        W40629  20.629  25.869  14.719
67562W        W40630   5.182  40.417   0.850
67563W        W40631  12.884   0.201  12.844
67564W        W40632  17.810  22.044   4.565
67565W        W40633   1.947  30.687  12.330
67566W        W40634  39.533  41.563  11.635
67567W        W40635  30.379  44.062   1.756
67568W        W40636  26.995  16.576   4.338
67569W        W40637  13.640  36.527   0.674
67570W        W40638  23.233  12.294   2.483
67571W        W40639  22.976  11.279  14.069
67572W        W40640   2.963   0.469   0.864
67573W        W40641  34.522  36.497   0.922
67574W        W40642  42.227  24.206  11.845
67575W        W40643  32.821   0.247  10.654
67576W        W40644  44.427   4.694  12.109
67577W        W40645   5.905  13.340  14.360
67578W        W40646   4.409  32.108   1.208
67579W        W40647  14.193   0.236   1.716
67580W        W40648  29.493   0.428  14.293
67581W        W40649  32.426  15.507  13.870
67582W        W40650  22.654  43.607  10.955
67583W        W40651  26.569   1.241   3.315
67584W        W40652  38.665  42.743  12.092
67585W        W40653   7.924  21.541   2.701
67586W        W40654  24.720  29.700  13.453
67587W        W40655  19.612  43.057   2.788
67588W        W40656  42.872  21.802  12.936
67589W        W40657  20.068  14.516  14.925
67590W        W40658  23.296   5.689   2.579
67591W        W40659   8.686  25.731   0.934
67592W        W40660  41.837  25.222   2.376
67593W        W40661  20.073   3.702   2.688
67594W        W40662  26.672  24.201  11.956
67595W        W40663  37.430  41.590   2.198
67596W        W40664  23.095   3.862   4.570
67597W        W40665  17.588   4.326   2.925
67598W        W40666  10.242  14.018  14.631
67599W        W40667  19.054   4.496  11.729
67600W        W40668  19.186   1.712   2.433
67601W        W40669  20.185  43.041  13.909
67602W        W40670  34.882   0.210   0.255
67603W        W40671  24.831  41.749  11.057
67604W        W40672  43.855  15.810   3.682
67605W        W40673  33.001  22.631  13.608
67606W        W40674   0.825  35.608   4.947
67607W        W40675  25.699   9.288   3.558
67608W        W40676  16.543   6.792  11.439
67609W        W40677  36.914   3.004   2.351
67610W        W40678  14.297   0.862  14.336
67611W        W40679  13.746  42.547   2.450
67612W        W40680  43.335  21.595   0.240
67613W        W40681   7.555  36.013   3.616
67614W        W40682  16.982  20.788   4.635
67615W        W40683  19.112  30.101   0.276
67616W        W40684   0.679  42.515   4.659
67617W        W40685   7.666  25.925   0.683
67618W        W40686  41.751  10.235  12.553
67619W        W40687   7.999  35.884  12.724
67620W        W40688  27.896  41.005   4.847
67621W        W40689  17.400   3.846   4.613
67622W        W40690   1.440  23.721   4.582
67623W        W40691   5.475  22.675  14.111
67624W        W40692  22.566  28.275   1.210
67625W        W40693   8.680  19.551  14.926
67626W        W40694  42.568  39.669   1.425
67627W        W40695  11.313  39.036   1.564
67628W        W40696  15.132   0.062  13.056
67629W        W40697   5.841  37.361   0.806
67630W        W40698  42.454  44.955  12.397
67631W        W40699   3.726  19.239   4.046
67632W        W40700  25.308   4.812  14.016
67633W        W40701  44.699  25.044   1.370
67634W        W40702  18.797   0.869   2.220
67635W        W40703  32.152  42.829  14.856
67636W        W40704  40.513  15.167   1.729
67637W        W40705   2.284  33.463   2.802
67638W        W40706  38.105  42.350  14.275
67639W        W40707   4.859  11.117  14.468
67640W        W40708  23.880  24.943  11.500
67641W        W40709  37.474  36.376   1.443
67642W        W40710  18.083  20.601  10.846
67643W        W40711   6.325  31.589   3.640
67644W        W40712  33.131  33.078   5.334
67645W        W40713   0.418  34.615  14.699
67646W        W40714  41.963  20.298  14.718
67647W        W40715  33.814  40.981  14.391
67648W        W40716  16.900   1.339   1.372
67649W        W40717  23.034  23.537   0.839
67650W        W40718  35.933  28.656   3.394
67651W        W40719   0.823   2.253  10.545
67652W        W40720  23.212  39.109  10.210
67653W        W40721  42.501  31.646  11.958
67654W        W40722  30.357  18.180  12.957
67655W        W40723  36.146  41.339  13.441
67656W        W40724   0.677  41.106  11.067
67657W        W40725  30.073  15.066  12.527
67658W        W40726  26.436   4.987   1.383
67659W        W40727  13.755  30.954  12.549
67660W        W40728  13.573   8.120   0.432
67661W        W40729  43.249  24.011  14.924
67662W        W40730  11.643  17.300  13.825
67663W        W40731  25.716   6.778   1.193
67664W        W40732  38.329  20.817   0.079
67665W        W40733   0.717   5.258   2.767
67666W        W40734  16.046  34.452  11.121
67667W        W40735   7.166  24.735   1.885
67668W        W40736  41.171  44.448  13.335
67669W        W40737  22.235  32.167  12.457
67670W        W40738   9.313   7.073   4.642
67671W        W40739  41.738  30.494  13.727
67672W        W40740  38.025  21.168  12.552
67673W        W40741  25.738  40.221  14.251
67674W        W40742  15.425   3.297  13.173
67675W        W40743   6.863  15.827  10.535
67676W        W40744  28.722  19.184   1.121
67677W        W40745  37.171  16.046   2.807
67678W        W40746  29.543  12.130   0.845
67679W        W40747  10.051   2.460  10.648
67680W        W40748  20.192   6.919  12.189
67681W        W40749  44.239  43.808   4.571
67682W        W40750   9.214  17.227   2.256
67683W        W40751  17.016   8.459   0.675
67684W        W40752  43.806   5.446  13.926
67685W        W40753  34.026   5.793  12.451
67686W        W40754  33.176   3.437  10.878
67687W        W40755  23.621   7.107   0.281
67688W        W40756  20.345  19.191   3.617
67689W        W40757  29.220  21.574  13.366
67690W        W40758  10.809  43.981   0.612
67691W        W40759  31.433   4.478   4.046
67692W        W40760  34.418  23.565  13.814
67693W        W40761   8.090  40.516   0.990
67694W        W40762  41.815  24.292   4.926
67695W        W40763  39.307  42.025  10.419
67696W        W40764  41.074  22.640  13.376
67697W        W40765  22.541  33.355  14.423
67698W        W40766   5.127  16.014  10.983
67699W        W40767   4.871  40.282  13.064
67700W        W40768  15.915  27.121   4.086
67701W        W40769  13.688   0.477  11.538
67702W        W40770  42.984  20.257  13.014
67703W        W40771   8.392  25.191  11.686
67704W        W40772  16.605  28.830  14.448
67705W        W40773   9.053  39.717  10.115
67706W        W40774  38.371   3.752  11.631
67707W        W40775  18.829  25.268  11.028
67708W        W40776   1.074  15.369   3.403
67709W        W40777  11.070   8.766  13.582
67710W        W40778  41.088  33.030  12.357
67711W        W40779  22.857  27.604   2.765
67712W        W40780  19.301  29.396  11.661
67713W        W40781  36.102   5.832   3.246
67714W        W40782  14.113  43.653   1.953
67715W        W40783   4.808  15.707   0.182
67716W        W40784   0.215   5.631   1.307
67717W        W40785   0.831  30.933  11.507
67718W        W40786  37.451  42.094   0.970
67719W        W40787  26.662  40.318   3.084
67720W        W40788  18.799   3.537  10.271
67721W        W40789  22.290  43.695  14.524
67722W        W40790  33.087  41.759  13.822
67723W        W40791  26.891  15.308   3.664
67724W        W40792  33.055   8.849   0.901
67725W        W40793  28.514  37.925  13.956
67726W        W40794  42.926  11.375   1.779
67727W        W40795  30.038  23.199  11.466
67728W        W40796  17.276  37.371   4.542
67729W        W40797   3.282  43.882  11.210
67730W        W40798  14.171  36.323   0.431
67731W        W40799  12.616  37.585  12.000
67732W        W40800   1.022  21.655  11.498
67733W        W40801  35.867  16.299  12.392
67734W        W40802  23.459  13.152   0.891
67735W        W40803  10.906   7.480   2.824
67736W        W40804  13.704  26.440   4.924
67737W        W40805   7.401  20.213   2.627
67738W        W40806  21.613  27.987   4.676
67739W        W40807   9.191  44.345  13.993
67740W        W40808  39.277  14.379   4.745
67741W        W40809  19.720  13.240  14.832
67742W        W40810  29.619  15.880   9.967
67743W        W40811   8.975  44.944  10.389
67744W        W40812  39.625  35.476  13.415
67745W        W40813  29.548  29.697  12.959
67746W        W40814  34.936  28.773  12.439
67747W        W40815  15.360  44.530   4.080
67748W        W40816  43.480  22.681   2.359
67749W        W40817   7.358   6.046  12.824
67750W        W40818  26.112  36.088   4.098
67751W        W40819   5.949  44.375  13.358
67752W        W40820  12.577  20.758  14.434
67753W        W40821   4.771  10.641  11.296
67754W        W40822  24.144  13.039  12.054
67755W        W40823  42.276   5.023   0.814
67756W        W40824  11.091   7.387  12.971
67757W        W40825  20.206  35.013  14.280
67758W        W40826  40.560  15.677  11.876
67759W        W40827   0.012  29.021  10.581
67760W        W40828  13.251  32.450  11.707
67761W        W40829  16.705  13.266   1.332
67762W        W40830  15.194  29.606   3.795
67763W        W40831   6.961  35.104  14.097
67764W        W40832  10.338  25.007   4.703
67765W        W40833  21.575   3.905  10.749
67766W        W40834  17.007  33.188   2.812
67767W        W40835  29.206  16.045  10.682
67768W        W40836  28.585  31.407   0.003
67769W        W40837   4.841  41.759  11.022
67770W        W40838  29.120  32.983   3.587
67771W        W40839  25.782  25.094  12.950
67772W        W40840  31.469   7.372  10.629
67773W        W40841  25.141  44.769   3.313
67774W        W40842  13.082  19.872   3.180
67775W        W40843  44.193  37.621  14.393
67776W        W40844  39.341   1.546   5.069
67777W        W40845   4.232  16.053   4.671
67778W        W40846  12.186   7.213  12.957
67779W        W40847  43.766  30.676   1.877
67780W        W40848  35.404  30.161  12.509
67781W        W40849  12.513   9.789  12.739
67782W        W40850  37.804   4.279   4.102
67783W        W40851  39.848   3.985  10.606
67784W        W40852  40.263  34.041   2.184
67785W        W40853  38.879  41.501   4.074
67786W        W40854  11.588  29.597   0.236
67787W        W40855  12.704  33.657  10.459
67788W        W40856  19.982  18.579   1.929
67789W        W40857  20.177  22.443  14.804
67790W        W40858   0.396  14.696  13.120
67791W        W40859  42.837   6.270  14.525
67792W        W40860  40.970  17.001  12.875
67793W        W40861  12.142   7.210   2.633
67794W        W40862  28.059  12.155   4.143
67795W        W40863  10.235  38.903  10.578
67796W        W40864  14.302  10.807   0.855
67797W        W40865  19.396  12.603  13.406
67798W        W40866  41.955  27.921   0.206
67799W        W40867   1.734  10.726   1.239
67800W        W40868   2.287   1.765   4.648
67801W        W40869   1.884  15.759  11.556
67802W        W40870  40.289   4.781  12.505
67803W        W40871  29.099  29.753   4.237
67804W        W40872  43.369  36.548  14.714
67805W        W40873  12.566  30.003   3.711
67806W        W40874   9.414   5.362  13.428
67807W        W40875  26.486   1.547   0.382
67808W        W40876  16.055  21.226  12.082
67809W        W40877  31.200  41.551   1.878
67810W        W40878   7.459  26.601  14.380
67811W        W40879  24.558  32.088  12.082
67812W        W40880  14.697   9.109  14.313
67813W        W40881  39.120  32.528   2.306
67814W        W40882  16.926  30.494  12.471
67815W        W40883  35.891  17.676  14.070
67816W        W40884  29.242  12.818   4.236
67817W        W40885  15.735  43.315   1.243
67818W        W40886  28.902  24.782  13.708
67819W        W40887  17.063   0.875   4.485
67820W        W40888  36.912  18.727   0.361
67821W        W40889  11.878  39.427  14.412
67822W        W40890  37.489  24.040   4.556
67823W        W40891   1.402   4.924  12.525
67824W        W40892  44.558   9.330   3.311
67825W        W40893  34.856  15.607   1.668
67826W        W40894   8.276  33.685   1.020
67827W        W40895  32.571  12.293   0.845
67828W        W40896  21.670  41.304  13.017
67829W        W40897  27.770   6.719  12.197
67830W        W40898  29.535  12.866  10.239
67831W        W40899  34.560   6.708   1.696
67832W        W40900  16.862  23.512  13.753
67833W        W40901  23.086  29.240  12.875
67834W        W40902  44.840  28.072  12.638
67835W        W40903  43.330   0.289   1.071
67836W        W40904  25.492   4.033  11.009
67837W        W40905   6.616  34.383  11.947
67838W        W40906  22.503   7.183  12.513
67839W        W40907  23.340   2.318   0.533
67840W        W40908  13.089  27.561   4.043
67841W        W40909  30.670  15.167   3.635
67842W        W40910   2.740  14.668  10.672
67843W        W40911  40.788  24.811   2.481
67844W        W40912  30.891  26.556   4.510
67845W        W40913  16.132   2.355   1.304
67846W        W40914  40.993  13.533   0.146
67847W        W40915  15.319  11.351   2.429
67848W        W40916  21.700  37.780  12.018
67849W        W40917  43.118  33.668  12.861
67850W        W40918  33.734   7.216  13.403
67851W        W40919  38.412  25.658  11.196
67852W        W40920  18.088  33.332   0.459
67853W        W40921   4.358  21.837   3.601
67854W        W40922  40.894  41.508  12.872
67855W        W40923  29.447  13.798  14.510
67856W        W40924  40.988   0.850   0.335
67857W        W40925  35.489  22.208  11.030
67858W        W40926  29.730  16.881   0.465
67859W        W40927   0.756  30.404   3.680
67860W        W40928   7.442  19.310  10.991
67861W        W40929  24.715   4.238  11.421
67862W        W40930  11.857  16.348   3.281
67863W        W40931  35.112  25.649  13.844
67864W        W40932  22.032   2.093   0.353
67865W        W40933  21.192   9.958  10.098
67866W        W40934   5.332   5.144  13.585
67867W        W40935  27.199  19.458  11.666
67868W        W40936   1.539  21.246   4.302
67869W        W40937  22.544  17.798   0.648
67870W        W40938  35.496  43.271   2.716
67871W        W40939  40.352   5.839   3.416
67872W        W40940  30.974   3.743   4.103
67873W        W40941  33.473   2.361   4.658
67874W        W40942  39.041   7.159  11.984
67875W        W40943   8.192  16.734   0.408
67876W        W40944  35.135  30.592  12.493
67877W        W40945  26.946  41.992   3.667
67878W        W40946  32.266  25.033  13.942
67879W        W40947   1.741   8.143  10.650
67880W        W40948   5.951   1.189   2.400
67881W        W40949  22.649  24.471  14.230
67882W        W40950   7.319   8.975  11.983
67883W        W40951  20.137  23.542   3.303
67884W        W40952   6.350   0.403  10.444
67885W        W40953  15.540  29.391  10.193
67886W        W40954  40.779  15.076  14.354
67887W        W40955   6.600  12.922   0.586
67888W        W40956  28.002  30.674   0.419
67889W        W40957  31.765   9.769   0.236
67890W        W40958  40.356   6.317   1.304
67891W        W40959  38.982  25.720   4.564
67892W        W40960   6.106   5.130   1.217
67893W        W40961  38.288  25.172   3.285
67894W        W40962  19.743  11.326   4.695
67895W        W40963  36.848  41.292   3.711
67896W        W40964  42.807   8.372   2.841
67897W        W40965  26.719  22.672  12.110
67898W        W40966   1.635  28.023  11.879
67899W        W40967  12.602   3.730   1.318
67900W        W40968  23.671  18.350  12.502
67901W        W40969  41.959  37.676  10.706
67902W        W40970  40.411  18.187  14.866
67903W        W40971  16.695  44.238  13.804
67904W        W40972  39.939  18.892  11.115
67905W        W40973  14.228  12.351  13.334
67906W        W40974  11.868  34.404   4.476
67907W        W40975  24.328   5.451   0.294
67908W        W40976   1.680  27.725   4.500
67909W        W40977  18.972  41.628  11.389
67910W        W40978  32.401  25.474   1.154
67911W        W40979   7.888  37.979   3.308
67912W        W40980  12.117  42.758   3.837
67913W        W40981  31.457  35.437   2.257
67914W        W40982  42.431  40.806  12.460
67915W        W40983   2.653  24.125  12.859
67916W        W40984  28.219  19.661  10.947
67917W        W40985  38.099  12.322  11.075
67918W        W40986  25.927  25.175   2.794
67919W        W40987  19.575  26.507  11.544
67920W        W40988  39.951  28.502  11.631
67921W        W40989  26.051  37.601   1.416
67922W        W40990  27.108   3.348  12.944
67923W        W40991  40.963  34.906   3.913
67924W        W40992   5.028  24.191  11.200
67925W        W40993  12.434  20.587   1.780
67926W        W40994  32.657  29.118  11.590
67927W        W40995   3.783   4.310  12.417
67928W        W40996   6.206  11.364  13.482
67929W        W40997  29.962  24.835  12.461
67930W        W40998  33.629  23.409  10.760
67931W        W40999   6.900  37.061   3.174
67932W        W41000  19.913  20.094   4.933
67933W        W41001   3.827  13.920  14.929
67934W        W41002  40.906  26.655   3.220
67935W        W41003  15.559  37.848  14.390
67936W        W41004   7.958   6.790  11.026
67937W        W41005  40.161  39.820  12.839
67938W        W41006  15.201  39.041   2.169
67939W        W41007  37.542   8.744  13.170
67940W        W41008  42.989   7.338  12.196
67941W        W41009   1.954   1.081  13.504
67942W        W41010  20.035  11.614  11.422
67943W        W41011  22.039  44.637   1.504
67944W        W41012  34.652  14.281  10.744
67945W        W41013  31.941  25.237  10.742
67946W        W41014  26.509   2.129   3.309
67947W        W41015  38.036  23.060  13.545
67948W        W41016  37.434  21.571   1.212
67949W        W41017  18.087  28.142   4.262
67950W        W41018  11.473  29.070  10.714
67951W        W41019  37.335   9.088  10.306
67952W        W41020  33.928  20.659   2.673
67953W        W41021  18.657   0.650   0.263
67954W        W41022  38.043   6.535  14.138
67955W        W41023  31.795  25.130   1.306
67956W        W41024  19.256  28.089  11.231
67957W        W41025  33.898   0.935   0.843
67958W        W41026   8.152   8.068  14.704
67959W        W41027  33.349  30.510   4.615
67960W        W41028  11.063  31.683  13.960
67961W        W41029   9.813  18.877   2.068
67962W        W41030  41.574   0.315   0.029
67963W        W41031  19.760  24.968  12.018
67964W        W41032  39.942  31.811   1.356
67965W        W41033  33.982  17.005  14.147
67966W        W41034   7.461  44.397   1.239
67967W        W41035  36.065  32.575  13.566
67968W        W41036  11.802  18.341   4.809
67969W        W41037  12.715  15.752  13.930
67970W        W41038  10.624  29.586  10.631
67971W        W41039   9.206  28.577  11.580
67972W        W41040  38.362  39.799  13.579
67973W        W41041  21.685  29.294   2.241
67974W        W41042   4.373  28.601  10.550
67975W        W41043  25.540  19.649   4.149
67976W        W41044  30.134  43.770   1.419
67977W        W41045  21.609  13.142  12.891
67978W        W41046  25.505  22.175   4.789
67979W        W41047   5.040  33.313   4.145
67980W        W41048  11.092  37.076   3.882
67981W        W41049  33.091   7.373  12.635
67982W        W41050  12.382  26.078  13.809
67983W        W41051  34.078  17.746  14.874
67984W        W41052  20.071  31.765   0.322
67985W        W41053   9.853  33.072   4.651
67986W        W41054  18.529  12.347  10.702
67987W        W41055   1.391  11.897   3.957
67988W        W41056  40.704  42.014   0.105
67989W        W41057   0.293   0.392  12.622
67990W        W41058   3.540  40.019  10.591
67991W        W41059  14.657   8.632   0.722
67992W        W41060  34.386  27.962   4.259
67993W        W41061  43.004  31.139  14.826
67994W        W41062  44.364  32.895  10.672
67995W        W41063  21.557  41.489   3.709
67996W        W41064  39.135  17.039  11.072
67997W        W41065  43.045  22.136  13.790
67998W        W41066  14.969  10.719  14.771
67999W        W41067  10.094   4.023   3.295
68000W        W41068   0.987  28.661   4.067
68001W        W41069   6.055  29.920   2.791
68002W        W41070   4.477  18.156   4.163
68003W        W41071  21.697  38.487  12.810
68004W        W41072   7.270  29.522  13.414
68005W        W41073  29.709  37.089   3.615
68006W        W41074  27.151  36.791   1.116
68007W        W41075  14.243  21.809  12.979
68008W        W41076  10.878  17.529  13.029
68009W        W41077   9.217  19.081   2.880
68010W        W41078  21.054  18.564  12.676
68011W        W41079  19.639  33.889   3.576
68012W        W41080  21.726  14.782   0.329
68013W        W41081   6.126  32.975  12.466
68014W        W41082  37.251  42.472   1.792
68015W        W41083   1.107  27.966  13.503
68016W        W41084  40.290  42.176  10.755
68017W        W41085  14.092   0.843  10.609
68018W        W41086  39.853   2.425   5.110
68019W        W41087  20.787  37.057  10.782
68020W        W41088  18.494   9.535   3.298
68021W        W41089  38.094  31.359  13.401
68022W        W41090   5.190   8.321  10.972
68023W        W41091   4.202  24.311   0.431
68024W        W41092  10.723  25.550   2.421
68025W        W41093  28.957  17.295   2.971
68026W        W41094   4.656  39.974  12.059
68027W        W41095   0.685  27.445  11.130
68028W        W41096  12.783  24.904  14.889
68029W        W41097  31.365  33.140   4.593
68030W        W41098  19.271   1.378   3.512
68031W        W41099  41.532  26.171   0.739
68032W        W41100  40.353   1.354  14.889
68033W        W41101  21.094  41.933   3.356
68034W        W41102  43.876  12.840   1.305
68035W        W41103  36.842  21.921  10.659
68036W        W41104  44.009  44.197  12.017
68037W        W41105   9.103  32.111   3.879
68038W        W41106  30.625   8.271   2.346
68039W        W41107  14.705  41.125   3.013
68040W        W41108  21.248   0.727   2.907
68041W        W41109  10.380  27.515  10.633
68042W        W41110  32.359  24.577   3.759
68043W        W41111   7.172   3.490   4.928
68044W        W41112  17.277  26.493  13.366
68045W        W41113  43.513  19.996   4.163
68046W        W41114  26.727  17.240  11.393
68047W        W41115  15.268  31.687   3.653
68048W        W41116  40.039  12.687   0.287
68049W        W41117  13.450  38.546   3.311
68050W        W41118   4.899  27.665   4.904
68051W        W41119  34.137  34.030   2.754
68052W        W41120  39.313  22.107   1.943
68053W        W41121  19.527  21.127   4.168
68054W        W41122  22.534  16.995   2.665
68055W        W41123  19.242  17.448  13.907
68056W        W41124  12.076  13.640  14.959
68057W        W41125  21.654  36.960  11.523
68058W        W41126  22.639  32.460   4.591
68059W        W41127  43.094   9.379   3.100
68060W        W41128  20.793  18.620  13.976
68061W        W41129  10.407  23.558   4.595
68062W        W41130  40.765  29.488  11.097
68063W        W41131  26.109  12.543   5.103
68064W        W41132   2.962  26.154   3.713
68065W        W41133  39.816  42.308   4.293
68066W        W41134  25.639  17.046   4.211
68067W        W41135  10.273  21.648   0.474
68068W        W41136  19.264   8.150   0.118
68069W        W41137  30.099  18.279   1.841
68070W        W41138  14.281  28.764   0.684
68071W        W41139  34.408   2.749  12.553
68072W        W41140  16.697  32.653   2.385
68073W        W41141  44.431  26.117  10.596
68074W        W41142  30.456  24.458  11.911
68075W        W41143  37.340  23.310  14.791
68076W        W41144  39.446  15.803  12.347
68077W        W41145   2.874  39.537   3.601
68078W        W41146  27.882  27.047   2.656
68079W        W41147  26.999  32.386   2.913
68080W        W41148  38.122  28.045  13.947
68081W        W41149  17.591   8.938  14.946
68082W        W41150   8.334   8.885   1.298
68083W        W41151   5.944  24.156  14.968
68084W        W41152  24.759  12.628   3.245
68085W        W41153  16.080  37.268   2.880
68086W        W41154  18.995  40.807  11.929
68087W        W41155  40.284  18.162   1.365
68088W        W41156  36.563  16.578   1.517
68089W        W41157   5.985  20.265   2.717
68090W        W41158  42.976  21.495  10.719
68091W        W41159  43.069  30.655  11.084
68092W        W41160  18.776   7.176   1.982
68093W        W41161  25.499  34.552   4.601
68094W        W41162  33.815  18.236   4.951
68095W        W41163  34.142  21.216   1.369
68096W        W41164   4.992  42.457  10.671
68097W        W41165  17.633  27.266   0.917
68098W        W41166  38.015  33.050   3.704
68099W        W41167   8.437  19.564   1.220
68100W        W41168  34.670  23.641  14.263
68101W        W41169  32.223  18.594   3.234
68102W        W41170  13.489  18.505   9.612
68103W        W41171  29.826  42.806   1.426
68104W        W41172  19.515  22.291   3.178
68105W        W41173  35.184  19.325   1.296
68106W        W41174  35.369  12.065  13.382
68107W        W41175  19.669  39.574   4.289
68108W        W41176   6.894  31.444  14.422
68109W        W41177   0.958  38.354  12.509
68110W        W41178  25.966  36.408  14.848
68111W        W41179  11.361  29.967   2.934
68112W        W41180  23.064  36.524   2.823
68113W        W41181  33.896  44.698   0.917
68114W        W41182  26.914  20.474  11.593
68115W        W41183  23.201  26.259   0.380
68116W        W41184  19.114   6.268   3.418
68117W        W41185   4.449   7.902  14.414
68118W        W41186  33.285  37.449   3.141
68119W        W41187   7.297  18.571   4.636
68120W        W41188  32.448   6.314  13.528
68121W        W41189  33.485  32.488   1.694
68122W        W41190  17.749  26.785   4.816
68123W        W41191  21.702  43.104   0.716
68124W        W41192   0.378  10.881   0.245
68125W        W41193  35.637  14.333   3.722
68126W        W41194  22.278  24.548   1.064
68127W        W41195  29.608  15.536   5.013
68128W        W41196  13.604  11.328   2.779
68129W        W41197  37.592  41.437  10.689
68130W        W41198  37.593  30.155  14.037
68131W        W41199   1.047  16.571  11.960
68132W        W41200  36.118  16.787   1.789
68133W        W41201   4.978   4.165  14.934
68134W        W41202   0.364  41.871  11.908
68135W        W41203  10.634  36.524  13.085
68136W        W41204  21.089   2.217   0.449
68137W        W41205  34.457   6.071  14.942
68138W        W41206  26.190  26.933  12.970
68139W        W41207  25.330  37.013   1.254
68140W        W41208   0.410  22.170   0.748
68141W        W41209  33.168  31.586  14.503
68142W        W41210  34.714  30.842  13.849
68143W        W41211  10.964  17.991   2.238
68144W        W41212   9.625  38.823  13.504
68145W        W41213  20.677  23.537  12.351
68146W        W41214  37.715  39.511  13.303
68147W        W41215  13.223   8.740  14.901
68148W        W41216  38.075  15.870   2.773
68149W        W41217   8.776  43.098  10.557
68150W        W41218   4.402  27.227   2.286
68151W        W41219   0.557  29.885   0.914
68152W        W41220  16.631  12.669  13.718
68153W        W41221  34.837  22.410  14.126
68154W        W41222  42.761   5.734  13.124
68155W        W41223  25.696  43.895  12.100
68156W        W41224  11.131  18.344   4.517
68157W        W41225   4.213   0.057  11.630
68158W        W41226  39.827   5.735   3.400
68159W        W41227  18.133   2.349  11.075
68160W        W41228  31.228   9.661   2.151
68161W        W41229  28.509  39.998  11.182
68162W        W41230   1.666  19.694   0.727
68163W        W41231  28.954   2.681  13.143
68164W        W41232   7.391  24.147  11.646
68165W        W41233  43.451   6.638  11.200
68166W        W41234   5.857  18.187  14.091
68167W        W41235  40.114  31.434   2.353
68168W        W41236  32.539  35.736   5.114
68169W        W41237  20.834   2.303   4.736
68170W        W41238  23.258  40.454  14.599
68171W        W41239  29.021  31.080   2.771
68172W        W41240  40.221  25.339  12.195
68173W        W41241   3.311  32.860   3.682
68174W        W41242  42.105  12.224   0.881
68175W        W41243  14.713  22.151   2.132
68176W        W41244  13.920   3.507  14.614
68177W        W41245  18.186   5.633   2.787
68178W        W41246  44.692  33.194   1.186
68179W        W41247   7.826  38.999   5.036
68180W        W41248  12.256  19.753   4.158
68181W        W41249  44.505   3.131   4.704
68182W        W41250   5.886  22.713   3.159
68183W        W41251   0.517   4.459  14.588
68184W        W41252  37.878  12.639   3.119
68185W        W41253  43.454  17.763   1.136
68186W        W41254   1.953  26.682   4.557
68187W        W41255  30.459  15.343  10.714
68188W        W41256   8.460  26.439  14.556
68189W        W41257  17.728  33.079  14.047
68190W        W41258  35.915  32.001   3.636
68191W        W41259  15.523   0.496   3.314
68192W        W41260  12.707  26.051   4.312
68193W        W41261  13.759  23.600   4.352
68194W        W41262  44.952  22.797  13.764
68195W        W41263   0.960  23.975   0.927
68196W        W41264  30.709   0.367   4.731
68197W        W41265  20.758  33.240  10.713
68198W        W41266   7.381  44.175   0.251
68199W        W41267   6.654  33.551  12.088
68200W        W41268  43.043   8.193  13.867
68201W        W41269  37.979   5.856   2.282
68202W        W41270   2.302  18.048   0.460
68203W        W41271  28.082  19.015  13.491
68204W        W41272   9.660  17.991   3.576
68205W        W41273  12.263   7.457  12.398
68206W        W41274  17.055  27.734  14.529
68207W        W41275  44.643  41.487  11.185
68208W        W41276  19.527  44.012  12.538
68209W        W41277  32.116  15.993  12.699
68210W        W41278   9.983  38.758   0.178
68211W        W41279   9.284   2.754  14.911
68212W        W41280  13.025  27.678   1.388
68213W        W41281  32.192  19.553   1.968
68214W        W41282  19.095  19.096  12.168
68215W        W41283  21.850  22.193  10.444
68216W        W41284  41.485  10.696   4.101
68217W        W41285  22.393  10.251   5.077
68218W        W41286  24.462  16.929  10.265
68219W        W41287  30.973  40.063   0.831
68220W        W41288  23.270  44.404  11.313
68221W        W41289  34.366  10.393   2.733
68222W        W41290   6.509  24.043   4.045
68223W        W41291  16.403   7.532  12.925
68224W        W41292  40.488  19.375  13.919
68225W        W41293  18.706  30.495   0.990
68226W        W41294  41.125  30.693  12.566
68227W        W41295  18.537  11.596  14.673
68228W        W41296   0.790  21.137   1.914
68229W        W41297   0.490  32.398  14.462
68230W        W41298  20.586  15.176   1.841
68231W        W41299  23.244  21.744   0.988
68232W        W41300   8.371   5.601  14.447
68233W        W41301  33.446  29.966  11.479
68234W        W41302  32.128   6.909  11.617
68235W        W41303  23.289   4.762   2.593
68236W        W41304  15.855   0.826  11.429
68237W        W41305  10.407   4.417  14.470
68238W        W41306  41.027  32.166  14.717
68239W        W41307  16.213   5.796  14.520
68240W        W41308  12.958  44.367   1.370
68241W        W41309   1.331   0.412  13.617
68242W        W41310  26.440  18.289  13.928
68243W        W41311  32.868   3.728  10.568
68244W        W41312  43.489   5.326  13.522
68245W        W41313  31.856  26.452  10.020
68246W        W41314  43.374  33.833  13.614
68247W        W41315  28.663  25.692   1.625
68248W        W41316  35.521  29.226   2.219
68249W        W41317  37.946  40.004  10.718
68250W        W41318  10.275   1.991  13.058
68251W        W41319  39.792  40.877   0.476
68252W        W41320  29.060   6.164   2.271
68253W        W41321   6.062  39.922  10.946
68254W        W41322  37.015  11.935   0.925
68255W        W41323  18.135  33.274  12.922
68256W        W41324  34.092  20.353  14.857
68257W        W41325  32.160  20.115  10.652
68258W        W41326   0.913   8.668  11.770
68259W        W41327  19.394   7.163   0.251
68260W        W41328  21.041  11.865  11.670
68261W        W41329  37.985  25.263   3.724
68262W        W41330  41.828  32.695  13.380
68263W        W41331  41.768  33.918   2.091
68264W        W41332  33.550   8.678   0.467
68265W        W41333  19.707   0.842  11.227
68266W        W41334  31.168   5.343   0.302
68267W        W41335  33.550   9.423  10.913
68268W        W41336  28.681  38.940   4.358
68269W        W41337  26.395  14.685  12.928
68270W        W41338  25.347  42.071   0.901
68271W        W41339   9.438  14.800  12.478
68272W        W41340   1.848  30.426   2.239
68273W        W41341   6.494  36.921  11.544
68274W        W41342   2.430   1.438   0.252
68275W        W41343  30.151  24.102  11.681
68276W        W41344  44.447   8.728  14.213
68277W        W41345  17.213  11.227  14.504
68278W        W41346  10.881   7.255   1.347
68279W        W41347   5.994  28.001  13.499
68280W        W41348  17.208  42.430  13.743
68281W        W41349   3.195  35.867  12.525
68282W        W41350  17.823  22.548   1.547
68283W        W41351  28.922  17.666  14.751
68284W        W41352  15.368  32.564  12.050
68285W        W41353   6.667   9.406   3.914
68286W        W41354   0.863  15.646  13.868
68287W        W41355  21.160  35.476  13.138
68288W        W41356  13.082  32.608  12.688
68289W        W41357   4.484  22.069   1.308
68290W        W41358   0.171  14.084  11.204
68291W        W41359  18.531  13.365  12.752
68292W        W41360   9.860  15.610   0.326
68293W        W41361  33.102  30.590   2.322
68294W        W41362  20.119   1.901   5.081
68295W        W41363   3.343  29.415  12.554
68296W        W41364  39.479   7.675  10.059
68297W        W41365  20.859   0.410   0.970
68298W        W41366   0.758  10.383   0.015
68299W        W41367  17.075  38.883   1.678
68300W        W41368  37.425   7.024  13.595
68301W        W41369   6.633  23.489  12.403
68302W        W41370  23.963   4.718   1.654
68303W        W41371  44.068  30.124  11.543
68304W        W41372  29.533  17.292   0.219
68305W        W41373  29.101   0.309   1.453
68306W        W41374  14.280  27.983  13.067
68307W        W41375  34.956  12.783  13.418
68308W        W41376  19.398  23.691  13.004
68309W        W41377   7.999   2.921  12.644
68310W        W41378  40.768  18.223  11.131
68311W        W41379  38.496   4.238  13.929
68312W        W41380   3.706  26.225  12.571
68313W        W41381  44.422   4.022  11.595
68314W        W41382   1.946  19.635  12.827
68315W        W41383  24.828  32.548   0.414
68316W        W41384   6.173  22.505   4.652
68317W        W41385   7.276  29.117   2.251
68318W        W41386  32.139   9.888  11.951
68319W        W41387  44.548  28.356  10.210
68320W        W41388  26.741   2.978  10.495
68321W        W41389  43.375   0.906   3.729
68322W        W41390  20.194  22.934  14.563
68323W        W41391  20.795  28.049  12.358
68324W        W41392  22.425  14.386  11.697
68325W        W41393  29.284  41.093   1.209
68326W        W41394  29.465  37.020   1.056
68327W        W41395   5.712  20.483  14.886
68328W        W41396  12.108  10.328  10.719
68329W        W41397   4.430  39.648   1.247
68330W        W41398  25.340   2.410  10.546
68331W        W41399   5.343   6.767  14.358
68332W        W41400  11.236   9.887   4.104
68333W        W41401  21.723  30.691   0.765
68334W        W41402  24.050  34.506  11.354
68335W        W41403  40.451  39.653  11.462
68336W        W41404   9.369  15.991   4.663
68337W        W41405  25.103   3.984   3.217
68338W        W41406  36.619  10.739  11.267
68339W        W41407   6.219  12.075   0.996
68340W        W41408   1.042  18.027  13.467
68341W        W41409  19.761  19.731   4.140
68342W        W41410   4.455   5.954   4.125
68343W        W41411  25.940   7.829   4.493
68344W        W41412  13.871  11.208   2.358
68345W        W41413  16.853   0.623  13.581
68346W        W41414  34.356   5.664   1.864
68347W        W41415  10.212  12.437  14.435
68348W        W41416  32.254  39.340  11.456
68349W        W41417  18.742  22.045  11.070
68350W        W41418  37.560  35.359   0.737
68351W        W41419  24.631  11.274   4.654
68352W        W41420   9.133   6.369  14.840
68353W        W41421  27.100  21.023  13.343
68354W        W41422  41.503   8.177  11.893
68355W        W41423  30.159   3.803  12.489
68356W        W41424  29.817   6.229  10.669
68357W        W41425  24.706   1.014   0.921
68358W        W41426  40.623  26.684  13.878
68359W        W41427  17.532  15.788  13.906
68360W        W41428  41.308  19.085  10.897
68361W        W41429  44.298  22.969   0.772
68362W        W41430  20.021  14.629   0.833
68363W        W41431   7.793   0.152  12.483
68364W        W41432  40.859  19.799  14.013
68365W        W41433  12.638  23.540  11.421
68366W        W41434  26.907  14.248   2.834
68367W        W41435  10.659  15.212   2.123
68368W        W41436   8.611   3.484  10.720
68369W        W41437   3.617  37.164   3.836
68370W        W41438  40.830  30.570   4.332
68371W        W41439   3.715  33.521   1.915
68372W        W41440  26.742   0.769  12.025
68373W        W41441  11.333  12.508   4.727
68374W        W41442  20.845  14.051   2.787
68375W        W41443  38.848  16.349   3.704
68376W        W41444  24.804  40.543   2.806
68377W        W41445  38.761  25.156   1.372
68378W        W41446  32.898  16.790   2.355
68379W        W41447  33.831  20.310   1.413
68380W        W41448  19.540  42.683  14.495
68381W        W41449   4.493  19.723   1.302
68382W        W41450  11.166  32.125   2.269
68383W        W41451  23.650   9.252  13.743
68384W        W41452  11.372  32.998  12.883
68385W        W41453  28.637  41.095   4.171
68386W        W41454  19.359  11.998  14.913
68387W        W41455  18.971   6.182  11.018
68388W        W41456  31.646  18.039   2.142
68389W        W41457  15.634  10.327   0.414
68390W        W41458  23.980  34.006  14.887
68391W        W41459  11.763  42.985   3.531
68392W        W41460  12.405  36.050   4.875
68393W        W41461  29.600  41.416   3.972
68394W        W41462  41.191  34.058  13.136
68395W        W41463   7.272  43.222  14.900
68396W        W41464  26.199  42.799   4.689
68397W        W41465  43.506  24.180   1.598
68398W        W41466  25.627  13.106  12.122
68399W        W41467  30.693  10.729   3.769
68400W        W41468  42.534   9.862  14.159
68401W        W41469  33.999  22.142  11.951
68402W        W41470  26.526  31.631  11.609
68403W        W41471   1.407  36.417  11.192
68404W        W41472  14.069  42.987   0.115
68405W        W41473  13.225   7.190  14.404
68406W        W41474   2.740  28.385  11.228
68407W        W41475  43.062  29.994  13.990
68408W        W41476  41.477  23.832  12.427
68409W        W41477  29.428  37.034  12.122
68410W        W41478   5.340  21.489  12.473
68411W        W41479  23.890  30.277  13.282
68412W        W41480  20.463   4.341  12.893
68413W        W41481   3.405  32.480   3.363
68414W        W41482  22.030   8.211  14.432
68415W        W41483  32.382  14.807   0.485
68416W        W41484  26.113   3.858  14.495
68417W        W41485  19.765  39.968   1.696
68418W        W41486  38.335  41.390  11.124
68419W        W41487   2.045   7.483  14.671
68420W        W41488  30.656  10.636  11.822
68421W        W41489  20.638  26.697  11.880
68422W        W41490   6.409  20.622   4.542
68423W        W41491   2.405   9.620   0.785
68424W        W41492   2.766  20.228   4.834
68425W        W41493  16.257   9.875  14.452
68426W        W41494  18.704  42.295   2.174
68427W        W41495   0.425  15.421  14.431
68428W        W41496  15.040   1.631  10.842
68429W        W41497  38.482  20.576   0.630
68430W        W41498  22.731  25.977   3.118
68431W        W41499  31.119  37.411  12.795
68432W        W41500  42.051  30.858   0.747
68433W        W41501   6.887   9.241   2.891
68434W        W41502  33.111  13.712   0.190
68435W        W41503  27.536  23.070   0.064
68436W        W41504  29.890  35.108   5.044
68437W        W41505  38.958  11.335  10.497
68438W        W41506  36.619  44.373   2.788
68439W        W41507  25.120  25.687   4.250
68440W        W41508   6.431  26.196   0.952
68441W        W41509   8.756  41.415  14.265
68442W        W41510   6.310   9.130   1.263
68443W        W41511   7.833  39.337   1.851
68444W        W41512  30.531  29.213  12.121
68445W        W41513  37.849  19.588   4.583
68446W        W41514  44.490  24.588   1.246
68447W        W41515  40.411  41.167  10.662
68448W        W41516  13.073   0.811  10.416
68449W        W41517  29.539  20.612   4.656
68450W        W41518  24.241   6.516  13.363
68451W        W41519  11.185  41.362   4.394
68452W        W41520  18.511  42.521   3.612
68453W        W41521  34.164  38.421   3.251
68454W        W41522  26.786  16.005   0.744
68455W        W41523  25.806  40.138   5.403
68456W        W41524  14.368  18.671   5.047
68457W        W41525   7.794  41.580   3.228
68458W        W41526   7.255   3.867   1.880
68459W        W41527  10.420  41.506   2.871
68460W        W41528  28.065  14.803   2.186
68461W        W41529  40.442  38.337   4.728
68462W        W41530  29.943  43.691   3.880
68463W        W41531  18.788   6.540   1.170
68464W        W41532  41.069  42.293  13.355
68465W        W41533  23.485  26.245   0.831
68466W        W41534  33.570  37.154   1.604
68467W        W41535  15.265  36.529   4.236
68468W        W41536  26.897  17.005  13.465
68469W        W41537   0.711  16.692   1.256
68470W        W41538  26.513   6.777   1.698
68471W        W41539  14.260  26.991  11.321
68472W        W41540   4.431  35.136  11.518
68473W        W41541  29.425  26.035  14.581
68474W        W41542  21.318  35.789  12.040
68475W        W41543  21.636  34.834  14.493
68476W        W41544   8.986  35.935  13.016
68477W        W41545  33.323  12.433  11.234
68478W        W41546  38.795  14.790  12.484
68479W        W41547  21.592  11.758  13.800
68480W        W41548   6.251   9.081  12.448
68481W        W41549   4.860  28.152  14.034
68482W        W41550  44.480  17.313  11.111
68483W        W41551  19.055  10.789  10.731
68484W        W41552  29.212  15.805   1.307
68485W        W41553  40.021   5.770   5.168
68486W        W41554  38.803  44.239  13.037
68487W        W41555   9.185  11.341  14.403
68488W        W41556  33.740   0.860  13.536
68489W        W41557  18.750  41.516   2.929
68490W        W41558  30.901  30.751  12.932
68491W        W41559  23.603   2.659  10.781
68492W        W41560   0.828  38.379  14.410
68493W        W41561  43.914  24.100  14.112
68494W        W41562  19.916  22.195  11.541
68495W        W41563  38.092  44.026   1.345
68496W        W41564  40.969  18.614  12.133
68497W        W41565  15.732  20.642  13.459
68498W        W41566   3.832  16.776  12.884
68499W        W41567  18.460  24.266  10.354
68500W        W41568  18.156   2.812  12.688
68501W        W41569   1.687  10.308  14.874
68502W        W41570   4.136   8.255   0.105
68503W        W41571   5.831   1.782  14.345
68504W        W41572  11.694  44.789   1.430
68505W        W41573  13.899   9.012   3.233
68506W        W41574  43.941   1.521   0.973
68507W        W41575  11.854   9.434   2.366
68508W        W41576  19.620  30.600  11.918
68509W        W41577  40.864   7.071  12.817
68510W        W41578   3.430  38.466   0.948
68511W        W41579   9.348  20.080  12.905
68512W        W41580  24.253  39.547  11.402
68513W        W41581  25.595   0.754   2.428
68514W        W41582  32.421  10.690   2.208
68515W        W41583  42.434  10.692  13.936
68516W        W41584  27.088  43.548   2.894
68517W        W41585  37.308   8.282  12.992
68518W        W41586  34.380  11.321   1.488
68519W        W41587  34.436  36.144  14.930
68520W        W41588   7.155  21.042  14.774
68521W        W41589  31.027  17.869   0.863
68522W        W41590   2.151  11.875   1.647
68523W        W41591  18.854  10.411   0.706
68524W        W41592  16.212  21.826   1.235
68525W        W41593   9.668  35.358  13.488
68526W        W41594   7.398  18.760   3.300
68527W        W41595  14.796   0.004   0.886
68528W        W41596  36.532   6.424   3.687
68529W        W41597   2.781  29.494   0.182
68530W        W41598  30.064  13.457   4.837
68531W        W41599  14.884   8.389  12.566
68532W        W41600  21.762  40.825  10.661
68533W        W41601   9.968  33.606   3.556
68534W        W41602  22.906   7.532   1.754
68535W        W41603  23.482  28.524  14.853
68536W        W41604  35.844  12.267  13.425
68537W        W41605  32.503  43.715  12.394
68538W        W41606  28.073  39.540  10.983
68539W        W41607   6.087  25.872   4.075
68540W        W41608  36.022  40.961   2.169
68541W        W41609  41.244   5.016   3.754
68542W        W41610  24.138  20.085  10.203
68543W        W41611  25.470  44.276   1.218
68544W        W41612  23.511  18.113   0.410
68545W        W41613  32.641  12.683  10.740
68546W        W41614  15.846   5.742   3.731
68547W        W41615  27.969  36.840  14.849
68548W        W41616  18.333  39.132  13.061
68549W        W41617  30.075  19.087  14.963
68550W        W41618  14.738  12.540  10.622
68551W        W41619   2.458  38.471   0.862
68552W        W41620  14.546  38.844   1.691
68553W        W41621  10.739  17.276   3.123
68554W        W41622  23.011  18.135  13.894
68555W        W41623  39.520   5.001   1.956
68556W        W41624  21.602   8.894   1.724
68557W        W41625  12.373  16.617  12.868
68558W        W41626  44.556  26.100   4.824
68559W        W41627  43.211  14.176   0.726
68560W        W41628  16.797  20.273  14.384
68561W        W41629  29.737  15.762   1.251
68562W        W41630  13.621  41.726   0.335
68563W        W41631  25.747  21.502  13.144
68564W        W41632   9.256  32.005  11.519
68565W        W41633  29.084  41.215   1.758
68566W        W41634  20.627  25.576  12.586
68567W        W41635   9.934  39.507  12.937
68568W        W41636  31.703  26.663  11.242
68569W        W41637  39.067  34.802   4.954
68570W        W41638  34.106  44.269  10.582
68571W        W41639   0.881  32.836   2.494
68572W        W41640  14.000  16.666   2.272
68573W        W41641  44.014  19.320   0.296
68574W        W41642  37.288  34.135  14.329
68575W        W41643  25.020  40.832   2.395
68576W        W41644  23.114  17.570  12.492
68577W        W41645  42.994  17.764   1.752
68578W        W41646  36.451   0.870  12.199
68579W        W41647  43.031  26.228  11.132
68580W        W41648  15.924  14.703  14.270
68581W        W41649  16.045  19.572   5.219
68582W        W41650  30.147   7.818   3.696
68583W        W41651  34.655  44.928  11.585
68584W        W41652  40.810   3.374   1.697
68585W        W41653  40.975  22.275  13.013
68586W        W41654  34.255  33.031   2.269
68587W        W41655  17.723   8.696   1.262
68588W        W41656  18.761  17.850   4.143
68589W        W41657  15.723   0.871  12.954
68590W        W41658  15.579  37.655   4.526
68591W        W41659  17.315  23.731  14.691
68592W        W41660  16.204  35.771  14.994
68593W        W41661  25.458   7.630   1.273
68594W        W41662  14.226  39.282  14.358
68595W        W41663  32.629  35.126  11.448
68596W        W41664  13.800  24.165   4.276
68597W        W41665  13.571   5.174   1.881
68598W        W41666  35.964  16.019   4.705
68599W        W41667  12.741  22.614  12.432
68600W        W41668   3.387  30.970  11.636
68601W        W41669  33.425  39.999  11.420
68602W        W41670  13.214  23.585   0.011
68603W        W41671  17.209  12.232  12.029
68604W        W41672   3.328   6.826  12.477
68605W        W41673   6.987  12.435   3.865
68606W        W41674  23.609  28.454   4.640
68607W        W41675   8.646   4.235   4.306
68608W        W41676  25.276  26.538   2.762
68609W        W41677  36.484  38.775  11.681
68610W        W41678  14.223  41.331  13.020
68611W        W41679  37.241  34.612   4.895
68612W        W41680  20.341  11.747  14.720
68613W        W41681  35.759  15.172   4.721
68614W        W41682  12.866  12.635   2.504
68615W        W41683  34.387   9.888   2.791
68616W        W41684   3.855  28.230  12.597
68617W        W41685  14.770  41.402   4.154
68618W        W41686   9.144  22.581  13.276
68619W        W41687  26.047   6.233  14.023
68620W        W41688   0.785  32.591  14.854
68621W        W41689  42.300  40.792  10.913
68622W        W41690  38.078  28.192   3.862
68623W        W41691   9.320  14.746   0.014
68624W        W41692  31.437   1.731   0.853
68625W        W41693   6.167  40.965   4.662
68626W        W41694  39.020  27.085   0.251
68627W        W41695  40.999  21.550   4.396
68628W        W41696  17.445  33.972  12.978
68629W        W41697  43.157   3.727  13.770
68630W        W41698  42.467   1.669  13.382
68631W        W41699  14.320  37.258  13.278
68632W        W41700  14.568  43.450   3.280
68633W        W41701  22.885  16.568   2.696
68634W        W41702  18.652  27.705   0.791
68635W        W41703  12.775  31.389  14.275
68636W        W41704  28.814  28.697  11.571
68637W        W41705  41.102  34.620  14.903
68638W        W41706  26.662  19.879   3.053
68639W        W41707  21.307  44.450  11.491
68640W        W41708  32.845  31.988   3.224
68641W        W41709   9.155   4.940  13.576
68642W        W41710  16.513  43.541  12.549
68643W        W41711  25.067  38.532  13.646
68644W        W41712  23.491  24.248  14.475
68645W        W41713  26.231  25.862   4.219
68646W        W41714  37.182  36.985  10.495
68647W        W41715  11.626  19.097  13.534
68648W        W41716  32.950  28.235  13.457
68649W        W41717  30.176  10.275   3.318
68650W        W41718  37.122   1.415  12.519
68651W        W41719  24.717  39.335  10.242
68652W        W41720  14.883  22.205  14.841
68653W        W41721  18.496  11.888  14.232
68654W        W41722  33.517  32.472   0.746
68655W        W41723  33.600  40.228  11.887
68656W        W41724   8.157  43.363  13.348
68657W        W41725  13.104  36.536  14.734
68658W        W41726  43.285  38.395  12.522
68659W        W41727  36.517  20.676   3.316
68660W        W41728  17.060  22.806  14.271
68661W        W41729  22.129  27.732  10.572
68662W        W41730  16.827  26.814   4.140
68663W        W41731  28.617  32.760   2.220
68664W        W41732  42.535  26.792  14.915
68665W        W41733  37.607  11.131   4.095
68666W        W41734  36.833   5.726  12.616
68667W        W41735  38.901  28.537   4.613
68668W        W41736  19.742   9.950   3.726
68669W        W41737  36.595  13.200  14.391
68670W        W41738  42.955  28.725   2.347
68671W        W41739  32.788  44.895   3.351
68672W        W41740  33.941  29.593   1.470
68673W        W41741  30.497  25.699   0.015
68674W        W41742  31.422  22.797   0.966
68675W        W41743  19.994   9.379  12.052
68676W        W41744  34.556  34.795   1.323
68677W        W41745  41.450  31.032   2.678
68678W        W41746  17.739  33.966   4.845
68679W        W41747  35.618  12.789  12.950
68680W        W41748  14.708  37.402   2.725
68681W        W41749  42.512   1.915  14.459
68682W        W41750  21.812   8.348  11.464
68683W        W41751  28.690  10.102  13.029
68684W        W41752  29.484  33.932  10.555
68685W        W41753  34.004  44.881  12.966
68686W        W41754   6.290  41.620   5.179
68687W        W41755  23.500  21.651   3.812
68688W        W41756  30.706  42.881  13.837
68689W        W41757  14.192   8.112   1.204
68690W        W41758  34.851  40.876   1.399
68691W        W41759  28.997  27.642  14.002
68692W        W41760  19.673  14.300   1.064
68693W        W41761  42.982   7.640   1.885
68694W        W41762  34.787   7.474   2.353
68695W        W41763  26.893  25.137   1.850
68696W        W41764  21.437   2.330   1.521
68697W        W41765  19.559  32.032  13.415
68698W        W41766  37.508  10.640   2.672
68699W        W41767  14.586   4.083   3.611
68700W        W41768  19.263  11.258   1.676
68701W        W41769  12.641  24.424  11.989
68702W        W41770  24.229  11.749  12.634
68703W        W41771  21.277   2.781   1.684
68704W        W41772  12.343  43.536  11.250
68705W        W41773  26.206  23.107  13.895
68706W        W41774  41.573  10.708  13.116
68707W        W41775  11.435   8.918   0.354
68708W        W41776  43.403  21.323  10.404
68709W        W41777   1.842  21.216  13.384
68710W        W41778   9.151  44.408   4.644
68711W        W41779  34.839  40.294  14.880
68712W        W41780   7.866   2.946  12.146
68713W        W41781  37.371  39.781  10.011
68714W        W41782   0.940  14.545  13.352
68715W        W41783   1.235  28.485  13.552
68716W        W41784  28.466  13.167  11.257
68717W        W41785  37.789  38.039  12.884
68718W        W41786  28.431  36.640   0.049
68719W        W41787  44.212  12.727   3.908
68720W        W41788   1.977  31.655  10.692
68721W        W41789   4.250   8.790  11.632
68722W        W41790  43.782   5.405   2.556
68723W        W41791  13.102   6.312  10.033
68724W        W41792  34.302  22.645   3.422
68725W        W41793  31.177   1.316   3.244
68726W        W41794   1.194  12.159  14.775
68727W        W41795  12.717  40.185  10.551
68728W        W41796   1.896  33.324  13.833
68729W        W41797  39.771  19.759   4.079
68730W        W41798   6.776   6.785  13.088
68731W        W41799  28.062  25.223   3.569
68732W        W41800  37.258  40.223  12.736
68733W        W41801   2.451   9.869  12.394
68734W        W41802  30.123   8.109   2.264
68735W        W41803  37.328  33.023  13.086
68736W        W41804  41.424  39.593   1.483
68737W        W41805  25.625  40.876  13.889
68738W        W41806  24.204   5.530  12.502
68739W        W41807  39.920  20.547   2.871
68740W        W41808  15.325   3.193   2.776
68741W        W41809  30.121  20.162   0.479
68742W        W41810  38.926  22.188   0.011
68743W        W41811  29.607   3.671   2.871
68744W        W41812  34.870  19.746   2.179
68745W        W41813  36.379  37.051  14.418
68746W        W41814  26.690   0.249  13.881
68747W        W41815  12.427  16.808   1.153
68748W        W41816  43.405   6.929   4.278
68749W        W41817  18.982  36.512   0.882
68750W        W41818  21.389  25.466   3.122
68751W        W41819  29.775   6.287  11.574
68752W        W41820  11.645  44.020   1.589
68753W        W41821  27.449  11.210  13.492
68754W        W41822  43.432  26.764   3.780
68755W        W41823  15.292   4.155  13.454
68756W        W41824  28.216  12.765   3.290
68757W        W41825  13.079  17.474   4.121
68758W        W41826  24.944  24.941  14.395
68759W        W41827  18.339   9.485   1.215
68760W        W41828   3.326  39.780   1.263
68761W        W41829  32.132  12.652   0.008
68762W        W41830  14.327  12.298  12.822
68763W        W41831   9.412  30.302  14.046
68764W        W41832  18.199  27.239  13.876
68765W        W41833   2.880   8.322   2.424
68766W        W41834  42.756  16.580  13.448
68767W        W41835  42.762  21.705  13.944
68768W        W41836  24.568  36.479   3.984
68769W        W41837  34.048   3.677  13.855
68770W        W41838  12.791  42.882  10.654
68771W        W41839  40.151  17.907   3.601
68772W        W41840  11.883   7.855  10.560
68773W        W41841  15.241   7.958  12.865
68774W        W41842  23.460   4.315  13.986
68775W        W41843  22.542  17.301  13.578
68776W        W41844  43.343  42.610  10.371
68777W        W41845  16.329   3.877  12.523
68778W        W41846  28.674  15.738   1.334
68779W        W41847  21.076   6.829   4.971
68780W        W41848  32.505  21.004  12.356
68781W        W41849  27.918  17.720   3.644
68782W        W41850  35.996   7.461  12.661
68783W        W41851  35.967  37.868  14.887
68784W        W41852  32.899   3.547  12.876
68785W        W41853  18.005   1.677   3.248
68786W        W41854  24.625  14.102   4.487
68787W        W41855  22.072  42.372  10.685
68788W        W41856  26.339  16.991   1.712
68789W        W41857  37.550  17.994   1.505
68790W        W41858  38.484  41.269   4.309
68791W        W41859  15.649  15.723   2.558
68792W        W41860  39.516  42.362   4.800
68793W        W41861  26.182  24.663  14.371
68794W        W41862  15.664   1.726   1.572
68795W        W41863  21.434   8.681   0.374
68796W        W41864  16.496  31.335   0.323
68797W        W41865  30.291  42.107   0.922
68798W        W41866  42.922   2.977   0.739
68799W        W41867  41.378  15.286   3.897
68800W        W41868  26.578   9.698   0.374
68801W        W41869  34.868  44.265   0.496
68802W        W41870  42.033  28.482   3.226
68803W        W41871  10.199  31.342  14.576
68804W        W41872  31.854  36.005   2.725
68805W        W41873  13.873  27.070  12.812
68806W        W41874  17.601   2.993  10.917
68807W        W41875  39.442  11.700  11.898
68808W        W41876  13.055   5.983   4.229
68809W        W41877  26.157   2.615  11.177
68810W        W41878  24.867   6.372  14.820
68811W        W41879  22.142  20.308  12.768
68812W        W41880  14.970  11.247   3.288
68813W        W41881   1.048  25.234  11.604
68814W        W41882  37.015  22.685   3.832
68815W        W41883  34.337  40.986  14.317
68816W        W41884  37.549  25.604   1.358
68817W        W41885  28.825  15.131   4.616
68818W        W41886   2.857   6.530  14.790
68819W        W41887  30.889  24.515   0.783
68820W        W41888  36.104  34.099   0.277
68821W        W41889  25.184  44.506   3.775
68822W        W41890   3.098  11.914   5.078
68823W        W41891  24.528  24.649  14.565
68824W        W41892  37.976  17.751   1.776
68825W        W41893  38.076  25.774  12.981
68826W        W41894   6.772  20.752   3.257
68827W        W41895  17.066  33.029   0.009
68828W        W41896   5.350  10.177   1.003
68829W        W41897  26.645  41.400  11.156
68830W        W41898  34.647  13.529  12.920
68831W        W41899  14.140  25.146   1.161
68832W        W41900  12.647   2.290   2.397
68833W        W41901  22.979  26.746   0.318
68834W        W41902  31.664  18.130   0.026
68835W        W41903  33.589  32.046  14.480
68836W        W41904  16.144  18.307  13.943
68837W        W41905  43.579  29.502  14.461
68838W        W41906  26.083  17.060  10.677
68839W        W41907  30.845  42.039   0.428
68840W        W41908  41.576  17.228  14.312
68841W        W41909  21.986  37.378   3.215
68842W        W41910   4.667  10.383  10.858
68843W        W41911  34.671  19.962   0.869
68844W        W41912  32.865   3.880   2.598
68845W        W41913  30.891   9.569   4.500
68846W        W41914  40.859   5.606  12.032
68847W        W41915   0.852  42.984  12.620
68848W        W41916  43.896  14.345   0.852
68849W        W41917  23.677  30.701  11.568
68850W        W41918  26.901  38.888  11.621
68851W        W41919   1.931  15.243  12.389
68852W        W41920   6.734  35.609  14.982
68853W        W41921  15.601  35.538   4.681
68854W        W41922  40.140  30.573  14.782
68855W        W41923   9.696   2.383  11.474
68856W        W41924  16.143  39.196  12.838
68857W        W41925  38.038  22.177   1.378
68858W        W41926  41.870  40.821  13.772
68859W        W41927  23.791  22.520   0.918
68860W        W41928  41.236  36.621   2.465
68861W        W41929  30.937  36.813   0.770
68862W        W41930  41.986  25.211  10.973
68863W        W41931   5.001  14.279   2.661
68864W        W41932   8.285  14.770  13.416
68865W        W41933  18.250  10.943  11.117
68866W        W41934  18.142  38.891   3.434
68867W        W41935  14.741   0.698  14.589
68868W        W41936   9.351  41.939   3.258
68869W        W41937  20.903  32.443  12.487
68870W        W41938  10.828  32.062   1.876
68871W        W41939  38.740   7.299  13.112
68872W        W41940  44.016  25.962   0.882
68873W        W41941  41.359  24.045   0.488
68874W        W41942  29.063  15.725  14.587
68875W        W41943  20.429  13.821  14.255
68876W        W41944  43.044  19.741   4.117
68877W        W41945   0.352  25.185   3.160
68878W        W41946  40.577  35.780  14.301
68879W        W41947  13.879   9.142   0.920
68880W        W41948  43.469  42.521  12.357
68881W        W41949  34.760  20.818   2.315
68882W        W41950  13.902  41.745  14.860
68883W        W41951  15.549  36.002  11.172
68884W        W41952  33.623  40.379   1.246
68885W        W41953   6.941  35.802   2.886
68886W        W41954  37.929  36.511  11.218
68887W        W41955  39.814  25.495  13.107
68888W        W41956  18.838  19.878   4.242
68889W        W41957  29.070  38.747  14.339
68890W        W41958   9.693  22.503   4.106
68891W        W41959  32.341   3.267  14.964
68892W        W41960   1.395   6.444   0.368
68893W        W41961   2.504  15.627   1.672
68894W        W41962  24.655  40.736   4.666
68895W        W41963  15.712   9.775   4.499
68896W        W41964   1.466   1.447   4.298
68897W        W41965  13.517  14.691   3.442
68898W        W41966  41.467   3.324  10.763
68899W        W41967  15.051  29.093   0.367
68900W        W41968  12.623  16.145   3.772
68901W        W41969  36.322  18.160   2.633
68902W        W41970   2.397   8.436  12.575
68903W        W41971  33.369  20.984   2.672
68904W        W41972  34.848  41.502   1.817
68905W        W41973  21.061  40.885   0.770
68906W        W41974  27.289  36.428   3.191
68907W        W41975  13.339  12.752   1.058
68908W        W41976   8.087   4.708  14.829
68909W        W41977  16.925   4.993   1.646
68910W        W41978   8.829  24.991  11.893
68911W        W41979   1.375  29.105  10.894
68912W        W41980  20.133   9.903  13.572
68913W        W41981  17.192   0.716  11.455
68914W        W41982  24.096  42.160  12.654
68915W        W41983  37.803  39.559  12.358
68916W        W41984  41.493  18.182  14.299
68917W        W41985  30.985  40.383   2.790
68918W        W41986  36.618  26.013   4.529
68919W        W41987  31.116  13.023  13.336
68920W        W41988   8.188   2.465   1.182
68921W        W41989  42.810  10.109  10.450
68922W        W41990  12.671   6.439  14.458
68923W        W41991  42.821  10.127  14.507
68924W        W41992  33.967   3.544   3.230
68925W        W41993   9.510   8.072  13.145
68926W        W41994   6.326  41.616   0.909
68927W        W41995  22.545  38.723   4.094
68928W        W41996   9.853   5.880  11.806
68929W        W41997  27.019  19.978   1.440
68930W        W41998  37.923  40.398   1.362
68931W        W41999  27.953  40.787   0.870
68932W        W42000   6.685  39.957  13.571
68933W        W42001  34.354  28.905   0.274
68934W        W42002  25.839  39.590   4.279
68935W        W42003   6.451   5.258  10.664
68936W        W42004  18.080   5.471   3.286
68937W        W42005  38.129   3.462  13.988
68938W        W42006   5.292  20.060   0.102
68939W        W42007  37.934  31.918  12.094
68940W        W42008   7.969   5.683   3.337
68941W        W42009  31.500   4.845  11.282
68942W        W42010  22.183  10.798   0.397
68943W        W42011  16.229  15.285   3.365
68944W        W42012  39.326  29.091   2.384
68945W        W42013  26.484  18.540  13.462
68946W        W42014  39.012  31.455   3.187
68947W        W42015  20.467  39.033   2.891
68948W        W42016  15.515  20.176  13.490
68949W        W42017   7.206   7.211  11.036
68950W        W42018  40.970  39.891  12.448
68951W        W42019   5.511  21.273   1.767
68952W        W42020  13.087  39.065  11.921
68953W        W42021   1.895  40.848  13.803
68954W        W42022  14.081  13.797  13.709
68955W        W42023  41.350  18.513   1.918
68956W        W42024  33.986  39.936   0.081
68957W        W42025   1.727   5.300   2.728
68958W        W42026  13.331  23.235   2.408
68959W        W42027  30.282  14.844   2.229
68960W        W42028  21.307  12.817  11.634
68961W        W42029  37.041   0.134   0.474
68962W        W42030  39.040  10.582  14.882
68963W        W42031  23.738   7.364  13.386
68964W        W42032  44.878  27.528   0.477
68965W        W42033   0.251  13.781  11.599
68966W        W42034  27.160   1.415   2.535
68967W        W42035  11.841  31.436  11.987
68968W        W42036   7.128   1.828   0.241
68969W        W42037   3.594   9.643  10.187
68970W        W42038  22.829   1.915  10.306
68971W        W42039  24.663  22.814  11.984
68972W        W42040  32.061  38.086   4.178
68973W        W42041   4.715  28.639  13.914
68974W        W42042  33.401  23.263   1.321
68975W        W42043  43.856  39.542   0.407
68976W        W42044  18.285   9.914   0.343
68977W        W42045   1.405  43.725  11.367
68978W        W42046  20.122  22.677  10.901
68979W        W42047  26.084  17.528  10.450
68980W        W42048  26.409  38.883   0.948
68981W        W42049  18.243  36.542   4.023
68982W        W42050  34.254   2.811  14.007
68983W        W42051  26.630   0.835  14.237
68984W        W42052  31.393  16.239   3.701
68985W        W42053  10.911  17.581   1.461
68986W        W42054  29.485   6.961  12.587
68987W        W42055  15.105  22.822   3.166
68988W        W42056  37.126   7.725  12.929
68989W        W42057   6.866  32.891  13.373
68990W        W42058  42.766  20.183   1.872
68991W        W42059  29.445   2.890  13.020
68992W        W42060  24.768  39.920  10.846
68993W        W42061  37.591  25.259  14.423
68994W        W42062  31.382  42.370   0.972
68995W        W42063  20.130  15.180  11.569
68996W        W42064   0.860  22.220  10.606
68997W        W42065   9.245   8.838   3.661
68998W        W42066  15.278   9.224   3.328
68999W        W42067   5.712  30.908   2.046
69000W        W42068  42.062  14.689   2.308
69001W        W42069  28.132  34.827   1.294
69002W        W42070  21.761  20.626  12.977
69003W        W42071  37.117   9.953  10.592
69004W        W42072  22.813  24.807   3.627
69005W        W42073  23.178  19.998  11.117
69006W        W42074  22.817  42.495  12.292
69007W        W42075  41.785   0.804   5.110
69008W        W42076   4.405  44.739  11.104
69009W        W42077  44.287  31.116   4.383
69010W        W42078  30.638  20.760  11.731
69011W        W42079  24.068  25.769  13.065
69012W        W42080  21.254  31.371   3.745
69013W        W42081  34.488  27.735  12.038
69014W        W42082  22.829  33.412   0.393
69015W        W42083  39.859  30.995   3.970
69016W        W42084   3.130  44.980  12.449
69017W        W42085   6.155  15.006   1.242
69018W        W42086  21.635  41.426   0.233
69019W        W42087  40.999   1.859  13.567
69020W        W42088  18.589   7.457   0.992
69021W        W42089  28.481  16.578   2.399
69022W        W42090  16.619  31.558  14.877
69023W        W42091  30.635   2.482   4.573
69024W        W42092  21.790  28.924   1.293
69025W        W42093   3.301   4.123  11.505
69026W        W42094   7.759  26.109  12.304
69027W        W42095  34.029  33.692  11.010
69028W        W42096  11.762  38.379   1.472
69029W        W42097   8.862  40.793   2.818
69030W        W42098  24.118  15.387  10.657
69031W        W42099  41.474  34.402  12.398
69032W        W42100  34.646  14.788  13.763
69033W        W42101  32.464   1.749   4.580
69034W        W42102  25.197  36.933   0.748
69035W        W42103  42.284  12.248  11.552
69036W        W42104  33.051  27.730  14.801
69037W        W42105  34.988  43.241   2.164
69038W        W42106  38.587  21.774  14.916
69039W        W42107   5.337  18.179  10.861
69040W        W42108  32.645   3.933  12.395
69041W        W42109  32.640  23.147   3.434
69042W        W42110   8.989  28.622   4.552
69043W        W42111  24.112  31.525   1.439
69044W        W42112  29.150  34.494   3.145
69045W        W42113   9.282  12.802   2.364
69046W        W42114   5.252  33.111  14.891
69047W        W42115  12.872   0.751  14.095
69048W        W42116  32.676  19.750   1.290
69049W        W42117   1.694  42.207  11.592
69050W        W42118  20.160  44.072  14.899
69051W        W42119  17.590  14.684   4.896
69052W        W42120  24.948  34.485   3.803
69053W        W42121  25.294  10.239   0.494
69054W        W42122  36.054  43.954  14.830
69055W        W42123  33.498  44.646   4.424
69056W        W42124  25.521  15.635   4.913
69057W        W42125  30.574  35.061   4.184
69058W        W42126  27.954  44.102  13.311
69059W        W42127  40.848  12.428  10.724
69060W        W42128  32.524  44.403   2.132
69061W        W42129  40.398  43.014   1.732
69062W        W42130   9.684  17.922   4.337
69063W        W42131  31.074  17.190  14.420
69064W        W42132   8.360  44.994   3.548
69065W        W42133  31.036  28.229   2.128
69066W        W42134   2.223   6.331   1.772
69067W        W42135   5.136  23.900   4.675
69068W        W42136  22.107  34.371   2.822
69069W        W42137  32.597  11.345   4.746
69070W        W42138  17.345   8.132  13.370
69071W        W42139  19.011   1.381   4.540
69072W        W42140  29.131   8.871  10.583
69073W        W42141   9.658  34.663   4.665
69074W        W42142  27.950  20.256   4.277
69075W        W42143   8.894  43.458   4.311
69076W        W42144  19.256  19.548   0.787
69077W        W42145   3.975  10.395   1.851
69078W        W42146   6.291   9.204   0.727
69079W        W42147  26.545  34.403  13.465
69080W        W42148   2.221  11.640   4.560
69081W        W42149  16.800  30.583  13.369
69082W        W42150  19.802  43.332  11.472
69083W        W42151  33.507  16.795  14.461
69084W        W42152  22.876  40.313  12.125
69085W        W42153  21.190  31.079  12.659
69086W        W42154   4.671  32.825  10.937
69087W        W42155  35.950   1.241   2.241
69088W        W42156   9.146  24.032  11.626
69089W        W42157  14.118  42.992  12.451
69090W        W42158  18.138  42.205  12.433
69091W        W42159  35.335  13.706  10.514
69092W        W42160  38.300  38.766   4.952
69093W        W42161  24.687  15.574  14.701
69094W        W42162  34.431  15.785   2.831
69095W        W42163   9.690  17.856   0.813
69096W        W42164  10.198  18.005   3.631
69097W        W42165  42.894  15.128  13.624
69098W        W42166  42.240  16.079   2.290
69099W        W42167  33.841  39.514   1.854
69100W        W42168  40.797  28.858  14.500
69101W        W42169  15.816  18.567  13.572
69102W        W42170  42.960  39.369   4.310
69103W        W42171  10.723  14.076   1.336
69104W        W42172  25.925  11.203   4.207
69105W        W42173  22.076  20.795  12.595
69106W        W42174   5.493  13.021  13.066
69107W        W42175  23.466  38.822  13.946
69108W        W42176   7.976   5.004  11.187
69109W        W42177  24.078  35.544   0.689
69110W        W42178  32.930   5.816   4.257
69111W        W42179  27.047  40.348  14.111
69112W        W42180   9.282  37.845   0.820
69113W        W42181   7.381  31.098   1.666
69114W        W42182  28.461   8.974  11.198
69115W        W42183  19.541  42.445   3.736
69116W        W42184  33.459  27.514  13.917
69117W        W42185  34.986  29.053   0.640
69118W        W42186  32.697  42.560   4.144
69119W        W42187  28.906  43.479  11.964
69120W        W42188   2.203  18.680   2.314
69121W        W42189  12.618  44.012  11.065
69122W        W42190  16.550   1.027  13.569
69123W        W42191   2.394   8.215   2.306
69124W        W42192  16.199  40.770  12.874
69125W        W42193  21.670  21.864   1.403
69126W        W42194  25.635   3.166   4.936
69127W        W42195  38.438  27.414  10.726
69128W        W42196  28.187   0.898   4.200
69129W        W42197  13.437  26.911   1.411
69130W        W42198  17.622   5.520  13.908
69131W        W42199  15.615  41.751   0.395
69132W        W42200  15.517  10.081  12.134
69133W        W42201  10.165  37.404  14.689
69134W        W42202  16.681  37.066   0.002
69135W        W42203   0.794  26.600  13.353
69136W        W42204  41.185  31.431   0.457
69137W        W42205  34.055  15.085  13.626
69138W        W42206  39.174   7.722   4.695
69139W        W42207  28.096  28.418  12.550
69140W        W42208   3.832  12.028  12.157
69141W        W42209  42.542  39.647   4.070
69142W        W42210  23.363  16.209  10.110
69143W        W42211   4.795  21.152   3.179
69144W        W42212  43.413  42.264   4.904
69145W        W42213   2.596  17.228   0.395
69146W        W42214  37.984  28.908   3.214
69147W        W42215  15.842  18.775   1.789
69148W        W42216  44.607  43.992   3.234
69149W        W42217  19.281  24.026   3.843
69150W        W42218   1.336  44.849   2.577
69151W        W42219  23.446   3.303   1.775
69152W        W42220  23.447   6.217  11.692
69153W        W42221  31.662  14.474   3.000
69154W        W42222  24.928   7.440   1.350
69155W        W42223   6.396  13.567  13.063
69156W        W42224  35.433  28.427  11.293
69157W        W42225  22.548  42.841  13.078
69158W        W42226  21.080   9.162   3.583
69159W        W42227  27.415  11.675  13.280
69160W        W42228  42.751  18.593  11.619
69161W        W42229  38.464  15.173  10.953
69162W        W42230  32.134  36.425   2.753
69163W        W42231  10.290   1.814   2.227
69164W        W42232   9.813  14.706  10.604
69165W        W42233  44.234  42.268  14.462
69166W        W42234   1.645   0.363  13.132
69167W        W42235  25.755  19.030  12.424
69168W        W42236   2.766   8.179   0.009
69169W        W42237  16.134  14.652   2.701
69170W        W42238   3.190   4.007   3.185
69171W        W42239  32.085   0.223  12.523
69172W        W42240  16.022   7.767   1.284
69173W        W42241   0.035  12.867   4.271
69174W        W42242   9.151  20.210   4.187
69175W        W42243  35.870  44.413   4.915
69176W        W42244  21.716  21.722  14.401
69177W        W42245  29.948  35.423   2.246
69178W        W42246  20.777  33.906   1.141
69179W        W42247  16.586  13.801  13.048
69180W        W42248  31.361  18.230  14.059
69181W        W42249  35.202  37.149  14.900
69182W        W42250  32.399  12.103  11.572
69183W        W42251  39.854  31.067   3.439
69184W        W42252  28.178  36.890   1.750
69185W        W42253   4.474  44.465  14.409
69186W        W42254   7.664  32.162  10.729
69187W        W42255  11.040  14.811   0.376
69188W        W42256   5.017  39.042  13.921
69189W        W42257   1.914  38.920   3.053
69190W        W42258   3.520  33.003  13.009
69191W        W42259  41.415  17.522   2.447
69192W        W42260   3.408  22.722   0.874
69193W        W42261   2.474  24.236   3.230
69194W        W42262  26.535   6.615   4.715
69195W        W42263  26.699  11.346   4.575
69196W        W42264  17.316  32.931   4.134
69197W        W42265  11.392  13.431   2.036
69198W        W42266  10.912  40.379   1.867
69199W        W42267  14.777  23.242   3.290
69200W        W42268  41.398  19.985  13.972
69201W        W42269  30.922  39.812  12.821
69202W        W42270  26.602  18.021  14.350
69203W        W42271   2.392   9.815  14.497
69204W        W42272  24.060  24.101   5.288
69205W        W42273  21.572  13.138   0.513
69206W        W42274  18.648  37.015  13.423
69207W        W42275  35.653  18.810  13.778
69208W        W42276  43.774  22.162  10.618
69209W        W42277  33.085   7.226   3.230
69210W        W42278  35.259  20.154  13.059
69211W        W42279  12.378   1.365  12.075
69212W        W42280  26.765   7.877  11.623
69213W        W42281  16.889  26.419   4.486
69214W        W42282  24.493  27.235  14.392
69215W        W42283  43.511  40.856   4.889
69216W        W42284  32.076  19.703   3.625
69217W        W42285  32.384   3.843   2.790
69218W        W42286  12.605  27.170  12.363
69219W        W42287  24.763   9.149   1.503
69220W        W42288  27.989  17.128   2.901
69221W        W42289  34.013   7.811   5.060
69222W        W42290   7.724  10.310   4.045
69223W        W42291  15.224  33.933   4.800
69224W        W42292  38.266   7.163  14.044
69225W        W42293  43.736  36.559   1.210
69226W        W42294  24.712   7.802   4.485
69227W        W42295  42.192  14.315   1.878
69228W        W42296  32.696  18.799  11.128
69229W        W42297  35.910  43.507   1.910
69230W        W42298   4.281  10.327  14.420
69231W        W42299  27.230  37.113   1.510
69232W        W42300  28.351  42.016  13.892
69233W        W42301   5.023  37.047  12.850
69234W        W42302  26.931  39.576   1.876
69235W        W42303  23.604   7.105  12.155
69236W        W42304  23.034   4.946   2.188
69237W        W42305  37.131   5.195  12.553
69238W        W42306  17.875  22.805   2.711
69239W        W42307  27.974  29.687   4.539
69240W        W42308  32.815  19.241  13.476
69241W        W42309  30.861   7.793   0.174
69242W        W42310   9.892  19.129   9.683
69243W        W42311   8.383   9.163  13.955
69244W        W42312  28.734  34.247  14.043
69245W        W42313   5.665  23.288  11.144
69246W        W42314   7.198  22.766   0.825
69247W        W42315  20.543  29.130   3.848
69248W        W42316   5.213  26.693   2.285
69249W        W42317  23.530  31.559  11.563
69250W        W42318   3.094  13.228  11.510
69251W        W42319  32.658  20.030   3.360
69252W        W42320  12.296  27.727  13.791
69253W        W42321  41.908   2.688   4.606
69254W        W42322  26.766  31.519   1.299
69255W        W42323  42.929  32.649  10.679
69256W        W42324  34.444  15.726  11.666
69257W        W42325  10.367  43.596   1.444
69258W        W42326  10.969  29.171  10.624
69259W        W42327   9.737  17.273  12.743
69260W        W42328  21.371  10.179  10.540
69261W        W42329   9.693  14.861  12.918
69262W        W42330  10.741  12.052   4.198
69263W        W42331  29.926  13.619   1.610
69264W        W42332  21.202  36.425  14.255
69265W        W42333  16.459  40.669   4.531
69266W        W42334  17.305  15.698  14.373
69267W        W42335  14.968  40.521   3.729
69268W        W42336  13.257   9.597   1.693
69269W        W42337  39.485   1.070   0.257
69270W        W42338  16.826  23.598   0.322
69271W        W42339  18.316  26.764  10.589
69272W        W42340  28.573   9.661   3.768
69273W        W42341  29.590  17.707  14.335
69274W        W42342  10.771   4.631  11.971
69275W        W42343  14.843   7.123   1.961
69276W        W42344  23.636  20.081   1.257
69277W        W42345  39.048  11.589  13.585
69278W        W42346  13.267  42.341  11.186
69279W        W42347  31.517  44.998  14.837
69280W        W42348  41.402  37.500   1.902
69281W        W42349  10.333  26.001  11.454
69282W        W42350  40.353   1.877   1.305
69283W        W42351  12.606   6.740   3.727
69284W        W42352   1.910  29.848  11.714
69285W        W42353   7.864  29.414   0.374
69286W        W42354   6.256  42.411   1.378
69287W        W42355  31.811  23.461   0.467
69288W        W42356  22.593  39.949  11.582
69289W        W42357  41.808  23.517  11.591
69290W        W42358  17.847  12.925  11.102
69291W        W42359   9.548   5.334  12.528
69292W        W42360   1.479   8.950   2.160
69293W        W42361  44.995  10.869   4.644
69294W        W42362  44.096  27.163  11.472
69295W        W42363  35.708   8.752   1.510
69296W        W42364  37.394  13.048  14.422
69297W        W42365  33.040  40.375  11.888
69298W        W42366  12.711  25.208   1.297
69299W        W42367  34.411  42.835   4.718
69300W        W42368  30.118   5.259   3.084
69301W        W42369  23.293  23.627  13.287
69302W        W42370   4.898   6.376   3.611
69303W        W42371  10.632  32.580  14.336
69304W        W42372  31.875  13.025  11.567
69305W        W42373   8.123  38.095  12.798
69306W        W42374  43.297   9.692   0.960
69307W        W42375  38.121  13.081  11.196
69308W        W42376   5.796  24.853  12.571
69309W        W42377  34.919  30.865  10.979
69310W        W42378  26.502  21.249  10.110
69311W        W42379  17.803  44.328   4.107
69312W        W42380  41.331  29.375   3.830
69313W        W42381  31.489  43.075  13.436
69314W        W42382   5.139   4.866  12.814
69315W        W42383  23.689  28.652  11.637
69316W        W42384  32.030  35.003  13.315
69317W        W42385  21.717   1.282   5.107
69318W        W42386  23.613  30.501   3.698
69319W        W42387  12.080  28.186   1.676
69320W        W42388  17.177   8.429  11.416
69321W        W42389  43.808  10.358   2.868
69322W        W42390  30.508   0.384   1.780
69323W        W42391  26.029  38.580  14.636
69324W        W42392  41.918  29.897   0.851
69325W        W42393  32.282  38.912  10.048
69326W        W42394   5.838   6.369   4.426
69327W        W42395  29.420  29.911   3.835
69328W        W42396  40.493  15.701  13.892
69329W        W42397  15.731  36.327   4.153
69330W        W42398   7.497  35.504   4.803
69331W        W42399   0.848  15.719  10.831
69332W        W42400   1.662  44.654  12.645
69333W        W42401  30.444  17.610  11.790
69334W        W42402  40.460  18.240  12.939
69335W        W42403   1.772  35.928   4.591
69336W        W42404  41.205   5.907  12.467
69337W        W42405  25.748  26.687   2.643
69338W        W42406  36.605  29.230   1.886
69339W        W42407  33.804  22.306   1.834
69340W        W42408  19.455  12.115  13.580
69341W        W42409  40.663  24.531   4.383
69342W        W42410  34.251  34.373   4.560
69343W        W42411  25.703   6.451   1.924
69344W        W42412  39.594  19.700  12.392
69345W        W42413  12.717  15.653   3.105
69346W        W42414  28.943  22.430   2.352
69347W        W42415  13.670   6.810  14.977
69348W        W42416   1.097  43.850  12.666
69349W        W42417  11.538   9.401   0.508
69350W        W42418   1.826  43.707  12.446
69351W        W42419   8.914  34.539  11.501
69352W        W42420  40.800   5.719   1.902
69353W        W42421  25.037   5.031  11.165
69354W        W42422  32.533   3.440   3.228
69355W        W42423  26.859  17.138   1.900
69356W        W42424  26.003  39.072  11.414
69357W        W42425  35.675  26.049   0.423
69358W        W42426  10.042  33.463   1.720
69359W        W42427  10.800  29.615  11.112
69360W        W42428  21.171  34.411   1.889
69361W        W42429  35.563  39.441  10.728
69362W        W42430   7.004  17.098   4.192
69363W        W42431  29.963  24.857  14.900
69364W        W42432  44.926  36.542  11.981
69365W        W42433   2.842  44.417  12.164
69366W        W42434  16.904  28.950   0.285
69367W        W42435  44.796  40.592   4.704
69368W        W42436  21.289  44.297  10.636
69369W        W42437  27.655  31.163   1.253
69370W        W42438  34.149  31.577  13.823
69371W        W42439  18.638  35.126   4.126
69372W        W42440  31.360  35.606  11.765
69373W        W42441   0.768  44.043  14.580
69374W        W42442  17.622  20.325  13.360
69375W        W42443  27.481  15.308   1.674
69376W        W42444  39.593   4.401   0.492
69377W        W42445  35.534   6.429   2.790
69378W        W42446  27.776  40.478   0.482
69379W        W42447  34.562  30.169   0.019
69380W        W42448  20.569  36.903  13.945
69381W        W42449   8.394  44.039   1.527
69382W        W42450   5.653  14.056  11.092
69383W        W42451  32.538  39.812   4.583
69384W        W42452  11.169  24.594   2.899
69385W        W42453   7.104  34.196  14.716
69386W        W42454  23.376   4.009  13.457
69387W        W42455   3.500  32.898  14.424
69388W        W42456  27.529  44.991  13.335
69389W        W42457  30.862  13.689   4.731
69390W        W42458   2.787  28.437   2.361
69391W        W42459  23.107  43.871  14.740
69392W        W42460   8.601  17.543  10.705
69393W        W42461  28.635  21.602   4.419
69394W        W42462  12.050  41.447  11.181
69395W        W42463  28.533   2.803   1.750
69396W        W42464  30.489  26.004  12.946
69397W        W42465  21.042  22.984  13.002
69398W        W42466  22.057  20.633   4.854
69399W        W42467  31.914  42.014   3.447
69400W        W42468  29.007  11.527  11.942
69401W        W42469  15.188   3.169   2.259
69402W        W42470  36.814  15.683   0.739
69403W        W42471  39.718   9.616   0.357
69404W        W42472  38.235   9.362  14.843
69405W        W42473   2.153   6.426  10.852
69406W        W42474  19.778  34.630  14.445
69407W        W42475  28.535  22.947   3.983
69408W        W42476  30.638   2.397  12.523
69409W        W42477  15.129  22.682  13.037
69410W        W42478  44.281  35.567  13.355
69411W        W42479  30.899  24.316   1.289
69412W        W42480  40.057  37.451   3.626
69413W        W42481  39.272  36.807   3.214
69414W        W42482  40.465  37.845   1.593
69415W        W42483   6.784  30.336   3.883
69416W        W42484  39.980  15.556   0.231
69417W        W42485  39.539  14.760  14.088
69418W        W42486  42.210   7.213   0.319
69419W        W42487  38.959  33.111   0.681
69420W        W42488  10.138  22.536   4.691
69421W        W42489  27.171  32.375   4.328
69422W        W42490  19.955   2.551  11.057
69423W        W42491  41.888  42.762   2.831
69424W        W42492   2.146  25.081   1.696
69425W        W42493  16.013  36.560   4.929
69426W        W42494  43.565  17.108  13.486
69427W        W42495  33.537   2.222  12.613
69428W        W42496   0.989  33.577  12.962
69429W        W42497  38.102  23.712   3.528
69430W        W42498  43.014   5.173   2.774
69431W        W42499   8.168   1.286  10.871
69432W        W42500  21.278  38.357   0.963
69433W        W42501  25.531   5.426  10.739
69434W        W42502  38.652  41.663  14.499
69435W        W42503  14.140   8.283  10.752
69436W        W42504  12.973  40.793  13.514
69437W        W42505  41.011  31.755  11.004
69438W        W42506  13.324   2.527  13.428
69439W        W42507  26.212  19.228  14.170
69440W        W42508  41.603  18.125   1.655
69441W        W42509  10.207  43.387   4.558
69442W        W42510  19.243  31.634  13.354
69443W        W42511  29.732   8.649  11.577
69444W        W42512  19.179  13.147  10.451
69445W        W42513  41.741   0.361   5.482
69446W        W42514  26.772   5.217   0.796
69447W        W42515  34.345  17.556  10.663
69448W        W42516   6.588  36.918  13.814
69449W        W42517  14.944  24.179   0.204
69450W        W42518  11.851  19.139  12.146
69451W        W42519  39.850  39.838  14.003
69452W        W42520  34.254  13.606   1.707
69453W        W42521  30.243  23.426  13.919
69454W        W42522  37.149  17.383  11.150
69455W        W42523  13.056  13.701   1.388
69456W        W42524  23.004  20.998  12.038
69457W        W42525  42.412  17.020   1.891
69458W        W42526  39.346  38.956  12.874
69459W        W42527  37.311  39.216   0.714
69460W        W42528  34.825  28.251  10.684
69461W        W42529  27.432  37.538   2.651
69462W        W42530  30.071  24.603   0.322
69463W        W42531  41.565  16.743   0.517
69464W        W42532  20.880  33.973   3.354
69465W        W42533  12.367  41.724  12.326
69466W        W42534   5.467  34.075  11.864
69467W        W42535   6.868  15.180  14.435
69468W        W42536  31.709  15.293  11.320
69469W        W42537  40.922   8.851   4.449
69470W        W42538  26.978   9.111   3.196
69471W        W42539   5.817   5.577  11.094
69472W        W42540  25.684  32.661  10.739
69473W        W42541  22.305  18.604  12.393
69474W        W42542   8.098   8.241   3.864
69475W        W42543   3.730  32.749  12.555
69476W        W42544  31.466  21.513  13.393
69477W        W42545  25.774  17.121   4.715
69478W        W42546  36.390  14.475  12.307
69479W        W42547  33.163   5.946   3.735
69480W        W42548  38.876  44.793  14.902
69481W        W42549  13.325   4.773   0.222
69482W        W42550  35.434  44.511   1.268
69483W        W42551  28.899  43.125  13.320
69484W        W42552  14.191  18.565   3.135
69485W        W42553  31.664  29.528   3.268
69486W        W42554   6.703  33.871  12.506
69487W        W42555  39.955   3.640  11.434
69488W        W42556  12.107   0.223  11.168
69489W        W42557  28.267  44.335   1.692
69490W        W42558   9.113  30.483   3.727
69491W        W42559  43.294  10.584   0.331
69492W        W42560   8.581  36.657   2.644
69493W        W42561   6.734  13.431   0.370
69494W        W42562  37.452   6.956   4.971
69495W        W42563   5.195   5.955  14.814
69496W        W42564  33.091  19.003   4.325
69497W        W42565   3.949  26.546  13.026
69498W        W42566  19.080   8.652  12.966
69499W        W42567   9.683  43.873   1.077
69500W        W42568  38.838  29.103  13.480
69501W        W42569  28.682   5.493   0.407
69502W        W42570  31.658  43.345  10.897
69503W        W42571   1.259  18.265  14.290
69504W        W42572  25.272  38.863   4.173
69505W        W42573  32.969  29.538  11.646
69506W        W42574  16.988   7.736   3.112
69507W        W42575   5.422  30.088   1.790
69508W        W42576  14.771  17.862   2.272
69509W        W42577  15.661  29.331   3.689
69510W        W42578  39.868  26.456   0.216
69511W        W42579   0.003  10.690  11.387
69512W        W42580  26.029  17.240   3.258
69513W        W42581  20.709   2.805   0.896
69514W        W42582  18.491  40.030  10.929
69515W        W42583  26.008  39.096  10.524
69516W        W42584  15.414  21.505   4.190
69517W        W42585  13.236   9.861   0.770
69518W        W42586  31.918  11.267   1.611
69519W        W42587  11.299  13.192   0.055
69520W        W42588  16.008  32.599  11.077
69521W        W42589  33.856  42.324  10.714
69522W        W42590  32.868  40.328   2.888
69523W        W42591  14.564  40.074  12.020
69524W        W42592   4.278  30.659  11.227
69525W        W42593  18.573   4.219  14.794
69526W        W42594  16.887  38.472  13.107
69527W        W42595  44.750  28.179  14.878
69528W        W42596  19.795  32.304  13.822
69529W        W42597   3.377  30.883  14.454
69530W        W42598   4.380  17.104  12.884
69531W        W42599   5.891  39.294   0.903
69532W        W42600  34.016  19.717  14.619
69533W        W42601  17.512   9.156  10.565
69534W        W42602  13.194  19.399   3.324
69535W        W42603  30.547  21.178   3.227
69536W        W42604  21.145  36.588  12.492
69537W        W42605  40.032  16.485   2.838
69538W        W42606  27.527  41.126  11.653
69539W        W42607  36.776   8.431  12.726
69540W        W42608  40.048  43.598   3.257
69541W        W42609  17.334   6.496  13.933
69542W        W42610  39.085   6.968  14.974
69543W        W42611  37.762  44.281   2.263
69544W        W42612  22.663  34.119  12.840
69545W        W42613  37.712  30.639  11.533
69546W        W42614  23.458  13.930   0.272
69547W        W42615   7.890   2.249  11.657
69548W        W42616  38.717  34.799   4.580
69549W        W42617  37.581  38.757  12.397
69550W        W42618  16.191  16.062  14.951
69551W        W42619  35.956  19.814   3.210
69552W        W42620  35.847   6.253   1.474
69553W        W42621  13.790   0.672  13.622
69554W        W42622   6.932  41.509   1.319
69555W        W42623  40.090  17.746  11.872
69556W        W42624  11.439   0.430   4.346
69557W        W42625  23.761  37.689   0.672
69558W        W42626  14.188  38.519  11.902
69559W        W42627  40.014  25.910   2.930
69560W        W42628  12.189  23.714  11.630
69561W        W42629  21.702  33.833  14.512
69562W        W42630  17.827   0.588   2.881
69563W        W42631  19.155  33.974   5.032
69564W        W42632  32.691  36.230   1.294
69565W        W42633  18.552  19.633  10.309
69566W        W42634  20.203   6.927   4.079
69567W        W42635  38.757  15.913   2.276
69568W        W42636  34.186   6.650  12.834
69569W        W42637  19.339   3.454   3.694
69570W        W42638  21.031   4.718   1.909
69571W        W42639  11.248  12.801   1.322
69572W        W42640  26.502  10.195  10.371
69573W        W42641  42.841  34.310   0.878
69574W        W42642  42.416   7.008  13.521
69575W        W42643  15.549  41.576   2.787
69576W        W42644  24.951  22.584   4.148
69577W        W42645  39.544  40.791  11.669
69578W        W42646  39.397  34.316   1.926
69579W        W42647  12.259  39.988   4.550
69580W        W42648  17.780  27.649   1.290
69581W        W42649  27.734  12.844   3.090
69582W        W42650  35.940  26.176   0.863
69583W        W42651  44.147  22.630  13.448
69584W        W42652  25.539   9.930   4.598
69585W        W42653  16.172   3.416  12.650
69586W        W42654  13.835  40.412  14.832
69587W        W42655  37.250  42.606  12.488
69588W        W42656  34.283   6.236  10.195
69589W        W42657  38.002  19.712  10.748
69590W        W42658   7.179  34.037  13.769
69591W        W42659  21.046  11.239  14.153
69592W        W42660   1.625  19.681   3.648
69593W        W42661  12.321  39.826   2.362
69594W        W42662   7.711   4.500  11.122
69595W        W42663  35.562   6.117   0.692
69596W        W42664  30.602  27.541  13.599
69597W        W42665   1.600  24.955   0.823
69598W        W42666   5.273  15.819  11.420
69599W        W42667  25.649  14.851  11.083
69600W        W42668  41.904  11.882  12.050
69601W        W42669   3.685   1.721  14.386
69602W        W42670  31.068  26.087  11.389
69603W        W42671  25.932   1.365  11.148
69604W        W42672  11.760  31.970   3.199
69605W        W42673  35.389  14.758   0.613
69606W        W42674   1.768  10.667   0.334
69607W        W42675  35.163  18.905  14.860
69608W        W42676   3.072  11.609  12.891
69609W        W42677   8.109   3.926  13.618
69610W        W42678  12.607   9.204  12.049
69611W        W42679  11.922  28.386  11.042
69612W        W42680  28.141  22.645   1.435
69613W        W42681  39.150  28.962  13.116
69614W        W42682  26.406  43.370  11.909
69615W        W42683  26.801  15.303  12.351
69616W        W42684  35.048   6.931   1.725
69617W        W42685  13.089  20.573  11.228
69618W        W42686  12.015   3.165  12.001
69619W        W42687  13.184  11.715  12.513
69620W        W42688  18.594  30.401  13.548
69621W        W42689  32.565  26.695  11.196
69622W        W42690  38.488   1.367   4.616
69623W        W42691  42.494   5.782  13.896
69624W        W42692  38.162  16.515  13.879
69625W        W42693  29.411   6.081  10.352
69626W        W42694  41.337   5.323   2.432
69627W        W42695   2.175  14.285   1.247
69628W        W42696  18.664  29.642   3.821
69629W        W42697  18.420  11.370   3.970
69630W        W42698  39.986  42.190  12.065
69631W        W42699   2.255  23.702  14.791
69632W        W42700  28.951  38.872  12.544
69633W        W42701   5.954   9.623  11.477
69634W        W42702  37.815   2.926  11.704
69635W        W42703  32.003   6.002  10.713
69636W        W42704  19.768  23.614  13.941
69637W        W42705  22.172  39.358  11.004
69638W        W42706  15.190  41.365  12.728
69639W        W42707  39.459  10.400  13.843
69640W        W42708   0.901  33.784   0.833
69641W        W42709  19.180  43.273   0.272
69642W        W42710  39.809  19.102  11.584
69643W        W42711  14.627  44.513   0.945
69644W        W42712  20.728  13.105   2.834
69645W        W42713   7.120  31.343  11.932
69646W        W42714   7.148   9.397  10.190
69647W        W42715  28.653   6.878   1.281
69648W        W42716  24.144  33.127   2.381
69649W        W42717  18.839  42.522   3.194
69650W        W42718   3.694  39.855  12.151
69651W        W42719  28.541  28.668  12.534
69652W        W42720  31.117  29.564  14.303
69653W        W42721  24.125  22.738  13.771
69654W        W42722   0.494  31.425  10.676
69655W        W42723  39.273  21.046   1.816
69656W        W42724  10.261   7.861   0.874
69657W        W42725  42.816  29.982   1.890
69658W        W42726  13.256  30.443  14.232
69659W        W42727  33.826  44.932   1.859
69660W        W42728   3.879  34.424   4.255
69661W        W42729  33.852  27.143  11.937
69662W        W42730  15.749  41.929  12.018
69663W        W42731  41.937  44.961  14.750
69664W        W42732  17.233  34.893  10.749
69665W        W42733  26.673  32.156  11.562
69666W        W42734  26.584   0.313   2.854
69667W        W42735  33.959  42.242   2.596
69668W        W42736   0.790  21.767   3.796
69669W        W42737  30.503   8.825  14.562
69670W        W42738  41.271  29.076   4.688
69671W        W42739  28.518  25.226  11.680
69672W        W42740  29.306  18.876  12.029
69673W        W42741  28.379  14.698   4.360
69674W        W42742   0.754  17.675  11.182
69675W        W42743  24.203  29.041  12.428
69676W        W42744  21.791  42.379  12.670
69677W        W42745   2.414  27.680   0.437
69678W        W42746   3.019  43.880  12.848
69679W        W42747   2.219  21.555   2.324
69680W        W42748  17.067   7.239  10.771
69681W        W42749   6.952  23.091   3.657
69682W        W42750  30.636   3.524   3.776
69683W        W42751   3.364   4.464   4.595
69684W        W42752  26.582  25.705  12.963
69685W        W42753  18.777  38.806   4.647
69686W        W42754  10.774  35.038   0.820
69687W        W42755  42.264  22.211   3.675
69688W        W42756  31.458   6.803   1.090
69689W        W42757  35.499   5.615  12.457
69690W        W42758  10.867  11.162   3.332
69691W        W42759  33.536  16.573  10.954
69692W        W42760  14.864  19.648   4.029
69693W        W42761  26.604  44.519  12.425
69694W        W42762  31.498  42.545   2.462
69695W        W42763   1.771  25.086  13.952
69696W        W42764  15.982  37.958  10.602
69697W        W42765  15.551  41.046   2.775
69698W        W42766  37.789   7.802  14.459
69699W        W42767   5.878  14.339  11.468
69700W        W42768  37.038  25.562   1.360
69701W        W42769  33.607  27.192  11.500
69702W        W42770  36.149   8.793  12.831
69703W        W42771  43.091  32.609  13.027
69704W        W42772  12.442  34.302  14.016
69705W        W42773  35.362  41.467  13.685
69706W        W42774  13.119  12.569  13.371
69707W        W42775  12.208  25.103  11.400
69708W        W42776  37.014  38.223   2.699
69709W        W42777  25.903  29.151  14.774
69710W        W42778  25.208  40.151  10.232
69711W        W42779  36.981  17.844  14.380
69712W        W42780  13.848  33.888   4.211
69713W        W42781  43.318   9.174   3.673
69714W        W42782   3.706  12.340  14.802
69715W        W42783  26.949   1.041  10.684
69716W        W42784  32.040  25.582  11.920
69717W        W42785   0.003   4.480  10.693
69718W        W42786  18.526  23.369   2.539
69719W        W42787  23.514  24.008  14.936
69720W        W42788   1.487  44.036  10.360
69721W        W42789  28.666  39.025  12.960
69722W        W42790  18.571  36.242  13.780
69723W        W42791  25.458  30.247  10.309
69724W        W42792  25.671   7.739   0.804
69725W        W42793   0.556   6.914  14.086
69726W        W42794  26.046  31.157   3.763
69727W        W42795  40.471  29.132  10.220
69728W        W42796  40.947  28.630  12.524
69729W        W42797  14.275  21.932  12.447
69730W        W42798  14.770  41.241  11.585
69731W        W42799   9.752  33.051  11.252
69732W        W42800  41.520  11.968   0.754
69733W        W42801  13.353   8.360   2.331
69734W        W42802  34.904  41.403   4.932
69735W        W42803   0.724   7.348   4.885
69736W        W42804  15.899   1.230   2.898
69737W        W42805   6.558  20.481  11.575
69738W        W42806  19.280  18.868   2.288
69739W        W42807  42.003  30.487  12.359
69740W        W42808  20.804  27.168  12.639
69741W        W42809   1.859  35.376  13.814
69742W        W42810  24.572  23.121  14.749
69743W        W42811   0.989  19.798  11.853
69744W        W42812  19.560  13.113  10.952
69745W        W42813  42.009  32.348  11.925
69746W        W42814  30.236  22.217  12.096
69747W        W42815  33.003  31.940  12.483
69748W        W42816  24.076  25.502  13.563
69749W        W42817   5.751  27.966  10.417
69750W        W42818  15.570  39.918  12.007
69751W        W42819   6.852  44.212  12.935
69752W        W42820   2.493  43.505   2.258
69753W        W42821  38.756  29.114  14.417
69754W        W42822  28.726  31.166  11.193
69755W        W42823  36.270   5.840  13.563
69756W        W42824  11.289  40.063   1.760
69757W        W42825  27.467  21.560   3.831
69758W        W42826  33.060   2.958   2.185
69759W        W42827  16.597  19.563  13.867
69760W        W42828   2.286  12.273   1.957
69761W        W42829  32.357   5.872   0.208
69762W        W42830  13.998  38.838  13.072
69763W        W42831  36.931   4.785   3.345
69764W        W42832  15.865   9.126  13.427
69765W        W42833  15.353  40.842  13.664
69766W        W42834  37.090  35.580  14.502
69767W        W42835  12.315   1.078   4.177
69768W        W42836  27.320   6.655   1.800
69769W        W42837  13.554  12.308  14.021
69770W        W42838  29.797   8.198   2.673
69771W        W42839   5.425  27.533  10.949
69772W        W42840  41.437  25.233  13.310
69773W        W42841  25.615  23.499  10.773
69774W        W42842  39.586  24.166   3.229
69775W        W42843   7.444  29.477   1.298
69776W        W42844  40.335  21.244  11.574
69777W        W42845   1.720   9.351   4.659
69778W        W42846   3.065  36.678   3.065
69779W        W42847   3.508   4.012   4.311
69780W        W42848  18.175   2.226  10.582
69781W        W42849  24.686  38.907  13.449
69782W        W42850  26.474  31.582   3.793
69783W        W42851  26.096  18.595   0.331
69784W        W42852   0.215   4.381  12.090
69785W        W42853  25.497  10.852  13.838
69786W        W42854  11.935  39.935   1.212
69787W        W42855  22.685  12.567   3.195
69788W        W42856   8.397  12.310   1.742
69789W        W42857   6.859   8.284   1.216
69790W        W42858  42.612  21.021   3.246
69791W        W42859  13.035   4.272  11.782
69792W        W42860  39.810  19.674   1.795
69793W        W42861  40.332  31.083   3.760
69794W        W42862  42.263  20.646   0.505
69795W        W42863  12.752   3.334   2.423
69796W        W42864  23.520   4.330   4.088
69797W        W42865  30.697   5.863   1.229
69798W        W42866   5.851  37.911  14.276
69799W        W42867  40.936  36.210   2.596
69800W        W42868  13.770   1.408   3.896
69801W        W42869  22.520  23.556   0.871
69802W        W42870   9.734  22.029  13.507
69803W        W42871  16.760   8.102   0.368
69804W        W42872  29.207  24.112   1.415
69805W        W42873  21.922  43.462   4.171
69806W        W42874  30.250  17.184  13.381
69807W        W42875  40.004  16.462  13.647
69808W        W42876  18.418  38.751   0.427
69809W        W42877  43.884   0.218   1.597
69810W        W42878  14.803  44.761  11.949
69811W        W42879   7.795  23.121  12.398
69812W        W42880  13.047   9.164   1.920
69813W        W42881  17.268  35.033   2.352
69814W        W42882   8.327  40.596  12.872
69815W        W42883  38.445   3.375  13.586
69816W        W42884   6.713  26.611   3.951
69817W        W42885  35.836  11.513   3.190
69818W        W42886  19.717   0.241   1.470
69819W        W42887  30.764  43.105   2.785
69820W        W42888   6.144  25.023  11.116
69821W        W42889  44.108  15.259  10.261
69822W        W42890  28.961  22.082   2.879
69823W        W42891  26.120  16.198  13.759
69824W        W42892  19.726  15.820   0.360
69825W        W42893  41.798   7.689  13.835
69826W        W42894  38.273  15.244  14.377
69827W        W42895   7.419  20.786   0.754
69828W        W42896   9.731  25.980  11.964
69829W        W42897   9.121  27.528  12.503
69830W        W42898  28.207  43.474   3.612
69831W        W42899  15.364  24.284  14.381
69832W        W42900  17.094  44.529   4.513
69833W        W42901  32.630  24.306  14.938
69834W        W42902  33.559   0.790   3.678
69835W        W42903  12.788  32.408  14.330
69836W        W42904  25.143  41.848  13.493
69837W        W42905  36.098  41.751  11.194
69838W        W42906  15.644  13.649  11.006
69839W        W42907   5.690  24.622  14.931
69840W        W42908  28.268  15.160   4.609
69841W        W42909  26.211  12.111  12.500
69842W        W42910  21.278  12.871   2.019
69843W        W42911   2.989  13.558  11.138
69844W        W42912   9.514  34.673   2.800
69845W        W42913  18.659   4.229   3.580
69846W        W42914  15.089  23.494  14.005
69847W        W42915  37.569  18.056   3.337
69848W        W42916   7.122  36.597   3.314
69849W        W42917  22.289  42.998  11.733
69850W        W42918  23.059   6.502  10.665
69851W        W42919  20.511   4.349  13.931
69852W        W42920  18.847   6.285   2.534
69853W        W42921  36.608  39.432  12.254
69854W        W42922   3.253  27.009   1.744
69855W        W42923  19.541  19.283   2.506
69856W        W42924   8.621  18.830   2.162
69857W        W42925  24.485  15.518   0.377
69858W        W42926  42.961  31.410  11.967
69859W        W42927  20.370  34.046  10.627
69860W        W42928   0.088   0.318  12.138
69861W        W42929  38.988  14.108  12.867
69862W        W42930  33.914  10.885  14.739
69863W        W42931  17.039  22.938  11.658
69864W        W42932  30.345  35.319  11.009
69865W        W42933  38.433  10.636   3.736
69866W        W42934  25.493   9.304   4.068
69867W        W42935  26.008  14.724   3.130
69868W        W42936  14.707  39.452   2.913
69869W        W42937  30.130  23.973   3.408
69870W        W42938  14.656  36.835  14.014
69871W        W42939   7.804  22.328  12.927
69872W        W42940   1.051  43.472   4.706
69873W        W42941  16.834  22.581   1.488
69874W        W42942   6.174  31.389  13.941
69875W        W42943  19.011   5.296   2.935
69876W        W42944  36.129  29.579  11.544
69877W        W42945  30.098  14.052   2.747
69878W        W42946  28.649  28.527   1.865
69879W        W42947  21.731  13.145  11.575
69880W        W42948  25.218   5.369   0.685
69881W        W42949  25.059  32.098  14.302
69882W        W42950  26.656  32.423   4.656
69883W        W42951  37.778   6.030  10.765
69884W        W42952  14.181   0.313  11.587
69885W        W42953  17.886  22.128   0.795
69886W        W42954  12.409  15.526   2.127
69887W        W42955  41.258  17.729  13.623
69888W        W42956   4.167   7.622   2.251
69889W        W42957   3.542  33.682  12.810
69890W        W42958  29.061  34.656   1.466
69891W        W42959  21.527   2.408  12.475
69892W        W42960  41.369  21.153  14.235
69893W        W42961  36.477  12.245   3.386
69894W        W42962  20.699  25.271  12.030
69895W        W42963   1.737  39.125  12.007
69896W        W42964   2.736  11.902   3.706
69897W        W42965  27.048  12.250  14.728
69898W        W42966  37.548   0.402  14.820
69899W        W42967   8.694  16.661  10.872
69900W        W42968  14.703  28.469  10.533
69901W        W42969  41.983   9.308  13.911
69902W        W42970  32.657   7.619  12.064
69903W        W42971  25.293   3.042   4.558
69904W        W42972  33.836  25.296  13.003
69905W        W42973  20.017   1.263  14.317
69906W        W42974  29.383   6.684  13.906
69907W        W42975  41.938  37.358   2.672
69908W        W42976  14.220  44.690   1.788
69909W        W42977   1.771  40.561   0.275
69910W        W42978  18.207  29.037  13.764
69911W        W42979   8.718   7.351   0.320
69912W        W42980  20.663   4.161   1.193
69913W        W42981   8.603  39.215  12.066
69914W        W42982  35.768  40.083   0.658
69915W        W42983  12.352  38.679  11.957
69916W        W42984  34.556   0.320   1.828
69917W        W42985  29.933  37.001  14.728
69918W        W42986  28.900  37.945  10.685
69919W        W42987  40.966  34.146  11.397
69920W        W42988   6.710   8.177   0.318
69921W        W42989  34.629  16.644   3.687
69922W        W42990  44.216  27.483  13.155
69923W        W42991  23.285  16.261   1.405
69924W        W42992  43.852  30.195  14.326
69925W        W42993  25.978   7.814   2.711
69926W        W42994  41.377  16.816  14.553
69927W        W42995  18.786   8.818   2.820
69928W        W42996  25.319  24.474   2.405
69929W        W42997   5.465   7.614  12.037
69930W        W42998   8.328  27.621  12.112
69931W        W42999   4.873  11.730  14.347
69932W        W43000   1.578  25.153   4.318
69933W        W43001  11.840  14.036   2.774
69934W        W43002  19.579  12.669   2.662
69935W        W43003  28.862  23.774   1.187
69936W        W43004  21.117  29.939  10.548
69937W        W43005  44.774  29.426  11.785
69938W        W43006  43.579  43.863  12.125
69939W        W43007  34.787  31.538  13.433
69940W        W43008  27.781  41.881   0.746
69941W        W43009  37.778  34.336   0.594
69942W        W43010   9.908   4.964  10.999
69943W        W43011  19.190  28.082   2.621
69944W        W43012  25.301  40.314   3.029
69945W        W43013  35.080  24.551   4.120
69946W        W43014  31.410   8.714  12.360
69947W        W43015  34.182   9.714  14.095
69948W        W43016  13.699  11.289  11.965
69949W        W43017  32.977   7.607   2.773
69950W        W43018   6.481   8.946  11.650
69951W        W43019   9.368  38.277   2.067
69952W        W43020  14.359  25.763  14.805
69953W        W43021  29.456  15.648   0.813
69954W        W43022   0.055  26.699  14.369
69955W        W43023  29.861   1.525   4.117
69956W        W43024  38.384   7.279  14.920
69957W        W43025   6.930  14.327  10.927
69958W        W43026  15.703  12.764  12.074
69959W        W43027  21.482  16.549   0.822
69960W        W43028   7.120   6.796   3.725
69961W        W43029  32.916  33.966   2.318
69962W        W43030  17.186  19.566   3.222
69963W        W43031  21.185   4.499   2.353
69964W        W43032  42.804  13.374  12.975
69965W        W43033  22.022  39.571  14.808
69966W        W43034  34.432  12.619  14.813
69967W        W43035  18.568  38.472   4.291
69968W        W43036  15.878  36.850  13.078
69969W        W43037  42.815   7.425  11.266
69970W        W43038  27.610  23.510  14.306
69971W        W43039  22.810  29.089   4.893
69972W        W43040  26.492  12.416  13.788
69973W        W43041  42.894  38.881  10.634
69974W        W43042  17.782  23.880   2.713
69975W        W43043  21.968  10.913   4.655
69976W        W43044  29.444   9.603   2.703
69977W        W43045   6.775  14.670   3.657
69978W        W43046  17.120  25.127  14.828
69979W        W43047  44.486  10.448   0.618
69980W        W43048  28.426  41.873   2.717
69981W        W43049   1.457  18.921   2.677
69982W        W43050  19.736  16.321  12.091
69983W        W43051   2.178  23.828  10.080
69984W        W43052  10.226  14.562   4.246
69985W        W43053  39.301  33.349   4.153
69986W        W43054  43.168  43.910  10.775
69987W        W43055  32.313   9.420   1.916
69988W        W43056  32.149  37.853   1.748
69989W        W43057   0.038   9.635   0.308
69990W        W43058   6.493   5.008   1.542
69991W        W43059  18.467  21.589  13.041
69992W        W43060  12.381  17.173  14.515
69993W        W43061   8.942  33.691  11.152
69994W        W43062  10.392  34.630  12.043
69995W        W43063  16.271  41.972  11.962
69996W        W43064  24.769  15.132   4.917
69997W        W43065   8.924  30.483  13.918
69998W        W43066  27.048   9.220   4.326
69999W        W43067  20.485  13.088  11.122
70000W        W43068  14.040  29.603  12.095
70001W        W43069   8.270  44.287  10.375
70002W        W43070  34.842   6.127  11.597
70003W        W43071   8.925  21.580   2.805
70004W        W43072  29.914  41.407   2.225
70005W        W43073   2.258  32.031   4.062
70006W        W43074  17.986  21.139   2.318
70007W        W43075  36.464  25.240  14.788
70008W        W43076   8.420  20.661   2.684
70009W        W43077  10.434  23.268   2.394
70010W        W43078  37.522  26.737  14.070
70011W        W43079  24.034  33.999  12.805
70012W        W43080  38.048  32.969   5.075
70013W        W43081  37.077  22.190   0.660
70014W        W43082  28.490  18.048   3.189
70015W        W43083  29.119  34.072  11.851
70016W        W43084  15.762  29.465   5.030
70017W        W43085   2.332  25.876   0.432
70018W        W43086  38.871  40.529  11.137
70019W        W43087  35.351  15.277  11.613
70020W        W43088  20.779  26.060   0.172
70021W        W43089   0.523  14.237   1.582
70022W        W43090  38.455  36.583  13.809
70023W        W43091  27.213  38.953   1.316
70024W        W43092  29.609  18.596   2.744
70025W        W43093  16.132  16.281   3.612
70026W        W43094   7.598  26.591   4.509
70027W        W43095  23.024  21.550   4.567
70028W        W43096  34.562  27.433  11.633
70029W        W43097  23.501  42.634  11.571
70030W        W43098  36.372  24.927  11.034
70031W        W43099  36.093   3.036  12.486
70032W        W43100  10.089  23.049  13.337
70033W        W43101  29.539  42.912   3.366
70034W        W43102  32.135  34.354   1.793
70035W        W43103  17.863  25.549  11.061
70036W        W43104  27.047  22.315  11.973
70037W        W43105  28.765  30.122  11.504
70038W        W43106  29.624  35.544  13.895
70039W        W43107  14.364  33.915   4.144
70040W        W43108  14.633   8.174  13.951
70041W        W43109  17.676  33.011   4.523
70042W        W43110   7.258  10.718  13.842
70043W        W43111  38.010  16.828   1.248
70044W        W43112   4.713   1.916  10.726
70045W        W43113  34.532  23.421  12.982
70046W        W43114  44.540  24.070  10.691
70047W        W43115  35.466   0.289  11.374
70048W        W43116   0.067  35.353  11.678
70049W        W43117  36.430  15.939   3.982
70050W        W43118  31.748  40.691  11.862
70051W        W43119   8.850  16.794  12.822
70052W        W43120   5.797  44.443  14.792
70053W        W43121  14.540  40.037  10.593
70054W        W43122  35.431  16.577  14.331
70055W        W43123  41.045  21.099  12.904
70056W        W43124  37.377   7.182  14.086
70057W        W43125  20.547  44.820  14.651
70058W        W43126  19.581  28.668   3.874
70059W        W43127  16.313  15.192  14.029
70060W        W43128  14.750  17.332  12.950
70061W        W43129  35.903  18.162   1.188
70062W        W43130  22.952  23.258   5.005
70063W        W43131  15.825  11.108   4.536
70064W        W43132   6.369  20.812   1.431
70065W        W43133  13.346  16.787   1.217
70066W        W43134  28.729  20.532  12.805
70067W        W43135   8.176  18.780  13.335
70068W        W43136  33.565  12.115  14.405
70069W        W43137  38.486  13.164  12.490
70070W        W43138  31.180  33.172  13.580
70071W        W43139  12.072  23.943  12.501
70072W        W43140  39.357  26.591  14.366
70073W        W43141   0.273  42.941   1.526
70074W        W43142  31.192  32.149  14.433
70075W        W43143  10.478  15.358   3.806
70076W        W43144  40.976   1.732  11.841
70077W        W43145   5.189  16.270  10.551
70078W        W43146  34.985  36.524   2.592
70079W        W43147  12.721  16.252  11.087
70080W        W43148   7.816  22.270  11.580
70081W        W43149  31.874  37.241   2.497
70082W        W43150  15.276  19.366  13.989
70083W        W43151   1.311  36.796  13.482
70084W        W43152  28.033  37.684  13.859
70085W        W43153  34.658   7.869  11.102
70086W        W43154  32.701  41.033   2.231
70087W        W43155   3.421   6.169  10.673
70088W        W43156  16.447   0.501  14.846
70089W        W43157  42.212   0.835   2.837
70090W        W43158  30.545  24.855  11.596
70091W        W43159  32.870  29.458  10.765
70092W        W43160   2.402  31.070  14.983
70093W        W43161  41.744  10.715   0.207
70094W        W43162  20.316  21.134   0.438
70095W        W43163  36.924  16.453  13.343
70096W        W43164  22.500  34.612   3.706
70097W        W43165  43.897  11.787  12.429
70098W        W43166  23.906  32.994   4.686
70099W        W43167   7.157  34.927   0.245
70100W        W43168  17.875  41.676   2.342
70101W        W43169  35.049  11.363   3.283
70102W        W43170  35.102  28.082  14.736
70103W        W43171  21.665  12.136   4.176
70104W        W43172  29.002  27.935  14.600
70105W        W43173  34.518   0.175   0.883
70106W        W43174  35.293  38.431  14.615
70107W        W43175  18.425  20.204   2.272
70108W        W43176  32.810  40.087   1.935
70109W        W43177  28.040  29.968   1.545
70110W        W43178  37.010  37.989  13.100
70111W        W43179  18.814  38.453   3.829
70112W        W43180  28.022  24.542  14.832
70113W        W43181  38.177  38.595   2.376
70114W        W43182   4.319  41.127   3.703
70115W        W43183  13.939  18.711   1.721
70116W        W43184  31.494  33.540   3.185
70117W        W43185  17.918  42.568   0.934
70118W        W43186  21.220  20.522   0.921
70119W        W43187  21.267  32.085  12.514
70120W        W43188  26.367  30.524   1.285
70121W        W43189  40.449  26.917  14.613
70122W        W43190  23.746  19.936  13.497
70123W        W43191  21.960  31.526  10.419
70124W        W43192  16.480  30.055  14.886
70125W        W43193  27.422  11.682   3.436
70126W        W43194  44.049  21.212   3.361
70127W        W43195   7.412  14.763  12.644
70128W        W43196  21.148  10.040   1.455
70129W        W43197   2.100  17.103   0.359
70130W        W43198  28.275  12.101  11.579
70131W        W43199  10.769   7.950   1.093
70132W        W43200   6.210  11.294   1.378
70133W        W43201  26.039  30.903   4.236
70134W        W43202  33.326  12.271   1.209
70135W        W43203  17.623  20.856  14.816
70136W        W43204  22.033  16.290   0.219
70137W        W43205  24.479  32.470   1.382
70138W        W43206  44.004  10.564   2.436
70139W        W43207  16.910  19.240  11.139
70140W        W43208  32.571  15.337  14.338
70141W        W43209  41.260  42.749  13.242
70142W        W43210   3.647   6.648   3.659
70143W        W43211   2.071  12.332  12.516
70144W        W43212  33.468   7.500   1.397
70145W        W43213  37.843  30.908  14.506
70146W        W43214  37.050  42.483  12.008
70147W        W43215  20.593  19.510   1.246
70148W        W43216   1.977  13.159  12.373
70149W        W43217  22.715  26.948   1.797
70150W        W43218  18.490  23.137   4.395
70151W        W43219  30.391   2.986  11.130
70152W        W43220  36.139  42.256   1.225
70153W        W43221  27.499   6.774  11.732
70154W        W43222  41.871  26.040   0.288
70155W        W43223  15.828  20.079   0.691
70156W        W43224   0.899  39.896  12.509
70157W        W43225  31.112  38.493   1.714
70158W        W43226  29.875  21.103   3.771
70159W        W43227  43.506   7.434   4.363
70160W        W43228   6.738  29.996   3.510
70161W        W43229  40.047  40.904  11.006
70162W        W43230  31.839  24.081  13.160
70163W        W43231  22.117  30.691  12.899
70164W        W43232  38.104  15.290   2.091
70165W        W43233  40.525  30.647   2.169
70166W        W43234  18.519  30.920   4.161
70167W        W43235  14.142   2.234   3.841
70168W        W43236  25.224  29.112   2.206
70169W        W43237   2.467   0.331  11.419
70170W        W43238   7.803  17.280  13.646
70171W        W43239   9.654  20.262  11.629
70172W        W43240  33.438  30.497  10.749
70173W        W43241   8.920  22.243  14.949
70174W        W43242  44.872  31.317  11.470
70175W        W43243  20.736  42.977   4.165
70176W        W43244   1.305  36.579   1.701
70177W        W43245  36.858  26.966  13.344
70178W        W43246  11.726   8.567   4.330
70179W        W43247  20.525  34.675   3.779
70180W        W43248   8.839  11.402  13.803
70181W        W43249   6.155   5.782  13.427
70182W        W43250   8.674  29.419   0.574
70183W        W43251   3.737  13.938  11.075
70184W        W43252  35.163  22.253   1.260
70185W        W43253  31.529  20.611   2.572
70186W        W43254  21.530   3.967   2.749
70187W        W43255  42.534  16.250   5.630
70188W        W43256  32.576  29.966   4.231
70189W        W43257  41.296   6.858   0.256
70190W        W43258  19.701  18.068   2.368
70191W        W43259  35.994  23.727   0.662
70192W        W43260  32.132  20.399   1.815
70193W        W43261   7.737   6.214   0.808
70194W        W43262  34.293  38.393  13.410
70195W        W43263   8.695  28.056   0.916
70196W        W43264  43.811   0.223  12.382
70197W        W43265  30.278  31.950   4.295
70198W        W43266   4.933  44.349   1.280
70199W        W43267  23.791  32.137   1.301
70200W        W43268  32.720  27.598   1.227
70201W        W43269  22.663   9.142   1.374
70202W        W43270  40.297  37.375  10.062
70203W        W43271  35.636   8.903   3.116
70204W        W43272  15.207  37.559   3.357
70205W        W43273   2.578   5.302  12.266
70206W        W43274  21.547  33.008   1.308
70207W        W43275  16.705  31.671   1.189
70208W        W43276  32.884  12.848   0.231
70209W        W43277  39.067   3.827  14.005
70210W        W43278  13.094  29.107  14.273
70211W        W43279  39.777  26.626   1.830
70212W        W43280   2.477   7.888   4.180
70213W        W43281  32.581  40.451  11.148
70214W        W43282  39.952  37.332  11.570
70215W        W43283   8.698   0.290  11.654
70216W        W43284  25.086  37.539   1.919
70217W        W43285  20.407   3.724   3.807
70218W        W43286  27.269  40.488   0.424
70219W        W43287  42.659  41.252  12.058
70220W        W43288  29.985  41.436   2.732
70221W        W43289  20.155  10.258   3.827
70222W        W43290  19.999   2.532  14.326
70223W        W43291  22.558  29.645   1.970
70224W        W43292  18.473   3.799  14.033
70225W        W43293  26.597   9.795   5.400
70226W        W43294   2.417  12.158   2.448
70227W        W43295  19.271  23.742   3.202
70228W        W43296  30.563  28.061  14.802
70229W        W43297  15.278  26.529   3.240
70230W        W43298  35.024   5.014   1.940
70231W        W43299   0.807  41.817   0.985
70232W        W43300  15.321   6.178   0.268
70233W        W43301  27.606  19.000   4.158
70234W        W43302  25.430  14.158   2.863
70235W        W43303  34.550  37.034   3.064
70236W        W43304  13.886  22.641  11.042
70237W        W43305  44.809  12.275   0.455
70238W        W43306   7.457  44.303  11.497
70239W        W43307  40.927  12.917  12.009
70240W        W43308  36.306  28.618   1.686
70241W        W43309  39.419   0.493   2.393
70242W        W43310  23.140  30.936  10.524
70243W        W43311  21.285  29.644   2.315
70244W        W43312  31.566  22.444   0.221
70245W        W43313  30.824  36.149   2.759
70246W        W43314  28.049   8.287  11.126
70247W        W43315  32.237  16.377  14.045
70248W        W43316   9.384  31.194   3.648
70249W        W43317  25.756  22.589  10.335
70250W        W43318  31.931   6.244   4.057
70251W        W43319  25.235  19.508   4.582
70252W        W43320  37.961  30.467  14.269
70253W        W43321  10.646  35.480  10.721
70254W        W43322  16.762  24.268   4.919
70255W        W43323   7.268  44.110   3.598
70256W        W43324   0.688  20.995  11.416
70257W        W43325  33.030  32.618   2.867
70258W        W43326  34.928   5.331   0.932
70259W        W43327   0.413   4.392   3.934
70260W        W43328  41.435  31.506  11.630
70261W        W43329  15.235  44.036  14.500
70262W        W43330  27.301  39.712   4.470
70263W        W43331  21.681  42.995   1.203
70264W        W43332  13.331  36.504   3.629
70265W        W43333  38.316  18.649  11.234
70266W        W43334  39.544   0.041   3.194
70267W        W43335   1.549  29.011   1.897
70268W        W43336   4.864  42.763   0.047
70269W        W43337   8.443  21.102  11.123
70270W        W43338   0.439   9.194  11.047
70271W        W43339  41.068  19.775  11.576
70272W        W43340  44.835  37.373  11.135
70273W        W43341  17.045  41.745  14.501
70274W        W43342  11.308  20.038  10.007
70275W        W43343  24.468   9.153  11.490
70276W        W43344  22.793  14.818   1.445
70277W        W43345  18.919   5.344   1.330
70278W        W43346  14.918  37.805  13.765
70279W        W43347   3.722   3.759  13.016
70280W        W43348  44.724  24.159  13.021
70281W        W43349   0.035  16.634  11.621
70282W        W43350  41.131  33.421  13.992
70283W        W43351   9.447   4.371  13.355
70284W        W43352  44.356  36.610  14.105
70285W        W43353   3.576  28.190   3.407
70286W        W43354  34.596  18.205   0.935
70287W        W43355  26.313   8.359   1.892
70288W        W43356  14.326   3.677   4.994
70289W        W43357   2.500   4.454  12.955
70290W        W43358  24.594  44.989   0.813
70291W        W43359  22.951  40.956  13.389
70292W        W43360  34.029   9.759  13.571
70293W        W43361  44.820  12.408   4.720
70294W        W43362   0.920  38.294  11.663
70295W        W43363  24.170  19.196  10.155
70296W        W43364  18.271  14.122   3.913
70297W        W43365  22.105  44.935   5.001
70298W        W43366  19.585  36.997   3.251
70299W        W43367  15.067  33.049  13.325
70300W        W43368  25.336  22.780   3.772
70301W        W43369  15.951   3.716  13.820
70302W        W43370  19.152  36.356   2.168
70303W        W43371  17.393  10.574  12.446
70304W        W43372   0.266  13.214  12.123
70305W        W43373  32.653   8.769   0.282
70306W        W43374  39.681  33.882  11.094
70307W        W43375  16.712   8.120  11.296
70308W        W43376   8.730  37.865   1.438
70309W        W43377  23.780  37.525  12.838
70310W        W43378   4.194  42.401   3.482
70311W        W43379  21.277  35.257   2.284
70312W        W43380   7.097   0.488  10.407
70313W        W43381  40.927  29.030   0.912
70314W        W43382  34.541  32.096   3.687
70315W        W43383  16.723  44.482  11.370
70316W        W43384  15.314  40.528   0.929
70317W        W43385  12.545   8.722  12.307
70318W        W43386  37.759  20.991  12.153
70319W        W43387  40.486  32.097   2.741
70320W        W43388  32.209  35.817  11.872
70321W        W43389  44.338  23.450  14.461
70322W        W43390  25.523  19.394   2.187
70323W        W43391  27.454   2.850  13.046
70324W        W43392  38.434   6.613   5.272
70325W        W43393  12.098   4.874   2.779
70326W        W43394  31.565  34.004   1.812
70327W        W43395  33.262  39.995  10.051
70328W        W43396  10.967  10.306  13.935
70329W        W43397  20.807  23.201   4.322
70330W        W43398   4.631   2.861   2.828
70331W        W43399  41.701   5.751  12.427
70332W        W43400   3.919  40.251  10.844
70333W        W43401   4.796  13.159   3.285
70334W        W43402  44.374  30.665   1.276
70335W        W43403  44.294  39.320  10.678
70336W        W43404   0.077  23.607   0.775
70337W        W43405  24.498  28.927   3.049
70338W        W43406  43.336   9.676  12.006
70339W        W43407  40.214  36.854  13.795
70340W        W43408  29.626  33.446  12.478
70341W        W43409  40.088  42.570  13.132
70342W        W43410  18.112   1.871   4.705
70343W        W43411  23.065  44.396   3.192
70344W        W43412   2.577  38.151  14.469
70345W        W43413  28.862   4.233   2.116
70346W        W43414  40.881  26.151   3.408
70347W        W43415   7.045  44.326  13.413
70348W        W43416   9.788  10.361  13.804
70349W        W43417  32.960  15.121  13.000
70350W        W43418  40.838  28.740   1.831
70351W        W43419  37.593  41.223  14.923
70352W        W43420   2.029  28.457   3.197
70353W        W43421   8.383   5.143  13.698
70354W        W43422   3.256  23.022  12.739
70355W        W43423   0.887  11.145   1.902
70356W        W43424   2.458  16.197   0.722
70357W        W43425  27.333  29.043  13.356
70358W        W43426  31.745  17.876   1.221
70359W        W43427  43.076  40.215   3.691
70360W        W43428  32.575   7.706   2.436
70361W        W43429  15.364   4.892  11.438
70362W        W43430  31.092  32.674  14.333
70363W        W43431  35.004  11.606  11.125
70364W        W43432  21.690   8.012   3.084
70365W        W43433   0.214  15.561   1.657
70366W        W43434  44.776  32.738   3.450
70367W        W43435  27.721  25.222  13.000
70368W        W43436  34.579  33.713  14.279
70369W        W43437   2.306  30.459   5.000
70370W        W43438  29.611  25.569   1.393
70371W        W43439  20.281   0.278  14.611
70372W        W43440  25.666   3.966   4.549
70373W        W43441  37.723  24.453   3.365
70374W        W43442  26.817  28.525   1.063
70375W        W43443  39.116  35.928   4.559
70376W        W43444  15.051  11.020   2.722
70377W        W43445  27.684  40.035  12.077
70378W        W43446  16.306  21.993  10.712
70379W        W43447  31.507  39.922   4.610
70380W        W43448  44.999   5.393   2.479
70381W        W43449  17.016  30.958   2.774
70382W        W43450  17.565  32.605  13.366
70383W        W43451   6.690   4.885  10.350
70384W        W43452  23.736  30.144  10.723
70385W        W43453  39.601  17.030  13.439
70386W        W43454  14.541  18.208  12.873
70387W        W43455  13.571  10.713   2.279
70388W        W43456   0.417  31.052   3.322
70389W        W43457  31.459  14.166   4.116
70390W        W43458   1.833  44.055  11.926
70391W        W43459   1.832  20.315  12.117
70392W        W43460   8.389  39.368  11.599
70393W        W43461  18.255  33.300  14.556
70394W        W43462  44.836  30.205  12.172
70395W        W43463  20.516  25.773   4.338
70396W        W43464  33.493  19.221  11.638
70397W        W43465  22.944  21.211   4.995
70398W        W43466  27.992  28.085  12.167
70399W        W43467   0.465  24.922  12.045
70400W        W43468  29.519  38.952   0.436
70401W        W43469  23.391  44.689   5.026
70402W        W43470   6.720  18.992   2.711
70403W        W43471  20.795   4.104  10.338
70404W        W43472  26.545  22.014   2.446
70405W        W43473  40.975  23.178  11.162
70406W        W43474  14.761  16.677   1.863
70407W        W43475   1.851  11.141   2.185
70408W        W43476   8.260   2.965  11.809
70409W        W43477  15.225  18.855   3.561
70410W        W43478   4.980  28.657  11.571
70411W        W43479  10.398   0.320   0.422
70412W        W43480   2.949  38.275  14.838
70413W        W43481  23.247  37.591   9.989
70414W        W43482  35.582  27.165   1.311
70415W        W43483   8.237  29.586  13.286
70416W        W43484   9.351  43.862  14.155
70417W        W43485   5.391  28.630   3.099
70418W        W43486   2.946  14.398   1.758
70419W        W43487   6.536  25.462  12.306
70420W        W43488  38.030  34.591   2.640
70421W        W43489   2.540   5.947   9.870
70422W        W43490  21.166  22.255   2.888
70423W        W43491   4.681  24.677  14.622
70424W        W43492  28.603  35.888  11.169
70425W        W43493   6.825  34.296   4.480
70426W        W43494  25.565  24.913   1.694
70427W        W43495  40.085  34.995   1.325
70428W        W43496  36.474  30.518   2.786
70429W        W43497  38.870  31.936  13.740
70430W        W43498  36.086   2.299   0.971
70431W        W43499  25.885  29.670   0.956
70432W        W43500  27.966  37.770   0.649
70433W        W43501  35.846   5.301  13.206
70434W        W43502  26.750  20.555  11.118
70435W        W43503  16.156  23.183   1.284
70436W        W43504  19.880   8.922   2.432
70437W        W43505  20.815  17.722   4.020
70438W        W43506  23.195  16.105   0.811
70439W        W43507  29.915  18.747  13.665
70440W        W43508  19.928  26.114  11.564
70441W        W43509  40.426  23.208   2.577
70442W        W43510  39.883   5.713   0.433
70443W        W43511  34.894  41.728  13.835
70444W        W43512   1.418  15.644   3.134
70445W        W43513  11.751  33.174  14.572
70446W        W43514  22.924   2.270   3.234
70447W        W43515  18.068  41.205   1.998
70448W        W43516   0.905  32.954  11.190
70449W        W43517  37.427  28.351  12.357
70450W        W43518  13.606  18.780   2.632
70451W        W43519   3.899  42.765  10.073
70452W        W43520  15.589  24.212   0.817
70453W        W43521  29.501  22.182  13.886
70454W        W43522  14.224   3.981   2.424
70455W        W43523   4.033  44.738  14.470
70456W        W43524  24.381  43.792   3.170
70457W        W43525   2.506  18.761   2.783
70458W        W43526  35.590  31.704   4.216
70459W        W43527  23.273  23.659   1.305
70460W        W43528  44.212  38.883   1.259
70461W        W43529  43.850   4.383   1.155
70462W        W43530  35.522   9.270   0.813
70463W        W43531   8.219  38.569   9.875
70464W        W43532  44.325   8.692   0.781
70465W        W43533  30.081  41.359  13.086
70466W        W43534  34.491   7.779  14.489
70467W        W43535  26.446  39.376  11.457
70468W        W43536   6.371  36.017  14.925
70469W        W43537  36.096  32.899   5.085
70470W        W43538  40.348  40.897  13.909
70471W        W43539  18.530  38.229  13.851
70472W        W43540  16.554  31.384   1.926
70473W        W43541   1.760  25.143   2.040
70474W        W43542  18.974  37.882  10.583
70475W        W43543  30.421   5.686   3.226
70476W        W43544  40.646  14.859   2.169
70477W        W43545  19.680  42.049   4.069
70478W        W43546  28.183  16.935   0.588
70479W        W43547  26.913   3.684  12.595
70480W        W43548  14.530  40.793  11.491
70481W        W43549  41.351  23.487  13.068
70482W        W43550  10.091  41.438  10.869
70483W        W43551  36.395  40.068  11.621
70484W        W43552  24.267  11.768   4.132
70485W        W43553  43.992  39.938   3.389
70486W        W43554  27.964  40.089  12.557
70487W        W43555  36.028  34.446  11.705
70488W        W43556  17.105   6.174  10.616
70489W        W43557  21.727  15.570  11.034
70490W        W43558   5.412  35.345  13.341
70491W        W43559  22.497   4.406   1.715
70492W        W43560   8.023  27.958  10.146
70493W        W43561   8.672  31.910  10.492
70494W        W43562  10.337  14.134   3.179
70495W        W43563   1.559  21.151   2.732
70496W        W43564  36.449  28.587  14.788
70497W        W43565  21.870  43.908  13.081
70498W        W43566  39.599  37.968   0.778
70499W        W43567  14.118  38.028  13.890
70500W        W43568  38.272   7.573  10.805
70501W        W43569  31.818   0.882   1.511
70502W        W43570  16.498  42.798  14.190
70503W        W43571  15.221  37.677   0.955
70504W        W43572   3.138   1.039  10.725
70505W        W43573   6.426  43.047   1.394
70506W        W43574   8.723  13.121  11.687
70507W        W43575  13.411  22.316   2.332
70508W        W43576   3.675  43.954  13.447
70509W        W43577  15.403  39.857   3.318
70510W        W43578  21.085  38.813   0.714
70511W        W43579  28.567  21.577  10.747
70512W        W43580   0.721  33.144  10.762
70513W        W43581  16.773  15.620  14.395
70514W        W43582  39.247  23.149   4.652
70515W        W43583  17.989  31.252   1.678
70516W        W43584  27.895  28.057  10.534
70517W        W43585  42.080  19.638  12.468
70518W        W43586  30.118  18.567   2.695
70519W        W43587  44.252  29.170   5.289
70520W        W43588   5.459  12.253  10.702
70521W        W43589  30.603   4.535   3.931
70522W        W43590  25.751   9.614   0.009
70523W        W43591  29.888  20.553  14.977
70524W        W43592  41.228  31.197   1.766
70525W        W43593  19.742  26.068  13.778
70526W        W43594  12.416   7.025  13.386
70527W        W43595  44.815  36.428  11.488
70528W        W43596   4.785   5.207  10.760
70529W        W43597  25.884  36.923  11.116
70530W        W43598  27.284  43.292   0.100
70531W        W43599  22.702  22.420  11.045
70532W        W43600  41.835   7.588   0.480
70533W        W43601  24.310  23.784  13.372
70534W        W43602   5.658  29.232   3.729
70535W        W43603   5.963  15.278   0.448
70536W        W43604  33.651  13.813  13.923
70537W        W43605  30.362  37.224  13.118
70538W        W43606  32.611  20.513  14.171
70539W        W43607   4.893  43.764  10.754
70540W        W43608  24.924   2.197   2.766
70541W        W43609  38.241   1.309  11.102
70542W        W43610  19.491  33.192   2.243
70543W        W43611   1.581  29.875  12.439
70544W        W43612  31.910  23.963   0.356
70545W        W43613  25.521   0.892  12.966
70546W        W43614   9.622  35.899  13.527
70547W        W43615   2.409  14.240  13.314
70548W        W43616   7.290  22.584   4.650
70549W        W43617  42.982  29.122   3.855
70550W        W43618  41.219  31.182  12.926
70551W        W43619   7.623  39.773   3.691
70552W        W43620  11.100  29.130   4.561
70553W        W43621   4.365  22.301   2.670
70554W        W43622   3.953  30.729   4.996
70555W        W43623   0.781  24.452   0.729
70556W        W43624  44.758  14.588   1.172
70557W        W43625  35.582  10.229  14.454
70558W        W43626  18.178  42.769   0.483
70559W        W43627  43.500  26.005   4.189
70560W        W43628  37.093  24.743   2.689
70561W        W43629  14.751  16.587   0.972
70562W        W43630   5.916  13.388   1.802
70563W        W43631  39.302  30.378   1.838
70564W        W43632  40.764   6.910  13.291
70565W        W43633  30.592  17.072   2.109
70566W        W43634   1.929  26.716   3.613
70567W        W43635   2.945  18.193   0.235
70568W        W43636  37.096  19.798   2.385
70569W        W43637  35.015  38.504   3.587
70570W        W43638  23.989   7.254  14.919
70571W        W43639  12.523  42.048   1.846
70572W        W43640  32.113   9.739   2.807
70573W        W43641  10.731   7.797  13.387
70574W        W43642  39.395  24.948  12.004
70575W        W43643   5.273   5.023  10.624
70576W        W43644  27.186  41.089  14.535
70577W        W43645   0.161   6.767  12.649
70578W        W43646  31.602  15.764  11.492
70579W        W43647  19.162  29.497   4.021
70580W        W43648   7.102  23.895   3.333
70581W        W43649  11.786  38.924   5.029
70582W        W43650  11.205  23.985  11.499
70583W        W43651  42.495  18.510   0.960
70584W        W43652  33.437  22.647  14.795
70585W        W43653  27.659   4.035   2.225
70586W        W43654  18.147  17.007   1.379
70587W        W43655  33.378  43.537   0.380
70588W        W43656  30.169  29.210  13.427
70589W        W43657   1.725  43.392   0.813
70590W        W43658  11.891  27.988  14.019
70591W        W43659  34.591  30.569  12.409
70592W        W43660  42.034  41.795   3.678
70593W        W43661  41.726  33.015  14.761
70594W        W43662  43.924  37.430   1.700
70595W        W43663  18.718   3.365  14.550
70596W        W43664  36.392   3.106   2.333
70597W        W43665  36.127  10.503   1.753
70598W        W43666  24.342   8.380  13.362
70599W        W43667  40.497  10.887  13.580
70600W        W43668  42.222   1.096  14.965
70601W        W43669   5.374  11.649   4.830
70602W        W43670  21.940  43.805  10.245
70603W        W43671  24.164  21.548  11.964
70604W        W43672  25.112  41.263   2.126
70605W        W43673  36.406  15.608  10.982
70606W        W43674   9.657  10.129   2.429
70607W        W43675  43.905  33.341  12.554
70608W        W43676  29.555  43.691  13.836
70609W        W43677   3.848   8.692   4.585
70610W        W43678  28.962   4.248  14.898
70611W        W43679   2.719  13.055  13.079
70612W        W43680  32.848  19.670  14.270
70613W        W43681  17.834  40.123   3.157
70614W        W43682  13.734   6.894  12.088
70615W        W43683   3.158  32.162   0.951
70616W        W43684  19.869  18.906  13.349
70617W        W43685   6.525  27.702  12.011
70618W        W43686  37.594  34.868   1.315
70619W        W43687  29.888  21.058   0.199
70620W        W43688  31.102  38.870   0.336
70621W        W43689  33.427  39.620  12.392
70622W        W43690   7.071  21.254   3.684
70623W        W43691  43.889  42.646  14.388
70624W        W43692  20.032  12.659  14.806
70625W        W43693   1.414  16.802  14.877
70626W        W43694  37.274   9.766   4.056
70627W        W43695  13.646  38.885   1.218
70628W        W43696  38.422  33.942   0.790
70629W        W43697   3.836  26.224   4.780
70630W        W43698  13.273  42.602   1.859
70631W        W43699  38.864  19.865   2.138
70632W        W43700  27.846  16.328  14.273
70633W        W43701  30.989  36.805   2.213
70634W        W43702  42.361  15.634  10.983
70635W        W43703  28.080  24.378  11.636
70636W        W43704  38.808  17.709   0.925
70637W        W43705  22.456  34.030  13.825
70638W        W43706  30.964   0.848   4.529
70639W        W43707  10.302   6.944   0.370
70640W        W43708  18.084  38.872   5.046
70641W        W43709  10.638  24.172   0.505
70642W        W43710  41.721  40.181   4.776
70643W        W43711  34.501  12.126  11.494
70644W        W43712  33.583  20.207  12.583
70645W        W43713  29.525  21.117   4.616
70646W        W43714   5.827  41.279  14.805
70647W        W43715  23.881   6.365  11.479
70648W        W43716  13.048  24.297  12.479
70649W        W43717  36.375  34.082   5.691
70650W        W43718   9.706   0.831   3.228
70651W        W43719  44.579  19.037   1.870
70652W        W43720  17.730  41.671  13.912
70653W        W43721  19.037  38.766   3.312
70654W        W43722  17.502   9.871   4.137
70655W        W43723  31.154   2.008   0.465
70656W        W43724  22.978   9.739  13.995
70657W        W43725   9.358  33.389   0.795
70658W        W43726  16.905  26.115  14.364
70659W        W43727  39.874  36.533  14.087
70660W        W43728   7.599  41.915   2.634
70661W        W43729  13.668  22.526  14.817
70662W        W43730   4.878  10.332  14.893
70663W        W43731  33.701  12.060  13.506
70664W        W43732  34.491   4.869  12.410
70665W        W43733  17.388  38.481  11.885
70666W        W43734  32.315  43.851   1.869
70667W        W43735  19.256  33.377   4.064
70668W        W43736  34.695   9.828   1.896
70669W        W43737   3.379  14.568   2.453
70670W        W43738  35.553  30.160  14.916
70671W        W43739  27.691  21.734   2.480
70672W        W43740  34.997  19.774  12.292
70673W        W43741  41.401  16.990   3.323
70674W        W43742  14.699  43.971   4.200
70675W        W43743  39.247  10.209   2.225
70676W        W43744  32.537  26.740   2.845
70677W        W43745   5.394   4.959  14.941
70678W        W43746  11.392  13.845   2.356
70679W        W43747   2.821  13.755  10.702
70680W        W43748  36.972  29.655  10.995
70681W        W43749   1.500  33.859  14.575
70682W        W43750  20.769   8.351   1.902
70683W        W43751   1.156  33.591  14.303
70684W        W43752  19.162  20.023  10.608
70685W        W43753   4.512  24.209  11.175
70686W        W43754   0.827   2.876   2.600
70687W        W43755   1.244  39.776  13.982
70688W        W43756  36.642   5.893   1.457
70689W        W43757  29.719  25.078   2.662
70690W        W43758  21.161   4.407   1.450
70691W        W43759  10.876  38.291  14.956
70692W        W43760  28.532   4.228  13.930
70693W        W43761  19.616  32.149  14.502
70694W        W43762  39.973  43.559   0.769
70695W        W43763  20.009  23.110   0.957
70696W        W43764  32.233  32.941  12.093
70697W        W43765  36.752  35.968  14.627
70698W        W43766  37.083  24.602  14.996
70699W        W43767  26.152   5.833  12.862
70700W        W43768   9.766  35.239   0.327
70701W        W43769  29.349  40.910  12.123
70702W        W43770  19.176  43.602  12.942
70703W        W43771  38.099  40.979   1.389
70704W        W43772  31.045   1.815   3.885
70705W        W43773  12.504   8.359   1.964
70706W        W43774  39.849  32.100   3.112
70707W        W43775  24.225  16.974   4.203
70708W        W43776  30.386   4.259  10.793
70709W        W43777  11.328   6.118   2.801
70710W        W43778   4.421  41.943   3.523
70711W        W43779  26.628  27.924  11.664
70712W        W43780  33.767  23.721   4.164
70713W        W43781  44.062  11.801   4.842
70714W        W43782  43.784  11.159   4.101
70715W        W43783  18.554   8.490   4.762
70716W        W43784  16.799  33.641  10.978
70717W        W43785  44.305  39.069  12.872
70718W        W43786  30.978   9.742   3.587
70719W        W43787  34.863  33.553   3.724
70720W        W43788  35.984  41.773   4.652
70721W        W43789  18.935   9.852  10.993
70722W        W43790  10.915   5.354   1.453
70723W        W43791  10.435  24.673   2.391
70724W        W43792  26.153  36.140  13.455
70725W        W43793  12.733  32.424  11.853
70726W        W43794   6.308  40.999   2.322
70727W        W43795  24.448  38.330  12.361
70728W        W43796  42.389  33.075   0.299
70729W        W43797   4.961   2.697  12.546
70730W        W43798  17.173  36.850   4.472
70731W        W43799   0.401  38.869   4.589
70732W        W43800   3.913   4.031  11.550
70733W        W43801   0.810  13.627   2.335
70734W        W43802  44.275  33.828  10.502
70735W        W43803  24.719   3.706  13.676
70736W        W43804  39.458  30.675   4.149
70737W        W43805  16.713  39.572   0.957
70738W        W43806  18.761  26.629  14.379
70739W        W43807  36.492  22.838  11.247
70740W        W43808   4.397  12.856   1.260
70741W        W43809   1.539   1.115   3.636
70742W        W43810  40.623  29.609  13.509
70743W        W43811  37.859  42.307   2.444
70744W        W43812  21.586  13.408   3.939
70745W        W43813  34.736  16.856  14.828
70746W        W43814  17.608  25.444   1.306
70747W        W43815  41.772  25.142   3.182
70748W        W43816  22.780  14.253  12.157
70749W        W43817  18.801  32.129   4.110
70750W        W43818   5.579  42.726  11.211
70751W        W43819  44.848  35.569   4.177
70752W        W43820  23.445  18.153  12.946
70753W        W43821   4.178  24.597  11.083
70754W        W43822  10.178  40.541   4.180
70755W        W43823  24.042  44.701  10.300
70756W        W43824  11.076  19.228   2.390
70757W        W43825  43.277  39.351   0.953
70758W        W43826  32.965  20.064  11.544
70759W        W43827  16.644  15.590   2.553
70760W        W43828  24.027  21.768   4.598
70761W        W43829   1.740  20.638   2.751
70762W        W43830  39.018  38.422  11.571
70763W        W43831  19.084   5.688  12.418
70764W        W43832  29.434  39.405  11.895
70765W        W43833  44.783  30.357   4.541
70766W        W43834  41.280  12.457   2.576
70767W        W43835  41.917  41.085  12.516
70768W        W43836  28.630  30.017   0.343
70769W        W43837   2.409  23.196   2.390
70770W        W43838  13.917   4.306   1.529
70771W        W43839  35.171  37.134  12.684
70772W        W43840  20.798  13.960   3.668
70773W        W43841   6.359  32.389  13.944
70774W        W43842   5.389  12.858  14.518
70775W        W43843  20.826  12.315  13.594
70776W        W43844   3.510   1.040   0.452
70777W        W43845  36.883  27.535   0.449
70778W        W43846  41.756  19.721  11.077
70779W        W43847  18.188   3.375   4.612
70780W        W43848   1.847  11.198   3.373
70781W        W43849  30.416  26.836   4.570
70782W        W43850   9.419  26.714   2.777
70783W        W43851  12.751  43.463  13.557
70784W        W43852  26.183  18.097   2.767
70785W        W43853  18.170   8.776  13.118
70786W        W43854  15.664  10.930  11.049
70787W        W43855  15.435  35.930   4.351
70788W        W43856  14.559  14.372  14.420
70789W        W43857  19.189  24.037   4.371
70790W        W43858   0.287  17.535  12.572
70791W        W43859   3.734   4.655  11.998
70792W        W43860  39.388  16.020  14.361
70793W        W43861  33.851  43.749   0.399
70794W        W43862  40.042  26.430   2.822
70795W        W43863  30.038  34.888  11.176
70796W        W43864  23.460  41.896  14.069
70797W        W43865  18.590   4.995  12.886
70798W        W43866   6.853  23.700   4.184
70799W        W43867   9.109  33.542  13.997
70800W        W43868  18.518   4.270  13.316
70801W        W43869  17.091  21.072   3.240
70802W        W43870  40.957  29.893  10.787
70803W        W43871  27.883   4.684  12.987
70804W        W43872   5.373  17.262   2.754
70805W        W43873   5.789  24.098  10.754
70806W        W43874  41.454  31.373   0.891
70807W        W43875  23.212   9.390  13.121
70808W        W43876  31.464  21.044  10.236
70809W        W43877  23.145  36.330  11.639
70810W        W43878  12.143  23.501   2.845
70811W        W43879  32.152  33.168   5.261
70812W        W43880  23.153   2.574   4.492
70813W        W43881  17.030  37.619  12.531
70814W        W43882  16.695  17.527   1.231
70815W        W43883  24.138  27.438  13.416
70816W        W43884   8.876  27.347   3.181
70817W        W43885  22.348  21.913  14.913
70818W        W43886  32.629  16.363   1.190
70819W        W43887   8.417  43.272  14.261
70820W        W43888  29.523  36.119   3.289
70821W        W43889  44.105  37.259   3.697
70822W        W43890  15.158   2.091  11.002
70823W        W43891  34.516  38.913  10.636
70824W        W43892  31.094   0.508  11.132
70825W        W43893  37.510   9.887   5.013
70826W        W43894  43.969  11.370  14.054
70827W        W43895  25.658   5.811  14.861
70828W        W43896  10.351   6.283  13.900
70829W        W43897  23.669  21.500   4.949
70830W        W43898  32.131  12.568  11.473
70831W        W43899  10.299  18.744   3.272
70832W        W43900  37.207  32.553  13.416
70833W        W43901  25.726   7.715  14.823
70834W        W43902  37.862  43.364   2.375
70835W        W43903   3.951  10.529   0.946
70836W        W43904  19.490  37.546  12.657
70837W        W43905   4.800   3.850  11.175
70838W        W43906  39.461  18.330   4.571
70839W        W43907  41.898   1.695   4.415
70840W        W43908  29.698  10.372   2.392
70841W        W43909  15.468  26.184  13.451
70842W        W43910  10.779   9.168  12.812
70843W        W43911  28.626  24.642   2.740
70844W        W43912  15.545  26.923  11.997
70845W        W43913  11.671   1.529  11.494
70846W        W43914  30.447  33.644  13.796
70847W        W43915  22.198   4.677   0.485
70848W        W43916   9.612  25.054  13.382
70849W        W43917  42.389   4.660  11.795
70850W        W43918  36.246   3.134   0.568
70851W        W43919   3.451  40.460  10.901
70852W        W43920  23.727   0.407  13.905
70853W        W43921   2.370   2.447  13.516
70854W        W43922  33.166   7.685   4.789
70855W        W43923  23.742   4.854  12.099
70856W        W43924  31.335  30.141   2.625
70857W        W43925  22.968  21.749  11.627
70858W        W43926  38.509  20.262  13.025
70859W        W43927   3.199  15.116   4.754
70860W        W43928  35.611  33.354   4.154
70861W        W43929  31.293  33.624   3.663
70862W        W43930   5.062   3.675  12.570
70863W        W43931  26.994  14.041   1.948
70864W        W43932   2.496   1.052  14.897
70865W        W43933  37.619  25.006  11.521
70866W        W43934  35.467   9.300   3.396
70867W        W43935   1.907  33.840   3.732
70868W        W43936  11.177   2.384   0.179
70869W        W43937   6.840  10.655  14.898
70870W        W43938  18.187  42.531   0.022
70871W        W43939  38.147   8.276   5.498
70872W        W43940   1.179  33.401   1.877
70873W        W43941   6.786  37.655   3.811
70874W        W43942  18.061   2.881   3.848
70875W        W43943  42.733  43.974   3.647
70876W        W43944  31.146  10.592   4.500
70877W        W43945   6.335  13.819  10.714
70878W        W43946   1.758  15.272  13.359
70879W        W43947  23.917  40.405   0.804
70880W        W43948   8.980  44.467   5.113
70881W        W43949   0.812  29.121   4.278
70882W        W43950   6.442  35.561   1.283
70883W        W43951  20.574  41.978   3.219
70884W        W43952  44.384   0.406   3.155
70885W        W43953  42.340  10.830  12.566
70886W        W43954  41.722  31.950  11.703
70887W        W43955   9.554  29.119  10.660
70888W        W43956  27.958  11.492   0.862
70889W        W43957  11.042  19.108  14.403
70890W        W43958   6.380   1.403  12.905
70891W        W43959  29.584  19.095   4.680
70892W        W43960   0.815  26.640   1.708
70893W        W43961  22.903  37.425   2.068
70894W        W43962  41.094  16.572   3.369
70895W        W43963   3.857  44.825   3.112
70896W        W43964   9.104  29.372  13.828
70897W        W43965   0.904  29.062  14.364
70898W        W43966  40.444  36.381   1.006
70899W        W43967  39.257  37.027   1.845
70900W        W43968   9.361  28.904   0.914
70901W        W43969  31.466  32.719  12.773
70902W        W43970  32.032  17.711   4.624
70903W        W43971   4.679   0.395  14.223
70904W        W43972  23.708  38.217   4.396
70905W        W43973  26.537  19.544  14.474
70906W        W43974   2.242   5.778   1.348
70907W        W43975  28.461  16.201   1.460
70908W        W43976  23.106   6.422   2.415
70909W        W43977  43.463  10.048  13.415
70910W        W43978  21.740  12.601  10.439
70911W        W43979  18.594  17.299   1.370
70912W        W43980  11.835  30.031  10.540
70913W        W43981  27.502  18.889   1.625
70914W        W43982  28.157  17.061  14.813
70915W        W43983  26.315  20.307  11.746
70916W        W43984  10.102   3.877   2.357
70917W        W43985  24.935  16.779   0.350
70918W        W43986  13.707  33.167   1.320
70919W        W43987  40.925  34.262  13.566
70920W        W43988   8.618  21.001   1.721
70921W        W43989   4.199  32.458  11.727
70922W        W43990  34.572   8.122  14.924
70923W        W43991  41.800  18.761   3.638
70924W        W43992  31.751  12.103   3.177
70925W        W43993  30.893  23.925  14.459
70926W        W43994   3.834  15.174   5.076
70927W        W43995   6.180  16.285  14.909
70928W        W43996  22.541  10.189  14.898
70929W        W43997  29.222  20.782   4.254
70930W        W43998  30.083   6.612  13.369
70931W        W43999  25.744   9.767   4.141
70932W        W44000   0.944  39.072  11.198
70933W        W44001   6.388  25.152   0.836
70934W        W44002  22.730  19.727   2.461
70935W        W44003  10.742  43.054   5.044
70936W        W44004  38.355   4.250   3.267
70937W        W44005  43.889  43.085  14.078
70938W        W44006  25.952  35.671   5.379
70939W        W44007   0.853  29.047  13.287
70940W        W44008   5.846  40.935   2.558
70941W        W44009   1.530  22.736   3.549
70942W        W44010  34.213  43.797   3.303
70943W        W44011  11.795  25.522  11.147
70944W        W44012  40.786  38.037  12.074
70945W        W44013  41.345  26.150   0.234
70946W        W44014  35.419  14.596  14.350
70947W        W44015  27.702  12.179  10.661
70948W        W44016  12.149   4.706   0.817
70949W        W44017  33.225  17.197  11.382
70950W        W44018   9.844  32.181   4.955
70951W        W44019  39.129  26.639   4.179
70952W        W44020  10.224  17.711  11.536
70953W        W44021  32.157  41.934   0.973
70954W        W44022  35.902  35.300   2.822
70955W        W44023  14.638  16.802  14.498
70956W        W44024   3.628   7.122  13.067
70957W        W44025  40.537  11.431   0.046
70958W        W44026  38.404   9.832   0.810
70959W        W44027  20.017  26.452   4.155
70960W        W44028  20.607  38.932  12.297
70961W        W44029   0.139   8.940  11.375
70962W        W44030   3.555   1.393   4.053
70963W        W44031  35.385  17.202  11.989
70964W        W44032  24.868  39.559  13.509
70965W        W44033  21.843  32.372   0.262
70966W        W44034  37.279   7.765  14.401
70967W        W44035  12.089   3.811  14.044
70968W        W44036   5.175   1.811   3.652
70969W        W44037   7.744  33.985   0.367
70970W        W44038  21.764   4.908   0.702
70971W        W44039   7.330  23.013   4.939
70972W        W44040   0.757  24.146   4.556
70973W        W44041   8.853  33.533   0.753
70974W        W44042  19.618   6.597   0.852
70975W        W44043  35.933  21.543  14.591
70976W        W44044  33.536  19.312  10.711
70977W        W44045   0.987  20.468  14.861
70978W        W44046  16.590   4.407   2.300
70979W        W44047  23.496  12.657  14.256
70980W        W44048   2.405  25.873   3.722
70981W        W44049   7.863  29.921   0.462
70982W        W44050   7.074   5.199   1.661
70983W        W44051  17.688  36.849  11.001
70984W        W44052  18.184  32.387  14.320
70985W        W44053   2.217  20.958  10.458
70986W        W44054  35.768   4.893  12.883
70987W        W44055  38.425  15.154  14.889
70988W        W44056  42.076  10.224   3.619
70989W        W44057  24.645   9.522  13.551
70990W        W44058  12.147   1.721  14.481
70991W        W44059  29.810  20.588  12.090
70992W        W44060   0.513  29.904   3.861
70993W        W44061  14.363  37.697  11.052
70994W        W44062  10.679   9.919  14.755
70995W        W44063  41.956  10.685   3.797
70996W        W44064  39.265  43.928  10.911
70997W        W44065  24.169  28.001  14.947
70998W        W44066  40.711   0.773   2.216
70999W        W44067  41.058   2.520   2.175
71000W        W44068   6.262  13.137  14.698
71001W        W44069  19.845  29.702   3.118
71002W        W44070   6.852   4.143   1.660
71003W        W44071  28.895  32.343   0.873
71004W        W44072  22.189  36.517  14.769
71005W        W44073  44.897  24.668  14.342
71006W        W44074  38.096  41.495   1.333
71007W        W44075  35.462   9.487   0.349
71008W        W44076   5.912  32.797  11.532
71009W        W44077  23.665  43.331   2.659
71010W        W44078  40.009  33.387  12.844
71011W        W44079   8.203   4.779  12.032
71012W        W44080  24.972  16.761   4.758
71013W        W44081  38.437  23.953   2.018
71014W        W44082   4.124  41.797  11.782
71015W        W44083   3.013   1.162   0.360
71016W        W44084  32.819  13.139   3.894
71017W        W44085  13.183  21.193   0.965
71018W        W44086  25.716  33.464   3.136
71019W        W44087  41.743  38.871  13.980
71020W        W44088  26.115  40.113  14.846
71021W        W44089  36.116  41.734  14.441
71022W        W44090  10.387   6.467   1.724
71023W        W44091  31.321  13.845  12.099
71024W        W44092  42.506  29.127   0.633
71025W        W44093  37.660  18.128   2.546
71026W        W44094   6.684  36.295   2.785
71027W        W44095  31.490   9.677  13.861
71028W        W44096  28.993   9.788   1.557
71029W        W44097  25.015  25.401   2.373
71030W        W44098  43.457  38.910   3.338
71031W        W44099  34.055  31.375   4.159
71032W        W44100   3.522  13.070  10.791
71033W        W44101  10.236   5.997  10.007
71034W        W44102  40.980   1.413  14.356
71035W        W44103  36.454  33.936   2.791
71036W        W44104  26.508  35.857   0.495
71037W        W44105  22.496  44.386   1.014
71038W        W44106  16.010  44.568   3.326
71039W        W44107  28.703  42.954  10.343
71040W        W44108  37.956  44.503   4.229
71041W        W44109  44.738  13.632   1.264
71042W        W44110   6.796  22.077   4.468
71043W        W44111  19.757   2.320   3.788
71044W        W44112   1.043   5.680  13.484
71045W        W44113  16.762  41.921  12.058
71046W        W44114  18.552  24.351  11.668
71047W        W44115   2.875  35.630   1.347
71048W        W44116   4.449  12.847  10.423
71049W        W44117  29.703  38.416  12.646
71050W        W44118  21.450  31.983   2.150
71051W        W44119   3.691   5.968   3.176
71052W        W44120  25.596  29.054   4.245
71053W        W44121  22.491   7.845   1.761
71054W        W44122  21.487  35.312  13.594
71055W        W44123  19.021  22.184   2.364
71056W        W44124  32.567  33.655  13.106
71057W        W44125  37.494   2.383  14.634
71058W        W44126  39.365  22.711  11.016
71059W        W44127  15.281  44.252  10.612
71060W        W44128   7.036   2.875  12.347
71061W        W44129  41.587   4.516   4.572
71062W        W44130   6.901  14.654   4.259
71063W        W44131   5.633  12.097   2.185
71064W        W44132  14.102  25.470  11.591
71065W        W44133   3.328  26.699   0.929
71066W        W44134  34.812   3.951   2.816
71067W        W44135  15.183  38.371  10.519
71068W        W44136   1.330  23.316   0.248
71069W        W44137  41.302   7.725   3.102
71070W        W44138   4.208   1.278   3.600
71071W        W44139   5.094  26.711  14.213
71072W        W44140  22.202   4.785  13.940
71073W        W44141  22.785  44.385  11.508
71074W        W44142  10.268  30.185  13.268
71075W        W44143  38.312   2.473  11.912
71076W        W44144  10.624  37.213   1.759
71077W        W44145  39.099  41.212  10.659
71078W        W44146  32.041  26.206  11.605
71079W        W44147  32.128  21.627  13.731
71080W        W44148  25.962  20.341  14.758
71081W        W44149  30.958   2.482   3.645
71082W        W44150   0.976  11.940   0.806
71083W        W44151  30.633  44.390   4.708
71084W        W44152  41.432  40.938  13.434
71085W        W44153  31.021  12.804   5.026
71086W        W44154   4.494  22.254  13.024
71087W        W44155  34.101  16.314   2.239
71088W        W44156   1.947  28.546  11.066
71089W        W44157  19.032  20.049  11.586
71090W        W44158  40.309  37.511  12.500
71091W        W44159  37.925  20.528  14.839
71092W        W44160  40.820  19.348  13.482
71093W        W44161  24.413  32.944   4.652
71094W        W44162  12.818  33.036  10.627
71095W        W44163  39.999  12.928  12.023
71096W        W44164  40.917  17.146  11.577
71097W        W44165  24.510   3.373   0.938
71098W        W44166   0.017  37.046  12.122
71099W        W44167  20.469   2.086   1.265
71100W        W44168  11.652  37.533   0.780
71101W        W44169  24.662   0.830  13.588
71102W        W44170  34.452  24.803   4.144
71103W        W44171   3.984  13.144  11.161
71104W        W44172  42.725  39.372  12.515
71105W        W44173  40.095  36.453   1.421
71106W        W44174   8.793  38.900   2.174
71107W        W44175  19.443  13.922  13.896
71108W        W44176   5.782   4.942  13.355
71109W        W44177   6.258  30.023   2.308
71110W        W44178  33.595  17.719  12.351
71111W        W44179   1.395  29.506   0.762
71112W        W44180  15.153   0.268  12.558
71113W        W44181  14.231  29.425  12.944
71114W        W44182  25.932   3.279   1.399
71115W        W44183   9.530  13.867   2.189
71116W        W44184  22.189  25.937  12.435
71117W        W44185  22.199  22.489   1.875
71118W        W44186   6.190   6.637  10.528
71119W        W44187   2.910  32.541   1.195
71120W        W44188  18.646  41.977  13.493
71121W        W44189  20.279  37.426  11.761
71122W        W44190  33.608  11.847  13.973
71123W        W44191  36.976  44.220   0.245
71124W        W44192  33.289  16.671  14.933
71125W        W44193  30.564  32.432  11.192
71126W        W44194   1.730  37.974   0.707
71127W        W44195  26.867  32.785   4.345
71128W        W44196  26.430  42.563   3.698
71129W        W44197  26.971  13.065  11.344
71130W        W44198   0.838  14.561   3.315
71131W        W44199  38.099  23.249   0.476
71132W        W44200  40.162  13.299   1.216
71133W        W44201   0.591   4.759  10.286
71134W        W44202  29.083  16.376  11.086
71135W        W44203  41.819  41.579   1.265
71136W        W44204  33.346   2.182  13.080
71137W        W44205   4.806  21.089   1.365
71138W        W44206  23.570  18.193   4.820
71139W        W44207   3.409  23.749  10.522
71140W        W44208  12.010  19.609   1.682
71141W        W44209  42.429  41.316  12.528
71142W        W44210   1.792   6.039   4.981
71143W        W44211   7.151   5.335   3.665
71144W        W44212  22.176  27.409  11.207
71145W        W44213  35.632   2.165  11.641
71146W        W44214  11.618  26.600  11.194
71147W        W44215  15.403  17.979   1.862
71148W        W44216   4.350  37.054  12.928
71149W        W44217  23.276   6.151  13.635
71150W        W44218   5.470   9.175   3.237
71151W        W44219  24.164  38.368   1.845
71152W        W44220  26.717  19.606   0.829
71153W        W44221  16.053  15.083   3.795
71154W        W44222  15.049  31.551   3.171
71155W        W44223  14.739  41.418  14.282
71156W        W44224  37.604  30.118   2.663
71157W        W44225   5.241  13.313   2.146
71158W        W44226   2.043  33.566   4.151
71159W        W44227  18.632  15.607   3.155
71160W        W44228  34.083  33.540   4.255
71161W        W44229  26.401   2.572   1.401
71162W        W44230   0.493   5.425   2.335
71163W        W44231   3.430  40.522  14.685
71164W        W44232  41.530  28.114  14.426
71165W        W44233  40.471  32.564   2.419
71166W        W44234  42.863  42.449  11.966
71167W        W44235   5.935  34.373   4.649
71168W        W44236  38.921   1.307   5.294
71169W        W44237   8.697  35.922  11.581
71170W        W44238   6.751  21.311   2.474
71171W        W44239   3.985   8.767  12.569
71172W        W44240  14.326  25.575  11.148
71173W        W44241  33.138  17.254  14.434
71174W        W44242   4.089  41.637  12.573
71175W        W44243   4.473  23.361   0.544
71176W        W44244  27.453   5.284  14.951
71177W        W44245   5.185  16.027   0.864
71178W        W44246  25.064  26.514   3.689
71179W        W44247  21.802  23.150   2.021
71180W        W44248  27.564  39.579   0.975
71181W        W44249  35.333  35.856   4.274
71182W        W44250  34.918  17.011  11.940
71183W        W44251  39.816  29.126  11.947
71184W        W44252  32.608  27.652  10.292
71185W        W44253  38.417  25.380   4.780
71186W        W44254  33.067   2.724  13.453
71187W        W44255  29.647  42.650  13.373
71188W        W44256   3.127  14.790  13.568
71189W        W44257  15.627  37.841   3.215
71190W        W44258  21.636  40.110  12.513
71191W        W44259  28.058  23.252  13.365
71192W        W44260  37.887  31.421  11.167
71193W        W44261  21.968  32.586  11.697
71194W        W44262  10.671  31.512  14.773
71195W        W44263  31.653   3.862   4.690
71196W        W44264  28.087  44.161  10.758
71197W        W44265  41.441  35.767   0.303
71198W        W44266  32.003  15.296   1.762
71199W        W44267   7.757  26.779   0.962
71200W        W44268  44.813   4.747   4.343
71201W        W44269   4.808  12.577   3.646
71202W        W44270  20.114  17.196  11.148
71203W        W44271  22.657  37.078   2.431
71204W        W44272  42.261  23.743  11.613
71205W        W44273  42.515  42.011   3.690
71206W        W44274  44.582  33.616  13.890
71207W        W44275  26.642  28.258  13.653
71208W        W44276   3.684  33.153   3.916
71209W        W44277  34.592  16.013  12.599
71210W        W44278  16.044  42.364  11.127
71211W        W44279   6.870  43.808  13.520
71212W        W44280  28.956  28.041  13.175
71213W        W44281  42.261  27.593   4.112
71214W        W44282   1.264   4.070   3.242
71215W        W44283  12.644   7.708   0.716
71216W        W44284   4.900   5.302   3.822
71217W        W44285  38.857  34.490   1.246
71218W        W44286  25.153  30.672   3.745
71219W        W44287  32.069  16.742   0.853
71220W        W44288  23.243  14.525  12.052
71221W        W44289  11.355   0.417   1.492
71222W        W44290  15.728   2.675  10.669
71223W        W44291  42.686  19.269   0.543
71224W        W44292  44.567  23.142   1.743
71225W        W44293  31.036   6.383  13.891
71226W        W44294  36.097  18.104   0.726
71227W        W44295  32.639  17.289  14.578
71228W        W44296  40.503  23.221  11.951
71229W        W44297  33.432  37.864  13.177
71230W        W44298   6.955   7.355  11.961
71231W        W44299  23.183  33.523   4.598
71232W        W44300  37.742  16.156  13.639
71233W        W44301   7.942  43.060   2.391
71234W        W44302  12.163  17.120  10.411
71235W        W44303  39.003   7.995   0.714
71236W        W44304  41.039  14.161   2.764
71237W        W44305  37.350  36.238  10.962
71238W        W44306  11.086  16.210  13.191
71239W        W44307   5.009  29.059  14.059
71240W        W44308   1.117  42.892   0.452
71241W        W44309  10.562   0.309  11.246
71242W        W44310  11.638  36.019   0.878
71243W        W44311  18.203  33.693  12.667
71244W        W44312  25.415  18.132   4.657
71245W        W44313  27.486  42.848  12.436
71246W        W44314  31.087  26.422  13.494
71247W        W44315  41.337  13.578   4.629
71248W        W44316  15.855  25.702   3.110
71249W        W44317  10.765   9.276  13.326
71250W        W44318   3.267  29.526  14.420
71251W        W44319   9.111  41.559  13.881
71252W        W44320  22.327   8.370   3.812
71253W        W44321  33.650  16.645  13.954
71254W        W44322   9.178  13.530   2.783
71255W        W44323   5.174  10.398  12.551
71256W        W44324  35.953  11.556   2.292
71257W        W44325  42.102  44.346  13.600
71258W        W44326  38.988  35.549  14.750
71259W        W44327  21.304   6.673   2.297
71260W        W44328  28.854  25.972   2.329
71261W        W44329  42.316  24.206  12.910
71262W        W44330   4.240  28.190   4.195
71263W        W44331  28.065   1.053   0.938
71264W        W44332  12.903  13.037  13.521
71265W        W44333  19.487  19.289   1.178
71266W        W44334  36.622   5.846   0.947
71267W        W44335  28.564  19.644   4.042
71268W        W44336   9.288  31.442  12.924
71269W        W44337  27.542  17.773  10.381
71270W        W44338  33.814  33.998   3.164
71271W        W44339  36.849   7.907  10.674
71272W        W44340   4.885   7.666   3.736
71273W        W44341  22.532  25.937   0.658
71274W        W44342  33.700  42.321   3.111
71275W        W44343  35.443  39.756  12.940
71276W        W44344  33.914  15.582  12.869
71277W        W44345  31.429   3.682  12.383
71278W        W44346  38.095   5.400   4.669
71279W        W44347  11.077   3.266  11.933
71280W        W44348  14.744  38.980   0.214
71281W        W44349  37.382   7.388  13.221
71282W        W44350  37.537  15.843   3.217
71283W        W44351  27.893  12.224  13.846
71284W        W44352  40.386  33.682   2.881
71285W        W44353   2.710  44.419   0.802
71286W        W44354  16.039  43.831  11.607
71287W        W44355  13.092  36.404   3.174
71288W        W44356  15.557  38.142  10.797
71289W        W44357   7.394  39.860   5.026
71290W        W44358  41.967   1.473  10.748
71291W        W44359  36.576  12.202  10.891
71292W        W44360  34.531  14.399  14.248
71293W        W44361  27.734  30.446  11.141
71294W        W44362  21.496   3.473  12.979
71295W        W44363  41.380   8.793  13.194
71296W        W44364  37.867  10.409   4.231
71297W        W44365   9.263  31.418  14.589
71298W        W44366   1.362  12.811  10.488
71299W        W44367  31.174  11.785  10.771
71300W        W44368  16.560  20.108   3.650
71301W        W44369   3.465  15.539   4.909
71302W        W44370  43.005  41.998   1.809
71303W        W44371  37.372  26.647   4.607
71304W        W44372  18.597  25.673   2.136
71305W        W44373  32.829  19.434  11.159
71306W        W44374  25.683  30.387   2.726
71307W        W44375  28.822   8.341   1.185
71308W        W44376  43.859  33.092  10.592
71309W        W44377   4.214  30.147   4.338
71310W        W44378  22.661  40.764  12.003
71311W        W44379   3.374   8.847   2.938
71312W        W44380  16.003  28.329  12.074
71313W        W44381  39.370  33.866   4.248
71314W        W44382  13.319  35.061  12.812
71315W        W44383  30.344  28.028   1.658
71316W        W44384  35.927  30.936  11.974
71317W        W44385  16.323  21.445   1.795
71318W        W44386  29.412  40.286   3.044
71319W        W44387  17.079   8.834  11.076
71320W        W44388  38.542  11.868  12.333
71321W        W44389  28.127  43.574  11.610
71322W        W44390  44.630  42.349   2.122
71323W        W44391  37.372  19.172   2.293
71324W        W44392  26.988  27.944  12.851
71325W        W44393  17.143  40.421   3.756
71326W        W44394  17.539   5.772  11.373
71327W        W44395  43.341  32.705   4.210
71328W        W44396  37.080  32.077   2.860
71329W        W44397  44.960  15.675   4.148
71330W        W44398  30.216  29.731  13.519
71331W        W44399  36.832  16.709   0.207
71332W        W44400   5.826  36.804  14.927
71333W        W44401  27.963   1.681  12.971
71334W        W44402  30.454  18.674  12.827
71335W        W44403  32.738  32.959  12.197
71336W        W44404  19.798  37.499  14.848
71337W        W44405  13.803  24.248  13.395
71338W        W44406  23.629  15.857   1.400
71339W        W44407  37.769  38.032  11.656
71340W        W44408  36.654  22.306   3.838
71341W        W44409  17.068  11.825   3.663
71342W        W44410  15.122  15.356  13.323
71343W        W44411  26.427  18.675   4.942
71344W        W44412   0.813  12.707   4.678
71345W        W44413  17.992   9.810  10.974
71346W        W44414  20.747  10.106  11.984
71347W        W44415  36.615  14.553   2.777
71348W        W44416  27.723  12.413  10.066
71349W        W44417  36.882  24.255   2.759
71350W        W44418  35.506  22.323   3.025
71351W        W44419  13.176  10.889  10.697
71352W        W44420  40.108  38.010  14.798
71353W        W44421  28.061  26.103  12.613
71354W        W44422  13.887   4.970  13.895
71355W        W44423  20.907  24.725  11.373
71356W        W44424  20.670   0.640   4.085
71357W        W44425  19.185  14.839   3.316
71358W        W44426  22.703   6.725   2.480
71359W        W44427  20.314  27.061   3.693
71360W        W44428  18.500  42.003   3.613
71361W        W44429  31.242  22.306   0.751
71362W        W44430  40.698  34.465   2.886
71363W        W44431  15.660   9.130  11.389
71364W        W44432   2.802  34.853  13.606
71365W        W44433  35.852  26.390   4.576
71366W        W44434  41.488  12.826  11.697
71367W        W44435  32.098  12.347  12.564
71368W        W44436   8.337  32.120  11.546
71369W        W44437  23.198   3.493  10.936
71370W        W44438  33.475  40.554   3.707
71371W        W44439   6.611   1.868  13.765
71372W        W44440   6.321  10.812  11.123
71373W        W44441  41.929  23.093   4.658
71374W        W44442  29.622  20.293  12.914
71375W        W44443  33.956  33.127  13.916
71376W        W44444  41.841   7.198  13.970
71377W        W44445   9.903  34.591  10.437
71378W        W44446  14.376  36.479  12.343
71379W        W44447  35.856  15.036  11.599
71380W        W44448  10.704  20.900  12.922
71381W        W44449  37.076  18.374   0.714
71382W        W44450  41.441  12.889   2.343
71383W        W44451  14.374  24.181   3.356
71384W        W44452  23.617  15.360  10.510
71385W        W44453   7.298  16.324   1.915
71386W        W44454  16.685  24.144  14.374
71387W        W44455  18.053  20.227  13.102
71388W        W44456  24.922  12.249   3.604
71389W        W44457  25.015  33.533   2.803
71390W        W44458  19.753  42.806  13.043
71391W        W44459   3.294  26.190   3.230
71392W        W44460  12.996   3.344  14.386
71393W        W44461  35.120  21.221   4.156
71394W        W44462   6.797   7.242  14.038
71395W        W44463   3.456  33.710   0.715
71396W        W44464  19.100  17.032  10.641
71397W        W44465  16.793   9.225  13.583
71398W        W44466   7.234  32.438  11.616
71399W        W44467  37.252  22.180  12.263
71400W        W44468   8.844  21.242   1.278
71401W        W44469  24.433  33.002   2.835
71402W        W44470  44.411   7.917   4.133
71403W        W44471  23.696  25.660   4.375
71404W        W44472   3.764  26.731  12.596
71405W        W44473  15.783   3.489   0.998
71406W        W44474   6.595  26.439  10.735
71407W        W44475  44.259  17.289  12.023
71408W        W44476   3.353   5.637   1.414
71409W        W44477  42.873   1.388   0.704
71410W        W44478  30.750  29.974   4.646
71411W        W44479  40.454   9.424  11.882
71412W        W44480   8.233   2.490   4.244
71413W        W44481  14.166   1.892   3.440
71414W        W44482   2.836  29.580   2.960
71415W        W44483  30.461  34.849  12.463
71416W        W44484  27.270  34.100  12.797
71417W        W44485  28.553  36.884  12.619
71418W        W44486  34.457   8.833   2.752
71419W        W44487  34.901  18.761  13.361
71420W        W44488  24.154  19.591  14.718
71421W        W44489  33.909  34.583  10.496
71422W        W44490  22.233   5.739  12.932
71423W        W44491  26.193  15.615   0.059
71424W        W44492  38.610  33.364   2.669
71425W        W44493   0.189  37.833   4.597
71426W        W44494  34.622   1.529  14.291
71427W        W44495  30.202  35.652   2.664
71428W        W44496  35.280  26.967  14.960
71429W        W44497  44.388  30.558  13.442
71430W        W44498  13.261  24.244   2.836
71431W        W44499  40.075  33.358   1.288
71432W        W44500  33.105  10.250  14.186
71433W        W44501  25.370   6.395  14.690
71434W        W44502  28.654  39.777  13.555
71435W        W44503  15.389  28.598  12.381
71436W        W44504  10.599  15.727  10.224
71437W        W44505  10.677  38.639  10.656
71438W        W44506  28.889  36.524   1.286
71439W        W44507  32.095  40.021  14.008
71440W        W44508  18.669   1.529   3.599
71441W        W44509  43.025   4.254   4.720
71442W        W44510   4.208   7.661   1.286
71443W        W44511  21.266  37.539  12.973
71444W        W44512  44.992  38.334  13.512
71445W        W44513  39.922  20.544  12.589
71446W        W44514  25.054  12.095   1.658
71447W        W44515  26.874   9.734   4.980
71448W        W44516  12.882  29.442  10.644
71449W        W44517  42.544   5.379  13.524
71450W        W44518  10.422  14.727   0.320
71451W        W44519  25.637  15.637  13.874
71452W        W44520   8.750  39.274   0.433
71453W        W44521  19.983   7.256   1.431
71454W        W44522   0.904  27.272   4.338
71455W        W44523  10.672  15.534  11.599
71456W        W44524  15.578  24.151  13.130
71457W        W44525  26.073  11.665  13.742
71458W        W44526  12.631  33.026   2.911
71459W        W44527   5.375  32.571  13.392
71460W        W44528  18.569  17.445  12.031
71461W        W44529  11.898  39.761  11.572
71462W        W44530  27.373  25.603   3.243
71463W        W44531  19.993  17.809   3.705
71464W        W44532  38.087  31.072   2.272
71465W        W44533  34.870  13.103  11.195
71466W        W44534  39.958   9.231   5.028
71467W        W44535   6.455  20.323  11.060
71468W        W44536  39.956   0.339   3.266
71469W        W44537  13.396  40.298  14.206
71470W        W44538  39.112  33.868  10.712
71471W        W44539  34.046   4.726  10.241
71472W        W44540  37.476  44.233   4.190
71473W        W44541  18.122  40.035  14.528
71474W        W44542  38.485  29.035   1.482
71475W        W44543   1.196  10.139  12.524
71476W        W44544  42.394  13.945  11.401
71477W        W44545  11.779  23.044   2.137
71478W        W44546  10.206  24.218   1.795
71479W        W44547  27.393   1.282   4.644
71480W        W44548   0.211  32.602  11.702
71481W        W44549  23.184  37.950  11.774
71482W        W44550   3.925  17.252  11.589
71483W        W44551  36.431  16.133   4.465
71484W        W44552  41.379  29.783   3.512
71485W        W44553  36.992  19.331  14.538
71486W        W44554   3.868  22.833   4.337
71487W        W44555  14.389   0.445  12.057
71488W        W44556  13.280  26.564  13.203
71489W        W44557   1.414  33.036  12.445
71490W        W44558  12.779  13.145  12.556
71491W        W44559   6.435  12.877   2.785
71492W        W44560   2.198   8.739   3.098
71493W        W44561  36.893  13.407  10.576
71494W        W44562   0.342  43.458   4.309
71495W        W44563   4.092  37.354   4.389
71496W        W44564  33.790   5.176   9.990
71497W        W44565  31.721  26.935   1.345
71498W        W44566  33.139  34.820   2.730
71499W        W44567  35.498  43.728   0.865
71500W        W44568  38.355  12.371   3.237
71501W        W44569  23.536  29.563   3.395
71502W        W44570  38.977  10.799   0.905
71503W        W44571  38.466  34.344  14.814
71504W        W44572  42.104  44.245  10.148
71505W        W44573  35.426  16.574   4.860
71506W        W44574  37.361  41.122   2.429
71507W        W44575  17.162  27.477  13.052
71508W        W44576   6.281  34.486  11.572
71509W        W44577  34.631  13.329  12.404
71510W        W44578  14.195  24.998  11.840
71511W        W44579  16.737  27.010   1.314
71512W        W44580  24.662  18.334  12.102
71513W        W44581  33.460  14.252  11.708
71514W        W44582   5.644  38.309   1.777
71515W        W44583   7.613  38.015  13.517
71516W        W44584   5.162   0.247  11.285
71517W        W44585  27.943  24.690   4.336
71518W        W44586   3.698   4.286   2.163
71519W        W44587  41.046  39.277   4.085
71520W        W44588  38.793  41.960   3.818
71521W        W44589   8.321  38.510  13.089
71522W        W44590  10.317  20.264   2.346
71523W        W44591  43.913   1.617   2.070
71524W        W44592  17.735  17.255  13.686
71525W        W44593  41.183   0.320  11.600
71526W        W44594  30.864  23.073   0.355
71527W        W44595  43.411  22.590  14.908
71528W        W44596  13.724  10.312   4.565
71529W        W44597  15.084  15.704  13.912
71530W        W44598  40.372  13.048  13.053
71531W        W44599  33.572  19.309   1.897
71532W        W44600  39.923  18.638  13.944
71533W        W44601  27.109   1.597   1.416
71534W        W44602  35.178  36.123   1.224
71535W        W44603  37.400  16.261  11.378
71536W        W44604  32.103  41.527   4.243
71537W        W44605  27.084   7.933  11.149
71538W        W44606  17.241  16.105  10.570
71539W        W44607   3.270  24.930   1.427
71540W        W44608  39.280  42.552   0.275
71541W        W44609  26.346  26.147   5.009
71542W        W44610  40.829  18.784  14.359
71543W        W44611  21.233  12.786   0.321
71544W        W44612   4.493  41.309   2.910
71545W        W44613   8.869  21.751  13.427
71546W        W44614  23.776   1.532   5.119
71547W        W44615  32.203  33.175   0.328
71548W        W44616   5.564  11.641  12.930
71549W        W44617  37.495   8.978  14.121
71550W        W44618  10.366   7.259  11.662
71551W        W44619  24.017  31.307  13.425
71552W        W44620  14.525   0.601  10.314
71553W        W44621  31.536   1.663   4.052
71554W        W44622  13.366   6.108   1.943
71555W        W44623  39.295  26.390   2.525
71556W        W44624  31.790  19.338  13.934
71557W        W44625   1.960  23.675  12.844
71558W        W44626  28.658  29.424   1.338
71559W        W44627  38.482  25.574   1.256
71560W        W44628  39.025  43.946   0.934
71561W        W44629  28.634   5.615  11.628
71562W        W44630  35.861  30.107   3.732
71563W        W44631  14.585  15.386  14.482
71564W        W44632  44.686  24.193   3.790
71565W        W44633  36.358  33.384  14.230
71566W        W44634  20.049  29.921   3.778
71567W        W44635  42.990  20.055   2.336
71568W        W44636   5.440   1.162   2.257
71569W        W44637  38.876   8.267   4.662
71570W        W44638  17.835  24.978   4.675
71571W        W44639  37.535  32.099   5.377
71572W        W44640  36.837  24.278   4.255
71573W        W44641  42.477  31.403  10.493
71574W        W44642  34.498  24.576   1.178
71575W        W44643  32.453  14.237   4.149
71576W        W44644  33.844  24.422  14.245
71577W        W44645  36.094  27.157  14.043
71578W        W44646  31.175  35.508  11.062
71579W        W44647  26.823  25.979  13.957
71580W        W44648  37.768  30.212   0.905
71581W        W44649  41.280   2.868  10.877
71582W        W44650  24.082  30.344   3.258
71583W        W44651   7.925  42.411  11.451
71584W        W44652  16.902  23.246   4.074
71585W        W44653  16.708  14.812   4.441
71586W        W44654   9.118  36.885   4.718
71587W        W44655  11.239   1.320  12.864
71588W        W44656   4.366  35.092   0.863
71589W        W44657   0.893  32.817   0.338
71590W        W44658  30.590   1.209   0.911
71591W        W44659   7.177  39.891   0.929
71592W        W44660  19.416  36.511  10.720
71593W        W44661   2.232  16.501  14.358
71594W        W44662  12.249  41.094   0.401
71595W        W44663  44.545  21.899  12.692
71596W        W44664  24.632   8.372  14.902
71597W        W44665   2.760   1.964   0.851
71598W        W44666  38.917  44.768   2.164
71599W        W44667  11.116  39.913   0.416
71600W        W44668   0.022   1.742   2.654
71601W        W44669  15.563  26.370   3.669
71602W        W44670  17.511  42.514   1.958
71603W        W44671  33.923   9.870  10.641
71604W        W44672  19.168  24.609   1.005
71605W        W44673   9.227  26.248  11.139
71606W        W44674  39.294  30.927   4.689
71607W        W44675  22.784  41.054  10.647
71608W        W44676  24.063  38.753  10.990
71609W        W44677  38.439  40.662   3.675
71610W        W44678  18.584   2.991  11.124
71611W        W44679  15.582  41.092  14.648
71612W        W44680  20.246  25.048  12.090
71613W        W44681  28.237   7.297   2.163
71614W        W44682  43.043  39.006  11.105
71615W        W44683  40.314  16.999   3.665
71616W        W44684   0.249   2.860   0.440
71617W        W44685  26.872  42.374   4.030
71618W        W44686  42.988  38.516  14.702
71619W        W44687  34.392   5.930  14.384
71620W        W44688  38.673  44.055   4.804
71621W        W44689   4.195  21.182  13.634
71622W        W44690   9.263   9.995  10.349
71623W        W44691  34.400  38.573   0.272
71624W        W44692  16.684  36.822  13.529
71625W        W44693  12.563  35.556   0.691
71626W        W44694  12.664   4.932   4.642
71627W        W44695  17.540  33.548  14.315
71628W        W44696  34.240  10.624  11.970
71629W        W44697   5.980  23.413  13.795
71630W        W44698   7.705  18.106   1.949
71631W        W44699  28.873  11.821   4.338
71632W        W44700  34.630  38.273  12.465
71633W        W44701   9.680  24.192   2.554
71634W        W44702   4.647  36.420  10.143
71635W        W44703   1.459  41.855   4.962
71636W        W44704  32.980  25.268  10.797
71637W        W44705   1.720  42.522   3.831
71638W        W44706  19.796  23.023   0.465
71639W        W44707  32.992  11.379  12.158
71640W        W44708  26.451  43.753   0.698
71641W        W44709  26.752  34.328   0.255
71642W        W44710  40.909   0.544   4.101
71643W        W44711  37.685   3.702  10.561
71644W        W44712  34.959  37.530   4.138
71645W        W44713   7.216  30.349  11.967
71646W        W44714  41.521  14.253   0.338
71647W        W44715   3.178  19.818  10.952
71648W        W44716  22.260  42.428  14.206
71649W        W44717  38.039  42.359   3.935
71650W        W44718  39.948   1.325  12.333
71651W        W44719  43.933  39.954  12.410
71652W        W44720   8.918   1.293   1.189
71653W        W44721  18.110   5.121   4.703
71654W        W44722  27.573   3.125  11.645
71655W        W44723  10.783  30.897  12.467
71656W        W44724  11.600  42.541   2.635
71657W        W44725   7.366  17.263   0.427
71658W        W44726   7.714  42.826   4.620
71659W        W44727   4.546   3.455   0.014
71660W        W44728  13.799  21.306  12.885
71661W        W44729  43.318  18.537   2.630
71662W        W44730  21.119  11.600   4.611
71663W        W44731  29.335   0.718   1.238
71664W        W44732   3.479  25.731   1.355
71665W        W44733  40.290  26.204  10.650
71666W        W44734  31.839  26.562  12.885
71667W        W44735  17.185  43.865   1.730
71668W        W44736  38.545  24.081   1.539
71669W        W44737  23.980  26.061  10.680
71670W        W44738   9.686  37.616  11.990
71671W        W44739  19.659  24.109   0.189
71672W        W44740  25.947  35.274   5.044
71673W        W44741   4.683  12.644  13.838
71674W        W44742  23.089  36.343   0.531
71675W        W44743  18.643   8.071   2.365
71676W        W44744  14.219  23.006   1.854
71677W        W44745  14.305  21.242   2.844
71678W        W44746   3.854  29.651   3.664
71679W        W44747   0.556  41.749   0.221
71680W        W44748  41.509  39.288  14.377
71681W        W44749  29.670  10.290   1.009
71682W        W44750  25.208  36.332  14.538
71683W        W44751   5.098  35.801   2.224
71684W        W44752  16.677  43.897   3.235
71685W        W44753   4.148   5.429  11.553
71686W        W44754  20.524  15.568  12.878
71687W        W44755  39.942  17.271   2.212
71688W        W44756  25.481  15.583   0.233
71689W        W44757  24.275  23.839  12.514
71690W        W44758  43.042  29.044  11.610
71691W        W44759  28.920  16.234  13.336
71692W        W44760  22.149   7.658  14.033
71693W        W44761  14.180  42.304   4.240
71694W        W44762  10.838   5.454  14.565
71695W        W44763  43.290   0.536  12.601
71696W        W44764  24.593  41.083  14.423
71697W        W44765  30.351   5.197   1.929
71698W        W44766  37.798  16.170   1.431
71699W        W44767  40.988  25.693   3.147
71700W        W44768  36.355  42.291   0.725
71701W        W44769   7.528  35.866  12.946
71702W        W44770  27.043   0.295   4.708
71703W        W44771  44.484  13.768   3.159
71704W        W44772  44.380   9.318   1.928
71705W        W44773  35.943  30.589  13.162
71706W        W44774   1.967  10.589   3.844
71707W        W44775  10.892   3.241   1.857
71708W        W44776  26.786   1.385   3.767
71709W        W44777  25.935   5.601  11.583
71710W        W44778  18.876  25.131  13.036
71711W        W44779  12.639  30.100  14.875
71712W        W44780  30.852  39.942  14.806
71713W        W44781  16.703  25.537  14.251
71714W        W44782   9.522  26.617  11.589
71715W        W44783  22.715  35.971   1.678
71716W        W44784  43.288  27.154  11.996
71717W        W44785   3.574  43.221  13.804
71718W        W44786   8.372  21.607  14.340
71719W        W44787  30.677  31.953   0.816
71720W        W44788  27.430  12.687   3.512
71721W        W44789  27.173  38.524   1.819
71722W        W44790  21.104   9.701   1.848
71723W        W44791   6.782  33.545   0.490
71724W        W44792   1.045  15.745  13.393
71725W        W44793  34.454  33.340  13.919
71726W        W44794  31.559  16.556  14.550
71727W        W44795  21.752  33.633   2.161
71728W        W44796  41.170  24.239   0.922
71729W        W44797  44.188  28.122   3.066
71730W        W44798   3.472   2.564   3.481
71731W        W44799  10.791  19.049  11.126
71732W        W44800  14.815  42.909   4.194
71733W        W44801  33.153  22.659   3.707
71734W        W44802  22.111  20.241   2.937
71735W        W44803  42.843  34.915  14.902
71736W        W44804  31.520  20.144  14.737
71737W        W44805  38.240  12.581   1.784
71738W        W44806  30.518  28.171  14.277
71739W        W44807  11.619  28.240   0.326
71740W        W44808  13.202  26.936   2.214
71741W        W44809  44.265  23.801   4.729
71742W        W44810   5.414  43.864  12.888
71743W        W44811  11.936   5.504  11.028
71744W        W44812  10.167  22.522   1.358
71745W        W44813  20.239  44.984   4.167
71746W        W44814  44.438  10.856   0.928
71747W        W44815  17.133  19.255   0.340
71748W        W44816  31.827  35.723   1.331
71749W        W44817  40.090  35.587   3.670
71750W        W44818   8.406   0.774  10.910
71751W        W44819  22.948  40.053  14.426
71752W        W44820  14.627  10.486   3.169
71753W        W44821  16.047  37.615  14.312
71754W        W44822  29.493  21.544   4.908
71755W        W44823  38.477   9.087  13.866
71756W        W44824  41.432  19.026   1.883
71757W        W44825  37.417   8.681  10.637
71758W        W44826  39.469  33.410  11.086
71759W        W44827  11.865   9.933   2.333
71760W        W44828  12.114  34.350   0.816
71761W        W44829  25.132  15.083   0.753
71762W        W44830  13.177  36.256  14.205
71763W        W44831   8.602  10.157  13.371
71764W        W44832  23.318  39.922   1.480
71765W        W44833  21.047  13.547   4.463
71766W        W44834  37.052  32.729  13.879
71767W        W44835   6.281  20.112   4.552
71768W        W44836  23.615   9.391  14.293
71769W        W44837  32.584   7.950   2.897
71770W        W44838  18.722  25.323  11.530
71771W        W44839  20.086   6.876  11.680
71772W        W44840  23.691  12.815  11.491
71773W        W44841  39.551  27.883  11.906
71774W        W44842  36.135  17.108  12.105
71775W        W44843  40.132   2.598   3.735
71776W        W44844  39.476  15.873   4.781
71777W        W44845  14.143  15.674  14.389
71778W        W44846  40.024  18.295   3.932
71779W        W44847  13.164   0.032   0.928
71780W        W44848  34.406  15.772   0.432
71781W        W44849  22.213  42.575  13.436
71782W        W44850  26.121  32.524  14.310
71783W        W44851  40.286  23.272  13.558
71784W        W44852  21.587  21.632  12.683
71785W        W44853  16.673  21.565  13.078
71786W        W44854   2.911  13.035   0.445
71787W        W44855  21.991   0.502   1.788
71788W        W44856  32.871  42.019   3.683
71789W        W44857   7.957  29.002   0.935
71790W        W44858  15.264  32.062  12.427
71791W        W44859  34.384  30.642   2.820
71792W        W44860   8.905  11.244  12.520
71793W        W44861  39.176   1.805   2.648
71794W        W44862  10.795  11.304  11.354
71795W        W44863  10.186  35.383  12.424
71796W        W44864  41.243   1.289  12.548
71797W        W44865  36.567   2.757  14.838
71798W        W44866  28.552  40.499  11.081
71799W        W44867  35.213  32.897  10.255
71800W        W44868  26.601  26.546  11.888
71801W        W44869  29.267  26.228   1.339
71802W        W44870  14.772  36.518   1.664
71803W        W44871   8.358   9.695   3.134
71804W        W44872  37.584  11.571  11.135
71805W        W44873  25.770  19.300  13.311
71806W        W44874  37.683   8.173   3.263
71807W        W44875  39.094  11.182   3.168
71808W        W44876  25.354  11.648  13.413
71809W        W44877   1.373  24.605  10.793
71810W        W44878  43.986  38.389   4.305
71811W        W44879  28.588   0.285   1.306
71812W        W44880  42.393  14.743   0.872
71813W        W44881  10.055   3.765   0.808
71814W        W44882   8.420   8.903   2.213
71815W        W44883  34.444  19.047   3.844
71816W        W44884  12.567  11.719  10.450
71817W        W44885  24.077  25.723  14.506
71818W        W44886   2.041   0.487   4.174
71819W        W44887  17.253  30.967   4.398
71820W        W44888  39.021  37.588  11.154
71821W        W44889  44.781  10.962   3.728
71822W        W44890  44.491  24.428  14.510
71823W        W44891  15.811  43.925   4.053
71824W        W44892  26.375  30.439   3.334
71825W        W44893  25.082  27.977  14.758
71826W        W44894  43.393  16.134   4.107
71827W        W44895  11.648  23.647   1.379
71828W        W44896   8.812  29.705   1.448
71829W        W44897  13.698  27.065   4.378
71830W        W44898  13.265  37.615  11.695
71831W        W44899  16.388  23.996   0.871
71832W        W44900  25.107   1.181  12.865
71833W        W44901  22.201  27.269  14.726
71834W        W44902   4.711   1.957  12.064
71835W        W44903  40.258  40.741   2.169
71836W        W44904  13.880  31.790   2.890
71837W        W44905  43.248  42.434   2.903
71838W        W44906  40.530  10.648   1.931
71839W        W44907  11.642  35.453   0.884
71840W        W44908   8.061  17.216   0.998
71841W        W44909  30.750  17.227  14.867
71842W        W44910  18.056   5.653   1.257
71843W        W44911  35.147  30.066  12.939
71844W        W44912  19.182  12.206  14.371
71845W        W44913  21.762  12.671  13.373
71846W        W44914  28.936  15.590  10.672
71847W        W44915  36.603  29.141  13.915
71848W        W44916  12.743  29.503  14.078
71849W        W44917  34.367  34.324  13.462
71850W        W44918   0.572  30.942   3.796
71851W        W44919  42.423  32.196  13.768
71852W        W44920  38.637  11.682   1.635
71853W        W44921  32.227  15.220  11.226
71854W        W44922  38.604   5.024   0.595
71855W        W44923  21.780  36.880   0.405
71856W        W44924  32.503   4.689  10.399
71857W        W44925  11.875  17.674   1.098
71858W        W44926   5.442  17.527   3.235
71859W        W44927   8.571  17.640  13.336
71860W        W44928  37.464  13.977   2.744
71861W        W44929  43.866  24.114   3.363
71862W        W44930  41.417  21.619   3.090
71863W        W44931  15.466  25.409   0.166
71864W        W44932  12.793  42.775  11.532
71865W        W44933   5.210  41.017  12.682
71866W        W44934  35.933  44.449   1.039
71867W        W44935  27.198  14.093   5.152
71868W        W44936   2.547   6.205   1.366
71869W        W44937  15.119   2.486   0.973
71870W        W44938  34.897  25.466   3.726
71871W        W44939  42.304  13.168  14.566
71872W        W44940  34.534  30.625  13.360
71873W        W44941  43.265  15.762   2.709
71874W        W44942  43.692  13.674  11.458
71875W        W44943  23.727   3.737  11.466
71876W        W44944   9.680  28.541   3.162
71877W        W44945  19.795   9.001   3.656
71878W        W44946   3.898   2.692  14.406
71879W        W44947  32.009  27.532   3.777
71880W        W44948  36.807   4.798  11.660
71881W        W44949  42.892  21.508   1.387
71882W        W44950  14.031  28.871  11.633
71883W        W44951  11.758  31.481   1.443
71884W        W44952  30.602   0.654  11.846
71885W        W44953  17.129  28.619  14.979
71886W        W44954  23.965   4.258  10.952
71887W        W44955  12.813  24.170  13.385
71888W        W44956  25.809   0.486  13.876
71889W        W44957   0.547  19.082   2.733
71890W        W44958  15.616  13.233  11.300
71891W        W44959  21.733   4.406   0.481
71892W        W44960  34.517   5.477  13.514
71893W        W44961  44.509  35.538  13.812
71894W        W44962  18.021  36.245   0.824
71895W        W44963   6.416  37.162   4.317
71896W        W44964  29.966  11.852  12.821
71897W        W44965  36.735  12.262   4.250
71898W        W44966  20.714  39.489   0.594
71899W        W44967  11.817  10.661  12.959
71900W        W44968  21.623  40.505   2.247
71901W        W44969  30.057  31.008  13.905
71902W        W44970  30.320  12.215  13.964
71903W        W44971  13.820  11.184   3.237
71904W        W44972   0.788  13.132   4.373
71905W        W44973   9.512  37.442  13.972
71906W        W44974  20.549  42.958   2.582
71907W        W44975  21.084  27.685  12.604
71908W        W44976  29.628   3.460  10.336
71909W        W44977  42.535   3.807  12.059
71910W        W44978  16.152  36.937  13.497
71911W        W44979  39.754   4.404  11.228
71912W        W44980  40.313  32.044   4.729
71913W        W44981   1.900   4.696  14.404
71914W        W44982  36.767  34.284  11.213
71915W        W44983  20.240  13.695   0.608
71916W        W44984  44.741  32.106   2.887
71917W        W44985  41.614  24.445   1.200
71918W        W44986  18.073  43.756   4.249
71919W        W44987  24.729   1.356  11.559
71920W        W44988  42.248   5.965  10.987
71921W        W44989  26.596  36.862   3.861
71922W        W44990  41.513  17.184  10.922
71923W        W44991  30.387  32.823  12.526
71924W        W44992  32.401  16.543  14.633
71925W        W44993  18.065  37.463  11.157
71926W        W44994  43.704  40.193  14.822
71927W        W44995   8.902  26.979  10.773
71928W        W44996  11.762   6.930  12.450
71929W        W44997  10.814  21.773   3.135
71930W        W44998  44.137   8.148   1.408
71931W        W44999  44.674  11.166   3.242
71932W        W45000   7.922   9.435  13.927
71933W        W45001   7.469  23.206   2.321
71934W        W45002  30.376  11.424  10.677
71935W        W45003  31.508  17.558   1.876
71936W        W45004  33.392  14.509   3.359
71937W        W45005  30.071   8.226   4.652
71938W        W45006  27.236   3.832   1.394
71939W        W45007  12.330  37.927  12.516
71940W        W45008   8.398  16.400   3.397
71941W        W45009  13.568   9.351  10.453
71942W        W45010   7.814  24.605   3.622
71943W        W45011   5.107  30.065   2.985
71944W        W45012  39.798  13.577   0.959
71945W        W45013  17.463  43.320   4.740
71946W        W45014   1.417   9.711   3.696
71947W        W45015  32.137  41.421  12.361
71948W        W45016  34.097  43.755   1.395
71949W        W45017   7.251  20.995  10.648
71950W        W45018  17.504  21.654  14.631
71951W        W45019  35.923   0.973  12.040
71952W        W45020  40.248   2.786  10.564
71953W        W45021  39.542  12.646   0.439
71954W        W45022   4.594  27.776  12.295
71955W        W45023   4.870  38.908   1.106
71956W        W45024  14.194  18.685   2.197
71957W        W45025   8.923  33.902   2.841
71958W        W45026   1.068  30.079   3.919
71959W        W45027  42.782  26.635  13.262
71960W        W45028  20.016  37.001  10.604
71961W        W45029  21.898  41.231  12.155
71962W        W45030   3.014  10.464   4.049
71963W        W45031  30.394  28.108  10.812
71964W        W45032  29.942  25.900   0.779
71965W        W45033   9.081  22.576  11.446
71966W        W45034  10.641  11.795  13.676
71967W        W45035  16.829   7.222  12.927
71968W        W45036  14.861  33.551   3.576
71969W        W45037   8.100  19.502  12.697
71970W        W45038   3.454  41.961   2.357
71971W        W45039  41.931  27.137   2.106
71972W        W45040  21.166  34.568  12.682
71973W        W45041  35.900  42.717  13.443
71974W        W45042  40.394  14.723  14.732
71975W        W45043  40.880  35.511  11.992
71976W        W45044  22.752  39.610   4.055
71977W        W45045  14.418   4.747   0.337
71978W        W45046   3.435  43.475   3.667
71979W        W45047   8.171  13.291   0.782
71980W        W45048   4.914  30.661  11.557
71981W        W45049  18.669  14.510   2.243
71982W        W45050  14.365  12.798   3.690
71983W        W45051   0.240  14.740   0.276
71984W        W45052   1.418   2.422  12.510
71985W        W45053  41.384  44.310   3.111
71986W        W45054  28.987  21.378  14.379
71987W        W45055   9.782   8.412  13.977
71988W        W45056   5.700  34.533   2.319
71989W        W45057  16.391  20.492  11.593
71990W        W45058  23.249  18.597  13.909
71991W        W45059  22.004  27.278   2.922
71992W        W45060  11.193  16.871   0.454
71993W        W45061  19.224  42.559  10.687
71994W        W45062  38.561  40.264  14.878
71995W        W45063  11.625   2.094   2.770
71996W        W45064  26.286   6.751   3.269
71997W        W45065  15.346   4.413   1.371
71998W        W45066  43.758  16.673   4.331
71999W        W45067  37.594   9.664  10.942
72000W        W45068   8.929  10.813  13.458
72001W        W45069  17.087  10.302  12.753
72002W        W45070  18.174  23.396   4.709
72003W        W45071  14.867   1.043   3.300
72004W        W45072  31.717   9.124  13.439
72005W        W45073  18.748   3.954   2.213
72006W        W45074   6.276   9.587  12.413
72007W        W45075   1.290  26.104   1.320
72008W        W45076  26.175  41.622  11.202
72009W        W45077  24.430  21.734   3.923
72010W        W45078   1.989   3.384  11.893
72011W        W45079  23.031  33.383  12.621
72012W        W45080  27.922  41.728  14.002
72013W        W45081  31.063  33.018   4.204
72014W        W45082  25.308  30.598  13.055
72015W        W45083  26.702   3.645   1.789
72016W        W45084  30.567  32.831   4.188
72017W        W45085   3.406  38.831   3.649
72018W        W45086  10.162  38.498  12.551
72019W        W45087  29.260  38.599  12.885
72020W        W45088  21.600  12.896   3.891
72021W        W45089  24.100  22.563  14.750
72022W        W45090   2.123   4.419  13.329
72023W        W45091   3.270  21.973  11.302
72024W        W45092   4.706  11.081   1.393
72025W        W45093  35.037  44.960  14.043
72026W        W45094  15.282  27.205  14.044
72027W        W45095  24.826  44.898  13.514
72028W        W45096  15.610  16.816   1.239
72029W        W45097  33.558   9.623  14.663
72030W        W45098  37.050   7.676  14.874
72031W        W45099  14.237  39.943  14.568
72032W        W45100  37.661  18.610  14.304
72033W        W45101  31.536   9.027  12.816
72034W        W45102  27.688  15.618  12.590
72035W        W45103  39.402  31.694  14.829
72036W        W45104  27.214  29.606   0.986
72037W        W45105   5.119  44.242   4.057
72038W        W45106   1.819  28.717   4.525
72039W        W45107   4.247  32.590   1.850
72040W        W45108  20.082  19.317   2.355
72041W        W45109  44.016  33.082  13.523
72042W        W45110  20.194  20.708  14.408
72043W        W45111  34.494  23.199  11.603
72044W        W45112  30.178  13.398  13.826
72045W        W45113  16.593  29.007  11.504
72046W        W45114  34.585  21.169  13.875
72047W        W45115  25.964  22.309  12.853
72048W        W45116  14.299  14.247   2.906
72049W        W45117  38.574  22.560  10.602
72050W        W45118  39.448  38.920  12.006
72051W        W45119  38.412  16.752   2.438
72052W        W45120  21.750  44.497  12.341
72053W        W45121  28.339  27.434  13.038
72054W        W45122  16.579   8.385   0.924
72055W        W45123   6.019  34.055  10.550
72056W        W45124  36.300  18.806  14.450
72057W        W45125  14.559   5.917  13.608
72058W        W45126   8.501  23.852  13.003
72059W        W45127  41.480  40.767  14.873
72060W        W45128  13.333   0.520  12.841
72061W        W45129  22.273  36.108  12.851
72062W        W45130  36.870  25.017  11.917
72063W        W45131   1.506  35.370   2.310
72064W        W45132  16.531   5.279  11.988
72065W        W45133  21.038   2.997   3.163
72066W        W45134  13.770  40.469  13.767
72067W        W45135  22.721   3.199  13.449
72068W        W45136   2.540  34.463  13.315
72069W        W45137   2.372  12.860  11.215
72070W        W45138  40.791   6.625  13.709
72071W        W45139   9.420  21.045   1.204
72072W        W45140  13.272   4.251   2.338
72073W        W45141   6.550   8.377  10.504
72074W        W45142   8.799  17.826  11.673
72075W        W45143  32.789  14.196   0.860
72076W        W45144   8.840   6.723  14.065
72077W        W45145   8.306   0.018   4.120
72078W        W45146  15.162   8.954  14.472
72079W        W45147  34.306   0.326  12.900
72080W        W45148  25.474  35.117   2.169
72081W        W45149  13.779   4.763   1.305
72082W        W45150  21.141  29.560   3.290
72083W        W45151  13.342  23.730   4.630
72084W        W45152  42.607   8.386   4.696
72085W        W45153   1.296  20.765  12.425
72086W        W45154  19.007   0.732  11.989
72087W        W45155  33.301  43.446   4.293
72088W        W45156  37.042   3.166  14.274
72089W        W45157  37.434   7.458   4.087
72090W        W45158   6.358  12.798  10.059
72091W        W45159   5.270  31.946  13.939
72092W        W45160  30.417  39.973   4.552
72093W        W45161  26.463   1.701  14.481
72094W        W45162  27.959   7.806  10.712
72095W        W45163   2.466   7.712   0.959
72096W        W45164   5.258  44.013   0.439
72097W        W45165   4.189  32.539   4.628
72098W        W45166  20.266  27.147  10.662
72099W        W45167  15.256  31.566  14.460
72100W        W45168  40.294   6.247   2.249
72101W        W45169  11.291  39.515   3.428
72102W        W45170  42.545  20.008  13.125
72103W        W45171  28.535  44.888  11.382
72104W        W45172  18.773  13.257  14.756
72105W        W45173   9.404  43.246  13.366
72106W        W45174  29.435  16.898  11.548
72107W        W45175  26.494   3.327  12.627
72108W        W45176  26.946  27.624   2.675
72109W        W45177  16.650  14.419   5.189
72110W        W45178  23.827  27.601  11.089
72111W        W45179  15.139  31.629   2.301
72112W        W45180  27.774   5.790  11.845
72113W        W45181   9.366  32.552  10.704
72114W        W45182   1.393  35.772  13.173
72115W        W45183  37.981  16.804   1.762
72116W        W45184  36.841  25.208   4.253
72117W        W45185   1.434  17.782   4.820
72118W        W45186  21.550  10.678   1.144
72119W        W45187  39.823  41.460  12.632
72120W        W45188   0.229  26.711   2.848
72121W        W45189  15.043  31.896   4.093
72122W        W45190  18.093  11.725  12.546
72123W        W45191   3.666  27.582   0.785
72124W        W45192  17.702  36.411  14.492
72125W        W45193  25.101  23.127   2.212
72126W        W45194  28.329  14.314  11.913
72127W        W45195  22.682   2.308  11.039
72128W        W45196  39.627  10.700  12.028
72129W        W45197  25.636  31.636  11.640
72130W        W45198  32.425  43.182   0.133
72131W        W45199   3.683  39.587   4.327
72132W        W45200   1.745   7.948   0.798
72133W        W45201   9.874  25.748  14.585
72134W        W45202   3.840  18.776   2.630
72135W        W45203  21.693   3.927  13.545
72136W        W45204  44.513  22.229   1.970
72137W        W45205  30.953  37.508   1.820
72138W        W45206  44.357  29.745  12.126
72139W        W45207  14.801  32.643  11.455
72140W        W45208  22.688  20.585  12.089
72141W        W45209  20.545  23.477   1.620
72142W        W45210   7.346  40.607   2.425
72143W        W45211  26.590  10.443   3.701
72144W        W45212  11.201  33.146   2.174
72145W        W45213  17.570   1.541  14.575
72146W        W45214  34.924  22.486   0.466
72147W        W45215  29.087  29.001   0.808
72148W        W45216  37.304  12.404   0.911
72149W        W45217   4.426  22.789  11.085
72150W        W45218  33.674  42.587  14.318
72151W        W45219  12.788  24.747  12.385
72152W        W45220  18.664  18.840   2.787
72153W        W45221  22.913  26.286  14.390
72154W        W45222  34.692   2.670   3.698
72155W        W45223   3.390  13.731  14.641
72156W        W45224  34.517  17.166   4.859
72157W        W45225  11.845  32.050   0.194
72158W        W45226  23.441  30.560  13.310
72159W        W45227  13.725  15.328   0.277
72160W        W45228   9.679  17.411   4.259
72161W        W45229   3.359  16.942   1.047
72162W        W45230  32.874  44.507  13.780
72163W        W45231  43.519  42.779   4.023
72164W        W45232  37.665  14.107  12.022
72165W        W45233   4.273  12.132   2.332
72166W        W45234  37.018  20.036  14.952
72167W        W45235  32.636  21.219  10.951
72168W        W45236  40.081   0.227  14.338
72169W        W45237  31.395   3.085   5.043
72170W        W45238  41.511  35.794   1.246
72171W        W45239  10.141  34.410  14.314
72172W        W45240  15.740  41.583   4.127
72173W        W45241  16.773  31.899  12.047
72174W        W45242  36.956  43.048   5.013
72175W        W45243  11.787  25.522   0.912
72176W        W45244  24.553  33.288   3.285
72177W        W45245  36.175   7.517  14.915
72178W        W45246  26.270  26.114  11.120
72179W        W45247   4.219   9.166   4.124
72180W        W45248  18.916  10.192  12.909
72181W        W45249  11.576  32.924   3.519
72182W        W45250  33.967   5.859   1.132
72183W        W45251  24.114  15.971   1.231
72184W        W45252  25.682  30.040  14.336
72185W        W45253  14.001  24.902   2.440
72186W        W45254  26.385  32.073   2.433
72187W        W45255   3.227  23.634   5.023
72188W        W45256  12.781  32.812   0.534
72189W        W45257  15.694  30.035  12.926
72190W        W45258   2.012  22.032  12.289
72191W        W45259  33.824   2.367  13.013
72192W        W45260  17.658  22.536  14.059
72193W        W45261  18.985  32.875  11.562
72194W        W45262  13.002  38.066   0.529
72195W        W45263  16.520  15.332   3.782
72196W        W45264  30.661  15.829  11.170
72197W        W45265  27.733  21.130   3.706
72198W        W45266  24.478  43.155  12.486
72199W        W45267   9.846  22.215  13.035
72200W        W45268  40.883  23.287  13.076
72201W        W45269  29.736   6.841   1.262
72202W        W45270  13.341  22.130   0.911
72203W        W45271   2.712  25.979  12.809
72204W        W45272  34.732  34.194  11.554
72205W        W45273  14.142   9.767  14.692
72206W        W45274   4.294  12.678   3.832
72207W        W45275  22.229   1.219  12.525
72208W        W45276  29.175  43.282  14.826
72209W        W45277  19.710  39.004  10.351
72210W        W45278  15.745  43.796  13.315
72211W        W45279  42.016   7.125   4.152
72212W        W45280   8.515  35.641   2.050
72213W        W45281  35.110   5.358   2.303
72214W        W45282  28.681  40.536  12.946
72215W        W45283  16.281  30.875   4.228
72216W        W45284  29.676  21.662   0.897
72217W        W45285  35.117  15.840   4.495
72218W        W45286  22.548  21.012  11.827
72219W        W45287  43.913   6.652   4.236
72220W        W45288  13.739   6.022  11.130
72221W        W45289  44.711   0.727  10.642
72222W        W45290  31.574   9.750   0.785
72223W        W45291  12.668  19.936  13.781
72224W        W45292  16.274  13.732  12.600
72225W        W45293  13.706   5.812  13.297
72226W        W45294  39.041  42.756  13.829
72227W        W45295  21.253  41.402   4.174
72228W        W45296  44.419  18.975  13.511
72229W        W45297  39.930  42.161  11.177
72230W        W45298  31.849  18.105  12.634
72231W        W45299  12.330  13.159  14.838
72232W        W45300  26.357  15.690  12.437
72233W        W45301  26.887  38.800   4.210
72234W        W45302  25.476   0.323   1.214
72235W        W45303  43.695   2.802   4.435
72236W        W45304  15.335  30.442   0.377
72237W        W45305  30.354  31.482  11.139
72238W        W45306  24.612  14.310  11.092
72239W        W45307  24.259  44.924   2.409
72240W        W45308  30.705  35.686  11.033
72241W        W45309  44.939   2.258   2.681
72242W        W45310   6.845   8.188  13.142
72243W        W45311   9.856  11.619   1.141
72244W        W45312  36.947  15.840   1.660
72245W        W45313  25.999  38.588   0.978
72246W        W45314  19.714  11.636   4.155
72247W        W45315   1.268  23.570  13.432
72248W        W45316  20.787  10.198   4.409
72249W        W45317   4.988   2.793   3.240
72250W        W45318  32.594  44.375  12.633
72251W        W45319  22.269  25.085  11.179
72252W        W45320  15.633  44.517  14.990
72253W        W45321  40.817   9.769   4.919
72254W        W45322  39.112  26.051   2.896
72255W        W45323  17.588  28.251   1.948
72256W        W45324  38.752  43.580  14.366
72257W        W45325  28.161  13.242   3.116
72258W        W45326  27.708  35.931   0.021
72259W        W45327  41.451  13.696   1.373
72260W        W45328  41.493  35.448   2.730
72261W        W45329  36.023  33.900  10.246
72262W        W45330  39.588  18.646   0.284
72263W        W45331  28.465  34.336   0.886
72264W        W45332  11.357  44.451   4.197
72265W        W45333  37.776  12.750   4.608
72266W        W45334  19.230   9.707   4.653
72267W        W45335  11.211   1.368  13.799
72268W        W45336  43.342   7.364   1.125
72269W        W45337  27.046  10.376  13.422
72270W        W45338  22.744  34.588  11.576
72271W        W45339  14.160   3.420   1.481
72272W        W45340  29.757  32.925   0.272
72273W        W45341   6.706  40.255   1.884
72274W        W45342  42.442  22.677   0.074
72275W        W45343  29.014  22.635  13.894
72276W        W45344  28.384  27.929   0.414
72277W        W45345  44.526  26.074   0.900
72278W        W45346  28.949   5.750  14.850
72279W        W45347  39.375  40.566  14.213
72280W        W45348   3.438  32.983   3.187
72281W        W45349   6.858   6.507   2.746
72282W        W45350   3.845  14.452  11.197
72283W        W45351   3.858  31.900   2.308
72284W        W45352   0.156  21.542  13.374
72285W        W45353  41.404  16.737  13.024
72286W        W45354  44.681  11.131   4.197
72287W        W45355  14.619  43.529  10.694
72288W        W45356  12.267   4.716  12.968
72289W        W45357  40.833  22.643   0.675
72290W        W45358   0.252  44.012  12.991
72291W        W45359  37.743  38.107   0.388
72292W        W45360   2.242  16.703  13.868
72293W        W45361   7.347  26.182   4.236
72294W        W45362  20.192  12.225   4.511
72295W        W45363  23.997  33.832   0.713
72296W        W45364  13.748   5.427   3.366
72297W        W45365  15.819  44.290   1.426
72298W        W45366   2.754  28.954   2.411
72299W        W45367  23.211  24.127   0.371
72300W        W45368  39.736  43.908  11.096
72301W        W45369   0.006  24.181   2.457
72302W        W45370  14.117  37.498   2.832
72303W        W45371  42.552  15.243   1.888
72304W        W45372  29.108   2.467  11.657
72305W        W45373  11.154  32.331   3.609
72306W        W45374  27.730  41.820   4.130
72307W        W45375   7.262  36.946   4.214
72308W        W45376  12.032  33.985  10.396
72309ION    NA+45377  18.483   6.202  11.136
72310ION    NA+45378  11.417   4.078  14.270
72311ION    NA+45379  10.811  39.760   2.525
72312ION    NA+45380  44.486   6.647   4.651
72313ION    NA+45381   6.571   4.116  12.066
72314ION    NA+45382  41.344  42.996  13.676
72315ION    NA+45383  35.812  17.976  13.298
72316ION    NA+45384  14.260  39.600   2.675
72317ION    NA+45385   6.931  33.384   4.359
72318ION    NA+45386  44.789  15.670  14.744
72319ION    NA+45387  44.053  17.112  14.503
72320ION    NA+45388  33.067   6.712  14.488
72321ION    NA+45389  42.964   6.599  12.933
72322ION    NA+45390  33.336  43.349  14.886
72323ION    NA+45391  25.575  26.426   3.732
72324ION    NA+45392  37.838  36.871   0.992
72325ION    NA+45393   8.284  16.981  10.194
72326ION    NA+45394  34.299  22.215   1.221
72327ION    NA+45395  14.739  42.013   1.779
72328ION    NA+45396  17.057  17.526   3.295
72329ION    NA+45397   5.001  19.259   2.299
72330ION    NA+45398  36.612  42.295   0.258
72331ION    NA+45399  36.262   9.768  10.914
72332ION    NA+45400   8.236  16.273   0.692
72333ION    NA+45401   7.652  27.105   4.547
72334ION    NA+45402   7.143  24.110   2.263
72335ION    NA+45403   5.476   0.119   3.079
72336ION    NA+45404  43.938   3.273   2.619
72337ION    NA+45405  39.341  12.480  13.231
72338ION    NA+45406  25.462  35.030  10.685
72339ION    NA+45407  43.321  10.145  11.120
72340ION    NA+45408  22.030  34.439  11.945
72341ION    NA+45409  36.336  36.506  12.266
72342ION    NA+45410  13.199  36.902  10.715
72343ION    NA+45411  39.505  37.536  11.393
72344ION    NA+45412   5.023  35.546  13.607
72345ION    NA+45413  27.099   9.201   5.695
72346ION    NA+45414  40.187  35.816  11.494
72347ION    NA+45415  43.256  12.580  11.957
72348ION    NA+45416  44.096  30.497   0.870
72349ION    NA+45417  17.145  29.145  12.128
72350ION    NA+45418  36.509   3.806  10.199
72351ION    NA+45419   7.954   0.677  13.573
72352ION    NA+45420  35.105  26.569  13.837
72353ION    NA+45421  33.323  42.027   2.908
72354ION    NA+45422  24.104   4.232   0.881
72355ION    NA+45423  37.476  30.194   4.669
72356ION    NA+45424  35.608  39.010   4.694
72357ION    NA+45425  44.317  14.124  12.874
72358ION    NA+45426  25.204  13.568   2.275
72359ION    NA+45427  26.336   2.391   2.858
72360ION    NA+45428  25.940  19.075   2.001
72361ION    NA+45429  34.372  15.514   1.411
72362ION    NA+45430  20.581   2.919   3.396
72363ION    NA+45431  43.005  26.894   2.701
72364ION    NA+45432   9.625  31.136  11.884
72365ION    NA+45433  25.277  44.048   4.689
72366ION    NA+45434  12.657  36.128   3.913
72367ION    NA+45435  13.153   0.987   5.299
72368ION    NA+45436  21.728  35.341  12.413
72369ION    NA+45437   3.645  31.745  12.885
72370ION    NA+45438  27.337  26.479   4.956
72371ION    NA+45439  29.246  10.391  11.365
72372ION    NA+45440  24.717  11.836  12.510
72373ION    NA+45441  17.086  12.601   4.794
72374ION    NA+45442  24.092  42.107  12.098
72375ION    NA+45443  42.603  35.329   3.183
72376ION    NA+45444  18.043  13.007   2.154
72377ION    NA+45445  31.460  29.141   4.012
72378ION    NA+45446  17.490  13.351  11.128
72379ION    NA+45447   9.628  29.090  14.853
72380ION    NA+45448   4.945  21.993  14.102
72381ION    NA+45449  32.837  36.322  12.086
72382ION    NA+45450  35.539  30.651  13.470
72383ION    NA+45451  11.357  15.844  12.141
72384ION    NA+45452  13.484  10.046  12.479
72385ION    NA+45453  38.543  31.143  13.439
72386ION    NA+45454  11.801  14.145  14.864
72387ION    NA+45455  39.462  39.006  13.876
72388ION    NA+45456   6.900   3.653  14.937
72389ION    NA+45457  34.207  32.747  11.089
72390ION    NA+45458  15.342  44.514   1.384
72391ION    NA+45459  10.369   7.867   4.045
72392ION    NA+45460  24.250  36.092   3.036
72393ION    NA+45461  25.120  25.164   1.783
72394ION    NA+45462  13.779  40.379  13.231
72395ION    NA+45463  29.874  15.828  12.057
72396ION    NA+45464  30.460  14.115   3.584
72397ION    NA+45465  11.604  19.008   1.155
72398ION    NA+45466  43.796  10.380  13.156
72399ION    NA+45467  22.939  12.729  13.502
72400ION    NA+45468  30.550  44.550   1.699
72401ION    NA+45469  19.979  33.168  12.088
72402ION    NA+45470  33.867  12.636   1.826
72403ION    NA+45471   0.891  20.809  12.129
72404ION    NA+45472  40.073  30.637   3.648
72405ION    NA+45473  30.655   9.025  12.754
72406ION    NA+45474  43.710  43.259   4.120
72407ION    NA+45475  31.626  34.265   2.485
72408ION    NA+45476  39.848   8.724   4.541
72409ION    NA+45477  34.861  25.378  13.433
72410ION    NA+45478  26.691  20.197  12.098
72411ION    NA+45479  26.687  34.194  14.759
72412ION    NA+45480  12.417  18.718   1.661
72413ION    NA+45481  34.736   0.701   0.102
72414ION    NA+45482   5.481  23.542  13.733
72415ION    NA+45483  22.636  20.068  11.989
72416ION    NA+45484   0.401  36.680   3.677
72417ION    NA+45485   3.311  16.386  11.498
72418ION    NA+45486   1.025  39.132  12.057
72419ION    NA+45487  18.502   0.712   0.882
72420ION    NA+45488  29.413  23.743   4.607
72421ION    NA+45489  31.637  15.451   9.724
72422ION    NA+45490  43.548  40.749   1.013
72423ION    NA+45491  16.645  32.010  13.826
72424ION    NA+45492  43.853  10.399   5.065
72425ION    NA+45493  36.605  37.603  13.640
72426ION    NA+45494  25.695  14.227   1.574
72427ION    NA+45495  17.697   0.959   1.237
72428ION    NA+45496  13.657   4.841  10.889
72429ION    NA+45497  10.206  40.797  13.959
72430ION    NA+45498  26.127   4.521  14.786
72431ION    NA+45499  18.707   9.823   0.888
72432ION    NA+45500   7.379  36.757  11.989
72433ION    NA+45501  36.618  23.727  12.788
72434ION    NA+45502  10.422  43.943   9.899
72435ION    NA+45503  37.883  19.713  11.747
72436ION    NA+45504  15.949  23.589   3.653
72437ION    NA+45505  10.260  10.171  12.981
72438ION    NA+45506  25.273  26.639   9.804
72439ION    NA+45507   0.556  26.913   4.056
72440ION    NA+45508   4.714  26.377  12.538
72441ION    NA+45509   5.991  26.037   0.016
72442ION    NA+45510  42.618   0.401   3.667
72443ION    NA+45511  43.429  14.511   2.613
72444ION    NA+45512  32.231  17.505  11.504
72445ION    NA+45513  19.515  28.130  14.565
72446ION    NA+45514  43.570  14.910  13.783
72447ION    NA+45515  43.454   4.904  14.958
72448ION    NA+45516  28.258  22.353  14.693
72449ION    NA+45517  29.002  26.752   0.219
72450ION    NA+45518  26.914  16.125   1.940
72451ION    NA+45519  32.885   3.472  12.367
72452ION    NA+45520  17.138  36.843  14.413
72453ION    NA+45521  15.943  32.604   4.621
72454ION    NA+45522  36.793  33.250  14.481
72455ION    NA+45523  37.853  41.776  13.971
72456ION    NA+45524   8.166  40.106  10.508
72457ION    NA+45525  36.017   7.526   0.388
72458ION    NA+45526   7.960  33.060  10.375
72459ION    NA+45527   5.505   2.770   3.117
72460ION    NA+45528   1.819  39.839   0.911
72461ION    NA+45529   6.678  29.897   4.669
72462ION    NA+45530  18.261  26.564  11.091
72463ION    NA+45531  11.458  15.744   3.044
72464ION    NA+45532  35.802   1.452   2.938
72465ION    NA+45533  37.843  44.543   3.317
72466ION    NA+45534  14.310   7.436   3.900
72467ION    NA+45535   3.016  15.454   1.593
72468ION    NA+45536   6.881  16.355  14.471
72469ION    NA+45537  13.427  29.647   2.551
72470ION    NA+45538  17.863  34.567   0.822
72471ION    NA+45539  20.880  13.714   1.290
72472ION    NA+45540  22.608  37.737   0.463
72473ION    NA+45541   6.100  26.364  10.825
72474ION    NA+45542   6.843   4.970  10.833
72475ION    NA+45543  44.408  16.204  11.962
72476ION    NA+45544  27.407  27.390  14.811
72477ION    NA+45545  37.879   0.767   0.030
72478ION    NA+45546   0.041  26.469   0.064
72479ION    NA+45547  41.740   7.218  11.529
72480ION    NA+45548  12.067  11.143   0.147
72481ION    NA+45549  40.657  34.119  12.237
72482ION    NA+45550  35.388   5.040  14.330
72483ION    NA+45551   1.676   2.955  13.336
72484ION    NA+45552   0.849  34.385   2.120
72485ION    NA+45553  19.506  23.130  12.283
72486ION    NA+45554  15.860  33.086   3.288
72487ION    NA+45555   3.415   5.060  14.758
72488ION    NA+45556  15.701  21.619  13.795
72489ION    NA+45557  41.089   8.209   1.362
72490ION    NA+45558   5.664  29.035  12.499
72491ION    NA+45559  36.713  12.157  12.777
72492ION    NA+45560  33.597  44.458   1.254
72493ION    NA+45561  30.262   1.376   2.317
72494ION    NA+45562  40.762  36.545   3.326
72495ION    NA+45563  25.594  18.446   0.238
72496ION    NA+45564  10.825  25.283  12.991
72497ION    NA+45565  37.668   7.945  13.962
72498ION    NA+45566  11.383  27.481   9.804
72499ION    NA+45567  21.151  28.499  13.948
72500ION    NA+45568  24.053  35.079   1.443
72501ION    NA+45569  16.998  22.613  11.252
72502ION    NA+45570  27.684  15.951   2.553
72503ION    NA+45571  14.305  41.090   3.845
72504ION    NA+45572  13.033  42.387  12.489
72505ION    NA+45573  16.389  39.614   1.709
72506ION    NA+45574  41.758  23.502   0.841
72507ION    NA+45575   3.727  36.661   3.717
72508ION    NA+45576  10.034  27.793  10.982
72509ION    NA+45577  38.095  32.219  13.423
72510ION    NA+45578  18.492  18.607   3.295
72511ION    NA+45579  41.552  24.264  10.712
72512ION    NA+45580   5.372  18.798  13.281
72513ION    NA+45581  35.420  16.752  13.122
72514ION    NA+45582  17.966   9.387   3.571
72515ION    NA+45583  44.387  20.460   3.038
72516ION    NA+45584  25.714   7.570  12.624
72517ION    NA+45585  21.983  12.578   3.754
72518ION    NA+45586  36.755  16.657  14.690
72519ION    NA+45587  38.811  36.936   1.367
72520ION    NA+45588  20.026  37.535  13.541
72521ION    NA+45589  42.517  38.298   1.350
72522ION    NA+45590  21.565  37.988  12.876
72523ION    NA+45591  14.847  40.537   2.144
72524ION    NA+45592  11.618   9.367   2.827
72525ION    NA+45593   6.077   3.943   1.452
72526ION    NA+45594  41.778   8.376   0.070
72527ION    NA+45595  26.671   6.421  14.868
72528ION    NA+45596  14.088  25.076  14.076
72529ION    NA+45597   7.931   7.417   2.852
72530ION    NA+45598  42.332   4.827  11.309
72531ION    NA+45599  30.894  36.978  10.604
72532ION    NA+45600   2.929  33.897   3.464
72533ION    NA+45601   7.481  24.930   2.450
72534ION    NA+45602   9.102  33.208  14.407
72535ION    NA+45603  21.590  13.039   2.958
72536ION    NA+45604  27.436  33.179   1.507
72537ION    NA+45605  31.321   9.261   4.467
72538ION    NA+45606  27.388   3.309   1.308
72539ION    NA+45607   9.312   9.793   3.962
72540ION    NA+45608   2.331  20.447   5.077
72541ION    NA+45609  38.052  31.618  10.725
72542ION    NA+45610   2.803  32.455  13.899
72543ION    NA+45611  23.885  15.062   3.690
72544ION    NA+45612  42.483   3.402  14.173
72545ION    NA+45613  14.340   1.192  11.527
72546ION    NA+45614  22.286  13.365   1.249
72547ION    NA+45615  26.633  37.805  10.842
72548ION    NA+45616  19.544  13.866   1.342
72549ION    NA+45617  15.031   9.857  12.078
72550ION    NA+45618  44.281  23.356  10.073
72551ION    NA+45619  12.331  35.264  11.856
72552ION    NA+45620  12.098  21.612  11.413
72553ION    NA+45621  14.904  34.649   1.449
72554ION    NA+45622  21.234   2.380  12.023
72555ION    NA+45623  39.043   2.491   1.353
72556ION    NA+45624   2.952  30.273  11.748
72557ION    NA+45625  23.998   2.617  12.461
72558ION    NA+45626   0.778  32.669  13.044
72559ION    NA+45627   4.055  37.960  11.994
72560ION    NA+45628   4.517  25.961   2.394
72561ION    NA+45629  35.899  38.642  10.922
72562ION    NA+45630  41.880  22.030  11.607
72563ION    NA+45631  26.042  10.587  14.662
72564ION    NA+45632   9.731  28.111   0.227
72565ION    NA+45633  14.463  28.958   2.228
72566ION    NA+45634  43.318  10.116   1.769
72567ION    NA+45635  14.055  33.119  13.205
72568ION    NA+45636  13.436   5.044  11.688
72569ION    NA+45637  39.139  23.086  11.272
72570ION    NA+45638   6.630  27.299   1.903
72571ION    NA+45639  24.727  18.606   0.249
72572ION    NA+45640   8.891   4.950   1.282
72573ION    NA+45641  15.866  36.527  13.880
72574ION    NA+45642  11.336  21.823   2.957
72575ION    NA+45643  43.519  28.482   0.265
72576ION    NA+45644  23.977  19.615   9.944
72577ION    NA+45645  16.785  12.220   2.442
72578ION    NA+45646   1.978  12.640  11.524
72579ION    NA+45647  37.015  21.004   3.891
72580ION    NA+45648  27.935   9.285   2.969
72581ION    NA+45649  10.579  19.544   0.386
72582ION    NA+45650  36.568   4.470   2.652
72583ION    NA+45651  38.520  39.598   3.096
72584ION    NA+45652  37.025  38.468   4.615
72585ION    NA+45653  39.835  33.090   2.233
72586ION    NA+45654  43.026  28.244   2.212
72587ION    NA+45655  27.126   4.448   3.273
72588ION    NA+45656  39.962  27.950   1.388
72589ION    NA+45657  22.241   7.183   4.105
72590ION    NA+45658  34.242  21.037   2.480
72591ION    NA+45659  32.702   1.461  14.106
72592ION    NA+45660  11.730  25.001   2.893
72593ION    NA+45661   4.839  40.098   4.746
72594ION    NA+45662  16.291  44.126   4.140
72595ION    NA+45663  40.096   1.833  12.388
72596ION    NA+45664  38.310  32.892  12.878
72597ION    NA+45665  35.430  42.247  11.716
72598ION    NA+45666  38.239   1.911   1.486
72599ION    NA+45667   4.842  15.884   2.150
72600ION    NA+45668   7.701   6.402   2.671
72601ION    NA+45669  12.711   3.718   2.769
72602ION    NA+45670  14.473   7.630   5.060
72603ION    NA+45671   6.781  11.630   2.749
72604ION    NA+45672  41.907   6.674   0.144
72605ION    NA+45673   1.344   8.769   3.122
72606ION    NA+45674  23.239   8.568   4.192
72607ION    NA+45675  29.020  29.490   9.719
72608ION    NA+45676  15.105   0.973  13.394
72609ION    NA+45677  39.355  37.905   0.327
72610ION    NA+45678  43.943   7.396   2.156
72611ION    NA+45679  44.734  24.261  14.069
72612ION    NA+45680  12.803  36.850   0.186
72613ION    NA+45681  16.345  34.784  14.943
72614ION    NA+45682   0.190  26.952   1.252
72615ION    NA+45683  24.687  36.812   0.848
72616ION    NA+45684  29.691  33.134   2.280
72617ION    NA+45685  38.124   8.802   2.742
72618ION    NA+45686  10.093  34.753   1.599
72619ION    NA+45687  15.571   6.773   2.668
72620ION    NA+45688  27.185  16.644  12.374
72621ION    NA+45689  28.867  37.881   4.487
72622ION    NA+45690  40.855  32.147   4.443
72623ION    NA+45691  38.180  37.108   3.519
72624ION    NA+45692  42.757  17.135  12.098
72625ION    NA+45693   9.849  21.562  12.585
72626ION    NA+45694  24.752  15.770  14.200
72627ION    NA+45695  18.950   6.172   1.983
72628ION    NA+45696  27.717  30.490  11.992
72629ION    NA+45697  12.094  19.919  12.502
72630ION    NA+45698  27.262  11.428  14.182
72631ION    NA+45699  44.253   2.104   3.744
72632ION    NA+45700  22.231  21.536   2.533
72633ION    NA+45701  13.083  30.734   0.608
72634ION    NA+45702  19.267  43.760  14.320
72635ION    NA+45703  22.052  15.360  12.983
72636ION    NA+45704  28.542  14.648   2.390
72637ION    NA+45705  11.445   5.611   2.790
72638ION    NA+45706  11.735  25.210  11.573
72639ION    NA+45707  21.380   5.332  12.919
72640ION    NA+45708  22.537   0.965  12.878
72641ION    NA+45709   6.913  38.514   3.127
72642ION    NA+45710  25.874  28.752   3.240
72643ION    NA+45711  23.869  16.832   5.430
72644ION    NA+45712  23.318  26.505   2.442
72645ION    NA+45713  18.160  23.876   4.402
72646ION    NA+45714  27.962  34.943   1.799
72647ION    NA+45715   2.517  21.797   1.451
72648ION    NA+45716  28.477  26.223  10.780
72649ION    NA+45717   9.197  21.603   4.101
72650ION    NA+45718  24.438  42.051   1.194
72651ION    NA+45719  23.465  38.556   1.180
72652ION    NA+45720  14.601  23.666  12.138
72653ION    NA+45721  16.019  24.222  10.883
72654ION    NA+45722  32.245  14.856  12.083
72655ION    NA+45723  29.202  19.303   1.486
72656ION    NA+45724  18.984   7.809  11.523
72657ION    NA+45725  17.614  22.308  12.012
72658ION    NA+45726  21.444  15.269   1.422
72659ION    NA+45727   7.409  42.878   4.189
72660ION    NA+45728  21.036  28.686  12.971
72661ION    NA+45729  30.448  19.853   2.797
72662ION    NA+45730  24.974  19.620   0.480
72663ION    NA+45731   0.239  36.681   0.906
72664ION    NA+45732  26.114  41.090  11.304
72665ION    NA+45733  32.724  31.081  13.957
72666ION    NA+45734   0.794   6.954  12.050
72667ION    NA+45735  35.439  11.628  14.283
72668ION    NA+45736  19.326   7.288  14.753
72669ION    NA+45737  19.630  26.320   2.875
72670ION    NA+45738  28.585  15.178  10.599
72671ION    NA+45739  34.914  34.984   2.802
72672ION    NA+45740  34.357  32.571  13.056
72673ION    NA+45741   2.977  28.197   2.787
72674ION    NA+45742  12.402  33.859   3.911
72675ION    NA+45743  24.863  40.334   3.272
72676ION    NA+45744  17.711  39.807  12.638
72677ION    NA+45745  30.509  20.160   1.199
72678ION    NA+45746  14.829  38.909  13.991
72679ION    NA+45747  30.048  32.569  11.204
72680ION    NA+45748  34.136  30.517   3.236
72681ION    NA+45749  32.665  44.353   1.553
72682ION    NA+45750  34.262   0.785  13.763
72683ION    NA+45751   4.673  19.053   3.852
72684ION    NA+45752  28.721  34.602   2.832
72685ION    NA+45753  15.140  10.607   1.442
72686ION    NA+45754  43.351  43.000  12.183
72687ION    NA+45755  16.246   5.459  11.567
72688ION    NA+45756  40.742   0.816  13.950
72689ION    NA+45757  19.091  36.848  13.611
72690ION    NA+45758  30.091  24.715   4.491
72691ION    NA+45759  23.487  41.520   4.589
72692ION    NA+45760   0.212  11.112   4.205
72693ION    NA+45761  43.099  13.014   4.780
72694ION    NA+45762   6.869  38.585   1.407
72695ION    NA+45763   7.798   8.387   4.264
72696ION    NA+45764   9.797  27.843   1.243
72697ION    NA+45765  40.497   0.715  10.666
72698ION    NA+45766  20.444   5.193  13.248
72699ION    NA+45767  20.037  27.545  12.411
72700ION    NA+45768  11.051  23.092  14.454
72701ION    NA+45769  18.700  12.417  11.653
72702ION    NA+45770  21.727   4.744  11.077
72703ION    NA+45771  16.283  34.030   0.385
72704ION    NA+45772  21.722  13.086  10.663
72705ION    NA+45773   8.149  39.939   2.301
72706ION    NA+45774  16.047  33.026  13.599
72707ION    NA+45775  24.585  20.206  12.635
72708ION    NA+45776   6.733  39.027  12.294
72709ION    NA+45777  38.072  34.691  10.653
72710ION    NA+45778  42.326   2.448   4.312
72711ION    NA+45779  30.936  17.074   0.351
72712ION    NA+45780   2.374   8.737  12.143
72713ION    NA+45781  40.198   5.749  12.465
72714ION    NA+45782   1.742  17.274  13.996
72715ION    NA+45783  12.658   2.714   3.211
72716ION    NA+45784  42.255  36.068   0.808
72717ION    NA+45785  43.718  25.614  11.144
72718ION    NA+45786  41.935   4.030  11.779
72719ION    NA+45787   4.255  21.077  11.638
72720ION    NA+45788   6.591  23.438   4.544
72721ION    NA+45789  25.927  25.059   0.482
72722ION    NA+45790  12.187  41.495  12.754
72723ION    NA+45791  26.978  39.050   1.777
72724ION    NA+45792   8.770  33.083   3.676
72725ION    NA+45793  12.268  29.712   4.937
72726ION    NA+45794  37.533  36.926   1.948
72727ION    NA+45795  33.215  25.338   4.910
72728ION    NA+45796  38.999  36.990  12.377
72729ION    NA+45797  28.028  39.661  13.873
72730ION    NA+45798   1.273  11.110  10.781
72731ION    NA+45799  34.097   7.279   1.201
72732ION    NA+45800   5.406  25.783   2.493
72733ION    NA+45801  18.708  17.318  10.767
72734ION    NA+45802  17.869   6.237  11.658
72735ION    NA+45803   7.298  12.275  12.776
72736ION    NA+45804  36.652  30.947  12.880
72737ION    NA+45805  33.510  16.694   5.049
72738ION    NA+45806  38.768  32.977  10.877
72739ION    NA+45807  39.061  11.756   4.686
72740ION    NA+45808  42.044   5.085   1.289
72741ION    NA+45809  31.198  16.229   1.301
72742ION    NA+45810  20.533  31.478  13.858
72743ION    NA+45811  39.887  11.301  13.523
72744ION    NA+45812  11.404  15.384  11.255
72745ION    NA+45813   9.096  15.749   0.910
72746ION    NA+45814  27.552   7.015   3.237
72747ION    NA+45815   0.738   2.023   4.186
72748ION    NA+45816   7.410   5.177  13.677
72749ION    NA+45817  28.429  43.870  12.387
72750ION    NA+45818   4.852  42.809   4.147
72751ION    NA+45819  39.784  16.501  13.147
72752ION    NA+45820   8.897  25.079  14.508
72753ION    NA+45821   1.798   5.376  13.476
72754ION    NA+45822  37.432  27.825  12.310
72755ION    NA+45823  39.035   7.051   1.768
72756ION    NA+45824   2.549  29.500  10.697
72757ION    NA+45825  19.168   5.662  13.778
72758ION    NA+45826  37.810   5.368   2.170
72759ION    NA+45827  17.089  33.597  13.047
72760ION    NA+45828  15.298   0.036   0.740
72761ION    NA+45829  14.098  10.740   2.299
72762ION    NA+45830  39.498  15.218   0.228
72763ION    NA+45831  16.087  26.119  12.743
72764ION    NA+45832  33.109  17.610   1.301
72765ION    NA+45833  37.781  34.860   2.227
72766ION    NA+45834  44.600  13.001   4.055
72767ION    NA+45835  15.472  26.796   0.200
72768ION    NA+45836  19.213  22.255  11.069
72769ION    NA+45837  14.342  30.847  11.502
72770ION    NA+45838   3.139   6.735  13.402
72771ION    NA+45839  41.057  29.299   2.990
72772ION    NA+45840  36.784  21.522  14.315
72773ION    NA+45841  18.519  15.874  12.676
72774ION    NA+45842  32.252  32.845  11.136
72775ION    NA+45843  13.026  13.100   0.310
72776ION    NA+45844   8.488  28.660   4.645
72777ION    NA+45845  14.842  19.384   2.283
72778ION    NA+45846  23.237   5.752  11.930
72779ION    NA+45847  10.685  21.643   2.165
72780ION    NA+45848  11.187   4.708  12.946
72781ION    NA+45849   2.792   6.025  14.677
72782ION    NA+45850   7.688  34.932   0.230
72783ION    NA+45851  22.497  41.555   4.002
72784ION    NA+45852  32.836  15.087   4.103
72785ION    NA+45853  16.779  22.117  14.934
72786ION    NA+45854  42.258  43.914  11.015
72787ION    NA+45855  27.208  19.751   1.900
72788ION    NA+45856   4.026  11.659   2.372
72789ION    NA+45857   2.423  36.434  13.644
72790ION    NA+45858  41.209  28.969   2.155
72791ION    NA+45859   8.418   4.149  14.043
72792ION    NA+45860  24.152  40.060  14.807
72793ION    NA+45861  15.798  17.065   2.426
72794ION    NA+45862  29.168  37.853  11.135
72795ION    NA+45863   8.645  29.573   1.948
72796ION    NA+45864  32.868  24.507  14.490
72797ION    NA+45865  16.671   3.850   4.052
72798ION    NA+45866  17.969   6.375  12.585
72799ION    NA+45867  22.953  16.159   3.020
72800ION    NA+45868   3.575  35.471  12.283
72801ION    NA+45869  11.570   6.290   1.988
72802ION    NA+45870   0.764  40.339   2.387
72803ION    NA+45871  21.725  14.025   2.857
72804ION    NA+45872   1.749   0.919  14.695
72805ION    NA+45873  10.483   7.994  12.976
72806ION    NA+45874  38.317   8.211   0.556
72807ION    NA+45875  42.298   8.954   2.933
72808ION    NA+45876  33.926  35.608  13.102
72809ION    NA+45877  18.950  36.232  10.347
72810ION    NA+45878   0.456  10.177   4.495
72811ION    NA+45879  40.870  24.535  11.391
72812ION    NA+45880  31.333   0.187  10.823
72813ION    NA+45881  11.972  24.034   2.192
72814ION    NA+45882  42.801  43.046   3.254
72815ION    NA+45883  18.472  25.194   1.979
72816ION    NA+45884  18.747   2.205   3.445
72817ION    NA+45885  35.155  21.687   4.001
72818ION    NA+45886  28.760  34.278  10.766
72819ION    NA+45887  31.675  36.999   3.004
72820ION    NA+45888  26.853   8.857  10.427
72821ION    NA+45889  29.059   6.475   3.289
72822ION    NA+45890  41.807  23.567  14.845
72823ION    NA+45891  13.089  18.541  11.344
72824ION    NA+45892  44.401  40.405   3.991
72825ION    NA+45893  29.075  36.200   4.481
72826ION    NA+45894  44.872  34.380  13.502
72827ION    NA+45895  16.153  19.141   3.551
72828ION    NA+45896  32.590  25.403   4.244
72829ION    NA+45897   1.076  29.535  13.401
72830ION    NA+45898  27.388  34.786  11.950
72831ION    NA+45899  36.833  16.413   2.685
72832ION    NA+45900   3.146  36.858   1.345
72833ION    NA+45901  15.730  18.759   3.868
72834ION    NA+45902  11.365  33.862   2.846
72835ION    NA+45903  17.861   5.746  10.938
72836ION    NA+45904  32.523  41.012  12.952
72837ION    NA+45905  10.776   7.896  11.217
72838ION    NA+45906  20.441  22.575   0.332
72839ION    NA+45907   3.777  27.902   3.000
72840ION    NA+45908  41.395   6.811  14.454
72841ION    NA+45909  37.641  11.480   1.910
72842ION    NA+45910  23.474  30.163   1.748
72843ION    NA+45911  39.039  16.793  12.364
72844ION    NA+45912  24.196  37.626   4.362
72845ION    NA+45913  21.143  20.132   1.329
72846ION    NA+45914  42.570   6.828  11.131
72847ION    NA+45915  39.992  16.283  12.193
72848ION    NA+45916  29.955  39.612   2.742
72849ION    NA+45917  20.741  10.385   1.746
72850ION    NA+45918  24.329  36.539  14.386
72851ION    NA+45919  17.210   0.731  13.220
72852ION    NA+45920  17.381  18.616  14.993
72853ION    NA+45921  44.509  32.182   4.508
72854ION    NA+45922  36.720  39.746  10.952
72855ION    NA+45923   4.227  27.727  13.308
72856ION    NA+45924   1.205  13.709   3.810
72857ION    NA+45925  38.264  14.690   2.814
72858ION    NA+45926  35.658  36.234   1.956
72859ION    NA+45927  21.080   4.829  14.569
72860ION    NA+45928   0.985  22.200  11.119
72861ION    NA+45929  26.021  36.875  13.936
72862ION    NA+45930   8.801  32.291   4.286
72863ION    NA+45931   8.534  11.741  14.049
72864ION    NA+45932  28.712  41.455  11.985
72865ION    NA+45933   4.190  40.882   2.012
72866ION    NA+45934  24.395  34.747   4.162
72867ION    NA+45935  13.793  37.265   2.148
72868ION    NA+45936   3.601  17.614   4.426
72869ION    NA+45937  16.174   9.757  12.581
72870ION    NA+45938  22.225  23.446  11.444
72871ION    NA+45939   2.136  27.416   0.078
72872ION    NA+45940  33.858  30.055  12.411
72873ION    NA+45941   1.909  16.034  14.489
72874ION    NA+45942  27.665  19.372  10.447
72875ION    NA+45943  12.806   8.614  13.978
72876ION    NA+45944   4.874  33.024  11.380
72877ION    NA+45945  15.651  30.496  13.174
72878ION    NA+45946  30.842  35.380   0.168
72879ION    NA+45947  14.410   4.850  11.648
72880ION    NA+45948  42.413  32.036   3.072
72881ION    NA+45949  31.371   6.999   4.255
72882ION    NA+45950   5.083  20.406  14.747
72883ION    NA+45951  25.567  43.317  13.434
72884ION    NA+45952   3.046  37.881  12.573
72885ION    NA+45953   5.743  30.629  13.856
72886ION    NA+45954  28.316   1.758   0.380
72887ION    NA+45955  14.123  18.829   2.704
72888ION    NA+45956   6.824  29.528  13.093
72889ION    NA+45957  35.182  29.716  13.779
72890ION    NA+45958  19.885  32.603   3.175
72891ION    NA+45959  30.524  44.310   3.724
72892ION    NA+45960  15.395  16.888   0.303
72893ION    NA+45961  12.386  34.975  13.351
72894ION    NA+45962  25.693   4.098   2.800
72895ION    NA+45963   3.391  41.977   1.487
72896ION    NA+45964  18.163  20.235  14.604
72897ION    NA+45965  15.763   4.654  10.392
72898ION    NA+45966  25.574   6.243   3.083
72899ION    NA+45967  27.630  40.907  14.739
72900ION    NA+45968  26.057  25.725  14.321
72901ION    NA+45969   4.518   9.009  13.081
72902ION    NA+45970  34.682  13.955  11.131
72903ION    NA+45971   5.954   4.498   4.055
72904ION    NA+45972  35.372   1.153   3.652
72905ION    NA+45973   8.671  35.613   0.942
72906ION    NA+45974   1.134  33.774   1.515
72907ION    NA+45975   8.877  33.042   1.197
72908ION    NA+45976  39.242  43.308   2.407
72909ION    NA+45977  29.007   4.743   2.027
72910ION    NA+45978  26.347  14.293  11.221
72911ION    NA+45979  39.545  25.952  13.117
72912ION    NA+45980  28.650  14.183  10.677
72913ION    NA+45981  24.821  22.727   2.404
72914ION    NA+45982  31.217   6.118   1.608
72915ION    NA+45983   3.535  28.479  14.834
72916ION    NA+45984  29.496   1.243   3.272
72917ION    NA+45985  18.577   1.700  11.553
72918ION    NA+45986  17.316   9.949   2.849
72919ION    NA+45987  15.878  26.891   4.588
72920ION    NA+45988  18.804   3.971  11.161
72921ION    NA+45989  27.579  12.390   1.756
72922ION    NA+45990  23.050  34.607  11.090
72923ION    NA+45991  29.777  21.265  13.961
72924ION    NA+45992  19.300  39.587   0.970
72925ION    NA+45993  10.168  28.789   4.343
72926ION    NA+45994   6.741   4.974   3.663
72927ION    NA+45995   4.481  40.181   1.342
72928ION    NA+45996  12.987  19.659  11.924
72929ION    NA+45997  36.329  31.410   4.213
72930ION    NA+45998  12.665  18.802  12.075
72931ION    NA+45999  40.885  41.585   1.264
72932ION    NA+46000  32.422  16.575  13.066
72933ION    NA+46001  32.793  10.314  11.318
72934ION    NA+46002   4.934   0.598   9.706
72935ION    NA+46003  41.009  14.183  11.584
72936ION    NA+46004  12.071  35.495   4.540
72937ION    NA+46005   9.043  33.396   2.760
72938ION    NA+46006  28.961   0.260  10.869
72939ION    NA+46007  36.772   7.938   0.733
72940ION    NA+46008  32.695   5.022   0.034
72941ION    NA+46009  18.034  18.613  12.404
72942ION    NA+46010  12.842  41.538  10.683
72943ION    NA+46011  20.908   0.344   3.705
72944ION    NA+46012  25.752  15.524  11.635
72945ION    NA+46013   6.264  37.950   1.886
72946ION    NA+46014  18.577  25.871  10.443
72947ION    NA+46015  10.074   2.089   3.169
72948ION    NA+46016   8.342  14.226   4.202
72949ION    NA+46017  18.066   5.840   3.632
72950ION    NA+46018  33.384  35.716  13.935
72951ION    NA+46019   7.944   4.252   2.251
72952ION    NA+46020   2.641  22.202   0.510
72953ION    NA+46021  16.975   0.420   4.177
72954ION    NA+46022  30.909  44.038   2.785
72955ION    NA+46023  13.826  43.369   0.391
72956ION    NA+46024  36.858   7.951  12.540
72957ION    NA+46025  11.882  42.175  10.769
72958ION    NA+46026  13.595  34.690   4.610
72959ION    NA+46027   7.929   6.531   0.426
72960ION    NA+46028   0.348   1.487  10.649
72961ION    NA+46029  18.107  12.762  14.281
72962ION    NA+46030  33.035  37.043   3.278
72963ION    NA+46031  40.345  37.518   2.333
72964ION    NA+46032  13.574  15.617  14.362
72965ION    NA+46033  38.820   5.831  10.679
72966ION    NA+46034  17.353   3.610   0.883
72967ION    NA+46035  31.405  29.081   3.126
72968ION    NA+46036  12.455  24.660   3.745
72969ION    NA+46037  22.312  43.839  14.026
72970ION    NA+46038   2.265  22.261   3.462
72971ION    NA+46039   5.255  13.217  14.967
72972ION    NA+46040  15.136   5.941  10.669
72973ION    NA+46041  23.489   4.819  12.526
72974ION    NA+46042  42.454  22.487  14.271
72975ION    NA+46043  13.592   0.374  12.426
72976ION    NA+46044  29.604  42.484  11.441
72977ION    NA+46045  23.979  16.364  14.425
72978ION    NA+46046  38.509   1.800   4.311
72979ION    NA+46047  18.558  15.267   1.915
72980ION    NA+46048  29.102  23.339   0.978
72981ION    NA+46049  27.344  10.313   0.343
72982ION    NA+46050   7.348  31.452   4.488
72983ION    NA+46051  41.995  15.516  12.824
72984ION    NA+46052  35.124  33.084  14.173
72985ION    NA+46053  20.181  43.815   9.929
72986ION    NA+46054   7.480  40.336   4.772
72987ION    NA+46055  34.088  19.771  12.609
72988ION    NA+46056  16.632  24.413   2.300
72989ION    NA+46057  31.972   3.912  11.082
72990ION    NA+46058  17.769  21.104   1.853
72991ION    NA+46059  29.733  27.172   0.881
72992ION    NA+46060  24.699  35.556   4.884
72993ION    NA+46061  39.409  17.394   4.614
72994ION    NA+46062  12.340  16.811  10.020
72995ION    NA+46063   2.933  40.005   3.853
72996ION    NA+46064  34.500  20.576   3.329
72997ION    NA+46065  22.596  36.408   1.414
72998ION    NA+46066  13.254   6.958  11.387
72999ION    NA+46067   5.716  14.716  14.739
73000ION    NA+46068  40.756  28.521  13.001
73001ION    NA+46069  13.875  16.762  13.852
73002ION    NA+46070   3.307  10.307   5.073
73003ION    NA+46071  16.591  11.863  11.965
73004ION    NA+46072  43.208  31.132  14.352
73005ION    NA+46073  33.947  40.103   0.959
73006ION    NA+46074  27.606  44.632   3.489
73007ION    NA+46075  23.725  35.698   2.444
73008ION    NA+46076  25.502   4.199   4.116
73009ION    NA+46077  23.534  10.245   2.922
73010ION    NA+46078  14.056  40.616  10.585
73011ION    NA+46079  31.921  41.498   3.570
73012ION    NA+46080  41.558  13.324  13.337
73013ION    NA+46081   2.123  20.967   1.846
73014ION    NA+46082  36.469  24.182   0.030
73015ION    NA+46083   3.077  33.687  13.129
73016ION    NA+46084  37.292  34.148  13.445
73017ION    NA+46085  30.280   5.272  10.899
73018ION    NA+46086   5.092   9.068  13.775
73019ION    NA+46087  16.575   5.316   4.347
73020ION    NA+46088  13.383  14.527  13.387
73021ION    NA+46089  12.917  14.765   3.102
73022ION    NA+46090  29.706  28.632  11.727
73023ION    NA+46091  40.189  41.014   1.366
73024ION    NA+46092   0.763  25.036   2.309
73025ION    NA+46093  30.227  36.366  13.480
73026ION    NA+46094  16.365  36.859   1.136
73027ION    NA+46095  33.652  34.107  14.677
73028ION    NA+46096   8.484  32.611  14.904
73029ION    NA+46097  30.316   2.495   4.986
73030ION    NA+46098  15.644  37.564  14.813
73031ION    NA+46099  23.527  34.929  14.513
73032ION    NA+46100   0.983  38.709   4.436
73033ION    NA+46101  24.407  33.580  14.416
73034ION    NA+46102  29.013  18.160   3.337
73035ION    NA+46103  31.986  27.496   2.805
73036ION    NA+46104  17.685  22.995  13.781
73037ION    NA+46105  37.697  25.069   1.288
73038ION    NA+46106  27.622  42.866   1.484
73039ION    NA+46107  22.879   9.958  14.456
73040ION    NA+46108  22.348   3.886   3.326
73041ION    NA+46109  10.853  35.389   1.799
73042ION    NA+46110  37.226  16.800   4.308
73043ION    NA+46111  41.088   2.100  11.510
73044ION    NA+46112   3.086  26.222   0.696
73045ION    NA+46113   4.920  29.686   4.681
73046ION    NA+46114  20.671  24.239  11.235
73047ION    NA+46115  13.441  30.513   9.983
73048ION    NA+46116   5.733   9.822   2.704
73049ION    NA+46117   9.621  35.870   1.898
73050ION    NA+46118   5.752  32.644  14.296
73051ION    NA+46119  33.740   1.589  14.048
73052ION    NA+46120  41.154   0.594  14.913
73053ION    NA+46121  31.032  41.743  13.121
73054ION    NA+46122  11.654  30.144   3.612
73055ION    NA+46123  42.715  11.613  13.611
73056ION    NA+46124  41.840  44.754  13.741
73057ION    NA+46125  24.623  35.953   3.954
73058ION    NA+46126  29.078  15.785  13.560
73059ION    NA+46127  18.231  21.229  14.480
73060ION    NA+46128   6.437  21.573   3.042
73061ION    NA+46129  26.107   7.014   2.403
73062ION    NA+46130  28.712  40.743  14.367
73063ION    NA+46131   0.765  38.041  12.080
73064ION    NA+46132  37.217  18.795   1.584
73065ION    NA+46133   6.487   7.884   1.759
73066ION    NA+46134   3.860  20.943  12.422
73067ION    NA+46135  43.728  25.543   0.167
73068ION    NA+46136  28.147  24.077   1.012
73069ION    NA+46137   4.536  29.405   2.626
73070ION    NA+46138  18.204  41.714   1.918
73071ION    NA+46139  27.425  19.767   0.017
73072ION    NA+46140  35.833  31.652  13.478
73073ION    NA+46141  44.341   0.435   1.727
73074ION    NA+46142  19.728   4.944   1.439
73075ION    NA+46143  30.583  19.841  14.263
73076ION    NA+46144  34.794  36.589  11.982
73077ION    NA+46145   2.223   3.063  10.947
73078ION    NA+46146  20.705  19.836  12.468
73079ION    NA+46147  15.318  26.014   3.349
73080ION    NA+46148  24.741   7.708   3.130
73081ION    NA+46149  19.294  29.860   2.518
73082ION    NA+46150   4.833  28.909  13.143
73083ION    NA+46151  14.179  14.377  12.398
73084ION    NA+46152  10.168   2.498   0.853
73085ION    NA+46153  11.571  31.400  13.697
73086ION    NA+46154  22.678  15.043   4.180
73087ION    NA+46155  28.862  38.027   3.456
73088ION    NA+46156   3.144   8.006  12.975
73089ION    NA+46157  29.966  41.238  10.690
73090ION    NA+46158  14.455  19.710   3.697
73091ION    NA+46159  27.031  21.780   3.156
73092ION    NA+46160  11.604  12.561   2.881
73093ION    NA+46161   5.292  19.938   3.117
73094ION    NA+46162   4.909   5.569   1.054
73095ION    NA+46163  38.128  16.454  14.948
73096ION    NA+46164  41.215  43.206  10.705
73097ION    NA+46165  15.645  17.664  13.393
73098ION    NA+46166   1.990  32.425   3.808
73099ION    NA+46167  29.393  44.721   0.699
73100ION    NA+46168   6.958   5.303  12.906
73101ION    NA+46169  37.751  22.630  14.474
73102ION    NA+46170  39.895   4.056   1.192
73103ION    NA+46171   0.871   5.937  13.949
73104ION    NA+46172  24.753  41.407   0.786
73105ION    NA+46173   1.851   1.200  12.447
73106ION    NA+46174  16.823  16.274   2.153
73107ION    NA+46175  40.467  38.808   3.261
73108ION    NA+46176  31.066  14.423   4.317
73109ION    NA+46177   7.498   3.474  14.274
73110ION    NA+46178   5.910  12.436  14.301
73111ION    NA+46179  40.548   3.224  13.274
73112ION    NA+46180  41.085  36.478   1.680
73113ION    NA+46181  20.227   1.078   4.989
73114ION    NA+46182   9.144   9.347  10.711
73115ION    NA+46183   4.938   9.462  12.295
73116ION    NA+46184  35.697  18.847  13.228
73117ION    NA+46185  38.274  37.445   4.805
73118ION    NA+46186  13.836  35.039  10.682
73119ION    NA+46187  35.026  17.170   9.796
73120ION    NA+46188  30.248  20.763   3.263
73121ION    NA+46189  39.209  35.010   2.134
73122ION    NA+46190  11.988  16.339  14.107
73123ION    NA+46191   8.911  14.074   0.130
73124ION    NA+46192  37.540  26.024  12.922
73125ION    NA+46193  11.206  36.926  12.796
73126ION    NA+46194  35.543  24.508  13.993
73127ION    NA+46195  40.529   5.803   5.614
73128ION    NA+46196  30.274  26.140   3.116
73129ION    NA+46197  18.906  14.747   2.821
73130ION    NA+46198  36.357  40.521  12.402
73131ION    NA+46199   7.363  32.475  12.578
73132ION    NA+46200  33.458   9.875   4.737
73133ION    NA+46201  18.124  37.919  13.937
73134ION    NA+46202  41.964  33.472   2.845
73135ION    NA+46203  30.100  24.593  11.531
73136ION    NA+46204   4.966  24.875  13.888
73137ION    NA+46205  34.891  34.582   4.696
73138ION    NA+46206  23.088  12.183   4.639
73139ION    NA+46207  41.397  38.796  12.653
73140ION    NA+46208  14.379   8.315   2.337
73141ION    NA+46209  30.374  11.103   2.929
73142ION    NA+46210  29.880  28.687   3.568
73143ION    NA+46211  10.391  10.773  10.237
73144ION    NA+46212  42.524  13.173  11.621
73145ION    NA+46213  37.374  15.986   0.117
73146ION    NA+46214  17.081  12.461  11.330
73147ION    NA+46215   2.387   7.804  14.501
73148ION    NA+46216   9.097  28.174  11.241
73149ION    NA+46217  12.484  22.503  11.653
73150ION    NA+46218  29.920  20.454  14.102
73151ION    NA+46219  14.672   6.272   1.907
73152ION    NA+46220  13.856  40.247  11.493
73153ION    NA+46221  36.354   9.547  14.263
73154ION    NA+46222  18.684   3.666  13.554
73155ION    NA+46223  44.196   2.901   4.356
73156ION    NA+46224  30.009   2.966  11.488
73157ION    NA+46225  44.069  11.866  12.995
73158ION    NA+46226   7.317  24.685   3.865
73159ION    NA+46227   5.525  40.041  10.899
73160ION    NA+46228  31.015   6.965  14.767
73161ION    NA+46229   7.387  14.286  11.548
73162ION    NA+46230  12.490  35.878   2.566
73163ION    NA+46231   4.422  12.728   0.227
73164ION    NA+46232  17.527   5.510   0.396
73165ION    NA+46233  36.744  18.245   0.278
73166ION    NA+46234   9.447  34.249   1.273
73167ION    NA+46235  34.719  35.212  13.566
73168ION    NA+46236  18.062  24.668  12.484
73169ION    NA+46237  25.723  44.345  12.603
73170ION    NA+46238  11.379  31.499   3.915
73171ION    NA+46239  29.895  33.245  12.041
73172ION    NA+46240  38.117  40.259   0.596
73173ION    NA+46241  16.115  16.978  12.561
73174ION    NA+46242  10.472  11.486   0.408
73175ION    NA+46243  42.151  19.715  11.947
73176ION    NA+46244  41.077   7.350   1.875
73177ION    NA+46245  29.937   1.816  14.864
73178ION    NA+46246   5.315  35.327  12.469
73179ION    NA+46247  14.857  41.623   3.112
73180ION    NA+46248  12.652  27.446   4.901
73181ION    NA+46249   8.389  36.989   2.301
73182ION    NA+46250  25.208  39.501   4.914
73183ION    NA+46251   5.512  19.328  11.106
73184ION    NA+46252  20.791   6.462  11.227
73185ION    NA+46253  19.545   7.567  10.731
73186ION    NA+46254  24.686   4.134  13.392
73187ION    NA+46255  31.503  25.933  12.521
73188ION    NA+46256  31.494  42.892  10.148
73189ION    NA+46257   6.825  30.934  10.688
73190ION    NA+46258  11.858  30.891  14.509
73191ION    NA+46259  27.711   4.226   0.387
73192ION    NA+46260  25.535  18.843   3.493
73193ION    NA+46261  37.189  41.202  13.254
73194ION    NA+46262  16.220  19.038   2.087
73195ION    NA+46263  34.050   4.699   0.112
73196ION    NA+46264  31.579  35.323  11.289
73197ION    NA+46265  39.367  41.895   0.261
73198ION    NA+46266  15.632  34.559   3.248
73199ION    NA+46267  25.996  33.872  13.924
73200ION    NA+46268  15.549   4.026  13.899
73201ION    NA+46269   1.976  15.287   2.993
73202ION    NA+46270   1.598  22.723   3.045
73203ION    NA+46271  28.920  31.937   2.559
73204ION    NA+46272  35.834  20.257   3.435
73205ION    NA+46273  10.268  30.849  10.305
73206ION    NA+46274   1.215  24.238   1.301
73207ION    NA+46275   8.930  21.987  10.929
73208ION    NA+46276  43.730  41.074   3.668
73209ION    NA+46277  14.800  15.303   2.170
73210ION    NA+46278  19.512  25.933  12.902
73211ION    NA+46279   9.423  13.466  11.106
73212ION    NA+46280   1.909   6.072  14.474
73213ION    NA+46281  40.544  43.867  14.626
73214ION    NA+46282  13.785  11.255   4.172
73215ION    NA+46283  20.173   8.345  10.760
73216ION    NA+46284  22.656   1.048   0.357
73217ION    NA+46285  20.361  32.429   0.535
73218ION    NA+46286   8.198   7.328  14.335
73219ION    NA+46287  32.979   5.286  12.072
73220ION    NA+46288   6.536   0.983  13.758
73221ION    NA+46289  37.646  14.798   4.571
73222ION    NA+46290   4.164  36.957  12.388
73223ION    NA+46291   3.809  36.065   0.178
73224ION    NA+46292  32.870  36.711   1.478
73225ION    NA+46293  25.586  22.184  14.026
73226ION    NA+46294  28.537   2.904  13.988
73227ION    NA+46295  38.082  33.683  14.542
73228ION    NA+46296  12.102  13.490   3.895
73229ION    NA+46297  31.113   3.112   3.343
73230ION    NA+46298  22.006   1.524  13.961
73231ION    NA+46299  15.808  25.498  14.774
73232ION    NA+46300   9.176  11.631  12.349
73233ION    NA+46301  41.417   6.097  14.877
73234ION    NA+46302  42.886   0.337   0.623
73235ION    NA+46303   9.336  20.085   0.270
73236ION    NA+46304  40.745   8.606  11.688
73237ION    NA+46305  43.745   7.419  14.364
73238ION    NA+46306  28.948  32.566   3.339
73239ION    NA+46307  13.396   3.384  11.744
73240ION    NA+46308  24.129  34.251   3.468
73241ION    NA+46309  22.695  32.605  14.864
73242ION    NA+46310   8.297  38.499  11.581
73243ION    NA+46311  19.753   1.044   4.131
73244ION    NA+46312  37.233  18.118   3.717
73245ION    NA+46313   7.301  29.602   3.112
73246ION    NA+46314  44.648  27.833  13.533
73247ION    NA+46315  43.966  20.819  11.175
73248ION    NA+46316  43.220  35.523  11.595
73249ION    NA+46317  39.363   1.012   2.984
73250ION    NA+46318  18.406  14.179  10.975
73251ION    NA+46319  31.126  24.998   3.621
73252ION    NA+46320   2.069  36.061   2.018
73253ION    NA+46321  11.777   2.897   4.920
73254ION    NA+46322   7.218   3.136   1.459
73255ION    NA+46323  20.610   1.639   1.478
73256ION    NA+46324  32.136  13.912  13.538
73257ION    NA+46325  37.235  24.494   3.128
73258ION    NA+46326   5.875  41.030  12.168
73259ION    NA+46327  25.857  11.569   0.812
73260ION    NA+46328  29.592  14.386   3.034
73261ION    NA+46329  17.417  14.062   3.344
73262ION    NA+46330  41.880   8.751  11.406
73263ION    NA+46331  40.317  36.087  12.447
73264ION    NA+46332   9.278   1.460   1.562
73265ION    NA+46333   7.952   0.011   2.572
73266ION    NA+46334  21.952   1.804   4.592
73267ION    NA+46335   1.291  24.774   3.004
73268ION    NA+46336  42.007  16.803   5.436
73269ION    NA+46337  37.815  32.721   1.785
73270ION    NA+46338  40.595  43.883   1.814
73271ION    NA+46339   8.852   3.476   1.453
73272ION    NA+46340  23.179  19.618   3.394
73273ION    NA+46341  33.722  28.328  14.737
73274ION    NA+46342  38.856  28.390   3.719
73275ION    NA+46343  37.218   9.977  11.117
73276ION    NA+46344  35.170  43.759  14.970
73277ION    NA+46345  19.053  10.310  11.585
73278ION    NA+46346  43.611  10.964   0.701
73279ION    NA+46347  44.176   7.737   3.711
73280ION    NA+46348  30.645  36.973   4.825
73281ION    NA+46349  14.768  39.044  12.046
73282ION    NA+46350  26.213  35.620  13.443
73283ION    NA+46351  31.998  30.872   1.170
73284ION    NA+46352  21.533   5.972  13.838
73285ION    NA+46353   1.907   7.688   1.744
73286ION    NA+46354  14.245  15.283   0.383
73287ION    NA+46355  40.992  37.735  14.968
73288ION    NA+46356  30.380  15.747  14.779
73289ION    NA+46357  40.454   1.795   4.113
73290ION    NA+46358  18.634  20.284   4.499
73291ION    NA+46359  17.973  10.185   4.175
73292ION    NA+46360  12.974   2.429   1.506
73293ION    NA+46361   6.096  12.208   0.509
73294ION    NA+46362  40.300   1.979   5.568
73295ION    NA+46363  21.624  44.432  13.606
73296ION    NA+46364  29.986  35.547  12.961
73297ION    NA+46365  10.359   0.745  12.529
73298ION    NA+46366  23.066  11.739   3.230
73299ION    NA+46367  34.456  32.815   4.199
73300ION    NA+46368  42.959  29.790  10.686
73301ION    NA+46369   4.908  31.361   2.521
73302ION    NA+46370  32.638  34.931   2.772
73303ION    NA+46371  22.333  11.530   4.576
73304ION    NA+46372  31.998  34.122   0.515
73305ION    NA+46373  39.675   3.175   0.598
73306ION    NA+46374  38.456  22.574   1.970
73307ION    NA+46375  42.120   7.144   1.915
73308ION    NA+46376   1.926   2.901   1.796
73309ION    NA+46377   6.376  25.902  12.959
73310ION    NA+46378   2.893  20.918  11.809
73311ION    NA+46379  14.328  36.344   1.968
73312ION    NA+46380  16.020  38.319  12.354
73313ION    NA+46381  13.306  42.502  13.873
73314ION    NA+46382  37.730  32.905  14.515
73315ION    NA+46383   7.969  44.814  13.598
73316ION    NA+46384  32.440  25.150   1.873
73317ION    NA+46385  35.070  23.407  13.306
73318ION    NA+46386  25.869  16.782   0.401
73319ION    NA+46387  34.896  28.687   2.976
73320ION    NA+46388  20.705  34.567  12.923
73321ION    NA+46389   5.145  43.874   2.253
73322ION    NA+46390  15.284  19.201  11.952
73323ION    NA+46391  12.314  34.298   4.690
73324ION    NA+46392  17.886  36.221  13.522
73325ION    NA+46393  35.654  44.060  12.100
73326ION    NA+46394  20.136  40.199  12.922
73327ION    NA+46395  29.136   3.486   1.796
73328ION    NA+46396  44.844  31.126  11.980
73329ION    NA+46397   0.401  18.375  13.797
73330ION    NA+46398  34.100   9.257   0.527
73331ION    NA+46399   5.944  23.326   3.790
73332ION    NA+46400   2.753  20.637   2.842
73333ION    NA+46401  15.547   0.471  11.646
73334ION    NA+46402   8.893  27.554   0.928
73335ION    NA+46403  43.580  43.385  13.788
73336ION    NA+46404  43.575  18.115   2.875
73337ION    NA+46405  22.548   9.860   3.930
73338ION    NA+46406  26.123  10.297  11.819
73339ION    NA+46407  34.449  27.448  12.447
73340ION    NA+46408   5.821  37.532   3.660
73341ION    NA+46409  41.335  25.373  14.017
73342ION    NA+46410  23.616  35.981  10.874
73343ION    NA+46411  25.008  11.598   4.758
73344ION    NA+46412  21.129  22.576  13.313
73345ION    NA+46413  20.080  13.412  11.178
73346ION    NA+46414   4.535   3.009  11.052
73347ION    NA+46415  18.250   6.143   2.697
73348ION    NA+46416   8.652  34.251   3.378
73349ION    NA+46417   4.003  17.129  10.725
73350ION    NA+46418  38.819  39.594  13.352
73351ION    NA+46419   4.791  27.456  14.298
73352ION    NA+46420   9.320  43.743  11.564
73353ION    NA+46421  31.562  33.904  14.305
73354ION    NA+46422  41.819  13.828   4.613
73355ION    NA+46423  23.452  16.344  11.378
73356ION    NA+46424  15.420   0.337   1.480
73357ION    NA+46425  18.480   6.637  13.163
73358ION    NA+46426  34.308  27.194   1.534
73359ION    NA+46427  35.307  37.802   1.700
73360ION    NA+46428  16.742  30.879  11.216
73361ION    NA+46429   1.770  37.074   2.358
73362ION    NA+46430  20.353  10.463  10.585
73363ION    NA+46431  37.576  33.747  10.301
73364ION    NA+46432  21.149  33.604   1.432
73365ION    NA+46433  44.984  40.033   1.368
73366ION    NA+46434  20.791  43.790  10.608
73367ION    NA+46435   8.767  40.096   4.167
73368ION    NA+46436   0.251  15.163  13.290
73369ION    NA+46437  14.871  25.673  13.814
73370ION    NA+46438  26.942   3.230   3.881
73371ION    NA+46439  33.642   9.118   3.103
73372ION    NA+46440  37.497   3.369  14.426
73373ION    NA+46441  15.586  29.679  11.988
73374ION    NA+46442  44.706  19.619   3.085
73375ION    NA+46443  43.743  41.524   4.582
73376ION    NA+46444   5.551  37.493   0.342
73377ION    NA+46445  38.762  18.258  13.461
73378ION    NA+46446  26.479  35.170  14.998
73379ION    NA+46447   6.249  18.974  12.406
73380ION    NA+46448   7.149  19.798   2.415
73381ION    NA+46449   7.275  36.593  14.668
73382ION    NA+46450   0.202   5.759  13.181
73383ION    NA+46451  26.486  36.747   2.275
73384ION    NA+46452  34.473  37.436   0.672
73385ION    NA+46453  37.319  37.495  14.672
73386ION    NA+46454  41.047  26.580   2.694
73387ION    NA+46455   7.892  15.183   2.107
73388ION    NA+46456  27.129  15.737  10.058
73389ION    NA+46457   2.580  34.867  14.977
73390ION    NA+46458  39.762   7.237  10.612
73391ION    NA+46459   8.270  33.170  14.207
73392ION    NA+46460  23.228  23.605   0.324
73393ION    NA+46461  13.279   0.526   0.297
73394ION    NA+46462  24.052   5.699  14.332
73395ION    NA+46463  29.054   2.659   2.352
73396ION    NA+46464  40.814  34.462   0.362
73397ION    NA+46465  27.339  35.231  11.233
73398ION    NA+46466  39.367   1.019   0.770
73399ION    NA+46467  42.352  27.740   2.752
73400ION    NA+46468  23.180  19.072   0.375
73401ION    NA+46469  35.149  19.835   1.121
73402ION    NA+46470  10.628  35.624   5.152
73403ION    NA+46471  43.311  18.455   3.777
73404ION    NA+46472  13.777  16.570   1.430
73405ION    NA+46473  13.630  37.136   3.052
73406ION    NA+46474   3.282   4.290   9.648
73407ION    NA+46475  33.491  18.021   4.099
73408ION    NA+46476  39.745  42.663  14.960
73409ION    NA+46477  14.861  16.576  11.944
73410ION    NA+46478  35.586  10.741   3.025
73411ION    NA+46479  10.858  21.659  12.564
73412ION    NA+46480  16.275  12.223  14.029
73413ION    NA+46481  44.223  16.366   0.236
73414ION    NA+46482  33.279   2.536  11.010
73415ION    NA+46483   9.422  17.167   0.760
73416ION    NA+46484  33.509  37.906  13.671
73417ION    NA+46485  31.942  33.332   3.345
73418ION    NA+46486  39.099  10.220   1.192
73419ION    NA+46487  34.444   5.414  14.536
73420ION    NA+46488  10.472  27.950   4.177
73421ION    NA+46489  24.123  41.804   0.464
73422ION    NA+46490  19.666  14.436  11.483
73423ION    NA+46491  17.696  37.177  12.342
73424ION    NA+46492  30.927  39.375   2.769
73425ION    NA+46493   1.232  19.854  11.347
73426ION    NA+46494   6.772   3.277  12.601
73427ION    NA+46495   3.266  12.835  11.171
73428ION    NA+46496  34.728  42.760  12.861
73429ION    NA+46497  20.220  37.130   3.707
73430ION    NA+46498   9.578  14.823  11.067
73431ION    NA+46499  42.093  28.699  11.373
73432ION    NA+46500  24.044  35.078   0.438
73433ION    NA+46501  29.566  39.076   1.345
73434ION    NA+46502  17.204   3.850  12.948
73435ION    NA+46503  44.931  12.012  14.299
73436ION    NA+46504  20.747  35.097   3.087
73437ION    NA+46505  34.102  17.664  12.856
73438ION    NA+46506  17.135  28.509  13.449
73439ION    NA+46507  16.725  23.306   4.562
73440ION    NA+46508  30.827  11.892   3.064
73441ION    NA+46509  19.532  29.260   3.136
73442ION    NA+46510  30.047  10.773  12.473
73443ION    NA+46511   1.367  33.790   0.074
73444ION    NA+46512  32.380  40.868  14.471
73445ION    NA+46513  19.358  15.810   2.826
73446ION    NA+46514  19.039  44.448   3.189
73447ION    NA+46515   7.896   6.194  14.479
73448ION    NA+46516   4.626  29.794   0.646
73449ION    NA+46517  12.402  28.029  14.817
73450ION    NA+46518   7.369  17.577   2.866
73451ION    NA+46519  31.901  14.031  11.634
73452ION    NA+46520  26.904   5.788   2.633
73453ION    NA+46521  17.877   1.227  13.637
73454ION    NA+46522  33.138  44.703   2.381
73455ION    NA+46523  12.567  40.670  13.210
73456ION    NA+46524  23.979  20.455  14.959
73457ION    NA+46525  43.021  42.046   0.422
73458ION    NA+46526  32.613   2.854   0.150
73459ION    NA+46527  28.183  27.146  10.499
73460ION    NA+46528  16.562  21.557  11.617
73461ION    NA+46529  20.867  31.342  10.365
73462ION    NA+46530   9.371  25.322  11.142
73463ION    NA+46531   1.450  38.469   1.104
73464ION    NA+46532  21.769  40.367   3.179
73465ION    NA+46533   4.485   7.689  13.932
73466ION    NA+46534  35.085  24.400   0.476
73467ION    NA+46535  18.737  33.512  13.780
73468ION    NA+46536  29.802  11.190  10.332
73469ION    NA+46537   6.330   1.801   4.130
73470ION    NA+46538   4.032   7.553  13.051
73471ION    NA+46539  20.291  27.902  13.942
73472ION    NA+46540  37.671  25.532   2.711
73473ION    NA+46541  40.171  24.895   3.826
73474ION    NA+46542  29.131  24.641  13.258
73475ION    NA+46543  36.649  27.045  14.566
73476ION    NA+46544  40.282  29.267   1.926
73477ION    NA+46545   1.959  42.343   0.025
73478ION    NA+46546  18.543  35.924   5.326
73479ION    NA+46547  26.752  35.924   1.773
73480ION    NA+46548  16.462  35.096  14.115
73481ION    NA+46549  18.633  11.274   0.065
73482ION    NA+46550  13.215  16.450  11.094
73483ION    NA+46551   3.093  35.094   3.562
73484ION    NA+46552  18.762  21.680   1.271
73485ION    NA+46553  15.030   5.298  11.989
73486ION    NA+46554   0.123  38.278   1.249
73487ION    NA+46555   6.638  35.575   3.860
73488ION    NA+46556  10.323  29.268   2.487
73489ION    NA+46557  20.797  32.912  10.085
73490ION    NA+46558   4.433  23.195  11.556
73491ION    NA+46559   8.906  16.525   3.377
73492ION    NA+46560  26.174  20.376   2.742
73493ION    NA+46561  18.587   5.921   4.482
73494ION    NA+46562  26.872  29.366   4.668
73495ION    NA+46563  19.448  11.154  10.768
73496ION    NA+46564  21.917  44.912   0.002
73497ION    NA+46565  13.130   9.894  13.869
73498ION    NA+46566  41.508  40.445  14.283
73499ION    NA+46567  12.628  43.856  11.544
73500ION    NA+46568  23.492  27.574  14.840
73501ION    NA+46569   9.808  22.739   1.709
73502ION    NA+46570  39.371  29.950   0.857
73503ION    NA+46571  23.586  32.435  11.522
73504ION    NA+46572  14.250  19.313   0.516
73505ION    NA+46573  34.765  44.165  12.035
73506ION    NA+46574  30.923   5.724  11.516
73507ION    NA+46575  11.148  20.894   2.640
73508ION    NA+46576   0.281  37.382   4.381
73509ION    NA+46577  27.627  11.692   0.425
73510ION    NA+46578  44.533  18.204   1.917
73511ION    NA+46579  22.510  35.229   2.841
73512ION    NA+46580  30.720   6.183   0.742
73513ION    NA+46581  11.707  15.305   0.884
73514ION    NA+46582  35.576  37.749   4.690
73515ION    NA+46583   2.112   6.634  13.317
73516ION    NA+46584  19.992  32.473  14.716
73517ION    NA+46585   1.345  37.145  10.173
73518ION    NA+46586  36.343  34.587   5.108
73519ION    NA+46587  31.329  15.877   4.069
73520ION    NA+46588  18.646  41.647  14.936
73521ION    NA+46589  29.113   2.907   0.981
73522ION    NA+46590   8.428   3.127  13.845
73523ION    NA+46591   5.584  35.846   3.993
73524ION    NA+46592  29.947   9.294  11.074
73525ION    NA+46593  38.145  30.311  12.826
73526ION    NA+46594  30.133  21.936   0.943
73527ION    NA+46595   3.266  12.499   2.078
73528ION    NA+46596  25.691  38.529   4.156
73529ION    NA+46597   9.692  11.057   3.678
73530ION    NA+46598   3.089  12.708  13.149
73531ION    NA+46599  41.591   4.953  12.050
73532ION    NA+46600  24.711   1.897  11.500
73533ION    NA+46601  19.795  29.939   1.389
73534ION    NA+46602  39.951  22.043  11.549
73535ION    NA+46603   2.332  35.532   0.512
73536ION    NA+46604   9.672   2.361   4.044
73537ION    NA+46605  20.264  14.050   4.333
73538ION    NA+46606  28.090  37.388  10.273
73539ION    NA+46607  36.665  31.535  14.732
73540ION    NA+46608  31.749  10.729   4.149
73541ION    NA+46609  18.206   8.971   1.228
73542ION    NA+46610  10.331  32.150  14.900
73543ION    NA+46611  41.852  34.635  12.640
73544ION    NA+46612  41.955  26.532   0.789
73545ION    NA+46613  11.132   3.981   1.993
73546ION    NA+46614  13.049  20.488  10.739
73547ION    NA+46615  17.938   2.832   1.285
73548ION    NA+46616  30.000  15.039  10.710
73549ION    NA+46617  36.612  40.507  11.435
73550ION    NA+46618  19.695  25.548  10.719
73551ION    NA+46619  41.048  21.975   4.692
73552ION    NA+46620   3.054   3.374   3.644
73553ION    NA+46621   4.435   2.900   3.325
73554ION    NA+46622  15.637  28.694   2.867
73555ION    NA+46623  30.551  15.620   5.262
73556ION    NA+46624  39.868  42.002   2.320
73557ION    NA+46625   4.965  21.289  10.920
73558ION    NA+46626  27.598   9.593   3.745
73559ION    NA+46627  35.776  26.790  14.561
73560ION    NA+46628  17.434  12.604  10.406
73561ION    NA+46629  35.336   8.872  11.586
73562ION    NA+46630  31.866  35.632   3.351
73563ION    NA+46631   3.227  18.269   1.105
73564ION    NA+46632  30.910  43.972   4.615
73565ION    NA+46633  28.100  24.443  14.336
73566ION    NA+46634  13.469  44.459  10.883
73567ION    NA+46635  42.940  23.813   3.436
73568ION    NA+46636  28.356  28.998   1.203
73569ION    NA+46637  37.886   2.426  11.606
73570ION    NA+46638  42.354  42.483   1.708
73571ION    NA+46639  25.449  21.808   4.010
73572ION    NA+46640  35.824  13.869   3.519
73573ION    NA+46641  44.297  10.966   5.373
73574ION    NA+46642  33.400  11.723  10.415
73575ION    NA+46643  11.521  22.759  11.572
73576ION    NA+46644  23.838  22.688   2.166
73577ION    NA+46645  19.495  11.812  14.394
73578ION    NA+46646   8.680  29.258  12.385
73579ION    NA+46647  23.746  15.007  12.560
73580ION    NA+46648  36.266  42.119  12.371
73581ION    NA+46649  21.496  26.120  14.526
73582ION    NA+46650  43.694  26.702  13.072
73583ION    NA+46651  21.786  38.299   0.898
73584ION    NA+46652  34.369  12.917  11.226
73585ION    NA+46653  33.767  25.737   3.087
73586ION    NA+46654   8.111  25.867   0.923
73587ION    NA+46655  31.506   7.284   2.889
73588ION    NA+46656  16.220   3.290   4.596
73589ION    NA+46657   1.576  37.816   3.102
73590ION    NA+46658  44.031  41.574  11.967
73591ION    NA+46659  20.987  14.919  12.330
73592ION    NA+46660   8.154  34.836  13.453
73593ION    NA+46661  14.902  11.888   9.899
73594ION    NA+46662   1.892  24.472  14.697
73595ION    NA+46663  14.519  37.744   3.040
73596ION    NA+46664  24.948   7.323  14.963
73597ION    NA+46665  20.308   7.701   4.467
73598ION    NA+46666  22.139  24.284   4.707
73599ION    NA+46667  14.904  14.679   3.353
73600ION    NA+46668  16.733   7.723  11.736
73601ION    NA+46669  17.921  37.751  12.568
73602ION    NA+46670  36.132   3.276  11.111
73603ION    NA+46671  10.819  44.801   2.822
73604ION    NA+46672  35.458   1.485   1.315
73605ION    NA+46673  34.031  24.725  12.020
73606ION    NA+46674  43.053   5.319  11.797
73607ION    NA+46675  44.058   0.911  12.822
73608ION    NA+46676  13.916  33.652   2.838
73609ION    NA+46677  28.579   9.266   0.946
73610ION    NA+46678   2.680  12.086  13.615
73611ION    NA+46679  44.924  20.597  12.372
73612ION    NA+46680  16.211  19.807   2.726
73613ION    NA+46681   3.511  35.572   4.641
73614ION    NA+46682  27.175  12.836  12.086
73615ION    NA+46683  24.232  28.738  14.504
73616ION    NA+46684  39.390  39.701  12.619
73617ION    NA+46685  39.588  17.428  14.673
73618ION    NA+46686  12.756  10.650  14.966
73619ION    NA+46687  27.990   2.866  10.900
73620ION    NA+46688  31.085  27.156   3.746
73621ION    NA+46689  17.195  13.369  12.750
73622ION    NA+46690  25.839  37.679  11.276
73623ION    NA+46691  10.409   1.953   4.068
73624ION    NA+46692  26.024  19.536   3.123
73625ION    NA+46693  44.995  14.477  12.229
73626ION    NA+46694   7.859  19.799   0.699
73627ION    NA+46695  31.510   1.402   1.804
73628ION    NA+46696   7.908  19.184  13.987
73629ION    NA+46697  16.666  41.613  12.867
73630ION    NA+46698  19.299  22.871   0.443
73631ION    NA+46699  27.937  22.512  11.458
73632ION    NA+46700  37.019  28.904  13.688
73633ION    NA+46701  26.799  41.643   2.654
73634ION    NA+46702  11.458  23.093  12.550
73635ION    NA+46703  25.642  15.268  13.134
73636ION    NA+46704   5.074  34.163   3.388
73637ION    NA+46705  22.457  43.332   1.998
73638ION    NA+46706  15.843  24.497  13.413
73639ION    NA+46707   2.646  29.436  11.769
73640ION    NA+46708  39.854  28.508  13.025
73641ION    NA+46709   7.275  38.878   2.139
73642ION    NA+46710  32.312  21.470  14.630
73643ION    NA+46711  34.487  19.028  14.447
73644ION    NA+46712  24.187  19.012  13.583
73645ION    NA+46713   6.444  14.993   2.950
73646ION    NA+46714   0.520  21.188   2.795
73647ION    NA+46715  28.382   5.924   0.400
73648ION    NA+46716  25.996  38.846   1.862
73649ION    NA+46717  35.462  11.774  12.854
73650ION    NA+46718  14.081  14.606  11.126
73651ION    NA+46719  38.096  14.750   3.799
73652ION    NA+46720  22.286  23.672   1.315
73653ION    NA+46721  34.986  15.184  14.504
73654ION    NA+46722   6.941  39.514   3.134
73655ION    NA+46723  19.834  24.485  14.838
73656ION    NA+46724   5.629   6.040   0.064
73657ION    NA+46725  12.169   1.622  13.608
73658ION    NA+46726  34.132  35.013   1.095
73659ION    NA+46727  43.251  19.527  11.420
73660ION    NA+46728  30.126  19.118   4.511
73661ION    NA+46729  18.172  21.540   3.812
73662ION    NA+46730  42.943  16.639   0.021
73663ION    NA+46731  13.732   8.364  12.319
73664ION    NA+46732   5.656  15.712   2.462
73665ION    NA+46733  35.438  40.326   2.457
73666ION    NA+46734  39.367   2.336  11.922
73667ION    NA+46735   7.912  17.633  14.274
73668ION    NA+46736  43.556  18.781   1.227
73669ION    NA+46737   1.826  32.344  11.148
73670ION    NA+46738  39.185  12.846   2.989
73671ION    NA+46739  44.184  28.971   0.558
73672ION    NA+46740  27.667  22.072   1.921
73673ION    NA+46741  19.261  10.438   1.524
73674ION    NA+46742  44.415  41.322  13.650
73675ION    NA+46743  35.057  24.115   4.402
73676ION    NA+46744  26.229  35.994   0.924
73677ION    NA+46745  25.668  34.073   5.017
73678ION    NA+46746  29.062  36.608  11.474
73679ION    NA+46747  16.835  14.031   2.720
73680ION    NA+46748  23.222   8.433   2.316
73681ION    NA+46749  17.722  13.043  13.535
73682ION    NA+46750  11.493  41.436  12.036
73683ION    NA+46751  38.055  29.211   4.168
73684ION    NA+46752  36.021  30.931   1.906
73685ION    NA+46753  39.244  12.370   3.742
73686ION    NA+46754  28.755  22.604   0.396
73687ION    NA+46755  17.696  21.304   1.004
73688ION    NA+46756  18.500  13.285   3.333
73689ION    NA+46757   6.608  21.489  12.446
73690ION    NA+46758  24.501  26.118   3.722
73691ION    NA+46759  35.767  20.907  12.767
73692ION    NA+46760  16.376  41.511   5.592
73693ION    NA+46761  11.795  18.224  12.576
73694ION    NA+46762  26.076  16.157   1.312
73695ION    NA+46763  17.548  21.249   3.086
73696ION    NA+46764  11.359  43.411   4.595
73697ION    NA+46765  28.312  43.026   2.064
73698ION    NA+46766  34.284  24.898  10.635
73699ION    NA+46767  34.462  22.383  12.080
73700ION    NA+46768  40.084  17.420  12.890
73701ION    NA+46769  38.392  41.119  11.593
73702ION    NA+46770  20.467   6.038  13.335
73703ION    NA+46771  16.777  11.671   4.124
73704ION    NA+46772  41.060   7.851  10.694
73705ION    NA+46773  38.482  33.130  14.106
73706ION    NA+46774   0.692   7.353   3.134
73707ION    NA+46775  34.339   9.351  13.735
73708ION    NA+46776  33.538  22.570   0.299
73709ION    NA+46777   0.245  18.831  14.754
73710ION    NA+46778  26.645  42.845  14.564
73711ION    NA+46779  38.873  30.455  10.772
73712ION    NA+46780  41.019  23.654  13.432
73713ION    NA+46781   8.835  12.807   4.171
73714ION    NA+46782  10.303  12.084  12.349
73715ION    NA+46783  16.560  19.501  11.395
73716ION    NA+46784  26.140  32.144  13.101
73717ION    NA+46785  29.092  28.870  10.960
73718ION    NA+46786  19.661  42.576   2.274
73719ION    NA+46787  41.941   8.026  12.082
73720ION    NA+46788   3.104  31.493  12.567
73721ION    NA+46789  20.406  19.018   1.152
73722ION    NA+46790  17.723   9.079  12.394
73723ION    NA+46791   6.765   8.944  13.674
73724ION    NA+46792  41.779   4.704  13.486
73725ION    NA+46793  37.667  24.098   2.318
73726ION    NA+46794   5.434  25.100  12.116
73727ION    NA+46795  37.816  18.301   0.662
73728ION    NA+46796  11.672   3.449   3.238
73729ION    NA+46797  42.167  31.044  14.374
73730ION    NA+46798  28.272  23.889   0.011
73731ION    NA+46799  19.706  41.662   2.716
73732ION    NA+46800  43.217  20.663   2.734
73733ION    NA+46801  37.328  23.604   3.119
73734ION    NA+46802  12.860  38.618  13.148
73735ION    NA+46803   6.642  23.697  14.829
73736ION    NA+46804  33.386  17.145   3.571
73737ION    NA+46805  12.329  19.665  14.279
73738ION    NA+46806  44.151  40.555   1.552
73739ION    NA+46807  41.131   3.502  14.207
73740ION    NA+46808  30.005  11.331  11.644
73741ION    NA+46809  28.413  37.252   2.684
73742ION    NA+46810   0.858  27.752  10.750
73743ION    NA+46811   9.112  17.897   3.280
73744ION    NA+46812  17.704  19.107   2.493
73745ION    NA+46813  19.663   7.221  13.390
73746ION    NA+46814  33.347  30.153   2.228
73747ION    NA+46815  43.955  32.377   1.998
73748ION    NA+46816  12.888  24.730  13.338
73749ION    NA+46817  36.637  44.407   5.204
73750ION    NA+46818   1.307  17.638   0.468
73751ION    NA+46819  27.480  30.593  10.701
73752ION    NA+46820  38.791  14.034   1.295
73753ION    NA+46821  42.519   8.615   0.507
73754ION    NA+46822  31.558  32.407  14.187
73755ION    NA+46823  13.789  13.332  10.755
73756ION    NA+46824  34.004  14.758   4.206
73757ION    NA+46825  42.145  24.237   3.435
73758ION    NA+46826   1.545  36.954  11.306
73759ION    NA+46827  29.893   4.818   1.570
73760ION    NA+46828  42.445   5.179  10.318
73761ION    NA+46829   7.648  40.766  13.435
73762ION    NA+46830  42.081  43.762   9.967
73763ION    NA+46831  27.165  15.604  14.447
73764ION    NA+46832  30.551   4.023   2.791
73765ION    NA+46833  18.338   8.670  10.707
73766ION    NA+46834  20.265  12.463  12.190
73767ION    NA+46835   3.558  31.594  10.289
73768ION    NA+46836  16.553  34.349  14.564
73769ION    NA+46837   3.397   2.947  14.433
73770ION    NA+46838   9.306   5.043  11.401
73771ION    NA+46839   5.521  22.186  13.039
73772ION    NA+46840  37.147   9.143  11.800
73773ION    NA+46841  44.864   0.224  10.719
73774ION    NA+46842  34.080   0.451   0.815
73775ION    NA+46843   6.344  24.954  12.505
73776ION    NA+46844  26.403  35.996  12.535
73777ION    NA+46845   7.350  15.221  14.252
73778ION    NA+46846  34.302   8.861  10.850
73779ION    NA+46847  19.350  43.473   2.641
73780ION    NA+46848  11.877  32.690  14.645
73781ION    NA+46849  39.288  18.202   2.787
73782ION    NA+46850   9.402  12.133  11.166
73783ION    NA+46851  13.077  28.999  10.801
73784ION    NA+46852   6.275   8.711   3.612
73785ION    NA+46853  29.054  32.100   4.601
73786ION    NA+46854  22.985  20.065  10.649
73787ION    NA+46855   0.443  14.959   2.357
73788ION    NA+46856  19.873  12.453  11.369
73789ION    NA+46857  35.910  34.153  14.241
73790ION    NA+46858  13.063  30.123  13.138
73791ION    NA+46859  30.418  20.194  13.342
73792ION    NA+46860   9.842  20.873  10.841
73793ION    NA+46861  13.841  32.955   2.261
73794ION    NA+46862  36.303  43.516   0.691
73795ION    NA+46863  34.546   0.238  11.174
73796ION    NA+46864  19.146   6.756  11.640
73797ION    NA+46865  33.059  44.186   0.650
73798ION    NA+46866   4.228  10.910   0.203
73799ION    NA+46867   4.196  35.765  13.090
73800ION    NA+46868  13.863   1.767   1.032
73801ION    NA+46869  27.962  18.684   3.930
73802ION    NA+46870  29.808  18.806  11.898
73803ION    NA+46871   7.258   3.926   0.847
73804ION    NA+46872   7.096  11.047  14.208
73805ION    NA+46873  18.411   6.339  14.496
73806ION    NA+46874  14.128  44.852  11.374
73807ION    NA+46875  44.913  41.388   0.955
73808ION    NA+46876  24.575  22.674   4.993
73809ION    NA+46877  14.189   3.924  14.847
73810ION    NA+46878  33.889  23.091   1.474
73811ION    NA+46879  39.509  30.133  14.883
73812ION    NA+46880  17.696  25.574   5.405
73813ION    NA+46881  32.758  20.555  11.492
73814ION    NA+46882  44.315  40.336   0.679
73815ION    NA+46883  44.113  24.955   0.112
73816ION    NA+46884   9.073   1.086   2.493
73817ION    NA+46885   0.987  14.353   0.685
73818ION    NA+46886  25.324  43.929   2.986
73819ION    NA+46887  14.213  30.921  12.880
73820ION    NA+46888  44.821   1.777   4.500
73821ION    NA+46889  36.873  13.500   0.577
73822ION    NA+46890  40.033   9.616  14.329
73823ION    NA+46891  24.639  21.204  12.586
73824ION    NA+46892   0.038  44.481  12.841
73825ION    NA+46893   6.805  37.856  14.102
73826ION    NA+46894   8.690   2.137   0.527
73827ION    NA+46895  21.412   2.964   3.756
73828ION    NA+46896  21.971  37.345   1.896
73829ION    NA+46897  43.860   4.896   1.252
73830ION    NA+46898  34.154  15.533  14.403
73831ION    NA+46899  11.530  32.895   4.161
73832ION    NA+46900  35.081  18.121  14.041
73833ION    NA+46901  27.039  20.337   5.003
73834ION    NA+46902  15.260  16.294   3.863
73835ION    NA+46903  33.335  23.109   4.700
73836ION    NA+46904  22.627   3.850   4.285
73837ION    NA+46905   4.852   0.689   3.227
73838ION    NA+46906  19.285  38.926  13.891
73839ION    NA+46907  31.535  40.754   1.591
73840ION    NA+46908  36.383  33.180  11.512
73841ION    NA+46909  24.610  12.365   1.819
73842ION    NA+46910  10.312  30.672  12.445
73843ION    NA+46911  16.848  11.689  13.792
73844ION    NA+46912  11.279  22.793   4.255
73845ION    NA+46913  35.349  22.574  14.251
73846ION    NA+46914   5.220  22.681  14.561
73847ION    NA+46915   0.003  44.337  11.160
73848ION    NA+46916  12.459   4.656   4.257
73849ION    NA+46917  32.610  15.560  11.125
73850ION    NA+46918  27.727  41.460   2.979
73851ION    NA+46919   8.956  31.304   4.322
73852ION    NA+46920   9.238   5.724   1.894
73853ION    NA+46921  17.060   0.448   1.814
73854ION    NA+46922  21.385   4.243  13.238
73855ION    NA+46923  41.524  19.816   2.976
73856ION    NA+46924  17.205   8.687   1.668
73857ION    NA+46925  17.764  39.400  14.375
73858ION    NA+46926  34.172  35.614   1.894
73859ION    NA+46927  16.936  39.348  12.203
73860ION    NA+46928  29.849  29.470  10.700
73861ION    NA+46929  43.296  41.266   2.764
73862ION    NA+46930  11.748  27.485   5.206
73863ION    NA+46931  26.193  13.966  14.800
73864ION    NA+46932  31.800  39.147  11.403
73865ION    NA+46933  28.180  32.148  12.953
73866ION    NA+46934  10.421  37.101   4.636
73867ION    NA+46935   8.703   5.244  10.745
73868ION    NA+46936  26.829  11.843   1.009
73869ION    NA+46937  35.984  19.968  13.035
73870ION    NA+46938  23.466  12.802  12.305
73871ION    NA+46939  20.878  38.052   2.797
73872ION    NA+46940  22.317  29.963   9.836
73873ION    NA+46941  41.067  30.710  13.640
73874ION    NA+46942  18.100  42.993  14.742
73875ION    NA+46943  39.024   7.792   3.803
73876ION    NA+46944   7.521   0.154  13.037
73877ION    NA+46945  41.754  17.889   4.552
73878ION    NA+46946  12.457   0.595  10.336
73879ION    NA+46947  22.489  22.437   0.017
73880ION    NA+46948  35.913  35.076   1.307
73881ION    NA+46949  27.404   6.421   3.827
73882ION    NA+46950   5.652   5.494   4.607
73883ION    NA+46951  13.947  22.090   1.686
73884ION    NA+46952  42.769  37.023  10.880
73885ION    NA+46953  38.061  35.741   0.711
73886ION    NA+46954  10.879   2.920   1.417
73887ION    NA+46955   4.216  43.948   0.327
73888ION    NA+46956  16.231  26.736  10.688
73889ION    NA+46957  20.590   4.866  11.969
73890ION    NA+46958  22.195  12.180  14.381
73891ION    NA+46959  41.371  13.525   5.454
73892ION    NA+46960  16.640  42.968  11.515
73893ION    NA+46961  32.846  34.311   4.379
73894ION    NA+46962  12.330   9.471  13.780
73895ION    NA+46963  34.491  15.696   3.342
73896ION    NA+46964   7.248  16.787   0.169
73897ION    NA+46965  29.529  13.316   2.829
73898ION    NA+46966   1.277  27.596   0.670
73899ION    NA+46967  33.504  36.536  11.372
73900ION    NA+46968  33.489   9.926  10.896
73901ION    NA+46969  27.886  23.937  10.926
73902ION    NA+46970  27.938  44.315  14.750
73903ION    NA+46971  17.808  10.206  13.850
73904ION    NA+46972   5.470   7.787  14.075
73905ION    NA+46973  29.283  17.105   2.609
73906ION    NA+46974  18.216  37.804   0.768
73907ION    NA+46975   9.726  10.330   1.622
73908ION    NA+46976  24.173  16.261  10.690
73909ION    NA+46977  10.959   0.238   4.417
73910ION    NA+46978  27.396  28.337   0.216
73911ION    NA+46979  26.058  43.307   3.941
73912ION    NA+46980   6.292  34.015   4.799
73913ION    NA+46981  22.810  28.168   4.186
73914ION    NA+46982   3.189  41.390   0.704
73915ION    NA+46983  38.602  13.270  14.806
73916ION    NA+46984  40.038  36.908  14.836
73917ION    NA+46985  38.331  25.442   1.966
73918ION    NA+46986   5.319  30.531   3.723
73919ION    NA+46987  30.959  33.136  14.520
73920ION    NA+46988  38.654  19.087  11.919
73921ION    NA+46989  24.738  39.741  12.222
73922ION    NA+46990  31.668  25.729   2.945
73923ION    NA+46991   2.810   4.173  11.667
73924ION    NA+46992  12.258  16.384   4.136
73925ION    NA+46993  32.857  38.765   2.137
73926ION    NA+46994   4.406  16.619   3.416
73927ION    NA+46995   0.853  31.320  13.253
73928ION    NA+46996  37.820   6.869   1.765
73929ION    NA+46997  37.861  20.260   0.615
73930ION    NA+46998   6.182   4.671   3.006
73931ION    NA+46999  10.712  40.505   0.568
73932ION    NA+47000  12.208  42.133  11.984
73933ION    NA+47001  29.224   1.903   0.772
73934ION    NA+47002  33.557  25.910  13.439
73935ION    NA+47003  36.405  38.821  14.046
73936ION    NA+47004   4.744  33.311   0.033
73937ION    NA+47005  32.411  10.641  13.947
73938ION    NA+47006  17.308  42.467  10.511
73939ION    NA+47007   2.843  24.150   2.413
73940ION    NA+47008  17.874  30.805  10.817
73941ION    NA+47009  39.556  31.172  10.628
73942ION    NA+47010  17.205  31.064  12.082
73943ION    NA+47011  36.076  43.606   1.301
73944ION    NA+47012  27.869  38.677  13.954
73945ION    NA+47013   7.905  10.035   0.903
73946ION    NA+47014  13.247   1.448   4.572
73947ION    NA+47015  37.455   3.525  13.439
73948ION    NA+47016  23.811  21.143  12.021
73949ION    NA+47017  17.963  30.622  12.563
73950ION    NA+47018   0.155  40.893   4.112
73951ION    NA+47019  37.381  43.844   3.863
73952ION    NA+47020  24.663  26.389   0.695
73953ION    NA+47021   6.955  39.825   2.183
73954ION    NA+47022  29.234  20.852  14.410
73955ION    NA+47023  40.508  17.537   3.637
73956ION    NA+47024  29.229  20.037   3.720
73957ION    NA+47025   9.408  18.682   0.815
73958ION    NA+47026  38.025  37.920  14.049
73959ION    NA+47027   0.759   4.125  14.915
73960ION    NA+47028  33.337  36.884  13.004
73961ION    NA+47029  37.282  17.095   0.418
73962ION    NA+47030  33.337   5.122   0.691
73963ION    NA+47031  33.012   1.802  13.219
73964ION    NA+47032  31.715  34.787   1.728
73965ION    NA+47033   4.761  31.866   3.265
73966ION    NA+47034   6.907  12.725  11.151
73967ION    NA+47035   7.398  12.221   0.684
73968ION    NA+47036  18.588   4.839   2.893
73969ION    NA+47037  28.724  11.222  11.555
73970ION    NA+47038  15.543  25.666  11.580
73971ION    NA+47039  36.105  19.152   2.705
73972ION    NA+47040  12.208  43.353  13.617
73973ION    NA+47041  20.488  17.653   3.606
73974ION    NA+47042   2.924  42.944  13.070
73975ION    NA+47043  40.463  25.265  13.539
73976ION    NA+47044   2.558   1.338   4.932
73977ION    NA+47045  35.162  13.198  10.686
73978ION    NA+47046  10.586  27.317  12.999
73979ION    NA+47047  25.348  18.174   2.772
73980ION    NA+47048  26.499  11.726   0.061
73981ION    NA+47049   5.497  31.569   3.890
73982ION    NA+47050  30.257  26.285   5.204
73983ION    NA+47051  40.684   5.573   4.415
73984ION    NA+47052  39.230  11.680   0.312
73985ION    NA+47053  19.419  32.601  11.504
73986ION    NA+47054  22.162  43.704  12.662
73987ION    NA+47055  43.504  18.959   2.935
73988ION    NA+47056  38.779   7.408  11.617
73989ION    NA+47057  21.990  21.249  14.248
73990ION    NA+47058  23.529  36.651   0.382
73991ION    NA+47059  40.823  10.321   3.166
73992ION    NA+47060  32.444  17.859   2.897
73993ION    NA+47061  36.647  29.121  12.055
73994ION    NA+47062  34.289   9.081   4.640
73995ION    NA+47063  24.629  10.494  13.888
73996ION    NA+47064  26.511   1.249   5.297
73997ION    NA+47065  41.810  15.216   0.264
73998ION    NA+47066  29.378  34.322  14.235
73999ION    NA+47067  16.054   6.247  13.383
74000ION    NA+47068  43.517  22.742  11.175
74001ION    NA+47069   6.123  18.937  14.141
74002ION    NA+47070  12.687  14.299   3.956
74003ION    NA+47071  18.297   9.651  13.004
74004ION    NA+47072   2.963  27.729   3.480
74005ION    NA+47073   6.267   1.099  14.769
74006ION    NA+47074  37.719   0.565  10.058
74007ION    NA+47075  12.322  44.997  14.348
74008ION    NA+47076  29.620  41.287   1.835
74009ION    NA+47077  15.710  29.494  14.755
74010ION    NA+47078  17.106  12.521  13.907
74011ION    NA+47079  19.695  42.354   0.925
74012ION    NA+47080   2.721  24.777  12.450
74013ION    NA+47081   1.473  44.489   3.884
74014ION    NA+47082   8.873   6.720   0.883
74015ION    NA+47083  24.808  14.459   0.170
74016ION    NA+47084  34.387  26.566   0.442
74017ION    NA+47085  18.539  30.101   4.194
74018ION    NA+47086   2.335   1.507   1.495
74019ION    NA+47087  16.290  26.133   3.143
74020ION    NA+47088   0.235  41.837   1.649
74021ION    NA+47089  37.507  16.655   1.343
74022ION    NA+47090   3.742  20.802  14.772
74023ION    NA+47091  36.023  39.605  13.801
74024ION    NA+47092   2.152  34.820   3.759
74025ION    NA+47093  19.517  17.825   4.567
74026ION    NA+47094  11.563   6.886   2.904
74027ION    NA+47095  43.073  35.190  14.524
74028ION    NA+47096  15.388  15.383  10.817
74029ION    NA+47097  20.606  40.703   2.406
74030ION    NA+47098  33.089  21.068  14.888
74031ION    NA+47099  41.338  12.331   3.521
74032ION    NA+47100   6.430   4.637   1.892
74033ION    NA+47101  43.562  32.955  12.460
74034ION    NA+47102  27.196   1.077  13.909
74035ION    NA+47103  12.935  41.808  14.489
74036ION    NA+47104  34.543  34.424  12.975
74037ION    NA+47105  23.578  18.308   2.345
74038ION    NA+47106  17.212   3.961  13.941
74039ION    NA+47107   7.328   0.583   2.762
74040ION    NA+47108  33.870   2.378   4.985
74041ION    NA+47109  41.455  38.003   0.658
74042ION    NA+47110  10.486  15.625  13.556
74043ION    NA+47111  19.329  42.145  12.793
74044ION    NA+47112  11.628  14.513  12.061
74045ION    NA+47113  40.322  29.257   3.758
74046ION    NA+47114  29.429  30.945   1.537
74047ION    NA+47115   0.046   5.048   2.877
74048ION    NA+47116  30.331  44.926  12.246
74049ION    NA+47117   9.918  10.181   0.211
74050ION    NA+47118   6.873  43.685  14.897
74051ION    NA+47119   5.244  32.938   2.719
74052ION    NA+47120  28.533  39.637   3.824
74053ION    NA+47121  31.438   4.677  14.053
74054ION    NA+47122  23.396  37.480   5.388
74055ION    NA+47123  23.131  44.780  11.630
74056ION    NA+47124  22.362  20.340  14.436
74057ION    NA+47125  16.875  35.575  12.142
74058ION    NA+47126  26.868  12.438  10.342
74059ION    NA+47127  29.752  18.078  14.732
74060ION    NA+47128  30.393  41.275  12.152
74061ION    NA+47129  20.062  30.366  12.012
74062ION    NA+47130  27.678  34.094  14.839
74063ION    NA+47131  24.040  26.011  13.544
74064ION    NA+47132  38.136  27.610   0.424
74065ION    NA+47133  39.184  14.796   2.858
74066ION    NA+47134  15.388  36.461  11.025
74067ION    NA+47135  30.532  30.200  10.718
74068ION    NA+47136  43.268  20.821  10.459
74069ION    NA+47137  35.145  11.850   2.412
74070ION    NA+47138   7.692   2.872   2.662
74071ION    NA+47139  39.005  29.547   1.695
74072ION    NA+47140   2.967  21.500   3.371
74073ION    NA+47141   7.609  30.476   2.725
74074ION    NA+47142  35.217   8.577   1.566
74075ION    NA+47143  15.102  22.840  11.212
74076ION    NA+47144  30.762   2.621  12.048
74077ION    NA+47145  37.944   1.645   4.003
74078ION    NA+47146  29.142  20.089  11.364
74079ION    NA+47147   6.745  18.251  11.622
74080ION    NA+47148  26.489   7.703   1.277
74081ION    NA+47149  44.063   1.989  12.290
74082ION    NA+47150  13.338  21.071  13.444
74083ION    NA+47151   2.457   3.926  10.765
74084ION    NA+47152   0.321  37.959   3.108
74085ION    NA+47153  36.121  24.292  11.393
74086ION    NA+47154  41.807  44.598  10.441
74087ION    NA+47155  22.779   9.285   4.715
74088ION    NA+47156  40.884  41.416   3.749
74089ION    NA+47157   1.466  38.959  13.973
74090ION    NA+47158  22.084   2.766  11.664
74091ION    NA+47159   3.716   0.572   2.721
74092ION    NA+47160  39.930  18.343   3.410
74093ION    NA+47161  15.064   0.732   3.658
74094ION    NA+47162   4.433  44.885   1.898
74095ION    NA+47163  15.719  41.331  11.896
74096ION    NA+47164  16.560  25.997   4.432
74097ION    NA+47165   4.441  28.909   3.807
74098ION    NA+47166  10.225  24.470  13.472
74099ION    NA+47167  32.240   8.249   2.646
74100ION    NA+47168  31.746  42.492   3.245
74101ION    NA+47169  23.694  11.914  14.300
74102ION    NA+47170   4.988  23.754   0.729
74103ION    NA+47171  40.532   5.702   2.870
74104ION    NA+47172  30.063  29.992  11.889
74105ION    NA+47173  24.526  15.623  12.445
74106ION    NA+47174  22.087  28.961  11.210
74107ION    NA+47175  10.182  38.378  10.653
74108ION    NA+47176  36.348  44.460  14.815
74109ION    NA+47177  26.793  41.294  13.481
74110ION    NA+47178  31.868  22.347  14.441
74111ION    NA+47179   7.706  21.371  13.244
74112ION    NA+47180   6.446  36.323   4.228
74113ION    NA+47181  23.858  20.602  10.595
74114ION    NA+47182   6.947  32.931  10.706
74115ION    NA+47183  20.822  30.715  12.612
74116ION    NA+47184  36.544  43.901  10.667
74117ION    NA+47185  42.430  12.189   0.441
74118ION    NA+47186   1.218  38.161   1.887
74119ION    NA+47187  15.103   1.089   4.494
74120ION    NA+47188   0.203  23.137   4.578
74121ION    NA+47189  33.782   0.642  14.629
74122ION    NA+47190   1.242  34.386  12.887
74123ION    NA+47191  22.689  24.979  14.473
74124ION    NA+47192   1.754  22.275   1.015
74125ION    NA+47193  39.119  18.227  14.297
74126ION    NA+47194   0.361  42.993  10.991
74127ION    NA+47195   0.751  18.648   3.276
74128ION    NA+47196  29.255  44.520  14.424
74129ION    NA+47197  21.482  22.912   0.587
74130ION    NA+47198   9.294  41.785   1.733
74131ION    NA+47199  18.395  11.580  10.039
74132ION    NA+47200  26.434  11.008   2.532
74133ION    NA+47201  36.583  18.539   2.314
74134ION    NA+47202  30.064  12.598  11.946
74135ION    NA+47203  30.740  10.561  10.890
74136ION    CL-47204  33.094  41.756   4.084
74137ION    CL-47205  13.647  37.048   3.504
74138ION    CL-47206  42.388  20.567  14.892
74139ION    CL-47207  43.848  23.464   0.388
74140ION    CL-47208  38.923  18.097  13.867
74141ION    CL-47209  28.799  10.396  11.324
74142ION    CL-47210  36.322  26.523   2.845
74143ION    CL-47211  14.011  21.348  11.258
74144ION    CL-47212  18.649  27.650   3.110
74145ION    CL-47213  28.379  44.840  13.420
74146ION    CL-47214  32.242   1.187  12.101
74147ION    CL-47215  23.948  36.306  14.290
74148ION    CL-47216   6.727  15.787  13.250
74149ION    CL-47217  15.794  26.619   4.964
74150ION    CL-47218  32.135  10.999  13.956
74151ION    CL-47219  44.990  11.824  10.692
74152ION    CL-47220  41.819  11.892   1.351
74153ION    CL-47221  43.427  24.198  13.944
74154ION    CL-47222  36.217   6.800   2.334
74155ION    CL-47223   1.931  22.912  12.281
74156ION    CL-47224   4.943  29.947   0.370
74157ION    CL-47225  13.833  22.464   1.919
74158ION    CL-47226  26.387   6.924   0.785
74159ION    CL-47227  41.004  38.890  12.439
74160ION    CL-47228  17.535  37.492  12.635
74161ION    CL-47229  35.167  24.835   0.537
74162ION    CL-47230   1.371   6.376   4.229
74163ION    CL-47231  15.602   6.744  12.475
74164ION    CL-47232   6.586  39.161   5.344
74165ION    CL-47233  24.671  36.832  14.469
74166ION    CL-47234   5.492  32.777   1.645
74167ION    CL-47235  23.937  20.900  14.933
74168ION    CL-47236   3.384  24.038  11.163
74169ION    CL-47237   5.934   6.273  13.914
74170ION    CL-47238  17.746  39.860   1.883
74171ION    CL-47239  41.189  16.162   9.581
74172ION    CL-47240   1.496  24.135   0.968
74173ION    CL-47241  28.983  14.491  14.901
74174ION    CL-47242   4.969  38.583  13.681
74175ION    CL-47243  39.607  31.731  11.633
74176ION    CL-47244  25.547  22.306   1.386
74177ION    CL-47245  41.056   5.574   4.734
74178ION    CL-47246   7.894  39.827   0.357
74179ION    CL-47247  40.937  33.896  10.939
74180ION    CL-47248  14.332  39.858   3.034
74181ION    CL-47249  29.333  20.082  10.962
74182ION    CL-47250  24.237  42.976   3.197
74183ION    CL-47251  39.946  33.602   3.154
74184ION    CL-47252  40.861   0.457  10.628
74185ION    CL-47253  39.472  35.086  10.738
74186ION    CL-47254  19.735   2.290  13.950
74187ION    CL-47255  41.703  38.767  12.993
74188ION    CL-47256   5.937  44.702  12.944
74189ION    CL-47257   7.106   0.066  12.865
74190ION    CL-47258  33.282   7.379  10.452
74191ION    CL-47259  29.477  41.679   2.011
74192ION    CL-47260  15.299  12.521  11.834
74193ION    CL-47261   3.052   4.278   1.435
74194ION    CL-47262  28.245  13.526   0.568
74195ION    CL-47263  30.199  36.878   5.058
74196ION    CL-47264  20.313  15.855   0.241
74197ION    CL-47265  23.230  35.615   0.983
74198ION    CL-47266   5.330  40.936   2.825
74199ION    CL-47267  19.058  19.074   0.875
74200ION    CL-47268  44.108  25.405  14.946
74201ION    CL-47269  19.838  44.337   0.849
74202ION    CL-47270   0.580  26.733   1.237
74203ION    CL-47271  42.470  15.248   3.624
74204ION    CL-47272   1.654  32.062  12.363
74205ION    CL-47273  15.170  25.459  11.708
74206ION    CL-47274   0.607  12.423  13.329
74207ION    CL-47275  40.243   5.623   4.302
74208ION    CL-47276  42.037  42.506  12.047
74209ION    CL-47277  43.315  28.133   0.049
74210ION    CL-47278  18.543  12.800  11.826
74211ION    CL-47279  13.635  37.719  12.915
74212ION    CL-47280  36.427  44.472   0.255
74213ION    CL-47281  10.999   5.584   2.824
74214ION    CL-47282  30.415  44.924   1.494
74215ION    CL-47283  31.373  29.181   3.567
74216ION    CL-47284  30.678   1.768  11.510
74217ION    CL-47285  22.566  26.612   5.220
74218ION    CL-47286  19.669  38.841  14.104
74219ION    CL-47287  16.375  39.107  10.710
74220ION    CL-47288   1.193  14.720   0.532
74221ION    CL-47289  18.596  12.550   4.568
74222ION    CL-47290   5.714  39.998  11.301
74223ION    CL-47291  34.044  21.158  13.893
74224ION    CL-47292  14.754   4.924  11.956
74225ION    CL-47293  10.897  14.570   1.329
74226ION    CL-47294   5.852  14.280  13.071
74227ION    CL-47295   8.965   5.131  11.099
74228ION    CL-47296   7.084  38.501   4.933
74229ION    CL-47297   9.101  15.363   0.683
74230ION    CL-47298  29.728  17.221   2.502
74231ION    CL-47299  42.918  44.796  12.609
74232ION    CL-47300  19.960  32.467   2.758
74233ION    CL-47301  10.938  32.990   0.366
74234ION    CL-47302  36.361  18.454   0.374
74235ION    CL-47303  38.396  15.114   0.968
74236ION    CL-47304  33.441  25.499  13.296
74237ION    CL-47305  37.795  13.380   1.756
74238ION    CL-47306  37.281  38.267   4.301
74239ION    CL-47307  31.768  41.962   4.669
74240ION    CL-47308  42.861  12.299   0.393
74241ION    CL-47309  11.732  25.445   2.837
74242ION    CL-47310  36.891  19.980  13.808
74243ION    CL-47311   7.872  44.930   5.109
74244ION    CL-47312  19.322  31.210  10.445
74245ION    CL-47313  40.571  41.271   1.353
74246ION    CL-47314  40.360  28.854  11.716
74247ION    CL-47315  25.490  43.885   0.230
74248ION    CL-47316  30.608  25.869   5.072
74249ION    CL-47317  40.875  37.450  14.634
74250ION    CL-47318   1.911   0.547  14.488
74251ION    CL-47319  13.095   4.998   2.842
74252ION    CL-47320  40.120  25.123  13.291
74253ION    CL-47321  37.057  13.096   0.635
74254ION    CL-47322  16.228  38.098  12.012
74255ION    CL-47323  29.054  44.889  12.684
74256ION    CL-47324  11.875  16.135   4.178
74257ION    CL-47325  38.796   4.621   0.318
74258ION    CL-47326  19.690  22.722  13.877
74259ION    CL-47327  37.514  14.893  11.152
74260ION    CL-47328  38.672  30.313   5.112
74261ION    CL-47329  13.989  34.781  10.347
74262ION    CL-47330  35.965   6.513   4.987
74263ION    CL-47331  14.180  25.898  12.985
74264ION    CL-47332   9.344  10.423   1.833
74265ION    CL-47333  26.221  37.759  11.039
74266ION    CL-47334  37.465  39.927  12.074
74267ION    CL-47335  20.075  17.749  11.593
74268ION    CL-47336  28.474  40.479   1.842
74269ION    CL-47337   6.204  40.497  13.979
74270ION    CL-47338   8.179  10.271   1.169
74271ION    CL-47339  39.009  26.544   3.270
74272ION    CL-47340  27.541  37.877  12.869
74273ION    CL-47341   6.729  19.533   1.423
74274ION    CL-47342  32.391  32.493   1.733
74275ION    CL-47343  26.451  11.347  11.084
74276ION    CL-47344   4.783  33.306  11.044
74277ION    CL-47345  14.366  20.843  10.038
74278ION    CL-47346   6.729  19.863  14.593
74279ION    CL-47347  27.662  30.896   0.762
74280ION    CL-47348   3.817  36.900   2.180
74281ION    CL-47349   6.223  25.983  14.637
74282ION    CL-47350  13.680   7.955  14.933
74283ION    CL-47351  40.038  20.638   2.387
74284ION    CL-47352  31.536  31.380  10.305
74285ION    CL-47353  34.162  14.066  14.410
74286ION    CL-47354  40.347  24.632   3.509
74287ION    CL-47355  20.436   5.097   0.375
74288ION    CL-47356  29.234  30.926   1.134
74289ION    CL-47357  25.125   9.744  11.514
74290ION    CL-47358  20.213  13.117   2.782
74291ION    CL-47359  26.679  21.993   3.329
74292ION    CL-47360  33.441  13.622  13.455
74293ION    CL-47361  19.849  26.020   1.900
74294ION    CL-47362  29.042  30.419  11.811
74295ION    CL-47363   8.254  37.265   2.623
74296ION    CL-47364  24.691   9.659   2.198
74297ION    CL-47365  15.761  27.645  10.631
74298ION    CL-47366  22.045   0.288   4.624
74299ION    CL-47367  42.222  11.747  11.636
74300ION    CL-47368  30.025  16.825   0.889
74301ION    CL-47369   1.992   8.741  12.376
74302ION    CL-47370  28.460  22.454   0.085
74303ION    CL-47371   8.377  23.920   5.003
74304ION    CL-47372   7.116  16.608  14.771
74305ION    CL-47373   9.086  13.922  14.736
74306ION    CL-47374  19.542  33.454   0.655
74307ION    CL-47375  21.169  25.327  13.360
74308ION    CL-47376  35.061  38.549  12.592
74309ION    CL-47377  29.597  22.520  12.469
74310ION    CL-47378   5.171  31.998  11.315
74311ION    CL-47379  41.544   8.626  11.697
74312ION    CL-47380  34.732  18.888   2.050
74313ION    CL-47381  14.573  17.296  11.075
74314ION    CL-47382  39.870  12.318   1.803
74315ION    CL-47383   1.302   2.433   2.821
74316ION    CL-47384  27.052  23.298  11.974
74317ION    CL-47385  23.209  42.915   4.102
74318ION    CL-47386  17.753  14.340   1.195
74319ION    CL-47387  31.605   8.826  11.433
74320ION    CL-47388  29.640  20.861  14.168
74321ION    CL-47389  34.098   1.988  12.753
74322ION    CL-47390  42.769  23.436  14.060
74323ION    CL-47391  42.406   8.726  12.956
74324ION    CL-47392  17.294  15.423  14.864
74325ION    CL-47393  27.818  10.089  10.458
74326ION    CL-47394  12.613  17.027  12.661
74327ION    CL-47395   2.665  19.990   0.728
74328ION    CL-47396  20.551  11.264  13.956
74329ION    CL-47397  25.719  39.088  13.250
74330ION    CL-47398  24.449  41.771   0.810
74331ION    CL-47399  29.886  40.918   4.534
74332ION    CL-47400  28.241  14.600  13.508
74333ION    CL-47401   8.261   5.882  13.478
74334ION    CL-47402   5.650  32.909   2.932
74335ION    CL-47403  42.067  37.101   1.363
74336ION    CL-47404  13.361  17.083   0.366
74337ION    CL-47405  37.342   7.446  11.743
74338ION    CL-47406  13.755   4.926  11.997
74339ION    CL-47407   3.338  31.130  13.973
74340ION    CL-47408  32.282  23.641  14.545
74341ION    CL-47409  43.803  15.227  13.569
74342ION    CL-47410  15.061   0.896   4.083
74343ION    CL-47411  10.113  14.735   0.731
74344ION    CL-47412  19.298  10.685   3.311
74345ION    CL-47413  36.216  12.566   0.745
74346ION    CL-47414  33.176  29.129   4.474
74347ION    CL-47415   8.499   8.349   2.162
74348ION    CL-47416  18.407   6.430  12.767
74349ION    CL-47417  42.990  19.142  14.548
74350ION    CL-47418  10.791   1.650   1.349
74351ION    CL-47419  15.607   4.479   3.114
74352ION    CL-47420  39.537   5.178  14.944
74353ION    CL-47421  42.441  42.871   1.509
74354ION    CL-47422  38.971  28.464   2.533
74355ION    CL-47423  43.351  39.293  11.941
74356ION    CL-47424  38.964  26.771   5.142
74357ION    CL-47425  37.286  24.049   3.021
74358ION    CL-47426  27.817  24.302   1.223
74359ION    CL-47427   9.437   7.312  13.548
74360ION    CL-47428  29.462   5.872  11.611
74361ION    CL-47429  30.577  43.899   4.928
74362ION    CL-47430   8.806  35.334  12.349
74363ION    CL-47431   8.483   3.377  12.571
74364ION    CL-47432   8.780  31.987   4.626
74365ION    CL-47433   1.331  44.969  12.946
74366ION    CL-47434  14.325  10.460  12.995
74367ION    CL-47435   5.023  24.204   0.785
74368ION    CL-47436  13.691  34.547   0.859
74369ION    CL-47437  15.165   6.858   4.135
74370ION    CL-47438  23.603  36.929   1.744
74371ION    CL-47439  39.331  38.556   1.741
74372ION    CL-47440  35.842  21.340  12.686
74373ION    CL-47441  44.157  35.929  13.766
74374ION    CL-47442  23.286   8.468  13.993
74375ION    CL-47443  30.114  38.286   0.743
74376ION    CL-47444  24.983  24.031   4.105
74377ION    CL-47445  25.011  30.044   1.000
74378ION    CL-47446   6.791  27.158   3.117
74379ION    CL-47447  28.500  25.289   1.347
74380ION    CL-47448  28.726  27.072   0.077
74381ION    CL-47449   8.629  12.095  14.303
74382ION    CL-47450  32.136  42.584  11.450
74383ION    CL-47451  29.242  24.403  13.622
74384ION    CL-47452  16.350   6.291  14.733
74385ION    CL-47453  39.204   1.055   3.402
74386ION    CL-47454  11.394   3.675  14.469
74387ION    CL-47455  36.837  26.657  11.204
74388ION    CL-47456  14.481   7.786   3.682
74389ION    CL-47457  39.576  18.266   3.132
74390ION    CL-47458  10.939   1.315  13.341
74391ION    CL-47459  33.200  44.280   1.086
74392ION    CL-47460  22.774   9.825   3.546
74393ION    CL-47461  44.568  27.384  13.517
74394ION    CL-47462  16.279   9.444  10.142
74395ION    CL-47463   0.302  31.396   3.719
74396ION    CL-47464   9.811  14.613  11.397
74397ION    CL-47465  11.102  30.200   4.668
74398ION    CL-47466  27.968  42.948   1.772
74399ION    CL-47467  17.586  12.569   9.965
74400ION    CL-47468  12.613  27.210   2.921
74401ION    CL-47469   0.612  36.533   1.164
74402ION    CL-47470  24.100  13.305   1.654
74403ION    CL-47471  22.681   2.214   3.680
74404ION    CL-47472  41.332  40.643   2.250
74405ION    CL-47473  30.420   5.782   2.681
74406ION    CL-47474  16.048  41.515  11.652
74407ION    CL-47475  28.664  15.835   2.932
74408ION    CL-47476  42.831  16.601   9.887
74409ION    CL-47477   2.079  18.211  11.141
74410ION    CL-47478   8.596  26.254   4.654
74411ION    CL-47479   1.442  19.607  11.664
74412ION    CL-47480  43.213  44.875   2.211
74413ION    CL-47481  44.098  43.571   2.419
74414ION    CL-47482  19.488  42.435  12.473
74415ION    CL-47483  14.806  20.771   1.336
74416ION    CL-47484  13.890   6.210  14.697
74417ION    CL-47485  36.435  18.930   2.488
74418ION    CL-47486  40.240  20.010  11.707
74419ION    CL-47487   6.830  19.627  10.640
74420ION    CL-47488   1.027  34.138   1.777
74421ION    CL-47489  31.956  39.294  11.003
74422ION    CL-47490   6.311  37.411   5.121
74423ION    CL-47491  23.436  37.987   2.363
74424ION    CL-47492   5.264   2.001   5.144
74425ION    CL-47493  28.675  41.193  14.433
74426ION    CL-47494  20.550   8.842   3.351
74427ION    CL-47495  14.738  12.896  12.572
74428ION    CL-47496  36.439  31.954  14.710
74429ION    CL-47497  12.417  24.091   2.168
74430ION    CL-47498  44.497  24.266   2.447
74431ION    CL-47499  22.412  41.467  14.835
74432ION    CL-47500  27.411  37.263  11.956
74433ION    CL-47501   9.674  29.252  14.441
74434ION    CL-47502   7.549  12.483  12.466
74435ION    CL-47503  32.829  10.498  13.838
74436ION    CL-47504  19.513   1.207  10.894
74437ION    CL-47505  35.422  41.255  10.625
74438ION    CL-47506  13.885  14.719  12.394
74439ION    CL-47507  13.863   9.833  12.368
74440ION    CL-47508  26.538  44.926   2.087
74441ION    CL-47509  29.186   6.802  12.135
74442ION    CL-47510  26.851  11.979  10.342
74443ION    CL-47511  27.617   0.985   1.863
74444ION    CL-47512  29.087  19.239   1.915
74445ION    CL-47513  17.972  11.369  11.129
74446ION    CL-47514   6.453   4.850   3.329
74447ION    CL-47515  30.641   8.579  12.734
74448ION    CL-47516  39.546  17.852  14.519
74449ION    CL-47517  20.353  39.066   3.375
74450ION    CL-47518  31.797   2.526  11.167
74451ION    CL-47519  14.131  24.629   3.268
74452ION    CL-47520  19.932  24.301  14.444
74453ION    CL-47521   2.351  40.793   1.016
74454ION    CL-47522  17.862  42.834   4.065
74455ION    CL-47523  16.329  21.646  11.986
74456ION    CL-47524   7.057  40.863   0.707
74457ION    CL-47525  19.024  43.285  11.012
74458ION    CL-47526  15.413   8.514   1.413
74459ION    CL-47527  33.859  16.371   5.058
74460ION    CL-47528  29.578  28.948   3.367
74461ION    CL-47529  24.547  17.535  10.939
74462ION    CL-47530  18.112   0.819   1.115
74463ION    CL-47531  33.943  25.845   3.483
74464ION    CL-47532  31.703   1.336   3.178
74465ION    CL-47533  15.152  22.287   3.827
74466ION    CL-47534  19.633  41.580   3.150
74467ION    CL-47535  41.245  16.102   5.270
74468ION    CL-47536  12.861  29.724  13.050
74469ION    CL-47537  37.471  21.741  11.449
74470ION    CL-47538   1.578  21.555  14.580
74471ION    CL-47539  10.677  34.154  10.684
74472ION    CL-47540  19.281  11.902   4.234
74473ION    CL-47541   1.230  25.694  13.393
74474ION    CL-47542   9.065  29.522   4.631
74475ION    CL-47543  22.731  21.471  12.020
74476ION    CL-47544  34.319  23.068  10.675
74477ION    CL-47545  35.856  18.421  13.222
74478ION    CL-47546  17.773  26.229   4.079
74479ION    CL-47547  18.515  39.028   1.954
74480ION    CL-47548  26.076  33.033   3.917
74481ION    CL-47549  12.273  31.059  14.528
74482ION    CL-47550  21.456  11.701   5.053
74483ION    CL-47551  34.138  11.472   0.620
74484ION    CL-47552   0.593   7.351  14.879
74485ION    CL-47553   6.950  26.868  14.874
74486ION    CL-47554  35.967   9.407  14.440
74487ION    CL-47555  31.383  19.307  11.053
74488ION    CL-47556  12.698  12.235  14.499
74489ION    CL-47557  37.914   3.695   2.862
74490ION    CL-47558  21.215  15.580   1.649
74491ION    CL-47559  22.652   7.354   4.143
74492ION    CL-47560  14.124  21.087   0.266
74493ION    CL-47561  28.161  37.442   3.000
74494ION    CL-47562   3.514  31.327  12.691
74495ION    CL-47563   8.729  35.628   3.560
74496ION    CL-47564  18.214  28.597   3.328
74497ION    CL-47565  15.363  37.814  11.158
74498ION    CL-47566  22.998  44.236   0.873
74499ION    CL-47567   5.342  30.435   1.398
74500ION    CL-47568  36.919  15.644  10.865
74501ION    CL-47569   9.406  15.069  10.727
74502ION    CL-47570  13.135  10.867  14.832
74503ION    CL-47571  12.358  10.796   0.157
74504ION    CL-47572  22.621  18.176  10.606
74505ION    CL-47573  32.185  26.212  10.613
74506ION    CL-47574  34.155   5.649  14.780
74507ION    CL-47575   9.787  24.483  13.379
74508ION    CL-47576   4.102  27.614   2.881
74509ION    CL-47577  20.316  18.590   1.058
74510ION    CL-47578  14.188   5.653  13.343
74511ION    CL-47579  32.852  16.635  13.245
74512ION    CL-47580  18.305  16.023  13.040
74513ION    CL-47581  40.240  19.499  12.959
74514ION    CL-47582  25.188  27.864  13.390
74515ION    CL-47583  14.923  33.381  12.552
74516ION    CL-47584  37.561  22.727  10.536
74517ION    CL-47585  29.715  41.011   1.490
74518ION    CL-47586  23.657  27.171  14.731
74519ION    CL-47587  12.747  35.544   2.724
74520ION    CL-47588  24.761   9.754  12.472
74521ION    CL-47589  40.564  43.985  14.196
74522ION    CL-47590  14.420  42.672   4.519
74523ION    CL-47591  32.106  16.674   2.820
74524ION    CL-47592  36.840  21.090   3.475
74525ION    CL-47593  26.292   7.379   2.603
74526ION    CL-47594  12.216  32.988  14.721
74527ION    CL-47595  44.964  36.329   1.911
74528ION    CL-47596  39.502  10.256   1.378
74529ION    CL-47597  38.917  26.132   4.242
74530ION    CL-47598  14.394  29.770  12.533
74531ION    CL-47599  24.727   4.532  10.628
74532ION    CL-47600   1.227  36.565  14.583
74533ION    CL-47601  11.750  44.370   3.338
74534ION    CL-47602  44.827  43.869  14.844
74535ION    CL-47603  36.519  32.881   2.129
74536ION    CL-47604  33.527  21.768   4.108
74537ION    CL-47605  27.956  22.131   2.257
74538ION    CL-47606  12.074  23.776   0.042
74539ION    CL-47607  38.790   1.968   4.657
74540ION    CL-47608  18.492  33.446   0.745
74541ION    CL-47609  23.187   6.198   3.345
74542ION    CL-47610   1.729  38.646  13.789
74543ION    CL-47611  43.518  37.038   1.055
74544ION    CL-47612   1.404  24.344  12.860
74545ION    CL-47613  14.445  26.504   3.634
74546ION    CL-47614  22.682  29.024   1.687
74547ION    CL-47615  26.523  27.044  11.367
74548ION    CL-47616  38.895  41.010  13.428
74549ION    CL-47617  18.617  17.517   2.738
74550ION    CL-47618  39.000  18.603  14.544
74551ION    CL-47619  16.184  22.239   2.809
74552ION    CL-47620   1.193  20.229  11.091
74553ION    CL-47621  34.579  15.381  14.468
74554ION    CL-47622  14.925  21.090  10.946
74555ION    CL-47623  35.126  22.311  14.533
74556ION    CL-47624  29.654  41.767  14.910
74557ION    CL-47625  36.180  27.001  14.545
74558ION    CL-47626   2.280  27.213  12.368
74559ION    CL-47627  43.254  10.344  14.332
74560ION    CL-47628  24.519  16.194  10.965
74561ION    CL-47629   9.436   4.799   2.807
74562ION    CL-47630   9.319  17.392  11.106
74563ION    CL-47631  17.698   6.459  12.953
74564ION    CL-47632  12.151  13.675   2.967
74565ION    CL-47633  36.848  22.788  10.089
74566ION    CL-47634  43.492   3.226   0.384
74567ION    CL-47635  38.509  18.785  12.212
74568ION    CL-47636  13.238  17.805   3.684
74569ION    CL-47637  43.982  26.563   3.222
74570ION    CL-47638   1.483  30.341   4.099
74571ION    CL-47639  27.153   8.696  10.738
74572ION    CL-47640  38.415   2.853  14.413
74573ION    CL-47641  38.817   9.171  12.062
74574ION    CL-47642   3.675  37.929  11.759
74575ION    CL-47643  22.120  31.535   2.329
74576ION    CL-47644  18.470   0.920   4.030
74577ION    CL-47645  21.218   1.042  11.935
74578ION    CL-47646  40.304  28.466  12.999
74579ION    CL-47647  35.395  43.436  10.869
74580ION    CL-47648  25.757  19.109   1.594
74581ION    CL-47649  10.499  11.222  10.272
74582ION    CL-47650  18.006  32.660   1.834
74583ION    CL-47651  41.627  27.049   1.690
74584ION    CL-47652  17.371  43.741   3.362
74585ION    CL-47653  39.616   3.301   2.384
74586ION    CL-47654  29.172  33.940  14.122
74587ION    CL-47655   4.972  29.443   2.722
74588ION    CL-47656  41.284  39.824   2.821
74589ION    CL-47657   9.965  43.073   4.204
74590ION    CL-47658  35.489  40.449  13.447
74591ION    CL-47659  26.330  22.657   4.710
74592ION    CL-47660   1.627  15.255  12.832
74593ION    CL-47661  35.592  10.503   0.349
74594ION    CL-47662   0.226  21.801   5.103
74595ION    CL-47663  42.139   7.989  13.578
74596ION    CL-47664  44.305  36.105   2.932
74597ION    CL-47665  31.581  15.869  13.947
74598ION    CL-47666   0.215  13.838   1.405
74599ION    CL-47667  25.704  16.718  10.822
74600ION    CL-47668   2.552  31.201  11.155
74601ION    CL-47669   1.116  21.725  13.341
74602ION    CL-47670  40.446  36.617   3.646
74603ION    CL-47671  27.879  20.997  11.609
74604ION    CL-47672  38.339  12.882   0.740
74605ION    CL-47673  43.908   7.862   3.375
74606ION    CL-47674  37.690   5.223   2.579
74607ION    CL-47675  29.190  36.095   0.061
74608ION    CL-47676  25.140  18.417   0.194
74609ION    CL-47677  30.825   0.451  13.346
74610ION    CL-47678   3.186  27.936   3.119
74611ION    CL-47679  18.923   0.728   0.713
74612ION    CL-47680  36.986  11.942  12.495
74613ION    CL-47681  29.366  13.411   2.417
74614ION    CL-47682  32.853  18.980   0.804
74615ION    CL-47683  41.447   8.788  12.679
74616ION    CL-47684  26.019  31.471   1.773
74617ION    CL-47685  27.290  11.038  13.958
74618ION    CL-47686  12.637  21.396   2.012
74619ION    CL-47687  42.332   8.921   3.380
74620ION    CL-47688   9.589   0.504  14.272
74621ION    CL-47689  41.553   8.600   4.985
74622ION    CL-47690   7.957  26.289   0.922
74623ION    CL-47691   3.497   2.947   4.947
74624ION    CL-47692  40.345  24.198   0.624
74625ION    CL-47693  18.321  30.594  12.296
74626ION    CL-47694  44.325   8.875  12.457
74627ION    CL-47695  38.097  37.393  11.419
74628ION    CL-47696   1.467  43.909  13.763
74629ION    CL-47697  40.532  11.206  12.473
74630ION    CL-47698  14.646   8.696  14.725
74631ION    CL-47699   0.354  35.413   0.219
74632ION    CL-47700  41.041  15.987  13.029
74633ION    CL-47701  13.175  18.132  12.878
74634ION    CL-47702  35.885  35.889  13.928
74635ION    CL-47703  33.303  28.193  14.813
74636ION    CL-47704  38.033  14.365   2.584
74637ION    CL-47705  18.150  11.199  10.147
74638ION    CL-47706  28.567  41.877  11.993
74639ION    CL-47707  12.865  22.282   2.416
74640ION    CL-47708   3.893  31.871  13.266
74641ION    CL-47709  17.997  35.803  13.403
74642ION    CL-47710  21.147  36.225   0.323
74643ION    CL-47711  35.171  10.888   3.114
74644ION    CL-47712   3.380   3.729   4.711
74645ION    CL-47713   7.803   0.581   4.807
74646ION    CL-47714  22.791  22.161  14.833
74647ION    CL-47715  10.271  13.806  12.415
74648ION    CL-47716  35.072  14.630   1.811
74649ION    CL-47717   4.327  44.501   2.102
74650ION    CL-47718  31.179  37.482   0.838
74651ION    CL-47719  16.068  28.636   1.274
74652ION    CL-47720  10.318  44.823  14.195
74653ION    CL-47721   4.941  23.300   0.720
74654ION    CL-47722  31.042  12.195   3.329
74655ION    CL-47723  42.627  44.981   0.539
74656ION    CL-47724  14.006  19.744  12.378
74657ION    CL-47725  20.020  12.532  11.796
74658ION    CL-47726  31.615  12.833  11.969
74659ION    CL-47727  35.435   2.820   0.784
74660ION    CL-47728  15.390   2.305  12.411
74661ION    CL-47729  18.188  39.068  11.983
74662ION    CL-47730  40.680  32.412   4.774
74663ION    CL-47731  39.766   8.848  10.491
74664ION    CL-47732  26.554  12.774  10.295
74665ION    CL-47733  18.074  37.436  12.275
74666ION    CL-47734  36.203  11.276   0.179
74667ION    CL-47735   7.273  43.753  11.181
74668ION    CL-47736  24.189   4.366   2.830
74669ION    CL-47737  36.558  15.152  12.852
74670ION    CL-47738   3.264  31.917  12.659
74671ION    CL-47739   5.256  22.336   3.614
74672ION    CL-47740  21.723  28.466   0.855
74673ION    CL-47741  35.146  25.718  12.020
74674ION    CL-47742  39.186  32.958  11.041
74675ION    CL-47743  31.085  33.075  12.638
74676ION    CL-47744  35.875  38.214  10.795
74677ION    CL-47745   1.107  16.561   2.911
74678ION    CL-47746   7.255   8.662  14.882
74679ION    CL-47747   7.214   8.940  10.407
74680ION    CL-47748  31.785  18.978   3.252
74681ION    CL-47749  29.871  13.090   3.019
74682ION    CL-47750  32.881   9.539  14.117
74683ION    CL-47751  15.140  28.205  11.660
74684ION    CL-47752   6.161  31.435   2.657
74685ION    CL-47753  42.629  20.648   5.152
74686ION    CL-47754  35.938  39.315   4.729
74687ION    CL-47755  35.174   7.805  13.140
74688ION    CL-47756  24.863  10.200  14.150
74689ION    CL-47757  16.376  26.389  12.974
74690ION    CL-47758   0.064  41.725   1.224
74691ION    CL-47759  41.839  17.562  13.006
74692ION    CL-47760  21.210  14.917   9.753
74693ION    CL-47761  14.384  38.456  13.057
74694ION    CL-47762  14.405  15.300   1.960
74695ION    CL-47763  13.561  25.428  10.842
74696ION    CL-47764  14.026  12.582   1.839
74697ION    CL-47765  31.223   0.211  10.368
74698ION    CL-47766  23.637  23.023   1.948
74699ION    CL-47767   4.359  19.038  12.793
74700ION    CL-47768   0.945  16.547  14.945
74701ION    CL-47769  39.621  42.238   0.066
74702ION    CL-47770  37.309  11.794   1.946
74703ION    CL-47771  19.162  26.754  13.965
74704ION    CL-47772  13.266  30.515  13.249
74705ION    CL-47773  36.483  22.061  12.950
74706ION    CL-47774  25.582   0.456   3.945
74707ION    CL-47775  43.049  21.202  14.478
74708ION    CL-47776   8.306  14.184  12.836
74709ION    CL-47777   4.252  25.614  12.101
74710ION    CL-47778   2.342   9.259   3.190
74711ION    CL-47779   7.435  32.089   3.364
74712ION    CL-47780   8.715   9.415  12.542
74713ION    CL-47781   4.870  21.710  11.051
74714ION    CL-47782  13.732  25.021  13.812
74715ION    CL-47783   5.136  42.306   0.881
74716ION    CL-47784  14.351   7.007  14.307
74717ION    CL-47785  20.754  28.504   4.552
74718ION    CL-47786  18.666  14.499  10.800
74719ION    CL-47787  12.608  22.406   4.295
74720ION    CL-47788   9.434  31.031   0.478
74721ION    CL-47789  38.251  39.268  14.738
74722ION    CL-47790  44.337  35.724   1.404
74723ION    CL-47791  44.189  41.195  12.145
74724ION    CL-47792  34.636  17.714   3.696
74725ION    CL-47793   9.446  44.171  11.644
74726ION    CL-47794  25.099  14.773   0.037
74727ION    CL-47795  10.037   2.165   3.834
74728ION    CL-47796   1.818   2.867  11.031
74729ION    CL-47797  37.175  28.981  14.103
74730ION    CL-47798  35.072  42.980   2.863
74731ION    CL-47799  31.937   3.384   9.975
74732ION    CL-47800   1.094  20.088   1.267
74733ION    CL-47801  32.038  21.602  11.499
74734ION    CL-47802  23.449  26.910   2.579
74735ION    CL-47803  22.294  16.421  13.748
74736ION    CL-47804  37.195  42.285   5.191
74737ION    CL-47805  35.054  14.206  12.532
74738ION    CL-47806   0.732  36.608   3.384
74739ION    CL-47807  22.636   9.156  12.426
74740ION    CL-47808   0.532  18.093  13.478
74741ION    CL-47809  12.482  16.315   5.345
74742ION    CL-47810  29.222  23.938  12.000
74743ION    CL-47811  36.240  39.729   2.091
74744ION    CL-47812  36.766  28.617   2.772
74745ION    CL-47813  12.857  43.717  11.898
74746ION    CL-47814   6.871  36.499  14.505
74747ION    CL-47815   1.732  12.182   3.288
74748ION    CL-47816   7.308  24.524   2.342
74749ION    CL-47817   3.054  33.236  13.116
74750ION    CL-47818  22.357  37.421   0.653
74751ION    CL-47819  35.661   1.349   3.359
74752ION    CL-47820  29.404  22.564   4.909
74753ION    CL-47821  12.860  30.706  12.006
74754ION    CL-47822  11.459  32.527  14.566
74755ION    CL-47823  12.675  32.532  10.895
74756ION    CL-47824  36.854  22.934   1.738
74757ION    CL-47825  26.062  36.227  10.402
74758ION    CL-47826   8.286  42.372  10.699
74759ION    CL-47827  27.225  25.655  11.274
74760ION    CL-47828  33.011  10.741   1.492
74761ION    CL-47829  41.304  24.314   5.106
74762ION    CL-47830  44.619  24.963   4.232
74763ION    CL-47831  18.655  16.898  10.910
74764ION    CL-47832  37.659  16.658   4.351
74765ION    CL-47833  43.377  42.268   0.580
74766ION    CL-47834  38.223   0.400   4.096
74767ION    CL-47835  37.105  14.750   2.780
74768ION    CL-47836  36.790  41.072   1.378
74769ION    CL-47837  10.739  20.186   2.023
74770ION    CL-47838  20.614  32.809  10.497
74771ION    CL-47839  36.491   7.854  11.041
74772ION    CL-47840  15.695  19.115   3.583
74773ION    CL-47841   6.363  33.144   2.233
74774ION    CL-47842  36.441   7.699   0.501
74775ION    CL-47843  12.248  12.408  12.882
74776ION    CL-47844  16.228  39.398   2.075
74777ION    CL-47845   3.971  29.785  11.023
74778ION    CL-47846  12.095  11.626   1.747
74779ION    CL-47847  18.455  21.597  14.597
74780ION    CL-47848  41.257  27.645   0.341
74781ION    CL-47849  38.869  16.697   1.191
74782ION    CL-47850  10.428  27.728  12.922
74783ION    CL-47851  14.311  29.367  10.517
74784ION    CL-47852  35.035  17.155   1.820
74785ION    CL-47853  38.613   9.694   3.675
74786ION    CL-47854  33.945  27.413   1.671
74787ION    CL-47855  25.491   1.147   3.228
74788ION    CL-47856  38.848  34.364  11.937
74789ION    CL-47857  19.612  28.746   2.486
74790ION    CL-47858  44.739  12.713   1.669
74791ION    CL-47859  13.433  20.345  10.925
74792ION    CL-47860   3.913   1.793   4.110
74793ION    CL-47861   4.993  20.304  14.313
74794ION    CL-47862  33.144  37.284   3.637
74795ION    CL-47863  36.441  31.130  14.838
74796ION    CL-47864  43.165   8.185   5.042
74797ION    CL-47865   5.897  12.014  14.441
74798ION    CL-47866  38.271  20.090   0.691
74799ION    CL-47867  13.289  27.725  12.425
74800ION    CL-47868  27.982  24.879  14.383
74801ION    CL-47869  42.989  23.775  12.800
74802ION    CL-47870  22.357  42.746   2.850
74803ION    CL-47871  36.622  42.047  12.083
74804ION    CL-47872  39.309  21.156   0.005
74805ION    CL-47873   4.964  22.431  14.277
74806ION    CL-47874  35.430  21.229   1.023
74807ION    CL-47875   0.531  29.441   2.188
74808ION    CL-47876  32.552  35.835   0.485
74809ION    CL-47877  25.033  34.338   2.399
74810ION    CL-47878  38.609   7.716  10.425
74811ION    CL-47879  27.225   8.014   2.719
74812ION    CL-47880  41.065   3.354  14.623
74813ION    CL-47881  16.377   3.636   4.322
74814ION    CL-47882  17.554  25.126  14.563
74815ION    CL-47883  32.038   6.951  13.597
74816ION    CL-47884  31.702  34.451   2.060
74817ION    CL-47885  32.223  16.733  11.475
74818ION    CL-47886  21.777  28.658  11.095
74819ION    CL-47887  40.318  31.602   0.382
74820ION    CL-47888  39.095  42.972   2.665
74821ION    CL-47889  28.670  25.664   2.812
74822ION    CL-47890  27.067  35.552  11.070
74823ION    CL-47891   6.731   4.962   2.000
74824ION    CL-47892   3.030  11.104   3.466
74825ION    CL-47893   4.831  38.580   0.674
74826ION    CL-47894  25.578  29.529  13.604
74827ION    CL-47895  42.699  24.988   1.806
74828ION    CL-47896  33.147  42.960  14.995
74829ION    CL-47897  32.930  34.209   3.952
74830ION    CL-47898  29.813  17.015  12.453
74831ION    CL-47899  32.677  19.178  10.727
74832ION    CL-47900  31.906  37.383   3.004
74833ION    CL-47901   5.141  28.645  13.329
74834ION    CL-47902   3.705  14.289   4.062
74835ION    CL-47903   2.490  21.579  14.008
74836ION    CL-47904   1.775   9.936  13.956
74837ION    CL-47905  25.985  38.204  13.632
74838ION    CL-47906   0.284  41.388  13.052
74839ION    CL-47907   7.723  13.383  14.445
74840ION    CL-47908  35.832  23.620   3.183
74841ION    CL-47909  23.679   5.183   4.187
74842ION    CL-47910   6.289  41.767  13.987
74843ION    CL-47911  44.912  38.496   0.921
74844ION    CL-47912  32.203   4.287  11.141
74845ION    CL-47913  16.555  23.221   2.876
74846ION    CL-47914  16.036   2.004  13.861
74847ION    CL-47915  44.395   7.394  11.518
74848ION    CL-47916  24.445   5.606  14.142
74849ION    CL-47917   0.964   2.074  13.255
74850ION    CL-47918  27.126   8.921  13.916
74851ION    CL-47919  44.949  33.857   2.165
74852ION    CL-47920  32.921  25.399   4.549
74853ION    CL-47921  11.274  33.513  12.767
74854ION    CL-47922  29.985  31.059   4.399
74855ION    CL-47923  11.222  12.428  11.543
74856ION    CL-47924  25.506  31.763   4.047
74857ION    CL-47925  42.587   9.654   4.076
74858ION    CL-47926  27.373  38.965   4.145
74859ION    CL-47927  31.440   8.858  10.354
74860ION    CL-47928  26.681  15.842   2.193
74861ION    CL-47929   4.906  32.785   2.456
74862ION    CL-47930  27.395  20.130   1.756
74863ION    CL-47931   1.598  38.249   3.216
74864ION    CL-47932  37.516  30.016   1.312
74865ION    CL-47933  20.578  43.662  13.229
74866ION    CL-47934  37.875   1.972   1.737
74867ION    CL-47935  30.367  12.579  11.616
74868ION    CL-47936  14.644  18.344   1.424
74869ION    CL-47937  29.272  15.386   4.568
74870ION    CL-47938   4.144  20.996  12.071
74871ION    CL-47939  19.857   0.333   0.938
74872ION    CL-47940  13.055  29.819   2.371
74873ION    CL-47941  14.342   3.013   0.753
74874ION    CL-47942  16.615   0.772   2.690
74875ION    CL-47943  37.219  26.049   0.494
74876ION    CL-47944   5.225   9.414  14.041
74877ION    CL-47945  11.946  42.309   4.174
74878ION    CL-47946  31.360  34.321   2.853
74879ION    CL-47947   8.368  29.436   1.613
74880ION    CL-47948  18.964  14.784   0.795
74881ION    CL-47949  12.104  17.908  12.507
74882ION    CL-47950  29.462   1.454  10.728
74883ION    CL-47951  21.805   7.641  11.111
74884ION    CL-47952  29.149  10.650   1.678
74885ION    CL-47953  19.504  20.250  12.979
74886ION    CL-47954  15.488  22.866  11.436
74887ION    CL-47955  33.354  31.393  13.603
74888ION    CL-47956   2.769  36.477  11.386
74889ION    CL-47957  32.050  43.917  13.563
74890ION    CL-47958  44.783  40.641   4.054
74891ION    CL-47959  12.522  27.429   1.314
74892ION    CL-47960   5.413  36.055  11.368
74893ION    CL-47961  13.493  21.261  13.832
74894ION    CL-47962   1.424   2.301  14.438
74895ION    CL-47963  15.338  10.097   3.693
74896ION    CL-47964  13.054   3.955   2.926
74897ION    CL-47965   2.881  36.566   2.594
74898ION    CL-47966   3.260  35.382  11.980
74899ION    CL-47967  32.728  37.603  11.899
74900ION    CL-47968   8.743  14.124   0.551
74901ION    CL-47969  43.782  21.697   0.781
74902ION    CL-47970  13.633  27.568   4.530
74903ION    CL-47971  34.028  37.567   2.678
74904ION    CL-47972  26.104  20.785   2.553
74905ION    CL-47973   9.832  15.636   2.224
74906ION    CL-47974  11.363  16.123   3.258
74907ION    CL-47975  34.781  10.461  14.765
74908ION    CL-47976  25.150   0.347   1.845
74909ION    CL-47977  11.734  43.464   2.822
74910ION    CL-47978  33.675  19.739  12.778
74911ION    CL-47979  17.875  10.644  12.659
74912ION    CL-47980  40.965  11.270   0.808
74913ION    CL-47981  38.418  14.607  12.179
74914ION    CL-47982  25.442  28.652   3.300
74915ION    CL-47983  17.615  24.678   4.079
74916ION    CL-47984  28.963  17.428   2.481
74917ION    CL-47985   8.173  43.719  14.055
74918ION    CL-47986  19.369  29.621   2.903
74919ION    CL-47987  33.042   5.061   0.348
74920ION    CL-47988  27.194   2.435  13.830
74921ION    CL-47989   1.676  29.036  14.864
74922ION    CL-47990  29.463   5.833   2.398
74923ION    CL-47991  19.422  23.772  11.069
74924ION    CL-47992  23.150   6.120   1.252
74925ION    CL-47993   0.606  25.715  14.174
74926ION    CL-47994   0.385   3.022   2.346
74927ION    CL-47995  20.655  35.119   3.524
74928ION    CL-47996  36.653  28.723  11.833
74929ION    CL-47997  23.958  33.620  13.490
74930ION    CL-47998  42.271   8.688  11.179
74931ION    CL-47999  13.586  29.385  12.087
74932ION    CL-48000  10.032  36.102   2.850
74933ION    CL-48001  36.674  32.079   5.006
74934ION    CL-48002  35.673  42.189  12.088
74935ION    CL-48003  10.726  18.719   2.790
74936ION    CL-48004  20.653   5.866  14.774
74937ION    CL-48005  36.961  38.143  11.878
74938ION    CL-48006   9.093  21.252  13.411
74939ION    CL-48007  38.857  36.156   2.738
74940ION    CL-48008  32.699  21.280  14.778
74941ION    CL-48009  38.573   6.834  12.890
74942ION    CL-48010   4.843  18.728   3.598
74943ION    CL-48011  36.917   8.090   1.136
74944ION    CL-48012  41.206  38.010   0.277
74945ION    CL-48013  25.649  44.846   2.617
74946ION    CL-48014  19.761  43.637   2.690
74947ION    CL-48015   4.826   8.934  13.410
74948ION    CL-48016  30.504   7.598  12.585
74949ION    CL-48017  33.232   9.259   3.202
74950ION    CL-48018   6.382  35.905   4.046
74951ION    CL-48019  44.496  33.168   4.175
74952ION    CL-48020  26.727  12.900  13.928
74953ION    CL-48021  21.321  33.782  13.204
74954ION    CL-48022  19.660  16.104   0.957
74955ION    CL-48023   2.133  32.537   4.216
74956ION    CL-48024  32.209   0.398   4.986
74957ION    CL-48025  29.997  23.817   2.220
74958ION    CL-48026  41.842  39.411  14.801
74959ION    CL-48027  31.467   6.068  13.987
74960ION    CL-48028   0.926  30.924  13.063
74961ION    CL-48029   6.757  44.111  14.978
74962ION    CL-48030  31.812  35.207   1.562
74963ION    CL-48031  40.830  14.567   3.837
74964ION    CL-48032   6.928  22.242  11.181
74965ION    CL-48033  34.793  24.928   1.460
74966ION    CL-48034  34.867   6.340  12.438
74967ION    CL-48035  37.622  33.003   0.618
74968ION    CL-48036  20.508  43.841  10.243
74969ION    CL-48037  43.583  33.759   2.136
74970ION    CL-48038  13.650  37.222   2.584
74971ION    CL-48039  26.196  29.675   0.534
74972ION    CL-48040  21.142   7.914  14.847
74973ION    CL-48041  39.733  14.717   1.348
74974ION    CL-48042  11.776  34.094   4.889
74975ION    CL-48043  35.020  24.122   4.861
74976ION    CL-48044   9.622  20.384   0.104
74977ION    CL-48045   5.168  23.177   4.148
74978ION    CL-48046  35.477  11.741   2.133
74979ION    CL-48047  13.800  33.441  13.375
74980ION    CL-48048   6.695  43.053  10.399
74981ION    CL-48049  41.952  44.744  12.356
74982ION    CL-48050  21.131  21.212  11.999
74983ION    CL-48051   2.691  26.030   0.815
74984ION    CL-48052  16.049  32.155   0.185
74985ION    CL-48053  24.351  39.528  12.288
74986ION    CL-48054  19.201  14.300  14.801
74987ION    CL-48055  19.760  31.616   1.414
74988ION    CL-48056  15.712  24.887  13.585
74989ION    CL-48057  21.333   0.239   3.801
74990ION    CL-48058  44.327  27.982   4.491
74991ION    CL-48059  16.883   0.439  13.093
74992ION    CL-48060  10.305  28.358   4.288
74993ION    CL-48061  39.475  35.090   4.858
74994ION    CL-48062  16.170  32.171   1.818
74995ION    CL-48063   5.593  32.256  14.447
74996ION    CL-48064  34.632  34.630   4.327
74997ION    CL-48065  39.642   4.390   1.038
74998ION    CL-48066   1.081  27.862   0.369
74999ION    CL-48067  20.241  19.608   0.183
75000ION    CL-48068  37.254  15.031   1.817
75001ION    CL-48069   7.350  44.601   3.436
75002ION    CL-48070  14.217  38.658  10.661
75003ION    CL-48071  37.578   4.321  11.704
75004ION    CL-48072  28.909  11.618  11.452
75005ION    CL-48073  42.194   8.408   0.262
75006ION    CL-48074  27.299  28.655   0.515
75007ION    CL-48075  41.993  40.606  11.613
75008ION    CL-48076   0.019  14.906  12.110
75009ION    CL-48077  20.528  40.522   4.942
75010ION    CL-48078  24.649   5.847   5.051
75011ION    CL-48079  31.002  31.502   1.490
75012ION    CL-48080  10.855  18.051   4.844
75013ION    CL-48081   6.630   6.494   1.102
75014ION    CL-48082   9.151  23.283   3.663
75015ION    CL-48083  19.677   3.460   0.446
75016ION    CL-48084   3.720  10.322   1.400
75017ION    CL-48085  19.814  19.117   3.329
75018ION    CL-48086  41.028   4.701   1.840
75019ION    CL-48087  34.081  34.981   0.652
75020ION    CL-48088  39.286   6.400   3.804
75021ION    CL-48089  28.451  10.646   2.394
75022ION    CL-48090   4.427   3.628  13.304
75023ION    CL-48091   3.169  15.385   2.009
75024ION    CL-48092  30.879  14.440  10.352
75025ION    CL-48093  30.684  38.546  13.116
75026ION    CL-48094  44.188   2.390  12.438
75027ION    CL-48095  12.292  10.811  10.653
75028ION    CL-48096  16.379  34.317   0.014
75029ION    CL-48097  21.664  28.473   4.059
75030ION    CL-48098  20.428  37.735   1.842
75031ION    CL-48099  21.272  13.087   4.270
75032ION    CL-48100  13.621   7.924  12.262
75033ION    CL-48101  33.117   0.704  12.073
75034ION    CL-48102  35.559  16.578   4.168
75035ION    CL-48103  23.294   0.135   0.269
75036ION    CL-48104  24.098   1.694   3.968
75037ION    CL-48105  32.115  43.737   3.367
75038ION    CL-48106   2.339  11.784   0.756
75039ION    CL-48107  40.365  12.935  14.818
75040ION    CL-48108  13.113  31.665  12.419
75041ION    CL-48109  16.850  13.829   1.703
75042ION    CL-48110  21.033  32.922  12.715
75043ION    CL-48111  35.061  27.197   2.675
75044ION    CL-48112  23.714  28.015   1.822
75045ION    CL-48113   6.302  12.904  12.396
75046ION    CL-48114  13.350   4.912  11.248
75047ION    CL-48115  19.553   3.778   2.694
75048ION    CL-48116  17.741  44.295  12.118
75049ION    CL-48117  27.760   6.223   4.033
75050ION    CL-48118  17.514  13.613   0.259
75051ION    CL-48119  41.979  15.585   0.061
75052ION    CL-48120  31.506  37.873   4.443
75053ION    CL-48121  28.755  40.289  14.341
75054ION    CL-48122  40.360  27.113   4.865
75055ION    CL-48123  41.345   6.999  14.042
75056ION    CL-48124  10.317  20.094  13.377
75057ION    CL-48125  22.809  31.937   3.113
75058ION    CL-48126  12.607  40.385   1.828
75059ION    CL-48127   5.748  39.801  12.973
75060ION    CL-48128  39.386  10.204   3.178
75061ION    CL-48129  17.848   6.359  12.106
75062ION    CL-48130  44.333   8.731  14.737
75063ION    CL-48131  14.439   4.227   1.667
75064ION    CL-48132  41.089  21.228   2.394
75065ION    CL-48133  33.991  13.353   5.056
75066ION    CL-48134  10.209  11.562   0.761
75067ION    CL-48135   6.335   8.223  11.876
75068ION    CL-48136  28.519  27.560  12.553
75069ION    CL-48137   8.706  19.534   3.828
75070ION    CL-48138  25.626   5.468   1.752
75071ION    CL-48139  30.408  39.851  12.940
75072ION    CL-48140   3.426  22.102   2.312
75073ION    CL-48141   8.794  22.219   1.379
75074ION    CL-48142   4.693  35.159   0.422
75075ION    CL-48143  11.168  13.680  10.787
75076ION    CL-48144  13.288  38.650  13.026
75077ION    CL-48145  39.005  33.561   1.825
75078ION    CL-48146  14.953  36.461  10.919
75079ION    CL-48147   8.060  35.260  13.313
75080ION    CL-48148  43.360   8.708   3.365
75081ION    CL-48149  12.638  16.631   4.073
75082ION    CL-48150   0.157  29.271   4.432
75083ION    CL-48151   2.910  29.828  11.832
75084ION    CL-48152  44.272  40.950  13.853
75085ION    CL-48153  23.105  22.004   3.619
75086ION    CL-48154   9.870  29.947  10.979
75087ION    CL-48155  10.765  44.849  13.301
75088ION    CL-48156  14.792  30.500   0.932
75089ION    CL-48157  20.121  38.834  10.723
75090ION    CL-48158  42.402   3.064  14.455
75091ION    CL-48159  32.023  42.549   1.312
75092ION    CL-48160  43.925  43.223  13.551
75093ION    CL-48161  23.059   7.427  14.025
75094ION    CL-48162  37.992  14.897   3.373
75095ION    CL-48163  29.848  12.582  10.551
75096ION    CL-48164  23.058  43.384  10.333
75097ION    CL-48165  36.993  19.099   3.735
75098ION    CL-48166  21.339  38.582   4.110
75099ION    CL-48167  30.878  18.054   4.107
75100ION    CL-48168   7.855   0.235  13.413
75101ION    CL-48169  39.473  44.777   4.991
75102ION    CL-48170  38.417   8.754   1.713
75103ION    CL-48171  29.337  32.147   4.977
75104ION    CL-48172  17.584   0.961  13.382
75105ION    CL-48173  29.445  36.449   4.416
75106ION    CL-48174  27.057  40.596   1.845
75107ION    CL-48175  20.310  28.506   1.640
75108ION    CL-48176  16.481  34.815  14.490
75109ION    CL-48177  40.740  35.906   5.153
75110ION    CL-48178   6.723  10.364   3.833
75111ION    CL-48179  16.670  18.284  11.066
75112ION    CL-48180  27.181  33.546   4.560
75113ION    CL-48181   2.007  24.180  14.379
75114ION    CL-48182  14.686  21.733  14.751
75115ION    CL-48183  38.914  11.215   2.685
75116ION    CL-48184  34.191  43.977   4.303
75117ION    CL-48185   8.678  12.542  13.025
75118ION    CL-48186  12.485  14.522   4.284
75119ION    CL-48187  31.713  41.304   3.917
75120ION    CL-48188  37.979  14.772   4.253
75121ION    CL-48189  24.241  39.230  10.998
75122ION    CL-48190   8.191  11.532   4.203
75123ION    CL-48191   8.813   9.792   2.398
75124ION    CL-48192   8.273  11.349  11.706
75125ION    CL-48193  16.081  15.241  13.547
75126ION    CL-48194   5.666  32.726  12.427
75127ION    CL-48195   5.034  21.543  14.091
75128ION    CL-48196  27.298  27.957   4.180
75129ION    CL-48197  23.251  10.301   0.631
75130ION    CL-48198  36.208  39.189  13.837
75131ION    CL-48199  42.521   1.469  14.152
75132ION    CL-48200  37.824  35.785   0.322
75133ION    CL-48201  10.784  20.044  10.893
75134ION    CL-48202  23.663  38.076   3.333
75135ION    CL-48203   6.257  40.424  14.975
75136ION    CL-48204   1.480  41.314  11.558
75137ION    CL-48205  22.689  24.818  12.509
75138ION    CL-48206   8.735  22.657   0.251
75139ION    CL-48207  20.145  32.380   0.137
75140ION    CL-48208  37.639  31.641   0.500
75141ION    CL-48209  16.986  18.480   0.153
75142ION    CL-48210  30.752  37.120  12.533
75143ION    CL-48211  13.709   4.865  10.421
75144ION    CL-48212  33.427   3.760   3.773
75145ION    CL-48213  10.909  22.722  14.248
75146ION    CL-48214  40.468  23.852   1.580
75147ION    CL-48215  37.766  16.207   0.067
75148ION    CL-48216  27.062  26.147  14.398
75149ION    CL-48217  19.746  18.260  13.759
75150ION    CL-48218  11.187  39.676   2.751
75151ION    CL-48219  39.238   2.870   4.531
75152ION    CL-48220  36.800  44.795   4.986
75153ION    CL-48221  41.900  41.194  13.419
75154ION    CL-48222  20.835  33.817   1.668
75155ION    CL-48223  41.300  27.029  13.615
75156ION    CL-48224  16.516  12.019   2.741
75157ION    CL-48225  38.723  41.485   3.592
75158ION    CL-48226  13.817  22.677  13.414
75159ION    CL-48227   4.812  31.624   2.880
75160ION    CL-48228   5.277  11.149   2.101
75161ION    CL-48229  25.983   2.555   2.635
75162ION    CL-48230   0.992  26.895   3.973
75163ION    CL-48231  37.861  36.404  11.737
75164ION    CL-48232  14.123  42.849   2.230
75165ION    CL-48233  36.238  42.067  12.832
75166ION    CL-48234   3.224  17.932   0.795
75167ION    CL-48235  15.226  27.149   0.077
75168ION    CL-48236  16.194  18.786   3.848
75169ION    CL-48237  12.339  23.961  12.072
75170ION    CL-48238  12.042  11.571   3.367
75171ION    CL-48239   5.953  22.581   1.779
75172ION    CL-48240   1.046  24.915   2.645
75173ION    CL-48241  42.749  11.651  13.167
75174ION    CL-48242  11.778  35.384   4.211
75175ION    CL-48243  19.739   1.164   3.696
75176ION    CL-48244   3.422  19.698   3.276
75177ION    CL-48245  18.043   6.075  11.219
75178ION    CL-48246  33.965  15.246  11.142
75179ION    CL-48247  38.072  12.263  12.100
75180ION    CL-48248  27.651  43.757  13.886
75181ION    CL-48249  14.639  37.363   3.245
75182ION    CL-48250  20.612   5.616  13.230
75183ION    CL-48251  27.533  14.807   1.886
75184ION    CL-48252  26.286  18.441   9.735
75185ION    CL-48253   0.545   3.733  14.906
75186ION    CL-48254   5.948  10.084   2.996
75187ION    CL-48255  43.436  34.938  14.448
75188ION    CL-48256  39.355  35.033   1.709
75189ION    CL-48257  44.767  32.363  11.345
75190ION    CL-48258  27.910  23.930  11.372
75191ION    CL-48259  20.525  34.989   0.476
75192ION    CL-48260  27.626  16.703  12.389
75193ION    CL-48261  36.098  34.840   0.323
75194ION    CL-48262   1.315  25.321   5.036
75195ION    CL-48263  37.864   7.735  13.619
75196ION    CL-48264  32.675   3.422   2.729
75197ION    CL-48265  24.504  17.098   2.426
75198ION    CL-48266  15.241   2.000   2.839
75199ION    CL-48267  24.681   0.173   3.178
75200ION    CL-48268  38.128  32.552  13.116
75201ION    CL-48269  23.203  13.628   1.954
75202ION    CL-48270  37.537  25.501  10.701
75203ION    CL-48271  26.145  35.603  11.575
75204ION    CL-48272  27.001   6.890  13.778
75205ION    CL-48273   1.419  34.109  12.582
75206ION    CL-48274   9.375  31.329   4.166
75207ION    CL-48275  12.607  19.989   0.894
75208ION    CL-48276   0.783  21.543   2.857
75209ION    CL-48277  30.623  11.484   2.943
75210ION    CL-48278   5.278   5.704   1.265
75211ION    CL-48279  27.056  38.620   0.452
75212ION    CL-48280   8.737  42.969   0.884
75213ION    CL-48281  22.223  39.536   4.064
75214ION    CL-48282  38.382  17.089   1.971
75215ION    CL-48283  30.073  36.580   3.103
75216ION    CL-48284   6.862   7.434   0.853
75217ION    CL-48285  41.808  44.493   3.387
75218ION    CL-48286  33.397  27.661  11.394
75219ION    CL-48287  43.936   0.205   4.058
75220ION    CL-48288  24.270  10.768  13.808
75221ION    CL-48289  41.745  43.095  13.481
75222ION    CL-48290  24.170  14.080   9.816
75223ION    CL-48291   8.750  32.664  11.005
75224ION    CL-48292  13.877  21.766   1.375
75225ION    CL-48293  25.636  16.808   9.516
75226ION    CL-48294  41.876   3.872  11.364
75227ION    CL-48295  36.401  20.793   1.456
75228ION    CL-48296   5.400  11.437   4.127
75229ION    CL-48297  15.842  20.691  10.961
75230ION    CL-48298  38.460  40.079   0.369
75231ION    CL-48299  27.800   9.453   3.367
75232ION    CL-48300  24.503  17.765   1.681
75233ION    CL-48301  31.188  31.966   0.623
75234ION    CL-48302  25.020  20.115  12.604
75235ION    CL-48303  43.001  41.734  10.362
75236ION    CL-48304   1.947  23.088  11.297
75237ION    CL-48305  40.447  16.429   5.310
75238ION    CL-48306   0.606  26.190   5.013
75239ION    CL-48307  21.815  11.221  10.898
75240ION    CL-48308  25.853  15.224  13.528
75241ION    CL-48309   7.440  24.894   4.242
75242ION    CL-48310  26.562  40.246   0.651
75243ION    CL-48311  15.005  33.901   2.307
75244ION    CL-48312  27.021  23.948   0.732
75245ION    CL-48313  30.793  12.838   9.895
75246ION    CL-48314  40.592  20.354  12.578
75247ION    CL-48315   0.624  21.582  14.280
75248ION    CL-48316   9.171   0.127   3.114
75249ION    CL-48317  24.900  32.063  14.776
75250ION    CL-48318   5.067  20.628   0.145
75251ION    CL-48319  39.665  24.570  10.523
75252ION    CL-48320  10.892  28.649  13.002
75253ION    CL-48321  31.365  18.308  11.098
75254ION    CL-48322  41.070  36.537   2.989
75255ION    CL-48323  42.977   4.328   2.454
75256ION    CL-48324  27.687   0.688   5.072
75257ION    CL-48325   1.978  37.870   4.094
75258ION    CL-48326  17.392  25.584   3.416
75259ION    CL-48327  35.874  40.934   0.319
75260ION    CL-48328  40.399   2.793  13.270
75261ION    CL-48329   8.546   7.160  14.092
75262ION    CL-48330  37.495  34.276  13.821
75263ION    CL-48331  14.312  28.118  14.870
75264ION    CL-48332   4.173  25.550   4.997
75265ION    CL-48333  14.676   3.195  11.565
75266ION    CL-48334  44.892  36.584  13.962
75267ION    CL-48335   9.902  32.114  12.828
75268ION    CL-48336  26.289   6.649  14.813
75269ION    CL-48337  44.263  24.521  14.978
75270ION    CL-48338   7.534   0.181   2.643
75271ION    CL-48339  32.050  13.503  13.705
75272ION    CL-48340  30.400  36.058  13.752
75273ION    CL-48341  32.532  41.551   0.873
75274ION    CL-48342  30.346   0.947   2.226
75275ION    CL-48343   8.662  33.054  14.422
75276ION    CL-48344  41.182  18.593   0.526
75277ION    CL-48345  28.757  15.549  13.762
75278ION    CL-48346  10.407  16.416  10.696
75279ION    CL-48347  14.520  39.235  12.364
75280ION    CL-48348   2.463  35.263   0.168
75281ION    CL-48349  15.053  25.714   3.547
75282ION    CL-48350  25.266   4.447   3.827
75283ION    CL-48351  36.870  27.795  10.367
75284ION    CL-48352  19.031  20.603   2.820
75285ION    CL-48353  10.751   0.574   4.203
75286ION    CL-48354  17.498  12.764  13.821
75287ION    CL-48355  10.462   4.332   0.278
75288ION    CL-48356  23.644  29.842   1.482
75289ION    CL-48357  26.575   0.328   3.837
75290ION    CL-48358   6.102  22.899   3.765
75291ION    CL-48359  40.060  40.466  13.989
75292ION    CL-48360   2.293  14.594   3.891
75293ION    CL-48361  31.981  14.752   1.756
75294ION    CL-48362  21.091   3.330  13.559
75295ION    CL-48363  26.694  14.700  13.392
75296ION    CL-48364   5.698  19.134  14.737
75297ION    CL-48365  21.195   5.407   4.062
75298ION    CL-48366  26.113  10.189  14.853
75299ION    CL-48367  10.333   8.423  13.021
75300ION    CL-48368  30.733  30.284  13.000
75301ION    CL-48369  32.797  10.414  11.761
75302ION    CL-48370  26.811   8.909   9.937
75303ION    CL-48371   0.294   5.121   3.240
75304ION    CL-48372  44.478   9.719  14.909
75305ION    CL-48373  22.767   8.576  11.197
75306ION    CL-48374  37.974  44.676   1.923
75307ION    CL-48375   9.271  23.065  14.330
75308ION    CL-48376  20.967   2.957   3.659
75309ION    CL-48377  14.341   4.820  11.194
75310ION    CL-48378  36.981  24.743   4.023
75311ION    CL-48379   1.576  36.846  11.738
75312ION    CL-48380   4.252   7.153   1.152
75313ION    CL-48381  38.947  13.870   0.901
75314ION    CL-48382   4.610  34.292  11.116
75315ION    CL-48383  42.911  10.150  10.948
75316ION    CL-48384  30.581   2.856  13.774
75317ION    CL-48385  36.557  24.971   9.979
75318ION    CL-48386  38.127  22.650  11.533
75319ION    CL-48387  25.783  19.174   3.302
75320ION    CL-48388  27.566  42.739  13.422
75321ION    CL-48389  25.684  12.817   9.964
75322ION    CL-48390   7.012  24.755   5.136
75323ION    CL-48391   9.280  37.376  10.620
75324ION    CL-48392  26.142  10.869   2.842
75325ION    CL-48393  20.691  35.582  13.272
75326ION    CL-48394  13.289  25.998  13.973
75327ION    CL-48395  16.119  19.781  12.977
75328ION    CL-48396  38.231  35.572   1.100
75329ION    CL-48397  37.280   2.667   1.334
75330ION    CL-48398  31.837  41.558   0.154
75331ION    CL-48399  40.683   4.132   4.559
75332ION    CL-48400   4.372  20.363   4.982
75333ION    CL-48401  38.129  33.012   1.908
75334ION    CL-48402   4.101  11.813   1.959
75335ION    CL-48403  21.039  18.175   2.892
75336ION    CL-48404  37.530   1.217   2.295
75337ION    CL-48405  16.543  43.986   1.002
75338ION    CL-48406  24.767  25.188  13.023
75339ION    CL-48407   3.494  26.369   0.561
75340ION    CL-48408  16.392  21.843   4.061
75341ION    CL-48409  33.055  10.906   0.457
75342ION    CL-48410  35.605  26.526  12.389
75343ION    CL-48411  25.612  19.259  10.711
75344ION    CL-48412  38.877  29.911   1.917
75345ION    CL-48413  21.713  24.486  12.459
75346ION    CL-48414  21.309   6.648  11.364
75347ION    CL-48415  13.642  23.816   3.865
75348ION    CL-48416  35.654  29.186   0.016
75349ION    CL-48417  12.584  17.263  14.042
75350ION    CL-48418  43.397  19.454  12.867
75351ION    CL-48419   6.939  40.070   9.869
75352ION    CL-48420   3.171   9.799  11.872
75353ION    CL-48421  38.220   2.022   4.015
75354ION    CL-48422   3.053  20.228  10.659
75355ION    CL-48423  27.953  36.698  14.089
75356ION    CL-48424  21.244  15.857  11.022
75357ION    CL-48425  40.552  40.764  12.905
75358ION    CL-48426  20.969  43.508  10.912
75359ION    CL-48427  36.342  21.878   3.868
75360ION    CL-48428   8.203  34.392  13.549
75361ION    CL-48429  28.671   1.056   4.287
75362ION    CL-48430  31.676  39.215  11.833
75363ION    CL-48431  36.803  16.922   4.182
75364ION    CL-48432  36.203  35.332  10.872
75365ION    CL-48433  41.010  19.903   1.277
75366ION    CL-48434  32.401  12.229  13.010
75367ION    CL-48435  21.525  33.933   4.139
75368ION    CL-48436  43.750  39.766  14.536
75369ION    CL-48437  20.956  30.288  12.622
75370ION    CL-48438   0.085  37.125   0.876
75371ION    CL-48439   8.974  14.047  12.105
75372ION    CL-48440  29.164  42.558  11.479
75373ION    CL-48441  42.737  22.106  13.378
75374ION    CL-48442  40.394  24.823   1.831
75375ION    CL-48443   5.237   8.280   2.328
75376ION    CL-48444   3.396   9.751  13.022
75377ION    CL-48445   7.812   7.819   9.855
75378ION    CL-48446  26.332   7.828   1.681
75379ION    CL-48447  23.950  24.667   5.056
75380ION    CL-48448  37.431  11.535   3.655
75381ION    CL-48449  43.600  21.970  12.892
75382ION    CL-48450  23.776   5.592   2.764
75383ION    CL-48451  14.115  24.192   5.152
75384ION    CL-48452  34.486  39.211   4.535
75385ION    CL-48453  15.348   3.301  12.331
75386ION    CL-48454  30.288  20.149  14.096
75387ION    CL-48455  40.126   8.566   0.410
75388ION    CL-48456  12.741   5.498   2.010
75389ION    CL-48457  27.991  28.268  13.022
75390ION    CL-48458   3.865  22.703  14.935
75391ION    CL-48459  13.430  21.959   3.943
75392ION    CL-48460  38.385  30.854  13.127
75393ION    CL-48461  34.573  22.814  12.011
75394ION    CL-48462  43.486   9.661   0.025
75395ION    CL-48463  36.733   3.405  10.244
75396ION    CL-48464  28.067  41.987  14.414
75397ION    CL-48465   9.563  20.066  14.138
75398ION    CL-48466  31.394  42.483   2.969
75399ION    CL-48467  44.865   3.584   0.623
75400ION    CL-48468  35.431  14.027   3.364
75401ION    CL-48469   5.437   3.366   0.013
75402ION    CL-48470   1.920  24.972  13.443
75403ION    CL-48471   5.358   8.233   1.290
75404ION    CL-48472  20.040  21.976   1.501
75405ION    CL-48473   3.313   2.268   2.007
75406ION    CL-48474  29.573  33.375  11.756
75407ION    CL-48475  15.648  27.184   4.883
75408ION    CL-48476  40.981  42.721  13.711
75409ION    CL-48477  31.689  38.905  12.784
75410ION    CL-48478  12.603  26.424   3.540
75411ION    CL-48479  33.310  26.606   3.627
75412ION    CL-48480  37.999  11.200   1.972
75413ION    CL-48481  31.820  34.260  14.384
75414ION    CL-48482  39.010   5.519   1.458
75415ION    CL-48483   6.734   1.972   1.013
75416ION    CL-48484   9.819  14.303   4.002
75417ION    CL-48485  37.230  14.761   9.971
75418ION    CL-48486  37.091  20.701  12.459
75419ION    CL-48487  17.297   8.377   1.347
75420ION    CL-48488   2.137  35.314  11.091
75421ION    CL-48489  42.063   2.389  13.279
75422ION    CL-48490   2.406   3.482  10.856
75423ION    CL-48491   6.222   1.550   9.929
75424ION    CL-48492  10.116  34.621  13.403
75425ION    CL-48493  43.762  28.799   0.510
75426ION    CL-48494  21.285  11.413  11.725
75427ION    CL-48495  30.096   1.983  13.140
75428ION    CL-48496  18.326  41.213   2.853
75429ION    CL-48497  39.046  26.283  11.047
75430ION    CL-48498  11.274  43.061   4.331
75431ION    CL-48499   1.921  33.680  11.437
75432ION    CL-48500  10.067  25.122   5.180
75433ION    CL-48501  16.074  21.483  13.590
75434ION    CL-48502  44.739  28.278  13.559
75435ION    CL-48503  22.298  38.262   4.111
75436ION    CL-48504  17.737  30.855  10.373
75437ION    CL-48505   5.324   4.708  13.285
75438ION    CL-48506  36.467  25.621   3.300
75439ION    CL-48507   0.010   2.173  12.970
75440ION    CL-48508   0.194  29.580  11.441
75441ION    CL-48509   7.753  18.119   1.408
75442ION    CL-48510   9.034  29.643   2.175
75443ION    CL-48511  12.842  30.134  14.372
75444ION    CL-48512   4.188  10.152  11.714
75445ION    CL-48513  43.714  11.373   0.540
75446ION    CL-48514  10.718  24.488  11.086
75447ION    CL-48515  35.922  43.403   0.918
75448ION    CL-48516  22.106  41.753   2.858
75449ION    CL-48517  34.489  20.132   3.291
75450ION    CL-48518   4.187   3.022  11.334
75451ION    CL-48519  39.052  13.277  12.120
75452ION    CL-48520  13.719   8.802  12.193
75453ION    CL-48521  13.761  39.752   3.859
75454ION    CL-48522  43.562  18.525   3.090
75455ION    CL-48523  37.211  20.904   4.289
75456ION    CL-48524  36.543  21.872  11.099
75457ION    CL-48525  31.438   0.672   3.877
75458ION    CL-48526  35.425  18.802   0.436
75459ION    CL-48527  43.906  10.450  13.582
75460ION    CL-48528   3.774  16.559  13.379
75461ION    CL-48529  15.970  32.271   4.315
75462ION    CL-48530  16.149  34.154  12.053
75463ION    CL-48531  36.711  40.131  11.197
75464ION    CL-48532  15.346  44.956   1.203
75465ION    CL-48533  28.915  32.986  13.970
75466ION    CL-48534  43.520  20.119   0.476
75467ION    CL-48535  17.988   6.405  14.374
75468ION    CL-48536  30.936  30.395  10.742
75469ION    CL-48537  15.563  17.559   4.116
75470ION    CL-48538  39.008  15.808  13.727
75471ION    CL-48539  44.385  11.579   2.818
75472ION    CL-48540  44.954  10.334  13.512
75473ION    CL-48541  16.561   7.317  11.653
75474ION    CL-48542  15.270   5.683  12.000
75475ION    CL-48543   2.271  24.598   4.106
75476ION    CL-48544   8.629  35.775   1.367
75477ION    CL-48545   0.232  38.058  14.927
75478ION    CL-48546  15.302  22.737   0.895
75479ION    CL-48547  35.458   8.611   1.941
75480ION    CL-48548  38.660  13.686   4.831
75481ION    CL-48549  28.035  12.513   0.848
75482ION    CL-48550  10.585   7.549  12.945
75483ION    CL-48551  13.788  14.714  13.389
75484ION    CL-48552   0.342  31.381   2.000
75485ION    CL-48553  17.729  21.325   1.458
75486ION    CL-48554  18.198   7.903   2.034
75487ION    CL-48555  44.881   6.880   4.613
75488ION    CL-48556  29.838  26.050   3.192
75489ION    CL-48557  26.390   8.880  10.405
75490ION    CL-48558   1.917  42.222  13.598
75491ION    CL-48559  38.511  18.510  13.173
75492ION    CL-48560  23.901  35.917   2.803
75493ION    CL-48561   5.269  15.895   2.309
75494ION    CL-48562  19.183  10.515  11.959
75495ION    CL-48563  19.477   3.212  12.543
75496ION    CL-48564  13.849  34.089   1.733
75497ION    CL-48565   2.222  37.404   5.047
75498ION    CL-48566   8.760  19.557  11.118
75499ION    CL-48567   5.079  24.791  14.311
75500ION    CL-48568  25.741  40.915  11.126
75501ION    CL-48569  19.609   8.784  13.891
75502ION    CL-48570  36.133  32.938  11.232
75503ION    CL-48571  39.779  37.469   3.178
75504ION    CL-48572   2.380  35.123  13.827
75505ION    CL-48573  28.118  20.357  13.112
75506ION    CL-48574   6.679   9.023  14.106
75507ION    CL-48575  37.170  40.093   2.383
75508ION    CL-48576   9.931  21.258  13.956
75509ION    CL-48577  23.250  16.596  11.069
75510ION    CL-48578  35.025  29.848  14.177
75511ION    CL-48579   2.781  36.643   1.490
75512ION    CL-48580  38.411  15.854   4.104
75513ION    CL-48581   9.419  13.389   2.362
75514ION    CL-48582  15.855  38.598  12.674
75515ION    CL-48583  39.213  20.213   0.364
75516ION    CL-48584  35.595   1.291  14.967
75517ION    CL-48585  42.109  16.553   5.046
75518ION    CL-48586  25.689  24.222  14.468
75519ION    CL-48587  25.783   6.549   2.830
75520ION    CL-48588  15.618  44.003  14.844
75521ION    CL-48589   7.748  37.646   1.477
75522ION    CL-48590  43.784  25.156   0.409
75523ION    CL-48591  19.535  38.879   4.011
75524ION    CL-48592  43.955  40.539   1.125
75525ION    CL-48593  37.127  31.517  14.637
75526ION    CL-48594  12.338  33.932   4.372
75527ION    CL-48595  38.527  14.086   1.663
75528ION    CL-48596  19.051   3.977  14.858
75529ION    CL-48597  41.535  29.285  10.393
75530ION    CL-48598   2.534  13.737   5.191
75531ION    CL-48599  36.454  36.525  14.510
75532ION    CL-48600  14.643  38.810   3.722
75533ION    CL-48601  32.992  24.626  14.077
75534ION    CL-48602  37.117  36.985   2.103
75535ION    CL-48603  28.693  37.396  12.448
75536ION    CL-48604   6.572   1.013   0.086
75537ION    CL-48605  12.929  20.917  13.298
75538ION    CL-48606  33.588  12.694   3.727
75539ION    CL-48607  20.656   3.219   2.125
75540ION    CL-48608  41.125  25.126  14.326
75541ION    CL-48609  35.905  17.733  14.577
75542ION    CL-48610  32.656  39.584  13.778
75543ION    CL-48611  37.560   1.509   4.208
75544ION    CL-48612  32.415   2.705  14.777
75545ION    CL-48613  34.336  10.327   1.201
75546ION    CL-48614  39.165  39.826  12.997
75547ION    CL-48615   9.810  34.411   1.498
75548ION    CL-48616   5.848  23.765   3.709
75549ION    CL-48617  44.772   4.545   0.364
75550ION    CL-48618  34.225  13.069  14.351
75551ION    CL-48619   6.187  41.263  12.387
75552ION    CL-48620  10.779   1.747   4.236
75553ION    CL-48621  31.539  40.346   1.408
75554ION    CL-48622  36.347   0.822  14.503
75555ION    CL-48623  16.126  10.391  13.387
75556ION    CL-48624  25.299  34.825  11.046
75557ION    CL-48625  11.968  43.027  13.806
75558ION    CL-48626  32.062  10.882   4.445
75559ION    CL-48627  17.166  39.224  12.571
75560ION    CL-48628  10.440  22.737  13.105
75561ION    CL-48629  11.387  31.522  10.298
75562ION    CL-48630  30.574  20.129  10.695
75563ION    CL-48631  23.575  23.783  12.089
75564ION    CL-48632  12.739   4.048  12.346
75565ION    CL-48633  23.275  40.899   3.291
75566ION    CL-48634  19.764  32.870  11.405
75567ION    CL-48635  14.004   0.195   1.213
75568ION    CL-48636   7.434  12.289   0.245
75569ION    CL-48637  38.736  14.784   2.778
75570ION    CL-48638  20.666  13.101  14.058
75571ION    CL-48639  13.260  30.325   0.578
75572ION    CL-48640  15.870  40.489   1.036
75573ION    CL-48641  33.394  44.826  10.811
75574ION    CL-48642  13.907  33.307   2.543
75575ION    CL-48643  36.448  43.747   1.059
75576ION    CL-48644   0.037  24.981   0.945
75577ION    CL-48645  19.158  41.891  13.133
75578ION    CL-48646   6.175   4.269   1.753
75579ION    CL-48647  32.045  16.641  13.346
75580ION    CL-48648  20.963  41.750   9.828
75581ION    CL-48649  12.741   9.675  13.776
75582ION    CL-48650  14.353  22.205   4.869
75583ION    CL-48651  31.253  17.602  11.807
75584ION    CL-48652  43.797  14.386   2.393
75585ION    CL-48653   0.025  14.687   0.737
75586ION    CL-48654  27.179  27.654  12.446
75587ION    CL-48655  42.753  36.058   2.121
75588ION    CL-48656   8.904  35.485   0.574
75589ION    CL-48657  43.499  13.665  14.928
75590ION    CL-48658  44.584  29.640  14.313
75591ION    CL-48659  19.812  16.491  11.608
75592ION    CL-48660  12.466  35.018  11.511
75593ION    CL-48661   6.679  23.656  11.563
75594ION    CL-48662  40.961   9.647  14.950
75595ION    CL-48663   1.838  31.394   2.051
75596ION    CL-48664  38.645  12.860   1.838
75597ION    CL-48665   3.012   1.459   4.923
75598ION    CL-48666   4.820  19.906  12.978
75599ION    CL-48667  32.644   6.567  12.881
75600ION    CL-48668  19.147   4.150  11.380
75601ION    CL-48669   5.888   6.392  14.972
75602ION    CL-48670  17.220  15.595   3.282
75603ION    CL-48671  26.733  44.931  14.278
75604ION    CL-48672  29.040   0.612  13.590
75605ION    CL-48673   0.515  41.860   2.005
75606ION    CL-48674   3.407  36.012   1.948
75607ION    CL-48675  16.983  41.436  14.904
75608ION    CL-48676  10.083   2.067   0.779
75609ION    CL-48677  22.056  26.477  11.477
75610ION    CL-48678  29.712  44.364   5.120
75611ION    CL-48679   5.767  27.960  10.940
75612ION    CL-48680  16.738  30.629  10.842
75613ION    CL-48681  41.131  29.133   2.573
75614ION    CL-48682  36.523  34.088   0.955
75615ION    CL-48683  12.921  18.814  11.694
75616ION    CL-48684  43.757  24.106  11.154
75617ION    CL-48685  11.230   9.219   0.887
75618ION    CL-48686  18.057  30.722  11.226
75619ION    CL-48687  43.054  12.404  12.316
75620ION    CL-48688  39.946  18.221  13.611
75621ION    CL-48689  39.179  12.680   3.415
75622ION    CL-48690  10.112  20.880  11.207
75623ION    CL-48691  12.760   8.762  11.823
75624ION    CL-48692   0.479  34.721   1.177
75625ION    CL-48693  40.368   6.257  10.041
75626ION    CL-48694  11.038  28.686  10.471
75627ION    CL-48695  33.041  23.234   3.100
75628ION    CL-48696  36.651  29.510  12.291
75629ION    CL-48697  28.111  43.023  11.694
75630ION    CL-48698  42.526  23.996   3.498
75631ION    CL-48699  20.225   7.719   1.357
75632ION    CL-48700  43.951   9.150   4.149
75633ION    CL-48701  28.123  17.237  11.705
75634ION    CL-48702   3.289  39.006  11.613
75635ION    CL-48703  21.726   8.198  13.448
75636ION    CL-48704  18.895  44.002  14.375
75637ION    CL-48705   9.456  20.217   3.231
75638ION    CL-48706  30.222  44.789  11.834
75639ION    CL-48707  39.651  16.022   5.342
75640ION    CL-48708  34.679  25.009  10.812
75641ION    CL-48709   1.227  26.669  13.617
75642ION    CL-48710  26.065   6.879   1.961
75643ION    CL-48711  11.133  33.074   4.254
75644ION    CL-48712  37.253  25.054   1.331
75645ION    CL-48713  12.666   9.885   4.116
75646ION    CL-48714  28.604  10.952   0.336
75647ION    CL-48715  30.051  17.232  10.964
75648ION    CL-48716   2.763  12.452  13.337
75649ION    CL-48717  39.810   2.751   0.645
75650ION    CL-48718  27.307   6.771   3.532
75651ION    CL-48719  37.312  22.633   4.265
75652ION    CL-48720  27.297  13.831   0.714
75653ION    CL-48721  17.268  31.398   2.631
75654ION    CL-48722  38.940  20.141  11.010
75655ION    CL-48723  44.031  28.214  14.356
75656ION    CL-48724  37.301  11.120   2.684
75657ION    CL-48725  28.615   3.323   4.957
75658ION    CL-48726  21.901  43.804  11.119
75659ION    CL-48727  17.368  35.919   4.145
75660ION    CL-48728  31.434   6.363   1.913
75661ION    CL-48729   3.720  27.680  11.173
75662ION    CL-48730  15.035  11.222  13.942
75663ION    CL-48731  16.720  12.142  13.905
75664ION    CL-48732  19.632  23.331   3.283
75665ION    CL-48733   9.684   4.232  12.068
75666ION    CL-48734  38.081  37.474   3.281
75667ION    CL-48735   7.237  18.306   0.572
75668ION    CL-48736  26.601  44.484   0.163
75669ION    CL-48737  11.795  39.844  14.801
75670ION    CL-48738  35.409  28.471   1.727
75671ION    CL-48739  19.612  22.794  12.560
75672ION    CL-48740   1.148  22.752   3.119
75673ION    CL-48741  41.047  40.313  11.479
75674ION    CL-48742  33.108  10.125  11.032
75675ION    CL-48743  18.064   0.956  14.382
75676ION    CL-48744  37.307  44.452   0.932
75677ION    CL-48745  33.926  32.435   1.419
75678ION    CL-48746  24.780  25.594  10.619
75679ION    CL-48747  13.494  12.242  10.590
75680ION    CL-48748  21.196  18.531  11.658
75681ION    CL-48749   9.596  30.463   2.675
75682ION    CL-48750   7.218   5.202  13.265
75683ION    CL-48751   9.376  11.612  12.747
75684ION    CL-48752   2.968   4.537  11.464
75685ION    CL-48753   1.982  22.514   3.212
75686ION    CL-48754   9.752   5.035  11.479
75687ION    CL-48755  17.118  38.826   2.194
75688ION    CL-48756  34.582  26.774   3.460
75689ION    CL-48757  12.514  14.607   2.979
75690ION    CL-48758  18.009  27.728   0.340
75691ION    CL-48759   7.831  15.394  11.510
75692ION    CL-48760  30.622   9.265  14.326
75693ION    CL-48761  37.068  41.996   1.640
75694ION    CL-48762  16.354   3.918   0.241
75695ION    CL-48763   3.724  16.014   4.594
75696ION    CL-48764  21.211  31.538   1.707
75697ION    CL-48765  16.204   7.959   3.625
75698ION    CL-48766  27.493  34.910  11.529
75699ION    CL-48767   8.111   7.554  14.721
75700ION    CL-48768   5.613  23.614  11.538
75701ION    CL-48769  30.870  20.256  13.289
75702ION    CL-48770   1.448   5.093   0.051
75703ION    CL-48771  22.423  28.079  10.327
75704ION    CL-48772   1.321  41.367  13.859
75705ION    CL-48773  31.090  27.199   2.208
75706ION    CL-48774  22.108  37.645   1.595
75707ION    CL-48775  17.353  42.850  13.034
75708ION    CL-48776  23.694   7.627   0.201
75709ION    CL-48777   8.402   9.453  13.529
75710ION    CL-48778  16.382   2.801  14.802
75711ION    CL-48779  39.751  14.421  11.074
75712ION    CL-48780   9.910   1.892  12.077
75713ION    CL-48781  14.524   8.737  13.435
75714ION    CL-48782  40.414  32.985  13.449
75715ION    CL-48783   3.814  42.522   4.723
75716ION    CL-48784   8.301  29.553  10.357
75717ION    CL-48785   5.124  38.119   2.303
75718ION    CL-48786  18.232  43.031   3.152
75719ION    CL-48787  37.305   9.235   0.816
75720ION    CL-48788   0.265  44.410   1.307
75721ION    CL-48789   0.019  36.407   0.591
75722ION    CL-48790   0.193   7.850   1.739
75723ION    CL-48791  11.359  33.468   1.530
75724ION    CL-48792   7.245  33.530   4.650
75725ION    CL-48793   8.768  31.089  14.710
75726ION    CL-48794   6.552  19.144  12.689
75727ION    CL-48795  43.379   2.775  13.407
75728ION    CL-48796  10.675  25.675   3.328
75729ION    CL-48797  19.322  25.424  14.891
75730ION    CL-48798  10.032  13.688  14.963
75731ION    CL-48799  38.919   7.441   4.060
75732ION    CL-48800   1.412  38.405   1.553
75733ION    CL-48801   7.963  42.003   1.168
75734ION    CL-48802  27.924  28.826  13.857
75735ION    CL-48803  39.360  32.544   4.533
75736ION    CL-48804  22.051  18.018  11.576
75737ION    CL-48805  42.303  13.708   2.892
75738ION    CL-48806  39.903  36.190  12.587
75739ION    CL-48807  18.264  31.491  14.295
75740ION    CL-48808  13.257  18.244  11.034
75741ION    CL-48809  14.115  34.027  12.600
75742ION    CL-48810  36.032  20.468   4.601
75743ION    CL-48811  42.950  23.048   1.263
75744ION    CL-48812  39.319   3.448   3.719
75745ION    CL-48813  26.137  19.960   2.956
75746ION    CL-48814  27.135   2.987   1.129
75747ION    CL-48815  26.760   7.805  13.432
75748ION    CL-48816  14.571  23.666  11.693
75749ION    CL-48817  26.607   2.206   0.767
75750ION    CL-48818  40.893  32.107  13.421
75751ION    CL-48819  42.666  34.391   2.367
75752ION    CL-48820  29.183  16.676   2.776
75753ION    CL-48821  20.502  12.236  12.508
75754ION    CL-48822  19.804   1.012   4.791
75755ION    CL-48823  39.312  41.487   0.459
75756ION    CL-48824  19.965  36.812   1.747
75757ION    CL-48825   2.332   5.958  14.606
75758ION    CL-48826   3.098  29.601  13.420
75759ION    CL-48827  24.256  34.429   3.868
75760ION    CL-48828  30.969   5.517   4.859
75761ION    CL-48829  32.543  24.714   1.867
75762ION    CL-48830   5.185   0.461   3.021
75763ION    CL-48831  28.677   5.403  12.088
75764ION    CL-48832   7.596  31.299   4.855
75765ION    CL-48833  22.962  37.974  13.873
75766ION    CL-48834  27.564  44.623   3.043
75767ION    CL-48835  26.014  27.205  13.365
75768ION    CL-48836  44.696  12.565   4.017
75769ION    CL-48837   5.266  33.698   1.217
75770ION    CL-48838  43.283  30.356   3.492
75771ION    CL-48839  36.884   0.669  11.054
75772ION    CL-48840   7.257   1.010   2.905
75773ION    CL-48841  11.668  43.054  14.760
75774ION    CL-48842  16.401   6.449   3.621
75775ION    CL-48843  26.691  15.554  12.801
75776ION    CL-48844   4.955  25.846   2.455
75777ION    CL-48845  18.891  22.919   0.265
75778ION    CL-48846  10.310  12.034  12.798
75779ION    CL-48847  33.927  18.243   2.158
75780ION    CL-48848  24.313  16.904   5.482
75781ION    CL-48849  21.235   7.309   3.085
75782ION    CL-48850  43.787  23.095   2.235
75783ION    CL-48851  30.031  20.033  13.150
75784ION    CL-48852   2.376  33.088  12.113
75785ION    CL-48853  35.949   7.223  11.597
75786ION    CL-48854  15.308   8.304   3.902
75787ION    CL-48855  24.344   3.194   3.753
75788ION    CL-48856   9.701  20.927  10.397
75789ION    CL-48857   2.766  11.681  13.808
75790ION    CL-48858  41.469  41.959   2.853
75791ION    CL-48859  29.726   8.386  13.089
75792ION    CL-48860   5.569   8.367  10.601
75793ION    CL-48861  23.332  34.994  14.115
75794ION    CL-48862   0.270   9.477  10.633
75795ION    CL-48863  41.556   6.542  14.847
75796ION    CL-48864   9.310  43.383  11.288
75797ION    CL-48865  27.492  10.313  11.422
75798ION    CL-48866  14.899  20.763   2.353
75799ION    CL-48867  25.686  16.401   2.787
75800ION    CL-48868  28.124  42.602   5.129
75801ION    CL-48869  18.612  28.728  11.170
75802ION    CL-48870  30.879  12.193   1.209
75803ION    CL-48871  32.669  34.621  11.524
75804ION    CL-48872   2.788  31.552   1.680
75805ION    CL-48873  39.883  11.048  13.890
75806ION    CL-48874  44.525   2.193  11.175
75807ION    CL-48875  35.571   2.191  10.784
75808ION    CL-48876  17.407  19.200   4.164
75809ION    CL-48877   3.520  42.409   2.854
75810ION    CL-48878  17.979   1.673  13.690
75811ION    CL-48879  20.297  17.437   0.593
75812ION    CL-48880   2.266  30.500  13.396
75813ION    CL-48881  31.854  44.836   2.617
75814ION    CL-48882  38.804  31.348  12.091
75815ION    CL-48883   9.849  43.944  14.277
75816ION    CL-48884   8.590  27.018  14.882
75817ION    CL-48885  38.328   1.409   4.123
75818ION    CL-48886  17.160   9.062   1.924
75819ION    CL-48887  13.528  26.051   2.242
75820ION    CL-48888  35.984  32.177   2.715
75821ION    CL-48889  37.319  11.016   4.806
75822ION    CL-48890   0.854  40.493   2.796
75823ION    CL-48891   6.883  25.757   3.610
75824ION    CL-48892  35.953   5.651   4.544
75825ION    CL-48893  28.178  24.078  14.610
75826ION    CL-48894  34.041  35.794  12.710
75827ION    CL-48895  20.326   2.914   3.018
75828ION    CL-48896  25.173  17.242  11.718
75829ION    CL-48897  35.516   0.751  12.544
75830ION    CL-48898  26.483  30.623   4.176
75831ION    CL-48899  14.964  17.004   0.353
75832ION    CL-48900  18.992  26.473   0.343
75833ION    CL-48901   9.297   6.060  12.210
75834ION    CL-48902   0.862  35.592   1.492
75835ION    CL-48903  31.195  11.304  13.800
75836ION    CL-48904  30.099   5.680  10.864
75837ION    CL-48905  39.350  12.339  12.806
75838ION    CL-48906  40.356  44.963   4.972
75839ION    CL-48907  33.150  44.025   3.190
75840ION    CL-48908  38.030  34.064  12.427
75841ION    CL-48909  14.725  17.328   3.191
75842ION    CL-48910  38.161  32.718  11.655
75843ION    CL-48911  42.924   0.702   3.542
75844ION    CL-48912   3.188  12.177   1.776
75845ION    CL-48913  18.847  11.250  12.823
75846ION    CL-48914  25.812  42.947  13.496
75847ION    CL-48915  35.704   7.357   0.102
75848ION    CL-48916  44.500  20.019   3.015
75849ION    CL-48917  20.322  29.888   3.321
75850ION    CL-48918  15.390   7.108   2.432
75851ION    CL-48919   2.380  29.079  11.670
75852ION    CL-48920  30.549  38.058  12.254
75853ION    CL-48921  26.438  27.495   3.572
75854ION    CL-48922  34.269  22.066   1.644
75855ION    CL-48923  42.320  28.063   4.306
75856ION    CL-48924  43.550  29.584   1.339
75857ION    CL-48925  37.864   6.164  12.100
75858ION    CL-48926  42.865  35.738   5.279
75859ION    CL-48927  24.650  37.058  13.495
75860ION    CL-48928  32.407  16.413  12.614
75861ION    CL-48929  41.629  14.817   0.397
75862ION    CL-48930  35.040  28.142   4.233
75863ION    CL-48931  32.300   4.844  14.888
75864ION    CL-48932   2.643  15.316  11.049
75865ION    CL-48933   7.175   3.552  14.587
75866ION    CL-48934   4.632  16.566  12.481
75867ION    CL-48935  20.444  38.124   2.877
75868ION    CL-48936  43.799  23.078  11.094
75869ION    CL-48937  24.023  10.849  11.555
75870ION    CL-48938  23.626  36.273   5.070
75871ION    CL-48939   8.897  43.571  10.397
75872ION    CL-48940  31.809  19.864   2.790
75873ION    CL-48941  40.943  14.803  10.290
75874ION    CL-48942   5.215  35.630   3.845
75875ION    CL-48943  25.628  27.178   5.106
75876ION    CL-48944  23.349  16.194   3.230
75877ION    CL-48945   9.747  39.390   1.404
75878ION    CL-48946  36.704  38.755  14.386
75879ION    CL-48947  27.171  13.812   2.764
75880ION    CL-48948   4.715   0.541  11.921
75881ION    CL-48949  17.241  14.079   2.925
75882ION    CL-48950  42.967  40.475  13.078
75883ION    CL-48951   8.385   1.821   0.443
75884ION    CL-48952   0.440  32.860   0.089
75885ION    CL-48953   3.234   6.129  14.629
75886ION    CL-48954  36.440  34.361   3.301
75887ION    CL-48955  24.470  31.004   4.334
75888ION    CL-48956   4.687  19.641  12.023
75889ION    CL-48957  32.258  17.656  11.924
75890ION    CL-48958  30.175  20.739  12.456
75891ION    CL-48959   8.437   8.381   3.475
75892ION    CL-48960   0.846  12.240   4.875
75893ION    CL-48961  36.548  14.111  11.035
75894ION    CL-48962  30.603  17.981  13.374
75895ION    CL-48963   8.379  27.660  10.393
75896ION    CL-48964  18.121  34.319  14.538
75897ION    CL-48965  10.850  39.080  12.981
75898ION    CL-48966  14.192  17.638   0.323
75899ION    CL-48967   8.751  26.215  14.185
75900ION    CL-48968  16.680  39.805   1.413
75901ION    CL-48969   9.307   0.145   1.438
75902ION    CL-48970  37.031  27.070  14.312
75903ION    CL-48971  13.016  33.916   2.259
75904ION    CL-48972  38.106  33.249  14.373
75905ION    CL-48973  35.909   0.292   4.944
75906ION    CL-48974  40.544   3.675  13.183
75907ION    CL-48975  42.345  27.173  11.997
75908ION    CL-48976  42.627  14.004  10.231
75909ION    CL-48977  26.873  27.585   1.272
75910ION    CL-48978  26.353  28.085  12.073
75911ION    CL-48979   6.384  41.948   3.344
75912ION    CL-48980  18.285   2.993   1.052
75913ION    CL-48981  16.054  25.761  12.461
75914ION    CL-48982  41.981  31.389   0.622
75915ION    CL-48983  14.344  43.820  14.340
75916ION    CL-48984  29.866  28.220  11.661
75917ION    CL-48985   9.628  31.440   1.370
75918ION    CL-48986  19.208  44.756  11.813
75919ION    CL-48987   7.853  42.395  12.395
75920ION    CL-48988  42.639  25.649   5.024
75921ION    CL-48989   7.289  30.868  11.878
75922ION    CL-48990   9.125  16.721   3.713
75923ION    CL-48991  13.705  35.889  12.414
75924ION    CL-48992  24.839  33.915  11.090
75925ION    CL-48993  36.829  22.764   0.336
75926ION    CL-48994  23.287   3.908  11.226
75927ION    CL-48995  19.705   1.767   2.662
75928ION    CL-48996  24.208  40.873   1.725
75929ION    CL-48997  16.844  19.023  13.007
75930ION    CL-48998   2.535  14.191  10.770
75931ION    CL-48999  14.248  27.674  13.482
75932ION    CL-49000  22.730  37.611   3.329
75933ION    CL-49001   3.995  40.055   3.225
75934ION    CL-49002  40.794  33.711  12.364
75935ION    CL-49003  41.847  34.789  11.092
75936ION    CL-49004  14.393  22.782   0.482
75937ION    CL-49005   7.154  38.700   1.740
75938ION    CL-49006  24.516  28.176   1.247
75939ION    CL-49007  39.541  42.588   3.922
75940ION    CL-49008   8.024  27.039   4.300
75941ION    CL-49009  39.981  19.581   0.467
75942ION    CL-49010  39.813   2.757  10.058
75943ION    CL-49011  13.769  44.669  11.158
75944ION    CL-49012  26.067  38.743   4.051
75945ION    CL-49013   2.989  17.841  11.939
75946ION    CL-49014  23.746  32.286   3.143
75947ION    CL-49015  41.495  37.477  10.603
75948ION    CL-49016  26.101  20.231  13.670
75949ION    CL-49017  28.018  31.959   3.235
75950ION    CL-49018   3.373   3.674   3.553
75951ION    CL-49019   5.283  24.759  12.359
75952ION    CL-49020  35.197  44.047  12.115
75953ION    CL-49021  32.357   1.223  14.268
75954ION    CL-49022   3.258  18.413   1.535
75955ION    CL-49023   7.137  18.039  11.635
75956ION    CL-49024  39.060  28.450  10.736
75957ION    CL-49025  10.860  41.073   3.662
75958ION    CL-49026   1.517   1.293  14.812
75959ION    CL-49027  44.240  12.301  13.329
75960ION    CL-49028  12.840  23.196   0.683
75961ION    CL-49029  32.475  23.148   3.920
75962ION    CL-49030  17.208  15.627  12.153
  45.00000  45.00000  15.00000
